<event>
 4    1  0.2428650E-005  0.9815208E+03  0.7818608E-02  0.9329048E-01
          1   -1    0    0  501    0  0.00000000000E+00  0.00000000000E+00  0.13324759683E+04  0.13324759684E+04  0.50400000000E-02 0.  1.
         -1   -1    0    0    0  501 -0.00000000000E+00 -0.00000000000E+00 -0.18075055204E+03  0.18075055211E+03  0.50400000000E-02 0. -1.
    5000001    1    1    2    0    0 -0.36505555130E+03 -0.20200841022E+03  0.88245813927E+03  0.98996480791E+03  0.16500000000E+03 0.  0.
   -5000001    1    1    2    0    0  0.36505555130E+03  0.20200841022E+03  0.26926727703E+03  0.52326171255E+03  0.16500000000E+03 0.  0.
<mgrwt>
<rscale>  0 0.98152079E+03</rscale>
<asrwt>0</asrwt>
<pdfrwt beam="1">  1        1 0.19035371E+00 0.98152079E+03</pdfrwt>
<pdfrwt beam="2">  1       -1 0.25821508E-01 0.98152079E+03</pdfrwt>
<totfact> 0.13322637E+02</totfact>
</mgrwt>
</event>
<event>
 4    1  0.2428650E-005  0.6188586E+03  0.7818608E-02  0.9867035E-01
          1   -1    0    0  501    0  0.00000000000E+00  0.00000000000E+00  0.17990888170E+04  0.17990888170E+04  0.50400000000E-02 0.  1.
         -1   -1    0    0    0  501 -0.00000000000E+00 -0.00000000000E+00 -0.53219435913E+02  0.53219436152E+02  0.50400000000E-02 0. -1.
    5000001    1    1    2    0    0 -0.10190702992E+03  0.24096028979E+03  0.89878447640E+03  0.95051851061E+03  0.16500000000E+03 0.  0.
   -5000001    1    1    2    0    0  0.10190702992E+03 -0.24096028979E+03  0.84708490465E+03  0.90178974251E+03  0.16500000000E+03 0.  0.
<mgrwt>
<rscale>  0 0.61885860E+03</rscale>
<asrwt>0</asrwt>
<pdfrwt beam="1">  1        1 0.25701273E+00 0.61885860E+03</pdfrwt>
<pdfrwt beam="2">  1       -1 0.76027753E-02 0.61885860E+03</pdfrwt>
<totfact> 0.49905109E+02</totfact>
</mgrwt>
</event>
<event>
 4    1  0.2428650E-005  0.4603031E+03  0.7818608E-02  0.1024693E+00
          1   -1    0    0  501    0  0.00000000000E+00  0.00000000000E+00  0.24088164614E+03  0.24088164620E+03  0.50400000000E-02 0. -1.
         -1   -1    0    0    0  501 -0.00000000000E+00 -0.00000000000E+00 -0.21989943387E+03  0.21989943393E+03  0.50400000000E-02 0.  1.
    5000001    1    1    2    0    0 -0.11959362537E+03 -0.56637544725E+02  0.10132832639E+03  0.23452692048E+03  0.16500000000E+03 0.  0.
   -5000001    1    1    2    0    0  0.11959362537E+03  0.56637544725E+02 -0.80346114121E+02  0.22625415964E+03  0.16500000000E+03 0.  0.
<mgrwt>
<rscale>  0 0.46030311E+03</rscale>
<asrwt>0</asrwt>
<pdfrwt beam="1">  1        1 0.34411664E-01 0.46030311E+03</pdfrwt>
<pdfrwt beam="2">  1       -1 0.31414205E-01 0.46030311E+03</pdfrwt>
<totfact> 0.12071122E+03</totfact>
</mgrwt>
</event>
<event>
 4    1  0.2428650E-005  0.6892262E+03  0.7818608E-02  0.9735836E-01
          1   -1    0    0  501    0  0.00000000000E+00  0.00000000000E+00  0.83276153233E+03  0.83276153234E+03  0.50400000000E-02 0.  1.
         -1   -1    0    0    0  501 -0.00000000000E+00 -0.00000000000E+00 -0.14260765881E+03  0.14260765889E+03  0.50400000000E-02 0. -1.
    5000001    1    1    2    0    0 -0.59464038112E+02  0.26348442645E+03  0.15221338603E+03  0.35121778101E+03  0.16500000000E+03 0.  0.
   -5000001    1    1    2    0    0  0.59464038112E+02 -0.26348442645E+03  0.53794048749E+03  0.62415141023E+03  0.16500000000E+03 0.  0.
<mgrwt>
<rscale>  0 0.68922615E+03</rscale>
<asrwt>0</asrwt>
<pdfrwt beam="1">  1        1 0.11896593E+00 0.68922615E+03</pdfrwt>
<pdfrwt beam="2">  1       -1 0.20372522E-01 0.68922615E+03</pdfrwt>
<totfact> 0.46706521E+02</totfact>
</mgrwt>
</event>
<event>
 4    1  0.2428650E-005  0.5110734E+03  0.7818608E-02  0.1010928E+00
          1   -1    0    0  501    0  0.00000000000E+00  0.00000000000E+00  0.10850385848E+03  0.10850385860E+03  0.50400000000E-02 0.  1.
         -1   -1    0    0    0  501 -0.00000000000E+00 -0.00000000000E+00 -0.60181277884E+03  0.60181277886E+03  0.50400000000E-02 0. -1.
    5000001    1    1    2    0    0  0.18757137553E+03 -0.23838467738E+02 -0.17967113917E+03  0.30863896662E+03  0.16500000000E+03 0.  0.
   -5000001    1    1    2    0    0 -0.18757137553E+03  0.23838467738E+02 -0.31363778118E+03  0.40167767084E+03  0.16500000000E+03 0.  0.
<mgrwt>
<rscale>  0 0.51107341E+03</rscale>
<asrwt>0</asrwt>
<pdfrwt beam="1">  1        1 0.15500552E-01 0.51107341E+03</pdfrwt>
<pdfrwt beam="2">  1       -1 0.85973252E-01 0.51107341E+03</pdfrwt>
<totfact> 0.49926351E+02</totfact>
</mgrwt>
</event>
<event>
 4    1  0.2428650E-005  0.4635089E+03  0.7818608E-02  0.1023768E+00
         -1   -1    0    0    0  501 -0.00000000000E+00  0.00000000000E+00  0.40889453437E+02  0.40889453748E+02  0.50400000000E-02 0.  1.
          1   -1    0    0  501    0  0.00000000000E+00 -0.00000000000E+00 -0.13135448457E+04  0.13135448458E+04  0.50400000000E-02 0. -1.
    5000001    1    1    2    0    0 -0.48930414715E+02 -0.14109322498E+03 -0.82533447442E+03  0.85481195493E+03  0.16500000000E+03 0.  0.
   -5000001    1    1    2    0    0  0.48930414715E+02  0.14109322498E+03 -0.44732091788E+03  0.49962234457E+03  0.16500000000E+03 0.  0.
<mgrwt>
<rscale>  0 0.46350893E+03</rscale>
<asrwt>0</asrwt>
<pdfrwt beam="1">  1        1 0.18764924E+00 0.46350893E+03</pdfrwt>
<pdfrwt beam="2">  1       -1 0.58413514E-02 0.46350893E+03</pdfrwt>
<totfact> 0.15381277E+03</totfact>
</mgrwt>
</event>
<event>
 4    1  0.2428650E-005  0.5793403E+03  0.7818608E-02  0.9949220E-01
          1   -1    0    0  501    0  0.00000000000E+00  0.00000000000E+00  0.23432754508E+03  0.23432754513E+03  0.50400000000E-02 0.  1.
         -1   -1    0    0    0  501 -0.00000000000E+00 -0.00000000000E+00 -0.35808338631E+03  0.35808338634E+03  0.50400000000E-02 0. -1.
    5000001    1    1    2    0    0  0.15704612796E+03  0.10316306195E+03 -0.21138775883E+03  0.32743837320E+03  0.16500000000E+03 0.  0.
   -5000001    1    1    2    0    0 -0.15704612796E+03 -0.10316306195E+03  0.87631917607E+02  0.26497255828E+03  0.16500000000E+03 0.  0.
<mgrwt>
<rscale>  0 0.57934032E+03</rscale>
<asrwt>0</asrwt>
<pdfrwt beam="1">  1        1 0.33475364E-01 0.57934032E+03</pdfrwt>
<pdfrwt beam="2">  1       -1 0.51154769E-01 0.57934032E+03</pdfrwt>
<totfact> 0.51728001E+02</totfact>
</mgrwt>
</event>
<event>
 4    1  0.2428650E-005  0.5581015E+03  0.7818608E-02  0.9996360E-01
         -1   -1    0    0    0  501 -0.00000000000E+00  0.00000000000E+00  0.48722713870E+03  0.48722713872E+03  0.50400000000E-02 0. -1.
          1   -1    0    0  501    0  0.00000000000E+00 -0.00000000000E+00 -0.15982139298E+03  0.15982139306E+03  0.50400000000E-02 0.  1.
    5000001    1    1    2    0    0  0.17451961748E+03  0.13797033994E+02 -0.24456221511E+00  0.24056706933E+03  0.16500000000E+03 0.  0.
   -5000001    1    1    2    0    0 -0.17451961748E+03 -0.13797033994E+02  0.32765030793E+03  0.40648146246E+03  0.16500000000E+03 0.  0.
<mgrwt>
<rscale>  0 0.55810150E+03</rscale>
<asrwt>0</asrwt>
<pdfrwt beam="1">  1        1 0.22831627E-01 0.55810150E+03</pdfrwt>
<pdfrwt beam="2">  1       -1 0.69603878E-01 0.55810150E+03</pdfrwt>
<totfact> 0.46490860E+02</totfact>
</mgrwt>
</event>
<event>
 4    1  0.2428650E-005  0.1044193E+04  0.7818608E-02  0.9261360E-01
         -1   -1    0    0    0  501 -0.00000000000E+00  0.00000000000E+00  0.44833856665E+03  0.44833856668E+03  0.50400000000E-02 0. -1.
          1   -1    0    0  501    0  0.00000000000E+00 -0.00000000000E+00 -0.60798901979E+03  0.60798901981E+03  0.50400000000E-02 0.  1.
    5000001    1    1    2    0    0  0.40296260891E+03 -0.27378813151E+03  0.10776240612E+02  0.51447053608E+03  0.16500000000E+03 0.  0.
   -5000001    1    1    2    0    0 -0.40296260891E+03  0.27378813151E+03 -0.17042669375E+03  0.54185705041E+03  0.16500000000E+03 0.  0.
<mgrwt>
<rscale>  0 0.10441933E+04</rscale>
<asrwt>0</asrwt>
<pdfrwt beam="1">  1        1 0.86855574E-01 0.10441933E+04</pdfrwt>
<pdfrwt beam="2">  1       -1 0.64048367E-01 0.10441933E+04</pdfrwt>
<totfact> 0.92469000E+01</totfact>
</mgrwt>
</event>
<event>
 4    1  0.2428650E-005  0.7171551E+03  0.7818608E-02  0.9688336E-01
          1   -1    0    0  501    0  0.00000000000E+00  0.00000000000E+00  0.24450428148E+04  0.24450428148E+04  0.50400000000E-02 0.  1.
         -1   -1    0    0    0  501 -0.00000000000E+00 -0.00000000000E+00 -0.52587159145E+02  0.52587159386E+02  0.50400000000E-02 0. -1.
    5000001    1    1    2    0    0  0.17547366233E+03 -0.23184815674E+03  0.74470815762E+03  0.81630865118E+03  0.16500000000E+03 0.  0.
   -5000001    1    1    2    0    0 -0.17547366233E+03  0.23184815674E+03  0.16477474981E+04  0.16813213231E+04  0.16500000000E+03 0.  0.
<mgrwt>
<rscale>  0 0.71715509E+03</rscale>
<asrwt>0</asrwt>
<pdfrwt beam="1">  1        1 0.34929183E+00 0.71715509E+03</pdfrwt>
<pdfrwt beam="2">  1       -1 0.75124513E-02 0.71715509E+03</pdfrwt>
<totfact> 0.20051350E+02</totfact>
</mgrwt>
</event>
<event>
 4    1  0.2428650E-005  0.4024532E+03  0.7818608E-02  0.1042934E+00
         -1   -1    0    0    0  501 -0.00000000000E+00  0.00000000000E+00  0.55426693778E+02  0.55426694008E+02  0.50400000000E-02 0. -1.
          1   -1    0    0  501    0  0.00000000000E+00 -0.00000000000E+00 -0.73055302669E+03  0.73055302671E+03  0.50400000000E-02 0.  1.
    5000001    1    1    2    0    0  0.10096973553E+03  0.49165588977E+00 -0.22931830660E+03  0.30001169137E+03  0.16500000000E+03 0.  0.
   -5000001    1    1    2    0    0 -0.10096973553E+03 -0.49165588977E+00 -0.44580802631E+03  0.48596802934E+03  0.16500000000E+03 0.  0.
<mgrwt>
<rscale>  0 0.40245317E+03</rscale>
<asrwt>0</asrwt>
<pdfrwt beam="1">  1        1 0.10436471E+00 0.40245317E+03</pdfrwt>
<pdfrwt beam="2">  1       -1 0.79180995E-02 0.40245317E+03</pdfrwt>
<totfact> 0.25932973E+03</totfact>
</mgrwt>
</event>
<event>
 4    1  0.2428650E-005  0.4240432E+03  0.7818608E-02  0.1035758E+00
         -1   -1    0    0    0  501 -0.00000000000E+00  0.00000000000E+00  0.53640556261E+02  0.53640556498E+02  0.50400000000E-02 0. -1.
          1   -1    0    0  501    0  0.00000000000E+00 -0.00000000000E+00 -0.83804434808E+03  0.83804434809E+03  0.50400000000E-02 0.  1.
    5000001    1    1    2    0    0 -0.42812274048E+02  0.76355311350E+02 -0.18123650875E+03  0.26025890279E+03  0.16500000000E+03 0.  0.
   -5000001    1    1    2    0    0  0.42812274048E+02 -0.76355311350E+02 -0.60316728307E+03  0.63142600180E+03  0.16500000000E+03 0.  0.
<mgrwt>
<rscale>  0 0.42404323E+03</rscale>
<asrwt>0</asrwt>
<pdfrwt beam="1">  1        1 0.11972061E+00 0.42404323E+03</pdfrwt>
<pdfrwt beam="2">  1       -1 0.76629371E-02 0.42404323E+03</pdfrwt>
<totfact> 0.22195645E+03</totfact>
</mgrwt>
</event>
<event>
 4    1  0.2428650E-005  0.6091418E+03  0.7818608E-02  0.9886619E-01
         -1   -1    0    0    0  501 -0.00000000000E+00  0.00000000000E+00  0.18333435219E+03  0.18333435226E+03  0.50400000000E-02 0. -1.
          1   -1    0    0  501    0  0.00000000000E+00 -0.00000000000E+00 -0.50597960112E+03  0.50597960114E+03  0.50400000000E-02 0.  1.
    5000001    1    1    2    0    0 -0.71985193010E+02 -0.91961607659E+02  0.96476125028E+02  0.22398983905E+03  0.16500000000E+03 0.  0.
   -5000001    1    1    2    0    0  0.71985193010E+02  0.91961607659E+02 -0.41912137395E+03  0.46532411435E+03  0.16500000000E+03 0.  0.
<mgrwt>
<rscale>  0 0.60914183E+03</rscale>
<asrwt>0</asrwt>
<pdfrwt beam="1">  1        1 0.72282800E-01 0.60914183E+03</pdfrwt>
<pdfrwt beam="2">  1       -1 0.26190622E-01 0.60914183E+03</pdfrwt>
<totfact> 0.62894404E+02</totfact>
</mgrwt>
</event>
<event>
 4    1  0.2428650E-005  0.5693002E+03  0.7818608E-02  0.9971228E-01
         -1   -1    0    0    0  501 -0.00000000000E+00  0.00000000000E+00  0.11789658216E+03  0.11789658226E+03  0.50400000000E-02 0.  1.
          1   -1    0    0  501    0  0.00000000000E+00 -0.00000000000E+00 -0.68726067786E+03  0.68726067788E+03  0.50400000000E-02 0. -1.
    5000001    1    1    2    0    0  0.18426446929E+03 -0.12682701895E+03 -0.37143018660E+03  0.46392226816E+03  0.16500000000E+03 0.  0.
   -5000001    1    1    2    0    0 -0.18426446929E+03  0.12682701895E+03 -0.19793390911E+03  0.34123499199E+03  0.16500000000E+03 0.  0.
<mgrwt>
<rscale>  0 0.56930022E+03</rscale>
<asrwt>0</asrwt>
<pdfrwt beam="1">  1        1 0.98180094E-01 0.56930022E+03</pdfrwt>
<pdfrwt beam="2">  1       -1 0.16842369E-01 0.56930022E+03</pdfrwt>
<totfact> 0.85702684E+02</totfact>
</mgrwt>
</event>
<event>
 4    1  0.2428650E-005  0.4560326E+03  0.7818608E-02  0.1025938E+00
          1   -1    0    0  501    0  0.00000000000E+00  0.00000000000E+00  0.25992111403E+04  0.25992111403E+04  0.50400000000E-02 0.  1.
         -1   -1    0    0    0  501 -0.00000000000E+00 -0.00000000000E+00 -0.20002777600E+02  0.20002778235E+02  0.50400000000E-02 0. -1.
    5000001    1    1    2    0    0 -0.11381431167E+03 -0.96512680983E+02  0.15766660015E+04  0.15922842320E+04  0.16500000000E+03 0.  0.
   -5000001    1    1    2    0    0  0.11381431167E+03  0.96512680983E+02  0.10025423611E+04  0.10269296865E+04  0.16500000000E+03 0.  0.
<mgrwt>
<rscale>  0 0.45603264E+03</rscale>
<asrwt>0</asrwt>
<pdfrwt beam="1">  1        1 0.37131562E+00 0.45603264E+03</pdfrwt>
<pdfrwt beam="2">  1       -1 0.28575417E-02 0.45603264E+03</pdfrwt>
<totfact> 0.71881747E+02</totfact>
</mgrwt>
</event>
<event>
 4    1  0.2428650E-005  0.6124168E+03  0.7818608E-02  0.9879975E-01
          1   -1    0    0  501    0  0.00000000000E+00  0.00000000000E+00  0.16580116211E+04  0.16580116211E+04  0.50400000000E-02 0.  1.
         -1   -1    0    0    0  501 -0.00000000000E+00 -0.00000000000E+00 -0.56551832729E+02  0.56551832953E+02  0.50400000000E-02 0. -1.
    5000001    1    1    2    0    0  0.16498441751E+03 -0.22923113780E+01  0.24562225730E+03  0.33879257075E+03  0.16500000000E+03 0.  0.
   -5000001    1    1    2    0    0 -0.16498441751E+03  0.22923113780E+01  0.13558375310E+04  0.13757708833E+04  0.16500000000E+03 0.  0.
<mgrwt>
<rscale>  0 0.61241684E+03</rscale>
<asrwt>0</asrwt>
<pdfrwt beam="1">  1        1 0.23685882E+00 0.61241684E+03</pdfrwt>
<pdfrwt beam="2">  1       -1 0.80788326E-02 0.61241684E+03</pdfrwt>
<totfact> 0.55653899E+02</totfact>
</mgrwt>
</event>
<event>
 4    1  0.2428650E-005  0.4084889E+03  0.7818608E-02  0.1040879E+00
          1   -1    0    0  501    0  0.00000000000E+00  0.00000000000E+00  0.70870013474E+03  0.70870013476E+03  0.50400000000E-02 0.  1.
         -1   -1    0    0    0  501 -0.00000000000E+00 -0.00000000000E+00 -0.58862408221E+02  0.58862408437E+02  0.50400000000E-02 0. -1.
    5000001    1    1    2    0    0 -0.27802933538E+01 -0.10863810002E+03  0.42220884842E+03  0.46614941648E+03  0.16500000000E+03 0.  0.
   -5000001    1    1    2    0    0  0.27802933538E+01  0.10863810002E+03  0.22762887811E+03  0.30141312671E+03  0.16500000000E+03 0.  0.
<mgrwt>
<rscale>  0 0.40848891E+03</rscale>
<asrwt>0</asrwt>
<pdfrwt beam="1">  1        1 0.10124288E+00 0.40848891E+03</pdfrwt>
<pdfrwt beam="2">  1       -1 0.84089150E-02 0.40848891E+03</pdfrwt>
<totfact> 0.24703877E+03</totfact>
</mgrwt>
</event>
<event>
 4    1  0.2428650E-005  0.4603304E+03  0.7818608E-02  0.1024685E+00
          1   -1    0    0  501    0  0.00000000000E+00  0.00000000000E+00  0.88027188554E+03  0.88027188556E+03  0.50400000000E-02 0. -1.
         -1   -1    0    0    0  501 -0.00000000000E+00 -0.00000000000E+00 -0.60181428392E+02  0.60181428604E+02  0.50400000000E-02 0.  1.
    5000001    1    1    2    0    0 -0.74488220090E+02  0.12970801007E+03  0.29129885988E+03  0.36667790849E+03  0.16500000000E+03 0.  0.
   -5000001    1    1    2    0    0  0.74488220090E+02 -0.12970801007E+03  0.52879159727E+03  0.57377540567E+03  0.16500000000E+03 0.  0.
<mgrwt>
<rscale>  0 0.46033040E+03</rscale>
<asrwt>0</asrwt>
<pdfrwt beam="1">  1        1 0.12575313E+00 0.46033040E+03</pdfrwt>
<pdfrwt beam="2">  1       -1 0.85973464E-02 0.46033040E+03</pdfrwt>
<totfact> 0.17196062E+03</totfact>
</mgrwt>
</event>
<event>
 4    1  0.2428650E-005  0.3759379E+03  0.7818608E-02  0.1052445E+00
          1   -1    0    0  501    0  0.00000000000E+00  0.00000000000E+00  0.40920002454E+02  0.40920002764E+02  0.50400000000E-02 0.  1.
         -1   -1    0    0    0  501 -0.00000000000E+00 -0.00000000000E+00 -0.86344865175E+03  0.86344865176E+03  0.50400000000E-02 0. -1.
    5000001    1    1    2    0    0 -0.45966247043E+02  0.28518013218E+02 -0.23810637822E+03  0.29469614910E+03  0.16500000000E+03 0.  0.
   -5000001    1    1    2    0    0  0.45966247043E+02 -0.28518013218E+02 -0.58442227108E+03  0.60967250543E+03  0.16500000000E+03 0.  0.
<mgrwt>
<rscale>  0 0.37593787E+03</rscale>
<asrwt>0</asrwt>
<pdfrwt beam="1">  1        1 0.58457152E-02 0.37593787E+03</pdfrwt>
<pdfrwt beam="2">  1       -1 0.12334980E+00 0.37593787E+03</pdfrwt>
<totfact> 0.83165032E+02</totfact>
</mgrwt>
</event>
<event>
 4    1  0.2428650E-005  0.1975918E+04  0.7818608E-02  0.8617963E-01
         -1   -1    0    0    0  501 -0.00000000000E+00  0.00000000000E+00  0.30521340637E+03  0.30521340641E+03  0.50400000000E-02 0.  1.
          1   -1    0    0  501    0  0.00000000000E+00 -0.00000000000E+00 -0.31979697827E+04  0.31979697827E+04  0.50400000000E-02 0. -1.
    5000001    1    1    2    0    0  0.76487272160E+03 -0.33209464494E+03 -0.23390687473E+04  0.24887315520E+04  0.16500000000E+03 0.  0.
   -5000001    1    1    2    0    0 -0.76487272160E+03  0.33209464494E+03 -0.55368762905E+03  0.10144516371E+04  0.16500000000E+03 0.  0.
<mgrwt>
<rscale>  0 0.19759183E+04</rscale>
<asrwt>0</asrwt>
<pdfrwt beam="1">  1        1 0.45685281E+00 0.19759183E+04</pdfrwt>
<pdfrwt beam="2">  1       -1 0.43601917E-01 0.19759183E+04</pdfrwt>
<totfact> 0.30520439E+00</totfact>
</mgrwt>
</event>
<event>
 4    1  0.2428650E-005  0.4792548E+03  0.7818608E-02  0.1019340E+00
          1   -1    0    0  501    0  0.00000000000E+00  0.00000000000E+00  0.99120958486E+03  0.99120958488E+03  0.50400000000E-02 0. -1.
         -1   -1    0    0    0  501 -0.00000000000E+00 -0.00000000000E+00 -0.57930526999E+02  0.57930527218E+02  0.50400000000E-02 0.  1.
    5000001    1    1    2    0    0 -0.17069066865E+03 -0.15046571221E+01  0.39541022968E+03  0.46120691462E+03  0.16500000000E+03 0.  0.
   -5000001    1    1    2    0    0  0.17069066865E+03  0.15046571221E+01  0.53786882819E+03  0.58793319748E+03  0.16500000000E+03 0.  0.
<mgrwt>
<rscale>  0 0.47925481E+03</rscale>
<asrwt>0</asrwt>
<pdfrwt beam="1">  1        1 0.14160136E+00 0.47925481E+03</pdfrwt>
<pdfrwt beam="2">  1       -1 0.82757903E-02 0.47925481E+03</pdfrwt>
<totfact> 0.15029624E+03</totfact>
</mgrwt>
</event>
<event>
 4    1  0.2428650E-005  0.2068183E+04  0.7818608E-02  0.8575390E-01
         -1   -1    0    0    0  501 -0.00000000000E+00  0.00000000000E+00  0.11428619670E+04  0.11428619670E+04  0.50400000000E-02 0. -1.
          1   -1    0    0  501    0  0.00000000000E+00 -0.00000000000E+00 -0.93567337399E+03  0.93567337400E+03  0.50400000000E-02 0.  1.
    5000001    1    1    2    0    0  0.13729199336E+03 -0.99205056649E+03 -0.95150683916E+02  0.10194567527E+04  0.16500000000E+03 0.  0.
   -5000001    1    1    2    0    0 -0.13729199336E+03  0.99205056649E+03  0.30233927692E+03  0.10590785883E+04  0.16500000000E+03 0.  0.
<mgrwt>
<rscale>  0 0.20681833E+04</rscale>
<asrwt>0</asrwt>
<pdfrwt beam="1">  1        1 0.13366762E+00 0.20681833E+04</pdfrwt>
<pdfrwt beam="2">  1       -1 0.16326600E+00 0.20681833E+04</pdfrwt>
<totfact> 0.49411557E+00</totfact>
</mgrwt>
</event>
<event>
 4    1  0.2428650E-005  0.4739042E+03  0.7818608E-02  0.1020824E+00
          1   -1    0    0  501    0  0.00000000000E+00  0.00000000000E+00  0.70454557079E+03  0.70454557081E+03  0.50400000000E-02 0.  1.
         -1   -1    0    0    0  501 -0.00000000000E+00 -0.00000000000E+00 -0.79691515832E+02  0.79691515991E+02  0.50400000000E-02 0. -1.
    5000001    1    1    2    0    0  0.88670129038E+02 -0.13018217488E+03  0.20631669237E+03  0.30757335384E+03  0.16500000000E+03 0.  0.
   -5000001    1    1    2    0    0 -0.88670129038E+02  0.13018217488E+03  0.41853736259E+03  0.47666373297E+03  0.16500000000E+03 0.  0.
<mgrwt>
<rscale>  0 0.47390423E+03</rscale>
<asrwt>0</asrwt>
<pdfrwt beam="1">  1        1 0.10064937E+00 0.47390423E+03</pdfrwt>
<pdfrwt beam="2">  1       -1 0.11384502E-01 0.47390423E+03</pdfrwt>
<totfact> 0.15519510E+03</totfact>
</mgrwt>
</event>
<event>
 4    1  0.2428650E-005  0.6421383E+03  0.7818608E-02  0.9821644E-01
          1   -1    0    0  501    0  0.00000000000E+00  0.00000000000E+00  0.34381227400E+03  0.34381227404E+03  0.50400000000E-02 0. -1.
         -1   -1    0    0    0  501 -0.00000000000E+00 -0.00000000000E+00 -0.29983051464E+03  0.29983051468E+03  0.50400000000E-02 0.  1.
    5000001    1    1    2    0    0  0.22597585142E+03  0.14713979291E+03 -0.34222658965E+02  0.31798017936E+03  0.16500000000E+03 0.  0.
   -5000001    1    1    2    0    0 -0.22597585142E+03 -0.14713979291E+03  0.78204418330E+02  0.32566260935E+03  0.16500000000E+03 0.  0.
<mgrwt>
<rscale>  0 0.64213834E+03</rscale>
<asrwt>0</asrwt>
<pdfrwt beam="1">  1        1 0.49116039E-01 0.64213834E+03</pdfrwt>
<pdfrwt beam="2">  1       -1 0.42832931E-01 0.64213834E+03</pdfrwt>
<totfact> 0.43862447E+02</totfact>
</mgrwt>
</event>
<event>
 4    1  0.2428650E-005  0.5250436E+03  0.7818608E-02  0.1007441E+00
          1   -1    0    0  501    0  0.00000000000E+00  0.00000000000E+00  0.60739490664E+02  0.60739490873E+02  0.50400000000E-02 0.  1.
         -1   -1    0    0    0  501 -0.00000000000E+00 -0.00000000000E+00 -0.11346439214E+04  0.11346439214E+04  0.50400000000E-02 0. -1.
    5000001    1    1    2    0    0 -0.14315839329E+03  0.65353693424E+02 -0.24073845185E+03  0.33158020600E+03  0.16500000000E+03 0.  0.
   -5000001    1    1    2    0    0  0.14315839329E+03 -0.65353693424E+02 -0.83316597892E+03  0.86380320631E+03  0.16500000000E+03 0.  0.
<mgrwt>
<rscale>  0 0.52504359E+03</rscale>
<asrwt>0</asrwt>
<pdfrwt beam="1">  1        1 0.86770708E-02 0.52504359E+03</pdfrwt>
<pdfrwt beam="2">  1       -1 0.16209198E+00 0.52504359E+03</pdfrwt>
<totfact> 0.23624110E+02</totfact>
</mgrwt>
</event>
<event>
 4    1  0.2428650E-005  0.5261666E+03  0.7818608E-02  0.1007166E+00
         -1   -1    0    0    0  501 -0.00000000000E+00  0.00000000000E+00  0.89697482671E+02  0.89697482813E+02  0.50400000000E-02 0. -1.
          1   -1    0    0  501    0  0.00000000000E+00 -0.00000000000E+00 -0.77162513351E+03  0.77162513353E+03  0.50400000000E-02 0.  1.
    5000001    1    1    2    0    0 -0.10560658364E+03 -0.32007162202E+02 -0.62360021218E+03  0.65443061784E+03  0.16500000000E+03 0.  0.
   -5000001    1    1    2    0    0  0.10560658364E+03  0.32007162202E+02 -0.58327438661E+02  0.20689199850E+03  0.16500000000E+03 0.  0.
<mgrwt>
<rscale>  0 0.52616664E+03</rscale>
<asrwt>0</asrwt>
<pdfrwt beam="1">  1        1 0.11023216E+00 0.52616664E+03</pdfrwt>
<pdfrwt beam="2">  1       -1 0.12813927E-01 0.52616664E+03</pdfrwt>
<totfact> 0.11234075E+03</totfact>
</mgrwt>
</event>
<event>
 4    1  0.2428650E-005  0.4933186E+03  0.7818608E-02  0.1015538E+00
         -1   -1    0    0    0  501 -0.00000000000E+00  0.00000000000E+00  0.44782324554E+03  0.44782324556E+03  0.50400000000E-02 0. -1.
          1   -1    0    0  501    0  0.00000000000E+00 -0.00000000000E+00 -0.13585900285E+03  0.13585900294E+03  0.50400000000E-02 0.  1.
    5000001    1    1    2    0    0 -0.16008379908E+03 -0.88291243075E+02  0.13951713385E+03  0.28304098108E+03  0.16500000000E+03 0.  0.
   -5000001    1    1    2    0    0  0.16008379908E+03  0.88291243075E+02  0.17244710884E+03  0.30064126743E+03  0.16500000000E+03 0.  0.
<mgrwt>
<rscale>  0 0.49331864E+03</rscale>
<asrwt>0</asrwt>
<pdfrwt beam="1">  1        1 0.19408429E-01 0.49331864E+03</pdfrwt>
<pdfrwt beam="2">  1       -1 0.63974749E-01 0.49331864E+03</pdfrwt>
<totfact> 0.68214193E+02</totfact>
</mgrwt>
</event>
<event>
 4    1  0.2428650E-005  0.3517316E+03  0.7818608E-02  0.1061907E+00
          1   -1    0    0  501    0  0.00000000000E+00  0.00000000000E+00  0.14939472942E+04  0.14939472942E+04  0.50400000000E-02 0. -1.
         -1   -1    0    0    0  501 -0.00000000000E+00 -0.00000000000E+00 -0.20702728798E+02  0.20702729412E+02  0.50400000000E-02 0.  1.
    5000001    1    1    2    0    0  0.23446600310E+02  0.55038385066E+02  0.78473297851E+03  0.80412052235E+03  0.16500000000E+03 0.  0.
   -5000001    1    1    2    0    0 -0.23446600310E+02 -0.55038385066E+02  0.68851158688E+03  0.71052950126E+03  0.16500000000E+03 0.  0.
<mgrwt>
<rscale>  0 0.35173164E+03</rscale>
<asrwt>0</asrwt>
<pdfrwt beam="1">  1        1 0.21342108E+00 0.35173164E+03</pdfrwt>
<pdfrwt beam="2">  1       -1 0.29575323E-02 0.35173164E+03</pdfrwt>
<totfact> 0.32866955E+03</totfact>
</mgrwt>
</event>
<event>
 4    1  0.2428650E-005  0.4229885E+03  0.7818608E-02  0.1036098E+00
         -1   -1    0    0    0  501 -0.00000000000E+00  0.00000000000E+00  0.48020234491E+02  0.48020234756E+02  0.50400000000E-02 0. -1.
          1   -1    0    0  501    0  0.00000000000E+00 -0.00000000000E+00 -0.93147863162E+03  0.93147863164E+03  0.50400000000E-02 0.  1.
    5000001    1    1    2    0    0 -0.81085358234E+01  0.11222373918E+03 -0.60291176006E+03  0.63512794491E+03  0.16500000000E+03 0.  0.
   -5000001    1    1    2    0    0  0.81085358234E+01 -0.11222373918E+03 -0.28054663708E+03  0.34437092149E+03  0.16500000000E+03 0.  0.
<mgrwt>
<rscale>  0 0.42298852E+03</rscale>
<asrwt>0</asrwt>
<pdfrwt beam="1">  1        1 0.13306836E+00 0.42298852E+03</pdfrwt>
<pdfrwt beam="2">  1       -1 0.68600341E-02 0.42298852E+03</pdfrwt>
<totfact> 0.22260949E+03</totfact>
</mgrwt>
</event>
<event>
 4    1  0.2428650E-005  0.7190179E+03  0.7818608E-02  0.9685251E-01
          1   -1    0    0  501    0  0.00000000000E+00  0.00000000000E+00  0.28737786601E+03  0.28737786605E+03  0.50400000000E-02 0.  1.
         -1   -1    0    0    0  501 -0.00000000000E+00 -0.00000000000E+00 -0.44974475835E+03  0.44974475837E+03  0.50400000000E-02 0. -1.
    5000001    1    1    2    0    0 -0.29853330611E+03 -0.88331909759E+02 -0.15437458980E+03  0.38468321398E+03  0.16500000000E+03 0.  0.
   -5000001    1    1    2    0    0  0.29853330611E+03  0.88331909759E+02 -0.79923025339E+01  0.35243941045E+03  0.16500000000E+03 0.  0.
<mgrwt>
<rscale>  0 0.71901791E+03</rscale>
<asrwt>0</asrwt>
<pdfrwt beam="1">  1        1 0.41053981E-01 0.71901791E+03</pdfrwt>
<pdfrwt beam="2">  1       -1 0.64249251E-01 0.71901791E+03</pdfrwt>
<totfact> 0.25409594E+02</totfact>
</mgrwt>
</event>
<event>
 4    1  0.2428650E-005  0.9518170E+03  0.7818608E-02  0.9363029E-01
          1   -1    0    0  501    0  0.00000000000E+00  0.00000000000E+00  0.86405154839E+03  0.86405154840E+03  0.50400000000E-02 0.  1.
         -1   -1    0    0    0  501 -0.00000000000E+00 -0.00000000000E+00 -0.26212431517E+03  0.26212431522E+03  0.50400000000E-02 0. -1.
    5000001    1    1    2    0    0  0.43956195584E+03  0.37268754910E+02  0.38173494423E+03  0.60625921911E+03  0.16500000000E+03 0.  0.
   -5000001    1    1    2    0    0 -0.43956195584E+03 -0.37268754910E+02  0.22019228899E+03  0.51991664452E+03  0.16500000000E+03 0.  0.
<mgrwt>
<rscale>  0 0.95181704E+03</rscale>
<asrwt>0</asrwt>
<pdfrwt beam="1">  1        1 0.12343594E+00 0.95181704E+03</pdfrwt>
<pdfrwt beam="2">  1       -1 0.37446331E-01 0.95181704E+03</pdfrwt>
<totfact> 0.15171397E+02</totfact>
</mgrwt>
</event>
<event>
 4    1  0.2428650E-005  0.5550384E+03  0.7818608E-02  0.1000334E+00
          1   -1    0    0  501    0  0.00000000000E+00  0.00000000000E+00  0.15925116930E+04  0.15925116930E+04  0.50400000000E-02 0.  1.
         -1   -1    0    0    0  501 -0.00000000000E+00 -0.00000000000E+00 -0.48361914504E+02  0.48361914767E+02  0.50400000000E-02 0. -1.
    5000001    1    1    2    0    0  0.19024445779E+03  0.37828519096E+02  0.44596720388E+03  0.51355203973E+03  0.16500000000E+03 0.  0.
   -5000001    1    1    2    0    0 -0.19024445779E+03 -0.37828519096E+02  0.10981825746E+04  0.11273215680E+04  0.16500000000E+03 0.  0.
<mgrwt>
<rscale>  0 0.55503843E+03</rscale>
<asrwt>0</asrwt>
<pdfrwt beam="1">  1        1 0.22750165E+00 0.55503843E+03</pdfrwt>
<pdfrwt beam="2">  1       -1 0.69088455E-02 0.55503843E+03</pdfrwt>
<totfact> 0.78298566E+02</totfact>
</mgrwt>
</event>
<event>
 4    1  0.2428650E-005  0.4097132E+03  0.7818608E-02  0.1040467E+00
          1   -1    0    0  501    0  0.00000000000E+00  0.00000000000E+00  0.78636434219E+03  0.78636434221E+03  0.50400000000E-02 0.  1.
         -1   -1    0    0    0  501 -0.00000000000E+00 -0.00000000000E+00 -0.53367401327E+02  0.53367401565E+02  0.50400000000E-02 0. -1.
    5000001    1    1    2    0    0 -0.84984684973E+02  0.73183017092E+02  0.27117584058E+03  0.33665930432E+03  0.16500000000E+03 0.  0.
   -5000001    1    1    2    0    0  0.84984684973E+02 -0.73183017092E+02  0.46182110028E+03  0.50307243945E+03  0.16500000000E+03 0.  0.
<mgrwt>
<rscale>  0 0.40971318E+03</rscale>
<asrwt>0</asrwt>
<pdfrwt beam="1">  1        1 0.11233776E+00 0.40971318E+03</pdfrwt>
<pdfrwt beam="2">  1       -1 0.76239147E-02 0.40971318E+03</pdfrwt>
<totfact> 0.24648916E+03</totfact>
</mgrwt>
</event>
<event>
 4    1  0.2428650E-005  0.6183892E+03  0.7818608E-02  0.9867972E-01
         -1   -1    0    0    0  501 -0.00000000000E+00  0.00000000000E+00  0.34176730404E+03  0.34176730407E+03  0.50400000000E-02 0. -1.
          1   -1    0    0  501    0  0.00000000000E+00 -0.00000000000E+00 -0.27972629538E+03  0.27972629543E+03  0.50400000000E-02 0.  1.
    5000001    1    1    2    0    0 -0.48750395755E+02  0.24562101862E+03  0.10669802642E+03  0.31830135833E+03  0.16500000000E+03 0.  0.
   -5000001    1    1    2    0    0  0.48750395755E+02 -0.24562101862E+03 -0.44657017767E+02  0.30319224117E+03  0.16500000000E+03 0.  0.
<mgrwt>
<rscale>  0 0.61838920E+03</rscale>
<asrwt>0</asrwt>
<pdfrwt beam="1">  1        1 0.39960899E-01 0.61838920E+03</pdfrwt>
<pdfrwt beam="2">  1       -1 0.48823901E-01 0.61838920E+03</pdfrwt>
<totfact> 0.44923884E+02</totfact>
</mgrwt>
</event>
<event>
 4    1  0.2428650E-005  0.6278290E+03  0.7818608E-02  0.9849294E-01
          1   -1    0    0  501    0  0.00000000000E+00  0.00000000000E+00  0.16576735668E+03  0.16576735676E+03  0.50400000000E-02 0.  1.
         -1   -1    0    0    0  501 -0.00000000000E+00 -0.00000000000E+00 -0.59446155078E+03  0.59446155081E+03  0.50400000000E-02 0. -1.
    5000001    1    1    2    0    0  0.58268491908E+02 -0.21661414009E+03 -0.38982278476E+03  0.47906545101E+03  0.16500000000E+03 0.  0.
   -5000001    1    1    2    0    0 -0.58268491908E+02  0.21661414009E+03 -0.38871409339E+02  0.28116345655E+03  0.16500000000E+03 0.  0.
<mgrwt>
<rscale>  0 0.62782902E+03</rscale>
<asrwt>0</asrwt>
<pdfrwt beam="1">  1        1 0.23681051E-01 0.62782902E+03</pdfrwt>
<pdfrwt beam="2">  1       -1 0.84923078E-01 0.62782902E+03</pdfrwt>
<totfact> 0.29185622E+02</totfact>
</mgrwt>
</event>
<event>
 4    1  0.2428650E-005  0.6649201E+03  0.7818608E-02  0.9779179E-01
         -1   -1    0    0    0  501 -0.00000000000E+00  0.00000000000E+00  0.50905829052E+03  0.50905829055E+03  0.50400000000E-02 0.  1.
          1   -1    0    0  501    0  0.00000000000E+00 -0.00000000000E+00 -0.21712579034E+03  0.21712579040E+03  0.50400000000E-02 0. -1.
    5000001    1    1    2    0    0 -0.39813388389E+01  0.25665685287E+03  0.18368342533E+01  0.30515072529E+03  0.16500000000E+03 0.  0.
   -5000001    1    1    2    0    0  0.39813388389E+01 -0.25665685287E+03  0.29009566592E+03  0.42103335565E+03  0.16500000000E+03 0.  0.
<mgrwt>
<rscale>  0 0.66492010E+03</rscale>
<asrwt>0</asrwt>
<pdfrwt beam="1">  1        1 0.31017969E-01 0.66492010E+03</pdfrwt>
<pdfrwt beam="2">  1       -1 0.72722615E-01 0.66492010E+03</pdfrwt>
<totfact> 0.28442358E+02</totfact>
</mgrwt>
</event>
<event>
 4    1  0.2428650E-005  0.4529440E+03  0.7818608E-02  0.1026848E+00
         -1   -1    0    0    0  501 -0.00000000000E+00  0.00000000000E+00  0.18495863411E+02  0.18495864098E+02  0.50400000000E-02 0. -1.
          1   -1    0    0  501    0  0.00000000000E+00 -0.00000000000E+00 -0.27730289764E+04  0.27730289764E+04  0.50400000000E-02 0.  1.
    5000001    1    1    2    0    0  0.23007657326E+02 -0.12527638079E+03 -0.83152894483E+03  0.85725661850E+03  0.16500000000E+03 0.  0.
   -5000001    1    1    2    0    0 -0.23007657326E+02  0.12527638079E+03 -0.19230041682E+04  0.19342682220E+04  0.16500000000E+03 0.  0.
<mgrwt>
<rscale>  0 0.45294400E+03</rscale>
<asrwt>0</asrwt>
<pdfrwt beam="1">  1        1 0.39614673E+00 0.45294400E+03</pdfrwt>
<pdfrwt beam="2">  1       -1 0.26422680E-02 0.45294400E+03</pdfrwt>
<totfact> 0.62911829E+02</totfact>
</mgrwt>
</event>
<event>
 4    1  0.2428650E-005  0.4932140E+03  0.7818608E-02  0.1015565E+00
          1   -1    0    0  501    0  0.00000000000E+00  0.00000000000E+00  0.14034899272E+04  0.14034899272E+04  0.50400000000E-02 0. -1.
         -1   -1    0    0    0  501 -0.00000000000E+00 -0.00000000000E+00 -0.43331286669E+02  0.43331286962E+02  0.50400000000E-02 0.  1.
    5000001    1    1    2    0    0 -0.91216089996E+02 -0.14678333940E+03  0.85909942357E+03  0.89170765578E+03  0.16500000000E+03 0.  0.
   -5000001    1    1    2    0    0  0.91216089996E+02  0.14678333940E+03  0.50105921692E+03  0.55511355834E+03  0.16500000000E+03 0.  0.
<mgrwt>
<rscale>  0 0.49321405E+03</rscale>
<asrwt>0</asrwt>
<pdfrwt beam="1">  1        1 0.20049858E+00 0.49321405E+03</pdfrwt>
<pdfrwt beam="2">  1       -1 0.61901833E-02 0.49321405E+03</pdfrwt>
<totfact> 0.12281675E+03</totfact>
</mgrwt>
</event>
<event>
 4    1  0.2428650E-005  0.4430219E+03  0.7818608E-02  0.1029824E+00
         -1   -1    0    0    0  501 -0.00000000000E+00  0.00000000000E+00  0.19879673816E+03  0.19879673822E+03  0.50400000000E-02 0. -1.
          1   -1    0    0  501    0  0.00000000000E+00 -0.00000000000E+00 -0.24682048463E+03  0.24682048469E+03  0.50400000000E-02 0.  1.
    5000001    1    1    2    0    0 -0.14070798197E+03  0.40016871609E+02 -0.28644121619E+01  0.22052956958E+03  0.16500000000E+03 0.  0.
   -5000001    1    1    2    0    0  0.14070798197E+03 -0.40016871609E+02 -0.45159334312E+02  0.22508765333E+03  0.16500000000E+03 0.  0.
<mgrwt>
<rscale>  0 0.44302193E+03</rscale>
<asrwt>0</asrwt>
<pdfrwt beam="1">  1        1 0.35260069E-01 0.44302193E+03</pdfrwt>
<pdfrwt beam="2">  1       -1 0.28399534E-01 0.44302193E+03</pdfrwt>
<totfact> 0.13920943E+03</totfact>
</mgrwt>
</event>
<event>
 4    1  0.2428650E-005  0.4897384E+03  0.7818608E-02  0.1016493E+00
          1   -1    0    0  501    0  0.00000000000E+00  0.00000000000E+00  0.42250391627E+03  0.42250391630E+03  0.50400000000E-02 0. -1.
         -1   -1    0    0    0  501 -0.00000000000E+00 -0.00000000000E+00 -0.14191801791E+03  0.14191801800E+03  0.50400000000E-02 0.  1.
    5000001    1    1    2    0    0 -0.14892567392E+03  0.38560371291E+02  0.25005373773E+03  0.33677534105E+03  0.16500000000E+03 0.  0.
   -5000001    1    1    2    0    0  0.14892567392E+03 -0.38560371291E+02  0.30532160635E+02  0.22764659325E+03  0.16500000000E+03 0.  0.
<mgrwt>
<rscale>  0 0.48973837E+03</rscale>
<asrwt>0</asrwt>
<pdfrwt beam="1">  1        1 0.60357702E-01 0.48973837E+03</pdfrwt>
<pdfrwt beam="2">  1       -1 0.20274003E-01 0.48973837E+03</pdfrwt>
<totfact> 0.12301890E+03</totfact>
</mgrwt>
</event>
<event>
 4    1  0.2428650E-005  0.3633853E+03  0.7818608E-02  0.1057251E+00
          1   -1    0    0  501    0  0.00000000000E+00  0.00000000000E+00  0.26671530054E+04  0.26671530054E+04  0.50400000000E-02 0.  1.
         -1   -1    0    0    0  501 -0.00000000000E+00 -0.00000000000E+00 -0.12377326648E+02  0.12377327674E+02  0.50400000000E-02 0. -1.
    5000001    1    1    2    0    0 -0.60901519480E+02  0.43517712940E+02  0.12272455344E+04  0.12405480193E+04  0.16500000000E+03 0.  0.
   -5000001    1    1    2    0    0  0.60901519480E+02 -0.43517712940E+02  0.14275301443E+04  0.14389823138E+04  0.16500000000E+03 0.  0.
<mgrwt>
<rscale>  0 0.36338533E+03</rscale>
<asrwt>0</asrwt>
<pdfrwt beam="1">  1        1 0.38102173E+00 0.36338533E+03</pdfrwt>
<pdfrwt beam="2">  1       -1 0.17681902E-02 0.36338533E+03</pdfrwt>
<totfact> 0.13391892E+03</totfact>
</mgrwt>
</event>
<event>
 4    1  0.2428650E-005  0.9236203E+03  0.7818608E-02  0.9396527E-01
          1   -1    0    0  501    0  0.00000000000E+00  0.00000000000E+00  0.12766493897E+04  0.12766493897E+04  0.50400000000E-02 0.  1.
         -1   -1    0    0    0  501 -0.00000000000E+00 -0.00000000000E+00 -0.16705341115E+03  0.16705341123E+03  0.50400000000E-02 0. -1.
    5000001    1    1    2    0    0 -0.25344065319E+03  0.12743931747E+03  0.46923977082E+02  0.33151139339E+03  0.16500000000E+03 0.  0.
   -5000001    1    1    2    0    0  0.25344065319E+03 -0.12743931747E+03  0.10626720015E+04  0.11121914076E+04  0.16500000000E+03 0.  0.
<mgrwt>
<rscale>  0 0.92362035E+03</rscale>
<asrwt>0</asrwt>
<pdfrwt beam="1">  1        1 0.18237848E+00 0.92362035E+03</pdfrwt>
<pdfrwt beam="2">  1       -1 0.23864773E-01 0.92362035E+03</pdfrwt>
<totfact> 0.16685243E+02</totfact>
</mgrwt>
</event>
<event>
 4    1  0.2428650E-005  0.4161582E+03  0.7818608E-02  0.1038324E+00
          1   -1    0    0  501    0  0.00000000000E+00  0.00000000000E+00  0.22448220513E+03  0.22448220518E+03  0.50400000000E-02 0.  1.
         -1   -1    0    0    0  501 -0.00000000000E+00 -0.00000000000E+00 -0.19287462959E+03  0.19287462965E+03  0.50400000000E-02 0. -1.
    5000001    1    1    2    0    0 -0.53459916451E+02 -0.11377534636E+03 -0.64864569462E+00  0.20743242960E+03  0.16500000000E+03 0.  0.
   -5000001    1    1    2    0    0  0.53459916451E+02  0.11377534636E+03  0.32256221233E+02  0.20992440524E+03  0.16500000000E+03 0.  0.
<mgrwt>
<rscale>  0 0.41615825E+03</rscale>
<asrwt>0</asrwt>
<pdfrwt beam="1">  1        1 0.32068887E-01 0.41615825E+03</pdfrwt>
<pdfrwt beam="2">  1       -1 0.27553518E-01 0.41615825E+03</pdfrwt>
<totfact> 0.16538362E+03</totfact>
</mgrwt>
</event>
<event>
 4    1  0.2428650E-005  0.4064856E+03  0.7818608E-02  0.1041557E+00
          1   -1    0    0  501    0  0.00000000000E+00  0.00000000000E+00  0.11527953250E+04  0.11527953250E+04  0.50400000000E-02 0. -1.
         -1   -1    0    0    0  501 -0.00000000000E+00 -0.00000000000E+00 -0.35832590709E+02  0.35832591064E+02  0.50400000000E-02 0.  1.
    5000001    1    1    2    0    0 -0.92366131338E+02  0.64603819827E+02  0.66701005623E+03  0.69629919637E+03  0.16500000000E+03 0.  0.
   -5000001    1    1    2    0    0  0.92366131338E+02 -0.64603819827E+02  0.44995267809E+03  0.49232871974E+03  0.16500000000E+03 0.  0.
<mgrwt>
<rscale>  0 0.40648564E+03</rscale>
<asrwt>0</asrwt>
<pdfrwt beam="1">  1        1 0.16468498E+00 0.40648564E+03</pdfrwt>
<pdfrwt beam="2">  1       -1 0.51189436E-02 0.40648564E+03</pdfrwt>
<totfact> 0.24133060E+03</totfact>
</mgrwt>
</event>
<event>
 4    1  0.2428650E-005  0.5451999E+03  0.7818608E-02  0.1002611E+00
          1   -1    0    0  501    0  0.00000000000E+00  0.00000000000E+00  0.65222309200E+02  0.65222309394E+02  0.50400000000E-02 0. -1.
         -1   -1    0    0    0  501 -0.00000000000E+00 -0.00000000000E+00 -0.11393455016E+04  0.11393455017E+04  0.50400000000E-02 0.  1.
    5000001    1    1    2    0    0  0.16005735871E+03  0.14194010064E+03 -0.45677791095E+03  0.53069427185E+03  0.16500000000E+03 0.  0.
   -5000001    1    1    2    0    0 -0.16005735871E+03 -0.14194010064E+03 -0.61734528149E+03  0.67387353920E+03  0.16500000000E+03 0.  0.
<mgrwt>
<rscale>  0 0.54519994E+03</rscale>
<asrwt>0</asrwt>
<pdfrwt beam="1">  1        1 0.93174735E-02 0.54519994E+03</pdfrwt>
<pdfrwt beam="2">  1       -1 0.16276363E+00 0.54519994E+03</pdfrwt>
<totfact> 0.21150473E+02</totfact>
</mgrwt>
</event>
<event>
 4    1  0.2428650E-005  0.5039456E+03  0.7818608E-02  0.1012754E+00
         -1   -1    0    0    0  501 -0.00000000000E+00  0.00000000000E+00  0.21124213909E+03  0.21124213916E+03  0.50400000000E-02 0. -1.
          1   -1    0    0  501    0  0.00000000000E+00 -0.00000000000E+00 -0.30055689546E+03  0.30055689551E+03  0.50400000000E-02 0.  1.
    5000001    1    1    2    0    0 -0.63662782859E+02 -0.10491003119E+03  0.10323556118E+03  0.23009051623E+03  0.16500000000E+03 0.  0.
   -5000001    1    1    2    0    0  0.63662782859E+02  0.10491003119E+03 -0.19255031755E+03  0.28170851843E+03  0.16500000000E+03 0.  0.
<mgrwt>
<rscale>  0 0.50394556E+03</rscale>
<asrwt>0</asrwt>
<pdfrwt beam="1">  1        1 0.42936699E-01 0.50394556E+03</pdfrwt>
<pdfrwt beam="2">  1       -1 0.30177449E-01 0.50394556E+03</pdfrwt>
<totfact> 0.97510795E+02</totfact>
</mgrwt>
</event>
<event>
 4    1  0.2428650E-005  0.5914313E+03  0.7818608E-02  0.9923345E-01
          1   -1    0    0  501    0  0.00000000000E+00  0.00000000000E+00  0.12965545425E+03  0.12965545435E+03  0.50400000000E-02 0.  1.
         -1   -1    0    0    0  501 -0.00000000000E+00 -0.00000000000E+00 -0.67446254919E+03  0.67446254921E+03  0.50400000000E-02 0. -1.
    5000001    1    1    2    0    0  0.12791352093E+03  0.16039685593E+03 -0.45549118605E+03  0.52610478120E+03  0.16500000000E+03 0.  0.
   -5000001    1    1    2    0    0 -0.12791352093E+03 -0.16039685593E+03 -0.89315908883E+02  0.27801322236E+03  0.16500000000E+03 0.  0.
<mgrwt>
<rscale>  0 0.59143131E+03</rscale>
<asrwt>0</asrwt>
<pdfrwt beam="1">  1        1 0.18522208E-01 0.59143131E+03</pdfrwt>
<pdfrwt beam="2">  1       -1 0.96351791E-01 0.59143131E+03</pdfrwt>
<totfact> 0.30609759E+02</totfact>
</mgrwt>
</event>
<event>
 4    1  0.2428650E-005  0.3985697E+03  0.7818608E-02  0.1044276E+00
         -1   -1    0    0    0  501 -0.00000000000E+00  0.00000000000E+00  0.34946261717E+02  0.34946262080E+02  0.50400000000E-02 0. -1.
          1   -1    0    0  501    0  0.00000000000E+00 -0.00000000000E+00 -0.11364434276E+04  0.11364434276E+04  0.50400000000E-02 0.  1.
    5000001    1    1    2    0    0 -0.62490820097E+02 -0.50428762963E+02 -0.32231399687E+03  0.37089011217E+03  0.16500000000E+03 0.  0.
   -5000001    1    1    2    0    0  0.62490820097E+02  0.50428762963E+02 -0.77918316901E+03  0.80049957751E+03  0.16500000000E+03 0.  0.
<mgrwt>
<rscale>  0 0.39856969E+03</rscale>
<asrwt>0</asrwt>
<pdfrwt beam="1">  1        1 0.16234904E+00 0.39856969E+03</pdfrwt>
<pdfrwt beam="2">  1       -1 0.49923238E-02 0.39856969E+03</pdfrwt>
<totfact> 0.25724200E+03</totfact>
</mgrwt>
</event>
<event>
 4    1  0.2428650E-005  0.5726557E+03  0.7818608E-02  0.9963819E-01
          1   -1    0    0  501    0  0.00000000000E+00  0.00000000000E+00  0.16498392406E+04  0.16498392406E+04  0.50400000000E-02 0. -1.
         -1   -1    0    0    0  501 -0.00000000000E+00 -0.00000000000E+00 -0.49691893298E+02  0.49691893553E+02  0.50400000000E-02 0.  1.
    5000001    1    1    2    0    0 -0.21579417661E+03  0.77488731331E+02  0.93886441264E+03  0.98044021514E+03  0.16500000000E+03 0.  0.
   -5000001    1    1    2    0    0  0.21579417661E+03 -0.77488731331E+02  0.66128293463E+03  0.71909091899E+03  0.16500000000E+03 0.  0.
<mgrwt>
<rscale>  0 0.57265569E+03</rscale>
<asrwt>0</asrwt>
<pdfrwt beam="1">  1        1 0.23569135E+00 0.57265569E+03</pdfrwt>
<pdfrwt beam="2">  1       -1 0.70988410E-02 0.57265569E+03</pdfrwt>
<totfact> 0.69019019E+02</totfact>
</mgrwt>
</event>
<event>
 4    1  0.2428650E-005  0.4262330E+03  0.7818608E-02  0.1035057E+00
         -1   -1    0    0    0  501 -0.00000000000E+00  0.00000000000E+00  0.36160185933E+03  0.36160185937E+03  0.50400000000E-02 0.  1.
          1   -1    0    0  501    0  0.00000000000E+00 -0.00000000000E+00 -0.12560401224E+03  0.12560401234E+03  0.50400000000E-02 0. -1.
    5000001    1    1    2    0    0 -0.28630180937E+02 -0.12790905069E+03  0.81614134653E+02  0.22597849341E+03  0.16500000000E+03 0.  0.
   -5000001    1    1    2    0    0  0.28630180937E+02  0.12790905069E+03  0.15438371244E+03  0.26122737830E+03  0.16500000000E+03 0.  0.
<mgrwt>
<rscale>  0 0.42623301E+03</rscale>
<asrwt>0</asrwt>
<pdfrwt beam="1">  1        1 0.17943430E-01 0.42623301E+03</pdfrwt>
<pdfrwt beam="2">  1       -1 0.51657410E-01 0.42623301E+03</pdfrwt>
<totfact> 0.11432112E+03</totfact>
</mgrwt>
</event>
<event>
 4    1  0.2428650E-005  0.8630238E+03  0.7818608E-02  0.9473022E-01
         -1   -1    0    0    0  501 -0.00000000000E+00  0.00000000000E+00  0.35280593823E+03  0.35280593827E+03  0.50400000000E-02 0. -1.
          1   -1    0    0  501    0  0.00000000000E+00 -0.00000000000E+00 -0.52777600835E+03  0.52777600838E+03  0.50400000000E-02 0.  1.
    5000001    1    1    2    0    0  0.20806133712E+03 -0.34008730592E+03 -0.92943086796E+02  0.44137547852E+03  0.16500000000E+03 0.  0.
   -5000001    1    1    2    0    0 -0.20806133712E+03  0.34008730592E+03 -0.82026983324E+02  0.43920646813E+03  0.16500000000E+03 0.  0.
<mgrwt>
<rscale>  0 0.86302378E+03</rscale>
<asrwt>0</asrwt>
<pdfrwt beam="1">  1        1 0.75396572E-01 0.86302378E+03</pdfrwt>
<pdfrwt beam="2">  1       -1 0.50400848E-01 0.86302378E+03</pdfrwt>
<totfact> 0.18168340E+02</totfact>
</mgrwt>
</event>
<event>
 4    1  0.2428650E-005  0.4207722E+03  0.7818608E-02  0.1036815E+00
         -1   -1    0    0    0  501 -0.00000000000E+00  0.00000000000E+00  0.78764122528E+02  0.78764122689E+02  0.50400000000E-02 0. -1.
          1   -1    0    0  501    0  0.00000000000E+00 -0.00000000000E+00 -0.56196029642E+03  0.56196029644E+03  0.50400000000E-02 0.  1.
    5000001    1    1    2    0    0 -0.11465453114E+03 -0.49465189275E+02 -0.29947889818E+03  0.36401246808E+03  0.16500000000E+03 0.  0.
   -5000001    1    1    2    0    0  0.11465453114E+03  0.49465189275E+02 -0.18371727571E+03  0.27671195105E+03  0.16500000000E+03 0.  0.
<mgrwt>
<rscale>  0 0.42077219E+03</rscale>
<asrwt>0</asrwt>
<pdfrwt beam="1">  1        1 0.80280040E-01 0.42077219E+03</pdfrwt>
<pdfrwt beam="2">  1       -1 0.11252018E-01 0.42077219E+03</pdfrwt>
<totfact> 0.21716471E+03</totfact>
</mgrwt>
</event>
<event>
 4    1  0.2428650E-005  0.4398046E+03  0.7818608E-02  0.1030807E+00
          1   -1    0    0  501    0  0.00000000000E+00  0.00000000000E+00  0.10369835865E+04  0.10369835866E+04  0.50400000000E-02 0.  1.
         -1   -1    0    0    0  501 -0.00000000000E+00 -0.00000000000E+00 -0.46632389179E+02  0.46632389451E+02  0.50400000000E-02 0. -1.
    5000001    1    1    2    0    0 -0.52037724394E+02  0.57115991728E+00  0.82960534232E+03  0.84745399579E+03  0.16500000000E+03 0.  0.
   -5000001    1    1    2    0    0  0.52037724394E+02 -0.57115991728E+00  0.16074585505E+03  0.23616198021E+03  0.16500000000E+03 0.  0.
<mgrwt>
<rscale>  0 0.43980460E+03</rscale>
<asrwt>0</asrwt>
<pdfrwt beam="1">  1        1 0.14814051E+00 0.43980460E+03</pdfrwt>
<pdfrwt beam="2">  1       -1 0.66617700E-02 0.43980460E+03</pdfrwt>
<totfact> 0.19467500E+03</totfact>
</mgrwt>
</event>
<event>
 4    1  0.2428650E-005  0.6031859E+03  0.7818608E-02  0.9898818E-01
         -1   -1    0    0    0  501 -0.00000000000E+00  0.00000000000E+00  0.36089866789E+03  0.36089866792E+03  0.50400000000E-02 0.  1.
          1   -1    0    0  501    0  0.00000000000E+00 -0.00000000000E+00 -0.25203283212E+03  0.25203283217E+03  0.50400000000E-02 0. -1.
    5000001    1    1    2    0    0  0.10988201245E+03 -0.14497521969E+03  0.23230809644E+03  0.33805905203E+03  0.16500000000E+03 0.  0.
   -5000001    1    1    2    0    0 -0.10988201245E+03  0.14497521969E+03 -0.12344226068E+03  0.27487244807E+03  0.16500000000E+03 0.  0.
<mgrwt>
<rscale>  0 0.60318592E+03</rscale>
<asrwt>0</asrwt>
<pdfrwt beam="1">  1        1 0.36004691E-01 0.60318592E+03</pdfrwt>
<pdfrwt beam="2">  1       -1 0.51556952E-01 0.60318592E+03</pdfrwt>
<totfact> 0.46377081E+02</totfact>
</mgrwt>
</event>
<event>
 4    1  0.2428650E-005  0.4651028E+03  0.7818608E-02  0.1023312E+00
          1   -1    0    0  501    0  0.00000000000E+00  0.00000000000E+00  0.11466033076E+04  0.11466033076E+04  0.50400000000E-02 0.  1.
         -1   -1    0    0    0  501 -0.00000000000E+00 -0.00000000000E+00 -0.47165531110E+02  0.47165531379E+02  0.50400000000E-02 0. -1.
    5000001    1    1    2    0    0 -0.68138398344E+02  0.13543214712E+03  0.39003841628E+03  0.44982182470E+03  0.16500000000E+03 0.  0.
   -5000001    1    1    2    0    0  0.68138398344E+02 -0.13543214712E+03  0.70939936024E+03  0.74394701432E+03  0.16500000000E+03 0.  0.
<mgrwt>
<rscale>  0 0.46510280E+03</rscale>
<asrwt>0</asrwt>
<pdfrwt beam="1">  1        1 0.16380047E+00 0.46510280E+03</pdfrwt>
<pdfrwt beam="2">  1       -1 0.67379330E-02 0.46510280E+03</pdfrwt>
<totfact> 0.16008681E+03</totfact>
</mgrwt>
</event>
<event>
 4    1  0.2428650E-005  0.5339935E+03  0.7818608E-02  0.1005268E+00
          1   -1    0    0  501    0  0.00000000000E+00  0.00000000000E+00  0.79308131099E+03  0.79308131100E+03  0.50400000000E-02 0.  1.
         -1   -1    0    0    0  501 -0.00000000000E+00 -0.00000000000E+00 -0.89886439508E+02  0.89886439649E+02  0.50400000000E-02 0. -1.
    5000001    1    1    2    0    0  0.15870537120E+02 -0.18205071408E+03  0.18081281804E+03  0.30547113057E+03  0.16500000000E+03 0.  0.
   -5000001    1    1    2    0    0 -0.15870537120E+02  0.18205071408E+03  0.52238205344E+03  0.57749662008E+03  0.16500000000E+03 0.  0.
<mgrwt>
<rscale>  0 0.53399347E+03</rscale>
<asrwt>0</asrwt>
<pdfrwt beam="1">  1        1 0.11329734E+00 0.53399347E+03</pdfrwt>
<pdfrwt beam="2">  1       -1 0.12840919E-01 0.53399347E+03</pdfrwt>
<totfact> 0.10738834E+03</totfact>
</mgrwt>
</event>
<event>
 4    1  0.2428650E-005  0.8867172E+03  0.7818608E-02  0.9442340E-01
         -1   -1    0    0    0  501 -0.00000000000E+00  0.00000000000E+00  0.41240403886E+03  0.41240403889E+03  0.50400000000E-02 0. -1.
          1   -1    0    0  501    0  0.00000000000E+00 -0.00000000000E+00 -0.47663658226E+03  0.47663658229E+03  0.50400000000E-02 0.  1.
    5000001    1    1    2    0    0 -0.31843385518E+03  0.12328435887E+03 -0.26237581592E+03  0.46115639652E+03  0.16500000000E+03 0.  0.
   -5000001    1    1    2    0    0  0.31843385518E+03 -0.12328435887E+03  0.19814327252E+03  0.42788422466E+03  0.16500000000E+03 0.  0.
<mgrwt>
<rscale>  0 0.88671721E+03</rscale>
<asrwt>0</asrwt>
<pdfrwt beam="1">  1        1 0.68090941E-01 0.88671721E+03</pdfrwt>
<pdfrwt beam="2">  1       -1 0.58914863E-01 0.88671721E+03</pdfrwt>
<totfact> 0.15417735E+02</totfact>
</mgrwt>
</event>
<event>
 4    1  0.2428650E-005  0.5930518E+03  0.7818608E-02  0.9919927E-01
          1   -1    0    0  501    0  0.00000000000E+00  0.00000000000E+00  0.10460414667E+04  0.10460414667E+04  0.50400000000E-02 0.  1.
         -1   -1    0    0    0  501 -0.00000000000E+00 -0.00000000000E+00 -0.84057479059E+02  0.84057479210E+02  0.50400000000E-02 0. -1.
    5000001    1    1    2    0    0 -0.36879615503E+02  0.14524173025E+03  0.85366203003E+03  0.88228064002E+03  0.16500000000E+03 0.  0.
   -5000001    1    1    2    0    0  0.36879615503E+02 -0.14524173025E+03  0.10832195764E+03  0.24781830593E+03  0.16500000000E+03 0.  0.
<mgrwt>
<rscale>  0 0.59305180E+03</rscale>
<asrwt>0</asrwt>
<pdfrwt beam="1">  1        1 0.14943450E+00 0.59305180E+03</pdfrwt>
<pdfrwt beam="2">  1       -1 0.12008211E-01 0.59305180E+03</pdfrwt>
<totfact> 0.76074329E+02</totfact>
</mgrwt>
</event>
<event>
 4    1  0.2428650E-005  0.4597953E+03  0.7818608E-02  0.1024841E+00
          1   -1    0    0  501    0  0.00000000000E+00  0.00000000000E+00  0.55066725442E+02  0.55066725673E+02  0.50400000000E-02 0. -1.
         -1   -1    0    0    0  501 -0.00000000000E+00 -0.00000000000E+00 -0.95979796682E+03  0.95979796683E+03  0.50400000000E-02 0.  1.
    5000001    1    1    2    0    0 -0.32679592568E+02 -0.13102243267E+03 -0.64214841147E+03  0.67661984599E+03  0.16500000000E+03 0.  0.
   -5000001    1    1    2    0    0  0.32679592568E+02  0.13102243267E+03 -0.26258282990E+03  0.33824484651E+03  0.16500000000E+03 0.  0.
<mgrwt>
<rscale>  0 0.45979531E+03</rscale>
<asrwt>0</asrwt>
<pdfrwt beam="1">  1        1 0.78666756E-02 0.45979531E+03</pdfrwt>
<pdfrwt beam="2">  1       -1 0.13711399E+00 0.45979531E+03</pdfrwt>
<totfact> 0.42299285E+02</totfact>
</mgrwt>
</event>
<event>
 4    1  0.2428650E-005  0.4105019E+03  0.7818608E-02  0.1040203E+00
         -1   -1    0    0    0  501 -0.00000000000E+00  0.00000000000E+00  0.78072703553E+02  0.78072703715E+02  0.50400000000E-02 0. -1.
          1   -1    0    0  501    0  0.00000000000E+00 -0.00000000000E+00 -0.53959906515E+03  0.53959906517E+03  0.50400000000E-02 0.  1.
    5000001    1    1    2    0    0  0.75420639747E+02  0.48140468094E+02 -0.35572528895E+03  0.40220797949E+03  0.16500000000E+03 0.  0.
   -5000001    1    1    2    0    0 -0.75420639747E+02 -0.48140468094E+02 -0.10580107265E+03  0.21546378940E+03  0.16500000000E+03 0.  0.
<mgrwt>
<rscale>  0 0.41050193E+03</rscale>
<asrwt>0</asrwt>
<pdfrwt beam="1">  1        1 0.77085579E-01 0.41050193E+03</pdfrwt>
<pdfrwt beam="2">  1       -1 0.11153244E-01 0.41050193E+03</pdfrwt>
<totfact> 0.23261419E+03</totfact>
</mgrwt>
</event>
<event>
 4    1  0.2428650E-005  0.5042490E+03  0.7818608E-02  0.1012676E+00
         -1   -1    0    0    0  501 -0.00000000000E+00  0.00000000000E+00  0.47650724390E+02  0.47650724656E+02  0.50400000000E-02 0. -1.
          1   -1    0    0  501    0  0.00000000000E+00 -0.00000000000E+00 -0.13340147393E+04  0.13340147393E+04  0.50400000000E-02 0.  1.
    5000001    1    1    2    0    0 -0.14555403804E+03 -0.12033928761E+03 -0.57203325927E+03  0.62459152399E+03  0.16500000000E+03 0.  0.
   -5000001    1    1    2    0    0  0.14555403804E+03  0.12033928761E+03 -0.71433075561E+03  0.75707393995E+03  0.16500000000E+03 0.  0.
<mgrwt>
<rscale>  0 0.50424902E+03</rscale>
<asrwt>0</asrwt>
<pdfrwt beam="1">  1        1 0.19057351E+00 0.50424902E+03</pdfrwt>
<pdfrwt beam="2">  1       -1 0.68072472E-02 0.50424902E+03</pdfrwt>
<totfact> 0.11774256E+03</totfact>
</mgrwt>
</event>
<event>
 4    1  0.2428650E-005  0.3767999E+03  0.7818608E-02  0.1052123E+00
          1   -1    0    0  501    0  0.00000000000E+00  0.00000000000E+00  0.10396428753E+04  0.10396428753E+04  0.50400000000E-02 0.  1.
         -1   -1    0    0    0  501 -0.00000000000E+00 -0.00000000000E+00 -0.34141091198E+02  0.34141091570E+02  0.50400000000E-02 0. -1.
    5000001    1    1    2    0    0 -0.42526280740E+02  0.78909377083E+02  0.54637789294E+03  0.57774473277E+03  0.16500000000E+03 0.  0.
   -5000001    1    1    2    0    0  0.42526280740E+02 -0.78909377083E+02  0.45912389114E+03  0.49603923409E+03  0.16500000000E+03 0.  0.
<mgrwt>
<rscale>  0 0.37679991E+03</rscale>
<asrwt>0</asrwt>
<pdfrwt beam="1">  1        1 0.14852040E+00 0.37679991E+03</pdfrwt>
<pdfrwt beam="2">  1       -1 0.48772990E-02 0.37679991E+03</pdfrwt>
<totfact> 0.31150931E+03</totfact>
</mgrwt>
</event>
<event>
 4    1  0.2428650E-005  0.7423443E+03  0.7818608E-02  0.9647438E-01
         -1   -1    0    0    0  501 -0.00000000000E+00  0.00000000000E+00  0.13597686069E+04  0.13597686069E+04  0.50400000000E-02 0. -1.
          1   -1    0    0  501    0  0.00000000000E+00 -0.00000000000E+00 -0.10131781065E+03  0.10131781077E+03  0.50400000000E-02 0.  1.
    5000001    1    1    2    0    0  0.12614829055E+03  0.29514279811E+03  0.79991679928E+03  0.87756170624E+03  0.16500000000E+03 0.  0.
   -5000001    1    1    2    0    0 -0.12614829055E+03 -0.29514279811E+03  0.45853399696E+03  0.58352471143E+03  0.16500000000E+03 0.  0.
<mgrwt>
<rscale>  0 0.74234434E+03</rscale>
<asrwt>0</asrwt>
<pdfrwt beam="1">  1        1 0.14473973E-01 0.74234434E+03</pdfrwt>
<pdfrwt beam="2">  1       -1 0.19425266E+00 0.74234434E+03</pdfrwt>
<totfact> 0.68269066E+01</totfact>
</mgrwt>
</event>
<event>
 4    1  0.2428650E-005  0.5658473E+03  0.7818608E-02  0.9978910E-01
         -1   -1    0    0    0  501 -0.00000000000E+00  0.00000000000E+00  0.19426434338E+03  0.19426434344E+03  0.50400000000E-02 0. -1.
          1   -1    0    0  501    0  0.00000000000E+00 -0.00000000000E+00 -0.41204565613E+03  0.41204565616E+03  0.50400000000E-02 0.  1.
    5000001    1    1    2    0    0 -0.90219743118E+02  0.20000442300E+03 -0.18218845905E+03  0.32948293716E+03  0.16500000000E+03 0.  0.
   -5000001    1    1    2    0    0  0.90219743118E+02 -0.20000442300E+03 -0.35592853702E+02  0.27682706244E+03  0.16500000000E+03 0.  0.
<mgrwt>
<rscale>  0 0.56584725E+03</rscale>
<asrwt>0</asrwt>
<pdfrwt beam="1">  1        1 0.58863665E-01 0.56584725E+03</pdfrwt>
<pdfrwt beam="2">  1       -1 0.27752049E-01 0.56584725E+03</pdfrwt>
<totfact> 0.74880086E+02</totfact>
</mgrwt>
</event>
<event>
 4    1  0.2428650E-005  0.5354570E+03  0.7818608E-02  0.1004917E+00
          1   -1    0    0  501    0  0.00000000000E+00  0.00000000000E+00  0.15065356983E+04  0.15065356983E+04  0.50400000000E-02 0. -1.
         -1   -1    0    0    0  501 -0.00000000000E+00 -0.00000000000E+00 -0.47578396438E+02  0.47578396705E+02  0.50400000000E-02 0.  1.
    5000001    1    1    2    0    0 -0.13215828362E+03 -0.16415838260E+03  0.71117589600E+03  0.75987495126E+03  0.16500000000E+03 0.  0.
   -5000001    1    1    2    0    0  0.13215828362E+03  0.16415838260E+03  0.74778140584E+03  0.79423914373E+03  0.16500000000E+03 0.  0.
<mgrwt>
<rscale>  0 0.53545701E+03</rscale>
<asrwt>0</asrwt>
<pdfrwt beam="1">  1        1 0.21521934E+00 0.53545701E+03</pdfrwt>
<pdfrwt beam="2">  1       -1 0.67969151E-02 0.53545701E+03</pdfrwt>
<totfact> 0.91145128E+02</totfact>
</mgrwt>
</event>
<event>
 4    1  0.2428650E-005  0.3899957E+03  0.7818608E-02  0.1047300E+00
         -1   -1    0    0    0  501 -0.00000000000E+00  0.00000000000E+00  0.18009681103E+02  0.18009681808E+02  0.50400000000E-02 0. -1.
          1   -1    0    0  501    0  0.00000000000E+00 -0.00000000000E+00 -0.21113182128E+04  0.21113182128E+04  0.50400000000E-02 0.  1.
    5000001    1    1    2    0    0 -0.75620036550E+02  0.64775255715E+02 -0.12090747403E+04  0.12243369435E+04  0.16500000000E+03 0.  0.
   -5000001    1    1    2    0    0  0.75620036550E+02 -0.64775255715E+02 -0.88423379144E+03  0.90499095111E+03  0.16500000000E+03 0.  0.
<mgrwt>
<rscale>  0 0.38999574E+03</rscale>
<asrwt>0</asrwt>
<pdfrwt beam="1">  1        1 0.30161673E+00 0.38999574E+03</pdfrwt>
<pdfrwt beam="2">  1       -1 0.25728130E-02 0.38999574E+03</pdfrwt>
<totfact> 0.16841497E+03</totfact>
</mgrwt>
</event>
<event>
 4    1  0.2428650E-005  0.3863762E+03  0.7818608E-02  0.1048602E+00
          1   -1    0    0  501    0  0.00000000000E+00  0.00000000000E+00  0.75025836108E+03  0.75025836110E+03  0.50400000000E-02 0.  1.
         -1   -1    0    0    0  501 -0.00000000000E+00 -0.00000000000E+00 -0.49745059211E+02  0.49745059466E+02  0.50400000000E-02 0. -1.
    5000001    1    1    2    0    0  0.64301808676E+02 -0.57777371328E+02  0.24419985730E+03  0.30713436399E+03  0.16500000000E+03 0.  0.
   -5000001    1    1    2    0    0 -0.64301808676E+02  0.57777371328E+02  0.45631344457E+03  0.49286905657E+03  0.16500000000E+03 0.  0.
<mgrwt>
<rscale>  0 0.38637622E+03</rscale>
<asrwt>0</asrwt>
<pdfrwt beam="1">  1        1 0.10717977E+00 0.38637622E+03</pdfrwt>
<pdfrwt beam="2">  1       -1 0.71064371E-02 0.38637622E+03</pdfrwt>
<totfact> 0.29440825E+03</totfact>
</mgrwt>
</event>
<event>
 4    1  0.2428650E-005  0.3578095E+03  0.7818608E-02  0.1059455E+00
          1   -1    0    0  501    0  0.00000000000E+00  0.00000000000E+00  0.32801249005E+02  0.32801249392E+02  0.50400000000E-02 0.  1.
         -1   -1    0    0    0  501 -0.00000000000E+00 -0.00000000000E+00 -0.97578335068E+03  0.97578335069E+03  0.50400000000E-02 0. -1.
    5000001    1    1    2    0    0  0.32233210830E+02 -0.42339669592E+02 -0.34700820058E+03  0.38790632732E+03  0.16500000000E+03 0.  0.
   -5000001    1    1    2    0    0 -0.32233210830E+02  0.42339669592E+02 -0.59597390109E+03  0.62067827277E+03  0.16500000000E+03 0.  0.
<mgrwt>
<rscale>  0 0.35780952E+03</rscale>
<asrwt>0</asrwt>
<pdfrwt beam="1">  1        1 0.46858934E-02 0.35780952E+03</pdfrwt>
<pdfrwt beam="2">  1       -1 0.13939760E+00 0.35780952E+03</pdfrwt>
<totfact> 0.83528731E+02</totfact>
</mgrwt>
</event>
<event>
 4    1  0.2428650E-005  0.1027359E+04  0.7818608E-02  0.9279036E-01
         -1   -1    0    0    0  501 -0.00000000000E+00  0.00000000000E+00  0.25906073195E+03  0.25906073200E+03  0.50400000000E-02 0. -1.
          1   -1    0    0  501    0  0.00000000000E+00 -0.00000000000E+00 -0.10185516152E+04  0.10185516152E+04  0.50400000000E-02 0.  1.
    5000001    1    1    2    0    0 -0.44732041262E+03  0.87602349857E+02 -0.16843777596E+03  0.51319197930E+03  0.16500000000E+03 0.  0.
   -5000001    1    1    2    0    0  0.44732041262E+03 -0.87602349857E+02 -0.59105310731E+03  0.76442036793E+03  0.16500000000E+03 0.  0.
<mgrwt>
<rscale>  0 0.10273592E+04</rscale>
<asrwt>0</asrwt>
<pdfrwt beam="1">  1        1 0.14550737E+00 0.10273592E+04</pdfrwt>
<pdfrwt beam="2">  1       -1 0.37008676E-01 0.10273592E+04</pdfrwt>
<totfact> 0.11718678E+02</totfact>
</mgrwt>
</event>
<event>
 4    1  0.2428650E-005  0.5157563E+03  0.7818608E-02  0.1009746E+00
          1   -1    0    0  501    0  0.00000000000E+00  0.00000000000E+00  0.18469194562E+04  0.18469194562E+04  0.50400000000E-02 0.  1.
         -1   -1    0    0    0  501 -0.00000000000E+00 -0.00000000000E+00 -0.36006514490E+02  0.36006514843E+02  0.50400000000E-02 0. -1.
    5000001    1    1    2    0    0 -0.28865975972E+02  0.19178434959E+03  0.10542755661E+04  0.10845904529E+04  0.16500000000E+03 0.  0.
   -5000001    1    1    2    0    0  0.28865975972E+02 -0.19178434959E+03  0.75663737561E+03  0.79833551812E+03  0.16500000000E+03 0.  0.
<mgrwt>
<rscale>  0 0.51575627E+03</rscale>
<asrwt>0</asrwt>
<pdfrwt beam="1">  1        1 0.26384575E+00 0.51575627E+03</pdfrwt>
<pdfrwt beam="2">  1       -1 0.51437856E-02 0.51575627E+03</pdfrwt>
<totfact> 0.85651429E+02</totfact>
</mgrwt>
</event>
<event>
 4    1  0.2428650E-005  0.6269916E+03  0.7818608E-02  0.9850937E-01
          1   -1    0    0  501    0  0.00000000000E+00  0.00000000000E+00  0.86344676992E+03  0.86344676994E+03  0.50400000000E-02 0.  1.
         -1   -1    0    0    0  501 -0.00000000000E+00 -0.00000000000E+00 -0.11382244760E+03  0.11382244771E+03  0.50400000000E-02 0. -1.
    5000001    1    1    2    0    0 -0.11636500176E+03  0.33074068334E+02  0.45846385546E+01  0.20464781099E+03  0.16500000000E+03 0.  0.
   -5000001    1    1    2    0    0  0.11636500176E+03 -0.33074068334E+02  0.74503968377E+03  0.77262140666E+03  0.16500000000E+03 0.  0.
<mgrwt>
<rscale>  0 0.62699163E+03</rscale>
<asrwt>0</asrwt>
<pdfrwt beam="1">  1        1 0.12334954E+00 0.62699163E+03</pdfrwt>
<pdfrwt beam="2">  1       -1 0.16260349E-01 0.62699163E+03</pdfrwt>
<totfact> 0.64114500E+02</totfact>
</mgrwt>
</event>
<event>
 4    1  0.2428650E-005  0.6953393E+03  0.7818608E-02  0.9725236E-01
          1   -1    0    0  501    0  0.00000000000E+00  0.00000000000E+00  0.40018096644E+03  0.40018096647E+03  0.50400000000E-02 0.  1.
         -1   -1    0    0    0  501 -0.00000000000E+00 -0.00000000000E+00 -0.30204878917E+03  0.30204878921E+03  0.50400000000E-02 0. -1.
    5000001    1    1    2    0    0  0.33801219067E+02  0.30374410345E+03  0.64911488458E+02  0.35332917248E+03  0.16500000000E+03 0.  0.
   -5000001    1    1    2    0    0 -0.33801219067E+02 -0.30374410345E+03  0.33220688812E+02  0.34890058320E+03  0.16500000000E+03 0.  0.
<mgrwt>
<rscale>  0 0.69533927E+03</rscale>
<asrwt>0</asrwt>
<pdfrwt beam="1">  1        1 0.57168709E-01 0.69533927E+03</pdfrwt>
<pdfrwt beam="2">  1       -1 0.43149827E-01 0.69533927E+03</pdfrwt>
<totfact> 0.35440182E+02</totfact>
</mgrwt>
</event>
<event>
 4    1  0.2428650E-005  0.5389082E+03  0.7818608E-02  0.1004094E+00
         -1   -1    0    0    0  501 -0.00000000000E+00  0.00000000000E+00  0.13336525799E+03  0.13336525808E+03  0.50400000000E-02 0. -1.
          1   -1    0    0  501    0  0.00000000000E+00 -0.00000000000E+00 -0.54441102526E+03  0.54441102528E+03  0.50400000000E-02 0.  1.
    5000001    1    1    2    0    0  0.44464160660E+02 -0.20176782547E+03 -0.14025404933E+03  0.29930505397E+03  0.16500000000E+03 0.  0.
   -5000001    1    1    2    0    0 -0.44464160660E+02  0.20176782547E+03 -0.27079171793E+03  0.37847122939E+03  0.16500000000E+03 0.  0.
<mgrwt>
<rscale>  0 0.53890822E+03</rscale>
<asrwt>0</asrwt>
<pdfrwt beam="1">  1        1 0.77773003E-01 0.53890822E+03</pdfrwt>
<pdfrwt beam="2">  1       -1 0.19052180E-01 0.53890822E+03</pdfrwt>
<totfact> 0.97199796E+02</totfact>
</mgrwt>
</event>
<event>
 4    1  0.2428650E-005  0.6159568E+03  0.7818608E-02  0.9872843E-01
          1   -1    0    0  501    0  0.00000000000E+00  0.00000000000E+00  0.67473982795E+02  0.67473982983E+02  0.50400000000E-02 0. -1.
         -1   -1    0    0    0  501 -0.00000000000E+00 -0.00000000000E+00 -0.14057374214E+04  0.14057374214E+04  0.50400000000E-02 0.  1.
    5000001    1    1    2    0    0  0.21302951903E+03 -0.33697807593E+02 -0.32164008316E+03  0.42094472477E+03  0.16500000000E+03 0.  0.
   -5000001    1    1    2    0    0 -0.21302951903E+03  0.33697807593E+02 -0.10166233555E+04  0.10522666796E+04  0.16500000000E+03 0.  0.
<mgrwt>
<rscale>  0 0.61595683E+03</rscale>
<asrwt>0</asrwt>
<pdfrwt beam="1">  1        1 0.96391412E-02 0.61595683E+03</pdfrwt>
<pdfrwt beam="2">  1       -1 0.20081961E+00 0.61595683E+03</pdfrwt>
<totfact> 0.10812456E+02</totfact>
</mgrwt>
</event>
<event>
 4    1  0.2428650E-005  0.6544317E+03  0.7818608E-02  0.9798499E-01
          1   -1    0    0  501    0  0.00000000000E+00  0.00000000000E+00  0.17171022154E+03  0.17171022161E+03  0.50400000000E-02 0.  1.
         -1   -1    0    0    0  501 -0.00000000000E+00 -0.00000000000E+00 -0.62355179291E+03  0.62355179293E+03  0.50400000000E-02 0. -1.
    5000001    1    1    2    0    0  0.70494638251E+02  0.25765711110E+03 -0.11396094018E+03  0.33401912641E+03  0.16500000000E+03 0.  0.
   -5000001    1    1    2    0    0 -0.70494638251E+02 -0.25765711110E+03 -0.33788063120E+03  0.46124288814E+03  0.16500000000E+03 0.  0.
<mgrwt>
<rscale>  0 0.65443171E+03</rscale>
<asrwt>0</asrwt>
<pdfrwt beam="1">  1        1 0.24530032E-01 0.65443171E+03</pdfrwt>
<pdfrwt beam="2">  1       -1 0.89078826E-01 0.65443171E+03</pdfrwt>
<totfact> 0.25102081E+02</totfact>
</mgrwt>
</event>
<event>
 4    1  0.2428650E-005  0.7385098E+03  0.7818608E-02  0.9653551E-01
         -1   -1    0    0    0  501 -0.00000000000E+00  0.00000000000E+00  0.27645361769E+03  0.27645361773E+03  0.50400000000E-02 0. -1.
          1   -1    0    0  501    0  0.00000000000E+00 -0.00000000000E+00 -0.49320820640E+03  0.49320820643E+03  0.50400000000E-02 0.  1.
    5000001    1    1    2    0    0 -0.29173602319E+03  0.13151227525E+03 -0.19380323180E+03  0.40888883383E+03  0.16500000000E+03 0.  0.
   -5000001    1    1    2    0    0  0.29173602319E+03 -0.13151227525E+03 -0.22951356915E+02  0.36077299033E+03  0.16500000000E+03 0.  0.
<mgrwt>
<rscale>  0 0.73850983E+03</rscale>
<asrwt>0</asrwt>
<pdfrwt beam="1">  1        1 0.70458315E-01 0.73850983E+03</pdfrwt>
<pdfrwt beam="2">  1       -1 0.39493374E-01 0.73850983E+03</pdfrwt>
<totfact> 0.31502821E+02</totfact>
</mgrwt>
</event>
<event>
 4    1  0.2428650E-005  0.3669097E+03  0.7818608E-02  0.1055881E+00
         -1   -1    0    0    0  501 -0.00000000000E+00  0.00000000000E+00  0.54357733245E+03  0.54357733247E+03  0.50400000000E-02 0. -1.
          1   -1    0    0  501    0  0.00000000000E+00 -0.00000000000E+00 -0.61915165266E+02  0.61915165472E+02  0.50400000000E-02 0.  1.
    5000001    1    1    2    0    0  0.34431698001E+02  0.69662007056E+02  0.20814350484E+03  0.27674366418E+03  0.16500000000E+03 0.  0.
   -5000001    1    1    2    0    0 -0.34431698001E+02 -0.69662007056E+02  0.27351866233E+03  0.32874883376E+03  0.16500000000E+03 0.  0.
<mgrwt>
<rscale>  0 0.36690969E+03</rscale>
<asrwt>0</asrwt>
<pdfrwt beam="1">  1        1 0.88450242E-02 0.36690969E+03</pdfrwt>
<pdfrwt beam="2">  1       -1 0.77653899E-01 0.36690969E+03</pdfrwt>
<totfact> 0.13210039E+03</totfact>
</mgrwt>
</event>
<event>
 4    1  0.2428650E-005  0.4444614E+03  0.7818608E-02  0.1029387E+00
          1   -1    0    0  501    0  0.00000000000E+00  0.00000000000E+00  0.27639255878E+03  0.27639255882E+03  0.50400000000E-02 0.  1.
         -1   -1    0    0    0  501 -0.00000000000E+00 -0.00000000000E+00 -0.17868236684E+03  0.17868236691E+03  0.50400000000E-02 0. -1.
    5000001    1    1    2    0    0  0.11566708241E+03 -0.32945304651E+02 -0.40973692998E+02  0.20825011541E+03  0.16500000000E+03 0.  0.
   -5000001    1    1    2    0    0 -0.11566708241E+03  0.32945304651E+02  0.13868388493E+03  0.24682481032E+03  0.16500000000E+03 0.  0.
<mgrwt>
<rscale>  0 0.44446137E+03</rscale>
<asrwt>0</asrwt>
<pdfrwt beam="1">  1        1 0.39484651E-01 0.44446137E+03</pdfrwt>
<pdfrwt beam="2">  1       -1 0.25526053E-01 0.44446137E+03</pdfrwt>
<totfact> 0.14445144E+03</totfact>
</mgrwt>
</event>
<event>
 4    1  0.2428650E-005  0.4288498E+03  0.7818608E-02  0.1034224E+00
          1   -1    0    0  501    0  0.00000000000E+00  0.00000000000E+00  0.47915760816E+03  0.47915760819E+03  0.50400000000E-02 0.  1.
         -1   -1    0    0    0  501 -0.00000000000E+00 -0.00000000000E+00 -0.95955990090E+02  0.95955990222E+02  0.50400000000E-02 0. -1.
    5000001    1    1    2    0    0  0.10832688274E+03 -0.64253126715E+02  0.11950879257E+03  0.23952145900E+03  0.16500000000E+03 0.  0.
   -5000001    1    1    2    0    0 -0.10832688274E+03  0.64253126715E+02  0.26369282550E+03  0.33559213941E+03  0.16500000000E+03 0.  0.
<mgrwt>
<rscale>  0 0.42884982E+03</rscale>
<asrwt>0</asrwt>
<pdfrwt beam="1">  1        1 0.68451087E-01 0.42884982E+03</pdfrwt>
<pdfrwt beam="2">  1       -1 0.13707999E-01 0.42884982E+03</pdfrwt>
<totfact> 0.19670183E+03</totfact>
</mgrwt>
</event>
<event>
 4    1  0.2428650E-005  0.1194809E+04  0.7818608E-02  0.9117412E-01
          1   -1    0    0  501    0  0.00000000000E+00  0.00000000000E+00  0.51170302820E+03  0.51170302822E+03  0.50400000000E-02 0.  1.
         -1   -1    0    0    0  501 -0.00000000000E+00 -0.00000000000E+00 -0.69745934219E+03  0.69745934221E+03  0.50400000000E-02 0. -1.
    5000001    1    1    2    0    0  0.47876216893E+03 -0.28471770010E+03  0.48041456551E+02  0.58293255587E+03  0.16500000000E+03 0.  0.
   -5000001    1    1    2    0    0 -0.47876216893E+03  0.28471770010E+03 -0.23379777054E+03  0.62622981457E+03  0.16500000000E+03 0.  0.
<mgrwt>
<rscale>  0 0.11948089E+04</rscale>
<asrwt>0</asrwt>
<pdfrwt beam="1">  1        1 0.73100434E-01 0.11948089E+04</pdfrwt>
<pdfrwt beam="2">  1       -1 0.99637047E-01 0.11948089E+04</pdfrwt>
<totfact> 0.45318100E+01</totfact>
</mgrwt>
</event>
<event>
 4    1  0.2428650E-005  0.3881422E+03  0.7818608E-02  0.1047965E+00
          1   -1    0    0  501    0  0.00000000000E+00  0.00000000000E+00  0.83539656469E+03  0.83539656471E+03  0.50400000000E-02 0.  1.
         -1   -1    0    0    0  501 -0.00000000000E+00 -0.00000000000E+00 -0.45084682052E+02  0.45084682333E+02  0.50400000000E-02 0. -1.
    5000001    1    1    2    0    0  0.16352298686E+02 -0.10085150974E+03  0.39607444860E+03  0.44106506722E+03  0.16500000000E+03 0.  0.
   -5000001    1    1    2    0    0 -0.16352298686E+02  0.10085150974E+03  0.39423743404E+03  0.43941617982E+03  0.16500000000E+03 0.  0.
<mgrwt>
<rscale>  0 0.38814218E+03</rscale>
<asrwt>0</asrwt>
<pdfrwt beam="1">  1        1 0.11934236E+00 0.38814218E+03</pdfrwt>
<pdfrwt beam="2">  1       -1 0.64406694E-02 0.38814218E+03</pdfrwt>
<totfact> 0.29109701E+03</totfact>
</mgrwt>
</event>
<event>
 4    1  0.2428650E-005  0.5072373E+03  0.7818608E-02  0.1011907E+00
         -1   -1    0    0    0  501 -0.00000000000E+00  0.00000000000E+00  0.40633631715E+03  0.40633631718E+03  0.50400000000E-02 0. -1.
          1   -1    0    0  501    0  0.00000000000E+00 -0.00000000000E+00 -0.15829848959E+03  0.15829848967E+03  0.50400000000E-02 0.  1.
    5000001    1    1    2    0    0  0.40780311619E+02  0.16310321066E+03  0.19407411369E+02  0.23636272710E+03  0.16500000000E+03 0.  0.
   -5000001    1    1    2    0    0 -0.40780311619E+02 -0.16310321066E+03  0.22863041619E+03  0.32827207976E+03  0.16500000000E+03 0.  0.
<mgrwt>
<rscale>  0 0.50723732E+03</rscale>
<asrwt>0</asrwt>
<pdfrwt beam="1">  1        1 0.22614071E-01 0.50723732E+03</pdfrwt>
<pdfrwt beam="2">  1       -1 0.58048044E-01 0.50723732E+03</pdfrwt>
<totfact> 0.67556722E+02</totfact>
</mgrwt>
</event>
<event>
 4    1  0.2428650E-005  0.5008719E+03  0.7818608E-02  0.1013552E+00
          1   -1    0    0  501    0  0.00000000000E+00  0.00000000000E+00  0.12881448446E+03  0.12881448456E+03  0.50400000000E-02 0. -1.
         -1   -1    0    0    0  501 -0.00000000000E+00 -0.00000000000E+00 -0.48688747201E+03  0.48688747203E+03  0.50400000000E-02 0.  1.
    5000001    1    1    2    0    0  0.88133679088E+02  0.87341388245E+02 -0.47713481841E+01  0.20650382382E+03  0.16500000000E+03 0.  0.
   -5000001    1    1    2    0    0 -0.88133679088E+02 -0.87341388245E+02 -0.35330163936E+03  0.40919813277E+03  0.16500000000E+03 0.  0.
<mgrwt>
<rscale>  0 0.50087187E+03</rscale>
<asrwt>0</asrwt>
<pdfrwt beam="1">  1        1 0.18402069E-01 0.50087187E+03</pdfrwt>
<pdfrwt beam="2">  1       -1 0.69555352E-01 0.50087187E+03</pdfrwt>
<totfact> 0.61871618E+02</totfact>
</mgrwt>
</event>
<event>
 4    1  0.2428650E-005  0.6361610E+03  0.7818608E-02  0.9833099E-01
          1   -1    0    0  501    0  0.00000000000E+00  0.00000000000E+00  0.22873749301E+03  0.22873749307E+03  0.50400000000E-02 0. -1.
         -1   -1    0    0    0  501 -0.00000000000E+00 -0.00000000000E+00 -0.44232018995E+03  0.44232018998E+03  0.50400000000E-02 0.  1.
    5000001    1    1    2    0    0  0.23047288554E+03 -0.13337780809E+03 -0.16497902018E+03  0.35404867993E+03  0.16500000000E+03 0.  0.
   -5000001    1    1    2    0    0 -0.23047288554E+03  0.13337780809E+03 -0.48603676757E+02  0.31700900311E+03  0.16500000000E+03 0.  0.
<mgrwt>
<rscale>  0 0.63616102E+03</rscale>
<asrwt>0</asrwt>
<pdfrwt beam="1">  1        1 0.32676785E-01 0.63616102E+03</pdfrwt>
<pdfrwt beam="2">  1       -1 0.63188599E-01 0.63616102E+03</pdfrwt>
<totfact> 0.35374014E+02</totfact>
</mgrwt>
</event>
<event>
 4    1  0.2428650E-005  0.6127095E+03  0.7818608E-02  0.9879383E-01
          1   -1    0    0  501    0  0.00000000000E+00  0.00000000000E+00  0.74516371608E+03  0.74516371610E+03  0.50400000000E-02 0.  1.
         -1   -1    0    0    0  501 -0.00000000000E+00 -0.00000000000E+00 -0.12594980754E+03  0.12594980764E+03  0.50400000000E-02 0. -1.
    5000001    1    1    2    0    0  0.26067028829E+02 -0.25673757943E+03  0.30124983270E+03  0.42961626643E+03  0.16500000000E+03 0.  0.
   -5000001    1    1    2    0    0 -0.26067028829E+02  0.25673757943E+03  0.31796407584E+03  0.44149725731E+03  0.16500000000E+03 0.  0.
<mgrwt>
<rscale>  0 0.61270948E+03</rscale>
<asrwt>0</asrwt>
<pdfrwt beam="1">  1        1 0.10645196E+00 0.61270948E+03</pdfrwt>
<pdfrwt beam="2">  1       -1 0.17992829E-01 0.61270948E+03</pdfrwt>
<totfact> 0.68188126E+02</totfact>
</mgrwt>
</event>
<event>
 4    1  0.2428650E-005  0.5058173E+03  0.7818608E-02  0.1012272E+00
         -1   -1    0    0    0  501 -0.00000000000E+00  0.00000000000E+00  0.90751292173E+03  0.90751292174E+03  0.50400000000E-02 0. -1.
          1   -1    0    0  501    0  0.00000000000E+00 -0.00000000000E+00 -0.70481410262E+02  0.70481410442E+02  0.50400000000E-02 0.  1.
    5000001    1    1    2    0    0 -0.61706642646E+02  0.13506598445E+03  0.65283774362E+03  0.68954524826E+03  0.16500000000E+03 0.  0.
   -5000001    1    1    2    0    0  0.61706642646E+02 -0.13506598445E+03  0.18419376784E+03  0.28844908392E+03  0.16500000000E+03 0.  0.
<mgrwt>
<rscale>  0 0.50581732E+03</rscale>
<asrwt>0</asrwt>
<pdfrwt beam="1">  1        1 0.10068774E-01 0.50581732E+03</pdfrwt>
<pdfrwt beam="2">  1       -1 0.12964469E+00 0.50581732E+03</pdfrwt>
<totfact> 0.34637937E+02</totfact>
</mgrwt>
</event>
<event>
 4    1  0.2428650E-005  0.5569781E+03  0.7818608E-02  0.9998916E-01
          1   -1    0    0  501    0  0.00000000000E+00  0.00000000000E+00  0.14293917543E+04  0.14293917543E+04  0.50400000000E-02 0. -1.
         -1   -1    0    0    0  501 -0.00000000000E+00 -0.00000000000E+00 -0.54258142700E+02  0.54258142934E+02  0.50400000000E-02 0.  1.
    5000001    1    1    2    0    0 -0.13965086976E+03 -0.17312370322E+03  0.60958853666E+03  0.66955012215E+03  0.16500000000E+03 0.  0.
   -5000001    1    1    2    0    0  0.13965086976E+03  0.17312370322E+03  0.76554507491E+03  0.81409977506E+03  0.16500000000E+03 0.  0.
<mgrwt>
<rscale>  0 0.55697807E+03</rscale>
<asrwt>0</asrwt>
<pdfrwt beam="1">  1        1 0.20419882E+00 0.55697807E+03</pdfrwt>
<pdfrwt beam="2">  1       -1 0.77511635E-02 0.55697807E+03</pdfrwt>
<totfact> 0.83269973E+02</totfact>
</mgrwt>
</event>
<event>
 4    1  0.2428650E-005  0.4703685E+03  0.7818608E-02  0.1021816E+00
          1   -1    0    0  501    0  0.00000000000E+00  0.00000000000E+00  0.90974007085E+03  0.90974007086E+03  0.50400000000E-02 0.  1.
         -1   -1    0    0    0  501 -0.00000000000E+00 -0.00000000000E+00 -0.60799367479E+02  0.60799367688E+02  0.50400000000E-02 0. -1.
    5000001    1    1    2    0    0 -0.13404756476E+03 -0.84164583041E+02  0.31081321904E+03  0.38585267109E+03  0.16500000000E+03 0.  0.
   -5000001    1    1    2    0    0  0.13404756476E+03  0.84164583041E+02  0.53812748433E+03  0.58468676746E+03  0.16500000000E+03 0.  0.
<mgrwt>
<rscale>  0 0.47036846E+03</rscale>
<asrwt>0</asrwt>
<pdfrwt beam="1">  1        1 0.12996287E+00 0.47036846E+03</pdfrwt>
<pdfrwt beam="2">  1       -1 0.86856238E-02 0.47036846E+03</pdfrwt>
<totfact> 0.16056169E+03</totfact>
</mgrwt>
</event>
<event>
 4    1  0.2428650E-005  0.4821926E+03  0.7818608E-02  0.1018534E+00
         -1   -1    0    0    0  501 -0.00000000000E+00  0.00000000000E+00  0.26413923470E+02  0.26413923951E+02  0.50400000000E-02 0. -1.
          1   -1    0    0  501    0  0.00000000000E+00 -0.00000000000E+00 -0.22006360841E+04  0.22006360841E+04  0.50400000000E-02 0.  1.
    5000001    1    1    2    0    0  0.52526941119E+02 -0.16661060416E+03 -0.99657485630E+03  0.10251363895E+04  0.16500000000E+03 0.  0.
   -5000001    1    1    2    0    0 -0.52526941119E+02  0.16661060416E+03 -0.11776473043E+04  0.12019136185E+04  0.16500000000E+03 0.  0.
<mgrwt>
<rscale>  0 0.48219263E+03</rscale>
<asrwt>0</asrwt>
<pdfrwt beam="1">  1        1 0.31437647E+00 0.48219263E+03</pdfrwt>
<pdfrwt beam="2">  1       -1 0.37734191E-02 0.48219263E+03</pdfrwt>
<totfact> 0.83245737E+02</totfact>
</mgrwt>
</event>
<event>
 4    1  0.2428650E-005  0.9870635E+03  0.7818608E-02  0.9322848E-01
          1   -1    0    0  501    0  0.00000000000E+00  0.00000000000E+00  0.25784069430E+04  0.25784069430E+04  0.50400000000E-02 0.  1.
         -1   -1    0    0    0  501 -0.00000000000E+00 -0.00000000000E+00 -0.94466690461E+02  0.94466690595E+02  0.50400000000E-02 0. -1.
    5000001    1    1    2    0    0 -0.35701925113E+03 -0.24311929787E+03  0.77467938062E+03  0.90217674623E+03  0.16500000000E+03 0.  0.
   -5000001    1    1    2    0    0  0.35701925113E+03  0.24311929787E+03  0.17092608719E+04  0.17706968874E+04  0.16500000000E+03 0.  0.
<mgrwt>
<rscale>  0 0.98706346E+03</rscale>
<asrwt>0</asrwt>
<pdfrwt beam="1">  1        1 0.36834382E+00 0.98706346E+03</pdfrwt>
<pdfrwt beam="2">  1       -1 0.13495242E-01 0.98706346E+03</pdfrwt>
<totfact> 0.63605787E+01</totfact>
</mgrwt>
</event>
<event>
 4    1  0.2428650E-005  0.7384382E+03  0.7818608E-02  0.9653666E-01
          1   -1    0    0  501    0  0.00000000000E+00  0.00000000000E+00  0.19051200147E+04  0.19051200147E+04  0.50400000000E-02 0.  1.
         -1   -1    0    0    0  501 -0.00000000000E+00 -0.00000000000E+00 -0.71555988769E+02  0.71555988947E+02  0.50400000000E-02 0. -1.
    5000001    1    1    2    0    0 -0.23695386922E+03  0.90361312191E+02  0.14832687824E+04  0.15138109472E+04  0.16500000000E+03 0.  0.
   -5000001    1    1    2    0    0  0.23695386922E+03 -0.90361312191E+02  0.35029524350E+03  0.46286505647E+03  0.16500000000E+03 0.  0.
<mgrwt>
<rscale>  0 0.73843821E+03</rscale>
<asrwt>0</asrwt>
<pdfrwt beam="1">  1        1 0.27215997E+00 0.73843821E+03</pdfrwt>
<pdfrwt beam="2">  1       -1 0.10222285E-01 0.73843821E+03</pdfrwt>
<totfact> 0.26701276E+02</totfact>
</mgrwt>
</event>
<event>
 4    1  0.2428650E-005  0.5872801E+03  0.7818608E-02  0.9932153E-01
         -1   -1    0    0    0  501 -0.00000000000E+00  0.00000000000E+00  0.24549251719E+03  0.24549251724E+03  0.50400000000E-02 0. -1.
          1   -1    0    0  501    0  0.00000000000E+00 -0.00000000000E+00 -0.35123055584E+03  0.35123055588E+03  0.50400000000E-02 0.  1.
    5000001    1    1    2    0    0  0.40792942430E+02  0.23182406240E+03 -0.11377458322E+03  0.30915387083E+03  0.16500000000E+03 0.  0.
   -5000001    1    1    2    0    0 -0.40792942430E+02 -0.23182406240E+03  0.80365445733E+01  0.28756920230E+03  0.16500000000E+03 0.  0.
<mgrwt>
<rscale>  0 0.58728008E+03</rscale>
<asrwt>0</asrwt>
<pdfrwt beam="1">  1        1 0.50175794E-01 0.58728008E+03</pdfrwt>
<pdfrwt beam="2">  1       -1 0.35070360E-01 0.58728008E+03</pdfrwt>
<totfact> 0.61266233E+02</totfact>
</mgrwt>
</event>
<event>
 4    1  0.2428650E-005  0.7203612E+03  0.7818608E-02  0.9683032E-01
         -1   -1    0    0    0  501 -0.00000000000E+00  0.00000000000E+00  0.11906876546E+04  0.11906876547E+04  0.50400000000E-02 0. -1.
          1   -1    0    0  501    0  0.00000000000E+00 -0.00000000000E+00 -0.10895389220E+03  0.10895389232E+03  0.50400000000E-02 0.  1.
    5000001    1    1    2    0    0  0.26879309482E+02  0.31819795914E+03  0.58250397244E+03  0.68447667337E+03  0.16500000000E+03 0.  0.
   -5000001    1    1    2    0    0 -0.26879309482E+02 -0.31819795914E+03  0.49922979000E+03  0.61516487360E+03  0.16500000000E+03 0.  0.
<mgrwt>
<rscale>  0 0.72036117E+03</rscale>
<asrwt>0</asrwt>
<pdfrwt beam="1">  1        1 0.15564842E-01 0.72036117E+03</pdfrwt>
<pdfrwt beam="2">  1       -1 0.17009823E+00 0.72036117E+03</pdfrwt>
<totfact> 0.91974373E+01</totfact>
</mgrwt>
</event>
<event>
 4    1  0.2428650E-005  0.8629269E+03  0.7818608E-02  0.9473149E-01
         -1   -1    0    0    0  501 -0.00000000000E+00  0.00000000000E+00  0.25966242725E+03  0.25966242730E+03  0.50400000000E-02 0. -1.
          1   -1    0    0  501    0  0.00000000000E+00 -0.00000000000E+00 -0.71693349568E+03  0.71693349570E+03  0.50400000000E-02 0.  1.
    5000001    1    1    2    0    0  0.57541826237E+02  0.37565257059E+03 -0.92311862334E+02  0.42446719011E+03  0.16500000000E+03 0.  0.
   -5000001    1    1    2    0    0 -0.57541826237E+02 -0.37565257059E+03 -0.36495920610E+03  0.55212873288E+03  0.16500000000E+03 0.  0.
<mgrwt>
<rscale>  0 0.86292686E+03</rscale>
<asrwt>0</asrwt>
<pdfrwt beam="1">  1        1 0.10241907E+00 0.86292686E+03</pdfrwt>
<pdfrwt beam="2">  1       -1 0.37094633E-01 0.86292686E+03</pdfrwt>
<totfact> 0.20686528E+02</totfact>
</mgrwt>
</event>
<event>
 4    1  0.2428650E-005  0.9827074E+03  0.7818608E-02  0.9327717E-01
         -1   -1    0    0    0  501 -0.00000000000E+00  0.00000000000E+00  0.29051507036E+03  0.29051507041E+03  0.50400000000E-02 0.  1.
          1   -1    0    0  501    0  0.00000000000E+00 -0.00000000000E+00 -0.83103589170E+03  0.83103589171E+03  0.50400000000E-02 0. -1.
    5000001    1    1    2    0    0  0.26045123887E+03  0.13034376295E+03  0.14025254349E+03  0.36293266638E+03  0.16500000000E+03 0.  0.
   -5000001    1    1    2    0    0 -0.26045123887E+03 -0.13034376295E+03 -0.68077336483E+03  0.75861829574E+03  0.16500000000E+03 0.  0.
<mgrwt>
<rscale>  0 0.98270738E+03</rscale>
<asrwt>0</asrwt>
<pdfrwt beam="1">  1        1 0.11871941E+00 0.98270738E+03</pdfrwt>
<pdfrwt beam="2">  1       -1 0.41502153E-01 0.98270738E+03</pdfrwt>
<totfact> 0.13363100E+02</totfact>
</mgrwt>
</event>
<event>
 4    1  0.2428650E-005  0.6587605E+03  0.7818608E-02  0.9790478E-01
         -1   -1    0    0    0  501 -0.00000000000E+00  0.00000000000E+00  0.34753869546E+03  0.34753869550E+03  0.50400000000E-02 0.  1.
          1   -1    0    0  501    0  0.00000000000E+00 -0.00000000000E+00 -0.31217053535E+03  0.31217053539E+03  0.50400000000E-02 0. -1.
    5000001    1    1    2    0    0 -0.54667026481E+02  0.25535386787E+03  0.13218272571E+03  0.33599308713E+03  0.16500000000E+03 0.  0.
   -5000001    1    1    2    0    0  0.54667026481E+02 -0.25535386787E+03 -0.96814565598E+02  0.32371614376E+03  0.16500000000E+03 0.  0.
<mgrwt>
<rscale>  0 0.65876047E+03</rscale>
<asrwt>0</asrwt>
<pdfrwt beam="1">  1        1 0.44595791E-01 0.65876047E+03</pdfrwt>
<pdfrwt beam="2">  1       -1 0.49648385E-01 0.65876047E+03</pdfrwt>
<totfact> 0.37742634E+02</totfact>
</mgrwt>
</event>
<event>
 4    1  0.2428650E-005  0.3508512E+03  0.7818608E-02  0.1062266E+00
          1   -1    0    0  501    0  0.00000000000E+00  0.00000000000E+00  0.11410744635E+04  0.11410744635E+04  0.50400000000E-02 0.  1.
         -1   -1    0    0    0  501 -0.00000000000E+00 -0.00000000000E+00 -0.26969446362E+02  0.26969446833E+02  0.50400000000E-02 0. -1.
    5000001    1    1    2    0    0  0.17522107862E+02  0.32950948305E+02  0.40245711429E+03  0.43656559427E+03  0.16500000000E+03 0.  0.
   -5000001    1    1    2    0    0 -0.17522107862E+02 -0.32950948305E+02  0.71164790288E+03  0.73147831610E+03  0.16500000000E+03 0.  0.
<mgrwt>
<rscale>  0 0.35085123E+03</rscale>
<asrwt>0</asrwt>
<pdfrwt beam="1">  1        1 0.16301062E+00 0.35085123E+03</pdfrwt>
<pdfrwt beam="2">  1       -1 0.38527786E-02 0.35085123E+03</pdfrwt>
<totfact> 0.37693647E+03</totfact>
</mgrwt>
</event>
<event>
 4    1  0.2428650E-005  0.7260073E+03  0.7818608E-02  0.9673762E-01
         -1   -1    0    0    0  501 -0.00000000000E+00  0.00000000000E+00  0.28917592882E+03  0.28917592887E+03  0.50400000000E-02 0. -1.
          1   -1    0    0  501    0  0.00000000000E+00 -0.00000000000E+00 -0.45567989580E+03  0.45567989583E+03  0.50400000000E-02 0.  1.
    5000001    1    1    2    0    0  0.32012050561E+02  0.31348797216E+03 -0.89339723626E+01  0.35581497430E+03  0.16500000000E+03 0.  0.
   -5000001    1    1    2    0    0 -0.32012050561E+02 -0.31348797216E+03 -0.15756999461E+03  0.38904085039E+03  0.16500000000E+03 0.  0.
<mgrwt>
<rscale>  0 0.72600732E+03</rscale>
<asrwt>0</asrwt>
<pdfrwt beam="1">  1        1 0.65097128E-01 0.72600732E+03</pdfrwt>
<pdfrwt beam="2">  1       -1 0.41310847E-01 0.72600732E+03</pdfrwt>
<totfact> 0.32292882E+02</totfact>
</mgrwt>
</event>
<event>
 4    1  0.2428650E-005  0.6302815E+03  0.7818608E-02  0.9844500E-01
         -1   -1    0    0    0  501 -0.00000000000E+00  0.00000000000E+00  0.26552225305E+03  0.26552225309E+03  0.50400000000E-02 0. -1.
          1   -1    0    0  501    0  0.00000000000E+00 -0.00000000000E+00 -0.37403148782E+03  0.37403148786E+03  0.50400000000E-02 0.  1.
    5000001    1    1    2    0    0 -0.23912035413E+03  0.10970393737E+03  0.15497305167E+00  0.31054552267E+03  0.16500000000E+03 0.  0.
   -5000001    1    1    2    0    0  0.23912035413E+03 -0.10970393737E+03 -0.10866420783E+03  0.32900821828E+03  0.16500000000E+03 0.  0.
<mgrwt>
<rscale>  0 0.63028147E+03</rscale>
<asrwt>0</asrwt>
<pdfrwt beam="1">  1        1 0.53433069E-01 0.63028147E+03</pdfrwt>
<pdfrwt beam="2">  1       -1 0.37931751E-01 0.63028147E+03</pdfrwt>
<totfact> 0.49036748E+02</totfact>
</mgrwt>
</event>
<event>
 4    1  0.2428650E-005  0.4405552E+03  0.7818608E-02  0.1030577E+00
         -1   -1    0    0    0  501 -0.00000000000E+00  0.00000000000E+00  0.82672650562E+03  0.82672650564E+03  0.50400000000E-02 0. -1.
          1   -1    0    0  501    0  0.00000000000E+00 -0.00000000000E+00 -0.58691989602E+02  0.58691989819E+02  0.50400000000E-02 0.  1.
    5000001    1    1    2    0    0 -0.96424881371E+02 -0.10134303368E+03  0.30044681682E+03  0.37021812214E+03  0.16500000000E+03 0.  0.
   -5000001    1    1    2    0    0  0.96424881371E+02  0.10134303368E+03  0.46758769919E+03  0.51520037331E+03  0.16500000000E+03 0.  0.
<mgrwt>
<rscale>  0 0.44055521E+03</rscale>
<asrwt>0</asrwt>
<pdfrwt beam="1">  1        1 0.83845712E-02 0.44055521E+03</pdfrwt>
<pdfrwt beam="2">  1       -1 0.11810377E+00 0.44055521E+03</pdfrwt>
<totfact> 0.56030017E+02</totfact>
</mgrwt>
</event>
<event>
 4    1  0.2428650E-005  0.6893283E+03  0.7818608E-02  0.9735658E-01
          1   -1    0    0  501    0  0.00000000000E+00  0.00000000000E+00  0.90841668355E+02  0.90841668495E+02  0.50400000000E-02 0. -1.
         -1   -1    0    0    0  501 -0.00000000000E+00 -0.00000000000E+00 -0.13076969191E+04  0.13076969191E+04  0.50400000000E-02 0.  1.
    5000001    1    1    2    0    0 -0.13320873039E+03  0.22761606076E+03 -0.90945436006E+03  0.96118981996E+03  0.16500000000E+03 0.  0.
   -5000001    1    1    2    0    0  0.13320873039E+03 -0.22761606076E+03 -0.30740089070E+03  0.43734876766E+03  0.16500000000E+03 0.  0.
<mgrwt>
<rscale>  0 0.68932828E+03</rscale>
<asrwt>0</asrwt>
<pdfrwt beam="1">  1        1 0.12977382E-01 0.68932828E+03</pdfrwt>
<pdfrwt beam="2">  1       -1 0.18681383E+00 0.68932828E+03</pdfrwt>
<totfact> 0.89481648E+01</totfact>
</mgrwt>
</event>
<event>
 4    1  0.2428650E-005  0.4351381E+03  0.7818608E-02  0.1032249E+00
         -1   -1    0    0    0  501 -0.00000000000E+00  0.00000000000E+00  0.58750567410E+03  0.58750567412E+03  0.50400000000E-02 0.  1.
          1   -1    0    0  501    0  0.00000000000E+00 -0.00000000000E+00 -0.80571634758E+02  0.80571634915E+02  0.50400000000E-02 0. -1.
    5000001    1    1    2    0    0  0.32162147937E+02  0.12408008341E+03  0.34661722134E+03  0.40472060608E+03  0.16500000000E+03 0.  0.
   -5000001    1    1    2    0    0 -0.32162147937E+02 -0.12408008341E+03  0.16031681801E+03  0.26335670296E+03  0.16500000000E+03 0.  0.
<mgrwt>
<rscale>  0 0.43513811E+03</rscale>
<asrwt>0</asrwt>
<pdfrwt beam="1">  1        1 0.11510233E-01 0.43513811E+03</pdfrwt>
<pdfrwt beam="2">  1       -1 0.83929385E-01 0.43513811E+03</pdfrwt>
<totfact> 0.78495128E+02</totfact>
</mgrwt>
</event>
<event>
 4    1  0.2428650E-005  0.8273988E+03  0.7818608E-02  0.9521184E-01
          1   -1    0    0  501    0  0.00000000000E+00  0.00000000000E+00  0.87003530484E+03  0.87003530485E+03  0.50400000000E-02 0.  1.
         -1   -1    0    0    0  501 -0.00000000000E+00 -0.00000000000E+00 -0.19671293712E+03  0.19671293718E+03  0.50400000000E-02 0. -1.
    5000001    1    1    2    0    0  0.20459587209E+03  0.31083873861E+03  0.43177128133E+03  0.59340680117E+03  0.16500000000E+03 0.  0.
   -5000001    1    1    2    0    0 -0.20459587209E+03 -0.31083873861E+03  0.24155108639E+03  0.47334144086E+03  0.16500000000E+03 0.  0.
<mgrwt>
<rscale>  0 0.82739882E+03</rscale>
<asrwt>0</asrwt>
<pdfrwt beam="1">  1        1 0.12429076E+00 0.82739882E+03</pdfrwt>
<pdfrwt beam="2">  1       -1 0.28101848E-01 0.82739882E+03</pdfrwt>
<totfact> 0.25081791E+02</totfact>
</mgrwt>
</event>
<event>
 4    1  0.2428650E-005  0.6522547E+03  0.7818608E-02  0.9802558E-01
          1   -1    0    0  501    0  0.00000000000E+00  0.00000000000E+00  0.61255184086E+03  0.61255184088E+03  0.50400000000E-02 0.  1.
         -1   -1    0    0    0  501 -0.00000000000E+00 -0.00000000000E+00 -0.17363274762E+03  0.17363274770E+03  0.50400000000E-02 0. -1.
    5000001    1    1    2    0    0  0.12043322303E+03  0.23777868891E+03  0.11103850624E+03  0.33256189796E+03  0.16500000000E+03 0.  0.
   -5000001    1    1    2    0    0 -0.12043322303E+03 -0.23777868891E+03  0.32788058700E+03  0.45362269061E+03  0.16500000000E+03 0.  0.
<mgrwt>
<rscale>  0 0.65225473E+03</rscale>
<asrwt>0</asrwt>
<pdfrwt beam="1">  1        1 0.87507406E-01 0.65225473E+03</pdfrwt>
<pdfrwt beam="2">  1       -1 0.24804678E-01 0.65225473E+03</pdfrwt>
<totfact> 0.52946924E+02</totfact>
</mgrwt>
</event>
<event>
 4    1  0.2428650E-005  0.5553469E+03  0.7818608E-02  0.1000264E+00
         -1   -1    0    0    0  501 -0.00000000000E+00  0.00000000000E+00  0.72548584658E+02  0.72548584833E+02  0.50400000000E-02 0. -1.
          1   -1    0    0  501    0  0.00000000000E+00 -0.00000000000E+00 -0.10627710035E+04  0.10627710035E+04  0.50400000000E-02 0.  1.
    5000001    1    1    2    0    0  0.14529033227E+03  0.11302738833E+03 -0.23657605053E+03  0.34216618601E+03  0.16500000000E+03 0.  0.
   -5000001    1    1    2    0    0 -0.14529033227E+03 -0.11302738833E+03 -0.75364636827E+03  0.79315340230E+03  0.16500000000E+03 0.  0.
<mgrwt>
<rscale>  0 0.55534685E+03</rscale>
<asrwt>0</asrwt>
<pdfrwt beam="1">  1        1 0.15182442E+00 0.55534685E+03</pdfrwt>
<pdfrwt beam="2">  1       -1 0.10364084E-01 0.55534685E+03</pdfrwt>
<totfact> 0.93572355E+02</totfact>
</mgrwt>
</event>
<event>
 4    1  0.2428650E-005  0.6150894E+03  0.7818608E-02  0.9874586E-01
         -1   -1    0    0    0  501 -0.00000000000E+00  0.00000000000E+00  0.19533703532E+03  0.19533703538E+03  0.50400000000E-02 0. -1.
          1   -1    0    0  501    0  0.00000000000E+00 -0.00000000000E+00 -0.48420799718E+03  0.48420799721E+03  0.50400000000E-02 0.  1.
    5000001    1    1    2    0    0 -0.43461003192E+02 -0.23863378067E+03 -0.24643472871E+03  0.38313185144E+03  0.16500000000E+03 0.  0.
   -5000001    1    1    2    0    0  0.43461003192E+02  0.23863378067E+03 -0.42436233147E+02  0.29641318115E+03  0.16500000000E+03 0.  0.
<mgrwt>
<rscale>  0 0.61508944E+03</rscale>
<asrwt>0</asrwt>
<pdfrwt beam="1">  1        1 0.69172570E-01 0.61508944E+03</pdfrwt>
<pdfrwt beam="2">  1       -1 0.27905291E-01 0.61508944E+03</pdfrwt>
<totfact> 0.59847584E+02</totfact>
</mgrwt>
</event>
<event>
 4    1  0.2428650E-005  0.4795024E+03  0.7818608E-02  0.1019272E+00
         -1   -1    0    0    0  501 -0.00000000000E+00  0.00000000000E+00  0.27320160411E+03  0.27320160416E+03  0.50400000000E-02 0. -1.
          1   -1    0    0  501    0  0.00000000000E+00 -0.00000000000E+00 -0.21039643742E+03  0.21039643748E+03  0.50400000000E-02 0.  1.
    5000001    1    1    2    0    0  0.12588743402E+03  0.39870545687E+02  0.14558772106E+03  0.25662831290E+03  0.16500000000E+03 0.  0.
   -5000001    1    1    2    0    0 -0.12588743402E+03 -0.39870545687E+02 -0.82782554361E+02  0.22696972874E+03  0.16500000000E+03 0.  0.
<mgrwt>
<rscale>  0 0.47950243E+03</rscale>
<asrwt>0</asrwt>
<pdfrwt beam="1">  1        1 0.30056634E-01 0.47950243E+03</pdfrwt>
<pdfrwt beam="2">  1       -1 0.39028801E-01 0.47950243E+03</pdfrwt>
<totfact> 0.97915391E+02</totfact>
</mgrwt>
</event>
<event>
 4    1  0.2428650E-005  0.7415799E+03  0.7818608E-02  0.9648654E-01
          1   -1    0    0  501    0  0.00000000000E+00  0.00000000000E+00  0.85682509943E+03  0.85682509944E+03  0.50400000000E-02 0.  1.
         -1   -1    0    0    0  501 -0.00000000000E+00 -0.00000000000E+00 -0.16045887405E+03  0.16045887413E+03  0.50400000000E-02 0. -1.
    5000001    1    1    2    0    0  0.29500659873E+03  0.13123363913E+03  0.24184562097E+03  0.43585027901E+03  0.16500000000E+03 0.  0.
   -5000001    1    1    2    0    0 -0.29500659873E+03 -0.13123363913E+03  0.45452060441E+03  0.58143369456E+03  0.16500000000E+03 0.  0.
<mgrwt>
<rscale>  0 0.74157991E+03</rscale>
<asrwt>0</asrwt>
<pdfrwt beam="1">  1        1 0.12240359E+00 0.74157991E+03</pdfrwt>
<pdfrwt beam="2">  1       -1 0.22922696E-01 0.74157991E+03</pdfrwt>
<totfact> 0.36555803E+02</totfact>
</mgrwt>
</event>
<event>
 4    1  0.2428650E-005  0.4230505E+03  0.7818608E-02  0.1036078E+00
          1   -1    0    0  501    0  0.00000000000E+00  0.00000000000E+00  0.22179308459E+04  0.22179308459E+04  0.50400000000E-02 0.  1.
         -1   -1    0    0    0  501 -0.00000000000E+00 -0.00000000000E+00 -0.20173271337E+02  0.20173271967E+02  0.50400000000E-02 0. -1.
    5000001    1    1    2    0    0  0.79865399506E+02 -0.29290326299E+02  0.56244428343E+03  0.59228791750E+03  0.16500000000E+03 0.  0.
   -5000001    1    1    2    0    0 -0.79865399506E+02  0.29290326299E+02  0.16353132911E+04  0.16458162004E+04  0.16500000000E+03 0.  0.
<mgrwt>
<rscale>  0 0.42305045E+03</rscale>
<asrwt>0</asrwt>
<pdfrwt beam="1">  1        1 0.31684725E+00 0.42305045E+03</pdfrwt>
<pdfrwt beam="2">  1       -1 0.28818961E-02 0.42305045E+03</pdfrwt>
<totfact> 0.12221692E+03</totfact>
</mgrwt>
</event>
<event>
 4    1  0.2428650E-005  0.6209231E+03  0.7818608E-02  0.9862923E-01
         -1   -1    0    0    0  501 -0.00000000000E+00  0.00000000000E+00  0.53696710556E+02  0.53696710793E+02  0.50400000000E-02 0. -1.
          1   -1    0    0  501    0  0.00000000000E+00 -0.00000000000E+00 -0.17950146056E+04  0.17950146056E+04  0.50400000000E-02 0.  1.
    5000001    1    1    2    0    0 -0.13856267381E+03  0.30485037528E+02 -0.21137429144E+03  0.30336948292E+03  0.16500000000E+03 0.  0.
   -5000001    1    1    2    0    0  0.13856267381E+03 -0.30485037528E+02 -0.15299436036E+04  0.15453418335E+04  0.16500000000E+03 0.  0.
<mgrwt>
<rscale>  0 0.62092312E+03</rscale>
<asrwt>0</asrwt>
<pdfrwt beam="1">  1        1 0.25643062E+00 0.62092312E+03</pdfrwt>
<pdfrwt beam="2">  1       -1 0.76709597E-02 0.62092312E+03</pdfrwt>
<totfact> 0.49498000E+02</totfact>
</mgrwt>
</event>
<event>
 4    1  0.2428650E-005  0.1557394E+04  0.7818608E-02  0.8847159E-01
         -1   -1    0    0    0  501 -0.00000000000E+00  0.00000000000E+00  0.16127888164E+03  0.16127888172E+03  0.50400000000E-02 0.  1.
          1   -1    0    0  501    0  0.00000000000E+00 -0.00000000000E+00 -0.37597546506E+04  0.37597546506E+04  0.50400000000E-02 0. -1.
    5000001    1    1    2    0    0  0.31312313106E+03 -0.65932565142E+03 -0.12569834887E+04  0.14628700901E+04  0.16500000000E+03 0.  0.
   -5000001    1    1    2    0    0 -0.31312313106E+03  0.65932565142E+03 -0.23414922804E+04  0.24581634422E+04  0.16500000000E+03 0.  0.
<mgrwt>
<rscale>  0 0.15573940E+04</rscale>
<asrwt>0</asrwt>
<pdfrwt beam="1">  1        1 0.53710775E+00 0.15573940E+04</pdfrwt>
<pdfrwt beam="2">  1       -1 0.23039843E-01 0.15573940E+04</pdfrwt>
<totfact> 0.39844385E+00</totfact>
</mgrwt>
</event>
<event>
 4    1  0.2428650E-005  0.1068857E+04  0.7818608E-02  0.9236089E-01
          1   -1    0    0  501    0  0.00000000000E+00  0.00000000000E+00  0.14130018962E+04  0.14130018962E+04  0.50400000000E-02 0.  1.
         -1   -1    0    0    0  501 -0.00000000000E+00 -0.00000000000E+00 -0.20213255067E+03  0.20213255074E+03  0.50400000000E-02 0. -1.
    5000001    1    1    2    0    0 -0.41029095742E+03  0.25846773964E+03  0.83581674646E+03  0.98028509927E+03  0.16500000000E+03 0.  0.
   -5000001    1    1    2    0    0  0.41029095742E+03 -0.25846773964E+03  0.37505259905E+03  0.63484934767E+03  0.16500000000E+03 0.  0.
<mgrwt>
<rscale>  0 0.10688567E+04</rscale>
<asrwt>0</asrwt>
<pdfrwt beam="1">  1        1 0.20185741E+00 0.10688567E+04</pdfrwt>
<pdfrwt beam="2">  1       -1 0.28876079E-01 0.10688567E+04</pdfrwt>
<totfact> 0.96490436E+01</totfact>
</mgrwt>
</event>
<event>
 4    1  0.2428650E-005  0.5098660E+03  0.7818608E-02  0.1011235E+00
          1   -1    0    0  501    0  0.00000000000E+00  0.00000000000E+00  0.54792831454E+03  0.54792831457E+03  0.50400000000E-02 0.  1.
         -1   -1    0    0    0  501 -0.00000000000E+00 -0.00000000000E+00 -0.11861192859E+03  0.11861192870E+03  0.50400000000E-02 0. -1.
    5000001    1    1    2    0    0  0.16437697710E+03 -0.41079849667E+02  0.33908049072E+03  0.41341011579E+03  0.16500000000E+03 0.  0.
   -5000001    1    1    2    0    0 -0.16437697710E+03  0.41079849667E+02  0.90235895236E+02  0.25313012748E+03  0.16500000000E+03 0.  0.
<mgrwt>
<rscale>  0 0.50986600E+03</rscale>
<asrwt>0</asrwt>
<pdfrwt beam="1">  1        1 0.78275473E-01 0.50986600E+03</pdfrwt>
<pdfrwt beam="2">  1       -1 0.16944561E-01 0.50986600E+03</pdfrwt>
<totfact> 0.11678288E+03</totfact>
</mgrwt>
</event>
<event>
 4    1  0.2428650E-005  0.3466514E+03  0.7818608E-02  0.1063998E+00
          1   -1    0    0  501    0  0.00000000000E+00  0.00000000000E+00  0.25444448432E+04  0.25444448432E+04  0.50400000000E-02 0.  1.
         -1   -1    0    0    0  501 -0.00000000000E+00 -0.00000000000E+00 -0.11806815798E+02  0.11806816873E+02  0.50400000000E-02 0. -1.
    5000001    1    1    2    0    0  0.35759607094E+02 -0.30550741954E+02  0.14476529539E+04  0.14577846796E+04  0.16500000000E+03 0.  0.
   -5000001    1    1    2    0    0 -0.35759607094E+02  0.30550741954E+02  0.10849850735E+04  0.10984669804E+04  0.16500000000E+03 0.  0.
<mgrwt>
<rscale>  0 0.34665137E+03</rscale>
<asrwt>0</asrwt>
<pdfrwt beam="1">  1        1 0.36349248E+00 0.34665137E+03</pdfrwt>
<pdfrwt beam="2">  1       -1 0.16866864E-02 0.34665137E+03</pdfrwt>
<totfact> 0.17114218E+03</totfact>
</mgrwt>
</event>
<event>
 4    1  0.2428650E-005  0.6780125E+03  0.7818608E-02  0.9755591E-01
         -1   -1    0    0    0  501 -0.00000000000E+00  0.00000000000E+00  0.13355183179E+03  0.13355183189E+03  0.50400000000E-02 0. -1.
          1   -1    0    0  501    0  0.00000000000E+00 -0.00000000000E+00 -0.86052904154E+03  0.86052904156E+03  0.50400000000E-02 0.  1.
    5000001    1    1    2    0    0 -0.25178722242E+03 -0.41590978741E+02 -0.58377343386E+03  0.65813603227E+03  0.16500000000E+03 0.  0.
   -5000001    1    1    2    0    0  0.25178722242E+03  0.41590978741E+02 -0.14320377589E+03  0.33594484118E+03  0.16500000000E+03 0.  0.
<mgrwt>
<rscale>  0 0.67801248E+03</rscale>
<asrwt>0</asrwt>
<pdfrwt beam="1">  1        1 0.12293272E+00 0.67801248E+03</pdfrwt>
<pdfrwt beam="2">  1       -1 0.19078834E-01 0.67801248E+03</pdfrwt>
<totfact> 0.49477996E+02</totfact>
</mgrwt>
</event>
<event>
 4    1  0.2428650E-005  0.1005630E+04  0.7818608E-02  0.9302391E-01
         -1   -1    0    0    0  501 -0.00000000000E+00  0.00000000000E+00  0.13771712032E+03  0.13771712041E+03  0.50400000000E-02 0.  1.
          1   -1    0    0  501    0  0.00000000000E+00 -0.00000000000E+00 -0.18358135100E+04  0.18358135100E+04  0.50400000000E-02 0. -1.
    5000001    1    1    2    0    0 -0.18293550638E+03  0.43665428279E+03 -0.92417788054E+03  0.10514095858E+04  0.16500000000E+03 0.  0.
   -5000001    1    1    2    0    0  0.18293550638E+03 -0.43665428279E+03 -0.77391850912E+03  0.92212104462E+03  0.16500000000E+03 0.  0.
<mgrwt>
<rscale>  0 0.10056301E+04</rscale>
<asrwt>0</asrwt>
<pdfrwt beam="1">  1        1 0.26225906E+00 0.10056301E+04</pdfrwt>
<pdfrwt beam="2">  1       -1 0.19673875E-01 0.10056301E+04</pdfrwt>
<totfact> 0.99823857E+01</totfact>
</mgrwt>
</event>
<event>
 4    1  0.2428650E-005  0.6143147E+03  0.7818608E-02  0.9876145E-01
         -1   -1    0    0    0  501 -0.00000000000E+00  0.00000000000E+00  0.22688126570E+03  0.22688126576E+03  0.50400000000E-02 0. -1.
          1   -1    0    0  501    0  0.00000000000E+00 -0.00000000000E+00 -0.41583708174E+03  0.41583708177E+03  0.50400000000E-02 0.  1.
    5000001    1    1    2    0    0 -0.21906877827E+03  0.99490253863E+02 -0.19499940162E+03  0.35091196454E+03  0.16500000000E+03 0.  0.
   -5000001    1    1    2    0    0  0.21906877827E+03 -0.99490253863E+02  0.60435855793E+01  0.29180638299E+03  0.16500000000E+03 0.  0.
<mgrwt>
<rscale>  0 0.61431472E+03</rscale>
<asrwt>0</asrwt>
<pdfrwt beam="1">  1        1 0.59405297E-01 0.61431472E+03</pdfrwt>
<pdfrwt beam="2">  1       -1 0.32411610E-01 0.61431472E+03</pdfrwt>
<totfact> 0.56462533E+02</totfact>
</mgrwt>
</event>
<event>
 4    1  0.2428650E-005  0.4057045E+03  0.7818608E-02  0.1041822E+00
         -1   -1    0    0    0  501 -0.00000000000E+00  0.00000000000E+00  0.38859010632E+02  0.38859010959E+02  0.50400000000E-02 0. -1.
          1   -1    0    0  501    0  0.00000000000E+00 -0.00000000000E+00 -0.10589313642E+04  0.10589313642E+04  0.50400000000E-02 0.  1.
    5000001    1    1    2    0    0  0.11113004958E+03  0.42922097495E+01 -0.40330910985E+03  0.44972385869E+03  0.16500000000E+03 0.  0.
   -5000001    1    1    2    0    0 -0.11113004958E+03 -0.42922097495E+01 -0.61676324367E+03  0.64806651644E+03  0.16500000000E+03 0.  0.
<mgrwt>
<rscale>  0 0.40570445E+03</rscale>
<asrwt>0</asrwt>
<pdfrwt beam="1">  1        1 0.15127589E+00 0.40570445E+03</pdfrwt>
<pdfrwt beam="2">  1       -1 0.55512879E-02 0.40570445E+03</pdfrwt>
<totfact> 0.24811488E+03</totfact>
</mgrwt>
</event>
<event>
 4    1  0.2428650E-005  0.4757326E+03  0.7818608E-02  0.1020315E+00
         -1   -1    0    0    0  501 -0.00000000000E+00  0.00000000000E+00  0.63108836525E+02  0.63108836727E+02  0.50400000000E-02 0. -1.
          1   -1    0    0  501    0  0.00000000000E+00 -0.00000000000E+00 -0.89655219348E+03  0.89655219350E+03  0.50400000000E-02 0.  1.
    5000001    1    1    2    0    0 -0.13990767402E+02 -0.14609950491E+03 -0.59504462242E+03  0.63469985787E+03  0.16500000000E+03 0.  0.
   -5000001    1    1    2    0    0  0.13990767402E+02  0.14609950491E+03 -0.23839873453E+03  0.32496117235E+03  0.16500000000E+03 0.  0.
<mgrwt>
<rscale>  0 0.47573255E+03</rscale>
<asrwt>0</asrwt>
<pdfrwt beam="1">  1        1 0.12807888E+00 0.47573255E+03</pdfrwt>
<pdfrwt beam="2">  1       -1 0.90155487E-02 0.47573255E+03</pdfrwt>
<totfact> 0.15508545E+03</totfact>
</mgrwt>
</event>
<event>
 4    1  0.2428650E-005  0.4040405E+03  0.7818608E-02  0.1042390E+00
         -1   -1    0    0    0  501 -0.00000000000E+00  0.00000000000E+00  0.60774367526E+02  0.60774367735E+02  0.50400000000E-02 0. -1.
          1   -1    0    0  501    0  0.00000000000E+00 -0.00000000000E+00 -0.67153605015E+03  0.67153605017E+03  0.50400000000E-02 0.  1.
    5000001    1    1    2    0    0  0.43888127425E+02 -0.97342770568E+02 -0.39011049036E+03  0.43682144796E+03  0.16500000000E+03 0.  0.
   -5000001    1    1    2    0    0 -0.43888127425E+02  0.97342770568E+02 -0.22065119227E+03  0.29548896995E+03  0.16500000000E+03 0.  0.
<mgrwt>
<rscale>  0 0.40404049E+03</rscale>
<asrwt>0</asrwt>
<pdfrwt beam="1">  1        1 0.95933717E-01 0.40404049E+03</pdfrwt>
<pdfrwt beam="2">  1       -1 0.86820529E-02 0.40404049E+03</pdfrwt>
<totfact> 0.25401182E+03</totfact>
</mgrwt>
</event>
<event>
 4    1  0.2428650E-005  0.4283974E+03  0.7818608E-02  0.1034367E+00
         -1   -1    0    0    0  501 -0.00000000000E+00  0.00000000000E+00  0.29118757432E+03  0.29118757437E+03  0.50400000000E-02 0.  1.
          1   -1    0    0  501    0  0.00000000000E+00 -0.00000000000E+00 -0.15756541006E+03  0.15756541015E+03  0.50400000000E-02 0. -1.
    5000001    1    1    2    0    0 -0.12799733332E+03  0.42802172118E+02  0.88802581159E+02  0.23092475332E+03  0.16500000000E+03 0.  0.
   -5000001    1    1    2    0    0  0.12799733332E+03 -0.42802172118E+02  0.44819583101E+02  0.21782823119E+03  0.16500000000E+03 0.  0.
<mgrwt>
<rscale>  0 0.42839743E+03</rscale>
<asrwt>0</asrwt>
<pdfrwt beam="1">  1        1 0.22509344E-01 0.42839743E+03</pdfrwt>
<pdfrwt beam="2">  1       -1 0.41598225E-01 0.42839743E+03</pdfrwt>
<totfact> 0.12675401E+03</totfact>
</mgrwt>
</event>
<event>
 4    1  0.2428650E-005  0.7001329E+03  0.7818608E-02  0.9717005E-01
          1   -1    0    0  501    0  0.00000000000E+00  0.00000000000E+00  0.54301762440E+03  0.54301762443E+03  0.50400000000E-02 0.  1.
         -1   -1    0    0    0  501 -0.00000000000E+00 -0.00000000000E+00 -0.22567689271E+03  0.22567689276E+03  0.50400000000E-02 0. -1.
    5000001    1    1    2    0    0  0.18903182206E+03  0.18079532271E+03 -0.21408167135E+02  0.31000530332E+03  0.16500000000E+03 0.  0.
   -5000001    1    1    2    0    0 -0.18903182206E+03 -0.18079532271E+03  0.33874889883E+03  0.45868921387E+03  0.16500000000E+03 0.  0.
<mgrwt>
<rscale>  0 0.70013293E+03</rscale>
<asrwt>0</asrwt>
<pdfrwt beam="1">  1        1 0.77573944E-01 0.70013293E+03</pdfrwt>
<pdfrwt beam="2">  1       -1 0.32239557E-01 0.70013293E+03</pdfrwt>
<totfact> 0.39750978E+02</totfact>
</mgrwt>
</event>
<event>
 4    1  0.2428650E-005  0.5480640E+03  0.7818608E-02  0.1001943E+00
          1   -1    0    0  501    0  0.00000000000E+00  0.00000000000E+00  0.61203051864E+03  0.61203051866E+03  0.50400000000E-02 0.  1.
         -1   -1    0    0    0  501 -0.00000000000E+00 -0.00000000000E+00 -0.12269574383E+03  0.12269574393E+03  0.50400000000E-02 0. -1.
    5000001    1    1    2    0    0 -0.28857617267E+02  0.19396416951E+03  0.11459833859E+03  0.28073589071E+03  0.16500000000E+03 0.  0.
   -5000001    1    1    2    0    0  0.28857617267E+02 -0.19396416951E+03  0.37473643622E+03  0.45399037188E+03  0.16500000000E+03 0.  0.
<mgrwt>
<rscale>  0 0.54806401E+03</rscale>
<asrwt>0</asrwt>
<pdfrwt beam="1">  1        1 0.87432933E-01 0.54806401E+03</pdfrwt>
<pdfrwt beam="2">  1       -1 0.17527963E-01 0.54806401E+03</pdfrwt>
<totfact> 0.94781148E+02</totfact>
</mgrwt>
</event>
<event>
 4    1  0.2428650E-005  0.3690507E+03  0.7818608E-02  0.1055057E+00
         -1   -1    0    0    0  501 -0.00000000000E+00  0.00000000000E+00  0.41107835245E+03  0.41107835248E+03  0.50400000000E-02 0. -1.
          1   -1    0    0  501    0  0.00000000000E+00 -0.00000000000E+00 -0.82829969392E+02  0.82829969545E+02  0.50400000000E-02 0.  1.
    5000001    1    1    2    0    0  0.48873257200E+02  0.66601005175E+02  0.16336921149E+03  0.24645240600E+03  0.16500000000E+03 0.  0.
   -5000001    1    1    2    0    0 -0.48873257200E+02 -0.66601005175E+02  0.16487917156E+03  0.24745591602E+03  0.16500000000E+03 0.  0.
<mgrwt>
<rscale>  0 0.36905071E+03</rscale>
<asrwt>0</asrwt>
<pdfrwt beam="1">  1        1 0.11832853E-01 0.36905071E+03</pdfrwt>
<pdfrwt beam="2">  1       -1 0.58725477E-01 0.36905071E+03</pdfrwt>
<totfact> 0.15560313E+03</totfact>
</mgrwt>
</event>
<event>
 4    1  0.2428650E-005  0.5649824E+03  0.7818608E-02  0.9980844E-01
          1   -1    0    0  501    0  0.00000000000E+00  0.00000000000E+00  0.68208379132E+03  0.68208379134E+03  0.50400000000E-02 0.  1.
         -1   -1    0    0    0  501 -0.00000000000E+00 -0.00000000000E+00 -0.11699630674E+03  0.11699630685E+03  0.50400000000E-02 0. -1.
    5000001    1    1    2    0    0  0.71454108537E+02  0.12783613363E+03  0.33006943794E+02  0.22307448314E+03  0.16500000000E+03 0.  0.
   -5000001    1    1    2    0    0 -0.71454108537E+02 -0.12783613363E+03  0.53208054079E+03  0.57600561505E+03  0.16500000000E+03 0.  0.
<mgrwt>
<rscale>  0 0.56498242E+03</rscale>
<asrwt>0</asrwt>
<pdfrwt beam="1">  1        1 0.97440539E-01 0.56498242E+03</pdfrwt>
<pdfrwt beam="2">  1       -1 0.16713759E-01 0.56498242E+03</pdfrwt>
<totfact> 0.87746439E+02</totfact>
</mgrwt>
</event>
<event>
 4    1  0.2428650E-005  0.6839149E+03  0.7818608E-02  0.9745142E-01
         -1   -1    0    0    0  501 -0.00000000000E+00  0.00000000000E+00  0.16162897474E+03  0.16162897482E+03  0.50400000000E-02 0.  1.
          1   -1    0    0  501    0  0.00000000000E+00 -0.00000000000E+00 -0.72347725311E+03  0.72347725313E+03  0.50400000000E-02 0. -1.
    5000001    1    1    2    0    0 -0.24346042100E+03 -0.64233297847E+02 -0.49084808239E+03  0.57580876438E+03  0.16500000000E+03 0.  0.
   -5000001    1    1    2    0    0  0.24346042100E+03  0.64233297847E+02 -0.71000195979E+02  0.30929746358E+03  0.16500000000E+03 0.  0.
<mgrwt>
<rscale>  0 0.68391487E+03</rscale>
<asrwt>0</asrwt>
<pdfrwt beam="1">  1        1 0.10335389E+00 0.68391487E+03</pdfrwt>
<pdfrwt beam="2">  1       -1 0.23089854E-01 0.68391487E+03</pdfrwt>
<totfact> 0.46930664E+02</totfact>
</mgrwt>
</event>
<event>
 4    1  0.2428650E-005  0.4425230E+03  0.7818608E-02  0.1029976E+00
         -1   -1    0    0    0  501 -0.00000000000E+00  0.00000000000E+00  0.62599705606E+03  0.62599705608E+03  0.50400000000E-02 0.  1.
          1   -1    0    0  501    0  0.00000000000E+00 -0.00000000000E+00 -0.78205882015E+02  0.78205882177E+02  0.50400000000E-02 0. -1.
    5000001    1    1    2    0    0 -0.11405598586E+02 -0.14650966539E+03  0.25530470252E+03  0.33763983897E+03  0.16500000000E+03 0.  0.
   -5000001    1    1    2    0    0  0.11405598586E+02  0.14650966539E+03  0.29248647153E+03  0.36656309929E+03  0.16500000000E+03 0.  0.
<mgrwt>
<rscale>  0 0.44252300E+03</rscale>
<asrwt>0</asrwt>
<pdfrwt beam="1">  1        1 0.11172269E-01 0.44252300E+03</pdfrwt>
<pdfrwt beam="2">  1       -1 0.89428147E-01 0.44252300E+03</pdfrwt>
<totfact> 0.71305256E+02</totfact>
</mgrwt>
</event>
<event>
 4    1  0.2428650E-005  0.4451699E+03  0.7818608E-02  0.1029172E+00
          1   -1    0    0  501    0  0.00000000000E+00  0.00000000000E+00  0.27807598627E+03  0.27807598631E+03  0.50400000000E-02 0. -1.
         -1   -1    0    0    0  501 -0.00000000000E+00 -0.00000000000E+00 -0.17816736088E+03  0.17816736095E+03  0.50400000000E-02 0.  1.
    5000001    1    1    2    0    0  0.11484762061E+03 -0.37469037280E+02  0.14003350251E+03  0.24784730489E+03  0.16500000000E+03 0.  0.
   -5000001    1    1    2    0    0 -0.11484762061E+03  0.37469037280E+02 -0.40124877122E+02  0.20839604238E+03  0.16500000000E+03 0.  0.
<mgrwt>
<rscale>  0 0.44516992E+03</rscale>
<asrwt>0</asrwt>
<pdfrwt beam="1">  1        1 0.39725141E-01 0.44516992E+03</pdfrwt>
<pdfrwt beam="2">  1       -1 0.25452480E-01 0.44516992E+03</pdfrwt>
<totfact> 0.14403933E+03</totfact>
</mgrwt>
</event>
<event>
 4    1  0.2428650E-005  0.3815917E+03  0.7818608E-02  0.1050347E+00
          1   -1    0    0  501    0  0.00000000000E+00  0.00000000000E+00  0.76526105880E+03  0.76526105882E+03  0.50400000000E-02 0.  1.
         -1   -1    0    0    0  501 -0.00000000000E+00 -0.00000000000E+00 -0.47569460196E+02  0.47569460463E+02  0.50400000000E-02 0. -1.
    5000001    1    1    2    0    0 -0.61223719484E+02 -0.70381907076E+02  0.31236755816E+03  0.36537713128E+03  0.16500000000E+03 0.  0.
   -5000001    1    1    2    0    0  0.61223719484E+02  0.70381907076E+02  0.40532404044E+03  0.44745338800E+03  0.16500000000E+03 0.  0.
<mgrwt>
<rscale>  0 0.38159170E+03</rscale>
<asrwt>0</asrwt>
<pdfrwt beam="1">  1        1 0.10932301E+00 0.38159170E+03</pdfrwt>
<pdfrwt beam="2">  1       -1 0.67956373E-02 0.38159170E+03</pdfrwt>
<totfact> 0.30613651E+03</totfact>
</mgrwt>
</event>
<event>
 4    1  0.2428650E-005  0.5036117E+03  0.7818608E-02  0.1012840E+00
          1   -1    0    0  501    0  0.00000000000E+00  0.00000000000E+00  0.21303190777E+04  0.21303190777E+04  0.50400000000E-02 0.  1.
         -1   -1    0    0    0  501 -0.00000000000E+00 -0.00000000000E+00 -0.29763708450E+02  0.29763708876E+02  0.50400000000E-02 0. -1.
    5000001    1    1    2    0    0 -0.12041816428E+03  0.14171946709E+03  0.87891129295E+03  0.91339750520E+03  0.16500000000E+03 0.  0.
   -5000001    1    1    2    0    0  0.12041816428E+03 -0.14171946709E+03  0.12216440763E+04  0.12466852814E+04  0.16500000000E+03 0.  0.
<mgrwt>
<rscale>  0 0.50361174E+03</rscale>
<asrwt>0</asrwt>
<pdfrwt beam="1">  1        1 0.30433139E+00 0.50361174E+03</pdfrwt>
<pdfrwt beam="2">  1       -1 0.42519571E-02 0.50361174E+03</pdfrwt>
<totfact> 0.76643126E+02</totfact>
</mgrwt>
</event>
<event>
 4    1  0.2428650E-005  0.8002169E+03  0.7818608E-02  0.9559703E-01
         -1   -1    0    0    0  501 -0.00000000000E+00  0.00000000000E+00  0.35737450672E+03  0.35737450675E+03  0.50400000000E-02 0. -1.
          1   -1    0    0  501    0  0.00000000000E+00 -0.00000000000E+00 -0.44795245807E+03  0.44795245810E+03  0.50400000000E-02 0.  1.
    5000001    1    1    2    0    0  0.15604685687E+02  0.36318218678E+03 -0.72236480009E+02  0.40569436286E+03  0.16500000000E+03 0.  0.
   -5000001    1    1    2    0    0 -0.15604685687E+02 -0.36318218678E+03 -0.18341471343E+02  0.39963260200E+03  0.16500000000E+03 0.  0.
<mgrwt>
<rscale>  0 0.80021694E+03</rscale>
<asrwt>0</asrwt>
<pdfrwt beam="1">  1        1 0.63993208E-01 0.80021694E+03</pdfrwt>
<pdfrwt beam="2">  1       -1 0.51053501E-01 0.80021694E+03</pdfrwt>
<totfact> 0.22194001E+02</totfact>
</mgrwt>
</event>
<event>
 4    1  0.2428650E-005  0.3661847E+03  0.7818608E-02  0.1056161E+00
         -1   -1    0    0    0  501 -0.00000000000E+00  0.00000000000E+00  0.88137884216E+02  0.88137884360E+02  0.50400000000E-02 0.  1.
          1   -1    0    0  501    0  0.00000000000E+00 -0.00000000000E+00 -0.38034499615E+03  0.38034499618E+03  0.50400000000E-02 0. -1.
    5000001    1    1    2    0    0  0.59903876851E+01  0.67220501197E+02 -0.19952092134E+03  0.26755948605E+03  0.16500000000E+03 0.  0.
   -5000001    1    1    2    0    0 -0.59903876851E+01 -0.67220501197E+02 -0.92686190596E+02  0.20092339449E+03  0.16500000000E+03 0.  0.
<mgrwt>
<rscale>  0 0.36618467E+03</rscale>
<asrwt>0</asrwt>
<pdfrwt beam="1">  1        1 0.54334999E-01 0.36618467E+03</pdfrwt>
<pdfrwt beam="2">  1       -1 0.12591127E-01 0.36618467E+03</pdfrwt>
<totfact> 0.30334204E+03</totfact>
</mgrwt>
</event>
<event>
 4    1  0.2428650E-005  0.3596348E+03  0.7818608E-02  0.1058729E+00
          1   -1    0    0  501    0  0.00000000000E+00  0.00000000000E+00  0.56973103396E+02  0.56973103619E+02  0.50400000000E-02 0.  1.
         -1   -1    0    0    0  501 -0.00000000000E+00 -0.00000000000E+00 -0.56753621484E+03  0.56753621487E+03  0.50400000000E-02 0. -1.
    5000001    1    1    2    0    0 -0.16807590970E+02  0.67505064033E+02 -0.22675462154E+03  0.28893266893E+03  0.16500000000E+03 0.  0.
   -5000001    1    1    2    0    0  0.16807590970E+02 -0.67505064033E+02 -0.28380848991E+03  0.33557664956E+03  0.16500000000E+03 0.  0.
<mgrwt>
<rscale>  0 0.35963481E+03</rscale>
<asrwt>0</asrwt>
<pdfrwt beam="1">  1        1 0.81390151E-02 0.35963481E+03</pdfrwt>
<pdfrwt beam="2">  1       -1 0.81076599E-01 0.35963481E+03</pdfrwt>
<totfact> 0.13527308E+03</totfact>
</mgrwt>
</event>
<event>
 4    1  0.2428650E-005  0.6244508E+03  0.7818608E-02  0.9855938E-01
         -1   -1    0    0    0  501 -0.00000000000E+00  0.00000000000E+00  0.68426329204E+02  0.68426329389E+02  0.50400000000E-02 0. -1.
          1   -1    0    0  501    0  0.00000000000E+00 -0.00000000000E+00 -0.14246665641E+04  0.14246665642E+04  0.50400000000E-02 0.  1.
    5000001    1    1    2    0    0  0.20492453951E+03  0.16721454913E+03 -0.71987328991E+03  0.78447264188E+03  0.16500000000E+03 0.  0.
   -5000001    1    1    2    0    0 -0.20492453951E+03 -0.16721454913E+03 -0.63636694504E+03  0.70862025167E+03  0.16500000000E+03 0.  0.
<mgrwt>
<rscale>  0 0.62445081E+03</rscale>
<asrwt>0</asrwt>
<pdfrwt beam="1">  1        1 0.20352378E+00 0.62445081E+03</pdfrwt>
<pdfrwt beam="2">  1       -1 0.97751908E-02 0.62445081E+03</pdfrwt>
<totfact> 0.58127953E+02</totfact>
</mgrwt>
</event>
<event>
 4    1  0.2428650E-005  0.4872435E+03  0.7818608E-02  0.1017163E+00
         -1   -1    0    0    0  501 -0.00000000000E+00  0.00000000000E+00  0.82490194668E+02  0.82490194822E+02  0.50400000000E-02 0. -1.
          1   -1    0    0  501    0  0.00000000000E+00 -0.00000000000E+00 -0.71949819128E+03  0.71949819130E+03  0.50400000000E-02 0.  1.
    5000001    1    1    2    0    0  0.10857741051E+03 -0.85300434635E+02 -0.13039233274E+03  0.25157976600E+03  0.16500000000E+03 0.  0.
   -5000001    1    1    2    0    0 -0.10857741051E+03  0.85300434635E+02 -0.50661566387E+03  0.55040862012E+03  0.16500000000E+03 0.  0.
<mgrwt>
<rscale>  0 0.48724345E+03</rscale>
<asrwt>0</asrwt>
<pdfrwt beam="1">  1        1 0.10278545E+00 0.48724345E+03</pdfrwt>
<pdfrwt beam="2">  1       -1 0.11784314E-01 0.48724345E+03</pdfrwt>
<totfact> 0.14249372E+03</totfact>
</mgrwt>
</event>
<event>
 4    1  0.2428650E-005  0.4207158E+03  0.7818608E-02  0.1036834E+00
          1   -1    0    0  501    0  0.00000000000E+00  0.00000000000E+00  0.11504168077E+04  0.11504168077E+04  0.50400000000E-02 0.  1.
         -1   -1    0    0    0  501 -0.00000000000E+00 -0.00000000000E+00 -0.38464709233E+02  0.38464709563E+02  0.50400000000E-02 0. -1.
    5000001    1    1    2    0    0 -0.10094503245E+03  0.68186365036E+02  0.68810303716E+03  0.71801815416E+03  0.16500000000E+03 0.  0.
   -5000001    1    1    2    0    0  0.10094503245E+03 -0.68186365036E+02  0.42384906132E+03  0.47086336313E+03  0.16500000000E+03 0.  0.
<mgrwt>
<rscale>  0 0.42071581E+03</rscale>
<asrwt>0</asrwt>
<pdfrwt beam="1">  1        1 0.16434523E+00 0.42071581E+03</pdfrwt>
<pdfrwt beam="2">  1       -1 0.54949595E-02 0.42071581E+03</pdfrwt>
<totfact> 0.21749886E+03</totfact>
</mgrwt>
</event>
<event>
 4    1  0.2428650E-005  0.4326528E+03  0.7818608E-02  0.1033025E+00
          1   -1    0    0  501    0  0.00000000000E+00  0.00000000000E+00  0.44015740393E+03  0.44015740395E+03  0.50400000000E-02 0.  1.
         -1   -1    0    0    0  501 -0.00000000000E+00 -0.00000000000E+00 -0.10631901243E+03  0.10631901255E+03  0.50400000000E-02 0. -1.
    5000001    1    1    2    0    0  0.13309054071E+03  0.23850314496E+02  0.12155057298E+03  0.24552285295E+03  0.16500000000E+03 0.  0.
   -5000001    1    1    2    0    0 -0.13309054071E+03 -0.23850314496E+02  0.21228781851E+03  0.30095356356E+03  0.16500000000E+03 0.  0.
<mgrwt>
<rscale>  0 0.43265275E+03</rscale>
<asrwt>0</asrwt>
<pdfrwt beam="1">  1        1 0.62879629E-01 0.43265275E+03</pdfrwt>
<pdfrwt beam="2">  1       -1 0.15188430E-01 0.43265275E+03</pdfrwt>
<totfact> 0.18662226E+03</totfact>
</mgrwt>
</event>
<event>
 4    1  0.2428650E-005  0.6907127E+03  0.7818608E-02  0.9733248E-01
          1   -1    0    0  501    0  0.00000000000E+00  0.00000000000E+00  0.47254519594E+03  0.47254519597E+03  0.50400000000E-02 0.  1.
         -1   -1    0    0    0  501 -0.00000000000E+00 -0.00000000000E+00 -0.25240124470E+03  0.25240124475E+03  0.50400000000E-02 0. -1.
    5000001    1    1    2    0    0 -0.23249081659E+03 -0.19279911794E+03  0.79970992741E+02  0.35333247708E+03  0.16500000000E+03 0.  0.
   -5000001    1    1    2    0    0  0.23249081659E+03  0.19279911794E+03  0.14017295850E+03  0.37161396364E+03  0.16500000000E+03 0.  0.
<mgrwt>
<rscale>  0 0.69071266E+03</rscale>
<asrwt>0</asrwt>
<pdfrwt beam="1">  1        1 0.67506457E-01 0.69071266E+03</pdfrwt>
<pdfrwt beam="2">  1       -1 0.36057321E-01 0.69071266E+03</pdfrwt>
<totfact> 0.39376835E+02</totfact>
</mgrwt>
</event>
<event>
 4    1  0.2428650E-005  0.3920731E+03  0.7818608E-02  0.1046560E+00
          1   -1    0    0  501    0  0.00000000000E+00  0.00000000000E+00  0.12723730327E+04  0.12723730327E+04  0.50400000000E-02 0.  1.
         -1   -1    0    0    0  501 -0.00000000000E+00 -0.00000000000E+00 -0.30203661051E+02  0.30203661471E+02  0.50400000000E-02 0. -1.
    5000001    1    1    2    0    0 -0.38626174033E+02 -0.91627915819E+02  0.74168244915E+03  0.76629335874E+03  0.16500000000E+03 0.  0.
   -5000001    1    1    2    0    0  0.38626174033E+02  0.91627915819E+02  0.50048692253E+03  0.53628333547E+03  0.16500000000E+03 0.  0.
<mgrwt>
<rscale>  0 0.39207308E+03</rscale>
<asrwt>0</asrwt>
<pdfrwt beam="1">  1        1 0.18176757E+00 0.39207308E+03</pdfrwt>
<pdfrwt beam="2">  1       -1 0.43148088E-02 0.39207308E+03</pdfrwt>
<totfact> 0.25958284E+03</totfact>
</mgrwt>
</event>
<event>
 4    1  0.2428650E-005  0.7335631E+03  0.7818608E-02  0.9661496E-01
         -1   -1    0    0    0  501 -0.00000000000E+00  0.00000000000E+00  0.60795796932E+02  0.60795797141E+02  0.50400000000E-02 0. -1.
          1   -1    0    0  501    0  0.00000000000E+00 -0.00000000000E+00 -0.22127960230E+04  0.22127960230E+04  0.50400000000E-02 0.  1.
    5000001    1    1    2    0    0  0.12386654903E+03  0.21966563192E+03 -0.42803080178E+03  0.52347997009E+03  0.16500000000E+03 0.  0.
   -5000001    1    1    2    0    0 -0.12386654903E+03 -0.21966563192E+03 -0.17239694243E+04  0.17501118500E+04  0.16500000000E+03 0.  0.
<mgrwt>
<rscale>  0 0.73356308E+03</rscale>
<asrwt>0</asrwt>
<pdfrwt beam="1">  1        1 0.31611367E+00 0.73356308E+03</pdfrwt>
<pdfrwt beam="2">  1       -1 0.86851152E-02 0.73356308E+03</pdfrwt>
<totfact> 0.22254494E+02</totfact>
</mgrwt>
</event>
<event>
 4    1  0.2428650E-005  0.4647884E+03  0.7818608E-02  0.1023402E+00
         -1   -1    0    0    0  501 -0.00000000000E+00  0.00000000000E+00  0.21017189683E+02  0.21017190287E+02  0.50400000000E-02 0.  1.
          1   -1    0    0  501    0  0.00000000000E+00 -0.00000000000E+00 -0.25696610577E+04  0.25696610577E+04  0.50400000000E-02 0. -1.
    5000001    1    1    2    0    0 -0.11208832873E+03 -0.11213110665E+03 -0.15003825141E+04  0.15177318166E+04  0.16500000000E+03 0.  0.
   -5000001    1    1    2    0    0  0.11208832873E+03  0.11213110665E+03 -0.10482613540E+04  0.10729464314E+04  0.16500000000E+03 0.  0.
<mgrwt>
<rscale>  0 0.46478836E+03</rscale>
<asrwt>0</asrwt>
<pdfrwt beam="1">  1        1 0.36709424E+00 0.46478836E+03</pdfrwt>
<pdfrwt beam="2">  1       -1 0.30024573E-02 0.46478836E+03</pdfrwt>
<totfact> 0.69584851E+02</totfact>
</mgrwt>
</event>
<event>
 4    1  0.2428650E-005  0.5184881E+03  0.7818608E-02  0.1009063E+00
         -1   -1    0    0    0  501 -0.00000000000E+00  0.00000000000E+00  0.48213875258E+02  0.48213875521E+02  0.50400000000E-02 0.  1.
          1   -1    0    0  501    0  0.00000000000E+00 -0.00000000000E+00 -0.13939448528E+04  0.13939448528E+04  0.50400000000E-02 0. -1.
    5000001    1    1    2    0    0 -0.44888872511E+02 -0.17820287846E+03 -0.45365454060E+03  0.51652562276E+03  0.16500000000E+03 0.  0.
   -5000001    1    1    2    0    0  0.44888872511E+02  0.17820287846E+03 -0.89207643694E+03  0.92563310556E+03  0.16500000000E+03 0.  0.
<mgrwt>
<rscale>  0 0.51848812E+03</rscale>
<asrwt>0</asrwt>
<pdfrwt beam="1">  1        1 0.19913495E+00 0.51848812E+03</pdfrwt>
<pdfrwt beam="2">  1       -1 0.68876974E-02 0.51848812E+03</pdfrwt>
<totfact> 0.10559735E+03</totfact>
</mgrwt>
</event>
<event>
 4    1  0.2428650E-005  0.4177929E+03  0.7818608E-02  0.1037787E+00
          1   -1    0    0  501    0  0.00000000000E+00  0.00000000000E+00  0.32457390290E+03  0.32457390294E+03  0.50400000000E-02 0. -1.
         -1   -1    0    0    0  501 -0.00000000000E+00 -0.00000000000E+00 -0.13444618151E+03  0.13444618161E+03  0.50400000000E-02 0.  1.
    5000001    1    1    2    0    0  0.62011782843E+02  0.10983834191E+03  0.11969973632E+03  0.23971430796E+03  0.16500000000E+03 0.  0.
   -5000001    1    1    2    0    0 -0.62011782843E+02 -0.10983834191E+03  0.70427985068E+02  0.21930577659E+03  0.16500000000E+03 0.  0.
<mgrwt>
<rscale>  0 0.41779288E+03</rscale>
<asrwt>0</asrwt>
<pdfrwt beam="1">  1        1 0.46367700E-01 0.41779288E+03</pdfrwt>
<pdfrwt beam="2">  1       -1 0.19206598E-01 0.41779288E+03</pdfrwt>
<totfact> 0.18879119E+03</totfact>
</mgrwt>
</event>
<event>
 4    1  0.2428650E-005  0.3977631E+03  0.7818608E-02  0.1044557E+00
         -1   -1    0    0    0  501 -0.00000000000E+00  0.00000000000E+00  0.15101044224E+03  0.15101044232E+03  0.50400000000E-02 0.  1.
          1   -1    0    0  501    0  0.00000000000E+00 -0.00000000000E+00 -0.26192809155E+03  0.26192809160E+03  0.50400000000E-02 0. -1.
    5000001    1    1    2    0    0 -0.64535222368E+02 -0.85480887277E+02 -0.85852038244E+02  0.21463305777E+03  0.16500000000E+03 0.  0.
   -5000001    1    1    2    0    0  0.64535222368E+02  0.85480887277E+02 -0.25065611074E+02  0.19830547616E+03  0.16500000000E+03 0.  0.
<mgrwt>
<rscale>  0 0.39776313E+03</rscale>
<asrwt>0</asrwt>
<pdfrwt beam="1">  1        1 0.37418299E-01 0.39776313E+03</pdfrwt>
<pdfrwt beam="2">  1       -1 0.21572920E-01 0.39776313E+03</pdfrwt>
<totfact> 0.20472688E+03</totfact>
</mgrwt>
</event>
<event>
 4    1  0.2428650E-005  0.4484842E+03  0.7818608E-02  0.1028175E+00
         -1   -1    0    0    0  501 -0.00000000000E+00  0.00000000000E+00  0.14782308717E+02  0.14782309576E+02  0.50400000000E-02 0.  1.
          1   -1    0    0  501    0  0.00000000000E+00 -0.00000000000E+00 -0.34016691300E+04  0.34016691300E+04  0.50400000000E-02 0. -1.
    5000001    1    1    2    0    0  0.10896480813E+03 -0.11430429554E+02 -0.89247004823E+03  0.91418366378E+03  0.16500000000E+03 0.  0.
   -5000001    1    1    2    0    0 -0.10896480813E+03  0.11430429554E+02 -0.24944167730E+04  0.25022677758E+04  0.16500000000E+03 0.  0.
<mgrwt>
<rscale>  0 0.44848422E+03</rscale>
<asrwt>0</asrwt>
<pdfrwt beam="1">  1        1 0.48595223E+00 0.44848422E+03</pdfrwt>
<pdfrwt beam="2">  1       -1 0.21117606E-02 0.44848422E+03</pdfrwt>
<totfact> 0.34341075E+02</totfact>
</mgrwt>
</event>
<event>
 4    1  0.2428650E-005  0.5986063E+03  0.7818608E-02  0.9908302E-01
          1   -1    0    0  501    0  0.00000000000E+00  0.00000000000E+00  0.72015582182E+03  0.72015582184E+03  0.50400000000E-02 0.  1.
         -1   -1    0    0    0  501 -0.00000000000E+00 -0.00000000000E+00 -0.12439305395E+03  0.12439305405E+03  0.50400000000E-02 0. -1.
    5000001    1    1    2    0    0  0.93869746473E+02 -0.18396780345E+03  0.49591336889E+03  0.56197041867E+03  0.16500000000E+03 0.  0.
   -5000001    1    1    2    0    0 -0.93869746473E+02  0.18396780345E+03  0.99849398984E+02  0.28257845722E+03  0.16500000000E+03 0.  0.
<mgrwt>
<rscale>  0 0.59860632E+03</rscale>
<asrwt>0</asrwt>
<pdfrwt beam="1">  1        1 0.10287941E+00 0.59860632E+03</pdfrwt>
<pdfrwt beam="2">  1       -1 0.17770436E-01 0.59860632E+03</pdfrwt>
<totfact> 0.73250042E+02</totfact>
</mgrwt>
</event>
<event>
 4    1  0.2428650E-005  0.4636362E+03  0.7818608E-02  0.1023732E+00
         -1   -1    0    0    0  501 -0.00000000000E+00  0.00000000000E+00  0.57553723916E+02  0.57553724137E+02  0.50400000000E-02 0.  1.
          1   -1    0    0  501    0  0.00000000000E+00 -0.00000000000E+00 -0.93372969208E+03  0.93372969210E+03  0.50400000000E-02 0. -1.
    5000001    1    1    2    0    0 -0.11906968623E+03  0.10840782303E+03 -0.38638509012E+03  0.44994253426E+03  0.16500000000E+03 0.  0.
   -5000001    1    1    2    0    0  0.11906968623E+03 -0.10840782303E+03 -0.48979087805E+03  0.54134088197E+03  0.16500000000E+03 0.  0.
<mgrwt>
<rscale>  0 0.46363615E+03</rscale>
<asrwt>0</asrwt>
<pdfrwt beam="1">  1        1 0.13338995E+00 0.46363615E+03</pdfrwt>
<pdfrwt beam="2">  1       -1 0.82219612E-02 0.46363615E+03</pdfrwt>
<totfact> 0.16764160E+03</totfact>
</mgrwt>
</event>
<event>
 4    1  0.2428650E-005  0.1003381E+04  0.7818608E-02  0.9304844E-01
          1   -1    0    0  501    0  0.00000000000E+00  0.00000000000E+00  0.14442667832E+04  0.14442667832E+04  0.50400000000E-02 0.  1.
         -1   -1    0    0    0  501 -0.00000000000E+00 -0.00000000000E+00 -0.17427063878E+03  0.17427063885E+03  0.50400000000E-02 0. -1.
    5000001    1    1    2    0    0 -0.44226401200E+03  0.16990504592E+03  0.63215154168E+03  0.80703516192E+03  0.16500000000E+03 0.  0.
   -5000001    1    1    2    0    0  0.44226401200E+03 -0.16990504592E+03  0.63784460271E+03  0.81150226010E+03  0.16500000000E+03 0.  0.
<mgrwt>
<rscale>  0 0.10033809E+04</rscale>
<asrwt>0</asrwt>
<pdfrwt beam="1">  1        1 0.20632382E+00 0.10033809E+04</pdfrwt>
<pdfrwt beam="2">  1       -1 0.24895806E-01 0.10033809E+04</pdfrwt>
<totfact> 0.11941266E+02</totfact>
</mgrwt>
</event>
<event>
 4    1  0.2428650E-005  0.4992083E+03  0.7818608E-02  0.1013986E+00
          1   -1    0    0  501    0  0.00000000000E+00  0.00000000000E+00  0.10711587345E+04  0.10711587345E+04  0.50400000000E-02 0.  1.
         -1   -1    0    0    0  501 -0.00000000000E+00 -0.00000000000E+00 -0.58163397613E+02  0.58163397831E+02  0.50400000000E-02 0. -1.
    5000001    1    1    2    0    0  0.17873427104E+03 -0.12155376892E+02  0.63006449092E+03  0.67549978205E+03  0.16500000000E+03 0.  0.
   -5000001    1    1    2    0    0 -0.17873427104E+03  0.12155376892E+02  0.38293084597E+03  0.45382235030E+03  0.16500000000E+03 0.  0.
<mgrwt>
<rscale>  0 0.49920830E+03</rscale>
<asrwt>0</asrwt>
<pdfrwt beam="1">  1        1 0.15302267E+00 0.49920830E+03</pdfrwt>
<pdfrwt beam="2">  1       -1 0.83090570E-02 0.49920830E+03</pdfrwt>
<totfact> 0.13067081E+03</totfact>
</mgrwt>
</event>
<event>
 4    1  0.2428650E-005  0.7480596E+03  0.7818608E-02  0.9638399E-01
          1   -1    0    0  501    0  0.00000000000E+00  0.00000000000E+00  0.15608393180E+03  0.15608393188E+03  0.50400000000E-02 0.  1.
         -1   -1    0    0    0  501 -0.00000000000E+00 -0.00000000000E+00 -0.89630173293E+03  0.89630173294E+03  0.50400000000E-02 0. -1.
    5000001    1    1    2    0    0 -0.84297092328E+02  0.31041536210E+03 -0.50511678690E+03  0.62115349569E+03  0.16500000000E+03 0.  0.
   -5000001    1    1    2    0    0  0.84297092328E+02 -0.31041536210E+03 -0.23510101423E+03  0.43123216913E+03  0.16500000000E+03 0.  0.
<mgrwt>
<rscale>  0 0.74805962E+03</rscale>
<asrwt>0</asrwt>
<pdfrwt beam="1">  1        1 0.22297705E-01 0.74805962E+03</pdfrwt>
<pdfrwt beam="2">  1       -1 0.12804310E+00 0.74805962E+03</pdfrwt>
<totfact> 0.12145002E+02</totfact>
</mgrwt>
</event>
<event>
 4    1  0.2428650E-005  0.6077645E+03  0.7818608E-02  0.9889427E-01
         -1   -1    0    0    0  501 -0.00000000000E+00  0.00000000000E+00  0.13831731145E+04  0.13831731145E+04  0.50400000000E-02 0. -1.
          1   -1    0    0  501    0  0.00000000000E+00 -0.00000000000E+00 -0.66762728513E+02  0.66762728704E+02  0.50400000000E-02 0.  1.
    5000001    1    1    2    0    0 -0.12765924231E+03  0.17222312177E+03  0.32796434665E+03  0.42513915191E+03  0.16500000000E+03 0.  0.
   -5000001    1    1    2    0    0  0.12765924231E+03 -0.17222312177E+03  0.98844603937E+03  0.10247966913E+04  0.16500000000E+03 0.  0.
<mgrwt>
<rscale>  0 0.60776447E+03</rscale>
<asrwt>0</asrwt>
<pdfrwt beam="1">  1        1 0.95375333E-02 0.60776447E+03</pdfrwt>
<pdfrwt beam="2">  1       -1 0.19759615E+00 0.60776447E+03</pdfrwt>
<totfact> 0.11547453E+02</totfact>
</mgrwt>
</event>
<event>
 4    1  0.2428650E-005  0.4875742E+03  0.7818608E-02  0.1017074E+00
          1   -1    0    0  501    0  0.00000000000E+00  0.00000000000E+00  0.10185527228E+03  0.10185527240E+03  0.50400000000E-02 0.  1.
         -1   -1    0    0    0  501 -0.00000000000E+00 -0.00000000000E+00 -0.58349605542E+03  0.58349605544E+03  0.50400000000E-02 0. -1.
    5000001    1    1    2    0    0  0.17910371647E+03 -0.74953541813E+01 -0.22882479339E+03  0.33424557986E+03  0.16500000000E+03 0.  0.
   -5000001    1    1    2    0    0 -0.17910371647E+03  0.74953541813E+01 -0.25281598976E+03  0.35110574798E+03  0.16500000000E+03 0.  0.
<mgrwt>
<rscale>  0 0.48757420E+03</rscale>
<asrwt>0</asrwt>
<pdfrwt beam="1">  1        1 0.14550754E-01 0.48757420E+03</pdfrwt>
<pdfrwt beam="2">  1       -1 0.83356577E-01 0.48757420E+03</pdfrwt>
<totfact> 0.58071054E+02</totfact>
</mgrwt>
</event>
<event>
 4    1  0.2428650E-005  0.3798508E+03  0.7818608E-02  0.1050989E+00
         -1   -1    0    0    0  501 -0.00000000000E+00  0.00000000000E+00  0.42677623751E+03  0.42677623754E+03  0.50400000000E-02 0. -1.
          1   -1    0    0  501    0  0.00000000000E+00 -0.00000000000E+00 -0.84521249110E+02  0.84521249261E+02  0.50400000000E-02 0.  1.
    5000001    1    1    2    0    0  0.45557733263E+02 -0.82040902157E+02  0.17968777243E+03  0.26137886726E+03  0.16500000000E+03 0.  0.
   -5000001    1    1    2    0    0 -0.45557733263E+02  0.82040902157E+02  0.16256721597E+03  0.24991861954E+03  0.16500000000E+03 0.  0.
<mgrwt>
<rscale>  0 0.37985082E+03</rscale>
<asrwt>0</asrwt>
<pdfrwt beam="1">  1        1 0.12074464E-01 0.37985082E+03</pdfrwt>
<pdfrwt beam="2">  1       -1 0.60968035E-01 0.37985082E+03</pdfrwt>
<totfact> 0.14086108E+03</totfact>
</mgrwt>
</event>
<event>
 4    1  0.2428650E-005  0.8134953E+03  0.7818608E-02  0.9540686E-01
          1   -1    0    0  501    0  0.00000000000E+00  0.00000000000E+00  0.40866992766E+03  0.40866992769E+03  0.50400000000E-02 0. -1.
         -1   -1    0    0    0  501 -0.00000000000E+00 -0.00000000000E+00 -0.40483436971E+03  0.40483436974E+03  0.50400000000E-02 0.  1.
    5000001    1    1    2    0    0  0.23480389347E+03  0.28819958537E+03  0.70911541679E+01  0.40677654045E+03  0.16500000000E+03 0.  0.
   -5000001    1    1    2    0    0 -0.23480389347E+03 -0.28819958537E+03 -0.32555962189E+01  0.40672775698E+03  0.16500000000E+03 0.  0.
<mgrwt>
<rscale>  0 0.81349526E+03</rscale>
<asrwt>0</asrwt>
<pdfrwt beam="1">  1        1 0.58381419E-01 0.81349526E+03</pdfrwt>
<pdfrwt beam="2">  1       -1 0.57833481E-01 0.81349526E+03</pdfrwt>
<totfact> 0.19697397E+02</totfact>
</mgrwt>
</event>
<event>
 4    1  0.2428650E-005  0.5093165E+03  0.7818608E-02  0.1011375E+00
         -1   -1    0    0    0  501 -0.00000000000E+00  0.00000000000E+00  0.12679570451E+03  0.12679570461E+03  0.50400000000E-02 0. -1.
          1   -1    0    0  501    0  0.00000000000E+00 -0.00000000000E+00 -0.51145912914E+03  0.51145912916E+03  0.50400000000E-02 0.  1.
    5000001    1    1    2    0    0  0.19214613268E+03  0.20089108300E+02 -0.21411334437E+03  0.33225477094E+03  0.16500000000E+03 0.  0.
   -5000001    1    1    2    0    0 -0.19214613268E+03 -0.20089108300E+02 -0.17055008026E+03  0.30600006283E+03  0.16500000000E+03 0.  0.
<mgrwt>
<rscale>  0 0.50931649E+03</rscale>
<asrwt>0</asrwt>
<pdfrwt beam="1">  1        1 0.73065589E-01 0.50931649E+03</pdfrwt>
<pdfrwt beam="2">  1       -1 0.18113672E-01 0.50931649E+03</pdfrwt>
<totfact> 0.11496561E+03</totfact>
</mgrwt>
</event>
<event>
 4    1  0.2428650E-005  0.4143466E+03  0.7818608E-02  0.1038922E+00
         -1   -1    0    0    0  501 -0.00000000000E+00  0.00000000000E+00  0.11458458711E+03  0.11458458722E+03  0.50400000000E-02 0.  1.
          1   -1    0    0  501    0  0.00000000000E+00 -0.00000000000E+00 -0.37457714442E+03  0.37457714446E+03  0.50400000000E-02 0. -1.
    5000001    1    1    2    0    0 -0.42144108700E+02 -0.10524354971E+03 -0.19294842325E+03  0.27804032925E+03  0.16500000000E+03 0.  0.
   -5000001    1    1    2    0    0  0.42144108700E+02  0.10524354971E+03 -0.67044134064E+02  0.21112140244E+03  0.16500000000E+03 0.  0.
<mgrwt>
<rscale>  0 0.41434656E+03</rscale>
<asrwt>0</asrwt>
<pdfrwt beam="1">  1        1 0.53511020E-01 0.41434656E+03</pdfrwt>
<pdfrwt beam="2">  1       -1 0.16369227E-01 0.41434656E+03</pdfrwt>
<totfact> 0.20379341E+03</totfact>
</mgrwt>
</event>
<event>
 4    1  0.2428650E-005  0.6439484E+03  0.7818608E-02  0.9818201E-01
          1   -1    0    0  501    0  0.00000000000E+00  0.00000000000E+00  0.35185651223E+03  0.35185651227E+03  0.50400000000E-02 0.  1.
         -1   -1    0    0    0  501 -0.00000000000E+00 -0.00000000000E+00 -0.29462969888E+03  0.29462969892E+03  0.50400000000E-02 0. -1.
    5000001    1    1    2    0    0 -0.25524733064E+03 -0.51701169873E+02  0.12181335649E+03  0.33149314409E+03  0.16500000000E+03 0.  0.
   -5000001    1    1    2    0    0  0.25524733064E+03  0.51701169873E+02 -0.64586543134E+02  0.31499306709E+03  0.16500000000E+03 0.  0.
<mgrwt>
<rscale>  0 0.64394838E+03</rscale>
<asrwt>0</asrwt>
<pdfrwt beam="1">  1        1 0.50265216E-01 0.64394838E+03</pdfrwt>
<pdfrwt beam="2">  1       -1 0.42089957E-01 0.64394838E+03</pdfrwt>
<totfact> 0.43950767E+02</totfact>
</mgrwt>
</event>
<event>
 4    1  0.2428650E-005  0.4107044E+03  0.7818608E-02  0.1040135E+00
         -1   -1    0    0    0  501 -0.00000000000E+00  0.00000000000E+00  0.11486432200E+03  0.11486432211E+03  0.50400000000E-02 0.  1.
          1   -1    0    0  501    0  0.00000000000E+00 -0.00000000000E+00 -0.36712473408E+03  0.36712473411E+03  0.50400000000E-02 0. -1.
    5000001    1    1    2    0    0 -0.70431343957E+02 -0.99559514801E+02 -0.13607873711E+03  0.24620132797E+03  0.16500000000E+03 0.  0.
   -5000001    1    1    2    0    0  0.70431343957E+02  0.99559514801E+02 -0.11618167497E+03  0.23578772826E+03  0.16500000000E+03 0.  0.
<mgrwt>
<rscale>  0 0.41070444E+03</rscale>
<asrwt>0</asrwt>
<pdfrwt beam="1">  1        1 0.52446390E-01 0.41070444E+03</pdfrwt>
<pdfrwt beam="2">  1       -1 0.16409189E-01 0.41070444E+03</pdfrwt>
<totfact> 0.20828457E+03</totfact>
</mgrwt>
</event>
<event>
 4    1  0.2428650E-005  0.1328890E+04  0.7818608E-02  0.9006964E-01
          1   -1    0    0  501    0  0.00000000000E+00  0.00000000000E+00  0.38264366265E+04  0.38264366265E+04  0.50400000000E-02 0. -1.
         -1   -1    0    0    0  501 -0.00000000000E+00 -0.00000000000E+00 -0.11537808534E+03  0.11537808545E+03  0.50400000000E-02 0.  1.
    5000001    1    1    2    0    0  0.24814463666E+03  0.52171362473E+03  0.26971338633E+04  0.27632439168E+04  0.16500000000E+03 0.  0.
   -5000001    1    1    2    0    0 -0.24814463666E+03 -0.52171362473E+03  0.10139246779E+04  0.11785707952E+04  0.16500000000E+03 0.  0.
<mgrwt>
<rscale>  0 0.13288897E+04</rscale>
<asrwt>0</asrwt>
<pdfrwt beam="1">  1        1 0.54663398E+00 0.13288897E+04</pdfrwt>
<pdfrwt beam="2">  1       -1 0.16482578E-01 0.13288897E+04</pdfrwt>
<totfact> 0.63917581E+00</totfact>
</mgrwt>
</event>
<event>
 4    1  0.2428650E-005  0.5115978E+03  0.7818608E-02  0.1010795E+00
         -1   -1    0    0    0  501 -0.00000000000E+00  0.00000000000E+00  0.80756837082E+02  0.80756837239E+02  0.50400000000E-02 0.  1.
          1   -1    0    0  501    0  0.00000000000E+00 -0.00000000000E+00 -0.81024823251E+03  0.81024823252E+03  0.50400000000E-02 0. -1.
    5000001    1    1    2    0    0  0.13203893530E+03 -0.13834851528E+03 -0.29435584592E+03  0.38787234516E+03  0.16500000000E+03 0.  0.
   -5000001    1    1    2    0    0 -0.13203893530E+03  0.13834851528E+03 -0.43513554951E+03  0.50313272460E+03  0.16500000000E+03 0.  0.
<mgrwt>
<rscale>  0 0.51159783E+03</rscale>
<asrwt>0</asrwt>
<pdfrwt beam="1">  1        1 0.11574974E+00 0.51159783E+03</pdfrwt>
<pdfrwt beam="2">  1       -1 0.11536691E-01 0.51159783E+03</pdfrwt>
<totfact> 0.12328215E+03</totfact>
</mgrwt>
</event>
<event>
 4    1  0.2428650E-005  0.5880027E+03  0.7818608E-02  0.9930614E-01
          1   -1    0    0  501    0  0.00000000000E+00  0.00000000000E+00  0.11081179162E+04  0.11081179162E+04  0.50400000000E-02 0.  1.
         -1   -1    0    0    0  501 -0.00000000000E+00 -0.00000000000E+00 -0.78003237323E+02  0.78003237486E+02  0.50400000000E-02 0. -1.
    5000001    1    1    2    0    0  0.15680078451E+02  0.23738389715E+03  0.61820738899E+03  0.68264365176E+03  0.16500000000E+03 0.  0.
   -5000001    1    1    2    0    0 -0.15680078451E+02 -0.23738389715E+03  0.41190728984E+03  0.50347750189E+03  0.16500000000E+03 0.  0.
<mgrwt>
<rscale>  0 0.58800267E+03</rscale>
<asrwt>0</asrwt>
<pdfrwt beam="1">  1        1 0.15830257E+00 0.58800267E+03</pdfrwt>
<pdfrwt beam="2">  1       -1 0.11143319E-01 0.58800267E+03</pdfrwt>
<totfact> 0.77370736E+02</totfact>
</mgrwt>
</event>
<event>
 4    1  0.2428650E-005  0.4383318E+03  0.7818608E-02  0.1031260E+00
          1   -1    0    0  501    0  0.00000000000E+00  0.00000000000E+00  0.11198104018E+04  0.11198104018E+04  0.50400000000E-02 0.  1.
         -1   -1    0    0    0  501 -0.00000000000E+00 -0.00000000000E+00 -0.42894479980E+02  0.42894480276E+02  0.50400000000E-02 0. -1.
    5000001    1    1    2    0    0 -0.10927097480E+03 -0.77638974827E+02  0.67983582831E+03  0.71229889078E+03  0.16500000000E+03 0.  0.
   -5000001    1    1    2    0    0  0.10927097480E+03  0.77638974827E+02  0.39708009350E+03  0.45040599130E+03  0.16500000000E+03 0.  0.
<mgrwt>
<rscale>  0 0.43833177E+03</rscale>
<asrwt>0</asrwt>
<pdfrwt beam="1">  1        1 0.15997290E+00 0.43833177E+03</pdfrwt>
<pdfrwt beam="2">  1       -1 0.61277833E-02 0.43833177E+03</pdfrwt>
<totfact> 0.19334996E+03</totfact>
</mgrwt>
</event>
<event>
 4    1  0.2428650E-005  0.5708392E+03  0.7818608E-02  0.9967823E-01
         -1   -1    0    0    0  501 -0.00000000000E+00  0.00000000000E+00  0.38846881139E+02  0.38846881466E+02  0.50400000000E-02 0. -1.
          1   -1    0    0  501    0  0.00000000000E+00 -0.00000000000E+00 -0.20970627158E+04  0.20970627158E+04  0.50400000000E-02 0.  1.
    5000001    1    1    2    0    0 -0.65603002375E+02  0.16592373425E+03 -0.46904005269E+03  0.52825941594E+03  0.16500000000E+03 0.  0.
   -5000001    1    1    2    0    0  0.65603002375E+02 -0.16592373425E+03 -0.15891757820E+04  0.16076501813E+04  0.16500000000E+03 0.  0.
<mgrwt>
<rscale>  0 0.57083919E+03</rscale>
<asrwt>0</asrwt>
<pdfrwt beam="1">  1        1 0.29958032E+00 0.57083919E+03</pdfrwt>
<pdfrwt beam="2">  1       -1 0.55495558E-02 0.57083919E+03</pdfrwt>
<totfact> 0.53270849E+02</totfact>
</mgrwt>
</event>
<event>
 4    1  0.2428650E-005  0.4969865E+03  0.7818608E-02  0.1014568E+00
         -1   -1    0    0    0  501 -0.00000000000E+00  0.00000000000E+00  0.21062446980E+02  0.21062447583E+02  0.50400000000E-02 0. -1.
          1   -1    0    0  501    0  0.00000000000E+00 -0.00000000000E+00 -0.29317058438E+04  0.29317058438E+04  0.50400000000E-02 0.  1.
    5000001    1    1    2    0    0  0.43021744030E+02  0.16724288949E+03 -0.10478803459E+04  0.10747554484E+04  0.16500000000E+03 0.  0.
   -5000001    1    1    2    0    0 -0.43021744030E+02 -0.16724288949E+03 -0.18627630509E+04  0.18780128429E+04  0.16500000000E+03 0.  0.
<mgrwt>
<rscale>  0 0.49698652E+03</rscale>
<asrwt>0</asrwt>
<pdfrwt beam="1">  1        1 0.41881486E+00 0.49698652E+03</pdfrwt>
<pdfrwt beam="2">  1       -1 0.30089229E-02 0.49698652E+03</pdfrwt>
<totfact> 0.40888660E+02</totfact>
</mgrwt>
</event>
<event>
 4    1  0.2428650E-005  0.5028559E+03  0.7818608E-02  0.1013036E+00
          1   -1    0    0  501    0  0.00000000000E+00  0.00000000000E+00  0.86291623671E+03  0.86291623672E+03  0.50400000000E-02 0.  1.
         -1   -1    0    0    0  501 -0.00000000000E+00 -0.00000000000E+00 -0.73258569427E+02  0.73258569600E+02  0.50400000000E-02 0. -1.
    5000001    1    1    2    0    0  0.12468004179E+03 -0.12454617491E+03  0.26405542566E+03  0.35778084119E+03  0.16500000000E+03 0.  0.
   -5000001    1    1    2    0    0 -0.12468004179E+03  0.12454617491E+03  0.52560224162E+03  0.57839396513E+03  0.16500000000E+03 0.  0.
<mgrwt>
<rscale>  0 0.50285588E+03</rscale>
<asrwt>0</asrwt>
<pdfrwt beam="1">  1        1 0.12327374E+00 0.50285588E+03</pdfrwt>
<pdfrwt beam="2">  1       -1 0.10465510E-01 0.50285588E+03</pdfrwt>
<totfact> 0.13039878E+03</totfact>
</mgrwt>
</event>
<event>
 4    1  0.2428650E-005  0.6438891E+03  0.7818608E-02  0.9818314E-01
          1   -1    0    0  501    0  0.00000000000E+00  0.00000000000E+00  0.68904422270E+03  0.68904422272E+03  0.50400000000E-02 0.  1.
         -1   -1    0    0    0  501 -0.00000000000E+00 -0.00000000000E+00 -0.15042329489E+03  0.15042329498E+03  0.50400000000E-02 0. -1.
    5000001    1    1    2    0    0  0.42404297959E+02  0.27293334948E+03  0.25429956854E+03  0.41010243635E+03  0.16500000000E+03 0.  0.
   -5000001    1    1    2    0    0 -0.42404297959E+02 -0.27293334948E+03  0.28432135927E+03  0.42936508135E+03  0.16500000000E+03 0.  0.
<mgrwt>
<rscale>  0 0.64388913E+03</rscale>
<asrwt>0</asrwt>
<pdfrwt beam="1">  1        1 0.98434891E-01 0.64388913E+03</pdfrwt>
<pdfrwt beam="2">  1       -1 0.21489042E-01 0.64388913E+03</pdfrwt>
<totfact> 0.56973814E+02</totfact>
</mgrwt>
</event>
<event>
 4    1  0.2428650E-005  0.4302904E+03  0.7818608E-02  0.1033768E+00
          1   -1    0    0  501    0  0.00000000000E+00  0.00000000000E+00  0.97527456363E+03  0.97527456364E+03  0.50400000000E-02 0. -1.
         -1   -1    0    0    0  501 -0.00000000000E+00 -0.00000000000E+00 -0.47460948939E+02  0.47460949207E+02  0.50400000000E-02 0.  1.
    5000001    1    1    2    0    0  0.39086728142E+02 -0.10098591120E+03  0.66749239343E+03  0.69605820293E+03  0.16500000000E+03 0.  0.
   -5000001    1    1    2    0    0 -0.39086728142E+02  0.10098591120E+03  0.26032122126E+03  0.32667730992E+03  0.16500000000E+03 0.  0.
<mgrwt>
<rscale>  0 0.43029040E+03</rscale>
<asrwt>0</asrwt>
<pdfrwt beam="1">  1        1 0.13932492E+00 0.43029040E+03</pdfrwt>
<pdfrwt beam="2">  1       -1 0.67801365E-02 0.43029040E+03</pdfrwt>
<totfact> 0.21018204E+03</totfact>
</mgrwt>
</event>
<event>
 4    1  0.2428650E-005  0.3716003E+03  0.7818608E-02  0.1054083E+00
         -1   -1    0    0    0  501 -0.00000000000E+00  0.00000000000E+00  0.14968161437E+03  0.14968161446E+03  0.50400000000E-02 0. -1.
          1   -1    0    0  501    0  0.00000000000E+00 -0.00000000000E+00 -0.23063419694E+03  0.23063419700E+03  0.50400000000E-02 0.  1.
    5000001    1    1    2    0    0  0.46847088211E+01 -0.81309897178E+02 -0.66837991214E+02  0.19576915729E+03  0.16500000000E+03 0.  0.
   -5000001    1    1    2    0    0 -0.46847088211E+01  0.81309897178E+02 -0.14114591356E+02  0.18454665417E+03  0.16500000000E+03 0.  0.
<mgrwt>
<rscale>  0 0.37160032E+03</rscale>
<asrwt>0</asrwt>
<pdfrwt beam="1">  1        1 0.32947742E-01 0.37160032E+03</pdfrwt>
<pdfrwt beam="2">  1       -1 0.21383088E-01 0.37160032E+03</pdfrwt>
<totfact> 0.24395823E+03</totfact>
</mgrwt>
</event>
<event>
 4    1  0.2428650E-005  0.4396684E+03  0.7818608E-02  0.1030849E+00
          1   -1    0    0  501    0  0.00000000000E+00  0.00000000000E+00  0.14626781611E+04  0.14626781611E+04  0.50400000000E-02 0.  1.
         -1   -1    0    0    0  501 -0.00000000000E+00 -0.00000000000E+00 -0.33040123050E+02  0.33040123434E+02  0.50400000000E-02 0. -1.
    5000001    1    1    2    0    0 -0.26123403853E+02 -0.11378300892E+03  0.42073334867E+03  0.46676606135E+03  0.16500000000E+03 0.  0.
   -5000001    1    1    2    0    0  0.26123403853E+02  0.11378300892E+03  0.10089046893E+04  0.10289522231E+04  0.16500000000E+03 0.  0.
<mgrwt>
<rscale>  0 0.43966836E+03</rscale>
<asrwt>0</asrwt>
<pdfrwt beam="1">  1        1 0.20895409E+00 0.43966836E+03</pdfrwt>
<pdfrwt beam="2">  1       -1 0.47200161E-02 0.43966836E+03</pdfrwt>
<totfact> 0.17041728E+03</totfact>
</mgrwt>
</event>
<event>
 4    1  0.2428650E-005  0.6879264E+03  0.7818608E-02  0.9738105E-01
          1   -1    0    0  501    0  0.00000000000E+00  0.00000000000E+00  0.71515866198E+03  0.71515866200E+03  0.50400000000E-02 0.  1.
         -1   -1    0    0    0  501 -0.00000000000E+00 -0.00000000000E+00 -0.16543278869E+03  0.16543278877E+03  0.50400000000E-02 0. -1.
    5000001    1    1    2    0    0  0.71815269753E+01 -0.28981374006E+03  0.38228264902E+03  0.50735451313E+03  0.16500000000E+03 0.  0.
   -5000001    1    1    2    0    0 -0.71815269753E+01  0.28981374006E+03  0.16744322427E+03  0.37323693763E+03  0.16500000000E+03 0.  0.
<mgrwt>
<rscale>  0 0.68792643E+03</rscale>
<asrwt>0</asrwt>
<pdfrwt beam="1">  1        1 0.10216552E+00 0.68792643E+03</pdfrwt>
<pdfrwt beam="2">  1       -1 0.23633256E-01 0.68792643E+03</pdfrwt>
<totfact> 0.45896355E+02</totfact>
</mgrwt>
</event>
<event>
 4    1  0.2428650E-005  0.4695529E+03  0.7818608E-02  0.1022046E+00
          1   -1    0    0  501    0  0.00000000000E+00  0.00000000000E+00  0.83240881307E+03  0.83240881309E+03  0.50400000000E-02 0.  1.
         -1   -1    0    0    0  501 -0.00000000000E+00 -0.00000000000E+00 -0.66217454655E+02  0.66217454847E+02  0.50400000000E-02 0. -1.
    5000001    1    1    2    0    0 -0.78552811511E+02 -0.14513758282E+03  0.43224438348E+03  0.49121855542E+03  0.16500000000E+03 0.  0.
   -5000001    1    1    2    0    0  0.78552811511E+02  0.14513758282E+03  0.33394697494E+03  0.40740771251E+03  0.16500000000E+03 0.  0.
<mgrwt>
<rscale>  0 0.46955295E+03</rscale>
<asrwt>0</asrwt>
<pdfrwt beam="1">  1        1 0.11891553E+00 0.46955295E+03</pdfrwt>
<pdfrwt beam="2">  1       -1 0.94596372E-02 0.46955295E+03</pdfrwt>
<totfact> 0.16170574E+03</totfact>
</mgrwt>
</event>
<event>
 4    1  0.2428650E-005  0.3609793E+03  0.7818608E-02  0.1058197E+00
         -1   -1    0    0    0  501 -0.00000000000E+00  0.00000000000E+00  0.57985438883E+03  0.57985438885E+03  0.50400000000E-02 0. -1.
          1   -1    0    0  501    0  0.00000000000E+00 -0.00000000000E+00 -0.56180513203E+02  0.56180513429E+02  0.50400000000E-02 0.  1.
    5000001    1    1    2    0    0 -0.38057613377E+01 -0.62020434226E+02  0.19381257346E+03  0.26201017483E+03  0.16500000000E+03 0.  0.
   -5000001    1    1    2    0    0  0.38057613377E+01  0.62020434226E+02  0.32986130216E+03  0.37402472745E+03  0.16500000000E+03 0.  0.
<mgrwt>
<rscale>  0 0.36097932E+03</rscale>
<asrwt>0</asrwt>
<pdfrwt beam="1">  1        1 0.80257875E-02 0.36097932E+03</pdfrwt>
<pdfrwt beam="2">  1       -1 0.82836342E-01 0.36097932E+03</pdfrwt>
<totfact> 0.13181286E+03</totfact>
</mgrwt>
</event>
<event>
 4    1  0.2428650E-005  0.5724632E+03  0.7818608E-02  0.9964243E-01
          1   -1    0    0  501    0  0.00000000000E+00  0.00000000000E+00  0.73295429651E+03  0.73295429652E+03  0.50400000000E-02 0. -1.
         -1   -1    0    0    0  501 -0.00000000000E+00 -0.00000000000E+00 -0.11177848132E+03  0.11177848143E+03  0.50400000000E-02 0.  1.
    5000001    1    1    2    0    0 -0.48552941351E+01 -0.10745377312E+03  0.41236648197E+01  0.19700733959E+03  0.16500000000E+03 0.  0.
   -5000001    1    1    2    0    0  0.48552941351E+01  0.10745377312E+03  0.61705215037E+03  0.64772543837E+03  0.16500000000E+03 0.  0.
<mgrwt>
<rscale>  0 0.57246316E+03</rscale>
<asrwt>0</asrwt>
<pdfrwt beam="1">  1        1 0.10470776E+00 0.57246316E+03</pdfrwt>
<pdfrwt beam="2">  1       -1 0.15968354E-01 0.57246316E+03</pdfrwt>
<totfact> 0.85034314E+02</totfact>
</mgrwt>
</event>
<event>
 4    1  0.2428650E-005  0.8819865E+03  0.7818608E-02  0.9448384E-01
          1   -1    0    0  501    0  0.00000000000E+00  0.00000000000E+00  0.66232146991E+03  0.66232146992E+03  0.50400000000E-02 0.  1.
         -1   -1    0    0    0  501 -0.00000000000E+00 -0.00000000000E+00 -0.29362634888E+03  0.29362634892E+03  0.50400000000E-02 0. -1.
    5000001    1    1    2    0    0  0.31868206686E+03  0.90886168437E+02 -0.75397480330E+02  0.37779403832E+03  0.16500000000E+03 0.  0.
   -5000001    1    1    2    0    0 -0.31868206686E+03 -0.90886168437E+02  0.44409260136E+03  0.57815378052E+03  0.16500000000E+03 0.  0.
<mgrwt>
<rscale>  0 0.88198647E+03</rscale>
<asrwt>0</asrwt>
<pdfrwt beam="1">  1        1 0.94617352E-01 0.88198647E+03</pdfrwt>
<pdfrwt beam="2">  1       -1 0.41946622E-01 0.88198647E+03</pdfrwt>
<totfact> 0.18570357E+02</totfact>
</mgrwt>
</event>
<event>
 4    1  0.2428650E-005  0.5622405E+03  0.7818608E-02  0.9986998E-01
         -1   -1    0    0    0  501 -0.00000000000E+00  0.00000000000E+00  0.18481311012E+03  0.18481311019E+03  0.50400000000E-02 0. -1.
          1   -1    0    0  501    0  0.00000000000E+00 -0.00000000000E+00 -0.42761354688E+03  0.42761354691E+03  0.50400000000E-02 0.  1.
    5000001    1    1    2    0    0  0.45026474968E+02 -0.21054560042E+03 -0.20179001780E+03  0.33808437495E+03  0.16500000000E+03 0.  0.
   -5000001    1    1    2    0    0 -0.45026474968E+02  0.21054560042E+03 -0.41010418964E+02  0.27434228214E+03  0.16500000000E+03 0.  0.
<mgrwt>
<rscale>  0 0.56224048E+03</rscale>
<asrwt>0</asrwt>
<pdfrwt beam="1">  1        1 0.61087649E-01 0.56224048E+03</pdfrwt>
<pdfrwt beam="2">  1       -1 0.26401873E-01 0.56224048E+03</pdfrwt>
<totfact> 0.77683105E+02</totfact>
</mgrwt>
</event>
<event>
 4    1  0.2428650E-005  0.1327657E+04  0.7818608E-02  0.9007916E-01
          1   -1    0    0  501    0  0.00000000000E+00  0.00000000000E+00  0.71866711164E+03  0.71866711165E+03  0.50400000000E-02 0.  1.
         -1   -1    0    0    0  501 -0.00000000000E+00 -0.00000000000E+00 -0.61317441020E+03  0.61317441022E+03  0.50400000000E-02 0. -1.
    5000001    1    1    2    0    0 -0.16969901324E+03  0.53515991955E+03  0.36718185975E+03  0.69082661552E+03  0.16500000000E+03 0.  0.
   -5000001    1    1    2    0    0  0.16969901324E+03 -0.53515991955E+03 -0.26168915831E+03  0.64101490635E+03  0.16500000000E+03 0.  0.
<mgrwt>
<rscale>  0 0.13276570E+04</rscale>
<asrwt>0</asrwt>
<pdfrwt beam="1">  1        1 0.10266673E+00 0.13276570E+04</pdfrwt>
<pdfrwt beam="2">  1       -1 0.87596344E-01 0.13276570E+04</pdfrwt>
<totfact> 0.36897863E+01</totfact>
</mgrwt>
</event>
<event>
 4    1  0.2428650E-005  0.1180176E+04  0.7818608E-02  0.9130387E-01
         -1   -1    0    0    0  501 -0.00000000000E+00  0.00000000000E+00  0.24571957170E+03  0.24571957175E+03  0.50400000000E-02 0. -1.
          1   -1    0    0  501    0  0.00000000000E+00 -0.00000000000E+00 -0.14170789631E+04  0.14170789631E+04  0.50400000000E-02 0.  1.
    5000001    1    1    2    0    0  0.30575610355E+03  0.37803444589E+03 -0.17591718454E+03  0.54274182901E+03  0.16500000000E+03 0.  0.
   -5000001    1    1    2    0    0 -0.30575610355E+03 -0.37803444589E+03 -0.99544220683E+03  0.11200567058E+04  0.16500000000E+03 0.  0.
<mgrwt>
<rscale>  0 0.11801763E+04</rscale>
<asrwt>0</asrwt>
<pdfrwt beam="1">  1        1 0.20243985E+00 0.11801763E+04</pdfrwt>
<pdfrwt beam="2">  1       -1 0.35102796E-01 0.11801763E+04</pdfrwt>
<totfact> 0.67398070E+01</totfact>
</mgrwt>
</event>
<event>
 4    1  0.2428650E-005  0.7285219E+03  0.7818608E-02  0.9669662E-01
         -1   -1    0    0    0  501 -0.00000000000E+00  0.00000000000E+00  0.83850473394E+03  0.83850473395E+03  0.50400000000E-02 0.  1.
          1   -1    0    0  501    0  0.00000000000E+00 -0.00000000000E+00 -0.15824126290E+03  0.15824126298E+03  0.50400000000E-02 0. -1.
    5000001    1    1    2    0    0 -0.11340238231E+03  0.16819481249E+03 -0.68335580741E+01  0.26157464093E+03  0.16500000000E+03 0.  0.
   -5000001    1    1    2    0    0  0.11340238231E+03 -0.16819481249E+03  0.68709702912E+03  0.73517135600E+03  0.16500000000E+03 0.  0.
<mgrwt>
<rscale>  0 0.72852192E+03</rscale>
<asrwt>0</asrwt>
<pdfrwt beam="1">  1        1 0.22605894E-01 0.72852192E+03</pdfrwt>
<pdfrwt beam="2">  1       -1 0.11978639E+00 0.72852192E+03</pdfrwt>
<totfact> 0.14075998E+02</totfact>
</mgrwt>
</event>
<event>
 4    1  0.2428650E-005  0.4367810E+03  0.7818608E-02  0.1031739E+00
         -1   -1    0    0    0  501 -0.00000000000E+00  0.00000000000E+00  0.47196864688E+02  0.47196864957E+02  0.50400000000E-02 0. -1.
          1   -1    0    0  501    0  0.00000000000E+00 -0.00000000000E+00 -0.10105417378E+04  0.10105417378E+04  0.50400000000E-02 0.  1.
    5000001    1    1    2    0    0 -0.83839895929E+01 -0.10910718921E+03 -0.70487002162E+03  0.73214849409E+03  0.16500000000E+03 0.  0.
   -5000001    1    1    2    0    0  0.83839895929E+01  0.10910718921E+03 -0.25847485150E+03  0.32559010869E+03  0.16500000000E+03 0.  0.
<mgrwt>
<rscale>  0 0.43678096E+03</rscale>
<asrwt>0</asrwt>
<pdfrwt beam="1">  1        1 0.14436309E+00 0.43678096E+03</pdfrwt>
<pdfrwt beam="2">  1       -1 0.67424099E-02 0.43678096E+03</pdfrwt>
<totfact> 0.19972263E+03</totfact>
</mgrwt>
</event>
<event>
 4    1  0.2428650E-005  0.5654460E+03  0.7818608E-02  0.9979807E-01
         -1   -1    0    0    0  501 -0.00000000000E+00  0.00000000000E+00  0.20706580163E+02  0.20706580776E+02  0.50400000000E-02 0. -1.
          1   -1    0    0  501    0  0.00000000000E+00 -0.00000000000E+00 -0.38602360342E+04  0.38602360342E+04  0.50400000000E-02 0.  1.
    5000001    1    1    2    0    0  0.44570368945E+02  0.22432972881E+03 -0.17830201172E+04  0.18051858861E+04  0.16500000000E+03 0.  0.
   -5000001    1    1    2    0    0 -0.44570368945E+02 -0.22432972881E+03 -0.20565093368E+04  0.20757567289E+04  0.16500000000E+03 0.  0.
<mgrwt>
<rscale>  0 0.56544598E+03</rscale>
<asrwt>0</asrwt>
<pdfrwt beam="1">  1        1 0.55146183E+00 0.56544598E+03</pdfrwt>
<pdfrwt beam="2">  1       -1 0.29580854E-02 0.56544598E+03</pdfrwt>
<totfact> 0.97761241E+01</totfact>
</mgrwt>
</event>
<event>
 4    1  0.2428650E-005  0.3928576E+03  0.7818608E-02  0.1046281E+00
         -1   -1    0    0    0  501 -0.00000000000E+00  0.00000000000E+00  0.49599561707E+03  0.49599561710E+03  0.50400000000E-02 0.  1.
          1   -1    0    0  501    0  0.00000000000E+00 -0.00000000000E+00 -0.77791578879E+02  0.77791579042E+02  0.50400000000E-02 0. -1.
    5000001    1    1    2    0    0  0.11459306975E+02  0.10528634654E+03  0.22655245774E+03  0.29961232717E+03  0.16500000000E+03 0.  0.
   -5000001    1    1    2    0    0 -0.11459306975E+02 -0.10528634654E+03  0.19165158046E+03  0.27417486897E+03  0.16500000000E+03 0.  0.
<mgrwt>
<rscale>  0 0.39285764E+03</rscale>
<asrwt>0</asrwt>
<pdfrwt beam="1">  1        1 0.11113083E-01 0.39285764E+03</pdfrwt>
<pdfrwt beam="2">  1       -1 0.70856516E-01 0.39285764E+03</pdfrwt>
<totfact> 0.11691925E+03</totfact>
</mgrwt>
</event>
<event>
 4    1  0.2428650E-005  0.4006664E+03  0.7818608E-02  0.1043549E+00
          1   -1    0    0  501    0  0.00000000000E+00  0.00000000000E+00  0.26898850260E+04  0.26898850260E+04  0.50400000000E-02 0.  1.
         -1   -1    0    0    0  501 -0.00000000000E+00 -0.00000000000E+00 -0.14920114883E+02  0.14920115734E+02  0.50400000000E-02 0. -1.
    5000001    1    1    2    0    0  0.10504782330E+03  0.43281690064E+02  0.13389127819E+04  0.13538171174E+04  0.16500000000E+03 0.  0.
   -5000001    1    1    2    0    0 -0.10504782330E+03 -0.43281690064E+02  0.13360521292E+04  0.13509880243E+04  0.16500000000E+03 0.  0.
<mgrwt>
<rscale>  0 0.40066642E+03</rscale>
<asrwt>0</asrwt>
<pdfrwt beam="1">  1        1 0.38426917E+00 0.40066642E+03</pdfrwt>
<pdfrwt beam="2">  1       -1 0.21314457E-02 0.40066642E+03</pdfrwt>
<totfact> 0.98082372E+02</totfact>
</mgrwt>
</event>
<event>
 4    1  0.2428650E-005  0.3722827E+03  0.7818608E-02  0.1053824E+00
          1   -1    0    0  501    0  0.00000000000E+00  0.00000000000E+00  0.18591152217E+03  0.18591152223E+03  0.50400000000E-02 0.  1.
         -1   -1    0    0    0  501 -0.00000000000E+00 -0.00000000000E+00 -0.18637145217E+03  0.18637145223E+03  0.50400000000E-02 0. -1.
    5000001    1    1    2    0    0  0.10478522510E+02  0.78624399751E+02  0.33415338436E+02  0.18609992078E+03  0.16500000000E+03 0.  0.
   -5000001    1    1    2    0    0 -0.10478522510E+02 -0.78624399751E+02 -0.33875268436E+02  0.18618305369E+03  0.16500000000E+03 0.  0.
<mgrwt>
<rscale>  0 0.37228269E+03</rscale>
<asrwt>0</asrwt>
<pdfrwt beam="1">  1        1 0.26558789E-01 0.37228269E+03</pdfrwt>
<pdfrwt beam="2">  1       -1 0.26624493E-01 0.37228269E+03</pdfrwt>
<totfact> 0.22275056E+03</totfact>
</mgrwt>
</event>
<event>
 4    1  0.2428650E-005  0.5270604E+03  0.7818608E-02  0.1006948E+00
         -1   -1    0    0    0  501 -0.00000000000E+00  0.00000000000E+00  0.86518837241E+03  0.86518837242E+03  0.50400000000E-02 0.  1.
          1   -1    0    0  501    0  0.00000000000E+00 -0.00000000000E+00 -0.80269427286E+02  0.80269427444E+02  0.50400000000E-02 0. -1.
    5000001    1    1    2    0    0  0.13736049741E+03 -0.70401835951E+02  0.14913988095E+03  0.27072500595E+03  0.16500000000E+03 0.  0.
   -5000001    1    1    2    0    0 -0.13736049741E+03  0.70401835951E+02  0.63577906417E+03  0.67473279392E+03  0.16500000000E+03 0.  0.
<mgrwt>
<rscale>  0 0.52706043E+03</rscale>
<asrwt>0</asrwt>
<pdfrwt beam="1">  1        1 0.11467061E-01 0.52706043E+03</pdfrwt>
<pdfrwt beam="2">  1       -1 0.12359834E+00 0.52706043E+03</pdfrwt>
<totfact> 0.32617441E+02</totfact>
</mgrwt>
</event>
<event>
 4    1  0.2428650E-005  0.4507550E+03  0.7818608E-02  0.1027497E+00
         -1   -1    0    0    0  501 -0.00000000000E+00  0.00000000000E+00  0.33216275559E+03  0.33216275563E+03  0.50400000000E-02 0. -1.
          1   -1    0    0  501    0  0.00000000000E+00 -0.00000000000E+00 -0.15292204423E+03  0.15292204432E+03  0.50400000000E-02 0.  1.
    5000001    1    1    2    0    0 -0.13095979374E+03  0.79611247053E+02  0.79899734456E+02  0.23895059280E+03  0.16500000000E+03 0.  0.
   -5000001    1    1    2    0    0  0.13095979374E+03 -0.79611247053E+02  0.99340976900E+02  0.24613420714E+03  0.16500000000E+03 0.  0.
<mgrwt>
<rscale>  0 0.45075496E+03</rscale>
<asrwt>0</asrwt>
<pdfrwt beam="1">  1        1 0.21846007E-01 0.45075496E+03</pdfrwt>
<pdfrwt beam="2">  1       -1 0.47451821E-01 0.45075496E+03</pdfrwt>
<totfact> 0.10356770E+03</totfact>
</mgrwt>
</event>
<event>
 4    1  0.2428650E-005  0.5968984E+03  0.7818608E-02  0.9911862E-01
          1   -1    0    0  501    0  0.00000000000E+00  0.00000000000E+00  0.41217694837E+03  0.41217694840E+03  0.50400000000E-02 0. -1.
         -1   -1    0    0    0  501 -0.00000000000E+00 -0.00000000000E+00 -0.21610116979E+03  0.21610116984E+03  0.50400000000E-02 0.  1.
    5000001    1    1    2    0    0 -0.10141295732E+03 -0.19147516894E+03 -0.30443056593E+02  0.27404216451E+03  0.16500000000E+03 0.  0.
   -5000001    1    1    2    0    0  0.10141295732E+03  0.19147516894E+03  0.22651883518E+03  0.35423595374E+03  0.16500000000E+03 0.  0.
<mgrwt>
<rscale>  0 0.59689839E+03</rscale>
<asrwt>0</asrwt>
<pdfrwt beam="1">  1        1 0.58882421E-01 0.59689839E+03</pdfrwt>
<pdfrwt beam="2">  1       -1 0.30871596E-01 0.59689839E+03</pdfrwt>
<totfact> 0.62221377E+02</totfact>
</mgrwt>
</event>
<event>
 4    1  0.2428650E-005  0.6731164E+03  0.7818608E-02  0.9764344E-01
         -1   -1    0    0    0  501 -0.00000000000E+00  0.00000000000E+00  0.25364187784E+03  0.25364187789E+03  0.50400000000E-02 0.  1.
          1   -1    0    0  501    0  0.00000000000E+00 -0.00000000000E+00 -0.44658011567E+03  0.44658011569E+03  0.50400000000E-02 0. -1.
    5000001    1    1    2    0    0 -0.21664756327E+03 -0.48017849510E+02 -0.29603958426E+03  0.40510037767E+03  0.16500000000E+03 0.  0.
   -5000001    1    1    2    0    0  0.21664756327E+03  0.48017849510E+02  0.10310134644E+03  0.29512161591E+03  0.16500000000E+03 0.  0.
<mgrwt>
<rscale>  0 0.67311639E+03</rscale>
<asrwt>0</asrwt>
<pdfrwt beam="1">  1        1 0.63797160E-01 0.67311639E+03</pdfrwt>
<pdfrwt beam="2">  1       -1 0.36234554E-01 0.67311639E+03</pdfrwt>
<totfact> 0.42113250E+02</totfact>
</mgrwt>
</event>
<event>
 4    1  0.2428650E-005  0.5075652E+03  0.7818608E-02  0.1011823E+00
         -1   -1    0    0    0  501 -0.00000000000E+00  0.00000000000E+00  0.65057510408E+03  0.65057510410E+03  0.50400000000E-02 0. -1.
          1   -1    0    0  501    0  0.00000000000E+00 -0.00000000000E+00 -0.98997973014E+02  0.98997973142E+02  0.50400000000E-02 0.  1.
    5000001    1    1    2    0    0  0.97140053660E+02 -0.14458845670E+03  0.39791392815E+03  0.46465310292E+03  0.16500000000E+03 0.  0.
   -5000001    1    1    2    0    0 -0.97140053660E+02  0.14458845670E+03  0.15366320292E+03  0.28491997432E+03  0.16500000000E+03 0.  0.
<mgrwt>
<rscale>  0 0.50756523E+03</rscale>
<asrwt>0</asrwt>
<pdfrwt beam="1">  1        1 0.14142568E-01 0.50756523E+03</pdfrwt>
<pdfrwt beam="2">  1       -1 0.92939301E-01 0.50756523E+03</pdfrwt>
<totfact> 0.47639976E+02</totfact>
</mgrwt>
</event>
<event>
 4    1  0.2428650E-005  0.4996584E+03  0.7818608E-02  0.1013868E+00
         -1   -1    0    0    0  501 -0.00000000000E+00  0.00000000000E+00  0.45808027131E+03  0.45808027133E+03  0.50400000000E-02 0. -1.
          1   -1    0    0  501    0  0.00000000000E+00 -0.00000000000E+00 -0.13625262772E+03  0.13625262781E+03  0.50400000000E-02 0.  1.
    5000001    1    1    2    0    0  0.13286826110E+03 -0.12485018726E+03  0.10841352156E+03  0.26873785689E+03  0.16500000000E+03 0.  0.
   -5000001    1    1    2    0    0 -0.13286826110E+03  0.12485018726E+03  0.21341412202E+03  0.32559504226E+03  0.16500000000E+03 0.  0.
<mgrwt>
<rscale>  0 0.49965845E+03</rscale>
<asrwt>0</asrwt>
<pdfrwt beam="1">  1        1 0.19464661E-01 0.49965845E+03</pdfrwt>
<pdfrwt beam="2">  1       -1 0.65440039E-01 0.49965845E+03</pdfrwt>
<totfact> 0.64956540E+02</totfact>
</mgrwt>
</event>
<event>
 4    1  0.2428650E-005  0.4014477E+03  0.7818608E-02  0.1043280E+00
         -1   -1    0    0    0  501 -0.00000000000E+00  0.00000000000E+00  0.37694892219E+03  0.37694892222E+03  0.50400000000E-02 0.  1.
          1   -1    0    0  501    0  0.00000000000E+00 -0.00000000000E+00 -0.10688466692E+03  0.10688466703E+03  0.50400000000E-02 0. -1.
    5000001    1    1    2    0    0  0.42286853644E+02 -0.71742026205E+02  0.40670371642E+02  0.18924633535E+03  0.16500000000E+03 0.  0.
   -5000001    1    1    2    0    0 -0.42286853644E+02  0.71742026205E+02  0.22939388363E+03  0.29458725390E+03  0.16500000000E+03 0.  0.
<mgrwt>
<rscale>  0 0.40144768E+03</rscale>
<asrwt>0</asrwt>
<pdfrwt beam="1">  1        1 0.15269238E-01 0.40144768E+03</pdfrwt>
<pdfrwt beam="2">  1       -1 0.53849845E-01 0.40144768E+03</pdfrwt>
<totfact> 0.13076380E+03</totfact>
</mgrwt>
</event>
<event>
 4    1  0.2428650E-005  0.6430091E+03  0.7818608E-02  0.9819986E-01
         -1   -1    0    0    0  501 -0.00000000000E+00  0.00000000000E+00  0.22550294635E+03  0.22550294641E+03  0.50400000000E-02 0. -1.
          1   -1    0    0  501    0  0.00000000000E+00 -0.00000000000E+00 -0.45837620947E+03  0.45837620950E+03  0.50400000000E-02 0.  1.
    5000001    1    1    2    0    0  0.32659056170E+02 -0.15639161836E+03  0.12284141203E+03  0.26046106187E+03  0.16500000000E+03 0.  0.
   -5000001    1    1    2    0    0 -0.32659056170E+02  0.15639161836E+03 -0.35571467515E+03  0.42341809404E+03  0.16500000000E+03 0.  0.
<mgrwt>
<rscale>  0 0.64300913E+03</rscale>
<asrwt>0</asrwt>
<pdfrwt beam="1">  1        1 0.65482316E-01 0.64300913E+03</pdfrwt>
<pdfrwt beam="2">  1       -1 0.32214707E-01 0.64300913E+03</pdfrwt>
<totfact> 0.50137200E+02</totfact>
</mgrwt>
</event>
<event>
 4    1  0.2428650E-005  0.7472746E+03  0.7818608E-02  0.9639636E-01
          1   -1    0    0  501    0  0.00000000000E+00  0.00000000000E+00  0.12560348292E+04  0.12560348292E+04  0.50400000000E-02 0. -1.
         -1   -1    0    0    0  501 -0.00000000000E+00 -0.00000000000E+00 -0.11114726701E+03  0.11114726713E+03  0.50400000000E-02 0.  1.
    5000001    1    1    2    0    0 -0.99370227605E+02  0.30230976076E+03  0.76532295332E+03  0.84510937545E+03  0.16500000000E+03 0.  0.
   -5000001    1    1    2    0    0  0.99370227605E+02 -0.30230976076E+03  0.37956460884E+03  0.52207272086E+03  0.16500000000E+03 0.  0.
<mgrwt>
<rscale>  0 0.74727462E+03</rscale>
<asrwt>0</asrwt>
<pdfrwt beam="1">  1        1 0.17943355E+00 0.74727462E+03</pdfrwt>
<pdfrwt beam="2">  1       -1 0.15878181E-01 0.74727462E+03</pdfrwt>
<totfact> 0.34322355E+02</totfact>
</mgrwt>
</event>
<event>
 4    1  0.2428650E-005  0.5041326E+03  0.7818608E-02  0.1012706E+00
         -1   -1    0    0    0  501 -0.00000000000E+00  0.00000000000E+00  0.67020486560E+02  0.67020486750E+02  0.50400000000E-02 0. -1.
          1   -1    0    0  501    0  0.00000000000E+00 -0.00000000000E+00 -0.94802966076E+03  0.94802966077E+03  0.50400000000E-02 0.  1.
    5000001    1    1    2    0    0  0.18348730621E+03  0.50426669146E+02 -0.42017276602E+03  0.48987814179E+03  0.16500000000E+03 0.  0.
   -5000001    1    1    2    0    0 -0.18348730621E+03 -0.50426669146E+02 -0.46083640818E+03  0.52517200573E+03  0.16500000000E+03 0.  0.
<mgrwt>
<rscale>  0 0.50413256E+03</rscale>
<asrwt>0</asrwt>
<pdfrwt beam="1">  1        1 0.13543280E+00 0.50413256E+03</pdfrwt>
<pdfrwt beam="2">  1       -1 0.95743558E-02 0.50413256E+03</pdfrwt>
<totfact> 0.12888070E+03</totfact>
</mgrwt>
</event>
<event>
 4    1  0.2428650E-005  0.4708186E+03  0.7818608E-02  0.1021689E+00
          1   -1    0    0  501    0  0.00000000000E+00  0.00000000000E+00  0.60752141183E+03  0.60752141185E+03  0.50400000000E-02 0.  1.
         -1   -1    0    0    0  501 -0.00000000000E+00 -0.00000000000E+00 -0.91219082898E+02  0.91219083037E+02  0.50400000000E-02 0. -1.
    5000001    1    1    2    0    0  0.52690649777E+01  0.77371840522E+02  0.37133393232E+02  0.18605927455E+03  0.16500000000E+03 0.  0.
   -5000001    1    1    2    0    0 -0.52690649777E+01 -0.77371840522E+02  0.47916893570E+03  0.51268122034E+03  0.16500000000E+03 0.  0.
<mgrwt>
<rscale>  0 0.47081863E+03</rscale>
<asrwt>0</asrwt>
<pdfrwt beam="1">  1        1 0.86788775E-01 0.47081863E+03</pdfrwt>
<pdfrwt beam="2">  1       -1 0.13031297E-01 0.47081863E+03</pdfrwt>
<totfact> 0.15464813E+03</totfact>
</mgrwt>
</event>
<event>
 4    1  0.2428650E-005  0.5538498E+03  0.7818608E-02  0.1000607E+00
         -1   -1    0    0    0  501 -0.00000000000E+00  0.00000000000E+00  0.26992622377E+03  0.26992622382E+03  0.50400000000E-02 0.  1.
          1   -1    0    0  501    0  0.00000000000E+00 -0.00000000000E+00 -0.28410507038E+03  0.28410507042E+03  0.50400000000E-02 0. -1.
    5000001    1    1    2    0    0 -0.84009118244E+02 -0.19787720405E+03 -0.64112389453E+02  0.27847498687E+03  0.16500000000E+03 0.  0.
   -5000001    1    1    2    0    0  0.84009118244E+02  0.19787720405E+03  0.49933542846E+02  0.27555630737E+03  0.16500000000E+03 0.  0.
<mgrwt>
<rscale>  0 0.55384983E+03</rscale>
<asrwt>0</asrwt>
<pdfrwt beam="1">  1        1 0.40586438E-01 0.55384983E+03</pdfrwt>
<pdfrwt beam="2">  1       -1 0.38560889E-01 0.55384983E+03</pdfrwt>
<totfact> 0.68012067E+02</totfact>
</mgrwt>
</event>
<event>
 4    1  0.2428650E-005  0.4414797E+03  0.7818608E-02  0.1030294E+00
         -1   -1    0    0    0  501 -0.00000000000E+00  0.00000000000E+00  0.34953275972E+03  0.34953275975E+03  0.50400000000E-02 0. -1.
          1   -1    0    0  501    0  0.00000000000E+00 -0.00000000000E+00 -0.13940345683E+03  0.13940345692E+03  0.50400000000E-02 0.  1.
    5000001    1    1    2    0    0  0.89736506876E+02  0.10809938829E+03  0.15156565304E+03  0.26445276629E+03  0.16500000000E+03 0.  0.
   -5000001    1    1    2    0    0 -0.89736506876E+02 -0.10809938829E+03  0.58563649844E+02  0.22448345039E+03  0.16500000000E+03 0.  0.
<mgrwt>
<rscale>  0 0.44147967E+03</rscale>
<asrwt>0</asrwt>
<pdfrwt beam="1">  1        1 0.19914779E-01 0.44147967E+03</pdfrwt>
<pdfrwt beam="2">  1       -1 0.49933252E-01 0.44147967E+03</pdfrwt>
<totfact> 0.10627768E+03</totfact>
</mgrwt>
</event>
<event>
 4    1  0.2428650E-005  0.4574342E+03  0.7818608E-02  0.1025528E+00
          1   -1    0    0  501    0  0.00000000000E+00  0.00000000000E+00  0.15154508177E+04  0.15154508177E+04  0.50400000000E-02 0.  1.
         -1   -1    0    0    0  501 -0.00000000000E+00 -0.00000000000E+00 -0.34518779133E+02  0.34518779501E+02  0.50400000000E-02 0. -1.
    5000001    1    1    2    0    0 -0.67684178513E+02  0.19508585624E+01  0.25530267153E+03  0.31143122509E+03  0.16500000000E+03 0.  0.
   -5000001    1    1    2    0    0  0.67684178513E+02 -0.19508585624E+01  0.12256293670E+04  0.12385383721E+04  0.16500000000E+03 0.  0.
<mgrwt>
<rscale>  0 0.45743420E+03</rscale>
<asrwt>0</asrwt>
<pdfrwt beam="1">  1        1 0.21649301E+00 0.45743420E+03</pdfrwt>
<pdfrwt beam="2">  1       -1 0.49312533E-02 0.45743420E+03</pdfrwt>
<totfact> 0.14751596E+03</totfact>
</mgrwt>
</event>
<event>
 4    1  0.2428650E-005  0.5397498E+03  0.7818608E-02  0.1003895E+00
          1   -1    0    0  501    0  0.00000000000E+00  0.00000000000E+00  0.61446680547E+03  0.61446680549E+03  0.50400000000E-02 0.  1.
         -1   -1    0    0    0  501 -0.00000000000E+00 -0.00000000000E+00 -0.11852952153E+03  0.11852952164E+03  0.50400000000E-02 0. -1.
    5000001    1    1    2    0    0 -0.17038505513E+03 -0.31871038150E+02  0.41737233032E+03  0.48111484305E+03  0.16500000000E+03 0.  0.
   -5000001    1    1    2    0    0  0.17038505513E+03  0.31871038150E+02  0.78564953616E+02  0.25188148408E+03  0.16500000000E+03 0.  0.
<mgrwt>
<rscale>  0 0.53974978E+03</rscale>
<asrwt>0</asrwt>
<pdfrwt beam="1">  1        1 0.87780972E-01 0.53974978E+03</pdfrwt>
<pdfrwt beam="2">  1       -1 0.16932789E-01 0.53974978E+03</pdfrwt>
<totfact> 0.99738150E+02</totfact>
</mgrwt>
</event>
<event>
 4    1  0.2428650E-005  0.5564367E+03  0.7818608E-02  0.1000015E+00
          1   -1    0    0  501    0  0.00000000000E+00  0.00000000000E+00  0.42469480678E+03  0.42469480681E+03  0.50400000000E-02 0.  1.
         -1   -1    0    0    0  501 -0.00000000000E+00 -0.00000000000E+00 -0.18226138251E+03  0.18226138258E+03  0.50400000000E-02 0. -1.
    5000001    1    1    2    0    0  0.19973549349E+03 -0.99295632179E+02  0.14374551358E+03  0.31247665929E+03  0.16500000000E+03 0.  0.
   -5000001    1    1    2    0    0 -0.19973549349E+03  0.99295632179E+02  0.98687910686E+02  0.29447953009E+03  0.16500000000E+03 0.  0.
<mgrwt>
<rscale>  0 0.55643674E+03</rscale>
<asrwt>0</asrwt>
<pdfrwt beam="1">  1        1 0.60670686E-01 0.55643674E+03</pdfrwt>
<pdfrwt beam="2">  1       -1 0.26037341E-01 0.55643674E+03</pdfrwt>
<totfact> 0.80271038E+02</totfact>
</mgrwt>
</event>
<event>
 4    1  0.2428650E-005  0.6682210E+03  0.7818608E-02  0.9773177E-01
          1   -1    0    0  501    0  0.00000000000E+00  0.00000000000E+00  0.10089666155E+04  0.10089666156E+04  0.50400000000E-02 0.  1.
         -1   -1    0    0    0  501 -0.00000000000E+00 -0.00000000000E+00 -0.11063777266E+03  0.11063777278E+03  0.50400000000E-02 0. -1.
    5000001    1    1    2    0    0  0.16566446815E+03  0.12790377211E+03  0.11155745681E+03  0.28891894555E+03  0.16500000000E+03 0.  0.
   -5000001    1    1    2    0    0 -0.16566446815E+03 -0.12790377211E+03  0.78677138607E+03  0.83068544279E+03  0.16500000000E+03 0.  0.
<mgrwt>
<rscale>  0 0.66822098E+03</rscale>
<asrwt>0</asrwt>
<pdfrwt beam="1">  1        1 0.14413809E+00 0.66822098E+03</pdfrwt>
<pdfrwt beam="2">  1       -1 0.15805396E-01 0.66822098E+03</pdfrwt>
<totfact> 0.51854649E+02</totfact>
</mgrwt>
</event>
<event>
 4    1  0.2428650E-005  0.6495894E+03  0.7818608E-02  0.9807550E-01
          1   -1    0    0  501    0  0.00000000000E+00  0.00000000000E+00  0.10192543011E+04  0.10192543011E+04  0.50400000000E-02 0.  1.
         -1   -1    0    0    0  501 -0.00000000000E+00 -0.00000000000E+00 -0.10349879615E+03  0.10349879627E+03  0.50400000000E-02 0. -1.
    5000001    1    1    2    0    0  0.13293276055E+03  0.20240553805E+03  0.21573162400E+03  0.36387395380E+03  0.16500000000E+03 0.  0.
   -5000001    1    1    2    0    0 -0.13293276055E+03 -0.20240553805E+03  0.70002388091E+03  0.75887914354E+03  0.16500000000E+03 0.  0.
<mgrwt>
<rscale>  0 0.64958939E+03</rscale>
<asrwt>0</asrwt>
<pdfrwt beam="1">  1        1 0.14560776E+00 0.64958939E+03</pdfrwt>
<pdfrwt beam="2">  1       -1 0.14785542E-01 0.64958939E+03</pdfrwt>
<totfact> 0.56834921E+02</totfact>
</mgrwt>
</event>
<event>
 4    1  0.2428650E-005  0.3451808E+03  0.7818608E-02  0.1064611E+00
          1   -1    0    0  501    0  0.00000000000E+00  0.00000000000E+00  0.37579966094E+02  0.37579966432E+02  0.50400000000E-02 0.  1.
         -1   -1    0    0    0  501 -0.00000000000E+00 -0.00000000000E+00 -0.79264183871E+03  0.79264183873E+03  0.50400000000E-02 0. -1.
    5000001    1    1    2    0    0 -0.80612532302E+01  0.21987359027E+02 -0.26959154452E+03  0.31694325776E+03  0.16500000000E+03 0.  0.
   -5000001    1    1    2    0    0  0.80612532302E+01 -0.21987359027E+02 -0.48547032810E+03  0.51327854740E+03  0.16500000000E+03 0.  0.
<mgrwt>
<rscale>  0 0.34518084E+03</rscale>
<asrwt>0</asrwt>
<pdfrwt beam="1">  1        1 0.53685671E-02 0.34518084E+03</pdfrwt>
<pdfrwt beam="2">  1       -1 0.11323454E+00 0.34518084E+03</pdfrwt>
<totfact> 0.11476518E+03</totfact>
</mgrwt>
</event>
<event>
 4    1  0.2428650E-005  0.3566582E+03  0.7818608E-02  0.1059915E+00
         -1   -1    0    0    0  501 -0.00000000000E+00  0.00000000000E+00  0.62868731668E+03  0.62868731670E+03  0.50400000000E-02 0. -1.
          1   -1    0    0  501    0  0.00000000000E+00 -0.00000000000E+00 -0.50583608744E+02  0.50583608995E+02  0.50400000000E-02 0.  1.
    5000001    1    1    2    0    0  0.28217392193E+02  0.51394247562E+02  0.35331948289E+03  0.39433139223E+03  0.16500000000E+03 0.  0.
   -5000001    1    1    2    0    0 -0.28217392193E+02 -0.51394247562E+02  0.22478422505E+03  0.28493953347E+03  0.16500000000E+03 0.  0.
<mgrwt>
<rscale>  0 0.35665823E+03</rscale>
<asrwt>0</asrwt>
<pdfrwt beam="1">  1        1 0.72262299E-02 0.35665823E+03</pdfrwt>
<pdfrwt beam="2">  1       -1 0.89812473E-01 0.35665823E+03</pdfrwt>
<totfact> 0.12810139E+03</totfact>
</mgrwt>
</event>
<event>
 4    1  0.2428650E-005  0.5714750E+03  0.7818608E-02  0.9966420E-01
         -1   -1    0    0    0  501 -0.00000000000E+00  0.00000000000E+00  0.49454622850E+02  0.49454623107E+02  0.50400000000E-02 0. -1.
          1   -1    0    0  501    0  0.00000000000E+00 -0.00000000000E+00 -0.16509256750E+04  0.16509256750E+04  0.50400000000E-02 0.  1.
    5000001    1    1    2    0    0  0.11391024772E+03 -0.11899592463E+03 -0.30924688738E+03  0.38729086223E+03  0.16500000000E+03 0.  0.
   -5000001    1    1    2    0    0 -0.11391024772E+03  0.11899592463E+03 -0.12922241648E+04  0.13130894359E+04  0.16500000000E+03 0.  0.
<mgrwt>
<rscale>  0 0.57147496E+03</rscale>
<asrwt>0</asrwt>
<pdfrwt beam="1">  1        1 0.23584649E+00 0.57147496E+03</pdfrwt>
<pdfrwt beam="2">  1       -1 0.70649472E-02 0.57147496E+03</pdfrwt>
<totfact> 0.69428077E+02</totfact>
</mgrwt>
</event>
<event>
 4    1  0.2428650E-005  0.4662309E+03  0.7818608E-02  0.1022989E+00
         -1   -1    0    0    0  501 -0.00000000000E+00  0.00000000000E+00  0.21354066705E+03  0.21354066711E+03  0.50400000000E-02 0. -1.
          1   -1    0    0  501    0  0.00000000000E+00 -0.00000000000E+00 -0.25448455516E+03  0.25448455521E+03  0.50400000000E-02 0.  1.
    5000001    1    1    2    0    0 -0.14394373455E+03  0.76340162327E+01 -0.10040077335E+03  0.24100496304E+03  0.16500000000E+03 0.  0.
   -5000001    1    1    2    0    0  0.14394373455E+03 -0.76340162327E+01  0.59456885242E+02  0.22702025928E+03  0.16500000000E+03 0.  0.
<mgrwt>
<rscale>  0 0.46623085E+03</rscale>
<asrwt>0</asrwt>
<pdfrwt beam="1">  1        1 0.36354936E-01 0.46623085E+03</pdfrwt>
<pdfrwt beam="2">  1       -1 0.30505810E-01 0.46623085E+03</pdfrwt>
<totfact> 0.11839728E+03</totfact>
</mgrwt>
</event>
<event>
 4    1  0.2428650E-005  0.5091526E+03  0.7818608E-02  0.1011417E+00
         -1   -1    0    0    0  501 -0.00000000000E+00  0.00000000000E+00  0.52687149674E+02  0.52687149916E+02  0.50400000000E-02 0. -1.
          1   -1    0    0  501    0  0.00000000000E+00 -0.00000000000E+00 -0.12300742266E+04  0.12300742266E+04  0.50400000000E-02 0.  1.
    5000001    1    1    2    0    0 -0.10783903267E+03  0.14354733094E+03 -0.77295505766E+03  0.81050577688E+03  0.16500000000E+03 0.  0.
   -5000001    1    1    2    0    0  0.10783903267E+03 -0.14354733094E+03 -0.40443201922E+03  0.47225559960E+03  0.16500000000E+03 0.  0.
<mgrwt>
<rscale>  0 0.50915265E+03</rscale>
<asrwt>0</asrwt>
<pdfrwt beam="1">  1        1 0.17572487E+00 0.50915265E+03</pdfrwt>
<pdfrwt beam="2">  1       -1 0.75267365E-02 0.50915265E+03</pdfrwt>
<totfact> 0.11821151E+03</totfact>
</mgrwt>
</event>
<event>
 4    1  0.2428650E-005  0.4013938E+03  0.7818608E-02  0.1043298E+00
         -1   -1    0    0    0  501 -0.00000000000E+00  0.00000000000E+00  0.72387443851E+01  0.72387461396E+01  0.50400000000E-02 0.  1.
          1   -1    0    0  501    0  0.00000000000E+00 -0.00000000000E+00 -0.55643948502E+04  0.55643948502E+04  0.50400000000E-02 0. -1.
    5000001    1    1    2    0    0 -0.97985034372E+01  0.10345865873E+03 -0.34376611154E+04  0.34431872806E+04  0.16500000000E+03 0.  0.
   -5000001    1    1    2    0    0  0.97985034372E+01 -0.10345865873E+03 -0.21194949904E+04  0.21284463157E+04  0.16500000000E+03 0.  0.
<mgrwt>
<rscale>  0 0.40139376E+03</rscale>
<asrwt>0</asrwt>
<pdfrwt beam="1">  1        1 0.79491081E+00 0.40139376E+03</pdfrwt>
<pdfrwt beam="2">  1       -1 0.10341100E-02 0.40139376E+03</pdfrwt>
<totfact> 0.13077384E+01</totfact>
</mgrwt>
</event>
<event>
 4    1  0.2428650E-005  0.4104384E+03  0.7818608E-02  0.1040224E+00
          1   -1    0    0  501    0  0.00000000000E+00  0.00000000000E+00  0.24164850125E+04  0.24164850125E+04  0.50400000000E-02 0.  1.
         -1   -1    0    0    0  501 -0.00000000000E+00 -0.00000000000E+00 -0.17428173631E+02  0.17428174360E+02  0.50400000000E-02 0. -1.
    5000001    1    1    2    0    0  0.38606534525E+02  0.11537110897E+03  0.12554609129E+04  0.12720880712E+04  0.16500000000E+03 0.  0.
   -5000001    1    1    2    0    0 -0.38606534525E+02 -0.11537110897E+03  0.11435959260E+04  0.11618251156E+04  0.16500000000E+03 0.  0.
<mgrwt>
<rscale>  0 0.41043841E+03</rscale>
<asrwt>0</asrwt>
<pdfrwt beam="1">  1        1 0.34521231E+00 0.41043841E+03</pdfrwt>
<pdfrwt beam="2">  1       -1 0.24897379E-02 0.41043841E+03</pdfrwt>
<totfact> 0.11491884E+03</totfact>
</mgrwt>
</event>
<event>
 4    1  0.2428650E-005  0.5744804E+03  0.7818608E-02  0.9959813E-01
         -1   -1    0    0    0  501 -0.00000000000E+00  0.00000000000E+00  0.10057157472E+04  0.10057157472E+04  0.50400000000E-02 0. -1.
          1   -1    0    0  501    0  0.00000000000E+00 -0.00000000000E+00 -0.82038014988E+02  0.82038015143E+02  0.50400000000E-02 0.  1.
    5000001    1    1    2    0    0  0.37185867445E+02 -0.14287682298E+03  0.80832256894E+03  0.83809722034E+03  0.16500000000E+03 0.  0.
   -5000001    1    1    2    0    0 -0.37185867445E+02  0.14287682298E+03  0.11535516329E+03  0.24965654203E+03  0.16500000000E+03 0.  0.
<mgrwt>
<rscale>  0 0.57448037E+03</rscale>
<asrwt>0</asrwt>
<pdfrwt beam="1">  1        1 0.11719717E-01 0.57448037E+03</pdfrwt>
<pdfrwt beam="2">  1       -1 0.14367367E+00 0.57448037E+03</pdfrwt>
<totfact> 0.21595872E+02</totfact>
</mgrwt>
</event>
<event>
 4    1  0.2428650E-005  0.5019388E+03  0.7818608E-02  0.1013274E+00
          1   -1    0    0  501    0  0.00000000000E+00  0.00000000000E+00  0.78450318698E+02  0.78450318860E+02  0.50400000000E-02 0.  1.
         -1   -1    0    0    0  501 -0.00000000000E+00 -0.00000000000E+00 -0.80287309473E+03  0.80287309475E+03  0.50400000000E-02 0. -1.
    5000001    1    1    2    0    0  0.13806396582E+03 -0.12750960329E+03 -0.39905440776E+03  0.47094562100E+03  0.16500000000E+03 0.  0.
   -5000001    1    1    2    0    0 -0.13806396582E+03  0.12750960329E+03 -0.32536836828E+03  0.41037779261E+03  0.16500000000E+03 0.  0.
<mgrwt>
<rscale>  0 0.50193884E+03</rscale>
<asrwt>0</asrwt>
<pdfrwt beam="1">  1        1 0.11207189E-01 0.50193884E+03</pdfrwt>
<pdfrwt beam="2">  1       -1 0.11469615E+00 0.50193884E+03</pdfrwt>
<totfact> 0.40326900E+02</totfact>
</mgrwt>
</event>
<event>
 4    1  0.2428650E-005  0.7244056E+03  0.7818608E-02  0.9676382E-01
         -1   -1    0    0    0  501 -0.00000000000E+00  0.00000000000E+00  0.50770429301E+02  0.50770429551E+02  0.50400000000E-02 0. -1.
          1   -1    0    0  501    0  0.00000000000E+00 -0.00000000000E+00 -0.25840016967E+04  0.25840016967E+04  0.50400000000E-02 0.  1.
    5000001    1    1    2    0    0  0.16131240913E+03 -0.25112416721E+03 -0.17103007916E+04  0.17439721438E+04  0.16500000000E+03 0.  0.
   -5000001    1    1    2    0    0 -0.16131240913E+03  0.25112416721E+03 -0.82293047581E+03  0.89079998244E+03  0.16500000000E+03 0.  0.
<mgrwt>
<rscale>  0 0.72440562E+03</rscale>
<asrwt>0</asrwt>
<pdfrwt beam="1">  1        1 0.36914302E+00 0.72440562E+03</pdfrwt>
<pdfrwt beam="2">  1       -1 0.72529201E-02 0.72440562E+03</pdfrwt>
<totfact> 0.17320894E+02</totfact>
</mgrwt>
</event>
<event>
 4    1  0.2428650E-005  0.4791147E+03  0.7818608E-02  0.1019379E+00
          1   -1    0    0  501    0  0.00000000000E+00  0.00000000000E+00  0.19585008961E+04  0.19585008961E+04  0.50400000000E-02 0.  1.
         -1   -1    0    0    0  501 -0.00000000000E+00 -0.00000000000E+00 -0.29301859282E+02  0.29301859716E+02  0.50400000000E-02 0. -1.
    5000001    1    1    2    0    0  0.10047650297E+03 -0.13805460324E+03  0.10963309095E+04  0.11217491093E+04  0.16500000000E+03 0.  0.
   -5000001    1    1    2    0    0 -0.10047650297E+03  0.13805460324E+03  0.83286812728E+03  0.86605364647E+03  0.16500000000E+03 0.  0.
<mgrwt>
<rscale>  0 0.47911468E+03</rscale>
<asrwt>0</asrwt>
<pdfrwt beam="1">  1        1 0.27978579E+00 0.47911468E+03</pdfrwt>
<pdfrwt beam="2">  1       -1 0.41859807E-02 0.47911468E+03</pdfrwt>
<totfact> 0.10021142E+03</totfact>
</mgrwt>
</event>
<event>
 4    1  0.2428650E-005  0.4979056E+03  0.7818608E-02  0.1014327E+00
         -1   -1    0    0    0  501 -0.00000000000E+00  0.00000000000E+00  0.19560653072E+03  0.19560653079E+03  0.50400000000E-02 0.  1.
          1   -1    0    0  501    0  0.00000000000E+00 -0.00000000000E+00 -0.31684773934E+03  0.31684773938E+03  0.50400000000E-02 0. -1.
    5000001    1    1    2    0    0 -0.14461991368E+03 -0.63848128914E+02  0.41063938734E+02  0.23216965793E+03  0.16500000000E+03 0.  0.
   -5000001    1    1    2    0    0  0.14461991368E+03  0.63848128914E+02 -0.16230514735E+03  0.28028461224E+03  0.16500000000E+03 0.  0.
<mgrwt>
<rscale>  0 0.49790556E+03</rscale>
<asrwt>0</asrwt>
<pdfrwt beam="1">  1        1 0.45263962E-01 0.49790556E+03</pdfrwt>
<pdfrwt beam="2">  1       -1 0.27943790E-01 0.49790556E+03</pdfrwt>
<totfact> 0.10403484E+03</totfact>
</mgrwt>
</event>
<event>
 4    1  0.2428650E-005  0.4335078E+03  0.7818608E-02  0.1032758E+00
         -1   -1    0    0    0  501 -0.00000000000E+00  0.00000000000E+00  0.15266302045E+03  0.15266302053E+03  0.50400000000E-02 0. -1.
          1   -1    0    0  501    0  0.00000000000E+00 -0.00000000000E+00 -0.30775130853E+03  0.30775130857E+03  0.50400000000E-02 0.  1.
    5000001    1    1    2    0    0  0.24102596765E+02  0.13834493703E+03 -0.71084928007E+02  0.22803140960E+03  0.16500000000E+03 0.  0.
   -5000001    1    1    2    0    0 -0.24102596765E+02 -0.13834493703E+03 -0.84003360074E+02  0.23238291950E+03  0.16500000000E+03 0.  0.
<mgrwt>
<rscale>  0 0.43350776E+03</rscale>
<asrwt>0</asrwt>
<pdfrwt beam="1">  1        1 0.43964472E-01 0.43350776E+03</pdfrwt>
<pdfrwt beam="2">  1       -1 0.21809003E-01 0.43350776E+03</pdfrwt>
<totfact> 0.16390297E+03</totfact>
</mgrwt>
</event>
<event>
 4    1  0.2428650E-005  0.3976297E+03  0.7818608E-02  0.1044604E+00
         -1   -1    0    0    0  501 -0.00000000000E+00  0.00000000000E+00  0.79034431740E+02  0.79034431901E+02  0.50400000000E-02 0. -1.
          1   -1    0    0  501    0  0.00000000000E+00 -0.00000000000E+00 -0.50012826667E+03  0.50012826670E+03  0.50400000000E-02 0.  1.
    5000001    1    1    2    0    0  0.10868438813E+02 -0.10889336480E+03 -0.23686416089E+03  0.30871591888E+03  0.16500000000E+03 0.  0.
   -5000001    1    1    2    0    0 -0.10868438813E+02  0.10889336480E+03 -0.18422967404E+03  0.27044677971E+03  0.16500000000E+03 0.  0.
<mgrwt>
<rscale>  0 0.39762974E+03</rscale>
<asrwt>0</asrwt>
<pdfrwt beam="1">  1        1 0.71446893E-01 0.39762974E+03</pdfrwt>
<pdfrwt beam="2">  1       -1 0.11290633E-01 0.39762974E+03</pdfrwt>
<totfact> 0.25251049E+03</totfact>
</mgrwt>
</event>
<event>
 4    1  0.2428650E-005  0.4743382E+03  0.7818608E-02  0.1020703E+00
         -1   -1    0    0    0  501 -0.00000000000E+00  0.00000000000E+00  0.10146385384E+03  0.10146385396E+03  0.50400000000E-02 0. -1.
          1   -1    0    0  501    0  0.00000000000E+00 -0.00000000000E+00 -0.55437651407E+03  0.55437651410E+03  0.50400000000E-02 0.  1.
    5000001    1    1    2    0    0  0.12744187270E+03 -0.75259131405E+02 -0.34311412343E+03  0.40848215319E+03  0.16500000000E+03 0.  0.
   -5000001    1    1    2    0    0 -0.12744187270E+03  0.75259131405E+02 -0.10979853680E+03  0.24735821487E+03  0.16500000000E+03 0.  0.
<mgrwt>
<rscale>  0 0.47433818E+03</rscale>
<asrwt>0</asrwt>
<pdfrwt beam="1">  1        1 0.79196644E-01 0.47433818E+03</pdfrwt>
<pdfrwt beam="2">  1       -1 0.14494837E-01 0.47433818E+03</pdfrwt>
<totfact> 0.14797172E+03</totfact>
</mgrwt>
</event>
<event>
 4    1  0.2428650E-005  0.3548923E+03  0.7818608E-02  0.1060625E+00
          1   -1    0    0  501    0  0.00000000000E+00  0.00000000000E+00  0.16907644966E+03  0.16907644973E+03  0.50400000000E-02 0.  1.
         -1   -1    0    0    0  501 -0.00000000000E+00 -0.00000000000E+00 -0.18623017149E+03  0.18623017156E+03  0.50400000000E-02 0. -1.
    5000001    1    1    2    0    0 -0.46144720283E+02  0.42209081351E+02  0.10185201017E+02  0.17674750374E+03  0.16500000000E+03 0.  0.
   -5000001    1    1    2    0    0  0.46144720283E+02 -0.42209081351E+02 -0.27338922855E+02  0.17855911755E+03  0.16500000000E+03 0.  0.
<mgrwt>
<rscale>  0 0.35489230E+03</rscale>
<asrwt>0</asrwt>
<pdfrwt beam="1">  1        1 0.24153779E-01 0.35489230E+03</pdfrwt>
<pdfrwt beam="2">  1       -1 0.26604310E-01 0.35489230E+03</pdfrwt>
<totfact> 0.25174058E+03</totfact>
</mgrwt>
</event>
<event>
 4    1  0.2428650E-005  0.7651722E+03  0.7818608E-02  0.9611844E-01
         -1   -1    0    0    0  501 -0.00000000000E+00  0.00000000000E+00  0.50594111862E+02  0.50594112113E+02  0.50400000000E-02 0. -1.
          1   -1    0    0  501    0  0.00000000000E+00 -0.00000000000E+00 -0.28930667290E+04  0.28930667291E+04  0.50400000000E-02 0.  1.
    5000001    1    1    2    0    0  0.32209522983E+03 -0.12130669023E+03 -0.15220329991E+04  0.15691622289E+04  0.16500000000E+03 0.  0.
   -5000001    1    1    2    0    0 -0.32209522983E+03  0.12130669023E+03 -0.13204396181E+04  0.13744986123E+04  0.16500000000E+03 0.  0.
<mgrwt>
<rscale>  0 0.76517225E+03</rscale>
<asrwt>0</asrwt>
<pdfrwt beam="1">  1        1 0.41329514E+00 0.76517225E+03</pdfrwt>
<pdfrwt beam="2">  1       -1 0.72277321E-02 0.76517225E+03</pdfrwt>
<totfact> 0.11030850E+02</totfact>
</mgrwt>
</event>
<event>
 4    1  0.2428650E-005  0.7503629E+03  0.7818608E-02  0.9634781E-01
         -1   -1    0    0    0  501 -0.00000000000E+00  0.00000000000E+00  0.10286484307E+03  0.10286484320E+03  0.50400000000E-02 0.  1.
          1   -1    0    0  501    0  0.00000000000E+00 -0.00000000000E+00 -0.13684083829E+04  0.13684083829E+04  0.50400000000E-02 0. -1.
    5000001    1    1    2    0    0 -0.16236557702E+03  0.53839290019E+02 -0.12019798011E+04  0.12252516851E+04  0.16500000000E+03 0.  0.
   -5000001    1    1    2    0    0  0.16236557702E+03 -0.53839290019E+02 -0.63563738795E+02  0.24602154101E+03  0.16500000000E+03 0.  0.
<mgrwt>
<rscale>  0 0.75036288E+03</rscale>
<asrwt>0</asrwt>
<pdfrwt beam="1">  1        1 0.19548690E+00 0.75036288E+03</pdfrwt>
<pdfrwt beam="2">  1       -1 0.14694978E-01 0.75036288E+03</pdfrwt>
<totfact> 0.32740052E+02</totfact>
</mgrwt>
</event>
<event>
 4    1  0.2428650E-005  0.6733575E+03  0.7818608E-02  0.9763911E-01
         -1   -1    0    0    0  501 -0.00000000000E+00  0.00000000000E+00  0.80651394472E+02  0.80651394630E+02  0.50400000000E-02 0. -1.
          1   -1    0    0  501    0  0.00000000000E+00 -0.00000000000E+00 -0.14054635328E+04  0.14054635328E+04  0.50400000000E-02 0.  1.
    5000001    1    1    2    0    0 -0.18993783083E+03  0.14906073326E+03 -0.29420948747E+03  0.41482490800E+03  0.16500000000E+03 0.  0.
   -5000001    1    1    2    0    0  0.18993783083E+03 -0.14906073326E+03 -0.10306026508E+04  0.10712900194E+04  0.16500000000E+03 0.  0.
<mgrwt>
<rscale>  0 0.67335754E+03</rscale>
<asrwt>0</asrwt>
<pdfrwt beam="1">  1        1 0.20078049E+00 0.67335754E+03</pdfrwt>
<pdfrwt beam="2">  1       -1 0.11521629E-01 0.67335754E+03</pdfrwt>
<totfact> 0.45981906E+02</totfact>
</mgrwt>
</event>
<event>
 4    1  0.2428650E-005  0.3687396E+03  0.7818608E-02  0.1055176E+00
         -1   -1    0    0    0  501 -0.00000000000E+00  0.00000000000E+00  0.25120983866E+03  0.25120983872E+03  0.50400000000E-02 0. -1.
          1   -1    0    0  501    0  0.00000000000E+00 -0.00000000000E+00 -0.13531403703E+03  0.13531403712E+03  0.50400000000E-02 0.  1.
    5000001    1    1    2    0    0 -0.76258141009E+02  0.19163322282E+02  0.83294276499E+02  0.20086182686E+03  0.16500000000E+03 0.  0.
   -5000001    1    1    2    0    0  0.76258141009E+02 -0.19163322282E+02  0.32601525135E+02  0.18566204898E+03  0.16500000000E+03 0.  0.
<mgrwt>
<rscale>  0 0.36873957E+03</rscale>
<asrwt>0</asrwt>
<pdfrwt beam="1">  1        1 0.19330577E-01 0.36873957E+03</pdfrwt>
<pdfrwt beam="2">  1       -1 0.35887120E-01 0.36873957E+03</pdfrwt>
<totfact> 0.20075797E+03</totfact>
</mgrwt>
</event>
<event>
 4    1  0.2428650E-005  0.8983915E+03  0.7818608E-02  0.9427594E-01
         -1   -1    0    0    0  501 -0.00000000000E+00  0.00000000000E+00  0.53312380151E+03  0.53312380153E+03  0.50400000000E-02 0.  1.
          1   -1    0    0  501    0  0.00000000000E+00 -0.00000000000E+00 -0.37848022613E+03  0.37848022617E+03  0.50400000000E-02 0. -1.
    5000001    1    1    2    0    0  0.22196314581E+03 -0.46772627901E+02 -0.27868924675E+03  0.39540866590E+03  0.16500000000E+03 0.  0.
   -5000001    1    1    2    0    0 -0.22196314581E+03  0.46772627901E+02  0.43333282212E+03  0.51619536180E+03  0.16500000000E+03 0.  0.
<mgrwt>
<rscale>  0 0.89839149E+03</rscale>
<asrwt>0</asrwt>
<pdfrwt beam="1">  1        1 0.54068604E-01 0.89839149E+03</pdfrwt>
<pdfrwt beam="2">  1       -1 0.76160543E-01 0.89839149E+03</pdfrwt>
<totfact> 0.12431180E+02</totfact>
</mgrwt>
</event>
<event>
 4    1  0.2428650E-005  0.4167177E+03  0.7818608E-02  0.1038140E+00
          1   -1    0    0  501    0  0.00000000000E+00  0.00000000000E+00  0.49554169473E+03  0.49554169476E+03  0.50400000000E-02 0.  1.
         -1   -1    0    0    0  501 -0.00000000000E+00 -0.00000000000E+00 -0.87607981001E+02  0.87607981146E+02  0.50400000000E-02 0. -1.
    5000001    1    1    2    0    0 -0.11382863952E+03  0.56798050994E+02  0.20070605651E+03  0.28929379338E+03  0.16500000000E+03 0.  0.
   -5000001    1    1    2    0    0  0.11382863952E+03 -0.56798050994E+02  0.20722765723E+03  0.29385588252E+03  0.16500000000E+03 0.  0.
<mgrwt>
<rscale>  0 0.41671769E+03</rscale>
<asrwt>0</asrwt>
<pdfrwt beam="1">  1        1 0.70791673E-01 0.41671769E+03</pdfrwt>
<pdfrwt beam="2">  1       -1 0.12515425E-01 0.41671769E+03</pdfrwt>
<totfact> 0.21737749E+03</totfact>
</mgrwt>
</event>
<event>
 4    1  0.2428650E-005  0.3968050E+03  0.7818608E-02  0.1044892E+00
         -1   -1    0    0    0  501 -0.00000000000E+00  0.00000000000E+00  0.75857551369E+02  0.75857551536E+02  0.50400000000E-02 0. -1.
          1   -1    0    0  501    0  0.00000000000E+00 -0.00000000000E+00 -0.51891398377E+03  0.51891398379E+03  0.50400000000E-02 0.  1.
    5000001    1    1    2    0    0  0.10597134227E+03 -0.14054627621E+02 -0.18155820799E+03  0.26761136154E+03  0.16500000000E+03 0.  0.
   -5000001    1    1    2    0    0 -0.10597134227E+03  0.14054627621E+02 -0.26149822441E+03  0.32716017378E+03  0.16500000000E+03 0.  0.
<mgrwt>
<rscale>  0 0.39680496E+03</rscale>
<asrwt>0</asrwt>
<pdfrwt beam="1">  1        1 0.74130567E-01 0.39680496E+03</pdfrwt>
<pdfrwt beam="2">  1       -1 0.10836793E-01 0.39680496E+03</pdfrwt>
<totfact> 0.25639215E+03</totfact>
</mgrwt>
</event>
<event>
 4    1  0.2428650E-005  0.1054968E+04  0.7818608E-02  0.9250230E-01
         -1   -1    0    0    0  501 -0.00000000000E+00  0.00000000000E+00  0.37092267496E+03  0.37092267499E+03  0.50400000000E-02 0.  1.
          1   -1    0    0  501    0  0.00000000000E+00 -0.00000000000E+00 -0.75012792025E+03  0.75012792027E+03  0.50400000000E-02 0. -1.
    5000001    1    1    2    0    0  0.28156024706E+03  0.32075183694E+03  0.89239553036E+02  0.46620447386E+03  0.16500000000E+03 0.  0.
   -5000001    1    1    2    0    0 -0.28156024706E+03 -0.32075183694E+03 -0.46844479833E+03  0.65484612139E+03  0.16500000000E+03 0.  0.
<mgrwt>
<rscale>  0 0.10549682E+04</rscale>
<asrwt>0</asrwt>
<pdfrwt beam="1">  1        1 0.10716113E+00 0.10549682E+04</pdfrwt>
<pdfrwt beam="2">  1       -1 0.52988954E-01 0.10549682E+04</pdfrwt>
<totfact> 0.98527777E+01</totfact>
</mgrwt>
</event>
<event>
 4    1  0.2428650E-005  0.7387056E+03  0.7818608E-02  0.9653238E-01
         -1   -1    0    0    0  501 -0.00000000000E+00  0.00000000000E+00  0.74510977329E+02  0.74510977499E+02  0.50400000000E-02 0. -1.
          1   -1    0    0  501    0  0.00000000000E+00 -0.00000000000E+00 -0.18308913481E+04  0.18308913482E+04  0.50400000000E-02 0.  1.
    5000001    1    1    2    0    0  0.22871841309E+03  0.18785488022E+03 -0.49914478286E+03  0.60330098853E+03  0.16500000000E+03 0.  0.
   -5000001    1    1    2    0    0 -0.22871841309E+03 -0.18785488022E+03 -0.12572355880E+04  0.13021013371E+04  0.16500000000E+03 0.  0.
<mgrwt>
<rscale>  0 0.73870564E+03</rscale>
<asrwt>0</asrwt>
<pdfrwt beam="1">  1        1 0.26155588E+00 0.73870564E+03</pdfrwt>
<pdfrwt beam="2">  1       -1 0.10644426E-01 0.73870564E+03</pdfrwt>
<totfact> 0.27855370E+02</totfact>
</mgrwt>
</event>
<event>
 4    1  0.2428650E-005  0.4051083E+03  0.7818608E-02  0.1042025E+00
         -1   -1    0    0    0  501 -0.00000000000E+00  0.00000000000E+00  0.88437818982E+02  0.88437819125E+02  0.50400000000E-02 0. -1.
          1   -1    0    0  501    0  0.00000000000E+00 -0.00000000000E+00 -0.46392118121E+03  0.46392118124E+03  0.50400000000E-02 0.  1.
    5000001    1    1    2    0    0 -0.38702745990E+00  0.11726942954E+03 -0.17801318096E+03  0.26956624695E+03  0.16500000000E+03 0.  0.
   -5000001    1    1    2    0    0  0.38702745990E+00 -0.11726942954E+03 -0.19747018127E+03  0.28279275342E+03  0.16500000000E+03 0.  0.
<mgrwt>
<rscale>  0 0.40510827E+03</rscale>
<asrwt>0</asrwt>
<pdfrwt beam="1">  1        1 0.66274453E-01 0.40510827E+03</pdfrwt>
<pdfrwt beam="2">  1       -1 0.12633974E-01 0.40510827E+03</pdfrwt>
<totfact> 0.23357960E+03</totfact>
</mgrwt>
</event>
<event>
 4    1  0.2428650E-005  0.4717976E+03  0.7818608E-02  0.1021414E+00
          1   -1    0    0  501    0  0.00000000000E+00  0.00000000000E+00  0.30619645777E+03  0.30619645781E+03  0.50400000000E-02 0.  1.
         -1   -1    0    0    0  501 -0.00000000000E+00 -0.00000000000E+00 -0.18174035405E+03  0.18174035412E+03  0.50400000000E-02 0. -1.
    5000001    1    1    2    0    0  0.16083750247E+03  0.14108324444E+01  0.11447919591E+03  0.25729589765E+03  0.16500000000E+03 0.  0.
   -5000001    1    1    2    0    0 -0.16083750247E+03 -0.14108324444E+01  0.99769078089E+01  0.23064091428E+03  0.16500000000E+03 0.  0.
<mgrwt>
<rscale>  0 0.47179764E+03</rscale>
<asrwt>0</asrwt>
<pdfrwt beam="1">  1        1 0.43742351E-01 0.47179764E+03</pdfrwt>
<pdfrwt beam="2">  1       -1 0.25962908E-01 0.47179764E+03</pdfrwt>
<totfact> 0.12319179E+03</totfact>
</mgrwt>
</event>
<event>
 4    1  0.2428650E-005  0.4795410E+03  0.7818608E-02  0.1019261E+00
          1   -1    0    0  501    0  0.00000000000E+00  0.00000000000E+00  0.12733977879E+04  0.12733977879E+04  0.50400000000E-02 0.  1.
         -1   -1    0    0    0  501 -0.00000000000E+00 -0.00000000000E+00 -0.45146853850E+02  0.45146854132E+02  0.50400000000E-02 0. -1.
    5000001    1    1    2    0    0  0.90527843255E+02  0.14646298137E+03  0.68249090597E+03  0.72295610659E+03  0.16500000000E+03 0.  0.
   -5000001    1    1    2    0    0 -0.90527843255E+02 -0.14646298137E+03  0.54576002805E+03  0.59558853543E+03  0.16500000000E+03 0.  0.
<mgrwt>
<rscale>  0 0.47954105E+03</rscale>
<asrwt>0</asrwt>
<pdfrwt beam="1">  1        1 0.18191395E+00 0.47954105E+03</pdfrwt>
<pdfrwt beam="2">  1       -1 0.64495513E-02 0.47954105E+03</pdfrwt>
<totfact> 0.14043243E+03</totfact>
</mgrwt>
</event>
<event>
 4    1  0.2428650E-005  0.4475137E+03  0.7818608E-02  0.1028466E+00
         -1   -1    0    0    0  501 -0.00000000000E+00  0.00000000000E+00  0.28887392663E+02  0.28887393102E+02  0.50400000000E-02 0. -1.
          1   -1    0    0  501    0  0.00000000000E+00 -0.00000000000E+00 -0.17331825233E+04  0.17331825233E+04  0.50400000000E-02 0.  1.
    5000001    1    1    2    0    0  0.94955815499E+02  0.46444521706E+02 -0.12774745306E+04  0.12924162939E+04  0.16500000000E+03 0.  0.
   -5000001    1    1    2    0    0 -0.94955815499E+02 -0.46444521706E+02 -0.42682060010E+03  0.46965362254E+03  0.16500000000E+03 0.  0.
<mgrwt>
<rscale>  0 0.44751368E+03</rscale>
<asrwt>0</asrwt>
<pdfrwt beam="1">  1        1 0.24759744E+00 0.44751368E+03</pdfrwt>
<pdfrwt beam="2">  1       -1 0.41267715E-02 0.44751368E+03</pdfrwt>
<totfact> 0.14119517E+03</totfact>
</mgrwt>
</event>
<event>
 4    1  0.2428650E-005  0.3545694E+03  0.7818608E-02  0.1060755E+00
          1   -1    0    0  501    0  0.00000000000E+00  0.00000000000E+00  0.16566242861E+03  0.16566242869E+03  0.50400000000E-02 0. -1.
         -1   -1    0    0    0  501 -0.00000000000E+00 -0.00000000000E+00 -0.18972232890E+03  0.18972232897E+03  0.50400000000E-02 0.  1.
    5000001    1    1    2    0    0 -0.32936357020E+02 -0.54960994290E+02 -0.22020182058E+02  0.17836872743E+03  0.16500000000E+03 0.  0.
   -5000001    1    1    2    0    0  0.32936357020E+02  0.54960994290E+02 -0.20397182300E+01  0.17701603023E+03  0.16500000000E+03 0.  0.
<mgrwt>
<rscale>  0 0.35456938E+03</rscale>
<asrwt>0</asrwt>
<pdfrwt beam="1">  1        1 0.23666061E-01 0.35456938E+03</pdfrwt>
<pdfrwt beam="2">  1       -1 0.27103190E-01 0.35456938E+03</pdfrwt>
<totfact> 0.25044674E+03</totfact>
</mgrwt>
</event>
<event>
 4    1  0.2428650E-005  0.8344185E+03  0.7818608E-02  0.9511492E-01
         -1   -1    0    0    0  501 -0.00000000000E+00  0.00000000000E+00  0.32324947610E+03  0.32324947614E+03  0.50400000000E-02 0. -1.
          1   -1    0    0  501    0  0.00000000000E+00 -0.00000000000E+00 -0.53848058913E+03  0.53848058915E+03  0.50400000000E-02 0.  1.
    5000001    1    1    2    0    0 -0.17877732867E+03  0.29691027240E+03  0.61202124613E+02  0.38870006838E+03  0.16500000000E+03 0.  0.
   -5000001    1    1    2    0    0  0.17877732867E+03 -0.29691027240E+03 -0.27643323764E+03  0.47302999691E+03  0.16500000000E+03 0.  0.
<mgrwt>
<rscale>  0 0.83441852E+03</rscale>
<asrwt>0</asrwt>
<pdfrwt beam="1">  1        1 0.76925798E-01 0.83441852E+03</pdfrwt>
<pdfrwt beam="2">  1       -1 0.46178497E-01 0.83441852E+03</pdfrwt>
<totfact> 0.20869527E+02</totfact>
</mgrwt>
</event>
<event>
 4    1  0.2428650E-005  0.6522039E+03  0.7818608E-02  0.9802653E-01
          1   -1    0    0  501    0  0.00000000000E+00  0.00000000000E+00  0.28800133531E+04  0.28800133531E+04  0.50400000000E-02 0.  1.
         -1   -1    0    0    0  501 -0.00000000000E+00 -0.00000000000E+00 -0.36924299563E+02  0.36924299907E+02  0.50400000000E-02 0. -1.
    5000001    1    1    2    0    0 -0.12725571944E+03  0.24991911426E+03  0.15178727117E+04  0.15523582547E+04  0.16500000000E+03 0.  0.
   -5000001    1    1    2    0    0  0.12725571944E+03 -0.24991911426E+03  0.13252163418E+04  0.13645793983E+04  0.16500000000E+03 0.  0.
<mgrwt>
<rscale>  0 0.65220388E+03</rscale>
<asrwt>0</asrwt>
<pdfrwt beam="1">  1        1 0.41143033E+00 0.65220388E+03</pdfrwt>
<pdfrwt beam="2">  1       -1 0.52749019E-02 0.65220388E+03</pdfrwt>
<totfact> 0.18523052E+02</totfact>
</mgrwt>
</event>
<event>
 4    1  0.2428650E-005  0.7639985E+03  0.7818608E-02  0.9613641E-01
          1   -1    0    0  501    0  0.00000000000E+00  0.00000000000E+00  0.19542899982E+04  0.19542899982E+04  0.50400000000E-02 0.  1.
         -1   -1    0    0    0  501 -0.00000000000E+00 -0.00000000000E+00 -0.74668247512E+02  0.74668247682E+02  0.50400000000E-02 0. -1.
    5000001    1    1    2    0    0  0.32403441576E+03 -0.96546568149E+02  0.76407456262E+03  0.85167745049E+03  0.16500000000E+03 0.  0.
   -5000001    1    1    2    0    0 -0.32403441576E+03  0.96546568149E+02  0.11155471880E+04  0.11772807954E+04  0.16500000000E+03 0.  0.
<mgrwt>
<rscale>  0 0.76399845E+03</rscale>
<asrwt>0</asrwt>
<pdfrwt beam="1">  1        1 0.27918422E+00 0.76399845E+03</pdfrwt>
<pdfrwt beam="2">  1       -1 0.10666895E-01 0.76399845E+03</pdfrwt>
<totfact> 0.23213749E+02</totfact>
</mgrwt>
</event>
<event>
 4    1  0.2428650E-005  0.3827004E+03  0.7818608E-02  0.1049940E+00
         -1   -1    0    0    0  501 -0.00000000000E+00  0.00000000000E+00  0.54701669572E+03  0.54701669574E+03  0.50400000000E-02 0. -1.
          1   -1    0    0  501    0  0.00000000000E+00 -0.00000000000E+00 -0.66935627744E+02  0.66935627934E+02  0.50400000000E-02 0.  1.
    5000001    1    1    2    0    0 -0.80511485851E+01  0.96037040505E+02  0.25624056374E+03  0.31964380277E+03  0.16500000000E+03 0.  0.
   -5000001    1    1    2    0    0  0.80511485851E+01 -0.96037040505E+02  0.22384050423E+03  0.29430852090E+03  0.16500000000E+03 0.  0.
<mgrwt>
<rscale>  0 0.38270044E+03</rscale>
<asrwt>0</asrwt>
<pdfrwt beam="1">  1        1 0.95622329E-02 0.38270044E+03</pdfrwt>
<pdfrwt beam="2">  1       -1 0.78145239E-01 0.38270044E+03</pdfrwt>
<totfact> 0.11727232E+03</totfact>
</mgrwt>
</event>
<event>
 4    1  0.2428650E-005  0.4742344E+03  0.7818608E-02  0.1020732E+00
         -1   -1    0    0    0  501 -0.00000000000E+00  0.00000000000E+00  0.12921558588E+03  0.12921558597E+03  0.50400000000E-02 0.  1.
          1   -1    0    0  501    0  0.00000000000E+00 -0.00000000000E+00 -0.43512224166E+03  0.43512224169E+03  0.50400000000E-02 0. -1.
    5000001    1    1    2    0    0 -0.48436025726E+02 -0.14753351718E+03 -0.23614588806E+03  0.32726452256E+03  0.16500000000E+03 0.  0.
   -5000001    1    1    2    0    0  0.48436025726E+02  0.14753351718E+03 -0.69760767724E+02  0.23707330510E+03  0.16500000000E+03 0.  0.
<mgrwt>
<rscale>  0 0.47423444E+03</rscale>
<asrwt>0</asrwt>
<pdfrwt beam="1">  1        1 0.62160320E-01 0.47423444E+03</pdfrwt>
<pdfrwt beam="2">  1       -1 0.18459370E-01 0.47423444E+03</pdfrwt>
<totfact> 0.13811777E+03</totfact>
</mgrwt>
</event>
<event>
 4    1  0.2428650E-005  0.4485132E+03  0.7818608E-02  0.1028166E+00
         -1   -1    0    0    0  501 -0.00000000000E+00  0.00000000000E+00  0.45330951709E+02  0.45330951989E+02  0.50400000000E-02 0. -1.
          1   -1    0    0  501    0  0.00000000000E+00 -0.00000000000E+00 -0.11094190527E+04  0.11094190527E+04  0.50400000000E-02 0.  1.
    5000001    1    1    2    0    0  0.11766831727E+03  0.94949013975E+02 -0.49519250792E+03  0.54341675355E+03  0.16500000000E+03 0.  0.
   -5000001    1    1    2    0    0 -0.11766831727E+03 -0.94949013975E+02 -0.56889559310E+03  0.61133325117E+03  0.16500000000E+03 0.  0.
<mgrwt>
<rscale>  0 0.44851320E+03</rscale>
<asrwt>0</asrwt>
<pdfrwt beam="1">  1        1 0.15848842E+00 0.44851320E+03</pdfrwt>
<pdfrwt beam="2">  1       -1 0.64758510E-02 0.44851320E+03</pdfrwt>
<totfact> 0.18062708E+03</totfact>
</mgrwt>
</event>
<event>
 4    1  0.2428650E-005  0.8655576E+03  0.7818608E-02  0.9469691E-01
         -1   -1    0    0    0  501 -0.00000000000E+00  0.00000000000E+00  0.12046799940E+03  0.12046799951E+03  0.50400000000E-02 0.  1.
          1   -1    0    0  501    0  0.00000000000E+00 -0.00000000000E+00 -0.15547487579E+04  0.15547487579E+04  0.50400000000E-02 0. -1.
    5000001    1    1    2    0    0 -0.33139061195E+03 -0.12381990543E+03 -0.10788171907E+04  0.11472674656E+04  0.16500000000E+03 0.  0.
   -5000001    1    1    2    0    0  0.33139061195E+03  0.12381990543E+03 -0.35546356770E+03  0.52794929172E+03  0.16500000000E+03 0.  0.
<mgrwt>
<rscale>  0 0.86555756E+03</rscale>
<asrwt>0</asrwt>
<pdfrwt beam="1">  1        1 0.22210695E+00 0.86555756E+03</pdfrwt>
<pdfrwt beam="2">  1       -1 0.17209715E-01 0.86555756E+03</pdfrwt>
<totfact> 0.18985133E+02</totfact>
</mgrwt>
</event>
<event>
 4    1  0.2428650E-005  0.5788180E+03  0.7818608E-02  0.9950353E-01
         -1   -1    0    0    0  501 -0.00000000000E+00  0.00000000000E+00  0.50008694338E+02  0.50008694592E+02  0.50400000000E-02 0.  1.
          1   -1    0    0  501    0  0.00000000000E+00 -0.00000000000E+00 -0.16748598647E+04  0.16748598647E+04  0.50400000000E-02 0. -1.
    5000001    1    1    2    0    0  0.22371168891E+03 -0.23738308737E+02 -0.58309978563E+03  0.64640605432E+03  0.16500000000E+03 0.  0.
   -5000001    1    1    2    0    0 -0.22371168891E+03  0.23738308737E+02 -0.10417513847E+04  0.10784625049E+04  0.16500000000E+03 0.  0.
<mgrwt>
<rscale>  0 0.57881795E+03</rscale>
<asrwt>0</asrwt>
<pdfrwt beam="1">  1        1 0.23926566E+00 0.57881795E+03</pdfrwt>
<pdfrwt beam="2">  1       -1 0.71441002E-02 0.57881795E+03</pdfrwt>
<totfact> 0.65890781E+02</totfact>
</mgrwt>
</event>
<event>
 4    1  0.2428650E-005  0.4105422E+03  0.7818608E-02  0.1040189E+00
          1   -1    0    0  501    0  0.00000000000E+00  0.00000000000E+00  0.89108762209E+03  0.89108762210E+03  0.50400000000E-02 0.  1.
         -1   -1    0    0    0  501 -0.00000000000E+00 -0.00000000000E+00 -0.47286291651E+02  0.47286291920E+02  0.50400000000E-02 0. -1.
    5000001    1    1    2    0    0 -0.33975869693E+01  0.12206347003E+03  0.42089131832E+03  0.46827933560E+03  0.16500000000E+03 0.  0.
   -5000001    1    1    2    0    0  0.33975869693E+01 -0.12206347003E+03  0.42291001211E+03  0.47009457842E+03  0.16500000000E+03 0.  0.
<mgrwt>
<rscale>  0 0.41054222E+03</rscale>
<asrwt>0</asrwt>
<pdfrwt beam="1">  1        1 0.12729824E+00 0.41054222E+03</pdfrwt>
<pdfrwt beam="2">  1       -1 0.67551843E-02 0.41054222E+03</pdfrwt>
<totfact> 0.24472474E+03</totfact>
</mgrwt>
</event>
<event>
 4    1  0.2428650E-005  0.7539240E+03  0.7818608E-02  0.9629214E-01
          1   -1    0    0  501    0  0.00000000000E+00  0.00000000000E+00  0.66467107334E+03  0.66467107336E+03  0.50400000000E-02 0.  1.
         -1   -1    0    0    0  501 -0.00000000000E+00 -0.00000000000E+00 -0.21379046583E+03  0.21379046589E+03  0.50400000000E-02 0. -1.
    5000001    1    1    2    0    0  0.32816337993E+03  0.83542589550E+02  0.24211387420E+03  0.44778867368E+03  0.16500000000E+03 0.  0.
   -5000001    1    1    2    0    0 -0.32816337993E+03 -0.83542589550E+02  0.20876673332E+03  0.43067286557E+03  0.16500000000E+03 0.  0.
<mgrwt>
<rscale>  0 0.75392397E+03</rscale>
<asrwt>0</asrwt>
<pdfrwt beam="1">  1        1 0.94953012E-01 0.75392397E+03</pdfrwt>
<pdfrwt beam="2">  1       -1 0.30541495E-01 0.75392397E+03</pdfrwt>
<totfact> 0.32798825E+02</totfact>
</mgrwt>
</event>
<event>
 4    1  0.2428650E-005  0.6227578E+03  0.7818608E-02  0.9859284E-01
          1   -1    0    0  501    0  0.00000000000E+00  0.00000000000E+00  0.38781296074E+03  0.38781296077E+03  0.50400000000E-02 0. -1.
         -1   -1    0    0    0  501 -0.00000000000E+00 -0.00000000000E+00 -0.25000922654E+03  0.25000922660E+03  0.50400000000E-02 0.  1.
    5000001    1    1    2    0    0 -0.38826785159E+02 -0.22695090039E+03 -0.63522302242E+02  0.29030038463E+03  0.16500000000E+03 0.  0.
   -5000001    1    1    2    0    0  0.38826785159E+02  0.22695090039E+03  0.20132603644E+03  0.34752180274E+03  0.16500000000E+03 0.  0.
<mgrwt>
<rscale>  0 0.62275780E+03</rscale>
<asrwt>0</asrwt>
<pdfrwt beam="1">  1        1 0.55401852E-01 0.62275780E+03</pdfrwt>
<pdfrwt beam="2">  1       -1 0.35715604E-01 0.62275780E+03</pdfrwt>
<totfact> 0.52102511E+02</totfact>
</mgrwt>
</event>
<event>
 4    1  0.2428650E-005  0.5917876E+03  0.7818608E-02  0.9922592E-01
          1   -1    0    0  501    0  0.00000000000E+00  0.00000000000E+00  0.22102899392E+04  0.22102899392E+04  0.50400000000E-02 0.  1.
         -1   -1    0    0    0  501 -0.00000000000E+00 -0.00000000000E+00 -0.39611609600E+02  0.39611609921E+02  0.50400000000E-02 0. -1.
    5000001    1    1    2    0    0  0.59008232005E+02  0.15999119213E+03  0.17574109124E+04  0.17733576255E+04  0.16500000000E+03 0.  0.
   -5000001    1    1    2    0    0 -0.59008232005E+02 -0.15999119213E+03  0.41326741725E+03  0.47654392365E+03  0.16500000000E+03 0.  0.
<mgrwt>
<rscale>  0 0.59178761E+03</rscale>
<asrwt>0</asrwt>
<pdfrwt beam="1">  1        1 0.31575572E+00 0.59178761E+03</pdfrwt>
<pdfrwt beam="2">  1       -1 0.56588012E-02 0.59178761E+03</pdfrwt>
<totfact> 0.43951247E+02</totfact>
</mgrwt>
</event>
<event>
 4    1  0.2428650E-005  0.5749163E+03  0.7818608E-02  0.9958858E-01
         -1   -1    0    0    0  501 -0.00000000000E+00  0.00000000000E+00  0.90840539804E+02  0.90840539944E+02  0.50400000000E-02 0. -1.
          1   -1    0    0  501    0  0.00000000000E+00 -0.00000000000E+00 -0.90963986247E+03  0.90963986249E+03  0.50400000000E-02 0.  1.
    5000001    1    1    2    0    0  0.98863557613E+02  0.19904285056E+03 -0.27443314803E+03  0.38978277555E+03  0.16500000000E+03 0.  0.
   -5000001    1    1    2    0    0 -0.98863557613E+02 -0.19904285056E+03 -0.54436617464E+03  0.61069762688E+03  0.16500000000E+03 0.  0.
<mgrwt>
<rscale>  0 0.57491626E+03</rscale>
<asrwt>0</asrwt>
<pdfrwt beam="1">  1        1 0.12994855E+00 0.57491626E+03</pdfrwt>
<pdfrwt beam="2">  1       -1 0.12977221E-01 0.57491626E+03</pdfrwt>
<totfact> 0.85038481E+02</totfact>
</mgrwt>
</event>
<event>
 4    1  0.2428650E-005  0.3704224E+03  0.7818608E-02  0.1054532E+00
          1   -1    0    0  501    0  0.00000000000E+00  0.00000000000E+00  0.40290707512E+03  0.40290707516E+03  0.50400000000E-02 0.  1.
         -1   -1    0    0    0  501 -0.00000000000E+00 -0.00000000000E+00 -0.85139223393E+02  0.85139223543E+02  0.50400000000E-02 0. -1.
    5000001    1    1    2    0    0 -0.34080211866E+02 -0.33467377151E+02  0.67633766976E+02  0.18461000138E+03  0.16500000000E+03 0.  0.
   -5000001    1    1    2    0    0  0.34080211866E+02  0.33467377151E+02  0.25013408475E+03  0.30343629732E+03  0.16500000000E+03 0.  0.
<mgrwt>
<rscale>  0 0.37042244E+03</rscale>
<asrwt>0</asrwt>
<pdfrwt beam="1">  1        1 0.57558153E-01 0.37042244E+03</pdfrwt>
<pdfrwt beam="2">  1       -1 0.12162746E-01 0.37042244E+03</pdfrwt>
<totfact> 0.29756015E+03</totfact>
</mgrwt>
</event>
<event>
 4    1  0.2428650E-005  0.4220397E+03  0.7818608E-02  0.1036404E+00
          1   -1    0    0  501    0  0.00000000000E+00  0.00000000000E+00  0.29623335596E+03  0.29623335600E+03  0.50400000000E-02 0.  1.
         -1   -1    0    0    0  501 -0.00000000000E+00 -0.00000000000E+00 -0.15031858422E+03  0.15031858430E+03  0.50400000000E-02 0. -1.
    5000001    1    1    2    0    0 -0.12328948418E+03 -0.39256246744E+02  0.98063760323E+02  0.23147969869E+03  0.16500000000E+03 0.  0.
   -5000001    1    1    2    0    0  0.12328948418E+03  0.39256246744E+02  0.47851011422E+02  0.21507224161E+03  0.16500000000E+03 0.  0.
<mgrwt>
<rscale>  0 0.42203971E+03</rscale>
<asrwt>0</asrwt>
<pdfrwt beam="1">  1        1 0.42319051E-01 0.42203971E+03</pdfrwt>
<pdfrwt beam="2">  1       -1 0.21474083E-01 0.42203971E+03</pdfrwt>
<totfact> 0.17650486E+03</totfact>
</mgrwt>
</event>
<event>
 4    1  0.2428650E-005  0.4349404E+03  0.7818608E-02  0.1032311E+00
          1   -1    0    0  501    0  0.00000000000E+00  0.00000000000E+00  0.19803362869E+04  0.19803362869E+04  0.50400000000E-02 0.  1.
         -1   -1    0    0    0  501 -0.00000000000E+00 -0.00000000000E+00 -0.23881440361E+02  0.23881440893E+02  0.50400000000E-02 0. -1.
    5000001    1    1    2    0    0 -0.41310779002E+02  0.47324343329E+02  0.15633220419E+04  0.15732599851E+04  0.16500000000E+03 0.  0.
   -5000001    1    1    2    0    0  0.41310779002E+02 -0.47324343329E+02  0.39313280463E+03  0.43095774272E+03  0.16500000000E+03 0.  0.
<mgrwt>
<rscale>  0 0.43494038E+03</rscale>
<asrwt>0</asrwt>
<pdfrwt beam="1">  1        1 0.28290510E+00 0.43494038E+03</pdfrwt>
<pdfrwt beam="2">  1       -1 0.34116354E-02 0.43494038E+03</pdfrwt>
<totfact> 0.13256514E+03</totfact>
</mgrwt>
</event>
<event>
 4    1  0.2428650E-005  0.4330150E+03  0.7818608E-02  0.1032912E+00
         -1   -1    0    0    0  501 -0.00000000000E+00  0.00000000000E+00  0.22121255196E+03  0.22121255202E+03  0.50400000000E-02 0. -1.
          1   -1    0    0  501    0  0.00000000000E+00 -0.00000000000E+00 -0.21190251064E+03  0.21190251070E+03  0.50400000000E-02 0.  1.
    5000001    1    1    2    0    0 -0.61877378731E+02 -0.11866277937E+03 -0.37077876441E+02  0.21566046028E+03  0.16500000000E+03 0.  0.
   -5000001    1    1    2    0    0  0.61877378731E+02  0.11866277937E+03  0.46387917766E+02  0.21745460244E+03  0.16500000000E+03 0.  0.
<mgrwt>
<rscale>  0 0.43301499E+03</rscale>
<asrwt>0</asrwt>
<pdfrwt beam="1">  1        1 0.30271787E-01 0.43301499E+03</pdfrwt>
<pdfrwt beam="2">  1       -1 0.31601793E-01 0.43301499E+03</pdfrwt>
<totfact> 0.14072009E+03</totfact>
</mgrwt>
</event>
<event>
 4    1  0.2428650E-005  0.5111218E+03  0.7818608E-02  0.1010916E+00
         -1   -1    0    0    0  501 -0.00000000000E+00  0.00000000000E+00  0.32013883556E+03  0.32013883560E+03  0.50400000000E-02 0. -1.
          1   -1    0    0  501    0  0.00000000000E+00 -0.00000000000E+00 -0.20400954747E+03  0.20400954754E+03  0.50400000000E-02 0.  1.
    5000001    1    1    2    0    0  0.31240751517E+02  0.13584309826E+03  0.19813662861E+03  0.29310826583E+03  0.16500000000E+03 0.  0.
   -5000001    1    1    2    0    0 -0.31240751517E+02 -0.13584309826E+03 -0.82007340531E+02  0.23104011730E+03  0.16500000000E+03 0.  0.
<mgrwt>
<rscale>  0 0.51112182E+03</rscale>
<asrwt>0</asrwt>
<pdfrwt beam="1">  1        1 0.29144222E-01 0.51112182E+03</pdfrwt>
<pdfrwt beam="2">  1       -1 0.45734118E-01 0.51112182E+03</pdfrwt>
<totfact> 0.76323331E+02</totfact>
</mgrwt>
</event>
<event>
 4    1  0.2428650E-005  0.6255691E+03  0.7818608E-02  0.9853734E-01
         -1   -1    0    0    0  501 -0.00000000000E+00  0.00000000000E+00  0.64003222503E+03  0.64003222505E+03  0.50400000000E-02 0. -1.
          1   -1    0    0  501    0  0.00000000000E+00 -0.00000000000E+00 -0.15285820289E+03  0.15285820297E+03  0.50400000000E-02 0.  1.
    5000001    1    1    2    0    0  0.18206623041E+02 -0.19473261705E+03  0.15594094584E+02  0.25635999893E+03  0.16500000000E+03 0.  0.
   -5000001    1    1    2    0    0 -0.18206623041E+02  0.19473261705E+03  0.47157992756E+03  0.53653042909E+03  0.16500000000E+03 0.  0.
<mgrwt>
<rscale>  0 0.62556910E+03</rscale>
<asrwt>0</asrwt>
<pdfrwt beam="1">  1        1 0.21836886E-01 0.62556910E+03</pdfrwt>
<pdfrwt beam="2">  1       -1 0.91433176E-01 0.62556910E+03</pdfrwt>
<totfact> 0.27638783E+02</totfact>
</mgrwt>
</event>
<event>
 4    1  0.2428650E-005  0.8282728E+03  0.7818608E-02  0.9519972E-01
         -1   -1    0    0    0  501 -0.00000000000E+00  0.00000000000E+00  0.48834209222E+03  0.48834209225E+03  0.50400000000E-02 0. -1.
          1   -1    0    0  501    0  0.00000000000E+00 -0.00000000000E+00 -0.35120655554E+03  0.35120655558E+03  0.50400000000E-02 0.  1.
    5000001    1    1    2    0    0 -0.22124837030E+03  0.85322004689E+02  0.36934516758E+03  0.46890461573E+03  0.16500000000E+03 0.  0.
   -5000001    1    1    2    0    0  0.22124837030E+03 -0.85322004689E+02 -0.23220963089E+03  0.37064403209E+03  0.16500000000E+03 0.  0.
<mgrwt>
<rscale>  0 0.82827277E+03</rscale>
<asrwt>0</asrwt>
<pdfrwt beam="1">  1        1 0.50172365E-01 0.82827277E+03</pdfrwt>
<pdfrwt beam="2">  1       -1 0.69763156E-01 0.82827277E+03</pdfrwt>
<totfact> 0.16501392E+02</totfact>
</mgrwt>
</event>
<event>
 4    1  0.2428650E-005  0.5596160E+03  0.7818608E-02  0.9992924E-01
          1   -1    0    0  501    0  0.00000000000E+00  0.00000000000E+00  0.13246012719E+04  0.13246012719E+04  0.50400000000E-02 0. -1.
         -1   -1    0    0    0  501 -0.00000000000E+00 -0.00000000000E+00 -0.59106487114E+02  0.59106487329E+02  0.50400000000E-02 0.  1.
    5000001    1    1    2    0    0 -0.37635969263E+02  0.20717690713E+03  0.42992180340E+03  0.50635609414E+03  0.16500000000E+03 0.  0.
   -5000001    1    1    2    0    0  0.37635969263E+02 -0.20717690713E+03  0.83557298138E+03  0.87735166510E+03  0.16500000000E+03 0.  0.
<mgrwt>
<rscale>  0 0.55961604E+03</rscale>
<asrwt>0</asrwt>
<pdfrwt beam="1">  1        1 0.18922872E+00 0.55961604E+03</pdfrwt>
<pdfrwt beam="2">  1       -1 0.84437855E-02 0.55961604E+03</pdfrwt>
<totfact> 0.85322970E+02</totfact>
</mgrwt>
</event>
<event>
 4    1  0.2428650E-005  0.4164195E+03  0.7818608E-02  0.1038238E+00
          1   -1    0    0  501    0  0.00000000000E+00  0.00000000000E+00  0.14135695059E+04  0.14135695059E+04  0.50400000000E-02 0.  1.
         -1   -1    0    0    0  501 -0.00000000000E+00 -0.00000000000E+00 -0.30667964438E+02  0.30667964852E+02  0.50400000000E-02 0. -1.
    5000001    1    1    2    0    0  0.51121968869E+02  0.91472652630E+02  0.94023650234E+03  0.96033868100E+03  0.16500000000E+03 0.  0.
   -5000001    1    1    2    0    0 -0.51121968869E+02 -0.91472652630E+02  0.44266503915E+03  0.48389878979E+03  0.16500000000E+03 0.  0.
<mgrwt>
<rscale>  0 0.41641950E+03</rscale>
<asrwt>0</asrwt>
<pdfrwt beam="1">  1        1 0.20193851E+00 0.41641950E+03</pdfrwt>
<pdfrwt beam="2">  1       -1 0.43811377E-02 0.41641950E+03</pdfrwt>
<totfact> 0.20518847E+03</totfact>
</mgrwt>
</event>
<event>
 4    1  0.2428650E-005  0.8920022E+03  0.7818608E-02  0.9435635E-01
         -1   -1    0    0    0  501 -0.00000000000E+00  0.00000000000E+00  0.12550311864E+03  0.12550311874E+03  0.50400000000E-02 0. -1.
          1   -1    0    0  501    0  0.00000000000E+00 -0.00000000000E+00 -0.15849566200E+04  0.15849566200E+04  0.50400000000E-02 0.  1.
    5000001    1    1    2    0    0 -0.33772496849E+03 -0.19996503083E+03 -0.98446407245E+03  0.10725850446E+04  0.16500000000E+03 0.  0.
   -5000001    1    1    2    0    0  0.33772496849E+03  0.19996503083E+03 -0.47498942891E+03  0.63787469417E+03  0.16500000000E+03 0.  0.
<mgrwt>
<rscale>  0 0.89200224E+03</rscale>
<asrwt>0</asrwt>
<pdfrwt beam="1">  1        1 0.22642236E+00 0.89200224E+03</pdfrwt>
<pdfrwt beam="2">  1       -1 0.17929018E-01 0.89200224E+03</pdfrwt>
<totfact> 0.16939352E+02</totfact>
</mgrwt>
</event>
<event>
 4    1  0.2428650E-005  0.3827025E+03  0.7818608E-02  0.1049939E+00
         -1   -1    0    0    0  501 -0.00000000000E+00  0.00000000000E+00  0.59006405163E+02  0.59006405378E+02  0.50400000000E-02 0. -1.
          1   -1    0    0  501    0  0.00000000000E+00 -0.00000000000E+00 -0.62053104925E+03  0.62053104927E+03  0.50400000000E-02 0.  1.
    5000001    1    1    2    0    0 -0.79806811355E+02 -0.38140659815E+02 -0.21048535016E+03  0.28169650282E+03  0.16500000000E+03 0.  0.
   -5000001    1    1    2    0    0  0.79806811355E+02  0.38140659815E+02 -0.35103929393E+03  0.39784095183E+03  0.16500000000E+03 0.  0.
<mgrwt>
<rscale>  0 0.38270253E+03</rscale>
<asrwt>0</asrwt>
<pdfrwt beam="1">  1        1 0.88647289E-01 0.38270253E+03</pdfrwt>
<pdfrwt beam="2">  1       -1 0.84294868E-02 0.38270253E+03</pdfrwt>
<totfact> 0.29698688E+03</totfact>
</mgrwt>
</event>
<event>
 4    1  0.2428650E-005  0.5690822E+03  0.7818608E-02  0.9971712E-01
         -1   -1    0    0    0  501 -0.00000000000E+00  0.00000000000E+00  0.43307934582E+03  0.43307934585E+03  0.50400000000E-02 0.  1.
          1   -1    0    0  501    0  0.00000000000E+00 -0.00000000000E+00 -0.18694870891E+03  0.18694870898E+03  0.50400000000E-02 0. -1.
    5000001    1    1    2    0    0  0.52398422081E+02 -0.88295206756E+02  0.34951050776E+03  0.39990528029E+03  0.16500000000E+03 0.  0.
   -5000001    1    1    2    0    0 -0.52398422081E+02  0.88295206756E+02 -0.10337987085E+03  0.22012277454E+03  0.16500000000E+03 0.  0.
<mgrwt>
<rscale>  0 0.56908215E+03</rscale>
<asrwt>0</asrwt>
<pdfrwt beam="1">  1        1 0.26706959E-01 0.56908215E+03</pdfrwt>
<pdfrwt beam="2">  1       -1 0.61868477E-01 0.56908215E+03</pdfrwt>
<totfact> 0.47975147E+02</totfact>
</mgrwt>
</event>
<event>
 4    1  0.2428650E-005  0.8359783E+03  0.7818608E-02  0.9509352E-01
          1   -1    0    0  501    0  0.00000000000E+00  0.00000000000E+00  0.73012795913E+03  0.73012795915E+03  0.50400000000E-02 0. -1.
         -1   -1    0    0    0  501 -0.00000000000E+00 -0.00000000000E+00 -0.23929356964E+03  0.23929356969E+03  0.50400000000E-02 0.  1.
    5000001    1    1    2    0    0  0.75467062724E+02 -0.20053850002E+03 -0.12417223144E+03  0.29758143526E+03  0.16500000000E+03 0.  0.
   -5000001    1    1    2    0    0 -0.75467062724E+02  0.20053850002E+03  0.61500662094E+03  0.67184009359E+03  0.16500000000E+03 0.  0.
<mgrwt>
<rscale>  0 0.83597829E+03</rscale>
<asrwt>0</asrwt>
<pdfrwt beam="1">  1        1 0.10430400E+00 0.83597829E+03</pdfrwt>
<pdfrwt beam="2">  1       -1 0.34184795E-01 0.83597829E+03</pdfrwt>
<totfact> 0.23328023E+02</totfact>
</mgrwt>
</event>
<event>
 4    1  0.2428650E-005  0.1036979E+04  0.7818608E-02  0.9268891E-01
         -1   -1    0    0    0  501 -0.00000000000E+00  0.00000000000E+00  0.94610377352E+02  0.94610377486E+02  0.50400000000E-02 0. -1.
          1   -1    0    0  501    0  0.00000000000E+00 -0.00000000000E+00 -0.28414595514E+04  0.28414595514E+04  0.50400000000E-02 0.  1.
    5000001    1    1    2    0    0  0.34122038780E+03  0.32491474260E+03 -0.97697630850E+03  0.10971365687E+04  0.16500000000E+03 0.  0.
   -5000001    1    1    2    0    0 -0.34122038780E+03 -0.32491474260E+03 -0.17698728655E+04  0.18389333602E+04  0.16500000000E+03 0.  0.
<mgrwt>
<rscale>  0 0.10369794E+04</rscale>
<asrwt>0</asrwt>
<pdfrwt beam="1">  1        1 0.40592274E+00 0.10369794E+04</pdfrwt>
<pdfrwt beam="2">  1       -1 0.13515770E-01 0.10369794E+04</pdfrwt>
<totfact> 0.42887056E+01</totfact>
</mgrwt>
</event>
<event>
 4    1  0.2428650E-005  0.8521245E+03  0.7818608E-02  0.9487490E-01
         -1   -1    0    0    0  501 -0.00000000000E+00  0.00000000000E+00  0.35723843976E+03  0.35723843979E+03  0.50400000000E-02 0. -1.
          1   -1    0    0  501    0  0.00000000000E+00 -0.00000000000E+00 -0.50814533008E+03  0.50814533010E+03  0.50400000000E-02 0.  1.
    5000001    1    1    2    0    0 -0.28229679744E+03  0.19195294905E+03  0.12190685477E+03  0.39827590654E+03  0.16500000000E+03 0.  0.
   -5000001    1    1    2    0    0  0.28229679744E+03 -0.19195294905E+03 -0.27281374509E+03  0.46710786335E+03  0.16500000000E+03 0.  0.
<mgrwt>
<rscale>  0 0.85212451E+03</rscale>
<asrwt>0</asrwt>
<pdfrwt beam="1">  1        1 0.72592189E-01 0.85212451E+03</pdfrwt>
<pdfrwt beam="2">  1       -1 0.51034063E-01 0.85212451E+03</pdfrwt>
<totfact> 0.18695470E+02</totfact>
</mgrwt>
</event>
<event>
 4    1  0.2428650E-005  0.7258572E+03  0.7818608E-02  0.9674007E-01
         -1   -1    0    0    0  501 -0.00000000000E+00  0.00000000000E+00  0.21981040116E+03  0.21981040121E+03  0.50400000000E-02 0.  1.
          1   -1    0    0  501    0  0.00000000000E+00 -0.00000000000E+00 -0.59923079181E+03  0.59923079183E+03  0.50400000000E-02 0. -1.
    5000001    1    1    2    0    0  0.99301967148E+02 -0.29735987202E+03 -0.10080155981E+03  0.36833371910E+03  0.16500000000E+03 0.  0.
   -5000001    1    1    2    0    0 -0.99301967148E+02  0.29735987202E+03 -0.27861883084E+03  0.45070747394E+03  0.16500000000E+03 0.  0.
<mgrwt>
<rscale>  0 0.72585718E+03</rscale>
<asrwt>0</asrwt>
<pdfrwt beam="1">  1        1 0.85604399E-01 0.72585718E+03</pdfrwt>
<pdfrwt beam="2">  1       -1 0.31401486E-01 0.72585718E+03</pdfrwt>
<totfact> 0.36268972E+02</totfact>
</mgrwt>
</event>
<event>
 4    1  0.2428650E-005  0.4061213E+03  0.7818608E-02  0.1041680E+00
          1   -1    0    0  501    0  0.00000000000E+00  0.00000000000E+00  0.75999947751E+02  0.75999947918E+02  0.50400000000E-02 0. -1.
         -1   -1    0    0    0  501 -0.00000000000E+00 -0.00000000000E+00 -0.54254819470E+03  0.54254819472E+03  0.50400000000E-02 0.  1.
    5000001    1    1    2    0    0  0.47761546424E+02  0.10154665804E+03 -0.17596677860E+03  0.26604923651E+03  0.16500000000E+03 0.  0.
   -5000001    1    1    2    0    0 -0.47761546424E+02 -0.10154665804E+03 -0.29058146834E+03  0.35249890613E+03  0.16500000000E+03 0.  0.
<mgrwt>
<rscale>  0 0.40612133E+03</rscale>
<asrwt>0</asrwt>
<pdfrwt beam="1">  1        1 0.10857136E-01 0.40612133E+03</pdfrwt>
<pdfrwt beam="2">  1       -1 0.77506883E-01 0.40612133E+03</pdfrwt>
<totfact> 0.10041949E+03</totfact>
</mgrwt>
</event>
<event>
 4    1  0.2428650E-005  0.1231819E+04  0.7818608E-02  0.9085452E-01
          1   -1    0    0  501    0  0.00000000000E+00  0.00000000000E+00  0.15329398117E+04  0.15329398117E+04  0.50400000000E-02 0.  1.
         -1   -1    0    0    0  501 -0.00000000000E+00 -0.00000000000E+00 -0.24746210871E+03  0.24746210876E+03  0.50400000000E-02 0. -1.
    5000001    1    1    2    0    0  0.32742828083E+03 -0.15926066930E+03 -0.34488035466E+02  0.40123268120E+03  0.16500000000E+03 0.  0.
   -5000001    1    1    2    0    0 -0.32742828083E+03  0.15926066930E+03  0.13199657384E+04  0.13791692393E+04  0.16500000000E+03 0.  0.
<mgrwt>
<rscale>  0 0.12318190E+04</rscale>
<asrwt>0</asrwt>
<pdfrwt beam="1">  1        1 0.21899140E+00 0.12318190E+04</pdfrwt>
<pdfrwt beam="2">  1       -1 0.35351730E-01 0.12318190E+04</pdfrwt>
<totfact> 0.55674657E+01</totfact>
</mgrwt>
</event>
<event>
 4    1  0.2428650E-005  0.6938961E+03  0.7818608E-02  0.9727728E-01
          1   -1    0    0  501    0  0.00000000000E+00  0.00000000000E+00  0.50677176022E+03  0.50677176025E+03  0.50400000000E-02 0.  1.
         -1   -1    0    0    0  501 -0.00000000000E+00 -0.00000000000E+00 -0.23752892405E+03  0.23752892410E+03  0.50400000000E-02 0. -1.
    5000001    1    1    2    0    0  0.11448044535E+03  0.18451700120E+03 -0.95423356169E+02  0.28893409803E+03  0.16500000000E+03 0.  0.
   -5000001    1    1    2    0    0 -0.11448044535E+03 -0.18451700120E+03  0.36466619235E+03  0.45536658632E+03  0.16500000000E+03 0.  0.
<mgrwt>
<rscale>  0 0.69389610E+03</rscale>
<asrwt>0</asrwt>
<pdfrwt beam="1">  1        1 0.72395965E-01 0.69389610E+03</pdfrwt>
<pdfrwt beam="2">  1       -1 0.33932704E-01 0.69389610E+03</pdfrwt>
<totfact> 0.39918063E+02</totfact>
</mgrwt>
</event>
<event>
 4    1  0.2428650E-005  0.6005242E+03  0.7818608E-02  0.9904319E-01
          1   -1    0    0  501    0  0.00000000000E+00  0.00000000000E+00  0.14985867816E+03  0.14985867824E+03  0.50400000000E-02 0.  1.
         -1   -1    0    0    0  501 -0.00000000000E+00 -0.00000000000E+00 -0.60161556968E+03  0.60161556970E+03  0.50400000000E-02 0. -1.
    5000001    1    1    2    0    0  0.53078812421E+02  0.20205591305E+03 -0.52085839721E+02  0.27125981462E+03  0.16500000000E+03 0.  0.
   -5000001    1    1    2    0    0 -0.53078812421E+02 -0.20205591305E+03 -0.39967105180E+03  0.48021443332E+03  0.16500000000E+03 0.  0.
<mgrwt>
<rscale>  0 0.60052415E+03</rscale>
<asrwt>0</asrwt>
<pdfrwt beam="1">  1        1 0.21408383E-01 0.60052415E+03</pdfrwt>
<pdfrwt beam="2">  1       -1 0.85945080E-01 0.60052415E+03</pdfrwt>
<totfact> 0.32496676E+02</totfact>
</mgrwt>
</event>
<event>
 4    1  0.2428650E-005  0.4131259E+03  0.7818608E-02  0.1039327E+00
         -1   -1    0    0    0  501 -0.00000000000E+00  0.00000000000E+00  0.37864669853E+02  0.37864670189E+02  0.50400000000E-02 0.  1.
          1   -1    0    0  501    0  0.00000000000E+00 -0.00000000000E+00 -0.11268619335E+04  0.11268619335E+04  0.50400000000E-02 0. -1.
    5000001    1    1    2    0    0 -0.82284093640E+02  0.83372979611E+02 -0.42752208667E+03  0.47299245278E+03  0.16500000000E+03 0.  0.
   -5000001    1    1    2    0    0  0.82284093640E+02 -0.83372979611E+02 -0.66147517702E+03  0.69173415096E+03  0.16500000000E+03 0.  0.
<mgrwt>
<rscale>  0 0.41312591E+03</rscale>
<asrwt>0</asrwt>
<pdfrwt beam="1">  1        1 0.16098026E+00 0.41312591E+03</pdfrwt>
<pdfrwt beam="2">  1       -1 0.54092392E-02 0.41312591E+03</pdfrwt>
<totfact> 0.23126882E+03</totfact>
</mgrwt>
</event>
<event>
 4    1  0.2428650E-005  0.4322529E+03  0.7818608E-02  0.1033151E+00
          1   -1    0    0  501    0  0.00000000000E+00  0.00000000000E+00  0.12910381832E+04  0.12910381832E+04  0.50400000000E-02 0. -1.
         -1   -1    0    0    0  501 -0.00000000000E+00 -0.00000000000E+00 -0.36180679192E+02  0.36180679543E+02  0.50400000000E-02 0.  1.
    5000001    1    1    2    0    0 -0.83251498872E+02 -0.57282713774E+02  0.33174538936E+03  0.38404703452E+03  0.16500000000E+03 0.  0.
   -5000001    1    1    2    0    0  0.83251498872E+02  0.57282713774E+02  0.92311211465E+03  0.94317182823E+03  0.16500000000E+03 0.  0.
<mgrwt>
<rscale>  0 0.43225288E+03</rscale>
<asrwt>0</asrwt>
<pdfrwt beam="1">  1        1 0.18443401E+00 0.43225288E+03</pdfrwt>
<pdfrwt beam="2">  1       -1 0.51686688E-02 0.43225288E+03</pdfrwt>
<totfact> 0.19192119E+03</totfact>
</mgrwt>
</event>
<event>
 4    1  0.2428650E-005  0.5857832E+03  0.7818608E-02  0.9935348E-01
         -1   -1    0    0    0  501 -0.00000000000E+00  0.00000000000E+00  0.22295449014E+03  0.22295449019E+03  0.50400000000E-02 0.  1.
          1   -1    0    0  501    0  0.00000000000E+00 -0.00000000000E+00 -0.38476686762E+03  0.38476686766E+03  0.50400000000E-02 0. -1.
    5000001    1    1    2    0    0  0.15811094622E+03  0.13550861102E+03 -0.20880687167E+03  0.33791561762E+03  0.16500000000E+03 0.  0.
   -5000001    1    1    2    0    0 -0.15811094622E+03 -0.13550861102E+03  0.46994494187E+02  0.26980574023E+03  0.16500000000E+03 0.  0.
<mgrwt>
<rscale>  0 0.58578324E+03</rscale>
<asrwt>0</asrwt>
<pdfrwt beam="1">  1        1 0.54966695E-01 0.58578324E+03</pdfrwt>
<pdfrwt beam="2">  1       -1 0.31850641E-01 0.58578324E+03</pdfrwt>
<totfact> 0.64480722E+02</totfact>
</mgrwt>
</event>
<event>
 4    1  0.2428650E-005  0.6919341E+03  0.7818608E-02  0.9731126E-01
         -1   -1    0    0    0  501 -0.00000000000E+00  0.00000000000E+00  0.17650772687E+03  0.17650772694E+03  0.50400000000E-02 0. -1.
          1   -1    0    0  501    0  0.00000000000E+00 -0.00000000000E+00 -0.67811871503E+03  0.67811871505E+03  0.50400000000E-02 0.  1.
    5000001    1    1    2    0    0  0.19803942246E+03  0.21680657296E+03 -0.34839998787E+03  0.48459493856E+03  0.16500000000E+03 0.  0.
   -5000001    1    1    2    0    0 -0.19803942246E+03 -0.21680657296E+03 -0.15321100029E+03  0.37003150344E+03  0.16500000000E+03 0.  0.
<mgrwt>
<rscale>  0 0.69193408E+03</rscale>
<asrwt>0</asrwt>
<pdfrwt beam="1">  1        1 0.96874100E-01 0.69193408E+03</pdfrwt>
<pdfrwt beam="2">  1       -1 0.25215390E-01 0.69193408E+03</pdfrwt>
<totfact> 0.44447352E+02</totfact>
</mgrwt>
</event>
<event>
 4    1  0.2428650E-005  0.3944086E+03  0.7818608E-02  0.1045733E+00
         -1   -1    0    0    0  501 -0.00000000000E+00  0.00000000000E+00  0.64403109561E+02  0.64403109758E+02  0.50400000000E-02 0. -1.
          1   -1    0    0  501    0  0.00000000000E+00 -0.00000000000E+00 -0.60384554871E+03  0.60384554873E+03  0.50400000000E-02 0.  1.
    5000001    1    1    2    0    0  0.18319653111E+02  0.85783962753E+02 -0.16296607501E+03  0.24794644494E+03  0.16500000000E+03 0.  0.
   -5000001    1    1    2    0    0 -0.18319653111E+02 -0.85783962753E+02 -0.37647636414E+03  0.42030221355E+03  0.16500000000E+03 0.  0.
<mgrwt>
<rscale>  0 0.39440858E+03</rscale>
<asrwt>0</asrwt>
<pdfrwt beam="1">  1        1 0.86263647E-01 0.39440858E+03</pdfrwt>
<pdfrwt beam="2">  1       -1 0.92004446E-02 0.39440858E+03</pdfrwt>
<totfact> 0.26940856E+03</totfact>
</mgrwt>
</event>
<event>
 4    1  0.2428650E-005  0.6506217E+03  0.7818608E-02  0.9805613E-01
          1   -1    0    0  501    0  0.00000000000E+00  0.00000000000E+00  0.29162176041E+03  0.29162176045E+03  0.50400000000E-02 0.  1.
         -1   -1    0    0    0  501 -0.00000000000E+00 -0.00000000000E+00 -0.36289180096E+03  0.36289180100E+03  0.50400000000E-02 0. -1.
    5000001    1    1    2    0    0 -0.18573086333E+03  0.18107932373E+03 -0.14265025673E+03  0.33890967944E+03  0.16500000000E+03 0.  0.
   -5000001    1    1    2    0    0  0.18573086333E+03 -0.18107932373E+03  0.71380216174E+02  0.31560388200E+03  0.16500000000E+03 0.  0.
<mgrwt>
<rscale>  0 0.65062169E+03</rscale>
<asrwt>0</asrwt>
<pdfrwt beam="1">  1        1 0.41660252E-01 0.65062169E+03</pdfrwt>
<pdfrwt beam="2">  1       -1 0.51841686E-01 0.65062169E+03</pdfrwt>
<totfact> 0.37978512E+02</totfact>
</mgrwt>
</event>
<event>
 4    1  0.2428650E-005  0.7039721E+03  0.7818608E-02  0.9710463E-01
          1   -1    0    0  501    0  0.00000000000E+00  0.00000000000E+00  0.10346664021E+03  0.10346664033E+03  0.50400000000E-02 0.  1.
         -1   -1    0    0    0  501 -0.00000000000E+00 -0.00000000000E+00 -0.11974312546E+04  0.11974312547E+04  0.50400000000E-02 0. -1.
    5000001    1    1    2    0    0 -0.18911780561E+03 -0.13839315007E+03 -0.16939178343E+03  0.33292158939E+03  0.16500000000E+03 0.  0.
   -5000001    1    1    2    0    0  0.18911780561E+03  0.13839315007E+03 -0.92457283100E+03  0.96797630560E+03  0.16500000000E+03 0.  0.
<mgrwt>
<rscale>  0 0.70397213E+03</rscale>
<asrwt>0</asrwt>
<pdfrwt beam="1">  1        1 0.14780949E-01 0.70397213E+03</pdfrwt>
<pdfrwt beam="2">  1       -1 0.17106160E+00 0.70397213E+03</pdfrwt>
<totfact> 0.97120425E+01</totfact>
</mgrwt>
</event>
<event>
 4    1  0.2428650E-005  0.5252218E+03  0.7818608E-02  0.1007398E+00
         -1   -1    0    0    0  501 -0.00000000000E+00  0.00000000000E+00  0.11744810942E+03  0.11744810953E+03  0.50400000000E-02 0. -1.
          1   -1    0    0  501    0  0.00000000000E+00 -0.00000000000E+00 -0.58719112103E+03  0.58719112105E+03  0.50400000000E-02 0.  1.
    5000001    1    1    2    0    0  0.12188219096E+03 -0.16324478086E+03 -0.21428936653E+03  0.33859867035E+03  0.16500000000E+03 0.  0.
   -5000001    1    1    2    0    0 -0.12188219096E+03  0.16324478086E+03 -0.25545364507E+03  0.36604056023E+03  0.16500000000E+03 0.  0.
<mgrwt>
<rscale>  0 0.52522181E+03</rscale>
<asrwt>0</asrwt>
<pdfrwt beam="1">  1        1 0.83884444E-01 0.52522181E+03</pdfrwt>
<pdfrwt beam="2">  1       -1 0.16778302E-01 0.52522181E+03</pdfrwt>
<totfact> 0.10788419E+03</totfact>
</mgrwt>
</event>
<event>
 4    1  0.2428650E-005  0.5217638E+03  0.7818608E-02  0.1008249E+00
          1   -1    0    0  501    0  0.00000000000E+00  0.00000000000E+00  0.63231715095E+03  0.63231715097E+03  0.50400000000E-02 0.  1.
         -1   -1    0    0    0  501 -0.00000000000E+00 -0.00000000000E+00 -0.10763486978E+03  0.10763486990E+03  0.50400000000E-02 0. -1.
    5000001    1    1    2    0    0  0.19204314481E+03 -0.11971043173E+02  0.34988395606E+03  0.43205052720E+03  0.16500000000E+03 0.  0.
   -5000001    1    1    2    0    0 -0.19204314481E+03  0.11971043173E+02  0.17479832510E+03  0.30790149367E+03  0.16500000000E+03 0.  0.
<mgrwt>
<rscale>  0 0.52176383E+03</rscale>
<asrwt>0</asrwt>
<pdfrwt beam="1">  1        1 0.90331021E-01 0.52176383E+03</pdfrwt>
<pdfrwt beam="2">  1       -1 0.15376410E-01 0.52176383E+03</pdfrwt>
<totfact> 0.11205801E+03</totfact>
</mgrwt>
</event>
<event>
 4    1  0.2428650E-005  0.5835215E+03  0.7818608E-02  0.9940196E-01
          1   -1    0    0  501    0  0.00000000000E+00  0.00000000000E+00  0.45926860065E+03  0.45926860068E+03  0.50400000000E-02 0.  1.
         -1   -1    0    0    0  501 -0.00000000000E+00 -0.00000000000E+00 -0.18534759438E+03  0.18534759445E+03  0.50400000000E-02 0. -1.
    5000001    1    1    2    0    0 -0.11525928899E+03  0.17539841698E+03  0.69526479574E+01  0.26706300323E+03  0.16500000000E+03 0.  0.
   -5000001    1    1    2    0    0  0.11525928899E+03 -0.17539841698E+03  0.26696835831E+03  0.37755319190E+03  0.16500000000E+03 0.  0.
<mgrwt>
<rscale>  0 0.58352148E+03</rscale>
<asrwt>0</asrwt>
<pdfrwt beam="1">  1        1 0.65609798E-01 0.58352148E+03</pdfrwt>
<pdfrwt beam="2">  1       -1 0.26478229E-01 0.58352148E+03</pdfrwt>
<totfact> 0.70317877E+02</totfact>
</mgrwt>
</event>
<event>
 4    1  0.2428650E-005  0.7271061E+03  0.7818608E-02  0.9671968E-01
         -1   -1    0    0    0  501 -0.00000000000E+00  0.00000000000E+00  0.10407469957E+03  0.10407469969E+03  0.50400000000E-02 0. -1.
          1   -1    0    0  501    0  0.00000000000E+00 -0.00000000000E+00 -0.12699611267E+04  0.12699611267E+04  0.50400000000E-02 0.  1.
    5000001    1    1    2    0    0  0.10267096587E+01 -0.28982536801E+03 -0.85643927101E+03  0.91908270739E+03  0.16500000000E+03 0.  0.
   -5000001    1    1    2    0    0 -0.10267096587E+01  0.28982536801E+03 -0.30944715610E+03  0.45495311901E+03  0.16500000000E+03 0.  0.
<mgrwt>
<rscale>  0 0.72710611E+03</rscale>
<asrwt>0</asrwt>
<pdfrwt beam="1">  1        1 0.18142301E+00 0.72710611E+03</pdfrwt>
<pdfrwt beam="2">  1       -1 0.14867815E-01 0.72710611E+03</pdfrwt>
<totfact> 0.37422802E+02</totfact>
</mgrwt>
</event>
<event>
 4    1  0.2428650E-005  0.4082814E+03  0.7818608E-02  0.1040949E+00
         -1   -1    0    0    0  501 -0.00000000000E+00  0.00000000000E+00  0.14849564441E+04  0.14849564441E+04  0.50400000000E-02 0.  1.
          1   -1    0    0  501    0  0.00000000000E+00 -0.00000000000E+00 -0.28063730476E+02  0.28063730928E+02  0.50400000000E-02 0. -1.
    5000001    1    1    2    0    0  0.11197878225E+03  0.22775225246E+01  0.56674387158E+03  0.60080616738E+03  0.16500000000E+03 0.  0.
   -5000001    1    1    2    0    0 -0.11197878225E+03 -0.22775225246E+01  0.89014884205E+03  0.91221400767E+03  0.16500000000E+03 0.  0.
<mgrwt>
<rscale>  0 0.40828136E+03</rscale>
<asrwt>0</asrwt>
<pdfrwt beam="1">  1        1 0.40091052E-02 0.40828136E+03</pdfrwt>
<pdfrwt beam="2">  1       -1 0.21213659E+00 0.40828136E+03</pdfrwt>
<totfact> 0.31325414E+02</totfact>
</mgrwt>
</event>
<event>
 4    1  0.2428650E-005  0.5534071E+03  0.7818608E-02  0.1000708E+00
          1   -1    0    0  501    0  0.00000000000E+00  0.00000000000E+00  0.31649632257E+04  0.31649632257E+04  0.50400000000E-02 0. -1.
         -1   -1    0    0    0  501 -0.00000000000E+00 -0.00000000000E+00 -0.24191385166E+02  0.24191385691E+02  0.50400000000E-02 0.  1.
    5000001    1    1    2    0    0  0.17718955739E+03 -0.71094479474E+02  0.22246381635E+04  0.22389038663E+04  0.16500000000E+03 0.  0.
   -5000001    1    1    2    0    0 -0.17718955739E+03  0.71094479474E+02  0.91613367705E+03  0.95025074506E+03  0.16500000000E+03 0.  0.
<mgrwt>
<rscale>  0 0.55340707E+03</rscale>
<asrwt>0</asrwt>
<pdfrwt beam="1">  1        1 0.45213746E+00 0.55340707E+03</pdfrwt>
<pdfrwt beam="2">  1       -1 0.34559133E-02 0.55340707E+03</pdfrwt>
<totfact> 0.23292762E+02</totfact>
</mgrwt>
</event>
<event>
 4    1  0.2428650E-005  0.7145991E+03  0.7818608E-02  0.9692586E-01
          1   -1    0    0  501    0  0.00000000000E+00  0.00000000000E+00  0.34276627016E+04  0.34276627016E+04  0.50400000000E-02 0.  1.
         -1   -1    0    0    0  501 -0.00000000000E+00 -0.00000000000E+00 -0.37244906650E+02  0.37244906991E+02  0.50400000000E-02 0. -1.
    5000001    1    1    2    0    0 -0.27114957165E+03 -0.16347810244E+03  0.16282334209E+04  0.16669181903E+04  0.16500000000E+03 0.  0.
   -5000001    1    1    2    0    0  0.27114957165E+03  0.16347810244E+03  0.17621843740E+04  0.17979894183E+04  0.16500000000E+03 0.  0.
<mgrwt>
<rscale>  0 0.71459913E+03</rscale>
<asrwt>0</asrwt>
<pdfrwt beam="1">  1        1 0.48966599E+00 0.71459913E+03</pdfrwt>
<pdfrwt beam="2">  1       -1 0.53207022E-02 0.71459913E+03</pdfrwt>
<totfact> 0.78982612E+01</totfact>
</mgrwt>
</event>
<event>
 4    1  0.2428650E-005  0.5124531E+03  0.7818608E-02  0.1010579E+00
         -1   -1    0    0    0  501 -0.00000000000E+00  0.00000000000E+00  0.42116209966E+02  0.42116210267E+02  0.50400000000E-02 0.  1.
          1   -1    0    0  501    0  0.00000000000E+00 -0.00000000000E+00 -0.15588308995E+04  0.15588308995E+04  0.50400000000E-02 0. -1.
    5000001    1    1    2    0    0 -0.17314129926E+03  0.44362694897E+02 -0.10098625169E+04  0.10387460042E+04  0.16500000000E+03 0.  0.
   -5000001    1    1    2    0    0  0.17314129926E+03 -0.44362694897E+02 -0.50685217265E+03  0.56220110559E+03  0.16500000000E+03 0.  0.
<mgrwt>
<rscale>  0 0.51245312E+03</rscale>
<asrwt>0</asrwt>
<pdfrwt beam="1">  1        1 0.22269009E+00 0.51245312E+03</pdfrwt>
<pdfrwt beam="2">  1       -1 0.60166024E-02 0.51245312E+03</pdfrwt>
<totfact> 0.10197199E+03</totfact>
</mgrwt>
</event>
<event>
 4    1  0.2428650E-005  0.5016630E+03  0.7818608E-02  0.1013346E+00
          1   -1    0    0  501    0  0.00000000000E+00  0.00000000000E+00  0.24179835619E+03  0.24179835625E+03  0.50400000000E-02 0.  1.
         -1   -1    0    0    0  501 -0.00000000000E+00 -0.00000000000E+00 -0.26020211884E+03  0.26020211889E+03  0.50400000000E-02 0. -1.
    5000001    1    1    2    0    0 -0.69026551693E+02  0.16323916578E+03 -0.74665721449E+02  0.25340019740E+03  0.16500000000E+03 0.  0.
   -5000001    1    1    2    0    0  0.69026551693E+02 -0.16323916578E+03  0.56261958805E+02  0.24860027774E+03  0.16500000000E+03 0.  0.
<mgrwt>
<rscale>  0 0.50166301E+03</rscale>
<asrwt>0</asrwt>
<pdfrwt beam="1">  1        1 0.34542622E-01 0.50166301E+03</pdfrwt>
<pdfrwt beam="2">  1       -1 0.37171731E-01 0.50166301E+03</pdfrwt>
<totfact> 0.89363605E+02</totfact>
</mgrwt>
</event>
<event>
 4    1  0.2428650E-005  0.4514363E+03  0.7818608E-02  0.1027295E+00
         -1   -1    0    0    0  501 -0.00000000000E+00  0.00000000000E+00  0.57153811283E+03  0.57153811286E+03  0.50400000000E-02 0.  1.
          1   -1    0    0  501    0  0.00000000000E+00 -0.00000000000E+00 -0.89143111568E+02  0.89143111710E+02  0.50400000000E-02 0. -1.
    5000001    1    1    2    0    0 -0.32890458888E+02 -0.88804117456E+02  0.63420383469E+02  0.20053702551E+03  0.16500000000E+03 0.  0.
   -5000001    1    1    2    0    0  0.32890458888E+02  0.88804117456E+02  0.41897461780E+03  0.46014419905E+03  0.16500000000E+03 0.  0.
<mgrwt>
<rscale>  0 0.45143631E+03</rscale>
<asrwt>0</asrwt>
<pdfrwt beam="1">  1        1 0.12734730E-01 0.45143631E+03</pdfrwt>
<pdfrwt beam="2">  1       -1 0.81648303E-01 0.45143631E+03</pdfrwt>
<totfact> 0.72596506E+02</totfact>
</mgrwt>
</event>
<event>
 4    1  0.2428650E-005  0.5625060E+03  0.7818608E-02  0.9986400E-01
         -1   -1    0    0    0  501 -0.00000000000E+00  0.00000000000E+00  0.11069328209E+03  0.11069328220E+03  0.50400000000E-02 0. -1.
          1   -1    0    0  501    0  0.00000000000E+00 -0.00000000000E+00 -0.71461662380E+03  0.71461662382E+03  0.50400000000E-02 0.  1.
    5000001    1    1    2    0    0 -0.61555589057E+02 -0.18628785702E+03 -0.13220949987E+03  0.28843822228E+03  0.16500000000E+03 0.  0.
   -5000001    1    1    2    0    0  0.61555589057E+02  0.18628785702E+03 -0.47171384184E+03  0.53687168374E+03  0.16500000000E+03 0.  0.
<mgrwt>
<rscale>  0 0.56250603E+03</rscale>
<asrwt>0</asrwt>
<pdfrwt beam="1">  1        1 0.10208809E+00 0.56250603E+03</pdfrwt>
<pdfrwt beam="2">  1       -1 0.15813326E-01 0.56250603E+03</pdfrwt>
<totfact> 0.89709568E+02</totfact>
</mgrwt>
</event>
<event>
 4    1  0.2428650E-005  0.3934372E+03  0.7818608E-02  0.1046076E+00
          1   -1    0    0  501    0  0.00000000000E+00  0.00000000000E+00  0.14808357397E+04  0.14808357398E+04  0.50400000000E-02 0. -1.
         -1   -1    0    0    0  501 -0.00000000000E+00 -0.00000000000E+00 -0.26132686155E+02  0.26132686641E+02  0.50400000000E-02 0.  1.
    5000001    1    1    2    0    0 -0.61889171893E+02  0.53642395904E+02  0.46294012551E+03  0.49824324987E+03  0.16500000000E+03 0.  0.
   -5000001    1    1    2    0    0  0.61889171893E+02 -0.53642395904E+02  0.99176292808E+03  0.10087251765E+04  0.16500000000E+03 0.  0.
<mgrwt>
<rscale>  0 0.39343724E+03</rscale>
<asrwt>0</asrwt>
<pdfrwt beam="1">  1        1 0.21154804E+00 0.39343724E+03</pdfrwt>
<pdfrwt beam="2">  1       -1 0.37332396E-02 0.39343724E+03</pdfrwt>
<totfact> 0.23655555E+03</totfact>
</mgrwt>
</event>
<event>
 4    1  0.2428650E-005  0.4697794E+03  0.7818608E-02  0.1021982E+00
          1   -1    0    0  501    0  0.00000000000E+00  0.00000000000E+00  0.53655896986E+03  0.53655896989E+03  0.50400000000E-02 0.  1.
         -1   -1    0    0    0  501 -0.00000000000E+00 -0.00000000000E+00 -0.10282777437E+03  0.10282777450E+03  0.50400000000E-02 0. -1.
    5000001    1    1    2    0    0  0.11500661780E+03 -0.12105513459E+03  0.22803082327E+03  0.32726735876E+03  0.16500000000E+03 0.  0.
   -5000001    1    1    2    0    0 -0.11500661780E+03  0.12105513459E+03  0.20570037222E+03  0.31211938562E+03  0.16500000000E+03 0.  0.
<mgrwt>
<rscale>  0 0.46977937E+03</rscale>
<asrwt>0</asrwt>
<pdfrwt beam="1">  1        1 0.76651282E-01 0.46977937E+03</pdfrwt>
<pdfrwt beam="2">  1       -1 0.14689682E-01 0.46977937E+03</pdfrwt>
<totfact> 0.15140252E+03</totfact>
</mgrwt>
</event>
<event>
 4    1  0.2428650E-005  0.3632094E+03  0.7818608E-02  0.1057320E+00
         -1   -1    0    0    0  501 -0.00000000000E+00  0.00000000000E+00  0.53483277979E+02  0.53483278216E+02  0.50400000000E-02 0. -1.
          1   -1    0    0  501    0  0.00000000000E+00 -0.00000000000E+00 -0.61664632394E+03  0.61664632396E+03  0.50400000000E-02 0.  1.
    5000001    1    1    2    0    0  0.42006078950E+02 -0.39022871154E+02 -0.18992321994E+03  0.25803706055E+03  0.16500000000E+03 0.  0.
   -5000001    1    1    2    0    0 -0.42006078950E+02  0.39022871154E+02 -0.37323982602E+03  0.41209254163E+03  0.16500000000E+03 0.  0.
<mgrwt>
<rscale>  0 0.36320940E+03</rscale>
<asrwt>0</asrwt>
<pdfrwt beam="1">  1        1 0.88092328E-01 0.36320940E+03</pdfrwt>
<pdfrwt beam="2">  1       -1 0.76404687E-02 0.36320940E+03</pdfrwt>
<totfact> 0.34831287E+03</totfact>
</mgrwt>
</event>
<event>
 4    1  0.2428650E-005  0.9401364E+03  0.7818608E-02  0.9376754E-01
         -1   -1    0    0    0  501 -0.00000000000E+00  0.00000000000E+00  0.30078074792E+03  0.30078074797E+03  0.50400000000E-02 0. -1.
          1   -1    0    0  501    0  0.00000000000E+00 -0.00000000000E+00 -0.73463521257E+03  0.73463521258E+03  0.50400000000E-02 0.  1.
    5000001    1    1    2    0    0  0.34027838503E+03  0.23362134987E+03 -0.48558712614E+02  0.44715910256E+03  0.16500000000E+03 0.  0.
   -5000001    1    1    2    0    0 -0.34027838503E+03 -0.23362134987E+03 -0.38529575203E+03  0.58825685798E+03  0.16500000000E+03 0.  0.
<mgrwt>
<rscale>  0 0.94013643E+03</rscale>
<asrwt>0</asrwt>
<pdfrwt beam="1">  1        1 0.10494789E+00 0.94013643E+03</pdfrwt>
<pdfrwt beam="2">  1       -1 0.42968678E-01 0.94013643E+03</pdfrwt>
<totfact> 0.15193983E+02</totfact>
</mgrwt>
</event>
<event>
 4    1  0.2428650E-005  0.4942451E+03  0.7818608E-02  0.1015292E+00
         -1   -1    0    0    0  501 -0.00000000000E+00  0.00000000000E+00  0.10494174236E+04  0.10494174236E+04  0.50400000000E-02 0. -1.
          1   -1    0    0  501    0  0.00000000000E+00 -0.00000000000E+00 -0.58193770658E+02  0.58193770876E+02  0.50400000000E-02 0.  1.
    5000001    1    1    2    0    0 -0.11552349099E+03 -0.13610431508E+03  0.59519203336E+03  0.64292193782E+03  0.16500000000E+03 0.  0.
   -5000001    1    1    2    0    0  0.11552349099E+03  0.13610431508E+03  0.39603161959E+03  0.46468925667E+03  0.16500000000E+03 0.  0.
<mgrwt>
<rscale>  0 0.49424511E+03</rscale>
<asrwt>0</asrwt>
<pdfrwt beam="1">  1        1 0.83133955E-02 0.49424511E+03</pdfrwt>
<pdfrwt beam="2">  1       -1 0.14991678E+00 0.49424511E+03</pdfrwt>
<totfact> 0.31021960E+02</totfact>
</mgrwt>
</event>
<event>
 4    1  0.2428650E-005  0.3957664E+03  0.7818608E-02  0.1045256E+00
          1   -1    0    0  501    0  0.00000000000E+00  0.00000000000E+00  0.22826386815E+02  0.22826387371E+02  0.50400000000E-02 0.  1.
         -1   -1    0    0    0  501 -0.00000000000E+00 -0.00000000000E+00 -0.17154604205E+04  0.17154604205E+04  0.50400000000E-02 0. -1.
    5000001    1    1    2    0    0 -0.46668312144E+02 -0.95162189778E+02 -0.73019409730E+03  0.75607023050E+03  0.16500000000E+03 0.  0.
   -5000001    1    1    2    0    0  0.46668312144E+02  0.95162189778E+02 -0.96243993640E+03  0.98221657739E+03  0.16500000000E+03 0.  0.
<mgrwt>
<rscale>  0 0.39576641E+03</rscale>
<asrwt>0</asrwt>
<pdfrwt beam="1">  1        1 0.32609135E-02 0.39576641E+03</pdfrwt>
<pdfrwt beam="2">  1       -1 0.24506569E+00 0.39576641E+03</pdfrwt>
<totfact> 0.25685193E+02</totfact>
</mgrwt>
</event>
<event>
 4    1  0.2428650E-005  0.5830875E+03  0.7818608E-02  0.9941129E-01
          1   -1    0    0  501    0  0.00000000000E+00  0.00000000000E+00  0.55216515400E+03  0.55216515402E+03  0.50400000000E-02 0.  1.
         -1   -1    0    0    0  501 -0.00000000000E+00 -0.00000000000E+00 -0.15393539155E+03  0.15393539163E+03  0.50400000000E-02 0. -1.
    5000001    1    1    2    0    0 -0.15503514056E+03 -0.15167890679E+03  0.73673670940E+02  0.28230337469E+03  0.16500000000E+03 0.  0.
   -5000001    1    1    2    0    0  0.15503514056E+03  0.15167890679E+03  0.32455609151E+03  0.42379717096E+03  0.16500000000E+03 0.  0.
<mgrwt>
<rscale>  0 0.58308750E+03</rscale>
<asrwt>0</asrwt>
<pdfrwt beam="1">  1        1 0.78880735E-01 0.58308750E+03</pdfrwt>
<pdfrwt beam="2">  1       -1 0.21990771E-01 0.58308750E+03</pdfrwt>
<totfact> 0.75076418E+02</totfact>
</mgrwt>
</event>
<event>
 4    1  0.2428650E-005  0.4254419E+03  0.7818608E-02  0.1035310E+00
         -1   -1    0    0    0  501 -0.00000000000E+00  0.00000000000E+00  0.25598355620E+03  0.25598355625E+03  0.50400000000E-02 0.  1.
          1   -1    0    0  501    0  0.00000000000E+00 -0.00000000000E+00 -0.17676993736E+03  0.17676993743E+03  0.50400000000E-02 0. -1.
    5000001    1    1    2    0    0 -0.68462313803E+02 -0.82233838237E+02  0.12209114840E+03  0.23147514139E+03  0.16500000000E+03 0.  0.
   -5000001    1    1    2    0    0  0.68462313803E+02  0.82233838237E+02 -0.42877529551E+02  0.20127835230E+03  0.16500000000E+03 0.  0.
<mgrwt>
<rscale>  0 0.42544187E+03</rscale>
<asrwt>0</asrwt>
<pdfrwt beam="1">  1        1 0.25252848E-01 0.42544187E+03</pdfrwt>
<pdfrwt beam="2">  1       -1 0.36569079E-01 0.42544187E+03</pdfrwt>
<totfact> 0.13753413E+03</totfact>
</mgrwt>
</event>
<event>
 4    1  0.2428650E-005  0.4672898E+03  0.7818608E-02  0.1022688E+00
         -1   -1    0    0    0  501 -0.00000000000E+00  0.00000000000E+00  0.33009806496E+03  0.33009806500E+03  0.50400000000E-02 0. -1.
          1   -1    0    0  501    0  0.00000000000E+00 -0.00000000000E+00 -0.16537491273E+03  0.16537491281E+03  0.50400000000E-02 0.  1.
    5000001    1    1    2    0    0  0.12345196991E+03  0.39223305565E+02  0.19145568634E+03  0.28400552179E+03  0.16500000000E+03 0.  0.
   -5000001    1    1    2    0    0 -0.12345196991E+03 -0.39223305565E+02 -0.26732534113E+02  0.21146745602E+03  0.16500000000E+03 0.  0.
<mgrwt>
<rscale>  0 0.46728980E+03</rscale>
<asrwt>0</asrwt>
<pdfrwt beam="1">  1        1 0.23624988E-01 0.46728980E+03</pdfrwt>
<pdfrwt beam="2">  1       -1 0.47156865E-01 0.46728980E+03</pdfrwt>
<totfact> 0.94634085E+02</totfact>
</mgrwt>
</event>
<event>
 4    1  0.2428650E-005  0.5253243E+03  0.7818608E-02  0.1007372E+00
          1   -1    0    0  501    0  0.00000000000E+00  0.00000000000E+00  0.17985374319E+04  0.17985374319E+04  0.50400000000E-02 0.  1.
         -1   -1    0    0    0  501 -0.00000000000E+00 -0.00000000000E+00 -0.38359732682E+02  0.38359733013E+02  0.50400000000E-02 0. -1.
    5000001    1    1    2    0    0  0.17870287559E+03 -0.44742165440E+02  0.57067933677E+03  0.62196180311E+03  0.16500000000E+03 0.  0.
   -5000001    1    1    2    0    0 -0.17870287559E+03  0.44742165440E+02  0.11894983625E+04  0.12149353618E+04  0.16500000000E+03 0.  0.
<mgrwt>
<rscale>  0 0.52532434E+03</rscale>
<asrwt>0</asrwt>
<pdfrwt beam="1">  1        1 0.25693393E+00 0.52532434E+03</pdfrwt>
<pdfrwt beam="2">  1       -1 0.54799617E-02 0.52532434E+03</pdfrwt>
<totfact> 0.83257471E+02</totfact>
</mgrwt>
</event>
<event>
 4    1  0.2428650E-005  0.4200097E+03  0.7818608E-02  0.1037063E+00
         -1   -1    0    0    0  501 -0.00000000000E+00  0.00000000000E+00  0.20849049514E+03  0.20849049520E+03  0.50400000000E-02 0. -1.
          1   -1    0    0  501    0  0.00000000000E+00 -0.00000000000E+00 -0.21153020449E+03  0.21153020455E+03  0.50400000000E-02 0.  1.
    5000001    1    1    2    0    0  0.57908206989E+02  0.10389719778E+03  0.50721813504E+02  0.20963227449E+03  0.16500000000E+03 0.  0.
   -5000001    1    1    2    0    0 -0.57908206989E+02 -0.10389719778E+03 -0.53761522853E+02  0.21038842526E+03  0.16500000000E+03 0.  0.
<mgrwt>
<rscale>  0 0.42000970E+03</rscale>
<asrwt>0</asrwt>
<pdfrwt beam="1">  1        1 0.30218600E-01 0.42000970E+03</pdfrwt>
<pdfrwt beam="2">  1       -1 0.29784357E-01 0.42000970E+03</pdfrwt>
<totfact> 0.15619335E+03</totfact>
</mgrwt>
</event>
<event>
 4    1  0.2428650E-005  0.6452717E+03  0.7818608E-02  0.9815692E-01
          1   -1    0    0  501    0  0.00000000000E+00  0.00000000000E+00  0.84080341332E+03  0.84080341333E+03  0.50400000000E-02 0.  1.
         -1   -1    0    0    0  501 -0.00000000000E+00 -0.00000000000E+00 -0.12380287788E+03  0.12380287799E+03  0.50400000000E-02 0. -1.
    5000001    1    1    2    0    0 -0.97117015152E+01  0.25498475800E+03  0.19640811117E+03  0.36181858727E+03  0.16500000000E+03 0.  0.
   -5000001    1    1    2    0    0  0.97117015152E+01 -0.25498475800E+03  0.52059242426E+03  0.60278770405E+03  0.16500000000E+03 0.  0.
<mgrwt>
<rscale>  0 0.64527167E+03</rscale>
<asrwt>0</asrwt>
<pdfrwt beam="1">  1        1 0.12011477E+00 0.64527167E+03</pdfrwt>
<pdfrwt beam="2">  1       -1 0.17686125E-01 0.64527167E+03</pdfrwt>
<totfact> 0.58232046E+02</totfact>
</mgrwt>
</event>
<event>
 4    1  0.2428650E-005  0.8025889E+03  0.7818608E-02  0.9556277E-01
          1   -1    0    0  501    0  0.00000000000E+00  0.00000000000E+00  0.17577938840E+04  0.17577938841E+04  0.50400000000E-02 0.  1.
         -1   -1    0    0    0  501 -0.00000000000E+00 -0.00000000000E+00 -0.91613274647E+02  0.91613274785E+02  0.50400000000E-02 0. -1.
    5000001    1    1    2    0    0 -0.27241660760E+03  0.61177690622E+02  0.13776994286E+04  0.14153565747E+04  0.16500000000E+03 0.  0.
   -5000001    1    1    2    0    0  0.27241660760E+03 -0.61177690622E+02  0.28848118079E+03  0.43405058415E+03  0.16500000000E+03 0.  0.
<mgrwt>
<rscale>  0 0.80258895E+03</rscale>
<asrwt>0</asrwt>
<pdfrwt beam="1">  1        1 0.25111342E+00 0.80258895E+03</pdfrwt>
<pdfrwt beam="2">  1       -1 0.13087610E-01 0.80258895E+03</pdfrwt>
<totfact> 0.22137221E+02</totfact>
</mgrwt>
</event>
<event>
 4    1  0.2428650E-005  0.5730259E+03  0.7818608E-02  0.9963005E-01
          1   -1    0    0  501    0  0.00000000000E+00  0.00000000000E+00  0.17789354544E+03  0.17789354551E+03  0.50400000000E-02 0.  1.
         -1   -1    0    0    0  501 -0.00000000000E+00 -0.00000000000E+00 -0.46145396092E+03  0.46145396095E+03  0.50400000000E-02 0. -1.
    5000001    1    1    2    0    0  0.21932362034E+03 -0.76349543851E+02 -0.10770760909E+03  0.30456203365E+03  0.16500000000E+03 0.  0.
   -5000001    1    1    2    0    0 -0.21932362034E+03  0.76349543851E+02 -0.17585280640E+03  0.33478547281E+03  0.16500000000E+03 0.  0.
<mgrwt>
<rscale>  0 0.57302594E+03</rscale>
<asrwt>0</asrwt>
<pdfrwt beam="1">  1        1 0.25413364E-01 0.57302594E+03</pdfrwt>
<pdfrwt beam="2">  1       -1 0.65921994E-01 0.57302594E+03</pdfrwt>
<totfact> 0.45099329E+02</totfact>
</mgrwt>
</event>
<event>
 4    1  0.2428650E-005  0.1052564E+04  0.7818608E-02  0.9252700E-01
          1   -1    0    0  501    0  0.00000000000E+00  0.00000000000E+00  0.59579658338E+03  0.59579658340E+03  0.50400000000E-02 0.  1.
         -1   -1    0    0    0  501 -0.00000000000E+00 -0.00000000000E+00 -0.46487836403E+03  0.46487836406E+03  0.50400000000E-02 0. -1.
    5000001    1    1    2    0    0  0.41194896052E+03  0.26045308693E+03 -0.45892053030E+02  0.51659349309E+03  0.16500000000E+03 0.  0.
   -5000001    1    1    2    0    0 -0.41194896052E+03 -0.26045308693E+03  0.17681027238E+03  0.54408145437E+03  0.16500000000E+03 0.  0.
<mgrwt>
<rscale>  0 0.10525644E+04</rscale>
<asrwt>0</asrwt>
<pdfrwt beam="1">  1        1 0.85113797E-01 0.10525644E+04</pdfrwt>
<pdfrwt beam="2">  1       -1 0.66411195E-01 0.10525644E+04</pdfrwt>
<totfact> 0.88412965E+01</totfact>
</mgrwt>
</event>
<event>
 4    1  0.2428650E-005  0.3685253E+03  0.7818608E-02  0.1055258E+00
          1   -1    0    0  501    0  0.00000000000E+00  0.00000000000E+00  0.77202233985E+03  0.77202233987E+03  0.50400000000E-02 0.  1.
         -1   -1    0    0    0  501 -0.00000000000E+00 -0.00000000000E+00 -0.43978933701E+02  0.43978933990E+02  0.50400000000E-02 0. -1.
    5000001    1    1    2    0    0  0.54634753209E+02  0.56529525982E+02  0.31222680021E+03  0.36178877586E+03  0.16500000000E+03 0.  0.
   -5000001    1    1    2    0    0 -0.54634753209E+02 -0.56529525982E+02  0.41581660593E+03  0.45421249800E+03  0.16500000000E+03 0.  0.
<mgrwt>
<rscale>  0 0.36852527E+03</rscale>
<asrwt>0</asrwt>
<pdfrwt beam="1">  1        1 0.11028890E+00 0.36852527E+03</pdfrwt>
<pdfrwt beam="2">  1       -1 0.62827049E-02 0.36852527E+03</pdfrwt>
<totfact> 0.34049688E+03</totfact>
</mgrwt>
</event>
<event>
 4    1  0.2428650E-005  0.3962236E+03  0.7818608E-02  0.1045095E+00
          1   -1    0    0  501    0  0.00000000000E+00  0.00000000000E+00  0.64814549324E+02  0.64814549520E+02  0.50400000000E-02 0.  1.
         -1   -1    0    0    0  501 -0.00000000000E+00 -0.00000000000E+00 -0.60554738463E+03  0.60554738465E+03  0.50400000000E-02 0. -1.
    5000001    1    1    2    0    0 -0.85046373208E+02 -0.45482234482E+02 -0.18210028966E+03  0.26398301980E+03  0.16500000000E+03 0.  0.
   -5000001    1    1    2    0    0  0.85046373208E+02  0.45482234482E+02 -0.35863254564E+03  0.40637891437E+03  0.16500000000E+03 0.  0.
<mgrwt>
<rscale>  0 0.39622358E+03</rscale>
<asrwt>0</asrwt>
<pdfrwt beam="1">  1        1 0.92592217E-02 0.39622358E+03</pdfrwt>
<pdfrwt beam="2">  1       -1 0.86506766E-01 0.39622358E+03</pdfrwt>
<totfact> 0.98906554E+02</totfact>
</mgrwt>
</event>
<event>
 4    1  0.2428650E-005  0.4727672E+03  0.7818608E-02  0.1021142E+00
         -1   -1    0    0    0  501 -0.00000000000E+00  0.00000000000E+00  0.34302730281E+02  0.34302730651E+02  0.50400000000E-02 0. -1.
          1   -1    0    0  501    0  0.00000000000E+00 -0.00000000000E+00 -0.16289432823E+04  0.16289432823E+04  0.50400000000E-02 0.  1.
    5000001    1    1    2    0    0 -0.24269875081E+02  0.90525613942E+02 -0.12932148999E+04  0.13070630019E+04  0.16500000000E+03 0.  0.
   -5000001    1    1    2    0    0  0.24269875081E+02 -0.90525613942E+02 -0.30142565217E+03  0.35618301111E+03  0.16500000000E+03 0.  0.
<mgrwt>
<rscale>  0 0.47276718E+03</rscale>
<asrwt>0</asrwt>
<pdfrwt beam="1">  1        1 0.23270614E+00 0.47276718E+03</pdfrwt>
<pdfrwt beam="2">  1       -1 0.49003911E-02 0.47276718E+03</pdfrwt>
<totfact> 0.12624609E+03</totfact>
</mgrwt>
</event>
<event>
 4    1  0.2428650E-005  0.6080148E+03  0.7818608E-02  0.9888916E-01
          1   -1    0    0  501    0  0.00000000000E+00  0.00000000000E+00  0.13085718221E+03  0.13085718231E+03  0.50400000000E-02 0.  1.
         -1   -1    0    0    0  501 -0.00000000000E+00 -0.00000000000E+00 -0.70626997099E+03  0.70626997101E+03  0.50400000000E-02 0. -1.
    5000001    1    1    2    0    0  0.60850598080E+02  0.24385582414E+03 -0.22571827673E+03  0.37595504878E+03  0.16500000000E+03 0.  0.
   -5000001    1    1    2    0    0 -0.60850598080E+02 -0.24385582414E+03 -0.34969451205E+03  0.46117210454E+03  0.16500000000E+03 0.  0.
<mgrwt>
<rscale>  0 0.60801480E+03</rscale>
<asrwt>0</asrwt>
<pdfrwt beam="1">  1        1 0.18693884E-01 0.60801480E+03</pdfrwt>
<pdfrwt beam="2">  1       -1 0.10089571E+00 0.60801480E+03</pdfrwt>
<totfact> 0.27233220E+02</totfact>
</mgrwt>
</event>
<event>
 4    1  0.2428650E-005  0.5328964E+03  0.7818608E-02  0.1005532E+00
         -1   -1    0    0    0  501 -0.00000000000E+00  0.00000000000E+00  0.50823053472E+02  0.50823053722E+02  0.50400000000E-02 0.  1.
          1   -1    0    0  501    0  0.00000000000E+00 -0.00000000000E+00 -0.13968982946E+04  0.13968982946E+04  0.50400000000E-02 0. -1.
    5000001    1    1    2    0    0  0.17539974936E+03 -0.10167913520E+03 -0.53276735168E+03  0.59343893504E+03  0.16500000000E+03 0.  0.
   -5000001    1    1    2    0    0 -0.17539974936E+03  0.10167913520E+03 -0.81330788940E+03  0.85428241324E+03  0.16500000000E+03 0.  0.
<mgrwt>
<rscale>  0 0.53289638E+03</rscale>
<asrwt>0</asrwt>
<pdfrwt beam="1">  1        1 0.19955687E+00 0.53289638E+03</pdfrwt>
<pdfrwt beam="2">  1       -1 0.72604371E-02 0.53289638E+03</pdfrwt>
<totfact> 0.96848289E+02</totfact>
</mgrwt>
</event>
<event>
 4    1  0.2428650E-005  0.4364503E+03  0.7818608E-02  0.1031842E+00
          1   -1    0    0  501    0  0.00000000000E+00  0.00000000000E+00  0.24157018560E+03  0.24157018565E+03  0.50400000000E-02 0. -1.
         -1   -1    0    0    0  501 -0.00000000000E+00 -0.00000000000E+00 -0.19713615363E+03  0.19713615369E+03  0.50400000000E-02 0.  1.
    5000001    1    1    2    0    0 -0.10005825131E+02 -0.49617116484E+02 -0.11202195589E+03  0.20575687932E+03  0.16500000000E+03 0.  0.
   -5000001    1    1    2    0    0  0.10005825131E+02  0.49617116484E+02  0.15645598787E+03  0.23294946002E+03  0.16500000000E+03 0.  0.
<mgrwt>
<rscale>  0 0.43645031E+03</rscale>
<asrwt>0</asrwt>
<pdfrwt beam="1">  1        1 0.34510027E-01 0.43645031E+03</pdfrwt>
<pdfrwt beam="2">  1       -1 0.28162308E-01 0.43645031E+03</pdfrwt>
<totfact> 0.14513833E+03</totfact>
</mgrwt>
</event>
<event>
 4    1  0.2428650E-005  0.3995953E+03  0.7818608E-02  0.1043920E+00
          1   -1    0    0  501    0  0.00000000000E+00  0.00000000000E+00  0.29876880284E+03  0.29876880289E+03  0.50400000000E-02 0.  1.
         -1   -1    0    0    0  501 -0.00000000000E+00 -0.00000000000E+00 -0.13361201551E+03  0.13361201560E+03  0.50400000000E-02 0. -1.
    5000001    1    1    2    0    0  0.10765205640E+03 -0.32973129173E+02  0.87157568440E+02  0.21793951966E+03  0.16500000000E+03 0.  0.
   -5000001    1    1    2    0    0 -0.10765205640E+03  0.32973129173E+02  0.77999218895E+02  0.21444129883E+03  0.16500000000E+03 0.  0.
<mgrwt>
<rscale>  0 0.39959531E+03</rscale>
<asrwt>0</asrwt>
<pdfrwt beam="1">  1        1 0.42681256E-01 0.39959531E+03</pdfrwt>
<pdfrwt beam="2">  1       -1 0.19087431E-01 0.39959531E+03</pdfrwt>
<totfact> 0.21184272E+03</totfact>
</mgrwt>
</event>
<event>
 4    1  0.2428650E-005  0.4712811E+03  0.7818608E-02  0.1021559E+00
          1   -1    0    0  501    0  0.00000000000E+00  0.00000000000E+00  0.45598291015E+03  0.45598291017E+03  0.50400000000E-02 0.  1.
         -1   -1    0    0    0  501 -0.00000000000E+00 -0.00000000000E+00 -0.12177311650E+03  0.12177311660E+03  0.50400000000E-02 0. -1.
    5000001    1    1    2    0    0  0.16050832335E+03 -0.22206211885E+02  0.11166071291E+03  0.25680567073E+03  0.16500000000E+03 0.  0.
   -5000001    1    1    2    0    0 -0.16050832335E+03  0.22206211885E+02  0.22254908074E+03  0.32095035605E+03  0.16500000000E+03 0.  0.
<mgrwt>
<rscale>  0 0.47128106E+03</rscale>
<asrwt>0</asrwt>
<pdfrwt beam="1">  1        1 0.65140415E-01 0.47128106E+03</pdfrwt>
<pdfrwt beam="2">  1       -1 0.17396160E-01 0.47128106E+03</pdfrwt>
<totfact> 0.14309049E+03</totfact>
</mgrwt>
</event>
<event>
 4    1  0.2428650E-005  0.5486598E+03  0.7818608E-02  0.1001805E+00
         -1   -1    0    0    0  501 -0.00000000000E+00  0.00000000000E+00  0.56813862255E+02  0.56813862479E+02  0.50400000000E-02 0. -1.
          1   -1    0    0  501    0  0.00000000000E+00 -0.00000000000E+00 -0.13246219840E+04  0.13246219840E+04  0.50400000000E-02 0.  1.
    5000001    1    1    2    0    0 -0.15302650525E+03 -0.60413274480E+02 -0.99846924266E+03  0.10252963979E+04  0.16500000000E+03 0.  0.
   -5000001    1    1    2    0    0  0.15302650525E+03  0.60413274480E+02 -0.26933887909E+03  0.35613944857E+03  0.16500000000E+03 0.  0.
<mgrwt>
<rscale>  0 0.54865979E+03</rscale>
<asrwt>0</asrwt>
<pdfrwt beam="1">  1        1 0.18923169E+00 0.54865979E+03</pdfrwt>
<pdfrwt beam="2">  1       -1 0.81162669E-02 0.54865979E+03</pdfrwt>
<totfact> 0.90789569E+02</totfact>
</mgrwt>
</event>
<event>
 4    1  0.2428650E-005  0.3465877E+03  0.7818608E-02  0.1064024E+00
         -1   -1    0    0    0  501 -0.00000000000E+00  0.00000000000E+00  0.59978327438E+03  0.59978327441E+03  0.50400000000E-02 0. -1.
          1   -1    0    0  501    0  0.00000000000E+00 -0.00000000000E+00 -0.50069349420E+02  0.50069349673E+02  0.50400000000E-02 0.  1.
    5000001    1    1    2    0    0 -0.48058678457E+02  0.21846992636E+02  0.26672049767E+03  0.31804363150E+03  0.16500000000E+03 0.  0.
   -5000001    1    1    2    0    0  0.48058678457E+02 -0.21846992636E+02  0.28299342729E+03  0.33180899257E+03  0.16500000000E+03 0.  0.
<mgrwt>
<rscale>  0 0.34658770E+03</rscale>
<asrwt>0</asrwt>
<pdfrwt beam="1">  1        1 0.71527645E-02 0.34658770E+03</pdfrwt>
<pdfrwt beam="2">  1       -1 0.85683321E-01 0.34658770E+03</pdfrwt>
<totfact> 0.14368251E+03</totfact>
</mgrwt>
</event>
<event>
 4    1  0.2428650E-005  0.4547990E+03  0.7818608E-02  0.1026301E+00
         -1   -1    0    0    0  501 -0.00000000000E+00  0.00000000000E+00  0.68690500463E+02  0.68690500648E+02  0.50400000000E-02 0. -1.
          1   -1    0    0  501    0  0.00000000000E+00 -0.00000000000E+00 -0.75280469793E+03  0.75280469794E+03  0.50400000000E-02 0.  1.
    5000001    1    1    2    0    0 -0.77938445236E+02 -0.11557439473E+03 -0.21364976938E+03  0.30381419638E+03  0.16500000000E+03 0.  0.
   -5000001    1    1    2    0    0  0.77938445236E+02  0.11557439473E+03 -0.47046442808E+03  0.51768100222E+03  0.16500000000E+03 0.  0.
<mgrwt>
<rscale>  0 0.45479900E+03</rscale>
<asrwt>0</asrwt>
<pdfrwt beam="1">  1        1 0.10754352E+00 0.45479900E+03</pdfrwt>
<pdfrwt beam="2">  1       -1 0.98129291E-02 0.45479900E+03</pdfrwt>
<totfact> 0.17783589E+03</totfact>
</mgrwt>
</event>
<event>
 4    1  0.2428650E-005  0.3761850E+03  0.7818608E-02  0.1052353E+00
         -1   -1    0    0    0  501 -0.00000000000E+00  0.00000000000E+00  0.52351407495E+02  0.52351407737E+02  0.50400000000E-02 0.  1.
          1   -1    0    0  501    0  0.00000000000E+00 -0.00000000000E+00 -0.67579448801E+03  0.67579448803E+03  0.50400000000E-02 0. -1.
    5000001    1    1    2    0    0  0.49098523934E+02 -0.29157775388E+02 -0.17632661878E+03  0.24814696735E+03  0.16500000000E+03 0.  0.
   -5000001    1    1    2    0    0 -0.49098523934E+02  0.29157775388E+02 -0.44711646174E+03  0.47999892841E+03  0.16500000000E+03 0.  0.
<mgrwt>
<rscale>  0 0.37618502E+03</rscale>
<asrwt>0</asrwt>
<pdfrwt beam="1">  1        1 0.96542065E-01 0.37618502E+03</pdfrwt>
<pdfrwt beam="2">  1       -1 0.74787729E-02 0.37618502E+03</pdfrwt>
<totfact> 0.31665239E+03</totfact>
</mgrwt>
</event>
<event>
 4    1  0.2428650E-005  0.3857613E+03  0.7818608E-02  0.1048825E+00
         -1   -1    0    0    0  501 -0.00000000000E+00  0.00000000000E+00  0.51982575882E+02  0.51982576127E+02  0.50400000000E-02 0.  1.
          1   -1    0    0  501    0  0.00000000000E+00 -0.00000000000E+00 -0.71568105187E+03  0.71568105189E+03  0.50400000000E-02 0. -1.
    5000001    1    1    2    0    0 -0.75647756333E+00 -0.87006074060E+02 -0.23421125104E+03  0.29941699901E+03  0.16500000000E+03 0.  0.
   -5000001    1    1    2    0    0  0.75647756333E+00  0.87006074060E+02 -0.42948722495E+03  0.46824662901E+03  0.16500000000E+03 0.  0.
<mgrwt>
<rscale>  0 0.38576130E+03</rscale>
<asrwt>0</asrwt>
<pdfrwt beam="1">  1        1 0.10224014E+00 0.38576130E+03</pdfrwt>
<pdfrwt beam="2">  1       -1 0.74260827E-02 0.38576130E+03</pdfrwt>
<totfact> 0.29485743E+03</totfact>
</mgrwt>
</event>
<event>
 4    1  0.2428650E-005  0.4085345E+03  0.7818608E-02  0.1040864E+00
         -1   -1    0    0    0  501 -0.00000000000E+00  0.00000000000E+00  0.61703446074E+02  0.61703446280E+02  0.50400000000E-02 0. -1.
          1   -1    0    0  501    0  0.00000000000E+00 -0.00000000000E+00 -0.67622005366E+03  0.67622005367E+03  0.50400000000E-02 0.  1.
    5000001    1    1    2    0    0  0.94087451425E+02  0.29406694457E+02 -0.43217730771E+03  0.47298988096E+03  0.16500000000E+03 0.  0.
   -5000001    1    1    2    0    0 -0.94087451425E+02 -0.29406694457E+02 -0.18233929987E+03  0.26493361899E+03  0.16500000000E+03 0.  0.
<mgrwt>
<rscale>  0 0.40853449E+03</rscale>
<asrwt>0</asrwt>
<pdfrwt beam="1">  1        1 0.96602860E-01 0.40853449E+03</pdfrwt>
<pdfrwt beam="2">  1       -1 0.88147785E-02 0.40853449E+03</pdfrwt>
<totfact> 0.24567937E+03</totfact>
</mgrwt>
</event>
<event>
 4    1  0.2428650E-005  0.4870167E+03  0.7818608E-02  0.1017224E+00
          1   -1    0    0  501    0  0.00000000000E+00  0.00000000000E+00  0.52247133859E+03  0.52247133862E+03  0.50400000000E-02 0.  1.
         -1   -1    0    0    0  501 -0.00000000000E+00 -0.00000000000E+00 -0.11349199572E+03  0.11349199583E+03  0.50400000000E-02 0. -1.
    5000001    1    1    2    0    0  0.17582995026E+03 -0.18050524592E+02  0.24209504050E+03  0.34216516696E+03  0.16500000000E+03 0.  0.
   -5000001    1    1    2    0    0 -0.17582995026E+03  0.18050524592E+02  0.16688430237E+03  0.29379816750E+03  0.16500000000E+03 0.  0.
<mgrwt>
<rscale>  0 0.48701669E+03</rscale>
<asrwt>0</asrwt>
<pdfrwt beam="1">  1        1 0.74638764E-01 0.48701669E+03</pdfrwt>
<pdfrwt beam="2">  1       -1 0.16213142E-01 0.48701669E+03</pdfrwt>
<totfact> 0.13383901E+03</totfact>
</mgrwt>
</event>
<event>
 4    1  0.2428650E-005  0.4999362E+03  0.7818608E-02  0.1013796E+00
          1   -1    0    0  501    0  0.00000000000E+00  0.00000000000E+00  0.62765222589E+03  0.62765222591E+03  0.50400000000E-02 0.  1.
         -1   -1    0    0    0  501 -0.00000000000E+00 -0.00000000000E+00 -0.99552025730E+02  0.99552025857E+02  0.50400000000E-02 0. -1.
    5000001    1    1    2    0    0 -0.13647719257E+03 -0.12892252256E+03  0.25900920642E+03  0.35994139791E+03  0.16500000000E+03 0.  0.
   -5000001    1    1    2    0    0  0.13647719257E+03  0.12892252256E+03  0.26909099373E+03  0.36726285386E+03  0.16500000000E+03 0.  0.
<mgrwt>
<rscale>  0 0.49993620E+03</rscale>
<asrwt>0</asrwt>
<pdfrwt beam="1">  1        1 0.89664607E-01 0.49993620E+03</pdfrwt>
<pdfrwt beam="2">  1       -1 0.14221717E-01 0.49993620E+03</pdfrwt>
<totfact> 0.12844613E+03</totfact>
</mgrwt>
</event>
<event>
 4    1  0.2428650E-005  0.3897174E+03  0.7818608E-02  0.1047399E+00
          1   -1    0    0  501    0  0.00000000000E+00  0.00000000000E+00  0.24139717956E+04  0.24139717956E+04  0.50400000000E-02 0.  1.
         -1   -1    0    0    0  501 -0.00000000000E+00 -0.00000000000E+00 -0.15729230085E+02  0.15729230892E+02  0.50400000000E-02 0. -1.
    5000001    1    1    2    0    0  0.73562456039E+02 -0.72345963805E+02  0.12613245961E+04  0.12762484516E+04  0.16500000000E+03 0.  0.
   -5000001    1    1    2    0    0 -0.73562456039E+02  0.72345963805E+02  0.11369179693E+04  0.11534525749E+04  0.16500000000E+03 0.  0.
<mgrwt>
<rscale>  0 0.38971743E+03</rscale>
<asrwt>0</asrwt>
<pdfrwt beam="1">  1        1 0.34485294E+00 0.38971743E+03</pdfrwt>
<pdfrwt beam="2">  1       -1 0.22470341E-02 0.38971743E+03</pdfrwt>
<totfact> 0.13448365E+03</totfact>
</mgrwt>
</event>
<event>
 4    1  0.2428650E-005  0.7424170E+03  0.7818608E-02  0.9647323E-01
          1   -1    0    0  501    0  0.00000000000E+00  0.00000000000E+00  0.22082500228E+03  0.22082500234E+03  0.50400000000E-02 0. -1.
         -1   -1    0    0    0  501 -0.00000000000E+00 -0.00000000000E+00 -0.62400433130E+03  0.62400433132E+03  0.50400000000E-02 0.  1.
    5000001    1    1    2    0    0 -0.18132572269E+03  0.24036435926E+03 -0.36218388792E+03  0.49905531916E+03  0.16500000000E+03 0.  0.
   -5000001    1    1    2    0    0  0.18132572269E+03 -0.24036435926E+03 -0.40995441105E+02  0.34577401450E+03  0.16500000000E+03 0.  0.
<mgrwt>
<rscale>  0 0.74241702E+03</rscale>
<asrwt>0</asrwt>
<pdfrwt beam="1">  1        1 0.31546429E-01 0.74241702E+03</pdfrwt>
<pdfrwt beam="2">  1       -1 0.89143475E-01 0.74241702E+03</pdfrwt>
<totfact> 0.17997534E+02</totfact>
</mgrwt>
</event>
<event>
 4    1  0.2428650E-005  0.4171296E+03  0.7818608E-02  0.1038005E+00
          1   -1    0    0  501    0  0.00000000000E+00  0.00000000000E+00  0.79601025253E+02  0.79601025413E+02  0.50400000000E-02 0. -1.
         -1   -1    0    0    0  501 -0.00000000000E+00 -0.00000000000E+00 -0.54646624427E+03  0.54646624429E+03  0.50400000000E-02 0.  1.
    5000001    1    1    2    0    0  0.12634880559E+03  0.10327939898E+02 -0.21201730112E+03  0.29706400487E+03  0.16500000000E+03 0.  0.
   -5000001    1    1    2    0    0 -0.12634880559E+03 -0.10327939898E+02 -0.25484791790E+03  0.32900326483E+03  0.16500000000E+03 0.  0.
<mgrwt>
<rscale>  0 0.41712959E+03</rscale>
<asrwt>0</asrwt>
<pdfrwt beam="1">  1        1 0.11371575E-01 0.41712959E+03</pdfrwt>
<pdfrwt beam="2">  1       -1 0.78066604E-01 0.41712959E+03</pdfrwt>
<totfact> 0.92926184E+02</totfact>
</mgrwt>
</event>
<event>
 4    1  0.2428650E-005  0.4581027E+03  0.7818608E-02  0.1025333E+00
         -1   -1    0    0    0  501 -0.00000000000E+00  0.00000000000E+00  0.22007270644E+03  0.22007270649E+03  0.50400000000E-02 0. -1.
          1   -1    0    0  501    0  0.00000000000E+00 -0.00000000000E+00 -0.23839627585E+03  0.23839627590E+03  0.50400000000E-02 0.  1.
    5000001    1    1    2    0    0 -0.10152707777E+03 -0.10238330486E+03  0.57595564579E+02  0.22656640902E+03  0.16500000000E+03 0.  0.
   -5000001    1    1    2    0    0  0.10152707777E+03  0.10238330486E+03 -0.75919133991E+02  0.23190257338E+03  0.16500000000E+03 0.  0.
<mgrwt>
<rscale>  0 0.45810267E+03</rscale>
<asrwt>0</asrwt>
<pdfrwt beam="1">  1        1 0.34056611E-01 0.45810267E+03</pdfrwt>
<pdfrwt beam="2">  1       -1 0.31438958E-01 0.45810267E+03</pdfrwt>
<totfact> 0.12215367E+03</totfact>
</mgrwt>
</event>
<event>
 4    1  0.2428650E-005  0.6430522E+03  0.7818608E-02  0.9819904E-01
         -1   -1    0    0    0  501 -0.00000000000E+00  0.00000000000E+00  0.21263884185E+03  0.21263884191E+03  0.50400000000E-02 0. -1.
          1   -1    0    0  501    0  0.00000000000E+00 -0.00000000000E+00 -0.48617197422E+03  0.48617197424E+03  0.50400000000E-02 0.  1.
    5000001    1    1    2    0    0  0.26282429791E+03 -0.83420308663E+02 -0.14859553986E+03  0.35403558287E+03  0.16500000000E+03 0.  0.
   -5000001    1    1    2    0    0 -0.26282429791E+03  0.83420308663E+02 -0.12493759250E+03  0.34477523329E+03  0.16500000000E+03 0.  0.
<mgrwt>
<rscale>  0 0.64305224E+03</rscale>
<asrwt>0</asrwt>
<pdfrwt beam="1">  1        1 0.69453139E-01 0.64305224E+03</pdfrwt>
<pdfrwt beam="2">  1       -1 0.30376978E-01 0.64305224E+03</pdfrwt>
<totfact> 0.51352866E+02</totfact>
</mgrwt>
</event>
<event>
 4    1  0.2428650E-005  0.5377618E+03  0.7818608E-02  0.1004367E+00
         -1   -1    0    0    0  501 -0.00000000000E+00  0.00000000000E+00  0.23801122088E+02  0.23801122622E+02  0.50400000000E-02 0. -1.
          1   -1    0    0  501    0  0.00000000000E+00 -0.00000000000E+00 -0.30375431420E+04  0.30375431420E+04  0.50400000000E-02 0.  1.
    5000001    1    1    2    0    0  0.50387099732E+02 -0.20572418004E+03 -0.15894920218E+04  0.16120084322E+04  0.16500000000E+03 0.  0.
   -5000001    1    1    2    0    0 -0.50387099732E+02  0.20572418004E+03 -0.14242499981E+04  0.14493358324E+04  0.16500000000E+03 0.  0.
<mgrwt>
<rscale>  0 0.53776179E+03</rscale>
<asrwt>0</asrwt>
<pdfrwt beam="1">  1        1 0.43393449E+00 0.53776179E+03</pdfrwt>
<pdfrwt beam="2">  1       -1 0.34001623E-02 0.53776179E+03</pdfrwt>
<totfact> 0.28955375E+02</totfact>
</mgrwt>
</event>
<event>
 4    1  0.2428650E-005  0.7686500E+03  0.7818608E-02  0.9606537E-01
         -1   -1    0    0    0  501 -0.00000000000E+00  0.00000000000E+00  0.12450997439E+03  0.12450997449E+03  0.50400000000E-02 0.  1.
          1   -1    0    0  501    0  0.00000000000E+00 -0.00000000000E+00 -0.11862962870E+04  0.11862962870E+04  0.50400000000E-02 0. -1.
    5000001    1    1    2    0    0  0.30066080000E+03 -0.46618575081E+02 -0.81579401437E+03  0.88618005060E+03  0.16500000000E+03 0.  0.
   -5000001    1    1    2    0    0 -0.30066080000E+03  0.46618575081E+02 -0.24599229828E+03  0.42462621094E+03  0.16500000000E+03 0.  0.
<mgrwt>
<rscale>  0 0.76865004E+03</rscale>
<asrwt>0</asrwt>
<pdfrwt beam="1">  1        1 0.16947089E+00 0.76865004E+03</pdfrwt>
<pdfrwt beam="2">  1       -1 0.17787140E-01 0.76865004E+03</pdfrwt>
<totfact> 0.31765642E+02</totfact>
</mgrwt>
</event>
<event>
 4    1  0.2428650E-005  0.7473127E+03  0.7818608E-02  0.9639576E-01
          1   -1    0    0  501    0  0.00000000000E+00  0.00000000000E+00  0.10932325294E+04  0.10932325294E+04  0.50400000000E-02 0.  1.
         -1   -1    0    0    0  501 -0.00000000000E+00 -0.00000000000E+00 -0.12771215810E+03  0.12771215820E+03  0.50400000000E-02 0. -1.
    5000001    1    1    2    0    0 -0.31139778976E+03  0.10089346207E+03  0.60109382460E+03  0.70405032499E+03  0.16500000000E+03 0.  0.
   -5000001    1    1    2    0    0  0.31139778976E+03 -0.10089346207E+03  0.36442654666E+03  0.51689436258E+03  0.16500000000E+03 0.  0.
<mgrwt>
<rscale>  0 0.74731275E+03</rscale>
<asrwt>0</asrwt>
<pdfrwt beam="1">  1        1 0.15617608E+00 0.74731275E+03</pdfrwt>
<pdfrwt beam="2">  1       -1 0.18244593E-01 0.74731275E+03</pdfrwt>
<totfact> 0.35458234E+02</totfact>
</mgrwt>
</event>
<event>
 4    1  0.2428650E-005  0.4417305E+03  0.7818608E-02  0.1030217E+00
         -1   -1    0    0    0  501 -0.00000000000E+00  0.00000000000E+00  0.23001889935E+03  0.23001889941E+03  0.50400000000E-02 0. -1.
          1   -1    0    0  501    0  0.00000000000E+00 -0.00000000000E+00 -0.21207586554E+03  0.21207586560E+03  0.50400000000E-02 0.  1.
    5000001    1    1    2    0    0  0.79819680940E+02  0.12181847938E+03  0.27575385655E+02  0.22180244651E+03  0.16500000000E+03 0.  0.
   -5000001    1    1    2    0    0 -0.79819680940E+02 -0.12181847938E+03 -0.96323518449E+01  0.22029231849E+03  0.16500000000E+03 0.  0.
<mgrwt>
<rscale>  0 0.44173049E+03</rscale>
<asrwt>0</asrwt>
<pdfrwt beam="1">  1        1 0.30296552E-01 0.44173049E+03</pdfrwt>
<pdfrwt beam="2">  1       -1 0.32859843E-01 0.44173049E+03</pdfrwt>
<totfact> 0.13135915E+03</totfact>
</mgrwt>
</event>
<event>
 4    1  0.2428650E-005  0.6984013E+03  0.7818608E-02  0.9719970E-01
          1   -1    0    0  501    0  0.00000000000E+00  0.00000000000E+00  0.10092527000E+04  0.10092527000E+04  0.50400000000E-02 0.  1.
         -1   -1    0    0    0  501 -0.00000000000E+00 -0.00000000000E+00 -0.12082313667E+03  0.12082313677E+03  0.50400000000E-02 0. -1.
    5000001    1    1    2    0    0  0.30765533052E+03 -0.30540297076E+01  0.43222043916E+03  0.55560834904E+03  0.16500000000E+03 0.  0.
   -5000001    1    1    2    0    0 -0.30765533052E+03  0.30540297076E+01  0.45620912420E+03  0.57446748777E+03  0.16500000000E+03 0.  0.
<mgrwt>
<rscale>  0 0.69840125E+03</rscale>
<asrwt>0</asrwt>
<pdfrwt beam="1">  1        1 0.14417898E+00 0.69840125E+03</pdfrwt>
<pdfrwt beam="2">  1       -1 0.17260446E-01 0.69840125E+03</pdfrwt>
<totfact> 0.44816881E+02</totfact>
</mgrwt>
</event>
<event>
 4    1  0.2428650E-005  0.5706242E+03  0.7818608E-02  0.9968298E-01
          1   -1    0    0  501    0  0.00000000000E+00  0.00000000000E+00  0.74069701918E+03  0.74069701919E+03  0.50400000000E-02 0.  1.
         -1   -1    0    0    0  501 -0.00000000000E+00 -0.00000000000E+00 -0.10990051027E+03  0.10990051038E+03  0.50400000000E-02 0. -1.
    5000001    1    1    2    0    0  0.20683790346E+03  0.95612041207E+02  0.24462169846E+03  0.37281142161E+03  0.16500000000E+03 0.  0.
   -5000001    1    1    2    0    0 -0.20683790346E+03 -0.95612041207E+02  0.38617481045E+03  0.47778610796E+03  0.16500000000E+03 0.  0.
<mgrwt>
<rscale>  0 0.57062415E+03</rscale>
<asrwt>0</asrwt>
<pdfrwt beam="1">  1        1 0.10581386E+00 0.57062415E+03</pdfrwt>
<pdfrwt beam="2">  1       -1 0.15700073E-01 0.57062415E+03</pdfrwt>
<totfact> 0.86054938E+02</totfact>
</mgrwt>
</event>
<event>
 4    1  0.2428650E-005  0.6259886E+03  0.7818608E-02  0.9852908E-01
          1   -1    0    0  501    0  0.00000000000E+00  0.00000000000E+00  0.50350403324E+03  0.50350403327E+03  0.50400000000E-02 0. -1.
         -1   -1    0    0    0  501 -0.00000000000E+00 -0.00000000000E+00 -0.19456729829E+03  0.19456729836E+03  0.50400000000E-02 0.  1.
    5000001    1    1    2    0    0 -0.17535458244E+03  0.19992055869E+03  0.14912493641E+03  0.34667089008E+03  0.16500000000E+03 0.  0.
   -5000001    1    1    2    0    0  0.17535458244E+03 -0.19992055869E+03  0.15981179854E+03  0.35140044155E+03  0.16500000000E+03 0.  0.
<mgrwt>
<rscale>  0 0.62598856E+03</rscale>
<asrwt>0</asrwt>
<pdfrwt beam="1">  1        1 0.71929146E-01 0.62598856E+03</pdfrwt>
<pdfrwt beam="2">  1       -1 0.27795329E-01 0.62598856E+03</pdfrwt>
<totfact> 0.57153731E+02</totfact>
</mgrwt>
</event>
<event>
 4    1  0.2428650E-005  0.6344610E+03  0.7818608E-02  0.9836382E-01
          1   -1    0    0  501    0  0.00000000000E+00  0.00000000000E+00  0.27153446963E+04  0.27153446963E+04  0.50400000000E-02 0.  1.
         -1   -1    0    0    0  501 -0.00000000000E+00 -0.00000000000E+00 -0.37061667355E+02  0.37061667698E+02  0.50400000000E-02 0. -1.
    5000001    1    1    2    0    0 -0.43569930641E+02 -0.26692471344E+03  0.14095031161E+04  0.14446699193E+04  0.16500000000E+03 0.  0.
   -5000001    1    1    2    0    0  0.43569930641E+02  0.26692471344E+03  0.12687799128E+04  0.13077364446E+04  0.16500000000E+03 0.  0.
<mgrwt>
<rscale>  0 0.63446104E+03</rscale>
<asrwt>0</asrwt>
<pdfrwt beam="1">  1        1 0.38790658E+00 0.63446104E+03</pdfrwt>
<pdfrwt beam="2">  1       -1 0.52945212E-02 0.63446104E+03</pdfrwt>
<totfact> 0.23487924E+02</totfact>
</mgrwt>
</event>
<event>
 4    1  0.2428650E-005  0.5143440E+03  0.7818608E-02  0.1010101E+00
         -1   -1    0    0    0  501 -0.00000000000E+00  0.00000000000E+00  0.14486636078E+03  0.14486636087E+03  0.50400000000E-02 0. -1.
          1   -1    0    0  501    0  0.00000000000E+00 -0.00000000000E+00 -0.45654102721E+03  0.45654102724E+03  0.50400000000E-02 0.  1.
    5000001    1    1    2    0    0  0.19408293834E+03  0.44986883608E+01 -0.19674530313E+03  0.32190392892E+03  0.16500000000E+03 0.  0.
   -5000001    1    1    2    0    0 -0.19408293834E+03 -0.44986883608E+01 -0.11492936330E+03  0.27950345919E+03  0.16500000000E+03 0.  0.
<mgrwt>
<rscale>  0 0.51434400E+03</rscale>
<asrwt>0</asrwt>
<pdfrwt beam="1">  1        1 0.65220146E-01 0.51434400E+03</pdfrwt>
<pdfrwt beam="2">  1       -1 0.20695195E-01 0.51434400E+03</pdfrwt>
<totfact> 0.10738153E+03</totfact>
</mgrwt>
</event>
<event>
 4    1  0.2428650E-005  0.6195501E+03  0.7818608E-02  0.9865656E-01
         -1   -1    0    0    0  501 -0.00000000000E+00  0.00000000000E+00  0.74960301841E+02  0.74960302011E+02  0.50400000000E-02 0. -1.
          1   -1    0    0  501    0  0.00000000000E+00 -0.00000000000E+00 -0.12801520806E+04  0.12801520806E+04  0.50400000000E-02 0.  1.
    5000001    1    1    2    0    0  0.22735481875E+03  0.12578809224E+03 -0.67907871582E+03  0.74557746750E+03  0.16500000000E+03 0.  0.
   -5000001    1    1    2    0    0 -0.22735481875E+03 -0.12578809224E+03 -0.52611306294E+03  0.60953491513E+03  0.16500000000E+03 0.  0.
<mgrwt>
<rscale>  0 0.61955012E+03</rscale>
<asrwt>0</asrwt>
<pdfrwt beam="1">  1        1 0.18287886E+00 0.61955012E+03</pdfrwt>
<pdfrwt beam="2">  1       -1 0.10708615E-01 0.61955012E+03</pdfrwt>
<totfact> 0.62692164E+02</totfact>
</mgrwt>
</event>
<event>
 4    1  0.2428650E-005  0.4885277E+03  0.7818608E-02  0.1016817E+00
         -1   -1    0    0    0  501 -0.00000000000E+00  0.00000000000E+00  0.74605615167E+02  0.74605615337E+02  0.50400000000E-02 0. -1.
          1   -1    0    0  501    0  0.00000000000E+00 -0.00000000000E+00 -0.79973646010E+03  0.79973646011E+03  0.50400000000E-02 0.  1.
    5000001    1    1    2    0    0  0.50580025015E+02  0.17026243040E+03 -0.30910622439E+03  0.39283494256E+03  0.16500000000E+03 0.  0.
   -5000001    1    1    2    0    0 -0.50580025015E+02 -0.17026243040E+03 -0.41602462053E+03  0.48150713289E+03  0.16500000000E+03 0.  0.
<mgrwt>
<rscale>  0 0.48852771E+03</rscale>
<asrwt>0</asrwt>
<pdfrwt beam="1">  1        1 0.11424806E+00 0.48852771E+03</pdfrwt>
<pdfrwt beam="2">  1       -1 0.10657946E-01 0.48852771E+03</pdfrwt>
<totfact> 0.14258519E+03</totfact>
</mgrwt>
</event>
<event>
 4    1  0.2428650E-005  0.8509397E+03  0.7818608E-02  0.9489077E-01
         -1   -1    0    0    0  501 -0.00000000000E+00  0.00000000000E+00  0.23203755627E+03  0.23203755633E+03  0.50400000000E-02 0.  1.
          1   -1    0    0  501    0  0.00000000000E+00 -0.00000000000E+00 -0.78015206235E+03  0.78015206237E+03  0.50400000000E-02 0. -1.
    5000001    1    1    2    0    0  0.27312148039E+03  0.27776510729E+03 -0.32792423854E+03  0.53526451788E+03  0.16500000000E+03 0.  0.
   -5000001    1    1    2    0    0 -0.27312148039E+03 -0.27776510729E+03 -0.22019026754E+03  0.47692510082E+03  0.16500000000E+03 0.  0.
<mgrwt>
<rscale>  0 0.85093966E+03</rscale>
<asrwt>0</asrwt>
<pdfrwt beam="1">  1        1 0.11145029E+00 0.85093966E+03</pdfrwt>
<pdfrwt beam="2">  1       -1 0.33148223E-01 0.85093966E+03</pdfrwt>
<totfact> 0.22265067E+02</totfact>
</mgrwt>
</event>
<event>
 4    1  0.2428650E-005  0.6342389E+03  0.7818608E-02  0.9836812E-01
         -1   -1    0    0    0  501 -0.00000000000E+00  0.00000000000E+00  0.43568573052E+03  0.43568573055E+03  0.50400000000E-02 0. -1.
          1   -1    0    0  501    0  0.00000000000E+00 -0.00000000000E+00 -0.23081944121E+03  0.23081944127E+03  0.50400000000E-02 0.  1.
    5000001    1    1    2    0    0  0.22845676334E+03 -0.65151095686E+02  0.23905719405E+03  0.37524725183E+03  0.16500000000E+03 0.  0.
   -5000001    1    1    2    0    0 -0.22845676334E+03  0.65151095686E+02 -0.34190904743E+02  0.29125791998E+03  0.16500000000E+03 0.  0.
<mgrwt>
<rscale>  0 0.63423887E+03</rscale>
<asrwt>0</asrwt>
<pdfrwt beam="1">  1        1 0.32974206E-01 0.63423887E+03</pdfrwt>
<pdfrwt beam="2">  1       -1 0.62240818E-01 0.63423887E+03</pdfrwt>
<totfact> 0.36029364E+02</totfact>
</mgrwt>
</event>
<event>
 4    1  0.2428650E-005  0.4900523E+03  0.7818608E-02  0.1016409E+00
         -1   -1    0    0    0  501 -0.00000000000E+00  0.00000000000E+00  0.89518472802E+02  0.89518472944E+02  0.50400000000E-02 0. -1.
          1   -1    0    0  501    0  0.00000000000E+00 -0.00000000000E+00 -0.67067504239E+03  0.67067504241E+03  0.50400000000E-02 0.  1.
    5000001    1    1    2    0    0 -0.13500298917E+03 -0.11888397632E+03 -0.25753998748E+03  0.35483947365E+03  0.16500000000E+03 0.  0.
   -5000001    1    1    2    0    0  0.13500298917E+03  0.11888397632E+03 -0.32361658211E+03  0.40535404171E+03  0.16500000000E+03 0.  0.
<mgrwt>
<rscale>  0 0.49005226E+03</rscale>
<asrwt>0</asrwt>
<pdfrwt beam="1">  1        1 0.95810718E-01 0.49005226E+03</pdfrwt>
<pdfrwt beam="2">  1       -1 0.12788354E-01 0.49005226E+03</pdfrwt>
<totfact> 0.13855962E+03</totfact>
</mgrwt>
</event>
<event>
 4    1  0.2428650E-005  0.3821793E+03  0.7818608E-02  0.1050131E+00
         -1   -1    0    0    0  501 -0.00000000000E+00  0.00000000000E+00  0.17999321174E+04  0.17999321175E+04  0.50400000000E-02 0.  1.
          1   -1    0    0  501    0  0.00000000000E+00 -0.00000000000E+00 -0.20287013871E+02  0.20287014497E+02  0.50400000000E-02 0. -1.
    5000001    1    1    2    0    0 -0.74678733734E+02  0.59426443527E+02  0.95404588438E+03  0.97290131307E+03  0.16500000000E+03 0.  0.
   -5000001    1    1    2    0    0  0.74678733734E+02 -0.59426443527E+02  0.82559921919E+03  0.84731781888E+03  0.16500000000E+03 0.  0.
<mgrwt>
<rscale>  0 0.38217927E+03</rscale>
<asrwt>0</asrwt>
<pdfrwt beam="1">  1        1 0.28981460E-02 0.38217927E+03</pdfrwt>
<pdfrwt beam="2">  1       -1 0.25713306E+00 0.38217927E+03</pdfrwt>
<totfact> 0.25471076E+02</totfact>
</mgrwt>
</event>
<event>
 4    1  0.2428650E-005  0.4701643E+03  0.7818608E-02  0.1021874E+00
          1   -1    0    0  501    0  0.00000000000E+00  0.00000000000E+00  0.24200045046E+03  0.24200045051E+03  0.50400000000E-02 0. -1.
         -1   -1    0    0    0  501 -0.00000000000E+00 -0.00000000000E+00 -0.22836164519E+03  0.22836164525E+03  0.50400000000E-02 0.  1.
    5000001    1    1    2    0    0  0.91283262181E+02  0.13676707250E+03  0.38467421332E+02  0.23609872634E+03  0.16500000000E+03 0.  0.
   -5000001    1    1    2    0    0 -0.91283262181E+02 -0.13676707250E+03 -0.24828616067E+02  0.23426336942E+03  0.16500000000E+03 0.  0.
<mgrwt>
<rscale>  0 0.47016432E+03</rscale>
<asrwt>0</asrwt>
<pdfrwt beam="1">  1        1 0.34571493E-01 0.47016432E+03</pdfrwt>
<pdfrwt beam="2">  1       -1 0.32623092E-01 0.47016432E+03</pdfrwt>
<totfact> 0.11237149E+03</totfact>
</mgrwt>
</event>
<event>
 4    1  0.2428650E-005  0.4102108E+03  0.7818608E-02  0.1040300E+00
         -1   -1    0    0    0  501 -0.00000000000E+00  0.00000000000E+00  0.24944053595E+03  0.24944053600E+03  0.50400000000E-02 0. -1.
          1   -1    0    0  501    0  0.00000000000E+00 -0.00000000000E+00 -0.16865030522E+03  0.16865030530E+03  0.50400000000E-02 0.  1.
    5000001    1    1    2    0    0 -0.13537760908E+02  0.12048913968E+03  0.52554027273E+02  0.21139496099E+03  0.16500000000E+03 0.  0.
   -5000001    1    1    2    0    0  0.13537760908E+02 -0.12048913968E+03  0.28236203454E+02  0.20669588031E+03  0.16500000000E+03 0.  0.
<mgrwt>
<rscale>  0 0.41021079E+03</rscale>
<asrwt>0</asrwt>
<pdfrwt beam="1">  1        1 0.24092901E-01 0.41021079E+03</pdfrwt>
<pdfrwt beam="2">  1       -1 0.35634362E-01 0.41021079E+03</pdfrwt>
<totfact> 0.15294175E+03</totfact>
</mgrwt>
</event>
<event>
 4    1  0.2428650E-005  0.6216621E+03  0.7818608E-02  0.9861456E-01
          1   -1    0    0  501    0  0.00000000000E+00  0.00000000000E+00  0.98560078122E+03  0.98560078123E+03  0.50400000000E-02 0.  1.
         -1   -1    0    0    0  501 -0.00000000000E+00 -0.00000000000E+00 -0.98027472080E+02  0.98027472210E+02  0.50400000000E-02 0. -1.
    5000001    1    1    2    0    0 -0.18273873999E+03  0.14657840216E+03  0.23379903108E+03  0.36981841761E+03  0.16500000000E+03 0.  0.
   -5000001    1    1    2    0    0  0.18273873999E+03 -0.14657840216E+03  0.65377427806E+03  0.71380983583E+03  0.16500000000E+03 0.  0.
<mgrwt>
<rscale>  0 0.62166214E+03</rscale>
<asrwt>0</asrwt>
<pdfrwt beam="1">  1        1 0.14080012E+00 0.62166214E+03</pdfrwt>
<pdfrwt beam="2">  1       -1 0.14003924E-01 0.62166214E+03</pdfrwt>
<totfact> 0.65784335E+02</totfact>
</mgrwt>
</event>
<event>
 4    1  0.2428650E-005  0.5931291E+03  0.7818608E-02  0.9919764E-01
         -1   -1    0    0    0  501 -0.00000000000E+00  0.00000000000E+00  0.79051236311E+02  0.79051236471E+02  0.50400000000E-02 0. -1.
          1   -1    0    0  501    0  0.00000000000E+00 -0.00000000000E+00 -0.11125762836E+04  0.11125762836E+04  0.50400000000E-02 0.  1.
    5000001    1    1    2    0    0  0.21971626257E+03 -0.93055997853E+01 -0.74015345348E+03  0.78956568119E+03  0.16500000000E+03 0.  0.
   -5000001    1    1    2    0    0 -0.21971626257E+03  0.93055997853E+01 -0.29337159377E+03  0.40206183885E+03  0.16500000000E+03 0.  0.
<mgrwt>
<rscale>  0 0.59312909E+03</rscale>
<asrwt>0</asrwt>
<pdfrwt beam="1">  1        1 0.15893946E+00 0.59312909E+03</pdfrwt>
<pdfrwt beam="2">  1       -1 0.11293034E-01 0.59312909E+03</pdfrwt>
<totfact> 0.75187675E+02</totfact>
</mgrwt>
</event>
<event>
 4    1  0.2428650E-005  0.4582930E+03  0.7818608E-02  0.1025277E+00
         -1   -1    0    0    0  501 -0.00000000000E+00  0.00000000000E+00  0.28167431884E+04  0.28167431884E+04  0.50400000000E-02 0.  1.
          1   -1    0    0  501    0  0.00000000000E+00 -0.00000000000E+00 -0.18641430776E+02  0.18641431457E+02  0.50400000000E-02 0. -1.
    5000001    1    1    2    0    0 -0.52446808928E+01  0.62212191623E+02  0.23037954922E+04  0.23105403120E+04  0.16500000000E+03 0.  0.
   -5000001    1    1    2    0    0  0.52446808928E+01 -0.62212191623E+02  0.49430626543E+03  0.52484430787E+03  0.16500000000E+03 0.  0.
<mgrwt>
<rscale>  0 0.45829302E+03</rscale>
<asrwt>0</asrwt>
<pdfrwt beam="1">  1        1 0.26630611E-02 0.45829302E+03</pdfrwt>
<pdfrwt beam="2">  1       -1 0.40239196E+00 0.45829302E+03</pdfrwt>
<totfact> 0.33093288E+01</totfact>
</mgrwt>
</event>
<event>
 4    1  0.2428650E-005  0.4853909E+03  0.7818608E-02  0.1017664E+00
         -1   -1    0    0    0  501 -0.00000000000E+00  0.00000000000E+00  0.20958856157E+02  0.20958856763E+02  0.50400000000E-02 0. -1.
          1   -1    0    0  501    0  0.00000000000E+00 -0.00000000000E+00 -0.28103193844E+04  0.28103193844E+04  0.50400000000E-02 0.  1.
    5000001    1    1    2    0    0 -0.67932584988E+02  0.14121800073E+03 -0.90253659433E+03  0.93078174882E+03  0.16500000000E+03 0.  0.
   -5000001    1    1    2    0    0  0.67932584988E+02 -0.14121800073E+03 -0.18868239339E+04  0.19004964924E+04  0.16500000000E+03 0.  0.
<mgrwt>
<rscale>  0 0.48539090E+03</rscale>
<asrwt>0</asrwt>
<pdfrwt beam="1">  1        1 0.40147396E+00 0.48539090E+03</pdfrwt>
<pdfrwt beam="2">  1       -1 0.29941241E-02 0.48539090E+03</pdfrwt>
<totfact> 0.49269420E+02</totfact>
</mgrwt>
</event>
<event>
 4    1  0.2428650E-005  0.4454128E+03  0.7818608E-02  0.1029099E+00
         -1   -1    0    0    0  501 -0.00000000000E+00  0.00000000000E+00  0.45946465787E+02  0.45946466063E+02  0.50400000000E-02 0.  1.
          1   -1    0    0  501    0  0.00000000000E+00 -0.00000000000E+00 -0.10794769581E+04  0.10794769581E+04  0.50400000000E-02 0. -1.
    5000001    1    1    2    0    0 -0.11296796786E+03 -0.91807332524E+02 -0.42986731067E+03  0.48290915590E+03  0.16500000000E+03 0.  0.
   -5000001    1    1    2    0    0  0.11296796786E+03  0.91807332524E+02 -0.60366318162E+03  0.64251426826E+03  0.16500000000E+03 0.  0.
<mgrwt>
<rscale>  0 0.44541285E+03</rscale>
<asrwt>0</asrwt>
<pdfrwt beam="1">  1        1 0.15421098E+00 0.44541285E+03</pdfrwt>
<pdfrwt beam="2">  1       -1 0.65637815E-02 0.44541285E+03</pdfrwt>
<totfact> 0.18572267E+03</totfact>
</mgrwt>
</event>
<event>
 4    1  0.2428650E-005  0.3684918E+03  0.7818608E-02  0.1055271E+00
          1   -1    0    0  501    0  0.00000000000E+00  0.00000000000E+00  0.10900119533E+04  0.10900119533E+04  0.50400000000E-02 0.  1.
         -1   -1    0    0    0  501 -0.00000000000E+00 -0.00000000000E+00 -0.31143276205E+02  0.31143276613E+02  0.50400000000E-02 0. -1.
    5000001    1    1    2    0    0 -0.60156265751E+02  0.22484328893E+02  0.37437692875E+03  0.41413452662E+03  0.16500000000E+03 0.  0.
   -5000001    1    1    2    0    0  0.60156265751E+02 -0.22484328893E+02  0.68449174834E+03  0.70702070331E+03  0.16500000000E+03 0.  0.
<mgrwt>
<rscale>  0 0.36849176E+03</rscale>
<asrwt>0</asrwt>
<pdfrwt beam="1">  1        1 0.15571601E+00 0.36849176E+03</pdfrwt>
<pdfrwt beam="2">  1       -1 0.44490391E-02 0.36849176E+03</pdfrwt>
<totfact> 0.32960751E+03</totfact>
</mgrwt>
</event>
<event>
 4    1  0.2428650E-005  0.6277943E+03  0.7818608E-02  0.9849362E-01
          1   -1    0    0  501    0  0.00000000000E+00  0.00000000000E+00  0.21060035735E+03  0.21060035741E+03  0.50400000000E-02 0.  1.
         -1   -1    0    0    0  501 -0.00000000000E+00 -0.00000000000E+00 -0.46785976967E+03  0.46785976970E+03  0.50400000000E-02 0. -1.
    5000001    1    1    2    0    0 -0.15900350520E+03  0.18614226071E+03 -0.24389269175E+03  0.38293563556E+03  0.16500000000E+03 0.  0.
   -5000001    1    1    2    0    0  0.15900350520E+03 -0.18614226071E+03 -0.13366720571E+02  0.29552449155E+03  0.16500000000E+03 0.  0.
<mgrwt>
<rscale>  0 0.62779434E+03</rscale>
<asrwt>0</asrwt>
<pdfrwt beam="1">  1        1 0.30085766E-01 0.62779434E+03</pdfrwt>
<pdfrwt beam="2">  1       -1 0.66837110E-01 0.62779434E+03</pdfrwt>
<totfact> 0.35186678E+02</totfact>
</mgrwt>
</event>
<event>
 4    1  0.2428650E-005  0.7437521E+03  0.7818608E-02  0.9645204E-01
         -1   -1    0    0    0  501 -0.00000000000E+00  0.00000000000E+00  0.26957199014E+03  0.26957199019E+03  0.50400000000E-02 0. -1.
          1   -1    0    0  501    0  0.00000000000E+00 -0.00000000000E+00 -0.51300506368E+03  0.51300506370E+03  0.50400000000E-02 0.  1.
    5000001    1    1    2    0    0 -0.31125949960E+03 -0.23904947751E+02  0.10482483809E+01  0.35310058261E+03  0.16500000000E+03 0.  0.
   -5000001    1    1    2    0    0  0.31125949960E+03  0.23904947751E+02 -0.24448132192E+03  0.42947647128E+03  0.16500000000E+03 0.  0.
<mgrwt>
<rscale>  0 0.74375210E+03</rscale>
<asrwt>0</asrwt>
<pdfrwt beam="1">  1        1 0.73286438E-01 0.74375210E+03</pdfrwt>
<pdfrwt beam="2">  1       -1 0.38510284E-01 0.74375210E+03</pdfrwt>
<totfact> 0.31253630E+02</totfact>
</mgrwt>
</event>
<event>
 4    1  0.2428650E-005  0.7318376E+03  0.7818608E-02  0.9664283E-01
          1   -1    0    0  501    0  0.00000000000E+00  0.00000000000E+00  0.85645904804E+03  0.85645904806E+03  0.50400000000E-02 0.  1.
         -1   -1    0    0    0  501 -0.00000000000E+00 -0.00000000000E+00 -0.15633740562E+03  0.15633740570E+03  0.50400000000E-02 0. -1.
    5000001    1    1    2    0    0 -0.20172363326E+03 -0.10463991386E+03  0.25418003038E+02  0.28198051469E+03  0.16500000000E+03 0.  0.
   -5000001    1    1    2    0    0  0.20172363326E+03  0.10463991386E+03  0.67470363939E+03  0.73081593906E+03  0.16500000000E+03 0.  0.
<mgrwt>
<rscale>  0 0.73183765E+03</rscale>
<asrwt>0</asrwt>
<pdfrwt beam="1">  1        1 0.12235129E+00 0.73183765E+03</pdfrwt>
<pdfrwt beam="2">  1       -1 0.22333915E-01 0.73183765E+03</pdfrwt>
<totfact> 0.38237762E+02</totfact>
</mgrwt>
</event>
<event>
 4    1  0.2428650E-005  0.4099787E+03  0.7818608E-02  0.1040378E+00
         -1   -1    0    0    0  501 -0.00000000000E+00  0.00000000000E+00  0.20273799335E+02  0.20273799962E+02  0.50400000000E-02 0. -1.
          1   -1    0    0  501    0  0.00000000000E+00 -0.00000000000E+00 -0.20726570456E+04  0.20726570456E+04  0.50400000000E-02 0.  1.
    5000001    1    1    2    0    0  0.10512673296E+03  0.50310780138E+02 -0.12039759169E+04  0.12208053952E+04  0.16500000000E+03 0.  0.
   -5000001    1    1    2    0    0 -0.10512673296E+03 -0.50310780138E+02 -0.84840732936E+03  0.87212545032E+03  0.16500000000E+03 0.  0.
<mgrwt>
<rscale>  0 0.40997870E+03</rscale>
<asrwt>0</asrwt>
<pdfrwt beam="1">  1        1 0.29609373E+00 0.40997870E+03</pdfrwt>
<pdfrwt beam="2">  1       -1 0.28962584E-02 0.40997870E+03</pdfrwt>
<totfact> 0.14892357E+03</totfact>
</mgrwt>
</event>
<event>
 4    1  0.2428650E-005  0.8758576E+03  0.7818608E-02  0.9456274E-01
          1   -1    0    0  501    0  0.00000000000E+00  0.00000000000E+00  0.23358147589E+04  0.23358147589E+04  0.50400000000E-02 0.  1.
         -1   -1    0    0    0  501 -0.00000000000E+00 -0.00000000000E+00 -0.82104805006E+02  0.82104805160E+02  0.50400000000E-02 0. -1.
    5000001    1    1    2    0    0  0.13468589881E+03  0.38247554442E+03  0.10955267302E+04  0.11797591491E+04  0.16500000000E+03 0.  0.
   -5000001    1    1    2    0    0 -0.13468589881E+03 -0.38247554442E+03  0.11581832237E+04  0.12381604149E+04  0.16500000000E+03 0.  0.
<mgrwt>
<rscale>  0 0.87585756E+03</rscale>
<asrwt>0</asrwt>
<pdfrwt beam="1">  1        1 0.33368779E+00 0.87585756E+03</pdfrwt>
<pdfrwt beam="2">  1       -1 0.11729259E-01 0.87585756E+03</pdfrwt>
<totfact> 0.11440920E+02</totfact>
</mgrwt>
</event>
<event>
 4    1  0.2428650E-005  0.4932221E+03  0.7818608E-02  0.1015563E+00
          1   -1    0    0  501    0  0.00000000000E+00  0.00000000000E+00  0.44906801591E+03  0.44906801594E+03  0.50400000000E-02 0. -1.
         -1   -1    0    0    0  501 -0.00000000000E+00 -0.00000000000E+00 -0.13542938756E+03  0.13542938765E+03  0.50400000000E-02 0.  1.
    5000001    1    1    2    0    0 -0.11290120325E+02  0.17806348023E+03  0.20650618815E+03  0.31891045068E+03  0.16500000000E+03 0.  0.
   -5000001    1    1    2    0    0  0.11290120325E+02 -0.17806348023E+03  0.10713244020E+03  0.26558695290E+03  0.16500000000E+03 0.  0.
<mgrwt>
<rscale>  0 0.49322209E+03</rscale>
<asrwt>0</asrwt>
<pdfrwt beam="1">  1        1 0.64152574E-01 0.49322209E+03</pdfrwt>
<pdfrwt beam="2">  1       -1 0.19347055E-01 0.49322209E+03</pdfrwt>
<totfact> 0.12268164E+03</totfact>
</mgrwt>
</event>
<event>
 4    1  0.2428650E-005  0.4048195E+03  0.7818608E-02  0.1042124E+00
          1   -1    0    0  501    0  0.00000000000E+00  0.00000000000E+00  0.86381023437E+02  0.86381023584E+02  0.50400000000E-02 0.  1.
         -1   -1    0    0    0  501 -0.00000000000E+00 -0.00000000000E+00 -0.47429057386E+03  0.47429057389E+03  0.50400000000E-02 0. -1.
    5000001    1    1    2    0    0  0.10655957161E+03 -0.18339316575E+02 -0.25671541254E+03  0.32375774257E+03  0.16500000000E+03 0.  0.
   -5000001    1    1    2    0    0 -0.10655957161E+03  0.18339316575E+02 -0.13119413788E+03  0.23691385491E+03  0.16500000000E+03 0.  0.
<mgrwt>
<rscale>  0 0.40481949E+03</rscale>
<asrwt>0</asrwt>
<pdfrwt beam="1">  1        1 0.12340146E-01 0.40481949E+03</pdfrwt>
<pdfrwt beam="2">  1       -1 0.67755795E-01 0.40481949E+03</pdfrwt>
<totfact> 0.11111308E+03</totfact>
</mgrwt>
</event>
<event>
 4    1  0.2428650E-005  0.6583433E+03  0.7818608E-02  0.9791248E-01
          1   -1    0    0  501    0  0.00000000000E+00  0.00000000000E+00  0.78980986176E+03  0.78980986177E+03  0.50400000000E-02 0.  1.
         -1   -1    0    0    0  501 -0.00000000000E+00 -0.00000000000E+00 -0.13718995415E+03  0.13718995424E+03  0.50400000000E-02 0. -1.
    5000001    1    1    2    0    0 -0.26926911728E+03 -0.88041571244E+02  0.36788534991E+03  0.49276952672E+03  0.16500000000E+03 0.  0.
   -5000001    1    1    2    0    0  0.26926911728E+03  0.88041571244E+02  0.28473455771E+03  0.43423028929E+03  0.16500000000E+03 0.  0.
<mgrwt>
<rscale>  0 0.65834331E+03</rscale>
<asrwt>0</asrwt>
<pdfrwt beam="1">  1        1 0.11282998E+00 0.65834331E+03</pdfrwt>
<pdfrwt beam="2">  1       -1 0.19598565E-01 0.65834331E+03</pdfrwt>
<totfact> 0.54136044E+02</totfact>
</mgrwt>
</event>
<event>
 4    1  0.2428650E-005  0.7547363E+03  0.7818608E-02  0.9627949E-01
          1   -1    0    0  501    0  0.00000000000E+00  0.00000000000E+00  0.11656665626E+03  0.11656665637E+03  0.50400000000E-02 0. -1.
         -1   -1    0    0    0  501 -0.00000000000E+00 -0.00000000000E+00 -0.12216762103E+04  0.12216762103E+04  0.50400000000E-02 0.  1.
    5000001    1    1    2    0    0  0.11421632114E+03  0.31111585844E+03 -0.68216614462E+03  0.77615339608E+03  0.16500000000E+03 0.  0.
   -5000001    1    1    2    0    0 -0.11421632114E+03 -0.31111585844E+03 -0.42294340943E+03  0.56208947060E+03  0.16500000000E+03 0.  0.
<mgrwt>
<rscale>  0 0.75473627E+03</rscale>
<asrwt>0</asrwt>
<pdfrwt beam="1">  1        1 0.16652380E-01 0.75473627E+03</pdfrwt>
<pdfrwt beam="2">  1       -1 0.17452517E+00 0.75473627E+03</pdfrwt>
<totfact> 0.77840563E+01</totfact>
</mgrwt>
</event>
<event>
 4    1  0.2428650E-005  0.5707762E+03  0.7818608E-02  0.9967962E-01
         -1   -1    0    0    0  501 -0.00000000000E+00  0.00000000000E+00  0.25130747779E+03  0.25130747784E+03  0.50400000000E-02 0.  1.
          1   -1    0    0  501    0  0.00000000000E+00 -0.00000000000E+00 -0.32409051419E+03  0.32409051423E+03  0.50400000000E-02 0. -1.
    5000001    1    1    2    0    0 -0.12995877837E+03  0.12536613107E+03  0.11182080272E+03  0.26895137630E+03  0.16500000000E+03 0.  0.
   -5000001    1    1    2    0    0  0.12995877837E+03 -0.12536613107E+03 -0.18460383913E+03  0.30644661577E+03  0.16500000000E+03 0.  0.
<mgrwt>
<rscale>  0 0.57077621E+03</rscale>
<asrwt>0</asrwt>
<pdfrwt beam="1">  1        1 0.46298644E-01 0.57077621E+03</pdfrwt>
<pdfrwt beam="2">  1       -1 0.35901069E-01 0.57077621E+03</pdfrwt>
<totfact> 0.65224212E+02</totfact>
</mgrwt>
</event>
<event>
 4    1  0.2428650E-005  0.4411612E+03  0.7818608E-02  0.1030391E+00
          1   -1    0    0  501    0  0.00000000000E+00  0.00000000000E+00  0.40175656298E+03  0.40175656301E+03  0.50400000000E-02 0.  1.
         -1   -1    0    0    0  501 -0.00000000000E+00 -0.00000000000E+00 -0.12110768977E+03  0.12110768988E+03  0.50400000000E-02 0. -1.
    5000001    1    1    2    0    0 -0.97967646776E+02  0.10876425459E+03  0.14253741092E+03  0.26261994670E+03  0.16500000000E+03 0.  0.
   -5000001    1    1    2    0    0  0.97967646776E+02 -0.10876425459E+03  0.13811146229E+03  0.26024430619E+03  0.16500000000E+03 0.  0.
<mgrwt>
<rscale>  0 0.44116124E+03</rscale>
<asrwt>0</asrwt>
<pdfrwt beam="1">  1        1 0.57393796E-01 0.44116124E+03</pdfrwt>
<pdfrwt beam="2">  1       -1 0.17301098E-01 0.44116124E+03</pdfrwt>
<totfact> 0.17027750E+03</totfact>
</mgrwt>
</event>
<event>
 4    1  0.2428650E-005  0.4555709E+03  0.7818608E-02  0.1026074E+00
         -1   -1    0    0    0  501 -0.00000000000E+00  0.00000000000E+00  0.14155267065E+03  0.14155267074E+03  0.50400000000E-02 0. -1.
          1   -1    0    0  501    0  0.00000000000E+00 -0.00000000000E+00 -0.36655061311E+03  0.36655061314E+03  0.50400000000E-02 0.  1.
    5000001    1    1    2    0    0 -0.10628009666E+03  0.99361978086E+02 -0.17841523645E+03  0.28324063662E+03  0.16500000000E+03 0.  0.
   -5000001    1    1    2    0    0  0.10628009666E+03 -0.99361978086E+02 -0.46582706003E+02  0.22486264726E+03  0.16500000000E+03 0.  0.
<mgrwt>
<rscale>  0 0.45557093E+03</rscale>
<asrwt>0</asrwt>
<pdfrwt beam="1">  1        1 0.52364373E-01 0.45557093E+03</pdfrwt>
<pdfrwt beam="2">  1       -1 0.20221810E-01 0.45557093E+03</pdfrwt>
<totfact> 0.14850788E+03</totfact>
</mgrwt>
</event>
<event>
 4    1  0.2428650E-005  0.4432459E+03  0.7818608E-02  0.1029756E+00
         -1   -1    0    0    0  501 -0.00000000000E+00  0.00000000000E+00  0.23459751147E+02  0.23459751689E+02  0.50400000000E-02 0. -1.
          1   -1    0    0  501    0  0.00000000000E+00 -0.00000000000E+00 -0.20936591339E+04  0.20936591339E+04  0.50400000000E-02 0.  1.
    5000001    1    1    2    0    0 -0.65281453128E+02  0.70450525155E+02 -0.49753140102E+03  0.53290471908E+03  0.16500000000E+03 0.  0.
   -5000001    1    1    2    0    0  0.65281453128E+02 -0.70450525155E+02 -0.15726679817E+04  0.15842141665E+04  0.16500000000E+03 0.  0.
<mgrwt>
<rscale>  0 0.44324586E+03</rscale>
<asrwt>0</asrwt>
<pdfrwt beam="1">  1        1 0.29909404E+00 0.44324586E+03</pdfrwt>
<pdfrwt beam="2">  1       -1 0.33513944E-02 0.44324586E+03</pdfrwt>
<totfact> 0.11601314E+03</totfact>
</mgrwt>
</event>
<event>
 4    1  0.2428650E-005  0.4356904E+03  0.7818608E-02  0.1032077E+00
          1   -1    0    0  501    0  0.00000000000E+00  0.00000000000E+00  0.64210534790E+03  0.64210534792E+03  0.50400000000E-02 0. -1.
         -1   -1    0    0    0  501 -0.00000000000E+00 -0.00000000000E+00 -0.73907713908E+02  0.73907714079E+02  0.50400000000E-02 0.  1.
    5000001    1    1    2    0    0  0.78705171891E+02  0.94241293831E+02  0.40209910597E+03  0.45164656155E+03  0.16500000000E+03 0.  0.
   -5000001    1    1    2    0    0 -0.78705171891E+02 -0.94241293831E+02  0.16609852803E+03  0.26436650045E+03  0.16500000000E+03 0.  0.
<mgrwt>
<rscale>  0 0.43569043E+03</rscale>
<asrwt>0</asrwt>
<pdfrwt beam="1">  1        1 0.91729344E-01 0.43569043E+03</pdfrwt>
<pdfrwt beam="2">  1       -1 0.10558244E-01 0.43569043E+03</pdfrwt>
<totfact> 0.19957207E+03</totfact>
</mgrwt>
</event>
<event>
 4    1  0.2428650E-005  0.4891175E+03  0.7818608E-02  0.1016659E+00
         -1   -1    0    0    0  501 -0.00000000000E+00  0.00000000000E+00  0.70039348444E+02  0.70039348625E+02  0.50400000000E-02 0. -1.
          1   -1    0    0  501    0  0.00000000000E+00 -0.00000000000E+00 -0.85393407718E+03  0.85393407719E+03  0.50400000000E-02 0.  1.
    5000001    1    1    2    0    0 -0.11951058451E+03  0.12170167598E+03 -0.28035016445E+03  0.36730817096E+03  0.16500000000E+03 0.  0.
   -5000001    1    1    2    0    0  0.11951058451E+03 -0.12170167598E+03 -0.50354456428E+03  0.55666525486E+03  0.16500000000E+03 0.  0.
<mgrwt>
<rscale>  0 0.48911752E+03</rscale>
<asrwt>0</asrwt>
<pdfrwt beam="1">  1        1 0.12199058E+00 0.48911752E+03</pdfrwt>
<pdfrwt beam="2">  1       -1 0.10005622E-01 0.48911752E+03</pdfrwt>
<totfact> 0.14229550E+03</totfact>
</mgrwt>
</event>
<event>
 4    1  0.2428650E-005  0.5081788E+03  0.7818608E-02  0.1011666E+00
         -1   -1    0    0    0  501 -0.00000000000E+00  0.00000000000E+00  0.18228270527E+02  0.18228271224E+02  0.50400000000E-02 0. -1.
          1   -1    0    0  501    0  0.00000000000E+00 -0.00000000000E+00 -0.35418296203E+04  0.35418296203E+04  0.50400000000E-02 0.  1.
    5000001    1    1    2    0    0  0.43212102467E+02  0.17739645892E+03 -0.22048488603E+04  0.22185401250E+04  0.16500000000E+03 0.  0.
   -5000001    1    1    2    0    0 -0.43212102467E+02 -0.17739645892E+03 -0.13187524894E+04  0.13415177665E+04  0.16500000000E+03 0.  0.
<mgrwt>
<rscale>  0 0.50817883E+03</rscale>
<asrwt>0</asrwt>
<pdfrwt beam="1">  1        1 0.50597522E+00 0.50817883E+03</pdfrwt>
<pdfrwt beam="2">  1       -1 0.26040410E-02 0.50817883E+03</pdfrwt>
<totfact> 0.20018423E+02</totfact>
</mgrwt>
</event>
<event>
 4    1  0.2428650E-005  0.9793476E+03  0.7818608E-02  0.9331491E-01
         -1   -1    0    0    0  501 -0.00000000000E+00  0.00000000000E+00  0.11507233581E+03  0.11507233592E+03  0.50400000000E-02 0. -1.
          1   -1    0    0  501    0  0.00000000000E+00 -0.00000000000E+00 -0.20837363903E+04  0.20837363903E+04  0.50400000000E-02 0.  1.
    5000001    1    1    2    0    0  0.26215634857E+03  0.20162223633E+03 -0.17055126056E+04  0.17451004914E+04  0.16500000000E+03 0.  0.
   -5000001    1    1    2    0    0 -0.26215634857E+03 -0.20162223633E+03 -0.26315144888E+03  0.45370823480E+03  0.16500000000E+03 0.  0.
<mgrwt>
<rscale>  0 0.97934757E+03</rscale>
<asrwt>0</asrwt>
<pdfrwt beam="1">  1        1 0.29767660E+00 0.97934757E+03</pdfrwt>
<pdfrwt beam="2">  1       -1 0.16438906E-01 0.97934757E+03</pdfrwt>
<totfact> 0.94225937E+01</totfact>
</mgrwt>
</event>
<event>
 4    1  0.2428650E-005  0.5019991E+03  0.7818608E-02  0.1013258E+00
         -1   -1    0    0    0  501 -0.00000000000E+00  0.00000000000E+00  0.14902912975E+03  0.14902912984E+03  0.50400000000E-02 0. -1.
          1   -1    0    0  501    0  0.00000000000E+00 -0.00000000000E+00 -0.42274135142E+03  0.42274135145E+03  0.50400000000E-02 0.  1.
    5000001    1    1    2    0    0 -0.12675130304E+03  0.67129338033E+02 -0.27729619265E+03  0.35311530596E+03  0.16500000000E+03 0.  0.
   -5000001    1    1    2    0    0  0.12675130304E+03 -0.67129338033E+02  0.35839709822E+01  0.21865517532E+03  0.16500000000E+03 0.  0.
<mgrwt>
<rscale>  0 0.50199911E+03</rscale>
<asrwt>0</asrwt>
<pdfrwt beam="1">  1        1 0.60391621E-01 0.50199911E+03</pdfrwt>
<pdfrwt beam="2">  1       -1 0.21289876E-01 0.50199911E+03</pdfrwt>
<totfact> 0.11335421E+03</totfact>
</mgrwt>
</event>
<event>
 4    1  0.2428650E-005  0.9474987E+03  0.7818608E-02  0.9368079E-01
          1   -1    0    0  501    0  0.00000000000E+00  0.00000000000E+00  0.10741595615E+04  0.10741595615E+04  0.50400000000E-02 0.  1.
         -1   -1    0    0    0  501 -0.00000000000E+00 -0.00000000000E+00 -0.20894328104E+03  0.20894328110E+03  0.50400000000E-02 0. -1.
    5000001    1    1    2    0    0  0.42302509170E+03 -0.12598656630E+03  0.36639647407E+03  0.59690386102E+03  0.16500000000E+03 0.  0.
   -5000001    1    1    2    0    0 -0.42302509170E+03  0.12598656630E+03  0.49881980638E+03  0.68619898159E+03  0.16500000000E+03 0.  0.
<mgrwt>
<rscale>  0 0.94749865E+03</rscale>
<asrwt>0</asrwt>
<pdfrwt beam="1">  1        1 0.15345137E+00 0.94749865E+03</pdfrwt>
<pdfrwt beam="2">  1       -1 0.29849040E-01 0.94749865E+03</pdfrwt>
<totfact> 0.15698956E+02</totfact>
</mgrwt>
</event>
<event>
 4    1  0.2428650E-005  0.4214310E+03  0.7818608E-02  0.1036602E+00
          1   -1    0    0  501    0  0.00000000000E+00  0.00000000000E+00  0.18875695443E+04  0.18875695443E+04  0.50400000000E-02 0. -1.
         -1   -1    0    0    0  501 -0.00000000000E+00 -0.00000000000E+00 -0.23522852006E+02  0.23522852546E+02  0.50400000000E-02 0.  1.
    5000001    1    1    2    0    0  0.34879862943E+02 -0.89074343272E+02  0.13382631773E+04  0.13517855508E+04  0.16500000000E+03 0.  0.
   -5000001    1    1    2    0    0 -0.34879862943E+02  0.89074343272E+02  0.52578351496E+03  0.55930684608E+03  0.16500000000E+03 0.  0.
<mgrwt>
<rscale>  0 0.42143099E+03</rscale>
<asrwt>0</asrwt>
<pdfrwt beam="1">  1        1 0.26965290E+00 0.42143099E+03</pdfrwt>
<pdfrwt beam="2">  1       -1 0.33604061E-02 0.42143099E+03</pdfrwt>
<totfact> 0.15466093E+03</totfact>
</mgrwt>
</event>
<event>
 4    1  0.2428650E-005  0.7476498E+03  0.7818608E-02  0.9639045E-01
          1   -1    0    0  501    0  0.00000000000E+00  0.00000000000E+00  0.18380052994E+03  0.18380053001E+03  0.50400000000E-02 0.  1.
         -1   -1    0    0    0  501 -0.00000000000E+00 -0.00000000000E+00 -0.76030823212E+03  0.76030823214E+03  0.50400000000E-02 0. -1.
    5000001    1    1    2    0    0  0.27861604968E+03  0.17590146066E+03 -0.36763600521E+03  0.52052805816E+03  0.16500000000E+03 0.  0.
   -5000001    1    1    2    0    0 -0.27861604968E+03 -0.17590146066E+03 -0.20887169697E+03  0.42358070399E+03  0.16500000000E+03 0.  0.
<mgrwt>
<rscale>  0 0.74764980E+03</rscale>
<asrwt>0</asrwt>
<pdfrwt beam="1">  1        1 0.26257219E-01 0.74764980E+03</pdfrwt>
<pdfrwt beam="2">  1       -1 0.10861546E+00 0.74764980E+03</pdfrwt>
<totfact> 0.14596388E+02</totfact>
</mgrwt>
</event>
<event>
 4    1  0.2428650E-005  0.6590104E+03  0.7818608E-02  0.9790017E-01
          1   -1    0    0  501    0  0.00000000000E+00  0.00000000000E+00  0.19169887457E+03  0.19169887463E+03  0.50400000000E-02 0.  1.
         -1   -1    0    0    0  501 -0.00000000000E+00 -0.00000000000E+00 -0.56637612510E+03  0.56637612513E+03  0.50400000000E-02 0. -1.
    5000001    1    1    2    0    0 -0.16826706174E+03  0.22572374348E+03 -0.13482975637E+03  0.35308508273E+03  0.16500000000E+03 0.  0.
   -5000001    1    1    2    0    0  0.16826706174E+03 -0.22572374348E+03 -0.23984749417E+03  0.40498991703E+03  0.16500000000E+03 0.  0.
<mgrwt>
<rscale>  0 0.65901037E+03</rscale>
<asrwt>0</asrwt>
<pdfrwt beam="1">  1        1 0.27385554E-01 0.65901037E+03</pdfrwt>
<pdfrwt beam="2">  1       -1 0.80910875E-01 0.65901037E+03</pdfrwt>
<totfact> 0.26746910E+02</totfact>
</mgrwt>
</event>
<event>
 4    1  0.2428650E-005  0.1406749E+04  0.7818608E-02  0.8948948E-01
         -1   -1    0    0    0  501 -0.00000000000E+00  0.00000000000E+00  0.94946236096E+03  0.94946236097E+03  0.50400000000E-02 0. -1.
          1   -1    0    0  501    0  0.00000000000E+00 -0.00000000000E+00 -0.52106926937E+03  0.52106926939E+03  0.50400000000E-02 0.  1.
    5000001    1    1    2    0    0  0.30986556760E+03  0.39407079845E+03 -0.27186114221E+03  0.59366821105E+03  0.16500000000E+03 0.  0.
   -5000001    1    1    2    0    0 -0.30986556760E+03 -0.39407079845E+03  0.70025423380E+03  0.87686341931E+03  0.16500000000E+03 0.  0.
<mgrwt>
<rscale>  0 0.14067490E+04</rscale>
<asrwt>0</asrwt>
<pdfrwt beam="1">  1        1 0.74438468E-01 0.14067490E+04</pdfrwt>
<pdfrwt beam="2">  1       -1 0.13563748E+00 0.14067490E+04</pdfrwt>
<totfact> 0.20613743E+01</totfact>
</mgrwt>
</event>
<event>
 4    1  0.2428650E-005  0.5820296E+03  0.7818608E-02  0.9943407E-01
         -1   -1    0    0    0  501 -0.00000000000E+00  0.00000000000E+00  0.14829700206E+03  0.14829700214E+03  0.50400000000E-02 0. -1.
          1   -1    0    0  501    0  0.00000000000E+00 -0.00000000000E+00 -0.57108103134E+03  0.57108103137E+03  0.50400000000E-02 0.  1.
    5000001    1    1    2    0    0 -0.74813018190E+02 -0.21840537209E+03 -0.29117472678E+03  0.40657793320E+03  0.16500000000E+03 0.  0.
   -5000001    1    1    2    0    0  0.74813018190E+02  0.21840537209E+03 -0.13160930251E+03  0.31280010031E+03  0.16500000000E+03 0.  0.
<mgrwt>
<rscale>  0 0.58202957E+03</rscale>
<asrwt>0</asrwt>
<pdfrwt beam="1">  1        1 0.81583004E-01 0.58202957E+03</pdfrwt>
<pdfrwt beam="2">  1       -1 0.21185286E-01 0.58202957E+03</pdfrwt>
<totfact> 0.76284890E+02</totfact>
</mgrwt>
</event>
<event>
 4    1  0.2428650E-005  0.5375811E+03  0.7818608E-02  0.1004410E+00
         -1   -1    0    0    0  501 -0.00000000000E+00  0.00000000000E+00  0.66636322146E+03  0.66636322148E+03  0.50400000000E-02 0. -1.
          1   -1    0    0  501    0  0.00000000000E+00 -0.00000000000E+00 -0.10842189674E+03  0.10842189686E+03  0.50400000000E-02 0.  1.
    5000001    1    1    2    0    0 -0.94222208165E+02  0.12539182209E+03  0.73006821400E+02  0.23907306316E+03  0.16500000000E+03 0.  0.
   -5000001    1    1    2    0    0  0.94222208165E+02 -0.12539182209E+03  0.48493450332E+03  0.53571205518E+03  0.16500000000E+03 0.  0.
<mgrwt>
<rscale>  0 0.53758112E+03</rscale>
<asrwt>0</asrwt>
<pdfrwt beam="1">  1        1 0.15488842E-01 0.53758112E+03</pdfrwt>
<pdfrwt beam="2">  1       -1 0.95194749E-01 0.53758112E+03</pdfrwt>
<totfact> 0.39965044E+02</totfact>
</mgrwt>
</event>
<event>
 4    1  0.2428650E-005  0.4882871E+03  0.7818608E-02  0.1016882E+00
          1   -1    0    0  501    0  0.00000000000E+00  0.00000000000E+00  0.36392269912E+03  0.36392269915E+03  0.50400000000E-02 0.  1.
         -1   -1    0    0    0  501 -0.00000000000E+00 -0.00000000000E+00 -0.16378774289E+03  0.16378774296E+03  0.50400000000E-02 0. -1.
    5000001    1    1    2    0    0  0.14732860895E+03  0.67705941258E+02  0.18441535048E+03  0.29584427490E+03  0.16500000000E+03 0.  0.
   -5000001    1    1    2    0    0 -0.14732860895E+03 -0.67705941258E+02  0.15719605748E+02  0.23186616722E+03  0.16500000000E+03 0.  0.
<mgrwt>
<rscale>  0 0.48828712E+03</rscale>
<asrwt>0</asrwt>
<pdfrwt beam="1">  1        1 0.51988956E-01 0.48828712E+03</pdfrwt>
<pdfrwt beam="2">  1       -1 0.23398249E-01 0.48828712E+03</pdfrwt>
<totfact> 0.11761467E+03</totfact>
</mgrwt>
</event>
<event>
 4    1  0.2428650E-005  0.6064159E+03  0.7818608E-02  0.9892184E-01
         -1   -1    0    0    0  501 -0.00000000000E+00  0.00000000000E+00  0.23200206375E+03  0.23200206381E+03  0.50400000000E-02 0. -1.
          1   -1    0    0  501    0  0.00000000000E+00 -0.00000000000E+00 -0.39626835178E+03  0.39626835181E+03  0.50400000000E-02 0.  1.
    5000001    1    1    2    0    0  0.85917905998E+02 -0.13061898018E+03 -0.29003096474E+03  0.36849174355E+03  0.16500000000E+03 0.  0.
   -5000001    1    1    2    0    0 -0.85917905998E+02  0.13061898018E+03  0.12576467672E+03  0.25977867207E+03  0.16500000000E+03 0.  0.
<mgrwt>
<rscale>  0 0.60641595E+03</rscale>
<asrwt>0</asrwt>
<pdfrwt beam="1">  1        1 0.56609764E-01 0.60641595E+03</pdfrwt>
<pdfrwt beam="2">  1       -1 0.33143152E-01 0.60641595E+03</pdfrwt>
<totfact> 0.57841408E+02</totfact>
</mgrwt>
</event>
<event>
 4    1  0.2428650E-005  0.5236733E+03  0.7818608E-02  0.1007778E+00
          1   -1    0    0  501    0  0.00000000000E+00  0.00000000000E+00  0.11667519948E+03  0.11667519958E+03  0.50400000000E-02 0.  1.
         -1   -1    0    0    0  501 -0.00000000000E+00 -0.00000000000E+00 -0.58760065004E+03  0.58760065007E+03  0.50400000000E-02 0. -1.
    5000001    1    1    2    0    0 -0.19349990400E+03 -0.40247057416E+02 -0.17136719702E+03  0.30927941201E+03  0.16500000000E+03 0.  0.
   -5000001    1    1    2    0    0  0.19349990400E+03  0.40247057416E+02 -0.29955825354E+03  0.39499643764E+03  0.16500000000E+03 0.  0.
<mgrwt>
<rscale>  0 0.52367327E+03</rscale>
<asrwt>0</asrwt>
<pdfrwt beam="1">  1        1 0.16667886E-01 0.52367327E+03</pdfrwt>
<pdfrwt beam="2">  1       -1 0.83942949E-01 0.52367327E+03</pdfrwt>
<totfact> 0.47692828E+02</totfact>
</mgrwt>
</event>
<event>
 4    1  0.2428650E-005  0.6773541E+03  0.7818608E-02  0.9756763E-01
          1   -1    0    0  501    0  0.00000000000E+00  0.00000000000E+00  0.17144265024E+04  0.17144265024E+04  0.50400000000E-02 0.  1.
         -1   -1    0    0    0  501 -0.00000000000E+00 -0.00000000000E+00 -0.66904097462E+02  0.66904097652E+02  0.50400000000E-02 0. -1.
    5000001    1    1    2    0    0 -0.19279515215E+03 -0.56494973673E+02  0.13945962960E+04  0.14186209788E+04  0.16500000000E+03 0.  0.
   -5000001    1    1    2    0    0  0.19279515215E+03  0.56494973673E+02  0.25292610890E+03  0.36270962119E+03  0.16500000000E+03 0.  0.
<mgrwt>
<rscale>  0 0.67735414E+03</rscale>
<asrwt>0</asrwt>
<pdfrwt beam="1">  1        1 0.24491804E+00 0.67735414E+03</pdfrwt>
<pdfrwt beam="2">  1       -1 0.95577296E-02 0.67735414E+03</pdfrwt>
<totfact> 0.39239276E+02</totfact>
</mgrwt>
</event>
<event>
 4    1  0.2428650E-005  0.5772745E+03  0.7818608E-02  0.9953709E-01
         -1   -1    0    0    0  501 -0.00000000000E+00  0.00000000000E+00  0.26577222321E+03  0.26577222325E+03  0.50400000000E-02 0.  1.
          1   -1    0    0  501    0  0.00000000000E+00 -0.00000000000E+00 -0.31346943243E+03  0.31346943247E+03  0.50400000000E-02 0. -1.
    5000001    1    1    2    0    0 -0.98108078401E+02 -0.21125092150E+03  0.19126315611E+02  0.28608209107E+03  0.16500000000E+03 0.  0.
   -5000001    1    1    2    0    0  0.98108078401E+02  0.21125092150E+03 -0.66823524840E+02  0.29315956466E+03  0.16500000000E+03 0.  0.
<mgrwt>
<rscale>  0 0.57727452E+03</rscale>
<asrwt>0</asrwt>
<pdfrwt beam="1">  1        1 0.44781347E-01 0.57727452E+03</pdfrwt>
<pdfrwt beam="2">  1       -1 0.37967461E-01 0.57727452E+03</pdfrwt>
<totfact> 0.61603090E+02</totfact>
</mgrwt>
</event>
<event>
 4    1  0.2428650E-005  0.3867314E+03  0.7818608E-02  0.1048473E+00
         -1   -1    0    0    0  501 -0.00000000000E+00  0.00000000000E+00  0.22416794380E+02  0.22416794947E+02  0.50400000000E-02 0. -1.
          1   -1    0    0  501    0  0.00000000000E+00 -0.00000000000E+00 -0.16679588256E+04  0.16679588257E+04  0.50400000000E-02 0.  1.
    5000001    1    1    2    0    0  0.55310261007E+02  0.56745227404E+02 -0.55029536300E+03  0.57993899019E+03  0.16500000000E+03 0.  0.
   -5000001    1    1    2    0    0 -0.55310261007E+02 -0.56745227404E+02 -0.10952466683E+04  0.11104366304E+04  0.16500000000E+03 0.  0.
<mgrwt>
<rscale>  0 0.38673138E+03</rscale>
<asrwt>0</asrwt>
<pdfrwt beam="1">  1        1 0.23827975E+00 0.38673138E+03</pdfrwt>
<pdfrwt beam="2">  1       -1 0.32024003E-02 0.38673138E+03</pdfrwt>
<totfact> 0.22721425E+03</totfact>
</mgrwt>
</event>
<event>
 4    1  0.2428650E-005  0.1648826E+04  0.7818608E-02  0.8791101E-01
          1   -1    0    0  501    0  0.00000000000E+00  0.00000000000E+00  0.26365665331E+03  0.26365665335E+03  0.50400000000E-02 0.  1.
         -1   -1    0    0    0  501 -0.00000000000E+00 -0.00000000000E+00 -0.25778096506E+04  0.25778096506E+04  0.50400000000E-02 0. -1.
    5000001    1    1    2    0    0  0.62312645744E+03  0.26734028410E+03 -0.40062764398E+03  0.80466447579E+03  0.16500000000E+03 0.  0.
   -5000001    1    1    2    0    0 -0.62312645744E+03 -0.26734028410E+03 -0.19135253533E+04  0.20368018282E+04  0.16500000000E+03 0.  0.
<mgrwt>
<rscale>  0 0.16488258E+04</rscale>
<asrwt>0</asrwt>
<pdfrwt beam="1">  1        1 0.37665238E-01 0.16488258E+04</pdfrwt>
<pdfrwt beam="2">  1       -1 0.36825851E+00 0.16488258E+04</pdfrwt>
<totfact> 0.12897901E+00</totfact>
</mgrwt>
</event>
<event>
 4    1  0.2428650E-005  0.3914397E+03  0.7818608E-02  0.1046785E+00
          1   -1    0    0  501    0  0.00000000000E+00  0.00000000000E+00  0.77910439505E+03  0.77910439506E+03  0.50400000000E-02 0.  1.
         -1   -1    0    0    0  501 -0.00000000000E+00 -0.00000000000E+00 -0.49167043593E+02  0.49167043852E+02  0.50400000000E-02 0. -1.
    5000001    1    1    2    0    0 -0.84122301754E+02 -0.60432823697E+02  0.40469988165E+03  0.44914995496E+03  0.16500000000E+03 0.  0.
   -5000001    1    1    2    0    0  0.84122301754E+02  0.60432823697E+02  0.32523746980E+03  0.37912148396E+03  0.16500000000E+03 0.  0.
<mgrwt>
<rscale>  0 0.39143970E+03</rscale>
<asrwt>0</asrwt>
<pdfrwt beam="1">  1        1 0.11130063E+00 0.39143970E+03</pdfrwt>
<pdfrwt beam="2">  1       -1 0.70238635E-02 0.39143970E+03</pdfrwt>
<totfact> 0.28341912E+03</totfact>
</mgrwt>
</event>
<event>
 4    1  0.2428650E-005  0.7392526E+03  0.7818608E-02  0.9652364E-01
          1   -1    0    0  501    0  0.00000000000E+00  0.00000000000E+00  0.24779291872E+04  0.24779291872E+04  0.50400000000E-02 0.  1.
         -1   -1    0    0    0  501 -0.00000000000E+00 -0.00000000000E+00 -0.55136204763E+02  0.55136204993E+02  0.50400000000E-02 0. -1.
    5000001    1    1    2    0    0  0.30154177905E+03  0.12595164377E+03  0.13863623104E+04  0.14338816955E+04  0.16500000000E+03 0.  0.
   -5000001    1    1    2    0    0 -0.30154177905E+03 -0.12595164377E+03  0.10364306720E+04  0.10991836967E+04  0.16500000000E+03 0.  0.
<mgrwt>
<rscale>  0 0.73925263E+03</rscale>
<asrwt>0</asrwt>
<pdfrwt beam="1">  1        1 0.35399004E+00 0.73925263E+03</pdfrwt>
<pdfrwt beam="2">  1       -1 0.78765971E-02 0.73925263E+03</pdfrwt>
<totfact> 0.17725811E+02</totfact>
</mgrwt>
</event>
<event>
 4    1  0.2428650E-005  0.5941783E+03  0.7818608E-02  0.9917558E-01
          1   -1    0    0  501    0  0.00000000000E+00  0.00000000000E+00  0.48053081780E+03  0.48053081783E+03  0.50400000000E-02 0.  1.
         -1   -1    0    0    0  501 -0.00000000000E+00 -0.00000000000E+00 -0.18367596832E+03  0.18367596839E+03  0.50400000000E-02 0. -1.
    5000001    1    1    2    0    0 -0.15647690197E+03  0.75102789196E+02  0.34496548065E+03  0.41994241586E+03  0.16500000000E+03 0.  0.
   -5000001    1    1    2    0    0  0.15647690197E+03 -0.75102789196E+02 -0.48110631177E+02  0.24426437036E+03  0.16500000000E+03 0.  0.
<mgrwt>
<rscale>  0 0.59417830E+03</rscale>
<asrwt>0</asrwt>
<pdfrwt beam="1">  1        1 0.68647258E-01 0.59417830E+03</pdfrwt>
<pdfrwt beam="2">  1       -1 0.26239425E-01 0.59417830E+03</pdfrwt>
<totfact> 0.67220204E+02</totfact>
</mgrwt>
</event>
<event>
 4    1  0.2428650E-005  0.4418281E+03  0.7818608E-02  0.1030187E+00
         -1   -1    0    0    0  501 -0.00000000000E+00  0.00000000000E+00  0.41536535081E+03  0.41536535084E+03  0.50400000000E-02 0. -1.
          1   -1    0    0  501    0  0.00000000000E+00 -0.00000000000E+00 -0.11749421532E+03  0.11749421542E+03  0.50400000000E-02 0.  1.
    5000001    1    1    2    0    0 -0.10087677469E+03 -0.50636263878E+02  0.35556409707E+02  0.20305027250E+03  0.16500000000E+03 0.  0.
   -5000001    1    1    2    0    0  0.10087677469E+03  0.50636263878E+02  0.26231472578E+03  0.32980929376E+03  0.16500000000E+03 0.  0.
<mgrwt>
<rscale>  0 0.44182814E+03</rscale>
<asrwt>0</asrwt>
<pdfrwt beam="1">  1        1 0.16784888E-01 0.44182814E+03</pdfrwt>
<pdfrwt beam="2">  1       -1 0.59337908E-01 0.44182814E+03</pdfrwt>
<totfact> 0.95787347E+02</totfact>
</mgrwt>
</event>
<event>
 4    1  0.2428650E-005  0.4397021E+03  0.7818608E-02  0.1030838E+00
          1   -1    0    0  501    0  0.00000000000E+00  0.00000000000E+00  0.44163960932E+04  0.44163960932E+04  0.50400000000E-02 0.  1.
         -1   -1    0    0    0  501 -0.00000000000E+00 -0.00000000000E+00 -0.10944326539E+02  0.10944327700E+02  0.50400000000E-02 0. -1.
    5000001    1    1    2    0    0  0.10279841751E+03 -0.70449156838E+02  0.29547955837E+04  0.29620216981E+04  0.16500000000E+03 0.  0.
   -5000001    1    1    2    0    0 -0.10279841751E+03  0.70449156838E+02  0.14506561829E+04  0.14653187228E+04  0.16500000000E+03 0.  0.
<mgrwt>
<rscale>  0 0.43970210E+03</rscale>
<asrwt>0</asrwt>
<pdfrwt beam="1">  1        1 0.63091315E+00 0.43970210E+03</pdfrwt>
<pdfrwt beam="2">  1       -1 0.15634767E-02 0.43970210E+03</pdfrwt>
<totfact> 0.96844332E+01</totfact>
</mgrwt>
</event>
<event>
 4    1  0.2428650E-005  0.5246083E+03  0.7818608E-02  0.1007548E+00
          1   -1    0    0  501    0  0.00000000000E+00  0.00000000000E+00  0.74232509947E+03  0.74232509949E+03  0.50400000000E-02 0.  1.
         -1   -1    0    0    0  501 -0.00000000000E+00 -0.00000000000E+00 -0.92686443740E+02  0.92686443877E+02  0.50400000000E-02 0. -1.
    5000001    1    1    2    0    0 -0.10861287858E+03 -0.40216400122E+02  0.57698824352E+02  0.20968612392E+03  0.16500000000E+03 0.  0.
   -5000001    1    1    2    0    0  0.10861287858E+03  0.40216400122E+02  0.59193983138E+03  0.62532541945E+03  0.16500000000E+03 0.  0.
<mgrwt>
<rscale>  0 0.52460832E+03</rscale>
<asrwt>0</asrwt>
<pdfrwt beam="1">  1        1 0.10604645E+00 0.52460832E+03</pdfrwt>
<pdfrwt beam="2">  1       -1 0.13240920E-01 0.52460832E+03</pdfrwt>
<totfact> 0.11297177E+03</totfact>
</mgrwt>
</event>
<event>
 4    1  0.2428650E-005  0.5359606E+03  0.7818608E-02  0.1004797E+00
          1   -1    0    0  501    0  0.00000000000E+00  0.00000000000E+00  0.23969664055E+03  0.23969664061E+03  0.50400000000E-02 0.  1.
         -1   -1    0    0    0  501 -0.00000000000E+00 -0.00000000000E+00 -0.29960141881E+03  0.29960141886E+03  0.50400000000E-02 0. -1.
    5000001    1    1    2    0    0 -0.45919028593E+02  0.19240116111E+03  0.44411049571E+02  0.26138880104E+03  0.16500000000E+03 0.  0.
   -5000001    1    1    2    0    0  0.45919028593E+02 -0.19240116111E+03 -0.10431582783E+03  0.27790925843E+03  0.16500000000E+03 0.  0.
<mgrwt>
<rscale>  0 0.53596065E+03</rscale>
<asrwt>0</asrwt>
<pdfrwt beam="1">  1        1 0.34242378E-01 0.53596065E+03</pdfrwt>
<pdfrwt beam="2">  1       -1 0.42800202E-01 0.53596065E+03</pdfrwt>
<totfact> 0.70046949E+02</totfact>
</mgrwt>
</event>
<event>
 4    1  0.2428650E-005  0.8087876E+03  0.7818608E-02  0.9547384E-01
          1   -1    0    0  501    0  0.00000000000E+00  0.00000000000E+00  0.17770997099E+04  0.17770997099E+04  0.50400000000E-02 0.  1.
         -1   -1    0    0    0  501 -0.00000000000E+00 -0.00000000000E+00 -0.92023171350E+02  0.92023171488E+02  0.50400000000E-02 0. -1.
    5000001    1    1    2    0    0  0.10879594035E+03 -0.34888458237E+03  0.96378069678E+03  0.10438655277E+04  0.16500000000E+03 0.  0.
   -5000001    1    1    2    0    0 -0.10879594035E+03  0.34888458237E+03  0.72129584172E+03  0.82525735364E+03  0.16500000000E+03 0.  0.
<mgrwt>
<rscale>  0 0.80878761E+03</rscale>
<asrwt>0</asrwt>
<pdfrwt beam="1">  1        1 0.25387139E+00 0.80878761E+03</pdfrwt>
<pdfrwt beam="2">  1       -1 0.13146167E-01 0.80878761E+03</pdfrwt>
<totfact> 0.21363464E+02</totfact>
</mgrwt>
</event>
<event>
 4    1  0.2428650E-005  0.5483464E+03  0.7818608E-02  0.1001877E+00
         -1   -1    0    0    0  501 -0.00000000000E+00  0.00000000000E+00  0.22077293419E+03  0.22077293425E+03  0.50400000000E-02 0.  1.
          1   -1    0    0  501    0  0.00000000000E+00 -0.00000000000E+00 -0.34048991141E+03  0.34048991145E+03  0.50400000000E-02 0. -1.
    5000001    1    1    2    0    0 -0.13392081412E+03 -0.37470743338E+02  0.11326193091E+03  0.24370495697E+03  0.16500000000E+03 0.  0.
   -5000001    1    1    2    0    0  0.13392081412E+03  0.37470743338E+02 -0.23297890813E+03  0.31755788873E+03  0.16500000000E+03 0.  0.
<mgrwt>
<rscale>  0 0.54834645E+03</rscale>
<asrwt>0</asrwt>
<pdfrwt beam="1">  1        1 0.48641416E-01 0.54834645E+03</pdfrwt>
<pdfrwt beam="2">  1       -1 0.31538991E-01 0.54834645E+03</pdfrwt>
<totfact> 0.76905704E+02</totfact>
</mgrwt>
</event>
<event>
 4    1  0.2428650E-005  0.7293343E+03  0.7818608E-02  0.9668341E-01
         -1   -1    0    0    0  501 -0.00000000000E+00  0.00000000000E+00  0.35236382239E+03  0.35236382242E+03  0.50400000000E-02 0. -1.
          1   -1    0    0  501    0  0.00000000000E+00 -0.00000000000E+00 -0.37740003675E+03  0.37740003679E+03  0.50400000000E-02 0.  1.
    5000001    1    1    2    0    0  0.15122329680E+03 -0.21057099358E+03  0.18393523422E+03  0.35814214946E+03  0.16500000000E+03 0.  0.
   -5000001    1    1    2    0    0 -0.15122329680E+03  0.21057099358E+03 -0.20897144858E+03  0.37162170975E+03  0.16500000000E+03 0.  0.
<mgrwt>
<rscale>  0 0.72933427E+03</rscale>
<asrwt>0</asrwt>
<pdfrwt beam="1">  1        1 0.53914291E-01 0.72933427E+03</pdfrwt>
<pdfrwt beam="2">  1       -1 0.50337689E-01 0.72933427E+03</pdfrwt>
<totfact> 0.28667696E+02</totfact>
</mgrwt>
</event>
<event>
 4    1  0.2428650E-005  0.4547495E+03  0.7818608E-02  0.1026315E+00
         -1   -1    0    0    0  501 -0.00000000000E+00  0.00000000000E+00  0.61782800826E+02  0.61782801031E+02  0.50400000000E-02 0. -1.
          1   -1    0    0  501    0  0.00000000000E+00 -0.00000000000E+00 -0.83679059349E+03  0.83679059350E+03  0.50400000000E-02 0.  1.
    5000001    1    1    2    0    0  0.11667962603E+03  0.86605229253E+02 -0.27297122029E+03  0.35050376314E+03  0.16500000000E+03 0.  0.
   -5000001    1    1    2    0    0 -0.11667962603E+03 -0.86605229253E+02 -0.50203657237E+03  0.54806963140E+03  0.16500000000E+03 0.  0.
<mgrwt>
<rscale>  0 0.45474945E+03</rscale>
<asrwt>0</asrwt>
<pdfrwt beam="1">  1        1 0.11954151E+00 0.45474945E+03</pdfrwt>
<pdfrwt beam="2">  1       -1 0.88261149E-02 0.45474945E+03</pdfrwt>
<totfact> 0.17872586E+03</totfact>
</mgrwt>
</event>
<event>
 4    1  0.2428650E-005  0.3592738E+03  0.7818608E-02  0.1058872E+00
         -1   -1    0    0    0  501 -0.00000000000E+00  0.00000000000E+00  0.62776236263E+03  0.62776236265E+03  0.50400000000E-02 0. -1.
          1   -1    0    0  501    0  0.00000000000E+00 -0.00000000000E+00 -0.51403880816E+02  0.51403881063E+02  0.50400000000E-02 0.  1.
    5000001    1    1    2    0    0  0.68860483606E+02 -0.17382191289E+02  0.28953582640E+03  0.34073435628E+03  0.16500000000E+03 0.  0.
   -5000001    1    1    2    0    0 -0.68860483606E+02  0.17382191289E+02  0.28682265541E+03  0.33843188744E+03  0.16500000000E+03 0.  0.
<mgrwt>
<rscale>  0 0.35927383E+03</rscale>
<asrwt>0</asrwt>
<pdfrwt beam="1">  1        1 0.73434121E-02 0.35927383E+03</pdfrwt>
<pdfrwt beam="2">  1       -1 0.89680331E-01 0.35927383E+03</pdfrwt>
<totfact> 0.12570212E+03</totfact>
</mgrwt>
</event>
<event>
 4    1  0.2428650E-005  0.6073492E+03  0.7818608E-02  0.9890275E-01
          1   -1    0    0  501    0  0.00000000000E+00  0.00000000000E+00  0.94540587780E+02  0.94540587914E+02  0.50400000000E-02 0.  1.
         -1   -1    0    0    0  501 -0.00000000000E+00 -0.00000000000E+00 -0.97543583948E+03  0.97543583949E+03  0.50400000000E-02 0. -1.
    5000001    1    1    2    0    0  0.22840802239E+03  0.26836994042E+02 -0.24663629900E+03  0.37542630825E+03  0.16500000000E+03 0.  0.
   -5000001    1    1    2    0    0 -0.22840802239E+03 -0.26836994042E+02 -0.63425895270E+03  0.69455011916E+03  0.16500000000E+03 0.  0.
<mgrwt>
<rscale>  0 0.60734925E+03</rscale>
<asrwt>0</asrwt>
<pdfrwt beam="1">  1        1 0.13505799E-01 0.60734925E+03</pdfrwt>
<pdfrwt beam="2">  1       -1 0.13934797E+00 0.60734925E+03</pdfrwt>
<totfact> 0.19261720E+02</totfact>
</mgrwt>
</event>
<event>
 4    1  0.2428650E-005  0.5249747E+03  0.7818608E-02  0.1007458E+00
         -1   -1    0    0    0  501 -0.00000000000E+00  0.00000000000E+00  0.56479178548E+03  0.56479178551E+03  0.50400000000E-02 0.  1.
          1   -1    0    0  501    0  0.00000000000E+00 -0.00000000000E+00 -0.12199118091E+03  0.12199118102E+03  0.50400000000E-02 0. -1.
    5000001    1    1    2    0    0 -0.44582954592E+02 -0.17325221616E+03  0.35005003085E+03  0.42633788753E+03  0.16500000000E+03 0.  0.
   -5000001    1    1    2    0    0  0.44582954592E+02  0.17325221616E+03  0.92750573718E+02  0.26044507899E+03  0.16500000000E+03 0.  0.
<mgrwt>
<rscale>  0 0.52497473E+03</rscale>
<asrwt>0</asrwt>
<pdfrwt beam="1">  1        1 0.17427312E-01 0.52497473E+03</pdfrwt>
<pdfrwt beam="2">  1       -1 0.80684540E-01 0.52497473E+03</pdfrwt>
<totfact> 0.48895919E+02</totfact>
</mgrwt>
</event>
<event>
 4    1  0.2428650E-005  0.7437321E+03  0.7818608E-02  0.9645235E-01
          1   -1    0    0  501    0  0.00000000000E+00  0.00000000000E+00  0.55579877838E+02  0.55579878066E+02  0.50400000000E-02 0.  1.
         -1   -1    0    0    0  501 -0.00000000000E+00 -0.00000000000E+00 -0.24880291319E+04  0.24880291319E+04  0.50400000000E-02 0. -1.
    5000001    1    1    2    0    0 -0.55742057130E+02  0.32443867238E+03 -0.13936637139E+04  0.14414892217E+04  0.16500000000E+03 0.  0.
   -5000001    1    1    2    0    0  0.55742057130E+02 -0.32443867238E+03 -0.10387855402E+04  0.11021197882E+04  0.16500000000E+03 0.  0.
<mgrwt>
<rscale>  0 0.74373209E+03</rscale>
<asrwt>0</asrwt>
<pdfrwt beam="1">  1        1 0.79399841E-02 0.74373209E+03</pdfrwt>
<pdfrwt beam="2">  1       -1 0.35543266E+00 0.74373209E+03</pdfrwt>
<totfact> 0.13948406E+01</totfact>
</mgrwt>
</event>
<event>
 4    1  0.2428650E-005  0.5047751E+03  0.7818608E-02  0.1012540E+00
          1   -1    0    0  501    0  0.00000000000E+00  0.00000000000E+00  0.26967096596E+03  0.26967096600E+03  0.50400000000E-02 0. -1.
         -1   -1    0    0    0  501 -0.00000000000E+00 -0.00000000000E+00 -0.23621184800E+03  0.23621184805E+03  0.50400000000E-02 0.  1.
    5000001    1    1    2    0    0  0.15800439557E+03 -0.10677117908E+03  0.27192946432E+02  0.25363345607E+03  0.16500000000E+03 0.  0.
   -5000001    1    1    2    0    0 -0.15800439557E+03  0.10677117908E+03  0.62661715245E+01  0.25224935799E+03  0.16500000000E+03 0.  0.
<mgrwt>
<rscale>  0 0.50477511E+03</rscale>
<asrwt>0</asrwt>
<pdfrwt beam="1">  1        1 0.38524424E-01 0.50477511E+03</pdfrwt>
<pdfrwt beam="2">  1       -1 0.33744550E-01 0.50477511E+03</pdfrwt>
<totfact> 0.92206905E+02</totfact>
</mgrwt>
</event>
<event>
 4    1  0.2428650E-005  0.4504600E+03  0.7818608E-02  0.1027585E+00
          1   -1    0    0  501    0  0.00000000000E+00  0.00000000000E+00  0.17807086195E+04  0.17807086196E+04  0.50400000000E-02 0.  1.
         -1   -1    0    0    0  501 -0.00000000000E+00 -0.00000000000E+00 -0.28487851519E+02  0.28487851965E+02  0.50400000000E-02 0. -1.
    5000001    1    1    2    0    0  0.87539538519E+02  0.17986317021E+02  0.37580897847E+03  0.42005245708E+03  0.16500000000E+03 0.  0.
   -5000001    1    1    2    0    0 -0.87539538519E+02 -0.17986317021E+02  0.13764117896E+04  0.13891440144E+04  0.16500000000E+03 0.  0.
<mgrwt>
<rscale>  0 0.45046005E+03</rscale>
<asrwt>0</asrwt>
<pdfrwt beam="1">  1        1 0.25438707E+00 0.45046005E+03</pdfrwt>
<pdfrwt beam="2">  1       -1 0.40696911E-02 0.45046005E+03</pdfrwt>
<totfact> 0.13474059E+03</totfact>
</mgrwt>
</event>
<event>
 4    1  0.2428650E-005  0.1236504E+04  0.7818608E-02  0.9081492E-01
         -1   -1    0    0    0  501 -0.00000000000E+00  0.00000000000E+00  0.64833958411E+03  0.64833958413E+03  0.50400000000E-02 0. -1.
          1   -1    0    0  501    0  0.00000000000E+00 -0.00000000000E+00 -0.58956026919E+03  0.58956026922E+03  0.50400000000E-02 0.  1.
    5000001    1    1    2    0    0  0.58671400154E+03  0.32277852553E+02  0.12816758585E+03  0.62364020832E+03  0.16500000000E+03 0.  0.
   -5000001    1    1    2    0    0 -0.58671400154E+03 -0.32277852553E+02 -0.69388270933E+02  0.61425964503E+03  0.16500000000E+03 0.  0.
<mgrwt>
<rscale>  0 0.12365036E+04</rscale>
<asrwt>0</asrwt>
<pdfrwt beam="1">  1        1 0.84222895E-01 0.12365036E+04</pdfrwt>
<pdfrwt beam="2">  1       -1 0.92619941E-01 0.12365036E+04</pdfrwt>
<totfact> 0.43770498E+01</totfact>
</mgrwt>
</event>
<event>
 4    1  0.2428650E-005  0.8340560E+03  0.7818608E-02  0.9511990E-01
         -1   -1    0    0    0  501 -0.00000000000E+00  0.00000000000E+00  0.24419800501E+03  0.24419800506E+03  0.50400000000E-02 0. -1.
          1   -1    0    0  501    0  0.00000000000E+00 -0.00000000000E+00 -0.71217755357E+03  0.71217755359E+03  0.50400000000E-02 0.  1.
    5000001    1    1    2    0    0 -0.11632252152E+03  0.35226731299E+03 -0.34315813646E+03  0.53160671124E+03  0.16500000000E+03 0.  0.
   -5000001    1    1    2    0    0  0.11632252152E+03 -0.35226731299E+03 -0.12482141210E+03  0.42476884741E+03  0.16500000000E+03 0.  0.
<mgrwt>
<rscale>  0 0.83405596E+03</rscale>
<asrwt>0</asrwt>
<pdfrwt beam="1">  1        1 0.10173965E+00 0.83405596E+03</pdfrwt>
<pdfrwt beam="2">  1       -1 0.34885430E-01 0.83405596E+03</pdfrwt>
<totfact> 0.23354496E+02</totfact>
</mgrwt>
</event>
<event>
 4    1  0.2428650E-005  0.6145442E+03  0.7818608E-02  0.9875683E-01
         -1   -1    0    0    0  501 -0.00000000000E+00  0.00000000000E+00  0.18799384265E+03  0.18799384271E+03  0.50400000000E-02 0. -1.
          1   -1    0    0  501    0  0.00000000000E+00 -0.00000000000E+00 -0.50223000087E+03  0.50223000090E+03  0.50400000000E-02 0.  1.
    5000001    1    1    2    0    0 -0.21065817825E+03 -0.14183209638E+03 -0.21545622986E+03  0.37167135834E+03  0.16500000000E+03 0.  0.
   -5000001    1    1    2    0    0  0.21065817825E+03  0.14183209638E+03 -0.98779928367E+02  0.31855248527E+03  0.16500000000E+03 0.  0.
<mgrwt>
<rscale>  0 0.61454421E+03</rscale>
<asrwt>0</asrwt>
<pdfrwt beam="1">  1        1 0.71747142E-01 0.61454421E+03</pdfrwt>
<pdfrwt beam="2">  1       -1 0.26856263E-01 0.61454421E+03</pdfrwt>
<totfact> 0.60852706E+02</totfact>
</mgrwt>
</event>
<event>
 4    1  0.2428650E-005  0.5031514E+03  0.7818608E-02  0.1012960E+00
          1   -1    0    0  501    0  0.00000000000E+00  0.00000000000E+00  0.51529494106E+03  0.51529494109E+03  0.50400000000E-02 0. -1.
         -1   -1    0    0    0  501 -0.00000000000E+00 -0.00000000000E+00 -0.12282350423E+03  0.12282350434E+03  0.50400000000E-02 0.  1.
    5000001    1    1    2    0    0  0.13301317317E+03 -0.11355755702E+03  0.29009864880E+03  0.37678913072E+03  0.16500000000E+03 0.  0.
   -5000001    1    1    2    0    0 -0.13301317317E+03  0.11355755702E+03  0.10237278802E+03  0.26132931470E+03  0.16500000000E+03 0.  0.
<mgrwt>
<rscale>  0 0.50315139E+03</rscale>
<asrwt>0</asrwt>
<pdfrwt beam="1">  1        1 0.73613562E-01 0.50315139E+03</pdfrwt>
<pdfrwt beam="2">  1       -1 0.17546215E-01 0.50315139E+03</pdfrwt>
<totfact> 0.11990124E+03</totfact>
</mgrwt>
</event>
<event>
 4    1  0.2428650E-005  0.4047937E+03  0.7818608E-02  0.1042132E+00
         -1   -1    0    0    0  501 -0.00000000000E+00  0.00000000000E+00  0.29117178351E+02  0.29117178787E+02  0.50400000000E-02 0.  1.
          1   -1    0    0  501    0  0.00000000000E+00 -0.00000000000E+00 -0.14068840748E+04  0.14068840748E+04  0.50400000000E-02 0. -1.
    5000001    1    1    2    0    0  0.10600685152E+03  0.89844984490E+01 -0.86344444436E+03  0.88548262675E+03  0.16500000000E+03 0.  0.
   -5000001    1    1    2    0    0 -0.10600685152E+03 -0.89844984490E+01 -0.51432245209E+03  0.55051862684E+03  0.16500000000E+03 0.  0.
<mgrwt>
<rscale>  0 0.40479375E+03</rscale>
<asrwt>0</asrwt>
<pdfrwt beam="1">  1        1 0.20098340E+00 0.40479375E+03</pdfrwt>
<pdfrwt beam="2">  1       -1 0.41595978E-02 0.40479375E+03</pdfrwt>
<totfact> 0.22413660E+03</totfact>
</mgrwt>
</event>
<event>
 4    1  0.2428650E-005  0.6910577E+03  0.7818608E-02  0.9732648E-01
         -1   -1    0    0    0  501 -0.00000000000E+00  0.00000000000E+00  0.19713714074E+03  0.19713714080E+03  0.50400000000E-02 0.  1.
          1   -1    0    0  501    0  0.00000000000E+00 -0.00000000000E+00 -0.60561995171E+03  0.60561995173E+03  0.50400000000E-02 0. -1.
    5000001    1    1    2    0    0  0.20138775605E+03 -0.10355322760E+03  0.30641407721E+02  0.28185846643E+03  0.16500000000E+03 0.  0.
   -5000001    1    1    2    0    0 -0.20138775605E+03  0.10355322760E+03 -0.43912421870E+03  0.52089862610E+03  0.16500000000E+03 0.  0.
<mgrwt>
<rscale>  0 0.69105770E+03</rscale>
<asrwt>0</asrwt>
<pdfrwt beam="1">  1        1 0.86517135E-01 0.69105770E+03</pdfrwt>
<pdfrwt beam="2">  1       -1 0.28162449E-01 0.69105770E+03</pdfrwt>
<totfact> 0.43235973E+02</totfact>
</mgrwt>
</event>
<event>
 4    1  0.2428650E-005  0.6022377E+03  0.7818608E-02  0.9900774E-01
          1   -1    0    0  501    0  0.00000000000E+00  0.00000000000E+00  0.69903630406E+03  0.69903630408E+03  0.50400000000E-02 0.  1.
         -1   -1    0    0    0  501 -0.00000000000E+00 -0.00000000000E+00 -0.12971080680E+03  0.12971080689E+03  0.50400000000E-02 0. -1.
    5000001    1    1    2    0    0  0.10466209486E+03 -0.14128681795E+03  0.36460474527E+02  0.24386571147E+03  0.16500000000E+03 0.  0.
   -5000001    1    1    2    0    0 -0.10466209486E+03  0.14128681795E+03  0.53286502274E+03  0.58488139950E+03  0.16500000000E+03 0.  0.
<mgrwt>
<rscale>  0 0.60223770E+03</rscale>
<asrwt>0</asrwt>
<pdfrwt beam="1">  1        1 0.99862330E-01 0.60223770E+03</pdfrwt>
<pdfrwt beam="2">  1       -1 0.18530115E-01 0.60223770E+03</pdfrwt>
<totfact> 0.71431664E+02</totfact>
</mgrwt>
</event>
<event>
 4    1  0.2428650E-005  0.3664630E+03  0.7818608E-02  0.1056054E+00
         -1   -1    0    0    0  501 -0.00000000000E+00  0.00000000000E+00  0.45124278628E+02  0.45124278910E+02  0.50400000000E-02 0. -1.
          1   -1    0    0  501    0  0.00000000000E+00 -0.00000000000E+00 -0.74402934490E+03  0.74402934492E+03  0.50400000000E-02 0.  1.
    5000001    1    1    2    0    0  0.24578911206E+02 -0.70682739060E+02 -0.29053281183E+03  0.34239522080E+03  0.16500000000E+03 0.  0.
   -5000001    1    1    2    0    0 -0.24578911206E+02  0.70682739060E+02 -0.40837225444E+03  0.44675840303E+03  0.16500000000E+03 0.  0.
<mgrwt>
<rscale>  0 0.36646303E+03</rscale>
<asrwt>0</asrwt>
<pdfrwt beam="1">  1        1 0.10628990E+00 0.36646303E+03</pdfrwt>
<pdfrwt beam="2">  1       -1 0.64463260E-02 0.36646303E+03</pdfrwt>
<totfact> 0.34576390E+03</totfact>
</mgrwt>
</event>
<event>
 4    1  0.2428650E-005  0.1048830E+04  0.7818608E-02  0.9256553E-01
         -1   -1    0    0    0  501 -0.00000000000E+00  0.00000000000E+00  0.94291357872E+03  0.94291357874E+03  0.50400000000E-02 0. -1.
          1   -1    0    0  501    0  0.00000000000E+00 -0.00000000000E+00 -0.29166074007E+03  0.29166074012E+03  0.50400000000E-02 0.  1.
    5000001    1    1    2    0    0 -0.23247819589E+03 -0.28756288188E+03 -0.66626703810E+02  0.41036890752E+03  0.16500000000E+03 0.  0.
   -5000001    1    1    2    0    0  0.23247819589E+03  0.28756288188E+03  0.71787954246E+03  0.82420541134E+03  0.16500000000E+03 0.  0.
<mgrwt>
<rscale>  0 0.10488296E+04</rscale>
<asrwt>0</asrwt>
<pdfrwt beam="1">  1        1 0.41665820E-01 0.10488296E+04</pdfrwt>
<pdfrwt beam="2">  1       -1 0.13470194E+00 0.10488296E+04</pdfrwt>
<totfact> 0.46419561E+01</totfact>
</mgrwt>
</event>
<event>
 4    1  0.2428650E-005  0.3846266E+03  0.7818608E-02  0.1049237E+00
         -1   -1    0    0    0  501 -0.00000000000E+00  0.00000000000E+00  0.13623007979E+03  0.13623007988E+03  0.50400000000E-02 0. -1.
          1   -1    0    0  501    0  0.00000000000E+00 -0.00000000000E+00 -0.27148481319E+03  0.27148481324E+03  0.50400000000E-02 0.  1.
    5000001    1    1    2    0    0 -0.73889305960E+02 -0.44639678249E+02 -0.11854256550E+03  0.22074797903E+03  0.16500000000E+03 0.  0.
   -5000001    1    1    2    0    0  0.73889305960E+02  0.44639678249E+02 -0.16712167905E+02  0.18696691409E+03  0.16500000000E+03 0.  0.
<mgrwt>
<rscale>  0 0.38462656E+03</rscale>
<asrwt>0</asrwt>
<pdfrwt beam="1">  1        1 0.38783545E-01 0.38462656E+03</pdfrwt>
<pdfrwt beam="2">  1       -1 0.19461440E-01 0.38462656E+03</pdfrwt>
<totfact> 0.23163788E+03</totfact>
</mgrwt>
</event>
<event>
 4    1  0.2428650E-005  0.4156034E+03  0.7818608E-02  0.1038507E+00
         -1   -1    0    0    0  501 -0.00000000000E+00  0.00000000000E+00  0.22177109545E+03  0.22177109551E+03  0.50400000000E-02 0. -1.
          1   -1    0    0  501    0  0.00000000000E+00 -0.00000000000E+00 -0.19471222556E+03  0.19471222563E+03  0.50400000000E-02 0.  1.
    5000001    1    1    2    0    0 -0.10204860237E+03  0.14062273213E+02 -0.59734032332E+02  0.20348174216E+03  0.16500000000E+03 0.  0.
   -5000001    1    1    2    0    0  0.10204860237E+03 -0.14062273213E+02  0.86792902221E+02  0.21300157898E+03  0.16500000000E+03 0.  0.
<mgrwt>
<rscale>  0 0.41560339E+03</rscale>
<asrwt>0</asrwt>
<pdfrwt beam="1">  1        1 0.27816032E-01 0.41560339E+03</pdfrwt>
<pdfrwt beam="2">  1       -1 0.31681585E-01 0.41560339E+03</pdfrwt>
<totfact> 0.15610742E+03</totfact>
</mgrwt>
</event>
<event>
 4    1  0.2428650E-005  0.4096196E+03  0.7818608E-02  0.1040499E+00
          1   -1    0    0  501    0  0.00000000000E+00  0.00000000000E+00  0.30110996931E+03  0.30110996935E+03  0.50400000000E-02 0.  1.
         -1   -1    0    0    0  501 -0.00000000000E+00 -0.00000000000E+00 -0.13930806452E+03  0.13930806461E+03  0.50400000000E-02 0. -1.
    5000001    1    1    2    0    0  0.30789291967E+01  0.11213521876E+03  0.13061906738E+03  0.23847458534E+03  0.16500000000E+03 0.  0.
   -5000001    1    1    2    0    0 -0.30789291967E+01 -0.11213521876E+03  0.31182837409E+02  0.20194344862E+03  0.16500000000E+03 0.  0.
<mgrwt>
<rscale>  0 0.40961957E+03</rscale>
<asrwt>0</asrwt>
<pdfrwt beam="1">  1        1 0.43015709E-01 0.40961957E+03</pdfrwt>
<pdfrwt beam="2">  1       -1 0.19901153E-01 0.40961957E+03</pdfrwt>
<totfact> 0.19593533E+03</totfact>
</mgrwt>
</event>
<event>
 4    1  0.2428650E-005  0.4760010E+03  0.7818608E-02  0.1020240E+00
          1   -1    0    0  501    0  0.00000000000E+00  0.00000000000E+00  0.53955592868E+03  0.53955592870E+03  0.50400000000E-02 0.  1.
         -1   -1    0    0    0  501 -0.00000000000E+00 -0.00000000000E+00 -0.10498307807E+03  0.10498307819E+03  0.50400000000E-02 0. -1.
    5000001    1    1    2    0    0  0.12793946190E+03 -0.76387373884E+02  0.10226447639E+03  0.24471730615E+03  0.16500000000E+03 0.  0.
   -5000001    1    1    2    0    0 -0.12793946190E+03  0.76387373884E+02  0.33230837423E+03  0.39982170074E+03  0.16500000000E+03 0.  0.
<mgrwt>
<rscale>  0 0.47600102E+03</rscale>
<asrwt>0</asrwt>
<pdfrwt beam="1">  1        1 0.77079420E-01 0.47600102E+03</pdfrwt>
<pdfrwt beam="2">  1       -1 0.14997582E-01 0.47600102E+03</pdfrwt>
<totfact> 0.14533394E+03</totfact>
</mgrwt>
</event>
<event>
 4    1  0.2428650E-005  0.6150304E+03  0.7818608E-02  0.9874704E-01
         -1   -1    0    0    0  501 -0.00000000000E+00  0.00000000000E+00  0.16168820901E+04  0.16168820901E+04  0.50400000000E-02 0. -1.
          1   -1    0    0  501    0  0.00000000000E+00 -0.00000000000E+00 -0.58486386100E+02  0.58486386317E+02  0.50400000000E-02 0.  1.
    5000001    1    1    2    0    0  0.12623066232E+03  0.22396894030E+03  0.87528836772E+03  0.92706579756E+03  0.16500000000E+03 0.  0.
   -5000001    1    1    2    0    0 -0.12623066232E+03 -0.22396894030E+03  0.68310733628E+03  0.74830267887E+03  0.16500000000E+03 0.  0.
<mgrwt>
<rscale>  0 0.61503037E+03</rscale>
<asrwt>0</asrwt>
<pdfrwt beam="1">  1        1 0.83551977E-02 0.61503037E+03</pdfrwt>
<pdfrwt beam="2">  1       -1 0.23098316E+00 0.61503037E+03</pdfrwt>
<totfact> 0.83048126E+01</totfact>
</mgrwt>
</event>
<event>
 4    1  0.2428650E-005  0.7587803E+03  0.7818608E-02  0.9621675E-01
          1   -1    0    0  501    0  0.00000000000E+00  0.00000000000E+00  0.16027037469E+03  0.16027037477E+03  0.50400000000E-02 0.  1.
         -1   -1    0    0    0  501 -0.00000000000E+00 -0.00000000000E+00 -0.89808796037E+03  0.89808796038E+03  0.50400000000E-02 0. -1.
    5000001    1    1    2    0    0 -0.24606977220E+03 -0.19110814657E+03 -0.56437828575E+03  0.66544759816E+03  0.16500000000E+03 0.  0.
   -5000001    1    1    2    0    0  0.24606977220E+03  0.19110814657E+03 -0.17343929994E+03  0.39291073699E+03  0.16500000000E+03 0.  0.
<mgrwt>
<rscale>  0 0.75878032E+03</rscale>
<asrwt>0</asrwt>
<pdfrwt beam="1">  1        1 0.22895768E-01 0.75878032E+03</pdfrwt>
<pdfrwt beam="2">  1       -1 0.12829828E+00 0.75878032E+03</pdfrwt>
<totfact> 0.11664056E+02</totfact>
</mgrwt>
</event>
<event>
 4    1  0.2428650E-005  0.5248090E+03  0.7818608E-02  0.1007499E+00
          1   -1    0    0  501    0  0.00000000000E+00  0.00000000000E+00  0.97438936372E+03  0.97438936373E+03  0.50400000000E-02 0.  1.
         -1   -1    0    0    0  501 -0.00000000000E+00 -0.00000000000E+00 -0.70665918388E+02  0.70665918568E+02  0.50400000000E-02 0. -1.
    5000001    1    1    2    0    0  0.88882661353E+02  0.66215819065E+02  0.79298852020E+03  0.81752092044E+03  0.16500000000E+03 0.  0.
   -5000001    1    1    2    0    0 -0.88882661353E+02 -0.66215819065E+02  0.11073492513E+03  0.22753436186E+03  0.16500000000E+03 0.  0.
<mgrwt>
<rscale>  0 0.52480899E+03</rscale>
<asrwt>0</asrwt>
<pdfrwt beam="1">  1        1 0.13919847E+00 0.52480899E+03</pdfrwt>
<pdfrwt beam="2">  1       -1 0.10095132E-01 0.52480899E+03</pdfrwt>
<totfact> 0.11326625E+03</totfact>
</mgrwt>
</event>
<event>
 4    1  0.2428650E-005  0.6070431E+03  0.7818608E-02  0.9890901E-01
          1   -1    0    0  501    0  0.00000000000E+00  0.00000000000E+00  0.23416796811E+04  0.23416796811E+04  0.50400000000E-02 0.  1.
         -1   -1    0    0    0  501 -0.00000000000E+00 -0.00000000000E+00 -0.39341564745E+02  0.39341565068E+02  0.50400000000E-02 0. -1.
    5000001    1    1    2    0    0 -0.41986035251E+02 -0.25100668178E+03  0.11059070919E+04  0.11467443818E+04  0.16500000000E+03 0.  0.
   -5000001    1    1    2    0    0  0.41986035251E+02  0.25100668178E+03  0.11964310245E+04  0.12342768643E+04  0.16500000000E+03 0.  0.
<mgrwt>
<rscale>  0 0.60704314E+03</rscale>
<asrwt>0</asrwt>
<pdfrwt beam="1">  1        1 0.33452564E+00 0.60704314E+03</pdfrwt>
<pdfrwt beam="2">  1       -1 0.56202240E-02 0.60704314E+03</pdfrwt>
<totfact> 0.36792219E+02</totfact>
</mgrwt>
</event>
<event>
 4    1  0.2428650E-005  0.5075819E+03  0.7818608E-02  0.1011819E+00
         -1   -1    0    0    0  501 -0.00000000000E+00  0.00000000000E+00  0.38186492553E+03  0.38186492556E+03  0.50400000000E-02 0. -1.
          1   -1    0    0  501    0  0.00000000000E+00 -0.00000000000E+00 -0.16867180303E+03  0.16867180311E+03  0.50400000000E-02 0.  1.
    5000001    1    1    2    0    0  0.12723584641E+03  0.61220814318E+02  0.24904190124E+03  0.33042974638E+03  0.16500000000E+03 0.  0.
   -5000001    1    1    2    0    0 -0.12723584641E+03 -0.61220814318E+02 -0.35848778746E+02  0.22010698229E+03  0.16500000000E+03 0.  0.
<mgrwt>
<rscale>  0 0.50758190E+03</rscale>
<asrwt>0</asrwt>
<pdfrwt beam="1">  1        1 0.24095972E-01 0.50758190E+03</pdfrwt>
<pdfrwt beam="2">  1       -1 0.54552131E-01 0.50758190E+03</pdfrwt>
<totfact> 0.70099197E+02</totfact>
</mgrwt>
</event>
<event>
 4    1  0.2428650E-005  0.7279170E+03  0.7818608E-02  0.9670647E-01
          1   -1    0    0  501    0  0.00000000000E+00  0.00000000000E+00  0.71936691696E+02  0.71936691873E+02  0.50400000000E-02 0.  1.
         -1   -1    0    0    0  501 -0.00000000000E+00 -0.00000000000E+00 -0.18414216755E+04  0.18414216755E+04  0.50400000000E-02 0. -1.
    5000001    1    1    2    0    0  0.23754775020E+03 -0.21227228433E+03 -0.72372805445E+03  0.80777209231E+03  0.16500000000E+03 0.  0.
   -5000001    1    1    2    0    0 -0.23754775020E+03  0.21227228433E+03 -0.10457569293E+04  0.11055862750E+04  0.16500000000E+03 0.  0.
<mgrwt>
<rscale>  0 0.72791698E+03</rscale>
<asrwt>0</asrwt>
<pdfrwt beam="1">  1        1 0.10276671E-01 0.72791698E+03</pdfrwt>
<pdfrwt beam="2">  1       -1 0.26306021E+00 0.72791698E+03</pdfrwt>
<totfact> 0.38369737E+01</totfact>
</mgrwt>
</event>
<event>
 4    1  0.2428650E-005  0.3839069E+03  0.7818608E-02  0.1049499E+00
          1   -1    0    0  501    0  0.00000000000E+00  0.00000000000E+00  0.72464403001E+03  0.72464403003E+03  0.50400000000E-02 0. -1.
         -1   -1    0    0    0  501 -0.00000000000E+00 -0.00000000000E+00 -0.50847201710E+02  0.50847201960E+02  0.50400000000E-02 0.  1.
    5000001    1    1    2    0    0 -0.10135430202E+02  0.78939029777E+02  0.45271011463E+03  0.48837029523E+03  0.16500000000E+03 0.  0.
   -5000001    1    1    2    0    0  0.10135430202E+02 -0.78939029777E+02  0.22108671367E+03  0.28712093676E+03  0.16500000000E+03 0.  0.
<mgrwt>
<rscale>  0 0.38390687E+03</rscale>
<asrwt>0</asrwt>
<pdfrwt beam="1">  1        1 0.10352058E+00 0.38390687E+03</pdfrwt>
<pdfrwt beam="2">  1       -1 0.72638859E-02 0.38390687E+03</pdfrwt>
<totfact> 0.29953853E+03</totfact>
</mgrwt>
</event>
<event>
 4    1  0.2428650E-005  0.4251867E+03  0.7818608E-02  0.1035391E+00
         -1   -1    0    0    0  501 -0.00000000000E+00  0.00000000000E+00  0.91869888291E+02  0.91869888429E+02  0.50400000000E-02 0. -1.
          1   -1    0    0  501    0  0.00000000000E+00 -0.00000000000E+00 -0.49195578049E+03  0.49195578051E+03  0.50400000000E-02 0.  1.
    5000001    1    1    2    0    0 -0.71829276768E+02  0.96773836526E+02 -0.11943455726E+03  0.23667326403E+03  0.16500000000E+03 0.  0.
   -5000001    1    1    2    0    0  0.71829276768E+02 -0.96773836526E+02 -0.28065133494E+03  0.34715240492E+03  0.16500000000E+03 0.  0.
<mgrwt>
<rscale>  0 0.42518665E+03</rscale>
<asrwt>0</asrwt>
<pdfrwt beam="1">  1        1 0.70279396E-01 0.42518665E+03</pdfrwt>
<pdfrwt beam="2">  1       -1 0.13124270E-01 0.42518665E+03</pdfrwt>
<totfact> 0.20357373E+03</totfact>
</mgrwt>
</event>
<event>
 4    1  0.2428650E-005  0.4176785E+03  0.7818608E-02  0.1037825E+00
          1   -1    0    0  501    0  0.00000000000E+00  0.00000000000E+00  0.13293365795E+03  0.13293365804E+03  0.50400000000E-02 0.  1.
         -1   -1    0    0    0  501 -0.00000000000E+00 -0.00000000000E+00 -0.32808719090E+03  0.32808719094E+03  0.50400000000E-02 0. -1.
    5000001    1    1    2    0    0  0.12313752333E+03 -0.29860338456E+01 -0.13608337177E+03  0.24681055513E+03  0.16500000000E+03 0.  0.
   -5000001    1    1    2    0    0 -0.12313752333E+03  0.29860338456E+01 -0.59070161177E+02  0.21421029385E+03  0.16500000000E+03 0.  0.
<mgrwt>
<rscale>  0 0.41767849E+03</rscale>
<asrwt>0</asrwt>
<pdfrwt beam="1">  1        1 0.18990523E-01 0.41767849E+03</pdfrwt>
<pdfrwt beam="2">  1       -1 0.46869599E-01 0.41767849E+03</pdfrwt>
<totfact> 0.12720320E+03</totfact>
</mgrwt>
</event>
<event>
 4    1  0.2428650E-005  0.8811493E+03  0.7818608E-02  0.9449457E-01
          1   -1    0    0  501    0  0.00000000000E+00  0.00000000000E+00  0.15624446707E+04  0.15624446708E+04  0.50400000000E-02 0.  1.
         -1   -1    0    0    0  501 -0.00000000000E+00 -0.00000000000E+00 -0.12423224076E+03  0.12423224086E+03  0.50400000000E-02 0. -1.
    5000001    1    1    2    0    0  0.34447123276E+03  0.10509328806E+03  0.35003209351E+03  0.52863266630E+03  0.16500000000E+03 0.  0.
   -5000001    1    1    2    0    0 -0.34447123276E+03 -0.10509328806E+03  0.10881803365E+04  0.11580442453E+04  0.16500000000E+03 0.  0.
<mgrwt>
<rscale>  0 0.88114926E+03</rscale>
<asrwt>0</asrwt>
<pdfrwt beam="1">  1        1 0.22320639E+00 0.88114926E+03</pdfrwt>
<pdfrwt beam="2">  1       -1 0.17747462E-01 0.88114926E+03</pdfrwt>
<totfact> 0.17822405E+02</totfact>
</mgrwt>
</event>
<event>
 4    1  0.2428650E-005  0.5111178E+03  0.7818608E-02  0.1010917E+00
         -1   -1    0    0    0  501 -0.00000000000E+00  0.00000000000E+00  0.58694576507E+03  0.58694576509E+03  0.50400000000E-02 0. -1.
          1   -1    0    0  501    0  0.00000000000E+00 -0.00000000000E+00 -0.11127153171E+03  0.11127153183E+03  0.50400000000E-02 0.  1.
    5000001    1    1    2    0    0  0.36834897050E+02 -0.19138564539E+03  0.22417109656E+03  0.33979840411E+03  0.16500000000E+03 0.  0.
   -5000001    1    1    2    0    0 -0.36834897050E+02  0.19138564539E+03  0.25150313679E+03  0.35841889280E+03  0.16500000000E+03 0.  0.
<mgrwt>
<rscale>  0 0.51111781E+03</rscale>
<asrwt>0</asrwt>
<pdfrwt beam="1">  1        1 0.15895933E-01 0.51111781E+03</pdfrwt>
<pdfrwt beam="2">  1       -1 0.83849396E-01 0.51111781E+03</pdfrwt>
<totfact> 0.50936005E+02</totfact>
</mgrwt>
</event>
<event>
 4    1  0.2428650E-005  0.5519722E+03  0.7818608E-02  0.1001038E+00
         -1   -1    0    0    0  501 -0.00000000000E+00  0.00000000000E+00  0.42418802470E+03  0.42418802473E+03  0.50400000000E-02 0. -1.
          1   -1    0    0  501    0  0.00000000000E+00 -0.00000000000E+00 -0.17956264838E+03  0.17956264845E+03  0.50400000000E-02 0.  1.
    5000001    1    1    2    0    0  0.11935291020E+03 -0.16151486699E+03  0.22381388211E+03  0.34300120008E+03  0.16500000000E+03 0.  0.
   -5000001    1    1    2    0    0 -0.11935291020E+03  0.16151486699E+03  0.20811494205E+02  0.26074947310E+03  0.16500000000E+03 0.  0.
<mgrwt>
<rscale>  0 0.55197219E+03</rscale>
<asrwt>0</asrwt>
<pdfrwt beam="1">  1        1 0.25651807E-01 0.55197219E+03</pdfrwt>
<pdfrwt beam="2">  1       -1 0.60598288E-01 0.55197219E+03</pdfrwt>
<totfact> 0.52679552E+02</totfact>
</mgrwt>
</event>
<event>
 4    1  0.2428650E-005  0.3828667E+03  0.7818608E-02  0.1049879E+00
         -1   -1    0    0    0  501 -0.00000000000E+00  0.00000000000E+00  0.48423975733E+02  0.48423975995E+02  0.50400000000E-02 0. -1.
          1   -1    0    0  501    0  0.00000000000E+00 -0.00000000000E+00 -0.75678877473E+03  0.75678877474E+03  0.50400000000E-02 0.  1.
    5000001    1    1    2    0    0 -0.96829935334E+02 -0.34817366700E+00 -0.36837862609E+03  0.41509513339E+03  0.16500000000E+03 0.  0.
   -5000001    1    1    2    0    0  0.96829935334E+02  0.34817366700E+00 -0.33998617291E+03  0.39011761735E+03  0.16500000000E+03 0.  0.
<mgrwt>
<rscale>  0 0.38286667E+03</rscale>
<asrwt>0</asrwt>
<pdfrwt beam="1">  1        1 0.10811268E+00 0.38286667E+03</pdfrwt>
<pdfrwt beam="2">  1       -1 0.69177113E-02 0.38286667E+03</pdfrwt>
<totfact> 0.30287463E+03</totfact>
</mgrwt>
</event>
<event>
 4    1  0.2428650E-005  0.6569452E+03  0.7818608E-02  0.9793833E-01
          1   -1    0    0  501    0  0.00000000000E+00  0.00000000000E+00  0.27282173983E+04  0.27282173983E+04  0.50400000000E-02 0.  1.
         -1   -1    0    0    0  501 -0.00000000000E+00 -0.00000000000E+00 -0.39547531900E+02  0.39547532222E+02  0.50400000000E-02 0. -1.
    5000001    1    1    2    0    0 -0.38726360331E+02  0.25779579729E+03  0.86934160437E+03  0.92246313161E+03  0.16500000000E+03 0.  0.
   -5000001    1    1    2    0    0  0.38726360331E+02 -0.25779579729E+03  0.18193282621E+04  0.18453017990E+04  0.16500000000E+03 0.  0.
<mgrwt>
<rscale>  0 0.65694525E+03</rscale>
<asrwt>0</asrwt>
<pdfrwt beam="1">  1        1 0.38974539E+00 0.65694525E+03</pdfrwt>
<pdfrwt beam="2">  1       -1 0.56496467E-02 0.65694525E+03</pdfrwt>
<totfact> 0.20816128E+02</totfact>
</mgrwt>
</event>
<event>
 4    1  0.2428650E-005  0.5642915E+03  0.7818608E-02  0.9982391E-01
          1   -1    0    0  501    0  0.00000000000E+00  0.00000000000E+00  0.51605052726E+02  0.51605052972E+02  0.50400000000E-02 0. -1.
         -1   -1    0    0    0  501 -0.00000000000E+00 -0.00000000000E+00 -0.15426053051E+04  0.15426053051E+04  0.50400000000E-02 0.  1.
    5000001    1    1    2    0    0 -0.96447130738E+02 -0.18859411469E+03 -0.99035214253E+03  0.10261053334E+04  0.16500000000E+03 0.  0.
   -5000001    1    1    2    0    0  0.96447130738E+02  0.18859411469E+03 -0.50064810987E+03  0.56810502465E+03  0.16500000000E+03 0.  0.
<mgrwt>
<rscale>  0 0.56429151E+03</rscale>
<asrwt>0</asrwt>
<pdfrwt beam="1">  1        1 0.73721514E-02 0.56429151E+03</pdfrwt>
<pdfrwt beam="2">  1       -1 0.22037216E+00 0.56429151E+03</pdfrwt>
<totfact> 0.11642888E+02</totfact>
</mgrwt>
</event>
<event>
 4    1  0.2428650E-005  0.3657354E+03  0.7818608E-02  0.1056336E+00
          1   -1    0    0  501    0  0.00000000000E+00  0.00000000000E+00  0.13053274675E+04  0.13053274675E+04  0.50400000000E-02 0.  1.
         -1   -1    0    0    0  501 -0.00000000000E+00 -0.00000000000E+00 -0.25618548859E+02  0.25618549354E+02  0.50400000000E-02 0. -1.
    5000001    1    1    2    0    0 -0.49827224853E+01 -0.77053355768E+02  0.58190837168E+03  0.60975765694E+03  0.16500000000E+03 0.  0.
   -5000001    1    1    2    0    0  0.49827224853E+01  0.77053355768E+02  0.69780054695E+03  0.72118835992E+03  0.16500000000E+03 0.  0.
<mgrwt>
<rscale>  0 0.36573540E+03</rscale>
<asrwt>0</asrwt>
<pdfrwt beam="1">  1        1 0.18647539E+00 0.36573540E+03</pdfrwt>
<pdfrwt beam="2">  1       -1 0.36597921E-02 0.36573540E+03</pdfrwt>
<totfact> 0.31614603E+03</totfact>
</mgrwt>
</event>
<event>
 4    1  0.2428650E-005  0.4764328E+03  0.7818608E-02  0.1020120E+00
          1   -1    0    0  501    0  0.00000000000E+00  0.00000000000E+00  0.18198488472E+03  0.18198488479E+03  0.50400000000E-02 0.  1.
         -1   -1    0    0    0  501 -0.00000000000E+00 -0.00000000000E+00 -0.31182289045E+03  0.31182289049E+03  0.50400000000E-02 0. -1.
    5000001    1    1    2    0    0  0.11463799330E+03  0.11036359185E+03 -0.13209035114E+03  0.26456540360E+03  0.16500000000E+03 0.  0.
   -5000001    1    1    2    0    0 -0.11463799330E+03 -0.11036359185E+03  0.22523454051E+01  0.22924237168E+03  0.16500000000E+03 0.  0.
<mgrwt>
<rscale>  0 0.47643280E+03</rscale>
<asrwt>0</asrwt>
<pdfrwt beam="1">  1        1 0.25997841E-01 0.47643280E+03</pdfrwt>
<pdfrwt beam="2">  1       -1 0.44546127E-01 0.47643280E+03</pdfrwt>
<totfact> 0.92858374E+02</totfact>
</mgrwt>
</event>
<event>
 4    1  0.2428650E-005  0.7206826E+03  0.7818608E-02  0.9682502E-01
          1   -1    0    0  501    0  0.00000000000E+00  0.00000000000E+00  0.83229532466E+03  0.83229532468E+03  0.50400000000E-02 0.  1.
         -1   -1    0    0    0  501 -0.00000000000E+00 -0.00000000000E+00 -0.15600933770E+03  0.15600933778E+03  0.50400000000E-02 0. -1.
    5000001    1    1    2    0    0  0.24380523961E+02  0.22545024262E+03  0.64843883433E+03  0.70648435489E+03  0.16500000000E+03 0.  0.
   -5000001    1    1    2    0    0 -0.24380523961E+02 -0.22545024262E+03  0.27847152637E+02  0.28182030757E+03  0.16500000000E+03 0.  0.
<mgrwt>
<rscale>  0 0.72068257E+03</rscale>
<asrwt>0</asrwt>
<pdfrwt beam="1">  1        1 0.11889934E+00 0.72068257E+03</pdfrwt>
<pdfrwt beam="2">  1       -1 0.22287047E-01 0.72068257E+03</pdfrwt>
<totfact> 0.40167714E+02</totfact>
</mgrwt>
</event>
<event>
 4    1  0.2428650E-005  0.1012266E+04  0.7818608E-02  0.9295193E-01
         -1   -1    0    0    0  501 -0.00000000000E+00  0.00000000000E+00  0.13340553133E+03  0.13340553142E+03  0.50400000000E-02 0. -1.
          1   -1    0    0  501    0  0.00000000000E+00 -0.00000000000E+00 -0.19202415465E+04  0.19202415465E+04  0.50400000000E-02 0.  1.
    5000001    1    1    2    0    0 -0.31401295783E+03 -0.36002137157E+03 -0.83874229726E+03  0.97925132978E+03  0.16500000000E+03 0.  0.
   -5000001    1    1    2    0    0  0.31401295783E+03  0.36002137157E+03 -0.94809371787E+03  0.10743957481E+04  0.16500000000E+03 0.  0.
<mgrwt>
<rscale>  0 0.10122665E+04</rscale>
<asrwt>0</asrwt>
<pdfrwt beam="1">  1        1 0.27432020E+00 0.10122665E+04</pdfrwt>
<pdfrwt beam="2">  1       -1 0.19057934E-01 0.10122665E+04</pdfrwt>
<totfact> 0.93121352E+01</totfact>
</mgrwt>
</event>
<event>
 4    1  0.2428650E-005  0.5020876E+03  0.7818608E-02  0.1013235E+00
          1   -1    0    0  501    0  0.00000000000E+00  0.00000000000E+00  0.84903432369E+03  0.84903432371E+03  0.50400000000E-02 0. -1.
         -1   -1    0    0    0  501 -0.00000000000E+00 -0.00000000000E+00 -0.74229028355E+02  0.74229028526E+02  0.50400000000E-02 0.  1.
    5000001    1    1    2    0    0 -0.17144126893E+03  0.43058777525E+02  0.51146468636E+03  0.56574490047E+03  0.16500000000E+03 0.  0.
   -5000001    1    1    2    0    0  0.17144126893E+03 -0.43058777525E+02  0.26334060898E+03  0.35751845176E+03  0.16500000000E+03 0.  0.
<mgrwt>
<rscale>  0 0.50208761E+03</rscale>
<asrwt>0</asrwt>
<pdfrwt beam="1">  1        1 0.12129061E+00 0.50208761E+03</pdfrwt>
<pdfrwt beam="2">  1       -1 0.10604147E-01 0.50208761E+03</pdfrwt>
<totfact> 0.13102047E+03</totfact>
</mgrwt>
</event>
<event>
 4    1  0.2428650E-005  0.4393332E+03  0.7818608E-02  0.1030952E+00
         -1   -1    0    0    0  501 -0.00000000000E+00  0.00000000000E+00  0.36345834382E+02  0.36345834731E+02  0.50400000000E-02 0. -1.
          1   -1    0    0  501    0  0.00000000000E+00 -0.00000000000E+00 -0.13276187659E+04  0.13276187659E+04  0.50400000000E-02 0.  1.
    5000001    1    1    2    0    0 -0.12077145264E+03  0.53177530913E+02 -0.83229692742E+03  0.85869480548E+03  0.16500000000E+03 0.  0.
   -5000001    1    1    2    0    0  0.12077145264E+03 -0.53177530913E+02 -0.45897600413E+03  0.50526979519E+03  0.16500000000E+03 0.  0.
<mgrwt>
<rscale>  0 0.43933319E+03</rscale>
<asrwt>0</asrwt>
<pdfrwt beam="1">  1        1 0.18965979E+00 0.43933319E+03</pdfrwt>
<pdfrwt beam="2">  1       -1 0.51922629E-02 0.43933319E+03</pdfrwt>
<totfact> 0.18029502E+03</totfact>
</mgrwt>
</event>
<event>
 4    1  0.2428650E-005  0.4883453E+03  0.7818608E-02  0.1016867E+00
          1   -1    0    0  501    0  0.00000000000E+00  0.00000000000E+00  0.20795076322E+04  0.20795076323E+04  0.50400000000E-02 0.  1.
         -1   -1    0    0    0  501 -0.00000000000E+00 -0.00000000000E+00 -0.28670389656E+02  0.28670390099E+02  0.50400000000E-02 0. -1.
    5000001    1    1    2    0    0 -0.46419337228E+02 -0.10767683560E+03  0.16149078146E+04  0.16275445633E+04  0.16500000000E+03 0.  0.
   -5000001    1    1    2    0    0  0.46419337228E+02  0.10767683560E+03  0.43592942797E+03  0.48063345905E+03  0.16500000000E+03 0.  0.
<mgrwt>
<rscale>  0 0.48834535E+03</rscale>
<asrwt>0</asrwt>
<pdfrwt beam="1">  1        1 0.29707258E+00 0.48834535E+03</pdfrwt>
<pdfrwt beam="2">  1       -1 0.40957691E-02 0.48834535E+03</pdfrwt>
<totfact> 0.87239626E+02</totfact>
</mgrwt>
</event>
<event>
 4    1  0.2428650E-005  0.5490842E+03  0.7818608E-02  0.1001706E+00
         -1   -1    0    0    0  501 -0.00000000000E+00  0.00000000000E+00  0.18659627818E+03  0.18659627825E+03  0.50400000000E-02 0. -1.
          1   -1    0    0  501    0  0.00000000000E+00 -0.00000000000E+00 -0.40393823023E+03  0.40393823027E+03  0.50400000000E-02 0.  1.
    5000001    1    1    2    0    0 -0.10985879738E+03  0.16488810058E+03 -0.72589017183E+01  0.25794327425E+03  0.16500000000E+03 0.  0.
   -5000001    1    1    2    0    0  0.10985879738E+03 -0.16488810058E+03 -0.21008305033E+03  0.33259123427E+03  0.16500000000E+03 0.  0.
<mgrwt>
<rscale>  0 0.54908422E+03</rscale>
<asrwt>0</asrwt>
<pdfrwt beam="1">  1        1 0.57705461E-01 0.54908422E+03</pdfrwt>
<pdfrwt beam="2">  1       -1 0.26656611E-01 0.54908422E+03</pdfrwt>
<totfact> 0.82354540E+02</totfact>
</mgrwt>
</event>
<event>
 4    1  0.2428650E-005  0.5078490E+03  0.7818608E-02  0.1011750E+00
          1   -1    0    0  501    0  0.00000000000E+00  0.00000000000E+00  0.91033090961E+03  0.91033090962E+03  0.50400000000E-02 0. -1.
         -1   -1    0    0    0  501 -0.00000000000E+00 -0.00000000000E+00 -0.70828813328E+02  0.70828813508E+02  0.50400000000E-02 0.  1.
    5000001    1    1    2    0    0  0.16695785671E+03  0.95249988028E+02  0.38600076310E+03  0.46170236653E+03  0.16500000000E+03 0.  0.
   -5000001    1    1    2    0    0 -0.16695785671E+03 -0.95249988028E+02  0.45350133317E+03  0.51945735660E+03  0.16500000000E+03 0.  0.
<mgrwt>
<rscale>  0 0.50784903E+03</rscale>
<asrwt>0</asrwt>
<pdfrwt beam="1">  1        1 0.13004726E+00 0.50784903E+03</pdfrwt>
<pdfrwt beam="2">  1       -1 0.10118403E-01 0.50784903E+03</pdfrwt>
<totfact> 0.12624598E+03</totfact>
</mgrwt>
</event>
<event>
 4    1  0.2428650E-005  0.3617726E+03  0.7818608E-02  0.1057884E+00
         -1   -1    0    0    0  501 -0.00000000000E+00  0.00000000000E+00  0.18577681716E+03  0.18577681723E+03  0.50400000000E-02 0. -1.
          1   -1    0    0  501    0  0.00000000000E+00 -0.00000000000E+00 -0.17612451269E+03  0.17612451276E+03  0.50400000000E-02 0.  1.
    5000001    1    1    2    0    0  0.52211733154E+02  0.50968325337E+02  0.17908120299E+02  0.18129957540E+03  0.16500000000E+03 0.  0.
   -5000001    1    1    2    0    0 -0.52211733154E+02 -0.50968325337E+02 -0.82558158246E+01  0.18060175459E+03  0.16500000000E+03 0.  0.
<mgrwt>
<rscale>  0 0.36177259E+03</rscale>
<asrwt>0</asrwt>
<pdfrwt beam="1">  1        1 0.25160645E-01 0.36177259E+03</pdfrwt>
<pdfrwt beam="2">  1       -1 0.26539545E-01 0.36177259E+03</pdfrwt>
<totfact> 0.23993448E+03</totfact>
</mgrwt>
</event>
<event>
 4    1  0.2428650E-005  0.7775524E+03  0.7818608E-02  0.9593090E-01
         -1   -1    0    0    0  501 -0.00000000000E+00  0.00000000000E+00  0.54599143856E+03  0.54599143858E+03  0.50400000000E-02 0. -1.
          1   -1    0    0  501    0  0.00000000000E+00 -0.00000000000E+00 -0.27683019830E+03  0.27683019834E+03  0.50400000000E-02 0.  1.
    5000001    1    1    2    0    0  0.18264208030E+03 -0.27407595295E+03  0.30622753112E+01  0.36838856526E+03  0.16500000000E+03 0.  0.
   -5000001    1    1    2    0    0 -0.18264208030E+03  0.27407595295E+03  0.26609896495E+03  0.45443307167E+03  0.16500000000E+03 0.  0.
<mgrwt>
<rscale>  0 0.77755236E+03</rscale>
<asrwt>0</asrwt>
<pdfrwt beam="1">  1        1 0.39547171E-01 0.77755236E+03</pdfrwt>
<pdfrwt beam="2">  1       -1 0.77998777E-01 0.77755236E+03</pdfrwt>
<totfact> 0.17866262E+02</totfact>
</mgrwt>
</event>
<event>
 4    1  0.2428650E-005  0.4347147E+03  0.7818608E-02  0.1032381E+00
          1   -1    0    0  501    0  0.00000000000E+00  0.00000000000E+00  0.70477937083E+03  0.70477937085E+03  0.50400000000E-02 0.  1.
         -1   -1    0    0    0  501 -0.00000000000E+00 -0.00000000000E+00 -0.67034045811E+02  0.67034046001E+02  0.50400000000E-02 0. -1.
    5000001    1    1    2    0    0 -0.11636940848E+03  0.41707164612E+02  0.44108085451E+03  0.48688668808E+03  0.16500000000E+03 0.  0.
   -5000001    1    1    2    0    0  0.11636940848E+03 -0.41707164612E+02  0.19666447051E+03  0.28492672877E+03  0.16500000000E+03 0.  0.
<mgrwt>
<rscale>  0 0.43471468E+03</rscale>
<asrwt>0</asrwt>
<pdfrwt beam="1">  1        1 0.10068277E+00 0.43471468E+03</pdfrwt>
<pdfrwt beam="2">  1       -1 0.95762920E-02 0.43471468E+03</pdfrwt>
<totfact> 0.20352541E+03</totfact>
</mgrwt>
</event>
<event>
 4    1  0.2428650E-005  0.5049255E+03  0.7818608E-02  0.1012501E+00
         -1   -1    0    0    0  501 -0.00000000000E+00  0.00000000000E+00  0.25863224273E+03  0.25863224278E+03  0.50400000000E-02 0. -1.
          1   -1    0    0  501    0  0.00000000000E+00 -0.00000000000E+00 -0.24644042342E+03  0.24644042347E+03  0.50400000000E-02 0.  1.
    5000001    1    1    2    0    0  0.93782278699E+02 -0.14830539394E+03 -0.69575553146E+02  0.25070971913E+03  0.16500000000E+03 0.  0.
   -5000001    1    1    2    0    0 -0.93782278699E+02  0.14830539394E+03  0.81767372449E+02  0.25436294712E+03  0.16500000000E+03 0.  0.
<mgrwt>
<rscale>  0 0.50492550E+03</rscale>
<asrwt>0</asrwt>
<pdfrwt beam="1">  1        1 0.35205775E-01 0.50492550E+03</pdfrwt>
<pdfrwt beam="2">  1       -1 0.36947463E-01 0.50492550E+03</pdfrwt>
<totfact> 0.88154787E+02</totfact>
</mgrwt>
</event>
<event>
 4    1  0.2428650E-005  0.7921077E+03  0.7818608E-02  0.9571512E-01
          1   -1    0    0  501    0  0.00000000000E+00  0.00000000000E+00  0.10690983382E+04  0.10690983382E+04  0.50400000000E-02 0. -1.
         -1   -1    0    0    0  501 -0.00000000000E+00 -0.00000000000E+00 -0.14672050897E+03  0.14672050905E+03  0.50400000000E-02 0.  1.
    5000001    1    1    2    0    0  0.11141729430E+03 -0.25569875202E+03  0.81065794955E+03  0.87303320465E+03  0.16500000000E+03 0.  0.
   -5000001    1    1    2    0    0 -0.11141729430E+03  0.25569875202E+03  0.11171987966E+03  0.34278564259E+03  0.16500000000E+03 0.  0.
<mgrwt>
<rscale>  0 0.79210770E+03</rscale>
<asrwt>0</asrwt>
<pdfrwt beam="1">  1        1 0.15272833E+00 0.79210770E+03</pdfrwt>
<pdfrwt beam="2">  1       -1 0.20960074E-01 0.79210770E+03</pdfrwt>
<totfact> 0.29229418E+02</totfact>
</mgrwt>
</event>
<event>
 4    1  0.2428650E-005  0.7180924E+03  0.7818608E-02  0.9686782E-01
          1   -1    0    0  501    0  0.00000000000E+00  0.00000000000E+00  0.40215968548E+03  0.40215968552E+03  0.50400000000E-02 0.  1.
         -1   -1    0    0    0  501 -0.00000000000E+00 -0.00000000000E+00 -0.32055471884E+03  0.32055471888E+03  0.50400000000E-02 0. -1.
    5000001    1    1    2    0    0  0.14438097202E+03  0.72723583838E+02 -0.23583868970E+03  0.33012039059E+03  0.16500000000E+03 0.  0.
   -5000001    1    1    2    0    0 -0.14438097202E+03 -0.72723583838E+02  0.31744365634E+03  0.39259401381E+03  0.16500000000E+03 0.  0.
<mgrwt>
<rscale>  0 0.71809243E+03</rscale>
<asrwt>0</asrwt>
<pdfrwt beam="1">  1        1 0.57451384E-01 0.71809243E+03</pdfrwt>
<pdfrwt beam="2">  1       -1 0.45793531E-01 0.71809243E+03</pdfrwt>
<totfact> 0.31517005E+02</totfact>
</mgrwt>
</event>
<event>
 4    1  0.2428650E-005  0.4270427E+03  0.7818608E-02  0.1034798E+00
         -1   -1    0    0    0  501 -0.00000000000E+00  0.00000000000E+00  0.86491538689E+03  0.86491538690E+03  0.50400000000E-02 0. -1.
          1   -1    0    0  501    0  0.00000000000E+00 -0.00000000000E+00 -0.52711948497E+02  0.52711948738E+02  0.50400000000E-02 0.  1.
    5000001    1    1    2    0    0 -0.99198073942E+02  0.92331428087E+02  0.40827716478E+03  0.46073918193E+03  0.16500000000E+03 0.  0.
   -5000001    1    1    2    0    0  0.99198073942E+02 -0.92331428087E+02  0.40392627361E+03  0.45688815371E+03  0.16500000000E+03 0.  0.
<mgrwt>
<rscale>  0 0.42704274E+03</rscale>
<asrwt>0</asrwt>
<pdfrwt beam="1">  1        1 0.75302789E-02 0.42704274E+03</pdfrwt>
<pdfrwt beam="2">  1       -1 0.12355933E+00 0.42704274E+03</pdfrwt>
<totfact> 0.58271561E+02</totfact>
</mgrwt>
</event>
<event>
 4    1  0.2428650E-005  0.4782280E+03  0.7818608E-02  0.1019623E+00
         -1   -1    0    0    0  501 -0.00000000000E+00  0.00000000000E+00  0.16901979565E+02  0.16901980316E+02  0.50400000000E-02 0. -1.
          1   -1    0    0  501    0  0.00000000000E+00 -0.00000000000E+00 -0.33827699564E+04  0.33827699564E+04  0.50400000000E-02 0.  1.
    5000001    1    1    2    0    0 -0.11774984562E+03  0.12675121612E+03 -0.16514511193E+04  0.16686661429E+04  0.16500000000E+03 0.  0.
   -5000001    1    1    2    0    0  0.11774984562E+03 -0.12675121612E+03 -0.17144168575E+04  0.17310057938E+04  0.16500000000E+03 0.  0.
<mgrwt>
<rscale>  0 0.47822802E+03</rscale>
<asrwt>0</asrwt>
<pdfrwt beam="1">  1        1 0.48325242E+00 0.47822802E+03</pdfrwt>
<pdfrwt beam="2">  1       -1 0.24145707E-02 0.47822802E+03</pdfrwt>
<totfact> 0.28855455E+02</totfact>
</mgrwt>
</event>
<event>
 4    1  0.2428650E-005  0.8103936E+03  0.7818608E-02  0.9545094E-01
         -1   -1    0    0    0  501 -0.00000000000E+00  0.00000000000E+00  0.57016110781E+03  0.57016110783E+03  0.50400000000E-02 0. -1.
          1   -1    0    0  501    0  0.00000000000E+00 -0.00000000000E+00 -0.28796147345E+03  0.28796147350E+03  0.50400000000E-02 0.  1.
    5000001    1    1    2    0    0  0.53659557336E+02  0.26130085793E+03 -0.13052704462E+03  0.33973489051E+03  0.16500000000E+03 0.  0.
   -5000001    1    1    2    0    0 -0.53659557336E+02 -0.26130085793E+03  0.41272667898E+03  0.51838769082E+03  0.16500000000E+03 0.  0.
<mgrwt>
<rscale>  0 0.81039357E+03</rscale>
<asrwt>0</asrwt>
<pdfrwt beam="1">  1        1 0.41137353E-01 0.81039357E+03</pdfrwt>
<pdfrwt beam="2">  1       -1 0.81451587E-01 0.81039357E+03</pdfrwt>
<totfact> 0.15462964E+02</totfact>
</mgrwt>
</event>
<event>
 4    1  0.2428650E-005  0.3894012E+03  0.7818608E-02  0.1047513E+00
         -1   -1    0    0    0  501 -0.00000000000E+00  0.00000000000E+00  0.14788192570E+03  0.14788192579E+03  0.50400000000E-02 0. -1.
          1   -1    0    0  501    0  0.00000000000E+00 -0.00000000000E+00 -0.25634176939E+03  0.25634176944E+03  0.50400000000E-02 0.  1.
    5000001    1    1    2    0    0  0.51209618992E+01 -0.68116930457E+02 -0.13475308407E+03  0.22371753202E+03  0.16500000000E+03 0.  0.
   -5000001    1    1    2    0    0 -0.51209618992E+01  0.68116930457E+02  0.26293240383E+02  0.18050616321E+03  0.16500000000E+03 0.  0.
<mgrwt>
<rscale>  0 0.38940115E+03</rscale>
<asrwt>0</asrwt>
<pdfrwt beam="1">  1        1 0.36620253E-01 0.38940115E+03</pdfrwt>
<pdfrwt beam="2">  1       -1 0.21125990E-01 0.38940115E+03</pdfrwt>
<totfact> 0.21775751E+03</totfact>
</mgrwt>
</event>
<event>
 4    1  0.2428650E-005  0.5263474E+03  0.7818608E-02  0.1007122E+00
         -1   -1    0    0    0  501 -0.00000000000E+00  0.00000000000E+00  0.31966058118E+03  0.31966058122E+03  0.50400000000E-02 0. -1.
          1   -1    0    0  501    0  0.00000000000E+00 -0.00000000000E+00 -0.21666858339E+03  0.21666858345E+03  0.50400000000E-02 0.  1.
    5000001    1    1    2    0    0 -0.17378083366E+03 -0.10877760165E+03  0.53278617817E+02  0.26850690100E+03  0.16500000000E+03 0.  0.
   -5000001    1    1    2    0    0  0.17378083366E+03  0.10877760165E+03  0.49713379967E+02  0.26782226367E+03  0.16500000000E+03 0.  0.
<mgrwt>
<rscale>  0 0.52634743E+03</rscale>
<asrwt>0</asrwt>
<pdfrwt beam="1">  1        1 0.30952655E-01 0.52634743E+03</pdfrwt>
<pdfrwt beam="2">  1       -1 0.45665797E-01 0.52634743E+03</pdfrwt>
<totfact> 0.70812948E+02</totfact>
</mgrwt>
</event>
<event>
 4    1  0.2428650E-005  0.7110413E+03  0.7818608E-02  0.9698534E-01
          1   -1    0    0  501    0  0.00000000000E+00  0.00000000000E+00  0.44942101571E+03  0.44942101574E+03  0.50400000000E-02 0.  1.
         -1   -1    0    0    0  501 -0.00000000000E+00 -0.00000000000E+00 -0.28123949286E+03  0.28123949290E+03  0.50400000000E-02 0. -1.
    5000001    1    1    2    0    0 -0.26523742165E+03 -0.16336542825E+03  0.13152486217E+03  0.37624851144E+03  0.16500000000E+03 0.  0.
   -5000001    1    1    2    0    0  0.26523742165E+03  0.16336542825E+03  0.36656660688E+02  0.35441199721E+03  0.16500000000E+03 0.  0.
<mgrwt>
<rscale>  0 0.71104132E+03</rscale>
<asrwt>0</asrwt>
<pdfrwt beam="1">  1        1 0.64203002E-01 0.71104132E+03</pdfrwt>
<pdfrwt beam="2">  1       -1 0.40177070E-01 0.71104132E+03</pdfrwt>
<totfact> 0.34624600E+02</totfact>
</mgrwt>
</event>
<event>
 4    1  0.2428650E-005  0.4398724E+03  0.7818608E-02  0.1030786E+00
         -1   -1    0    0    0  501 -0.00000000000E+00  0.00000000000E+00  0.15542768399E+03  0.15542768407E+03  0.50400000000E-02 0. -1.
          1   -1    0    0  501    0  0.00000000000E+00 -0.00000000000E+00 -0.31121826726E+03  0.31121826730E+03  0.50400000000E-02 0.  1.
    5000001    1    1    2    0    0  0.89267394048E+01  0.14492222673E+03 -0.69355740795E+02  0.23047203140E+03  0.16500000000E+03 0.  0.
   -5000001    1    1    2    0    0 -0.89267394048E+01 -0.14492222673E+03 -0.86434842474E+02  0.23617391996E+03  0.16500000000E+03 0.  0.
<mgrwt>
<rscale>  0 0.43987241E+03</rscale>
<asrwt>0</asrwt>
<pdfrwt beam="1">  1        1 0.44459752E-01 0.43987241E+03</pdfrwt>
<pdfrwt beam="2">  1       -1 0.22203955E-01 0.43987241E+03</pdfrwt>
<totfact> 0.15684341E+03</totfact>
</mgrwt>
</event>
<event>
 4    1  0.2428650E-005  0.4583441E+03  0.7818608E-02  0.1025263E+00
         -1   -1    0    0    0  501 -0.00000000000E+00  0.00000000000E+00  0.70361660654E+02  0.70361660834E+02  0.50400000000E-02 0. -1.
          1   -1    0    0  501    0  0.00000000000E+00 -0.00000000000E+00 -0.74642669851E+03  0.74642669853E+03  0.50400000000E-02 0.  1.
    5000001    1    1    2    0    0  0.15316187527E+03  0.32055818150E+02 -0.38870918699E+03  0.45033983564E+03  0.16500000000E+03 0.  0.
   -5000001    1    1    2    0    0 -0.15316187527E+03 -0.32055818150E+02 -0.28735585087E+03  0.36644852373E+03  0.16500000000E+03 0.  0.
<mgrwt>
<rscale>  0 0.45834407E+03</rscale>
<asrwt>0</asrwt>
<pdfrwt beam="1">  1        1 0.10663238E+00 0.45834407E+03</pdfrwt>
<pdfrwt beam="2">  1       -1 0.10051666E-01 0.45834407E+03</pdfrwt>
<totfact> 0.17344144E+03</totfact>
</mgrwt>
</event>
<event>
 4    1  0.2428650E-005  0.4796888E+03  0.7818608E-02  0.1019221E+00
          1   -1    0    0  501    0  0.00000000000E+00  0.00000000000E+00  0.20251410505E+03  0.20251410512E+03  0.50400000000E-02 0.  1.
         -1   -1    0    0    0  501 -0.00000000000E+00 -0.00000000000E+00 -0.28405591663E+03  0.28405591667E+03  0.50400000000E-02 0. -1.
    5000001    1    1    2    0    0  0.11015869950E+03 -0.13459228188E+03 -0.47965492132E+02  0.24449071527E+03  0.16500000000E+03 0.  0.
   -5000001    1    1    2    0    0 -0.11015869950E+03  0.13459228188E+03 -0.33576319441E+02  0.24207930652E+03  0.16500000000E+03 0.  0.
<mgrwt>
<rscale>  0 0.47968877E+03</rscale>
<asrwt>0</asrwt>
<pdfrwt beam="1">  1        1 0.28930586E-01 0.47968877E+03</pdfrwt>
<pdfrwt beam="2">  1       -1 0.40579417E-01 0.47968877E+03</pdfrwt>
<totfact> 0.95875619E+02</totfact>
</mgrwt>
</event>
<event>
 4    1  0.2428650E-005  0.4491349E+03  0.7818608E-02  0.1027980E+00
         -1   -1    0    0    0  501 -0.00000000000E+00  0.00000000000E+00  0.49709346077E+02  0.49709346332E+02  0.50400000000E-02 0.  1.
          1   -1    0    0  501    0  0.00000000000E+00 -0.00000000000E+00 -0.10145083703E+04  0.10145083703E+04  0.50400000000E-02 0. -1.
    5000001    1    1    2    0    0 -0.10083051835E+03  0.98550700468E+02 -0.61906168215E+03  0.65600411607E+03  0.16500000000E+03 0.  0.
   -5000001    1    1    2    0    0  0.10083051835E+03 -0.98550700468E+02 -0.34573734210E+03  0.40821360060E+03  0.16500000000E+03 0.  0.
<mgrwt>
<rscale>  0 0.44913494E+03</rscale>
<asrwt>0</asrwt>
<pdfrwt beam="1">  1        1 0.14492975E+00 0.44913494E+03</pdfrwt>
<pdfrwt beam="2">  1       -1 0.71013358E-02 0.44913494E+03</pdfrwt>
<totfact> 0.18317303E+03</totfact>
</mgrwt>
</event>
<event>
 4    1  0.2428650E-005  0.4293026E+03  0.7818608E-02  0.1034081E+00
          1   -1    0    0  501    0  0.00000000000E+00  0.00000000000E+00  0.16991904745E+04  0.16991904745E+04  0.50400000000E-02 0.  1.
         -1   -1    0    0    0  501 -0.00000000000E+00 -0.00000000000E+00 -0.27115954896E+02  0.27115955364E+02  0.50400000000E-02 0. -1.
    5000001    1    1    2    0    0 -0.20575576333E+02  0.13363879676E+03  0.93183023059E+03  0.95593684989E+03  0.16500000000E+03 0.  0.
   -5000001    1    1    2    0    0  0.20575576333E+02 -0.13363879676E+03  0.74024428904E+03  0.77036958000E+03  0.16500000000E+03 0.  0.
<mgrwt>
<rscale>  0 0.42930256E+03</rscale>
<asrwt>0</asrwt>
<pdfrwt beam="1">  1        1 0.24274157E+00 0.42930256E+03</pdfrwt>
<pdfrwt beam="2">  1       -1 0.38737067E-02 0.42930256E+03</pdfrwt>
<totfact> 0.16316449E+03</totfact>
</mgrwt>
</event>
<event>
 4    1  0.2428650E-005  0.4921657E+03  0.7818608E-02  0.1015844E+00
          1   -1    0    0  501    0  0.00000000000E+00  0.00000000000E+00  0.15535622033E+03  0.15535622041E+03  0.50400000000E-02 0.  1.
         -1   -1    0    0    0  501 -0.00000000000E+00 -0.00000000000E+00 -0.38979303873E+03  0.38979303876E+03  0.50400000000E-02 0. -1.
    5000001    1    1    2    0    0 -0.29151693631E+02 -0.16788380665E+03 -0.44610203156E+02  0.24135008598E+03  0.16500000000E+03 0.  0.
   -5000001    1    1    2    0    0  0.29151693631E+02  0.16788380665E+03 -0.18982661524E+03  0.30379917319E+03  0.16500000000E+03 0.  0.
<mgrwt>
<rscale>  0 0.49216572E+03</rscale>
<asrwt>0</asrwt>
<pdfrwt beam="1">  1        1 0.22193746E-01 0.49216572E+03</pdfrwt>
<pdfrwt beam="2">  1       -1 0.55684719E-01 0.49216572E+03</pdfrwt>
<totfact> 0.75024412E+02</totfact>
</mgrwt>
</event>
<event>
 4    1  0.2428650E-005  0.4051474E+03  0.7818608E-02  0.1042012E+00
         -1   -1    0    0    0  501 -0.00000000000E+00  0.00000000000E+00  0.61749594238E+03  0.61749594240E+03  0.50400000000E-02 0. -1.
          1   -1    0    0  501    0  0.00000000000E+00 -0.00000000000E+00 -0.66455669804E+02  0.66455669995E+02  0.50400000000E-02 0.  1.
    5000001    1    1    2    0    0  0.22265004712E+02  0.11040860262E+03  0.21888973200E+03  0.29635030748E+03  0.16500000000E+03 0.  0.
   -5000001    1    1    2    0    0 -0.22265004712E+02 -0.11040860262E+03  0.33215054057E+03  0.38760130491E+03  0.16500000000E+03 0.  0.
<mgrwt>
<rscale>  0 0.40514741E+03</rscale>
<asrwt>0</asrwt>
<pdfrwt beam="1">  1        1 0.94936668E-02 0.40514741E+03</pdfrwt>
<pdfrwt beam="2">  1       -1 0.88213709E-01 0.40514741E+03</pdfrwt>
<totfact> 0.91662198E+02</totfact>
</mgrwt>
</event>
<event>
 4    1  0.2428650E-005  0.5378554E+03  0.7818608E-02  0.1004345E+00
          1   -1    0    0  501    0  0.00000000000E+00  0.00000000000E+00  0.72086493464E+03  0.72086493466E+03  0.50400000000E-02 0. -1.
         -1   -1    0    0    0  501 -0.00000000000E+00 -0.00000000000E+00 -0.10032685812E+03  0.10032685824E+03  0.50400000000E-02 0.  1.
    5000001    1    1    2    0    0 -0.14080023524E+03 -0.10750231371E+03  0.48907722938E+03  0.54571328552E+03  0.16500000000E+03 0.  0.
   -5000001    1    1    2    0    0  0.14080023524E+03  0.10750231371E+03  0.13146084714E+03  0.27547850738E+03  0.16500000000E+03 0.  0.
<mgrwt>
<rscale>  0 0.53785542E+03</rscale>
<asrwt>0</asrwt>
<pdfrwt beam="1">  1        1 0.10298071E+00 0.53785542E+03</pdfrwt>
<pdfrwt beam="2">  1       -1 0.14332408E-01 0.53785542E+03</pdfrwt>
<totfact> 0.10387659E+03</totfact>
</mgrwt>
</event>
<event>
 4    1  0.2428650E-005  0.4456536E+03  0.7818608E-02  0.1029026E+00
          1   -1    0    0  501    0  0.00000000000E+00  0.00000000000E+00  0.85048073709E+02  0.85048073858E+02  0.50400000000E-02 0.  1.
         -1   -1    0    0    0  501 -0.00000000000E+00 -0.00000000000E+00 -0.58380831726E+03  0.58380831728E+03  0.50400000000E-02 0. -1.
    5000001    1    1    2    0    0  0.13718821175E+03  0.12646099406E+02 -0.33748673163E+03  0.40012850848E+03  0.16500000000E+03 0.  0.
   -5000001    1    1    2    0    0 -0.13718821175E+03 -0.12646099406E+02 -0.16127351192E+03  0.26872788266E+03  0.16500000000E+03 0.  0.
<mgrwt>
<rscale>  0 0.44565356E+03</rscale>
<asrwt>0</asrwt>
<pdfrwt beam="1">  1        1 0.12149725E-01 0.44565356E+03</pdfrwt>
<pdfrwt beam="2">  1       -1 0.83401186E-01 0.44565356E+03</pdfrwt>
<totfact> 0.73946750E+02</totfact>
</mgrwt>
</event>
<event>
 4    1  0.2428650E-005  0.5576701E+03  0.7818608E-02  0.9997340E-01
         -1   -1    0    0    0  501 -0.00000000000E+00  0.00000000000E+00  0.16663373937E+03  0.16663373944E+03  0.50400000000E-02 0. -1.
          1   -1    0    0  501    0  0.00000000000E+00 -0.00000000000E+00 -0.46658609448E+03  0.46658609451E+03  0.50400000000E-02 0.  1.
    5000001    1    1    2    0    0 -0.22312372089E+03 -0.29806627777E+01 -0.11927832006E+03  0.30206852999E+03  0.16500000000E+03 0.  0.
   -5000001    1    1    2    0    0  0.22312372089E+03  0.29806627777E+01 -0.18067403506E+03  0.33115130396E+03  0.16500000000E+03 0.  0.
<mgrwt>
<rscale>  0 0.55767010E+03</rscale>
<asrwt>0</asrwt>
<pdfrwt beam="1">  1        1 0.66655156E-01 0.55767010E+03</pdfrwt>
<pdfrwt beam="2">  1       -1 0.23804820E-01 0.55767010E+03</pdfrwt>
<totfact> 0.82517672E+02</totfact>
</mgrwt>
</event>
<event>
 4    1  0.2428650E-005  0.4807306E+03  0.7818608E-02  0.1018935E+00
          1   -1    0    0  501    0  0.00000000000E+00  0.00000000000E+00  0.43178103996E+03  0.43178103999E+03  0.50400000000E-02 0.  1.
         -1   -1    0    0    0  501 -0.00000000000E+00 -0.00000000000E+00 -0.13380735114E+03  0.13380735124E+03  0.50400000000E-02 0. -1.
    5000001    1    1    2    0    0  0.62754424315E+02 -0.41680221309E+02  0.33454553568E+03  0.38055364151E+03  0.16500000000E+03 0.  0.
   -5000001    1    1    2    0    0 -0.62754424315E+02  0.41680221309E+02 -0.36571846870E+02  0.18503474972E+03  0.16500000000E+03 0.  0.
<mgrwt>
<rscale>  0 0.48073060E+03</rscale>
<asrwt>0</asrwt>
<pdfrwt beam="1">  1        1 0.61683006E-01 0.48073060E+03</pdfrwt>
<pdfrwt beam="2">  1       -1 0.19115336E-01 0.48073060E+03</pdfrwt>
<totfact> 0.13175348E+03</totfact>
</mgrwt>
</event>
<event>
 4    1  0.2428650E-005  0.4360957E+03  0.7818608E-02  0.1031951E+00
         -1   -1    0    0    0  501 -0.00000000000E+00  0.00000000000E+00  0.74653462930E+02  0.74653463100E+02  0.50400000000E-02 0. -1.
          1   -1    0    0  501    0  0.00000000000E+00 -0.00000000000E+00 -0.63687426608E+03  0.63687426610E+03  0.50400000000E-02 0.  1.
    5000001    1    1    2    0    0  0.11522343162E+03  0.71129242317E+02 -0.35378581880E+03  0.41318907765E+03  0.16500000000E+03 0.  0.
   -5000001    1    1    2    0    0 -0.11522343162E+03 -0.71129242317E+02 -0.20843498435E+03  0.29833865155E+03  0.16500000000E+03 0.  0.
<mgrwt>
<rscale>  0 0.43609572E+03</rscale>
<asrwt>0</asrwt>
<pdfrwt beam="1">  1        1 0.90982035E-01 0.43609572E+03</pdfrwt>
<pdfrwt beam="2">  1       -1 0.10664781E-01 0.43609572E+03</pdfrwt>
<totfact> 0.19872853E+03</totfact>
</mgrwt>
</event>
<event>
 4    1  0.2428650E-005  0.9349630E+03  0.7818608E-02  0.9382901E-01
          1   -1    0    0  501    0  0.00000000000E+00  0.00000000000E+00  0.20536704160E+03  0.20536704166E+03  0.50400000000E-02 0.  1.
         -1   -1    0    0    0  501 -0.00000000000E+00 -0.00000000000E+00 -0.10641383110E+04  0.10641383110E+04  0.50400000000E-02 0. -1.
    5000001    1    1    2    0    0  0.27411971732E+03 -0.28930565988E+03 -0.18469817304E+03  0.46923107249E+03  0.16500000000E+03 0.  0.
   -5000001    1    1    2    0    0 -0.27411971732E+03  0.28930565988E+03 -0.67407309634E+03  0.80027428015E+03  0.16500000000E+03 0.  0.
<mgrwt>
<rscale>  0 0.93496297E+03</rscale>
<asrwt>0</asrwt>
<pdfrwt beam="1">  1        1 0.29338149E-01 0.93496297E+03</pdfrwt>
<pdfrwt beam="2">  1       -1 0.15201976E+00 0.93496297E+03</pdfrwt>
<totfact> 0.53631815E+01</totfact>
</mgrwt>
</event>
<event>
 4    1  0.2428650E-005  0.4023342E+03  0.7818608E-02  0.1042974E+00
         -1   -1    0    0    0  501 -0.00000000000E+00  0.00000000000E+00  0.88188821745E+02  0.88188821889E+02  0.50400000000E-02 0.  1.
          1   -1    0    0  501    0  0.00000000000E+00 -0.00000000000E+00 -0.45888128740E+03  0.45888128743E+03  0.50400000000E-02 0. -1.
    5000001    1    1    2    0    0  0.10188212309E+03 -0.36284207256E+02 -0.23882207113E+03  0.30977006369E+03  0.16500000000E+03 0.  0.
   -5000001    1    1    2    0    0 -0.10188212309E+03  0.36284207256E+02 -0.13187039453E+03  0.23730004563E+03  0.16500000000E+03 0.  0.
<mgrwt>
<rscale>  0 0.40233419E+03</rscale>
<asrwt>0</asrwt>
<pdfrwt beam="1">  1        1 0.65554468E-01 0.40233419E+03</pdfrwt>
<pdfrwt beam="2">  1       -1 0.12598403E-01 0.40233419E+03</pdfrwt>
<totfact> 0.23799342E+03</totfact>
</mgrwt>
</event>
<event>
 4    1  0.2428650E-005  0.6895561E+03  0.7818608E-02  0.9735261E-01
         -1   -1    0    0    0  501 -0.00000000000E+00  0.00000000000E+00  0.29823780330E+03  0.29823780334E+03  0.50400000000E-02 0. -1.
          1   -1    0    0  501    0  0.00000000000E+00 -0.00000000000E+00 -0.39858098369E+03  0.39858098372E+03  0.50400000000E-02 0.  1.
    5000001    1    1    2    0    0 -0.57378144539E+02  0.24341284011E+03 -0.22256987515E+03  0.37323506202E+03  0.16500000000E+03 0.  0.
   -5000001    1    1    2    0    0  0.57378144539E+02 -0.24341284011E+03  0.12222669476E+03  0.32358372504E+03  0.16500000000E+03 0.  0.
<mgrwt>
<rscale>  0 0.68955614E+03</rscale>
<asrwt>0</asrwt>
<pdfrwt beam="1">  1        1 0.56940140E-01 0.68955614E+03</pdfrwt>
<pdfrwt beam="2">  1       -1 0.42605401E-01 0.68955614E+03</pdfrwt>
<totfact> 0.36475475E+02</totfact>
</mgrwt>
</event>
<event>
 4    1  0.2428650E-005  0.6933528E+03  0.7818608E-02  0.9728668E-01
         -1   -1    0    0    0  501 -0.00000000000E+00  0.00000000000E+00  0.26180980342E+03  0.26180980347E+03  0.50400000000E-02 0. -1.
          1   -1    0    0  501    0  0.00000000000E+00 -0.00000000000E+00 -0.45905283677E+03  0.45905283679E+03  0.50400000000E-02 0.  1.
    5000001    1    1    2    0    0  0.21752967975E+02  0.16048849650E+03 -0.36719188296E+03  0.43391776644E+03  0.16500000000E+03 0.  0.
   -5000001    1    1    2    0    0 -0.21752967975E+02 -0.16048849650E+03  0.16994884962E+03  0.28694487382E+03  0.16500000000E+03 0.  0.
<mgrwt>
<rscale>  0 0.69335282E+03</rscale>
<asrwt>0</asrwt>
<pdfrwt beam="1">  1        1 0.65578977E-01 0.69335282E+03</pdfrwt>
<pdfrwt beam="2">  1       -1 0.37401401E-01 0.69335282E+03</pdfrwt>
<totfact> 0.38331496E+02</totfact>
</mgrwt>
</event>
<event>
 4    1  0.2428650E-005  0.6438419E+03  0.7818608E-02  0.9818404E-01
         -1   -1    0    0    0  501 -0.00000000000E+00  0.00000000000E+00  0.82968164026E+03  0.82968164028E+03  0.50400000000E-02 0. -1.
          1   -1    0    0  501    0  0.00000000000E+00 -0.00000000000E+00 -0.12490706113E+03  0.12490706123E+03  0.50400000000E-02 0.  1.
    5000001    1    1    2    0    0  0.12894560146E+02  0.24833897018E+03  0.17342538239E+03  0.34516644832E+03  0.16500000000E+03 0.  0.
   -5000001    1    1    2    0    0 -0.12894560146E+02 -0.24833897018E+03  0.53134919675E+03  0.60942225319E+03  0.16500000000E+03 0.  0.
<mgrwt>
<rscale>  0 0.64384189E+03</rscale>
<asrwt>0</asrwt>
<pdfrwt beam="1">  1        1 0.17843866E-01 0.64384189E+03</pdfrwt>
<pdfrwt beam="2">  1       -1 0.11852594E+00 0.64384189E+03</pdfrwt>
<totfact> 0.19830121E+02</totfact>
</mgrwt>
</event>
<event>
 4    1  0.2428650E-005  0.4549036E+03  0.7818608E-02  0.1026270E+00
         -1   -1    0    0    0  501 -0.00000000000E+00  0.00000000000E+00  0.24745957215E+03  0.24745957220E+03  0.50400000000E-02 0. -1.
          1   -1    0    0  501    0  0.00000000000E+00 -0.00000000000E+00 -0.20906171672E+03  0.20906171678E+03  0.50400000000E-02 0.  1.
    5000001    1    1    2    0    0  0.10659334561E+03  0.20665076697E+01  0.13424914444E+03  0.23793748037E+03  0.16500000000E+03 0.  0.
   -5000001    1    1    2    0    0 -0.10659334561E+03 -0.20665076697E+01 -0.95851289009E+02  0.21858380861E+03  0.16500000000E+03 0.  0.
<mgrwt>
<rscale>  0 0.45490361E+03</rscale>
<asrwt>0</asrwt>
<pdfrwt beam="1">  1        1 0.29865960E-01 0.45490361E+03</pdfrwt>
<pdfrwt beam="2">  1       -1 0.35351367E-01 0.45490361E+03</pdfrwt>
<totfact> 0.11770735E+03</totfact>
</mgrwt>
</event>
<event>
 4    1  0.2428650E-005  0.5566794E+03  0.7818608E-02  0.9999596E-01
          1   -1    0    0  501    0  0.00000000000E+00  0.00000000000E+00  0.10745969342E+04  0.10745969342E+04  0.50400000000E-02 0.  1.
         -1   -1    0    0    0  501 -0.00000000000E+00 -0.00000000000E+00 -0.72094932835E+02  0.72094933012E+02  0.50400000000E-02 0. -1.
    5000001    1    1    2    0    0  0.14958527731E+03  0.15959374324E+03  0.40029435235E+03  0.48508399952E+03  0.16500000000E+03 0.  0.
   -5000001    1    1    2    0    0 -0.14958527731E+03 -0.15959374324E+03  0.60220764898E+03  0.66160786766E+03  0.16500000000E+03 0.  0.
<mgrwt>
<rscale>  0 0.55667942E+03</rscale>
<asrwt>0</asrwt>
<pdfrwt beam="1">  1        1 0.15351386E+00 0.55667942E+03</pdfrwt>
<pdfrwt beam="2">  1       -1 0.10299275E-01 0.55667942E+03</pdfrwt>
<totfact> 0.92675436E+02</totfact>
</mgrwt>
</event>
<event>
 4    1  0.2428650E-005  0.4778585E+03  0.7818608E-02  0.1019725E+00
          1   -1    0    0  501    0  0.00000000000E+00  0.00000000000E+00  0.18752798025E+04  0.18752798025E+04  0.50400000000E-02 0.  1.
         -1   -1    0    0    0  501 -0.00000000000E+00 -0.00000000000E+00 -0.30441960861E+02  0.30441961278E+02  0.50400000000E-02 0. -1.
    5000001    1    1    2    0    0  0.15635107846E+02 -0.16211674571E+03  0.69208039235E+03  0.72988119945E+03  0.16500000000E+03 0.  0.
   -5000001    1    1    2    0    0 -0.15635107846E+02  0.16211674571E+03  0.11527574492E+04  0.11758405643E+04  0.16500000000E+03 0.  0.
<mgrwt>
<rscale>  0 0.47785853E+03</rscale>
<asrwt>0</asrwt>
<pdfrwt beam="1">  1        1 0.26789706E+00 0.47785853E+03</pdfrwt>
<pdfrwt beam="2">  1       -1 0.43488524E-02 0.47785853E+03</pdfrwt>
<totfact> 0.10641992E+03</totfact>
</mgrwt>
</event>
<event>
 4    1  0.2428650E-005  0.4235971E+03  0.7818608E-02  0.1035902E+00
          1   -1    0    0  501    0  0.00000000000E+00  0.00000000000E+00  0.20590827813E+03  0.20590827820E+03  0.50400000000E-02 0.  1.
         -1   -1    0    0    0  501 -0.00000000000E+00 -0.00000000000E+00 -0.21785735562E+03  0.21785735568E+03  0.50400000000E-02 0. -1.
    5000001    1    1    2    0    0 -0.97023512181E+02 -0.75249699671E+02  0.44617841033E+02  0.21045624475E+03  0.16500000000E+03 0.  0.
   -5000001    1    1    2    0    0  0.97023512181E+02  0.75249699671E+02 -0.56566918518E+02  0.21330938912E+03  0.16500000000E+03 0.  0.
<mgrwt>
<rscale>  0 0.42359713E+03</rscale>
<asrwt>0</asrwt>
<pdfrwt beam="1">  1        1 0.29415468E-01 0.42359713E+03</pdfrwt>
<pdfrwt beam="2">  1       -1 0.31122479E-01 0.42359713E+03</pdfrwt>
<totfact> 0.14988203E+03</totfact>
</mgrwt>
</event>
<event>
 4    1  0.2428650E-005  0.4958482E+03  0.7818608E-02  0.1014868E+00
         -1   -1    0    0    0  501 -0.00000000000E+00  0.00000000000E+00  0.35064263609E+03  0.35064263612E+03  0.50400000000E-02 0.  1.
          1   -1    0    0  501    0  0.00000000000E+00 -0.00000000000E+00 -0.17529633260E+03  0.17529633267E+03  0.50400000000E-02 0. -1.
    5000001    1    1    2    0    0 -0.12971408580E+03  0.12286408391E+03  0.36583327342E+02  0.24593630681E+03  0.16500000000E+03 0.  0.
   -5000001    1    1    2    0    0  0.12971408580E+03 -0.12286408391E+03  0.13876297615E+03  0.28000266198E+03  0.16500000000E+03 0.  0.
<mgrwt>
<rscale>  0 0.49584824E+03</rscale>
<asrwt>0</asrwt>
<pdfrwt beam="1">  1        1 0.25042333E-01 0.49584824E+03</pdfrwt>
<pdfrwt beam="2">  1       -1 0.50091805E-01 0.49584824E+03</pdfrwt>
<totfact> 0.78387550E+02</totfact>
</mgrwt>
</event>
<event>
 4    1  0.2428650E-005  0.7612117E+03  0.7818608E-02  0.9617923E-01
         -1   -1    0    0    0  501 -0.00000000000E+00  0.00000000000E+00  0.43715323494E+03  0.43715323497E+03  0.50400000000E-02 0. -1.
          1   -1    0    0  501    0  0.00000000000E+00 -0.00000000000E+00 -0.33137303653E+03  0.33137303657E+03  0.50400000000E-02 0.  1.
    5000001    1    1    2    0    0 -0.16412597380E+03 -0.30114481304E+03  0.49656004448E+02  0.38381799395E+03  0.16500000000E+03 0.  0.
   -5000001    1    1    2    0    0  0.16412597380E+03  0.30114481304E+03  0.56124193963E+02  0.38470827759E+03  0.16500000000E+03 0.  0.
<mgrwt>
<rscale>  0 0.76121165E+03</rscale>
<asrwt>0</asrwt>
<pdfrwt beam="1">  1        1 0.47339005E-01 0.76121165E+03</pdfrwt>
<pdfrwt beam="2">  1       -1 0.62450462E-01 0.76121165E+03</pdfrwt>
<totfact> 0.22322149E+02</totfact>
</mgrwt>
</event>
<event>
 4    1  0.2428650E-005  0.5265093E+03  0.7818608E-02  0.1007082E+00
         -1   -1    0    0    0  501 -0.00000000000E+00  0.00000000000E+00  0.31620068014E+03  0.31620068018E+03  0.50400000000E-02 0. -1.
          1   -1    0    0  501    0  0.00000000000E+00 -0.00000000000E+00 -0.21917410480E+03  0.21917410486E+03  0.50400000000E-02 0.  1.
    5000001    1    1    2    0    0 -0.16837125484E+03  0.10768789521E+03  0.15573859599E+01  0.25917752156E+03  0.16500000000E+03 0.  0.
   -5000001    1    1    2    0    0  0.16837125484E+03 -0.10768789521E+03  0.95469189378E+02  0.27619726348E+03  0.16500000000E+03 0.  0.
<mgrwt>
<rscale>  0 0.52650926E+03</rscale>
<asrwt>0</asrwt>
<pdfrwt beam="1">  1        1 0.31310587E-01 0.52650926E+03</pdfrwt>
<pdfrwt beam="2">  1       -1 0.45171525E-01 0.52650926E+03</pdfrwt>
<totfact> 0.71189010E+02</totfact>
</mgrwt>
</event>
<event>
 4    1  0.2428650E-005  0.1269086E+04  0.7818608E-02  0.9054446E-01
         -1   -1    0    0    0  501 -0.00000000000E+00  0.00000000000E+00  0.37452228754E+03  0.37452228757E+03  0.50400000000E-02 0. -1.
          1   -1    0    0  501    0  0.00000000000E+00 -0.00000000000E+00 -0.10750884346E+04  0.10750884347E+04  0.50400000000E-02 0.  1.
    5000001    1    1    2    0    0  0.60677574249E+03  0.16965804098E+02 -0.25502382470E+03  0.67876858454E+03  0.16500000000E+03 0.  0.
   -5000001    1    1    2    0    0 -0.60677574249E+03 -0.16965804098E+02 -0.44554232241E+03  0.77084213769E+03  0.16500000000E+03 0.  0.
<mgrwt>
<rscale>  0 0.12690856E+04</rscale>
<asrwt>0</asrwt>
<pdfrwt beam="1">  1        1 0.15358406E+00 0.12690856E+04</pdfrwt>
<pdfrwt beam="2">  1       -1 0.53503184E-01 0.12690856E+04</pdfrwt>
<totfact> 0.52736794E+01</totfact>
</mgrwt>
</event>
<event>
 4    1  0.2428650E-005  0.3889162E+03  0.7818608E-02  0.1047687E+00
         -1   -1    0    0    0  501 -0.00000000000E+00  0.00000000000E+00  0.98322127330E+02  0.98322127460E+02  0.50400000000E-02 0.  1.
          1   -1    0    0  501    0  0.00000000000E+00 -0.00000000000E+00 -0.38459249476E+03  0.38459249479E+03  0.50400000000E-02 0. -1.
    5000001    1    1    2    0    0 -0.88305408906E+02  0.21797146474E+02 -0.20289135994E+03  0.27688059660E+03  0.16500000000E+03 0.  0.
   -5000001    1    1    2    0    0  0.88305408906E+02 -0.21797146474E+02 -0.83379007493E+02  0.20603402565E+03  0.16500000000E+03 0.  0.
<mgrwt>
<rscale>  0 0.38891620E+03</rscale>
<asrwt>0</asrwt>
<pdfrwt beam="1">  1        1 0.54941784E-01 0.38891620E+03</pdfrwt>
<pdfrwt beam="2">  1       -1 0.14046018E-01 0.38891620E+03</pdfrwt>
<totfact> 0.25164710E+03</totfact>
</mgrwt>
</event>
<event>
 4    1  0.2428650E-005  0.4061551E+03  0.7818608E-02  0.1041669E+00
          1   -1    0    0  501    0  0.00000000000E+00  0.00000000000E+00  0.23685923130E+03  0.23685923135E+03  0.50400000000E-02 0.  1.
         -1   -1    0    0    0  501 -0.00000000000E+00 -0.00000000000E+00 -0.17411390102E+03  0.17411390110E+03  0.50400000000E-02 0. -1.
    5000001    1    1    2    0    0 -0.11248565073E+03  0.29477828031E+02  0.53851525573E+02  0.20891852664E+03  0.16500000000E+03 0.  0.
   -5000001    1    1    2    0    0  0.11248565073E+03 -0.29477828031E+02  0.88938046990E+01  0.20205460581E+03  0.16500000000E+03 0.  0.
<mgrwt>
<rscale>  0 0.40615507E+03</rscale>
<asrwt>0</asrwt>
<pdfrwt beam="1">  1        1 0.33837033E-01 0.40615507E+03</pdfrwt>
<pdfrwt beam="2">  1       -1 0.24873415E-01 0.40615507E+03</pdfrwt>
<totfact> 0.18357441E+03</totfact>
</mgrwt>
</event>
<event>
 4    1  0.2428650E-005  0.4191272E+03  0.7818608E-02  0.1037351E+00
         -1   -1    0    0    0  501 -0.00000000000E+00  0.00000000000E+00  0.81801285920E+02  0.81801286076E+02  0.50400000000E-02 0. -1.
          1   -1    0    0  501    0  0.00000000000E+00 -0.00000000000E+00 -0.53687299772E+03  0.53687299774E+03  0.50400000000E-02 0.  1.
    5000001    1    1    2    0    0  0.18488677419E+02 -0.11521770310E+03 -0.30938899630E+03  0.36954499230E+03  0.16500000000E+03 0.  0.
   -5000001    1    1    2    0    0 -0.18488677419E+02  0.11521770310E+03 -0.14568271550E+03  0.24912929152E+03  0.16500000000E+03 0.  0.
<mgrwt>
<rscale>  0 0.41912720E+03</rscale>
<asrwt>0</asrwt>
<pdfrwt beam="1">  1        1 0.76696141E-01 0.41912720E+03</pdfrwt>
<pdfrwt beam="2">  1       -1 0.11685898E-01 0.41912720E+03</pdfrwt>
<totfact> 0.21765119E+03</totfact>
</mgrwt>
</event>
<event>
 4    1  0.2428650E-005  0.5182115E+03  0.7818608E-02  0.1009132E+00
          1   -1    0    0  501    0  0.00000000000E+00  0.00000000000E+00  0.55505501341E+02  0.55505501570E+02  0.50400000000E-02 0. -1.
         -1   -1    0    0    0  501 -0.00000000000E+00 -0.00000000000E+00 -0.12095337644E+04  0.12095337644E+04  0.50400000000E-02 0.  1.
    5000001    1    1    2    0    0 -0.10876798940E+03 -0.46823330467E+02 -0.96979038775E+03  0.99082859061E+03  0.16500000000E+03 0.  0.
   -5000001    1    1    2    0    0  0.10876798940E+03  0.46823330467E+02 -0.18423787534E+03  0.27421067540E+03  0.16500000000E+03 0.  0.
<mgrwt>
<rscale>  0 0.51821146E+03</rscale>
<asrwt>0</asrwt>
<pdfrwt beam="1">  1        1 0.79293581E-02 0.51821146E+03</pdfrwt>
<pdfrwt beam="2">  1       -1 0.17279052E+00 0.51821146E+03</pdfrwt>
<totfact> 0.22359116E+02</totfact>
</mgrwt>
</event>
<event>
 4    1  0.2428650E-005  0.4077385E+03  0.7818608E-02  0.1041133E+00
         -1   -1    0    0    0  501 -0.00000000000E+00  0.00000000000E+00  0.29934621955E+02  0.29934622379E+02  0.50400000000E-02 0. -1.
          1   -1    0    0  501    0  0.00000000000E+00 -0.00000000000E+00 -0.13884483654E+04  0.13884483654E+04  0.50400000000E-02 0.  1.
    5000001    1    1    2    0    0  0.22227237615E+02 -0.86028830959E+02 -0.95847564577E+03  0.97662458160E+03  0.16500000000E+03 0.  0.
   -5000001    1    1    2    0    0 -0.22227237615E+02  0.86028830959E+02 -0.40003809768E+03  0.44175840619E+03  0.16500000000E+03 0.  0.
<mgrwt>
<rscale>  0 0.40773853E+03</rscale>
<asrwt>0</asrwt>
<pdfrwt beam="1">  1        1 0.19834973E+00 0.40773853E+03</pdfrwt>
<pdfrwt beam="2">  1       -1 0.42763755E-02 0.40773853E+03</pdfrwt>
<totfact> 0.22093065E+03</totfact>
</mgrwt>
</event>
<event>
 4    1  0.2428650E-005  0.4282015E+03  0.7818608E-02  0.1034430E+00
         -1   -1    0    0    0  501 -0.00000000000E+00  0.00000000000E+00  0.86074469505E+02  0.86074469652E+02  0.50400000000E-02 0. -1.
          1   -1    0    0  501    0  0.00000000000E+00 -0.00000000000E+00 -0.53255193969E+03  0.53255193972E+03  0.50400000000E-02 0.  1.
    5000001    1    1    2    0    0 -0.25436059189E+02  0.13369676251E+03 -0.23711909589E+03  0.31933099293E+03  0.16500000000E+03 0.  0.
   -5000001    1    1    2    0    0  0.25436059189E+02 -0.13369676251E+03 -0.20935837430E+03  0.29929541644E+03  0.16500000000E+03 0.  0.
<mgrwt>
<rscale>  0 0.42820147E+03</rscale>
<asrwt>0</asrwt>
<pdfrwt beam="1">  1        1 0.76078847E-01 0.42820147E+03</pdfrwt>
<pdfrwt beam="2">  1       -1 0.12296353E-01 0.42820147E+03</pdfrwt>
<totfact> 0.20304820E+03</totfact>
</mgrwt>
</event>
<event>
 4    1  0.2428650E-005  0.4376468E+03  0.7818608E-02  0.1031471E+00
         -1   -1    0    0    0  501 -0.00000000000E+00  0.00000000000E+00  0.43493345018E+02  0.43493345310E+02  0.50400000000E-02 0.  1.
          1   -1    0    0  501    0  0.00000000000E+00 -0.00000000000E+00 -0.11009425243E+04  0.11009425243E+04  0.50400000000E-02 0. -1.
    5000001    1    1    2    0    0  0.80993384522E+02 -0.80469491454E+02 -0.75704369638E+03  0.78318288134E+03  0.16500000000E+03 0.  0.
   -5000001    1    1    2    0    0 -0.80993384522E+02  0.80469491454E+02 -0.30040548294E+03  0.36125298832E+03  0.16500000000E+03 0.  0.
<mgrwt>
<rscale>  0 0.43764677E+03</rscale>
<asrwt>0</asrwt>
<pdfrwt beam="1">  1        1 0.15727749E+00 0.43764677E+03</pdfrwt>
<pdfrwt beam="2">  1       -1 0.62133357E-02 0.43764677E+03</pdfrwt>
<totfact> 0.19512434E+03</totfact>
</mgrwt>
</event>
<event>
 4    1  0.2428650E-005  0.4123014E+03  0.7818608E-02  0.1039601E+00
         -1   -1    0    0    0  501 -0.00000000000E+00  0.00000000000E+00  0.20787674275E+03  0.20787674281E+03  0.50400000000E-02 0. -1.
          1   -1    0    0  501    0  0.00000000000E+00 -0.00000000000E+00 -0.20443894938E+03  0.20443894945E+03  0.50400000000E-02 0.  1.
    5000001    1    1    2    0    0  0.12272356766E+03  0.15839987496E+01  0.16194198721E+02  0.20627853786E+03  0.16500000000E+03 0.  0.
   -5000001    1    1    2    0    0 -0.12272356766E+03 -0.15839987496E+01 -0.12756405359E+02  0.20603715439E+03  0.16500000000E+03 0.  0.
<mgrwt>
<rscale>  0 0.41230136E+03</rscale>
<asrwt>0</asrwt>
<pdfrwt beam="1">  1        1 0.29205564E-01 0.41230136E+03</pdfrwt>
<pdfrwt beam="2">  1       -1 0.29696678E-01 0.41230136E+03</pdfrwt>
<totfact> 0.16396418E+03</totfact>
</mgrwt>
</event>
<event>
 4    1  0.2428650E-005  0.4522587E+03  0.7818608E-02  0.1027051E+00
         -1   -1    0    0    0  501 -0.00000000000E+00  0.00000000000E+00  0.46385046330E+02  0.46385046604E+02  0.50400000000E-02 0. -1.
          1   -1    0    0  501    0  0.00000000000E+00 -0.00000000000E+00 -0.11023913185E+04  0.11023913185E+04  0.50400000000E-02 0.  1.
    5000001    1    1    2    0    0 -0.15946036058E+02  0.14835073871E+03 -0.42491017891E+03  0.47962055615E+03  0.16500000000E+03 0.  0.
   -5000001    1    1    2    0    0  0.15946036058E+02 -0.14835073871E+03 -0.63109609329E+03  0.66915580899E+03  0.16500000000E+03 0.  0.
<mgrwt>
<rscale>  0 0.45225865E+03</rscale>
<asrwt>0</asrwt>
<pdfrwt beam="1">  1        1 0.15748446E+00 0.45225865E+03</pdfrwt>
<pdfrwt beam="2">  1       -1 0.66264359E-02 0.45225865E+03</pdfrwt>
<totfact> 0.17634283E+03</totfact>
</mgrwt>
</event>
<event>
 4    1  0.2428650E-005  0.5470892E+03  0.7818608E-02  0.1002170E+00
          1   -1    0    0  501    0  0.00000000000E+00  0.00000000000E+00  0.47477108284E+03  0.47477108287E+03  0.50400000000E-02 0.  1.
         -1   -1    0    0    0  501 -0.00000000000E+00 -0.00000000000E+00 -0.15760571609E+03  0.15760571617E+03  0.50400000000E-02 0. -1.
    5000001    1    1    2    0    0  0.76392774800E+02  0.20099968032E+03  0.20128679266E+03  0.33760642830E+03  0.16500000000E+03 0.  0.
   -5000001    1    1    2    0    0 -0.76392774800E+02 -0.20099968032E+03  0.11587857409E+03  0.29477037074E+03  0.16500000000E+03 0.  0.
<mgrwt>
<rscale>  0 0.54708916E+03</rscale>
<asrwt>0</asrwt>
<pdfrwt beam="1">  1        1 0.67824441E-01 0.54708916E+03</pdfrwt>
<pdfrwt beam="2">  1       -1 0.22515102E-01 0.54708916E+03</pdfrwt>
<totfact> 0.88554819E+02</totfact>
</mgrwt>
</event>
<event>
 4    1  0.2428650E-005  0.8383876E+03  0.7818608E-02  0.9506057E-01
          1   -1    0    0  501    0  0.00000000000E+00  0.00000000000E+00  0.75988053134E+03  0.75988053136E+03  0.50400000000E-02 0.  1.
         -1   -1    0    0    0  501 -0.00000000000E+00 -0.00000000000E+00 -0.23125139341E+03  0.23125139346E+03  0.50400000000E-02 0. -1.
    5000001    1    1    2    0    0  0.17114504854E+03  0.26653118874E+03  0.52377439882E+03  0.63395119928E+03  0.16500000000E+03 0.  0.
   -5000001    1    1    2    0    0 -0.17114504854E+03 -0.26653118874E+03  0.48547391189E+01  0.35718072555E+03  0.16500000000E+03 0.  0.
<mgrwt>
<rscale>  0 0.83838758E+03</rscale>
<asrwt>0</asrwt>
<pdfrwt beam="1">  1        1 0.10855436E+00 0.83838758E+03</pdfrwt>
<pdfrwt beam="2">  1       -1 0.33035914E-01 0.83838758E+03</pdfrwt>
<totfact> 0.23332980E+02</totfact>
</mgrwt>
</event>
<event>
 4    1  0.2428650E-005  0.4807617E+03  0.7818608E-02  0.1018926E+00
          1   -1    0    0  501    0  0.00000000000E+00  0.00000000000E+00  0.13692556723E+03  0.13692556732E+03  0.50400000000E-02 0.  1.
         -1   -1    0    0    0  501 -0.00000000000E+00 -0.00000000000E+00 -0.42200259881E+03  0.42200259884E+03  0.50400000000E-02 0. -1.
    5000001    1    1    2    0    0 -0.94502007701E+02 -0.61386298501E+02 -0.29790423336E+03  0.35870717773E+03  0.16500000000E+03 0.  0.
   -5000001    1    1    2    0    0  0.94502007701E+02  0.61386298501E+02  0.12827201769E+02  0.20022098843E+03  0.16500000000E+03 0.  0.
<mgrwt>
<rscale>  0 0.48076167E+03</rscale>
<asrwt>0</asrwt>
<pdfrwt beam="1">  1        1 0.19560795E-01 0.48076167E+03</pdfrwt>
<pdfrwt beam="2">  1       -1 0.60286085E-01 0.48076167E+03</pdfrwt>
<totfact> 0.75898894E+02</totfact>
</mgrwt>
</event>
<event>
 4    1  0.2428650E-005  0.5705712E+03  0.7818608E-02  0.9968415E-01
         -1   -1    0    0    0  501 -0.00000000000E+00  0.00000000000E+00  0.11417676685E+03  0.11417676696E+03  0.50400000000E-02 0. -1.
          1   -1    0    0  501    0  0.00000000000E+00 -0.00000000000E+00 -0.71282352465E+03  0.71282352466E+03  0.50400000000E-02 0.  1.
    5000001    1    1    2    0    0  0.17430257089E+03  0.16163210863E+02 -0.52161175323E+03  0.57440965931E+03  0.16500000000E+03 0.  0.
   -5000001    1    1    2    0    0 -0.17430257089E+03 -0.16163210863E+02 -0.77035004569E+02  0.25259063231E+03  0.16500000000E+03 0.  0.
<mgrwt>
<rscale>  0 0.57057124E+03</rscale>
<asrwt>0</asrwt>
<pdfrwt beam="1">  1        1 0.10183193E+00 0.57057124E+03</pdfrwt>
<pdfrwt beam="2">  1       -1 0.16310967E-01 0.57057124E+03</pdfrwt>
<totfact> 0.85603506E+02</totfact>
</mgrwt>
</event>
<event>
 4    1  0.2428650E-005  0.5383286E+03  0.7818608E-02  0.1004232E+00
          1   -1    0    0  501    0  0.00000000000E+00  0.00000000000E+00  0.33420260571E+03  0.33420260574E+03  0.50400000000E-02 0.  1.
         -1   -1    0    0    0  501 -0.00000000000E+00 -0.00000000000E+00 -0.21678289310E+03  0.21678289316E+03  0.50400000000E-02 0. -1.
    5000001    1    1    2    0    0  0.18789016077E+02 -0.13667012642E+03 -0.10693674630E+03  0.24019204460E+03  0.16500000000E+03 0.  0.
   -5000001    1    1    2    0    0 -0.18789016077E+02  0.13667012642E+03  0.22435645891E+03  0.31079345430E+03  0.16500000000E+03 0.  0.
<mgrwt>
<rscale>  0 0.53832855E+03</rscale>
<asrwt>0</asrwt>
<pdfrwt beam="1">  1        1 0.47743229E-01 0.53832855E+03</pdfrwt>
<pdfrwt beam="2">  1       -1 0.30968985E-01 0.53832855E+03</pdfrwt>
<totfact> 0.81327695E+02</totfact>
</mgrwt>
</event>
<event>
 4    1  0.2428650E-005  0.4500962E+03  0.7818608E-02  0.1027693E+00
         -1   -1    0    0    0  501 -0.00000000000E+00  0.00000000000E+00  0.25747896418E+03  0.25747896423E+03  0.50400000000E-02 0. -1.
          1   -1    0    0  501    0  0.00000000000E+00 -0.00000000000E+00 -0.19670211171E+03  0.19670211177E+03  0.50400000000E-02 0.  1.
    5000001    1    1    2    0    0  0.21032225323E+02 -0.15034927831E+03  0.49913345977E+02  0.22970329144E+03  0.16500000000E+03 0.  0.
   -5000001    1    1    2    0    0 -0.21032225323E+02  0.15034927831E+03  0.10863506501E+02  0.22447778457E+03  0.16500000000E+03 0.  0.
<mgrwt>
<rscale>  0 0.45009624E+03</rscale>
<asrwt>0</asrwt>
<pdfrwt beam="1">  1        1 0.28100301E-01 0.45009624E+03</pdfrwt>
<pdfrwt beam="2">  1       -1 0.36782710E-01 0.45009624E+03</pdfrwt>
<totfact> 0.11865306E+03</totfact>
</mgrwt>
</event>
<event>
 4    1  0.2428650E-005  0.8901305E+03  0.7818608E-02  0.9438004E-01
          1   -1    0    0  501    0  0.00000000000E+00  0.00000000000E+00  0.56153457639E+03  0.56153457641E+03  0.50400000000E-02 0. -1.
         -1   -1    0    0    0  501 -0.00000000000E+00 -0.00000000000E+00 -0.35275308918E+03  0.35275308921E+03  0.50400000000E-02 0.  1.
    5000001    1    1    2    0    0 -0.38696873562E+03  0.12270218291E+03  0.18433243796E+03  0.47539885961E+03  0.16500000000E+03 0.  0.
   -5000001    1    1    2    0    0  0.38696873562E+03 -0.12270218291E+03  0.24449049253E+02  0.43888880601E+03  0.16500000000E+03 0.  0.
<mgrwt>
<rscale>  0 0.89013045E+03</rscale>
<asrwt>0</asrwt>
<pdfrwt beam="1">  1        1 0.80219224E-01 0.89013045E+03</pdfrwt>
<pdfrwt beam="2">  1       -1 0.50393299E-01 0.89013045E+03</pdfrwt>
<totfact> 0.16658752E+02</totfact>
</mgrwt>
</event>
<event>
 4    1  0.2428650E-005  0.7104115E+03  0.7818608E-02  0.9699591E-01
          1   -1    0    0  501    0  0.00000000000E+00  0.00000000000E+00  0.62854496458E+03  0.62854496460E+03  0.50400000000E-02 0. -1.
         -1   -1    0    0    0  501 -0.00000000000E+00 -0.00000000000E+00 -0.20073522036E+03  0.20073522043E+03  0.50400000000E-02 0.  1.
    5000001    1    1    2    0    0  0.19139352959E+03  0.20733426206E+03  0.37618862435E+03  0.49835916815E+03  0.16500000000E+03 0.  0.
   -5000001    1    1    2    0    0 -0.19139352959E+03 -0.20733426206E+03  0.51621119865E+02  0.33092101687E+03  0.16500000000E+03 0.  0.
<mgrwt>
<rscale>  0 0.71041146E+03</rscale>
<asrwt>0</asrwt>
<pdfrwt beam="1">  1        1 0.89792136E-01 0.71041146E+03</pdfrwt>
<pdfrwt beam="2">  1       -1 0.28676461E-01 0.71041146E+03</pdfrwt>
<totfact> 0.39727433E+02</totfact>
</mgrwt>
</event>
<event>
 4    1  0.2428650E-005  0.4855791E+03  0.7818608E-02  0.1017613E+00
          1   -1    0    0  501    0  0.00000000000E+00  0.00000000000E+00  0.15336338877E+03  0.15336338885E+03  0.50400000000E-02 0. -1.
         -1   -1    0    0    0  501 -0.00000000000E+00 -0.00000000000E+00 -0.38436016264E+03  0.38436016267E+03  0.50400000000E-02 0.  1.
    5000001    1    1    2    0    0 -0.32389079020E+02 -0.17339729492E+03 -0.88235480103E+02  0.25715010067E+03  0.16500000000E+03 0.  0.
   -5000001    1    1    2    0    0  0.32389079020E+02  0.17339729492E+03 -0.14276129376E+03  0.28057345085E+03  0.16500000000E+03 0.  0.
<mgrwt>
<rscale>  0 0.48557915E+03</rscale>
<asrwt>0</asrwt>
<pdfrwt beam="1">  1        1 0.21909056E-01 0.48557915E+03</pdfrwt>
<pdfrwt beam="2">  1       -1 0.54908594E-01 0.48557915E+03</pdfrwt>
<totfact> 0.78382295E+02</totfact>
</mgrwt>
</event>
<event>
 4    1  0.2428650E-005  0.5294844E+03  0.7818608E-02  0.1006357E+00
         -1   -1    0    0    0  501 -0.00000000000E+00  0.00000000000E+00  0.24232126885E+03  0.24232126890E+03  0.50400000000E-02 0.  1.
          1   -1    0    0  501    0  0.00000000000E+00 -0.00000000000E+00 -0.28923768496E+03  0.28923768500E+03  0.50400000000E-02 0. -1.
    5000001    1    1    2    0    0  0.18690668566E+03  0.88609689129E+02 -0.14611378096E+02  0.26499863872E+03  0.16500000000E+03 0.  0.
   -5000001    1    1    2    0    0 -0.18690668566E+03 -0.88609689129E+02 -0.32305038015E+02  0.26656031519E+03  0.16500000000E+03 0.  0.
<mgrwt>
<rscale>  0 0.52948444E+03</rscale>
<asrwt>0</asrwt>
<pdfrwt beam="1">  1        1 0.41319669E-01 0.52948444E+03</pdfrwt>
<pdfrwt beam="2">  1       -1 0.34617324E-01 0.52948444E+03</pdfrwt>
<totfact> 0.80568915E+02</totfact>
</mgrwt>
</event>
<event>
 4    1  0.2428650E-005  0.7285417E+03  0.7818608E-02  0.9669630E-01
         -1   -1    0    0    0  501 -0.00000000000E+00  0.00000000000E+00  0.15494110611E+03  0.15494110619E+03  0.50400000000E-02 0. -1.
          1   -1    0    0  501    0  0.00000000000E+00 -0.00000000000E+00 -0.85641087831E+03  0.85641087833E+03  0.50400000000E-02 0.  1.
    5000001    1    1    2    0    0 -0.14085248536E+03 -0.27646690704E+03 -0.48384800162E+03  0.59800272741E+03  0.16500000000E+03 0.  0.
   -5000001    1    1    2    0    0  0.14085248536E+03  0.27646690704E+03 -0.21762177059E+03  0.41334925711E+03  0.16500000000E+03 0.  0.
<mgrwt>
<rscale>  0 0.72854169E+03</rscale>
<asrwt>0</asrwt>
<pdfrwt beam="1">  1        1 0.12234441E+00 0.72854169E+03</pdfrwt>
<pdfrwt beam="2">  1       -1 0.22134444E-01 0.72854169E+03</pdfrwt>
<totfact> 0.38828494E+02</totfact>
</mgrwt>
</event>
<event>
 4    1  0.2428650E-005  0.4150256E+03  0.7818608E-02  0.1038698E+00
          1   -1    0    0  501    0  0.00000000000E+00  0.00000000000E+00  0.45217602882E+03  0.45217602885E+03  0.50400000000E-02 0.  1.
         -1   -1    0    0    0  501 -0.00000000000E+00 -0.00000000000E+00 -0.95231835282E+02  0.95231835416E+02  0.50400000000E-02 0. -1.
    5000001    1    1    2    0    0  0.83078389183E+02  0.68567849390E+02  0.92657823929E+02  0.21774765453E+03  0.16500000000E+03 0.  0.
   -5000001    1    1    2    0    0 -0.83078389183E+02 -0.68567849390E+02  0.26428636961E+03  0.32966020973E+03  0.16500000000E+03 0.  0.
<mgrwt>
<rscale>  0 0.41502556E+03</rscale>
<asrwt>0</asrwt>
<pdfrwt beam="1">  1        1 0.64596576E-01 0.41502556E+03</pdfrwt>
<pdfrwt beam="2">  1       -1 0.13604548E-01 0.41502556E+03</pdfrwt>
<totfact> 0.21482012E+03</totfact>
</mgrwt>
</event>
<event>
 4    1  0.2428650E-005  0.4416630E+03  0.7818608E-02  0.1030238E+00
          1   -1    0    0  501    0  0.00000000000E+00  0.00000000000E+00  0.12697741798E+04  0.12697741798E+04  0.50400000000E-02 0.  1.
         -1   -1    0    0    0  501 -0.00000000000E+00 -0.00000000000E+00 -0.38405687990E+02  0.38405688321E+02  0.50400000000E-02 0. -1.
    5000001    1    1    2    0    0 -0.92256555893E+02 -0.96580269072E+02  0.43545478696E+03  0.48444286760E+03  0.16500000000E+03 0.  0.
   -5000001    1    1    2    0    0  0.92256555893E+02  0.96580269072E+02  0.79591370481E+03  0.82373700049E+03  0.16500000000E+03 0.  0.
<mgrwt>
<rscale>  0 0.44166300E+03</rscale>
<asrwt>0</asrwt>
<pdfrwt beam="1">  1        1 0.18139629E+00 0.44166300E+03</pdfrwt>
<pdfrwt beam="2">  1       -1 0.54865276E-02 0.44166300E+03</pdfrwt>
<totfact> 0.18101296E+03</totfact>
</mgrwt>
</event>
<event>
 4    1  0.2428650E-005  0.4690397E+03  0.7818608E-02  0.1022192E+00
          1   -1    0    0  501    0  0.00000000000E+00  0.00000000000E+00  0.29371296163E+03  0.29371296167E+03  0.50400000000E-02 0.  1.
         -1   -1    0    0    0  501 -0.00000000000E+00 -0.00000000000E+00 -0.18725612082E+03  0.18725612089E+03  0.50400000000E-02 0. -1.
    5000001    1    1    2    0    0  0.70387698958E+02 -0.12079221270E+03 -0.39794658089E+02  0.21989497863E+03  0.16500000000E+03 0.  0.
   -5000001    1    1    2    0    0 -0.70387698958E+02  0.12079221270E+03  0.14625149890E+03  0.26107410393E+03  0.16500000000E+03 0.  0.
<mgrwt>
<rscale>  0 0.46903966E+03</rscale>
<asrwt>0</asrwt>
<pdfrwt beam="1">  1        1 0.41958994E-01 0.46903966E+03</pdfrwt>
<pdfrwt beam="2">  1       -1 0.26750875E-01 0.46903966E+03</pdfrwt>
<totfact> 0.12349103E+03</totfact>
</mgrwt>
</event>
<event>
 4    1  0.2428650E-005  0.4275593E+03  0.7818608E-02  0.1034634E+00
          1   -1    0    0  501    0  0.00000000000E+00  0.00000000000E+00  0.50027837802E+03  0.50027837805E+03  0.50400000000E-02 0.  1.
         -1   -1    0    0    0  501 -0.00000000000E+00 -0.00000000000E+00 -0.91352612764E+02  0.91352612903E+02  0.50400000000E-02 0. -1.
    5000001    1    1    2    0    0  0.49609754013E+02  0.12648487620E+03  0.21019921425E+03  0.29978035505E+03  0.16500000000E+03 0.  0.
   -5000001    1    1    2    0    0 -0.49609754013E+02 -0.12648487620E+03  0.19872655101E+03  0.29185063590E+03  0.16500000000E+03 0.  0.
<mgrwt>
<rscale>  0 0.42755929E+03</rscale>
<asrwt>0</asrwt>
<pdfrwt beam="1">  1        1 0.71468339E-01 0.42755929E+03</pdfrwt>
<pdfrwt beam="2">  1       -1 0.13050373E-01 0.42755929E+03</pdfrwt>
<totfact> 0.20088590E+03</totfact>
</mgrwt>
</event>
<event>
 4    1  0.2428650E-005  0.5704115E+03  0.7818608E-02  0.9968768E-01
          1   -1    0    0  501    0  0.00000000000E+00  0.00000000000E+00  0.25520572414E+03  0.25520572419E+03  0.50400000000E-02 0.  1.
         -1   -1    0    0    0  501 -0.00000000000E+00 -0.00000000000E+00 -0.31873232952E+03  0.31873232956E+03  0.50400000000E-02 0. -1.
    5000001    1    1    2    0    0  0.87165613241E+02 -0.21264949083E+03 -0.68037052803E+02  0.29098400409E+03  0.16500000000E+03 0.  0.
   -5000001    1    1    2    0    0 -0.87165613241E+02  0.21264949083E+03  0.45104474260E+01  0.28295404966E+03  0.16500000000E+03 0.  0.
<mgrwt>
<rscale>  0 0.57041148E+03</rscale>
<asrwt>0</asrwt>
<pdfrwt beam="1">  1        1 0.36457960E-01 0.57041148E+03</pdfrwt>
<pdfrwt beam="2">  1       -1 0.45533190E-01 0.57041148E+03</pdfrwt>
<totfact> 0.57639308E+02</totfact>
</mgrwt>
</event>
<event>
 4    1  0.2428650E-005  0.1207144E+04  0.7818608E-02  0.9106626E-01
         -1   -1    0    0    0  501 -0.00000000000E+00  0.00000000000E+00  0.10159168732E+03  0.10159168744E+03  0.50400000000E-02 0. -1.
          1   -1    0    0  501    0  0.00000000000E+00 -0.00000000000E+00 -0.35859148619E+04  0.35859148619E+04  0.50400000000E-02 0.  1.
    5000001    1    1    2    0    0  0.56772783546E+02  0.17216725180E+03 -0.57316146969E+02  0.25174362404E+03  0.16500000000E+03 0.  0.
   -5000001    1    1    2    0    0 -0.56772783546E+02 -0.17216725180E+03 -0.34270070276E+04  0.34357629253E+04  0.16500000000E+03 0.  0.
<mgrwt>
<rscale>  0 0.12071440E+04</rscale>
<asrwt>0</asrwt>
<pdfrwt beam="1">  1        1 0.51227347E+00 0.12071440E+04</pdfrwt>
<pdfrwt beam="2">  1       -1 0.14513100E-01 0.12071440E+04</pdfrwt>
<totfact> 0.11876092E+01</totfact>
</mgrwt>
</event>
<event>
 4    1  0.2428650E-005  0.3700840E+03  0.7818608E-02  0.1054661E+00
          1   -1    0    0  501    0  0.00000000000E+00  0.00000000000E+00  0.18824586458E+04  0.18824586459E+04  0.50400000000E-02 0.  1.
         -1   -1    0    0    0  501 -0.00000000000E+00 -0.00000000000E+00 -0.18189269987E+02  0.18189270686E+02  0.50400000000E-02 0. -1.
    5000001    1    1    2    0    0  0.51440264143E+02  0.31644359744E+02  0.12301871447E+04  0.12426716692E+04  0.16500000000E+03 0.  0.
   -5000001    1    1    2    0    0 -0.51440264143E+02 -0.31644359744E+02  0.63408223113E+03  0.65797624738E+03  0.16500000000E+03 0.  0.
<mgrwt>
<rscale>  0 0.37008404E+03</rscale>
<asrwt>0</asrwt>
<pdfrwt beam="1">  1        1 0.26892261E+00 0.37008404E+03</pdfrwt>
<pdfrwt beam="2">  1       -1 0.25984677E-02 0.37008404E+03</pdfrwt>
<totfact> 0.22900063E+03</totfact>
</mgrwt>
</event>
<event>
 4    1  0.2428650E-005  0.3564653E+03  0.7818608E-02  0.1059992E+00
         -1   -1    0    0    0  501 -0.00000000000E+00  0.00000000000E+00  0.97413731883E+01  0.97413744921E+01  0.50400000000E-02 0. -1.
          1   -1    0    0  501    0  0.00000000000E+00 -0.00000000000E+00 -0.32610272589E+04  0.32610272589E+04  0.50400000000E-02 0.  1.
    5000001    1    1    2    0    0 -0.67203221978E+02 -0.46345831982E+01 -0.16069886937E+04  0.16168411840E+04  0.16500000000E+03 0.  0.
   -5000001    1    1    2    0    0  0.67203221978E+02  0.46345831982E+01 -0.16442971920E+04  0.16539274494E+04  0.16500000000E+03 0.  0.
<mgrwt>
<rscale>  0 0.35646535E+03</rscale>
<asrwt>0</asrwt>
<pdfrwt beam="1">  1        1 0.46586034E+00 0.35646535E+03</pdfrwt>
<pdfrwt beam="2">  1       -1 0.13916269E-02 0.35646535E+03</pdfrwt>
<totfact> 0.79670392E+02</totfact>
</mgrwt>
</event>
<event>
 4    1  0.2428650E-005  0.4286601E+03  0.7818608E-02  0.1034284E+00
          1   -1    0    0  501    0  0.00000000000E+00  0.00000000000E+00  0.21622162031E+04  0.21622162031E+04  0.50400000000E-02 0.  1.
         -1   -1    0    0    0  501 -0.00000000000E+00 -0.00000000000E+00 -0.21245505669E+02  0.21245506267E+02  0.50400000000E-02 0. -1.
    5000001    1    1    2    0    0  0.56199741490E+02  0.11770844704E+03  0.12804224864E+04  0.12975825343E+04  0.16500000000E+03 0.  0.
   -5000001    1    1    2    0    0 -0.56199741490E+02 -0.11770844704E+03  0.86054821095E+03  0.88587917506E+03  0.16500000000E+03 0.  0.
<mgrwt>
<rscale>  0 0.42866013E+03</rscale>
<asrwt>0</asrwt>
<pdfrwt beam="1">  1        1 0.30888787E+00 0.42866013E+03</pdfrwt>
<pdfrwt beam="2">  1       -1 0.30350738E-02 0.42866013E+03</pdfrwt>
<totfact> 0.12230695E+03</totfact>
</mgrwt>
</event>
<event>
 4    1  0.2428650E-005  0.7279499E+03  0.7818608E-02  0.9670593E-01
         -1   -1    0    0    0  501 -0.00000000000E+00  0.00000000000E+00  0.53073080034E+02  0.53073080273E+02  0.50400000000E-02 0. -1.
          1   -1    0    0  501    0  0.00000000000E+00 -0.00000000000E+00 -0.24961386036E+04  0.24961386036E+04  0.50400000000E-02 0.  1.
    5000001    1    1    2    0    0  0.13978141465E+03  0.13011679779E+03 -0.30310147663E+03  0.39441694954E+03  0.16500000000E+03 0.  0.
   -5000001    1    1    2    0    0 -0.13978141465E+03 -0.13011679779E+03 -0.21399640470E+04  0.21547947344E+04  0.16500000000E+03 0.  0.
<mgrwt>
<rscale>  0 0.72794990E+03</rscale>
<asrwt>0</asrwt>
<pdfrwt beam="1">  1        1 0.35659116E+00 0.72794990E+03</pdfrwt>
<pdfrwt beam="2">  1       -1 0.75818702E-02 0.72794990E+03</pdfrwt>
<totfact> 0.18345593E+02</totfact>
</mgrwt>
</event>
<event>
 4    1  0.2428650E-005  0.8069383E+03  0.7818608E-02  0.9550028E-01
          1   -1    0    0  501    0  0.00000000000E+00  0.00000000000E+00  0.25475468248E+04  0.25475468248E+04  0.50400000000E-02 0. -1.
         -1   -1    0    0    0  501 -0.00000000000E+00 -0.00000000000E+00 -0.63899655488E+02  0.63899655686E+02  0.50400000000E-02 0.  1.
    5000001    1    1    2    0    0  0.35686387190E+03  0.29956948190E+02  0.96507065704E+03  0.10425140838E+04  0.16500000000E+03 0.  0.
   -5000001    1    1    2    0    0 -0.35686387190E+03 -0.29956948190E+02  0.15185765122E+04  0.15689323967E+04  0.16500000000E+03 0.  0.
<mgrwt>
<rscale>  0 0.80693832E+03</rscale>
<asrwt>0</asrwt>
<pdfrwt beam="1">  1        1 0.36393520E+00 0.80693832E+03</pdfrwt>
<pdfrwt beam="2">  1       -1 0.91285238E-02 0.80693832E+03</pdfrwt>
<totfact> 0.12634849E+02</totfact>
</mgrwt>
</event>
<event>
 4    1  0.2428650E-005  0.9241736E+03  0.7818608E-02  0.9395858E-01
         -1   -1    0    0    0  501 -0.00000000000E+00  0.00000000000E+00  0.12689059505E+03  0.12689059515E+03  0.50400000000E-02 0.  1.
          1   -1    0    0  501    0  0.00000000000E+00 -0.00000000000E+00 -0.16827426540E+04  0.16827426540E+04  0.50400000000E-02 0. -1.
    5000001    1    1    2    0    0  0.16835912798E+02 -0.39680063828E+03 -0.11088698576E+04  0.11893492151E+04  0.16500000000E+03 0.  0.
   -5000001    1    1    2    0    0 -0.16835912798E+02  0.39680063828E+03 -0.44698220134E+03  0.62028403398E+03  0.16500000000E+03 0.  0.
<mgrwt>
<rscale>  0 0.92417361E+03</rscale>
<asrwt>0</asrwt>
<pdfrwt beam="1">  1        1 0.24039179E+00 0.92417361E+03</pdfrwt>
<pdfrwt beam="2">  1       -1 0.18127229E-01 0.92417361E+03</pdfrwt>
<totfact> 0.14377129E+02</totfact>
</mgrwt>
</event>
<event>
 4    1  0.2428650E-005  0.5993891E+03  0.7818608E-02  0.9906674E-01
         -1   -1    0    0    0  501 -0.00000000000E+00  0.00000000000E+00  0.41615153786E+03  0.41615153789E+03  0.50400000000E-02 0. -1.
          1   -1    0    0  501    0  0.00000000000E+00 -0.00000000000E+00 -0.21582723708E+03  0.21582723714E+03  0.50400000000E-02 0.  1.
    5000001    1    1    2    0    0 -0.20985082359E+03  0.13342833195E+03  0.12906325188E+03  0.32515044351E+03  0.16500000000E+03 0.  0.
   -5000001    1    1    2    0    0  0.20985082359E+03 -0.13342833195E+03  0.71261048902E+02  0.30682833151E+03  0.16500000000E+03 0.  0.
<mgrwt>
<rscale>  0 0.59938914E+03</rscale>
<asrwt>0</asrwt>
<pdfrwt beam="1">  1        1 0.30832462E-01 0.59938914E+03</pdfrwt>
<pdfrwt beam="2">  1       -1 0.59450220E-01 0.59938914E+03</pdfrwt>
<totfact> 0.43052884E+02</totfact>
</mgrwt>
</event>
<event>
 4    1  0.2428650E-005  0.5673476E+03  0.7818608E-02  0.9975565E-01
         -1   -1    0    0    0  501 -0.00000000000E+00  0.00000000000E+00  0.66165159894E+02  0.66165160086E+02  0.50400000000E-02 0. -1.
          1   -1    0    0  501    0  0.00000000000E+00 -0.00000000000E+00 -0.12162114581E+04  0.12162114581E+04  0.50400000000E-02 0.  1.
    5000001    1    1    2    0    0  0.22494815215E+03  0.78561044916E+01 -0.68988641639E+03  0.74419866773E+03  0.16500000000E+03 0.  0.
   -5000001    1    1    2    0    0 -0.22494815215E+03 -0.78561044916E+01 -0.46015988180E+03  0.53817795045E+03  0.16500000000E+03 0.  0.
<mgrwt>
<rscale>  0 0.56734760E+03</rscale>
<asrwt>0</asrwt>
<pdfrwt beam="1">  1        1 0.17374448E+00 0.56734760E+03</pdfrwt>
<pdfrwt beam="2">  1       -1 0.94521665E-02 0.56734760E+03</pdfrwt>
<totfact> 0.84505059E+02</totfact>
</mgrwt>
</event>
<event>
 4    1  0.2428650E-005  0.5290290E+03  0.7818608E-02  0.1006468E+00
          1   -1    0    0  501    0  0.00000000000E+00  0.00000000000E+00  0.90588810977E+02  0.90588811117E+02  0.50400000000E-02 0. -1.
         -1   -1    0    0    0  501 -0.00000000000E+00 -0.00000000000E+00 -0.77236819521E+03  0.77236819523E+03  0.50400000000E-02 0.  1.
    5000001    1    1    2    0    0 -0.12990256869E+03  0.28461481872E+01 -0.60320589470E+03  0.63872148024E+03  0.16500000000E+03 0.  0.
   -5000001    1    1    2    0    0  0.12990256869E+03 -0.28461481872E+01 -0.78573489532E+02  0.22423552611E+03  0.16500000000E+03 0.  0.
<mgrwt>
<rscale>  0 0.52902898E+03</rscale>
<asrwt>0</asrwt>
<pdfrwt beam="1">  1        1 0.12941259E-01 0.52902898E+03</pdfrwt>
<pdfrwt beam="2">  1       -1 0.11033831E+00 0.52902898E+03</pdfrwt>
<totfact> 0.36322573E+02</totfact>
</mgrwt>
</event>
<event>
 4    1  0.2428650E-005  0.7926716E+03  0.7818608E-02  0.9570686E-01
          1   -1    0    0  501    0  0.00000000000E+00  0.00000000000E+00  0.35158968363E+03  0.35158968367E+03  0.50400000000E-02 0. -1.
         -1   -1    0    0    0  501 -0.00000000000E+00 -0.00000000000E+00 -0.44677663408E+03  0.44677663411E+03  0.50400000000E-02 0.  1.
    5000001    1    1    2    0    0  0.34015717710E+02 -0.27232212005E+03 -0.28281067471E+03  0.42722743808E+03  0.16500000000E+03 0.  0.
   -5000001    1    1    2    0    0 -0.34015717710E+02  0.27232212005E+03  0.18762372426E+03  0.37113887970E+03  0.16500000000E+03 0.  0.
<mgrwt>
<rscale>  0 0.79267157E+03</rscale>
<asrwt>0</asrwt>
<pdfrwt beam="1">  1        1 0.50227098E-01 0.79267157E+03</pdfrwt>
<pdfrwt beam="2">  1       -1 0.63825233E-01 0.79267157E+03</pdfrwt>
<totfact> 0.19760739E+02</totfact>
</mgrwt>
</event>
<event>
 4    1  0.2428650E-005  0.6338010E+03  0.7818608E-02  0.9837659E-01
         -1   -1    0    0    0  501 -0.00000000000E+00  0.00000000000E+00  0.17981435130E+03  0.17981435137E+03  0.50400000000E-02 0. -1.
          1   -1    0    0  501    0  0.00000000000E+00 -0.00000000000E+00 -0.55849787227E+03  0.55849787229E+03  0.50400000000E-02 0.  1.
    5000001    1    1    2    0    0 -0.17809302373E+03  0.19856502511E+03 -0.13652508710E+03  0.34206621246E+03  0.16500000000E+03 0.  0.
   -5000001    1    1    2    0    0  0.17809302373E+03 -0.19856502511E+03 -0.24215843387E+03  0.39624601120E+03  0.16500000000E+03 0.  0.
<mgrwt>
<rscale>  0 0.63380102E+03</rscale>
<asrwt>0</asrwt>
<pdfrwt beam="1">  1        1 0.79785409E-01 0.63380102E+03</pdfrwt>
<pdfrwt beam="2">  1       -1 0.25687765E-01 0.63380102E+03</pdfrwt>
<totfact> 0.56779315E+02</totfact>
</mgrwt>
</event>
<event>
 4    1  0.2428650E-005  0.5146716E+03  0.7818608E-02  0.1010019E+00
         -1   -1    0    0    0  501 -0.00000000000E+00  0.00000000000E+00  0.71303850014E+02  0.71303850193E+02  0.50400000000E-02 0. -1.
          1   -1    0    0  501    0  0.00000000000E+00 -0.00000000000E+00 -0.92872549264E+03  0.92872549265E+03  0.50400000000E-02 0.  1.
    5000001    1    1    2    0    0  0.27167588021E+02  0.18694399008E+03 -0.31691283904E+03  0.40415947449E+03  0.16500000000E+03 0.  0.
   -5000001    1    1    2    0    0 -0.27167588021E+02 -0.18694399008E+03 -0.54050880358E+03  0.59586986836E+03  0.16500000000E+03 0.  0.
<mgrwt>
<rscale>  0 0.51467156E+03</rscale>
<asrwt>0</asrwt>
<pdfrwt beam="1">  1        1 0.13267506E+00 0.51467156E+03</pdfrwt>
<pdfrwt beam="2">  1       -1 0.10186265E-01 0.51467156E+03</pdfrwt>
<totfact> 0.12091704E+03</totfact>
</mgrwt>
</event>
<event>
 4    1  0.2428650E-005  0.4152282E+03  0.7818608E-02  0.1038631E+00
         -1   -1    0    0    0  501 -0.00000000000E+00  0.00000000000E+00  0.30622853013E+02  0.30622853428E+02  0.50400000000E-02 0. -1.
          1   -1    0    0  501    0  0.00000000000E+00 -0.00000000000E+00 -0.14075639183E+04  0.14075639184E+04  0.50400000000E-02 0.  1.
    5000001    1    1    2    0    0 -0.10236509940E+03  0.70424735313E+02 -0.76115397276E+03  0.78868157527E+03  0.16500000000E+03 0.  0.
   -5000001    1    1    2    0    0  0.10236509940E+03 -0.70424735313E+02 -0.61578709257E+03  0.64950519651E+03  0.16500000000E+03 0.  0.
<mgrwt>
<rscale>  0 0.41522824E+03</rscale>
<asrwt>0</asrwt>
<pdfrwt beam="1">  1        1 0.20108052E+00 0.41522824E+03</pdfrwt>
<pdfrwt beam="2">  1       -1 0.43746942E-02 0.41522824E+03</pdfrwt>
<totfact> 0.20748684E+03</totfact>
</mgrwt>
</event>
<event>
 4    1  0.2428650E-005  0.4203040E+03  0.7818608E-02  0.1036967E+00
          1   -1    0    0  501    0  0.00000000000E+00  0.00000000000E+00  0.14260158228E+03  0.14260158237E+03  0.50400000000E-02 0.  1.
         -1   -1    0    0    0  501 -0.00000000000E+00 -0.00000000000E+00 -0.30970100405E+03  0.30970100409E+03  0.50400000000E-02 0. -1.
    5000001    1    1    2    0    0  0.11162395052E+03 -0.64299660153E+02 -0.10352350632E+03  0.23353044552E+03  0.16500000000E+03 0.  0.
   -5000001    1    1    2    0    0 -0.11162395052E+03  0.64299660153E+02 -0.63575915457E+02  0.21877214094E+03  0.16500000000E+03 0.  0.
<mgrwt>
<rscale>  0 0.42030395E+03</rscale>
<asrwt>0</asrwt>
<pdfrwt beam="1">  1        1 0.20371655E-01 0.42030395E+03</pdfrwt>
<pdfrwt beam="2">  1       -1 0.44243000E-01 0.42030395E+03</pdfrwt>
<totfact> 0.12901972E+03</totfact>
</mgrwt>
</event>
<event>
 4    1  0.2428650E-005  0.9395942E+03  0.7818608E-02  0.9377397E-01
         -1   -1    0    0    0  501 -0.00000000000E+00  0.00000000000E+00  0.14586244950E+03  0.14586244959E+03  0.50400000000E-02 0. -1.
          1   -1    0    0  501    0  0.00000000000E+00 -0.00000000000E+00 -0.15131331977E+04  0.15131331977E+04  0.50400000000E-02 0.  1.
    5000001    1    1    2    0    0  0.40935687694E+03 -0.15309106762E+03 -0.77146453536E+03  0.90188272908E+03  0.16500000000E+03 0.  0.
   -5000001    1    1    2    0    0 -0.40935687694E+03  0.15309106762E+03 -0.59580621282E+03  0.75711291821E+03  0.16500000000E+03 0.  0.
<mgrwt>
<rscale>  0 0.93959420E+03</rscale>
<asrwt>0</asrwt>
<pdfrwt beam="1">  1        1 0.21616188E+00 0.93959420E+03</pdfrwt>
<pdfrwt beam="2">  1       -1 0.20837494E-01 0.93959420E+03</pdfrwt>
<totfact> 0.14621152E+02</totfact>
</mgrwt>
</event>
<event>
 4    1  0.2428650E-005  0.6149029E+03  0.7818608E-02  0.9874961E-01
          1   -1    0    0  501    0  0.00000000000E+00  0.00000000000E+00  0.29400733682E+03  0.29400733686E+03  0.50400000000E-02 0.  1.
         -1   -1    0    0    0  501 -0.00000000000E+00 -0.00000000000E+00 -0.32151028415E+03  0.32151028419E+03  0.50400000000E-02 0. -1.
    5000001    1    1    2    0    0 -0.20363112511E+03  0.12367767146E+03 -0.11651657311E+03  0.31235062564E+03  0.16500000000E+03 0.  0.
   -5000001    1    1    2    0    0  0.20363112511E+03 -0.12367767146E+03  0.89013625777E+02  0.30316699541E+03  0.16500000000E+03 0.  0.
<mgrwt>
<rscale>  0 0.61490286E+03</rscale>
<asrwt>0</asrwt>
<pdfrwt beam="1">  1        1 0.42001048E-01 0.61490286E+03</pdfrwt>
<pdfrwt beam="2">  1       -1 0.45930040E-01 0.61490286E+03</pdfrwt>
<totfact> 0.47230712E+02</totfact>
</mgrwt>
</event>
<event>
 4    1  0.2428650E-005  0.5494005E+03  0.7818608E-02  0.1001633E+00
         -1   -1    0    0    0  501 -0.00000000000E+00  0.00000000000E+00  0.42074425185E+03  0.42074425188E+03  0.50400000000E-02 0. -1.
          1   -1    0    0  501    0  0.00000000000E+00 -0.00000000000E+00 -0.17934939556E+03  0.17934939563E+03  0.50400000000E-02 0.  1.
    5000001    1    1    2    0    0  0.22277638748E+02 -0.15353290109E+03 -0.49102537439E+02  0.23174275412E+03  0.16500000000E+03 0.  0.
   -5000001    1    1    2    0    0 -0.22277638748E+02  0.15353290109E+03  0.29049739373E+03  0.36835089340E+03  0.16500000000E+03 0.  0.
<mgrwt>
<rscale>  0 0.54940050E+03</rscale>
<asrwt>0</asrwt>
<pdfrwt beam="1">  1        1 0.25621342E-01 0.54940050E+03</pdfrwt>
<pdfrwt beam="2">  1       -1 0.60106322E-01 0.54940050E+03</pdfrwt>
<totfact> 0.53613951E+02</totfact>
</mgrwt>
</event>
<event>
 4    1  0.2428650E-005  0.4306858E+03  0.7818608E-02  0.1033644E+00
          1   -1    0    0  501    0  0.00000000000E+00  0.00000000000E+00  0.52393091320E+03  0.52393091322E+03  0.50400000000E-02 0. -1.
         -1   -1    0    0    0  501 -0.00000000000E+00 -0.00000000000E+00 -0.88508932802E+02  0.88508932945E+02  0.50400000000E-02 0.  1.
    5000001    1    1    2    0    0 -0.65584785994E+02  0.84207205538E+02  0.34293959322E+03  0.39525280798E+03  0.16500000000E+03 0.  0.
   -5000001    1    1    2    0    0  0.65584785994E+02 -0.84207205538E+02  0.92482387173E+02  0.21718703818E+03  0.16500000000E+03 0.  0.
<mgrwt>
<rscale>  0 0.43068581E+03</rscale>
<asrwt>0</asrwt>
<pdfrwt beam="1">  1        1 0.74847274E-01 0.43068581E+03</pdfrwt>
<pdfrwt beam="2">  1       -1 0.12644133E-01 0.43068581E+03</pdfrwt>
<totfact> 0.19858653E+03</totfact>
</mgrwt>
</event>
<event>
 4    1  0.2428650E-005  0.5025797E+03  0.7818608E-02  0.1013108E+00
         -1   -1    0    0    0  501 -0.00000000000E+00  0.00000000000E+00  0.14839344906E+03  0.14839344914E+03  0.50400000000E-02 0. -1.
          1   -1    0    0  501    0  0.00000000000E+00 -0.00000000000E+00 -0.42553486462E+03  0.42553486465E+03  0.50400000000E-02 0.  1.
    5000001    1    1    2    0    0  0.98234032941E+02  0.63149538494E+02 -0.30904045271E+03  0.36928145208E+03  0.16500000000E+03 0.  0.
   -5000001    1    1    2    0    0 -0.98234032941E+02 -0.63149538494E+02  0.31899037142E+02  0.20464686172E+03  0.16500000000E+03 0.  0.
<mgrwt>
<rscale>  0 0.50257969E+03</rscale>
<asrwt>0</asrwt>
<pdfrwt beam="1">  1        1 0.60790694E-01 0.50257969E+03</pdfrwt>
<pdfrwt beam="2">  1       -1 0.21199064E-01 0.50257969E+03</pdfrwt>
<totfact> 0.11318260E+03</totfact>
</mgrwt>
</event>
<event>
 4    1  0.2428650E-005  0.4944123E+03  0.7818608E-02  0.1015248E+00
          1   -1    0    0  501    0  0.00000000000E+00  0.00000000000E+00  0.10341395076E+04  0.10341395076E+04  0.50400000000E-02 0. -1.
         -1   -1    0    0    0  501 -0.00000000000E+00 -0.00000000000E+00 -0.59093450626E+02  0.59093450841E+02  0.50400000000E-02 0.  1.
    5000001    1    1    2    0    0  0.10714490195E+03  0.95399500176E+02  0.23247187822E+03  0.31913832238E+03  0.16500000000E+03 0.  0.
   -5000001    1    1    2    0    0 -0.10714490195E+03 -0.95399500176E+02  0.74257417872E+03  0.77409463605E+03  0.16500000000E+03 0.  0.
<mgrwt>
<rscale>  0 0.49441227E+03</rscale>
<asrwt>0</asrwt>
<pdfrwt beam="1">  1        1 0.14773420E+00 0.49441227E+03</pdfrwt>
<pdfrwt beam="2">  1       -1 0.84419226E-02 0.49441227E+03</pdfrwt>
<totfact> 0.13554184E+03</totfact>
</mgrwt>
</event>
<event>
 4    1  0.2428650E-005  0.4185202E+03  0.7818608E-02  0.1037549E+00
          1   -1    0    0  501    0  0.00000000000E+00  0.00000000000E+00  0.29664577962E+04  0.29664577962E+04  0.50400000000E-02 0.  1.
         -1   -1    0    0    0  501 -0.00000000000E+00 -0.00000000000E+00 -0.14761644459E+02  0.14761645320E+02  0.50400000000E-02 0. -1.
    5000001    1    1    2    0    0 -0.85917309167E+02  0.89239620836E+02  0.17245809809E+04  0.17368794010E+04  0.16500000000E+03 0.  0.
   -5000001    1    1    2    0    0  0.85917309167E+02 -0.89239620836E+02  0.12271151709E+04  0.12443400406E+04  0.16500000000E+03 0.  0.
<mgrwt>
<rscale>  0 0.41852023E+03</rscale>
<asrwt>0</asrwt>
<pdfrwt beam="1">  1        1 0.42378001E+00 0.41852023E+03</pdfrwt>
<pdfrwt beam="2">  1       -1 0.21088048E-02 0.41852023E+03</pdfrwt>
<totfact> 0.66549674E+02</totfact>
</mgrwt>
</event>
<event>
 4    1  0.2428650E-005  0.4661064E+03  0.7818608E-02  0.1023025E+00
         -1   -1    0    0    0  501 -0.00000000000E+00  0.00000000000E+00  0.60256369536E+02  0.60256369747E+02  0.50400000000E-02 0.  1.
          1   -1    0    0  501    0  0.00000000000E+00 -0.00000000000E+00 -0.90137834740E+03  0.90137834741E+03  0.50400000000E-02 0. -1.
    5000001    1    1    2    0    0 -0.42257643542E+01 -0.16425811641E+03 -0.44015533605E+03  0.49795612833E+03  0.16500000000E+03 0.  0.
   -5000001    1    1    2    0    0  0.42257643542E+01  0.16425811641E+03 -0.40096664181E+03  0.46367858883E+03  0.16500000000E+03 0.  0.
<mgrwt>
<rscale>  0 0.46610637E+03</rscale>
<asrwt>0</asrwt>
<pdfrwt beam="1">  1        1 0.12876833E+00 0.46610637E+03</pdfrwt>
<pdfrwt beam="2">  1       -1 0.86080534E-02 0.46610637E+03</pdfrwt>
<totfact> 0.16525885E+03</totfact>
</mgrwt>
</event>
<event>
 4    1  0.2428650E-005  0.9621854E+03  0.7818608E-02  0.9351020E-01
          1   -1    0    0  501    0  0.00000000000E+00  0.00000000000E+00  0.50266536558E+03  0.50266536561E+03  0.50400000000E-02 0.  1.
         -1   -1    0    0    0  501 -0.00000000000E+00 -0.00000000000E+00 -0.46044587766E+03  0.46044587769E+03  0.50400000000E-02 0. -1.
    5000001    1    1    2    0    0 -0.33792497932E+03  0.24296105360E+03 -0.15513304151E+03  0.47382974345E+03  0.16500000000E+03 0.  0.
   -5000001    1    1    2    0    0  0.33792497932E+03 -0.24296105360E+03  0.19735252943E+03  0.48928149984E+03  0.16500000000E+03 0.  0.
<mgrwt>
<rscale>  0 0.96218542E+03</rscale>
<asrwt>0</asrwt>
<pdfrwt beam="1">  1        1 0.71809338E-01 0.96218542E+03</pdfrwt>
<pdfrwt beam="2">  1       -1 0.65777982E-01 0.96218542E+03</pdfrwt>
<totfact> 0.11470792E+02</totfact>
</mgrwt>
</event>
<event>
 4    1  0.2428650E-005  0.5539027E+03  0.7818608E-02  0.1000595E+00
          1   -1    0    0  501    0  0.00000000000E+00  0.00000000000E+00  0.82913333644E+03  0.82913333646E+03  0.50400000000E-02 0.  1.
         -1   -1    0    0    0  501 -0.00000000000E+00 -0.00000000000E+00 -0.92508703264E+02  0.92508703401E+02  0.50400000000E-02 0. -1.
    5000001    1    1    2    0    0  0.14844300468E+03 -0.12583641939E+03  0.54757392419E+03  0.60409629410E+03  0.16500000000E+03 0.  0.
   -5000001    1    1    2    0    0 -0.14844300468E+03  0.12583641939E+03  0.18905070898E+03  0.31754574576E+03  0.16500000000E+03 0.  0.
<mgrwt>
<rscale>  0 0.55390270E+03</rscale>
<asrwt>0</asrwt>
<pdfrwt beam="1">  1        1 0.11844763E+00 0.55390270E+03</pdfrwt>
<pdfrwt beam="2">  1       -1 0.13215528E-01 0.55390270E+03</pdfrwt>
<totfact> 0.95738660E+02</totfact>
</mgrwt>
</event>
<event>
 4    1  0.2428650E-005  0.5790533E+03  0.7818608E-02  0.9949843E-01
         -1   -1    0    0    0  501 -0.00000000000E+00  0.00000000000E+00  0.67668543693E+02  0.67668543881E+02  0.50400000000E-02 0. -1.
          1   -1    0    0  501    0  0.00000000000E+00 -0.00000000000E+00 -0.12387689291E+04  0.12387689291E+04  0.50400000000E-02 0.  1.
    5000001    1    1    2    0    0  0.14256377611E+03 -0.18352605446E+03 -0.70046935055E+03  0.75623313468E+03  0.16500000000E+03 0.  0.
   -5000001    1    1    2    0    0 -0.14256377611E+03  0.18352605446E+03 -0.47063103484E+03  0.55020433829E+03  0.16500000000E+03 0.  0.
<mgrwt>
<rscale>  0 0.57905333E+03</rscale>
<asrwt>0</asrwt>
<pdfrwt beam="1">  1        1 0.17696698E+00 0.57905333E+03</pdfrwt>
<pdfrwt beam="2">  1       -1 0.96669356E-02 0.57905333E+03</pdfrwt>
<totfact> 0.78710941E+02</totfact>
</mgrwt>
</event>
<event>
 4    1  0.2428650E-005  0.5645246E+03  0.7818608E-02  0.9981869E-01
          1   -1    0    0  501    0  0.00000000000E+00  0.00000000000E+00  0.48539950891E+03  0.48539950894E+03  0.50400000000E-02 0.  1.
         -1   -1    0    0    0  501 -0.00000000000E+00 -0.00000000000E+00 -0.16413696803E+03  0.16413696811E+03  0.50400000000E-02 0. -1.
    5000001    1    1    2    0    0  0.91879003589E+02  0.93178533419E+02  0.37687800223E+03  0.43172447111E+03  0.16500000000E+03 0.  0.
   -5000001    1    1    2    0    0 -0.91879003589E+02 -0.93178533419E+02 -0.55615461351E+02  0.21781200594E+03  0.16500000000E+03 0.  0.
<mgrwt>
<rscale>  0 0.56452459E+03</rscale>
<asrwt>0</asrwt>
<pdfrwt beam="1">  1        1 0.69342788E-01 0.56452459E+03</pdfrwt>
<pdfrwt beam="2">  1       -1 0.23448138E-01 0.56452459E+03</pdfrwt>
<totfact> 0.80289073E+02</totfact>
</mgrwt>
</event>
<event>
 4    1  0.2428650E-005  0.4943706E+03  0.7818608E-02  0.1015259E+00
         -1   -1    0    0    0  501 -0.00000000000E+00  0.00000000000E+00  0.20881533000E+03  0.20881533006E+03  0.50400000000E-02 0. -1.
          1   -1    0    0  501    0  0.00000000000E+00 -0.00000000000E+00 -0.29260572460E+03  0.29260572464E+03  0.50400000000E-02 0.  1.
    5000001    1    1    2    0    0 -0.18009622500E+03  0.32609742767E+02 -0.61602051268E+02  0.25400365805E+03  0.16500000000E+03 0.  0.
   -5000001    1    1    2    0    0  0.18009622500E+03 -0.32609742767E+02 -0.22188343335E+02  0.24741739665E+03  0.16500000000E+03 0.  0.
<mgrwt>
<rscale>  0 0.49437055E+03</rscale>
<asrwt>0</asrwt>
<pdfrwt beam="1">  1        1 0.41800818E-01 0.49437055E+03</pdfrwt>
<pdfrwt beam="2">  1       -1 0.29830761E-01 0.49437055E+03</pdfrwt>
<totfact> 0.10295643E+03</totfact>
</mgrwt>
</event>
<event>
 4    1  0.2428650E-005  0.4963446E+03  0.7818608E-02  0.1014737E+00
         -1   -1    0    0    0  501 -0.00000000000E+00  0.00000000000E+00  0.13420229383E+03  0.13420229393E+03  0.50400000000E-02 0. -1.
          1   -1    0    0  501    0  0.00000000000E+00 -0.00000000000E+00 -0.45893032426E+03  0.45893032429E+03  0.50400000000E-02 0.  1.
    5000001    1    1    2    0    0  0.11269867300E+03  0.71219138092E+02 -0.31628905402E+03  0.38083713345E+03  0.16500000000E+03 0.  0.
   -5000001    1    1    2    0    0 -0.11269867300E+03 -0.71219138092E+02 -0.84389764113E+01  0.21229548476E+03  0.16500000000E+03 0.  0.
<mgrwt>
<rscale>  0 0.49634465E+03</rscale>
<asrwt>0</asrwt>
<pdfrwt beam="1">  1        1 0.65561474E-01 0.49634465E+03</pdfrwt>
<pdfrwt beam="2">  1       -1 0.19171756E-01 0.49634465E+03</pdfrwt>
<totfact> 0.12101553E+03</totfact>
</mgrwt>
</event>
<event>
 4    1  0.2428650E-005  0.1206858E+04  0.7818608E-02  0.9106875E-01
          1   -1    0    0  501    0  0.00000000000E+00  0.00000000000E+00  0.30170371543E+04  0.30170371543E+04  0.50400000000E-02 0.  1.
         -1   -1    0    0    0  501 -0.00000000000E+00 -0.00000000000E+00 -0.12069005273E+03  0.12069005283E+03  0.50400000000E-02 0. -1.
    5000001    1    1    2    0    0  0.35023826150E+03  0.27398664648E+02  0.24690078885E+03  0.46000274584E+03  0.16500000000E+03 0.  0.
   -5000001    1    1    2    0    0 -0.35023826150E+03 -0.27398664648E+02  0.26494463127E+04  0.26777244613E+04  0.16500000000E+03 0.  0.
<mgrwt>
<rscale>  0 0.12068577E+04</rscale>
<asrwt>0</asrwt>
<pdfrwt beam="1">  1        1 0.43100526E+00 0.12068577E+04</pdfrwt>
<pdfrwt beam="2">  1       -1 0.17241438E-01 0.12068577E+04</pdfrwt>
<totfact> 0.21767615E+01</totfact>
</mgrwt>
</event>
<event>
 4    1  0.2428650E-005  0.7504493E+03  0.7818608E-02  0.9634646E-01
         -1   -1    0    0    0  501 -0.00000000000E+00  0.00000000000E+00  0.11993331336E+03  0.11993331347E+03  0.50400000000E-02 0. -1.
          1   -1    0    0  501    0  0.00000000000E+00 -0.00000000000E+00 -0.11739317408E+04  0.11739317408E+04  0.50400000000E-02 0.  1.
    5000001    1    1    2    0    0 -0.19464893510E+03  0.26834035151E+03 -0.63150099738E+03  0.73206096868E+03  0.16500000000E+03 0.  0.
   -5000001    1    1    2    0    0  0.19464893510E+03 -0.26834035151E+03 -0.42249743008E+03  0.56180408561E+03  0.16500000000E+03 0.  0.
<mgrwt>
<rscale>  0 0.75044926E+03</rscale>
<asrwt>0</asrwt>
<pdfrwt beam="1">  1        1 0.16770453E+00 0.75044926E+03</pdfrwt>
<pdfrwt beam="2">  1       -1 0.17133331E-01 0.75044926E+03</pdfrwt>
<totfact> 0.34493425E+02</totfact>
</mgrwt>
</event>
<event>
 4    1  0.2428650E-005  0.4701884E+03  0.7818608E-02  0.1021867E+00
         -1   -1    0    0    0  501 -0.00000000000E+00  0.00000000000E+00  0.20845194181E+03  0.20845194187E+03  0.50400000000E-02 0. -1.
          1   -1    0    0  501    0  0.00000000000E+00 -0.00000000000E+00 -0.26514159117E+03  0.26514159122E+03  0.50400000000E-02 0.  1.
    5000001    1    1    2    0    0  0.82856332330E+01  0.13650949129E+03 -0.12569250154E+03  0.24844938695E+03  0.16500000000E+03 0.  0.
   -5000001    1    1    2    0    0 -0.82856332330E+01 -0.13650949129E+03  0.69002852178E+02  0.22514414614E+03  0.16500000000E+03 0.  0.
<mgrwt>
<rscale>  0 0.47018839E+03</rscale>
<asrwt>0</asrwt>
<pdfrwt beam="1">  1        1 0.37877370E-01 0.47018839E+03</pdfrwt>
<pdfrwt beam="2">  1       -1 0.29778849E-01 0.47018839E+03</pdfrwt>
<totfact> 0.11712940E+03</totfact>
</mgrwt>
</event>
<event>
 4    1  0.2428650E-005  0.5980870E+03  0.7818608E-02  0.9909383E-01
          1   -1    0    0  501    0  0.00000000000E+00  0.00000000000E+00  0.57789973365E+03  0.57789973367E+03  0.50400000000E-02 0.  1.
         -1   -1    0    0    0  501 -0.00000000000E+00 -0.00000000000E+00 -0.15474486346E+03  0.15474486354E+03  0.50400000000E-02 0. -1.
    5000001    1    1    2    0    0  0.18399490920E+03  0.10291106428E+02  0.41743961760E+03  0.48522249312E+03  0.16500000000E+03 0.  0.
   -5000001    1    1    2    0    0 -0.18399490920E+03 -0.10291106428E+02  0.57152525904E+01  0.24742210409E+03  0.16500000000E+03 0.  0.
<mgrwt>
<rscale>  0 0.59808700E+03</rscale>
<asrwt>0</asrwt>
<pdfrwt beam="1">  1        1 0.82557106E-01 0.59808700E+03</pdfrwt>
<pdfrwt beam="2">  1       -1 0.22106409E-01 0.59808700E+03</pdfrwt>
<totfact> 0.69864940E+02</totfact>
</mgrwt>
</event>
<event>
 4    1  0.2428650E-005  0.3958409E+03  0.7818608E-02  0.1045229E+00
          1   -1    0    0  501    0  0.00000000000E+00  0.00000000000E+00  0.14777635106E+04  0.14777635106E+04  0.50400000000E-02 0.  1.
         -1   -1    0    0    0  501 -0.00000000000E+00 -0.00000000000E+00 -0.26507970134E+02  0.26507970613E+02  0.50400000000E-02 0. -1.
    5000001    1    1    2    0    0 -0.72482559697E+02  0.40793386509E+02  0.45611701093E+03  0.49212351042E+03  0.16500000000E+03 0.  0.
   -5000001    1    1    2    0    0  0.72482559697E+02 -0.40793386509E+02  0.99513852953E+03  0.10121479708E+04  0.16500000000E+03 0.  0.
<mgrwt>
<rscale>  0 0.39584093E+03</rscale>
<asrwt>0</asrwt>
<pdfrwt beam="1">  1        1 0.21110915E+00 0.39584093E+03</pdfrwt>
<pdfrwt beam="2">  1       -1 0.37868515E-02 0.39584093E+03</pdfrwt>
<totfact> 0.23258256E+03</totfact>
</mgrwt>
</event>
<event>
 4    1  0.2428650E-005  0.1028137E+04  0.7818608E-02  0.9278211E-01
         -1   -1    0    0    0  501 -0.00000000000E+00  0.00000000000E+00  0.40639320803E+03  0.40639320806E+03  0.50400000000E-02 0. -1.
          1   -1    0    0  501    0  0.00000000000E+00 -0.00000000000E+00 -0.65027327314E+03  0.65027327316E+03  0.50400000000E-02 0.  1.
    5000001    1    1    2    0    0  0.32559022275E+03 -0.36075557684E+03 -0.15256731472E+03  0.53540205911E+03  0.16500000000E+03 0.  0.
   -5000001    1    1    2    0    0 -0.32559022275E+03  0.36075557684E+03 -0.91312750384E+02  0.52126442211E+03  0.16500000000E+03 0.  0.
<mgrwt>
<rscale>  0 0.10281374E+04</rscale>
<asrwt>0</asrwt>
<pdfrwt beam="1">  1        1 0.92896182E-01 0.10281374E+04</pdfrwt>
<pdfrwt beam="2">  1       -1 0.58056172E-01 0.10281374E+04</pdfrwt>
<totfact> 0.10214066E+02</totfact>
</mgrwt>
</event>
<event>
 4    1  0.2428650E-005  0.4920961E+03  0.7818608E-02  0.1015863E+00
          1   -1    0    0  501    0  0.00000000000E+00  0.00000000000E+00  0.67102441772E+02  0.67102441961E+02  0.50400000000E-02 0.  1.
         -1   -1    0    0    0  501 -0.00000000000E+00 -0.00000000000E+00 -0.90219725746E+03  0.90219725747E+03  0.50400000000E-02 0. -1.
    5000001    1    1    2    0    0 -0.11628428863E+03  0.11271240144E+03 -0.25170870721E+03  0.34177243087E+03  0.16500000000E+03 0.  0.
   -5000001    1    1    2    0    0  0.11628428863E+03 -0.11271240144E+03 -0.58338610848E+03  0.62752726856E+03  0.16500000000E+03 0.  0.
<mgrwt>
<rscale>  0 0.49209608E+03</rscale>
<asrwt>0</asrwt>
<pdfrwt beam="1">  1        1 0.95860637E-02 0.49209608E+03</pdfrwt>
<pdfrwt beam="2">  1       -1 0.12888532E+00 0.49209608E+03</pdfrwt>
<totfact> 0.37612102E+02</totfact>
</mgrwt>
</event>
<event>
 4    1  0.2428650E-005  0.5157784E+03  0.7818608E-02  0.1009741E+00
          1   -1    0    0  501    0  0.00000000000E+00  0.00000000000E+00  0.62706536093E+03  0.62706536095E+03  0.50400000000E-02 0. -1.
         -1   -1    0    0    0  501 -0.00000000000E+00 -0.00000000000E+00 -0.10606044000E+03  0.10606044012E+03  0.50400000000E-02 0.  1.
    5000001    1    1    2    0    0 -0.53006228007E+02  0.13467030418E+03  0.45297492339E+03  0.50334583762E+03  0.16500000000E+03 0.  0.
   -5000001    1    1    2    0    0  0.53006228007E+02 -0.13467030418E+03  0.68029997545E+02  0.22977996345E+03  0.16500000000E+03 0.  0.
<mgrwt>
<rscale>  0 0.51577836E+03</rscale>
<asrwt>0</asrwt>
<pdfrwt beam="1">  1        1 0.89580768E-01 0.51577836E+03</pdfrwt>
<pdfrwt beam="2">  1       -1 0.15151491E-01 0.51577836E+03</pdfrwt>
<totfact> 0.11612607E+03</totfact>
</mgrwt>
</event>
<event>
 4    1  0.2428650E-005  0.6416302E+03  0.7818608E-02  0.9822612E-01
         -1   -1    0    0    0  501 -0.00000000000E+00  0.00000000000E+00  0.17844477275E+03  0.17844477282E+03  0.50400000000E-02 0. -1.
          1   -1    0    0  501    0  0.00000000000E+00 -0.00000000000E+00 -0.57677415286E+03  0.57677415289E+03  0.50400000000E-02 0.  1.
    5000001    1    1    2    0    0 -0.85726643598E+02  0.25959588850E+03 -0.23560041840E+03  0.39682696468E+03  0.16500000000E+03 0.  0.
   -5000001    1    1    2    0    0  0.85726643598E+02 -0.25959588850E+03 -0.16272896172E+03  0.35839196103E+03  0.16500000000E+03 0.  0.
<mgrwt>
<rscale>  0 0.64163021E+03</rscale>
<asrwt>0</asrwt>
<pdfrwt beam="1">  1        1 0.82396307E-01 0.64163021E+03</pdfrwt>
<pdfrwt beam="2">  1       -1 0.25492111E-01 0.64163021E+03</pdfrwt>
<totfact> 0.55004113E+02</totfact>
</mgrwt>
</event>
<event>
 4    1  0.2428650E-005  0.5722852E+03  0.7818608E-02  0.9964635E-01
          1   -1    0    0  501    0  0.00000000000E+00  0.00000000000E+00  0.62605954167E+02  0.62605954370E+02  0.50400000000E-02 0. -1.
         -1   -1    0    0    0  501 -0.00000000000E+00 -0.00000000000E+00 -0.13078242296E+04  0.13078242296E+04  0.50400000000E-02 0.  1.
    5000001    1    1    2    0    0  0.15934156222E+03  0.86026538529E+02 -0.97668162969E+03  0.10069370907E+04  0.16500000000E+03 0.  0.
   -5000001    1    1    2    0    0 -0.15934156222E+03 -0.86026538529E+02 -0.26853664575E+03  0.36349309333E+03  0.16500000000E+03 0.  0.
<mgrwt>
<rscale>  0 0.57228519E+03</rscale>
<asrwt>0</asrwt>
<pdfrwt beam="1">  1        1 0.89437085E-02 0.57228519E+03</pdfrwt>
<pdfrwt beam="2">  1       -1 0.18683202E+00 0.57228519E+03</pdfrwt>
<totfact> 0.15007510E+02</totfact>
</mgrwt>
</event>
<event>
 4    1  0.2428650E-005  0.3873151E+03  0.7818608E-02  0.1048263E+00
         -1   -1    0    0    0  501 -0.00000000000E+00  0.00000000000E+00  0.14093122533E+03  0.14093122542E+03  0.50400000000E-02 0. -1.
          1   -1    0    0  501    0  0.00000000000E+00 -0.00000000000E+00 -0.26611030600E+03  0.26611030605E+03  0.50400000000E-02 0.  1.
    5000001    1    1    2    0    0  0.89910536314E+02 -0.40328479029E+02 -0.37543825343E+02  0.19581835865E+03  0.16500000000E+03 0.  0.
   -5000001    1    1    2    0    0 -0.89910536314E+02  0.40328479029E+02 -0.87635255329E+02  0.21122317282E+03  0.16500000000E+03 0.  0.
<mgrwt>
<rscale>  0 0.38731513E+03</rscale>
<asrwt>0</asrwt>
<pdfrwt beam="1">  1        1 0.38015758E-01 0.38731513E+03</pdfrwt>
<pdfrwt beam="2">  1       -1 0.20133032E-01 0.38731513E+03</pdfrwt>
<totfact> 0.22476273E+03</totfact>
</mgrwt>
</event>
<event>
 4    1  0.2428650E-005  0.1134638E+04  0.7818608E-02  0.9172073E-01
          1   -1    0    0  501    0  0.00000000000E+00  0.00000000000E+00  0.33414220302E+04  0.33414220302E+04  0.50400000000E-02 0.  1.
         -1   -1    0    0    0  501 -0.00000000000E+00 -0.00000000000E+00 -0.96321569501E+02  0.96321569633E+02  0.50400000000E-02 0. -1.
    5000001    1    1    2    0    0 -0.44384506291E+03 -0.29801286762E+03  0.13380716932E+04  0.14503347769E+04  0.16500000000E+03 0.  0.
   -5000001    1    1    2    0    0  0.44384506291E+03  0.29801286762E+03  0.19070287675E+04  0.19874088229E+04  0.16500000000E+03 0.  0.
<mgrwt>
<rscale>  0 0.11346383E+04</rscale>
<asrwt>0</asrwt>
<pdfrwt beam="1">  1        1 0.47734613E+00 0.11346383E+04</pdfrwt>
<pdfrwt beam="2">  1       -1 0.13760221E-01 0.11346383E+04</pdfrwt>
<totfact> 0.19266562E+01</totfact>
</mgrwt>
</event>
<event>
 4    1  0.2428650E-005  0.4996553E+03  0.7818608E-02  0.1013869E+00
          1   -1    0    0  501    0  0.00000000000E+00  0.00000000000E+00  0.13846053348E+04  0.13846053348E+04  0.50400000000E-02 0. -1.
         -1   -1    0    0    0  501 -0.00000000000E+00 -0.00000000000E+00 -0.45076995371E+02  0.45076995652E+02  0.50400000000E-02 0.  1.
    5000001    1    1    2    0    0  0.22100960901E+01  0.18669135334E+03  0.61776157320E+03  0.66611778782E+03  0.16500000000E+03 0.  0.
   -5000001    1    1    2    0    0 -0.22100960901E+01 -0.18669135334E+03  0.72176676620E+03  0.76356454260E+03  0.16500000000E+03 0.  0.
<mgrwt>
<rscale>  0 0.49965528E+03</rscale>
<asrwt>0</asrwt>
<pdfrwt beam="1">  1        1 0.19780073E+00 0.49965528E+03</pdfrwt>
<pdfrwt beam="2">  1       -1 0.64395719E-02 0.49965528E+03</pdfrwt>
<totfact> 0.11886582E+03</totfact>
</mgrwt>
</event>
<event>
 4    1  0.2428650E-005  0.1480626E+04  0.7818608E-02  0.8897439E-01
          1   -1    0    0  501    0  0.00000000000E+00  0.00000000000E+00  0.14022923847E+04  0.14022923847E+04  0.50400000000E-02 0.  1.
         -1   -1    0    0    0  501 -0.00000000000E+00 -0.00000000000E+00 -0.39083403972E+03  0.39083403975E+03  0.50400000000E-02 0. -1.
    5000001    1    1    2    0    0 -0.67559748707E+03 -0.88700600373E+02  0.21776472650E+03  0.73412957790E+03  0.16500000000E+03 0.  0.
   -5000001    1    1    2    0    0  0.67559748707E+03  0.88700600373E+02  0.79369361850E+03  0.10589968466E+04  0.16500000000E+03 0.  0.
<mgrwt>
<rscale>  0 0.14806264E+04</rscale>
<asrwt>0</asrwt>
<pdfrwt beam="1">  1        1 0.20032748E+00 0.14806264E+04</pdfrwt>
<pdfrwt beam="2">  1       -1 0.55833435E-01 0.14806264E+04</pdfrwt>
<totfact> 0.28388853E+01</totfact>
</mgrwt>
</event>
<event>
 4    1  0.2428650E-005  0.3373500E+03  0.7818608E-02  0.1067930E+00
         -1   -1    0    0    0  501 -0.00000000000E+00  0.00000000000E+00  0.42438484992E+02  0.42438485292E+02  0.50400000000E-02 0. -1.
          1   -1    0    0  501    0  0.00000000000E+00 -0.00000000000E+00 -0.67041148304E+03  0.67041148306E+03  0.50400000000E-02 0.  1.
    5000001    1    1    2    0    0  0.31824055454E+01 -0.34282191567E+02 -0.32749232074E+03  0.36832270702E+03  0.16500000000E+03 0.  0.
   -5000001    1    1    2    0    0 -0.31824055454E+01  0.34282191567E+02 -0.30048067730E+03  0.34452726133E+03  0.16500000000E+03 0.  0.
<mgrwt>
<rscale>  0 0.33734995E+03</rscale>
<asrwt>0</asrwt>
<pdfrwt beam="1">  1        1 0.95773062E-01 0.33734995E+03</pdfrwt>
<pdfrwt beam="2">  1       -1 0.60626412E-02 0.33734995E+03</pdfrwt>
<totfact> 0.44053353E+03</totfact>
</mgrwt>
</event>
<event>
 4    1  0.2428650E-005  0.7610630E+03  0.7818608E-02  0.9618152E-01
         -1   -1    0    0    0  501 -0.00000000000E+00  0.00000000000E+00  0.59234163161E+02  0.59234163376E+02  0.50400000000E-02 0. -1.
          1   -1    0    0  501    0  0.00000000000E+00 -0.00000000000E+00 -0.24446066678E+04  0.24446066678E+04  0.50400000000E-02 0.  1.
    5000001    1    1    2    0    0 -0.11186960489E+03 -0.31776622647E+03 -0.98230978178E+03  0.10514978319E+04  0.16500000000E+03 0.  0.
   -5000001    1    1    2    0    0  0.11186960489E+03  0.31776622647E+03 -0.14030627228E+04  0.14523429992E+04  0.16500000000E+03 0.  0.
<mgrwt>
<rscale>  0 0.76106302E+03</rscale>
<asrwt>0</asrwt>
<pdfrwt beam="1">  1        1 0.34922946E+00 0.76106302E+03</pdfrwt>
<pdfrwt beam="2">  1       -1 0.84620249E-02 0.76106302E+03</pdfrwt>
<totfact> 0.16588387E+02</totfact>
</mgrwt>
</event>
<event>
 4    1  0.2428650E-005  0.4504508E+03  0.7818608E-02  0.1027588E+00
         -1   -1    0    0    0  501 -0.00000000000E+00  0.00000000000E+00  0.51250178616E+03  0.51250178618E+03  0.50400000000E-02 0.  1.
          1   -1    0    0  501    0  0.00000000000E+00 -0.00000000000E+00 -0.98978166638E+02  0.98978166766E+02  0.50400000000E-02 0. -1.
    5000001    1    1    2    0    0  0.65306887879E+02 -0.12161419810E+03  0.11624208545E+03  0.24452448797E+03  0.16500000000E+03 0.  0.
   -5000001    1    1    2    0    0 -0.65306887879E+02  0.12161419810E+03  0.29728153407E+03  0.36695546498E+03  0.16500000000E+03 0.  0.
<mgrwt>
<rscale>  0 0.45045083E+03</rscale>
<asrwt>0</asrwt>
<pdfrwt beam="1">  1        1 0.14139738E-01 0.45045083E+03</pdfrwt>
<pdfrwt beam="2">  1       -1 0.73214543E-01 0.45045083E+03</pdfrwt>
<totfact> 0.79139051E+02</totfact>
</mgrwt>
</event>
<event>
 4    1  0.2428650E-005  0.6245376E+03  0.7818608E-02  0.9855767E-01
          1   -1    0    0  501    0  0.00000000000E+00  0.00000000000E+00  0.72005342092E+03  0.72005342094E+03  0.50400000000E-02 0.  1.
         -1   -1    0    0    0  501 -0.00000000000E+00 -0.00000000000E+00 -0.13542303248E+03  0.13542303257E+03  0.50400000000E-02 0. -1.
    5000001    1    1    2    0    0 -0.19211454300E+03  0.14893136056E+03  0.14736296230E+03  0.32867824760E+03  0.16500000000E+03 0.  0.
   -5000001    1    1    2    0    0  0.19211454300E+03 -0.14893136056E+03  0.43726742614E+03  0.52679820591E+03  0.16500000000E+03 0.  0.
<mgrwt>
<rscale>  0 0.62453765E+03</rscale>
<asrwt>0</asrwt>
<pdfrwt beam="1">  1        1 0.10286477E+00 0.62453765E+03</pdfrwt>
<pdfrwt beam="2">  1       -1 0.19346147E-01 0.62453765E+03</pdfrwt>
<totfact> 0.63644336E+02</totfact>
</mgrwt>
</event>
<event>
 4    1  0.2428650E-005  0.4035754E+03  0.7818608E-02  0.1042549E+00
         -1   -1    0    0    0  501 -0.00000000000E+00  0.00000000000E+00  0.31237934523E+03  0.31237934527E+03  0.50400000000E-02 0. -1.
          1   -1    0    0  501    0  0.00000000000E+00 -0.00000000000E+00 -0.13034883016E+03  0.13034883026E+03  0.50400000000E-02 0.  1.
    5000001    1    1    2    0    0  0.33342851616E+02 -0.47866334094E+02  0.20121119123E+03  0.26667184922E+03  0.16500000000E+03 0.  0.
   -5000001    1    1    2    0    0 -0.33342851616E+02  0.47866334094E+02 -0.19180676158E+02  0.17605632630E+03  0.16500000000E+03 0.  0.
<mgrwt>
<rscale>  0 0.40357543E+03</rscale>
<asrwt>0</asrwt>
<pdfrwt beam="1">  1        1 0.18621262E-01 0.40357543E+03</pdfrwt>
<pdfrwt beam="2">  1       -1 0.44625620E-01 0.40357543E+03</pdfrwt>
<totfact> 0.14279733E+03</totfact>
</mgrwt>
</event>
<event>
 4    1  0.2428650E-005  0.4063692E+03  0.7818608E-02  0.1041596E+00
         -1   -1    0    0    0  501 -0.00000000000E+00  0.00000000000E+00  0.55064285926E+02  0.55064286157E+02  0.50400000000E-02 0. -1.
          1   -1    0    0  501    0  0.00000000000E+00 -0.00000000000E+00 -0.74974153762E+03  0.74974153763E+03  0.50400000000E-02 0.  1.
    5000001    1    1    2    0    0  0.78217771970E+02 -0.70057112836E+02 -0.45640827603E+03  0.49654761437E+03  0.16500000000E+03 0.  0.
   -5000001    1    1    2    0    0 -0.78217771970E+02  0.70057112836E+02 -0.23826897566E+03  0.30825820942E+03  0.16500000000E+03 0.  0.
<mgrwt>
<rscale>  0 0.40636920E+03</rscale>
<asrwt>0</asrwt>
<pdfrwt beam="1">  1        1 0.10710593E+00 0.40636920E+03</pdfrwt>
<pdfrwt beam="2">  1       -1 0.78663270E-02 0.40636920E+03</pdfrwt>
<totfact> 0.25217881E+03</totfact>
</mgrwt>
</event>
<event>
 4    1  0.2428650E-005  0.1087549E+04  0.7818608E-02  0.9217413E-01
          1   -1    0    0  501    0  0.00000000000E+00  0.00000000000E+00  0.35114729289E+03  0.35114729293E+03  0.50400000000E-02 0.  1.
         -1   -1    0    0    0  501 -0.00000000000E+00 -0.00000000000E+00 -0.84207086490E+03  0.84207086491E+03  0.50400000000E-02 0. -1.
    5000001    1    1    2    0    0  0.35698639850E+03 -0.15865461183E+03 -0.61890870814E+03  0.75025566548E+03  0.16500000000E+03 0.  0.
   -5000001    1    1    2    0    0 -0.35698639850E+03  0.15865461183E+03  0.12798513614E+03  0.44296249236E+03  0.16500000000E+03 0.  0.
<mgrwt>
<rscale>  0 0.10875494E+04</rscale>
<asrwt>0</asrwt>
<pdfrwt beam="1">  1        1 0.50163899E-01 0.10875494E+04</pdfrwt>
<pdfrwt beam="2">  1       -1 0.12029584E+00 0.10875494E+04</pdfrwt>
<totfact> 0.48279099E+01</totfact>
</mgrwt>
</event>
<event>
 4    1  0.2428650E-005  0.7343537E+03  0.7818608E-02  0.9660222E-01
         -1   -1    0    0    0  501 -0.00000000000E+00  0.00000000000E+00  0.14887176589E+03  0.14887176598E+03  0.50400000000E-02 0.  1.
          1   -1    0    0  501    0  0.00000000000E+00 -0.00000000000E+00 -0.90560386557E+03  0.90560386559E+03  0.50400000000E-02 0. -1.
    5000001    1    1    2    0    0 -0.29957249337E+03  0.10591785085E+03 -0.26143236100E+03  0.44332172210E+03  0.16500000000E+03 0.  0.
   -5000001    1    1    2    0    0  0.29957249337E+03 -0.10591785085E+03 -0.49529973869E+03  0.61115390946E+03  0.16500000000E+03 0.  0.
<mgrwt>
<rscale>  0 0.73435372E+03</rscale>
<asrwt>0</asrwt>
<pdfrwt beam="1">  1        1 0.12937198E+00 0.73435372E+03</pdfrwt>
<pdfrwt beam="2">  1       -1 0.21267396E-01 0.73435372E+03</pdfrwt>
<totfact> 0.37942271E+02</totfact>
</mgrwt>
</event>
<event>
 4    1  0.2428650E-005  0.7811812E+03  0.7818608E-02  0.9587663E-01
          1   -1    0    0  501    0  0.00000000000E+00  0.00000000000E+00  0.47248162233E+03  0.47248162236E+03  0.50400000000E-02 0. -1.
         -1   -1    0    0    0  501 -0.00000000000E+00 -0.00000000000E+00 -0.32289299964E+03  0.32289299968E+03  0.50400000000E-02 0.  1.
    5000001    1    1    2    0    0 -0.10356781984E+03  0.30686699036E+03 -0.70780263657E+02  0.37030863993E+03  0.16500000000E+03 0.  0.
   -5000001    1    1    2    0    0  0.10356781984E+03 -0.30686699036E+03  0.22036888635E+03  0.42506598211E+03  0.16500000000E+03 0.  0.
<mgrwt>
<rscale>  0 0.78118118E+03</rscale>
<asrwt>0</asrwt>
<pdfrwt beam="1">  1        1 0.67497375E-01 0.78118118E+03</pdfrwt>
<pdfrwt beam="2">  1       -1 0.46127571E-01 0.78118118E+03</pdfrwt>
<totfact> 0.25040350E+02</totfact>
</mgrwt>
</event>
<event>
 4    1  0.2428650E-005  0.6010295E+03  0.7818608E-02  0.9903272E-01
         -1   -1    0    0    0  501 -0.00000000000E+00  0.00000000000E+00  0.34482248995E+02  0.34482249363E+02  0.50400000000E-02 0. -1.
          1   -1    0    0  501    0  0.00000000000E+00 -0.00000000000E+00 -0.26190032545E+04  0.26190032546E+04  0.50400000000E-02 0.  1.
    5000001    1    1    2    0    0  0.15520170667E+02  0.24450691046E+03 -0.15364654773E+04  0.15646008015E+04  0.16500000000E+03 0.  0.
   -5000001    1    1    2    0    0 -0.15520170667E+02 -0.24450691046E+03 -0.10480555282E+04  0.10888847024E+04  0.16500000000E+03 0.  0.
<mgrwt>
<rscale>  0 0.60102953E+03</rscale>
<asrwt>0</asrwt>
<pdfrwt beam="1">  1        1 0.37414320E+00 0.60102953E+03</pdfrwt>
<pdfrwt beam="2">  1       -1 0.49260373E-02 0.60102953E+03</pdfrwt>
<totfact> 0.30263524E+02</totfact>
</mgrwt>
</event>
<event>
 4    1  0.2428650E-005  0.5865140E+03  0.7818608E-02  0.9933787E-01
          1   -1    0    0  501    0  0.00000000000E+00  0.00000000000E+00  0.18874951416E+04  0.18874951416E+04  0.50400000000E-02 0.  1.
         -1   -1    0    0    0  501 -0.00000000000E+00 -0.00000000000E+00 -0.45562854599E+02  0.45562854878E+02  0.50400000000E-02 0. -1.
    5000001    1    1    2    0    0  0.16858885934E+03 -0.12239796430E+03  0.13295868930E+04  0.13558870791E+04  0.16500000000E+03 0.  0.
   -5000001    1    1    2    0    0 -0.16858885934E+03  0.12239796430E+03  0.51234539403E+03  0.57717091744E+03  0.16500000000E+03 0.  0.
<mgrwt>
<rscale>  0 0.58651400E+03</rscale>
<asrwt>0</asrwt>
<pdfrwt beam="1">  1        1 0.26964218E+00 0.58651400E+03</pdfrwt>
<pdfrwt beam="2">  1       -1 0.65089789E-02 0.58651400E+03</pdfrwt>
<totfact> 0.56075683E+02</totfact>
</mgrwt>
</event>
<event>
 4    1  0.2428650E-005  0.4324253E+03  0.7818608E-02  0.1033097E+00
          1   -1    0    0  501    0  0.00000000000E+00  0.00000000000E+00  0.99700466229E+03  0.99700466230E+03  0.50400000000E-02 0.  1.
         -1   -1    0    0    0  501 -0.00000000000E+00 -0.00000000000E+00 -0.46888362232E+02  0.46888362503E+02  0.50400000000E-02 0. -1.
    5000001    1    1    2    0    0  0.91758962027E+02 -0.93336836083E+02  0.35700571100E+03  0.41449915533E+03  0.16500000000E+03 0.  0.
   -5000001    1    1    2    0    0 -0.91758962027E+02  0.93336836083E+02  0.59311058905E+03  0.62939386947E+03  0.16500000000E+03 0.  0.
<mgrwt>
<rscale>  0 0.43242533E+03</rscale>
<asrwt>0</asrwt>
<pdfrwt beam="1">  1        1 0.14242923E+00 0.43242533E+03</pdfrwt>
<pdfrwt beam="2">  1       -1 0.66983379E-02 0.43242533E+03</pdfrwt>
<totfact> 0.20639093E+03</totfact>
</mgrwt>
</event>
<event>
 4    1  0.2428650E-005  0.4832853E+03  0.7818608E-02  0.1018236E+00
          1   -1    0    0  501    0  0.00000000000E+00  0.00000000000E+00  0.24962308928E+03  0.24962308933E+03  0.50400000000E-02 0.  1.
         -1   -1    0    0    0  501 -0.00000000000E+00 -0.00000000000E+00 -0.23391729887E+03  0.23391729892E+03  0.50400000000E-02 0. -1.
    5000001    1    1    2    0    0 -0.39051479262E+02  0.17215597239E+03  0.97145071075E+01  0.24183066082E+03  0.16500000000E+03 0.  0.
   -5000001    1    1    2    0    0  0.39051479262E+02 -0.17215597239E+03  0.59912833021E+01  0.24170972744E+03  0.16500000000E+03 0.  0.
<mgrwt>
<rscale>  0 0.48328525E+03</rscale>
<asrwt>0</asrwt>
<pdfrwt beam="1">  1        1 0.35660441E-01 0.48328525E+03</pdfrwt>
<pdfrwt beam="2">  1       -1 0.33416757E-01 0.48328525E+03</pdfrwt>
<totfact> 0.10355714E+03</totfact>
</mgrwt>
</event>
<event>
 4    1  0.2428650E-005  0.9355302E+03  0.7818608E-02  0.9382225E-01
          1   -1    0    0  501    0  0.00000000000E+00  0.00000000000E+00  0.74582860453E+03  0.74582860455E+03  0.50400000000E-02 0.  1.
         -1   -1    0    0    0  501 -0.00000000000E+00 -0.00000000000E+00 -0.29337058503E+03  0.29337058508E+03  0.50400000000E-02 0. -1.
    5000001    1    1    2    0    0 -0.11982535122E+03  0.42092819745E+03  0.21915880194E+03  0.51652128966E+03  0.16500000000E+03 0.  0.
   -5000001    1    1    2    0    0  0.11982535122E+03 -0.42092819745E+03  0.23329921756E+03  0.52267789997E+03  0.16500000000E+03 0.  0.
<mgrwt>
<rscale>  0 0.93553017E+03</rscale>
<asrwt>0</asrwt>
<pdfrwt beam="1">  1        1 0.10654694E+00 0.93553017E+03</pdfrwt>
<pdfrwt beam="2">  1       -1 0.41910084E-01 0.93553017E+03</pdfrwt>
<totfact> 0.15553720E+02</totfact>
</mgrwt>
</event>
<event>
 4    1  0.2428650E-005  0.5654870E+03  0.7818608E-02  0.9979715E-01
          1   -1    0    0  501    0  0.00000000000E+00  0.00000000000E+00  0.20788180581E+04  0.20788180581E+04  0.50400000000E-02 0.  1.
         -1   -1    0    0    0  501 -0.00000000000E+00 -0.00000000000E+00 -0.38456410709E+02  0.38456411040E+02  0.50400000000E-02 0. -1.
    5000001    1    1    2    0    0 -0.84474120704E+02  0.21217961660E+03  0.93135541073E+03  0.97303852332E+03  0.16500000000E+03 0.  0.
   -5000001    1    1    2    0    0  0.84474120704E+02 -0.21217961660E+03  0.11090062366E+04  0.11442359458E+04  0.16500000000E+03 0.  0.
<mgrwt>
<rscale>  0 0.56548698E+03</rscale>
<asrwt>0</asrwt>
<pdfrwt beam="1">  1        1 0.29697410E+00 0.56548698E+03</pdfrwt>
<pdfrwt beam="2">  1       -1 0.54937712E-02 0.56548698E+03</pdfrwt>
<totfact> 0.55542930E+02</totfact>
</mgrwt>
</event>
<event>
 4    1  0.2428650E-005  0.7635194E+03  0.7818608E-02  0.9614376E-01
         -1   -1    0    0    0  501 -0.00000000000E+00  0.00000000000E+00  0.26591458677E+03  0.26591458682E+03  0.50400000000E-02 0. -1.
          1   -1    0    0  501    0  0.00000000000E+00 -0.00000000000E+00 -0.54807250368E+03  0.54807250370E+03  0.50400000000E-02 0.  1.
    5000001    1    1    2    0    0  0.11927777072E+03 -0.30658460554E+03 -0.32912396453E+02  0.36949902947E+03  0.16500000000E+03 0.  0.
   -5000001    1    1    2    0    0 -0.11927777072E+03  0.30658460554E+03 -0.24924552046E+03  0.44448806105E+03  0.16500000000E+03 0.  0.
<mgrwt>
<rscale>  0 0.76351941E+03</rscale>
<asrwt>0</asrwt>
<pdfrwt beam="1">  1        1 0.78296072E-01 0.76351941E+03</pdfrwt>
<pdfrwt beam="2">  1       -1 0.37987798E-01 0.76351941E+03</pdfrwt>
<totfact> 0.29235857E+02</totfact>
</mgrwt>
</event>
<event>
 4    1  0.2428650E-005  0.9223742E+03  0.7818608E-02  0.9398037E-01
          1   -1    0    0  501    0  0.00000000000E+00  0.00000000000E+00  0.12594559381E+03  0.12594559391E+03  0.50400000000E-02 0.  1.
         -1   -1    0    0    0  501 -0.00000000000E+00 -0.00000000000E+00 -0.16887733371E+04  0.16887733371E+04  0.50400000000E-02 0. -1.
    5000001    1    1    2    0    0 -0.13200931062E+03  0.38441429638E+03 -0.50131910891E+03  0.66614312149E+03  0.16500000000E+03 0.  0.
   -5000001    1    1    2    0    0  0.13200931062E+03 -0.38441429638E+03 -0.10615086344E+04  0.11485758095E+04  0.16500000000E+03 0.  0.
<mgrwt>
<rscale>  0 0.92237424E+03</rscale>
<asrwt>0</asrwt>
<pdfrwt beam="1">  1        1 0.17992229E-01 0.92237424E+03</pdfrwt>
<pdfrwt beam="2">  1       -1 0.24125332E+00 0.92237424E+03</pdfrwt>
<totfact> 0.24391860E+01</totfact>
</mgrwt>
</event>
<event>
 4    1  0.2428650E-005  0.4906796E+03  0.7818608E-02  0.1016241E+00
         -1   -1    0    0    0  501 -0.00000000000E+00  0.00000000000E+00  0.39840885750E+03  0.39840885754E+03  0.50400000000E-02 0. -1.
          1   -1    0    0  501    0  0.00000000000E+00 -0.00000000000E+00 -0.15107999679E+03  0.15107999687E+03  0.50400000000E-02 0.  1.
    5000001    1    1    2    0    0  0.91175197020E+02 -0.15418064721E+03  0.90406115886E+02  0.25977462215E+03  0.16500000000E+03 0.  0.
   -5000001    1    1    2    0    0 -0.91175197020E+02  0.15418064721E+03  0.15692274483E+03  0.28971423225E+03  0.16500000000E+03 0.  0.
<mgrwt>
<rscale>  0 0.49067957E+03</rscale>
<asrwt>0</asrwt>
<pdfrwt beam="1">  1        1 0.21582857E-01 0.49067957E+03</pdfrwt>
<pdfrwt beam="2">  1       -1 0.56915551E-01 0.49067957E+03</pdfrwt>
<totfact> 0.74604870E+02</totfact>
</mgrwt>
</event>
<event>
 4    1  0.2428650E-005  0.4265255E+03  0.7818608E-02  0.1034963E+00
         -1   -1    0    0    0  501 -0.00000000000E+00  0.00000000000E+00  0.25495364382E+03  0.25495364387E+03  0.50400000000E-02 0.  1.
          1   -1    0    0  501    0  0.00000000000E+00 -0.00000000000E+00 -0.17838932272E+03  0.17838932279E+03  0.50400000000E-02 0. -1.
    5000001    1    1    2    0    0  0.20088446629E+02  0.11581589233E+03  0.10597398186E+03  0.22863147516E+03  0.16500000000E+03 0.  0.
   -5000001    1    1    2    0    0 -0.20088446629E+02 -0.11581589233E+03 -0.29409660763E+02  0.20471149149E+03  0.16500000000E+03 0.  0.
<mgrwt>
<rscale>  0 0.42652553E+03</rscale>
<asrwt>0</asrwt>
<pdfrwt beam="1">  1        1 0.25484189E-01 0.42652553E+03</pdfrwt>
<pdfrwt beam="2">  1       -1 0.36421949E-01 0.42652553E+03</pdfrwt>
<totfact> 0.13690077E+03</totfact>
</mgrwt>
</event>
<event>
 4    1  0.2428650E-005  0.4038402E+03  0.7818608E-02  0.1042458E+00
          1   -1    0    0  501    0  0.00000000000E+00  0.00000000000E+00  0.20384829584E+04  0.20384829584E+04  0.50400000000E-02 0. -1.
         -1   -1    0    0    0  501 -0.00000000000E+00 -0.00000000000E+00 -0.20001010717E+02  0.20001011352E+02  0.50400000000E-02 0.  1.
    5000001    1    1    2    0    0 -0.10561862165E+03 -0.14953736660E+02  0.77191304327E+03  0.79652599070E+03  0.16500000000E+03 0.  0.
   -5000001    1    1    2    0    0  0.10561862165E+03  0.14953736660E+02  0.12465689044E+04  0.12619579791E+04  0.16500000000E+03 0.  0.
<mgrwt>
<rscale>  0 0.40384017E+03</rscale>
<asrwt>0</asrwt>
<pdfrwt beam="1">  1        1 0.29121176E+00 0.40384017E+03</pdfrwt>
<pdfrwt beam="2">  1       -1 0.28572882E-02 0.40384017E+03</pdfrwt>
<totfact> 0.15948804E+03</totfact>
</mgrwt>
</event>
<event>
 4    1  0.2428650E-005  0.4178721E+03  0.7818608E-02  0.1037761E+00
         -1   -1    0    0    0  501 -0.00000000000E+00  0.00000000000E+00  0.62129419031E+02  0.62129419236E+02  0.50400000000E-02 0. -1.
          1   -1    0    0  501    0  0.00000000000E+00 -0.00000000000E+00 -0.70263445185E+03  0.70263445187E+03  0.50400000000E-02 0.  1.
    5000001    1    1    2    0    0 -0.38434265557E+02  0.11221256707E+03 -0.23133682635E+03  0.30791326734E+03  0.16500000000E+03 0.  0.
   -5000001    1    1    2    0    0  0.38434265557E+02 -0.11221256707E+03 -0.40916820646E+03  0.45685060376E+03  0.16500000000E+03 0.  0.
<mgrwt>
<rscale>  0 0.41787209E+03</rscale>
<asrwt>0</asrwt>
<pdfrwt beam="1">  1        1 0.10037635E+00 0.41787209E+03</pdfrwt>
<pdfrwt beam="2">  1       -1 0.88756317E-02 0.41787209E+03</pdfrwt>
<totfact> 0.23006908E+03</totfact>
</mgrwt>
</event>
<event>
 4    1  0.2428650E-005  0.3534226E+03  0.7818608E-02  0.1061219E+00
         -1   -1    0    0    0  501 -0.00000000000E+00  0.00000000000E+00  0.24402431623E+02  0.24402432144E+02  0.50400000000E-02 0. -1.
          1   -1    0    0  501    0  0.00000000000E+00 -0.00000000000E+00 -0.12796629699E+04  0.12796629699E+04  0.50400000000E-02 0.  1.
    5000001    1    1    2    0    0 -0.27988675159E+02 -0.25896196997E+01 -0.83674295350E+03  0.85331930852E+03  0.16500000000E+03 0.  0.
   -5000001    1    1    2    0    0  0.27988675159E+02  0.25896196997E+01 -0.41851758480E+03  0.45074609356E+03  0.16500000000E+03 0.  0.
<mgrwt>
<rscale>  0 0.35342263E+03</rscale>
<asrwt>0</asrwt>
<pdfrwt beam="1">  1        1 0.18280895E+00 0.35342263E+03</pdfrwt>
<pdfrwt beam="2">  1       -1 0.34860625E-02 0.35342263E+03</pdfrwt>
<totfact> 0.35337201E+03</totfact>
</mgrwt>
</event>
<event>
 4    1  0.2428650E-005  0.4560108E+03  0.7818608E-02  0.1025945E+00
          1   -1    0    0  501    0  0.00000000000E+00  0.00000000000E+00  0.34633802191E+02  0.34633802558E+02  0.50400000000E-02 0.  1.
         -1   -1    0    0    0  501 -0.00000000000E+00 -0.00000000000E+00 -0.15010326448E+04  0.15010326448E+04  0.50400000000E-02 0. -1.
    5000001    1    1    2    0    0  0.32110439641E+02  0.10707949304E+03 -0.36025478730E+03  0.41171059002E+03  0.16500000000E+03 0.  0.
   -5000001    1    1    2    0    0 -0.32110439641E+02 -0.10707949304E+03 -0.11061440553E+04  0.11239558573E+04  0.16500000000E+03 0.  0.
<mgrwt>
<rscale>  0 0.45601082E+03</rscale>
<asrwt>0</asrwt>
<pdfrwt beam="1">  1        1 0.49476870E-02 0.45601082E+03</pdfrwt>
<pdfrwt beam="2">  1       -1 0.21443319E+00 0.45601082E+03</pdfrwt>
<totfact> 0.22432462E+02</totfact>
</mgrwt>
</event>
<event>
 4    1  0.2428650E-005  0.8378405E+03  0.7818608E-02  0.9506804E-01
         -1   -1    0    0    0  501 -0.00000000000E+00  0.00000000000E+00  0.36264445585E+03  0.36264445589E+03  0.50400000000E-02 0. -1.
          1   -1    0    0  501    0  0.00000000000E+00 -0.00000000000E+00 -0.48392899131E+03  0.48392899133E+03  0.50400000000E-02 0.  1.
    5000001    1    1    2    0    0  0.16861361361E+03  0.76774978914E+02 -0.40171692466E+03  0.47215086110E+03  0.16500000000E+03 0.  0.
   -5000001    1    1    2    0    0 -0.16861361361E+03 -0.76774978914E+02  0.28043238920E+03  0.37442258612E+03  0.16500000000E+03 0.  0.
<mgrwt>
<rscale>  0 0.83784048E+03</rscale>
<asrwt>0</asrwt>
<pdfrwt beam="1">  1        1 0.69132713E-01 0.83784048E+03</pdfrwt>
<pdfrwt beam="2">  1       -1 0.51806351E-01 0.83784048E+03</pdfrwt>
<totfact> 0.19424478E+02</totfact>
</mgrwt>
</event>
<event>
 4    1  0.2428650E-005  0.4088365E+03  0.7818608E-02  0.1040762E+00
         -1   -1    0    0    0  501 -0.00000000000E+00  0.00000000000E+00  0.39036976248E+02  0.39036976573E+02  0.50400000000E-02 0. -1.
          1   -1    0    0  501    0  0.00000000000E+00 -0.00000000000E+00 -0.10704418350E+04  0.10704418350E+04  0.50400000000E-02 0.  1.
    5000001    1    1    2    0    0 -0.55294850659E+01 -0.10037700585E+03 -0.33455712502E+03  0.38634128489E+03  0.16500000000E+03 0.  0.
   -5000001    1    1    2    0    0  0.55294850659E+01  0.10037700585E+03 -0.69684773369E+03  0.72313752665E+03  0.16500000000E+03 0.  0.
<mgrwt>
<rscale>  0 0.40883646E+03</rscale>
<asrwt>0</asrwt>
<pdfrwt beam="1">  1        1 0.15292024E+00 0.40883646E+03</pdfrwt>
<pdfrwt beam="2">  1       -1 0.55767116E-02 0.40883646E+03</pdfrwt>
<totfact> 0.24181187E+03</totfact>
</mgrwt>
</event>
<event>
 4    1  0.2428650E-005  0.3865652E+03  0.7818608E-02  0.1048534E+00
         -1   -1    0    0    0  501 -0.00000000000E+00  0.00000000000E+00  0.10715842192E+03  0.10715842204E+03  0.50400000000E-02 0. -1.
          1   -1    0    0  501    0  0.00000000000E+00 -0.00000000000E+00 -0.34862553585E+03  0.34862553589E+03  0.50400000000E-02 0.  1.
    5000001    1    1    2    0    0  0.73540017770E+02  0.28133620007E+02 -0.46785395047E+02  0.18871541532E+03  0.16500000000E+03 0.  0.
   -5000001    1    1    2    0    0 -0.73540017770E+02 -0.28133620007E+02 -0.19468171888E+03  0.26706854262E+03  0.16500000000E+03 0.  0.
<mgrwt>
<rscale>  0 0.38656519E+03</rscale>
<asrwt>0</asrwt>
<pdfrwt beam="1">  1        1 0.49803647E-01 0.38656519E+03</pdfrwt>
<pdfrwt beam="2">  1       -1 0.15308346E-01 0.38656519E+03</pdfrwt>
<totfact> 0.24866268E+03</totfact>
</mgrwt>
</event>
<event>
 4    1  0.2428650E-005  0.4560574E+03  0.7818608E-02  0.1025931E+00
          1   -1    0    0  501    0  0.00000000000E+00  0.00000000000E+00  0.45188285422E+03  0.45188285424E+03  0.50400000000E-02 0.  1.
         -1   -1    0    0    0  501 -0.00000000000E+00 -0.00000000000E+00 -0.11506762637E+03  0.11506762648E+03  0.50400000000E-02 0. -1.
    5000001    1    1    2    0    0 -0.45862463635E+02  0.14769644214E+03  0.13206825129E+03  0.26188666936E+03  0.16500000000E+03 0.  0.
   -5000001    1    1    2    0    0  0.45862463635E+02 -0.14769644214E+03  0.20474697656E+03  0.30506381136E+03  0.16500000000E+03 0.  0.
<mgrwt>
<rscale>  0 0.45605740E+03</rscale>
<asrwt>0</asrwt>
<pdfrwt beam="1">  1        1 0.64554693E-01 0.45605740E+03</pdfrwt>
<pdfrwt beam="2">  1       -1 0.16438233E-01 0.45605740E+03</pdfrwt>
<totfact> 0.15874092E+03</totfact>
</mgrwt>
</event>
<event>
 4    1  0.2428650E-005  0.4347337E+03  0.7818608E-02  0.1032375E+00
          1   -1    0    0  501    0  0.00000000000E+00  0.00000000000E+00  0.29389006321E+03  0.29389006325E+03  0.50400000000E-02 0. -1.
         -1   -1    0    0    0  501 -0.00000000000E+00 -0.00000000000E+00 -0.16076875749E+03  0.16076875757E+03  0.50400000000E-02 0.  1.
    5000001    1    1    2    0    0  0.13204233201E+03  0.49320195902E+02  0.53511558309E+02  0.22350871580E+03  0.16500000000E+03 0.  0.
   -5000001    1    1    2    0    0 -0.13204233201E+03 -0.49320195902E+02  0.79609747410E+02  0.23115010502E+03  0.16500000000E+03 0.  0.
<mgrwt>
<rscale>  0 0.43473367E+03</rscale>
<asrwt>0</asrwt>
<pdfrwt beam="1">  1        1 0.41984295E-01 0.43473367E+03</pdfrwt>
<pdfrwt beam="2">  1       -1 0.22966965E-01 0.43473367E+03</pdfrwt>
<totfact> 0.15948357E+03</totfact>
</mgrwt>
</event>
<event>
 4    1  0.2428650E-005  0.4199744E+03  0.7818608E-02  0.1037075E+00
          1   -1    0    0  501    0  0.00000000000E+00  0.00000000000E+00  0.10491792222E+04  0.10491792223E+04  0.50400000000E-02 0.  1.
         -1   -1    0    0    0  501 -0.00000000000E+00 -0.00000000000E+00 -0.42027741439E+02  0.42027741742E+02  0.50400000000E-02 0. -1.
    5000001    1    1    2    0    0  0.12924030191E+03 -0.11301150898E+02  0.48737836700E+03  0.53065378946E+03  0.16500000000E+03 0.  0.
   -5000001    1    1    2    0    0 -0.12924030191E+03  0.11301150898E+02  0.51977311380E+03  0.56055317453E+03  0.16500000000E+03 0.  0.
<mgrwt>
<rscale>  0 0.41997444E+03</rscale>
<asrwt>0</asrwt>
<pdfrwt beam="1">  1        1 0.14988278E+00 0.41997444E+03</pdfrwt>
<pdfrwt beam="2">  1       -1 0.60039618E-02 0.41997444E+03</pdfrwt>
<totfact> 0.22373483E+03</totfact>
</mgrwt>
</event>
<event>
 4    1  0.2428650E-005  0.4426455E+03  0.7818608E-02  0.1029938E+00
          1   -1    0    0  501    0  0.00000000000E+00  0.00000000000E+00  0.12484594219E+04  0.12484594219E+04  0.50400000000E-02 0.  1.
         -1   -1    0    0    0  501 -0.00000000000E+00 -0.00000000000E+00 -0.39235363432E+02  0.39235363756E+02  0.50400000000E-02 0. -1.
    5000001    1    1    2    0    0 -0.95534087209E+02 -0.77788028171E+02  0.36861665117E+03  0.42223331781E+03  0.16500000000E+03 0.  0.
   -5000001    1    1    2    0    0  0.95534087209E+02  0.77788028171E+02  0.84060740727E+03  0.86546146784E+03  0.16500000000E+03 0.  0.
<mgrwt>
<rscale>  0 0.44264550E+03</rscale>
<asrwt>0</asrwt>
<pdfrwt beam="1">  1        1 0.17835133E+00 0.44264550E+03</pdfrwt>
<pdfrwt beam="2">  1       -1 0.56050523E-02 0.44264550E+03</pdfrwt>
<totfact> 0.18103656E+03</totfact>
</mgrwt>
</event>
<event>
 4    1  0.2428650E-005  0.4813332E+03  0.7818608E-02  0.1018769E+00
         -1   -1    0    0    0  501 -0.00000000000E+00  0.00000000000E+00  0.73098201444E+02  0.73098201618E+02  0.50400000000E-02 0. -1.
          1   -1    0    0  501    0  0.00000000000E+00 -0.00000000000E+00 -0.79236429633E+03  0.79236429635E+03  0.50400000000E-02 0.  1.
    5000001    1    1    2    0    0 -0.14127054712E+03  0.10281436517E+03 -0.38288597070E+03  0.45205622187E+03  0.16500000000E+03 0.  0.
   -5000001    1    1    2    0    0  0.14127054712E+03 -0.10281436517E+03 -0.33638012419E+03  0.41340627610E+03  0.16500000000E+03 0.  0.
<mgrwt>
<rscale>  0 0.48133317E+03</rscale>
<asrwt>0</asrwt>
<pdfrwt beam="1">  1        1 0.11319489E+00 0.48133317E+03</pdfrwt>
<pdfrwt beam="2">  1       -1 0.10442601E-01 0.48133317E+03</pdfrwt>
<totfact> 0.14933976E+03</totfact>
</mgrwt>
</event>
<event>
 4    1  0.2428650E-005  0.4414261E+03  0.7818608E-02  0.1030310E+00
          1   -1    0    0  501    0  0.00000000000E+00  0.00000000000E+00  0.13937198972E+04  0.13937198972E+04  0.50400000000E-02 0.  1.
         -1   -1    0    0    0  501 -0.00000000000E+00 -0.00000000000E+00 -0.34952682196E+02  0.34952682560E+02  0.50400000000E-02 0. -1.
    5000001    1    1    2    0    0 -0.13954706905E+03 -0.49040234635E+01  0.82382750730E+03  0.85171250766E+03  0.16500000000E+03 0.  0.
   -5000001    1    1    2    0    0  0.13954706905E+03  0.49040234635E+01  0.53493970773E+03  0.57696007213E+03  0.16500000000E+03 0.  0.
<mgrwt>
<rscale>  0 0.44142609E+03</rscale>
<asrwt>0</asrwt>
<pdfrwt beam="1">  1        1 0.19910281E+00 0.44142609E+03</pdfrwt>
<pdfrwt beam="2">  1       -1 0.49932412E-02 0.44142609E+03</pdfrwt>
<totfact> 0.17327140E+03</totfact>
</mgrwt>
</event>
<event>
 4    1  0.2428650E-005  0.4564624E+03  0.7818608E-02  0.1025812E+00
          1   -1    0    0  501    0  0.00000000000E+00  0.00000000000E+00  0.80289814970E+02  0.80289815128E+02  0.50400000000E-02 0.  1.
         -1   -1    0    0    0  501 -0.00000000000E+00 -0.00000000000E+00 -0.64876829463E+03  0.64876829465E+03  0.50400000000E-02 0. -1.
    5000001    1    1    2    0    0 -0.97963985011E+02  0.12193381015E+03 -0.31617069743E+03  0.38942740830E+03  0.16500000000E+03 0.  0.
   -5000001    1    1    2    0    0  0.97963985011E+02 -0.12193381015E+03 -0.25230778223E+03  0.33963070148E+03  0.16500000000E+03 0.  0.
<mgrwt>
<rscale>  0 0.45646243E+03</rscale>
<asrwt>0</asrwt>
<pdfrwt beam="1">  1        1 0.11469974E-01 0.45646243E+03</pdfrwt>
<pdfrwt beam="2">  1       -1 0.92681182E-01 0.45646243E+03</pdfrwt>
<totfact> 0.63634444E+02</totfact>
</mgrwt>
</event>
<event>
 4    1  0.2428650E-005  0.4216369E+03  0.7818608E-02  0.1036535E+00
          1   -1    0    0  501    0  0.00000000000E+00  0.00000000000E+00  0.11967819517E+04  0.11967819517E+04  0.50400000000E-02 0.  1.
         -1   -1    0    0    0  501 -0.00000000000E+00 -0.00000000000E+00 -0.37136609522E+02  0.37136609864E+02  0.50400000000E-02 0. -1.
    5000001    1    1    2    0    0  0.12034486886E+03 -0.16865573958E+02  0.72473855529E+03  0.75315224794E+03  0.16500000000E+03 0.  0.
   -5000001    1    1    2    0    0 -0.12034486886E+03  0.16865573958E+02  0.43490678685E+03  0.48076631360E+03  0.16500000000E+03 0.  0.
<mgrwt>
<rscale>  0 0.42163693E+03</rscale>
<asrwt>0</asrwt>
<pdfrwt beam="1">  1        1 0.17096882E+00 0.42163693E+03</pdfrwt>
<pdfrwt beam="2">  1       -1 0.53052309E-02 0.42163693E+03</pdfrwt>
<totfact> 0.21331270E+03</totfact>
</mgrwt>
</event>
<event>
 4    1  0.2428650E-005  0.4178115E+03  0.7818608E-02  0.1037781E+00
         -1   -1    0    0    0  501 -0.00000000000E+00  0.00000000000E+00  0.18938879122E+03  0.18938879129E+03  0.50400000000E-02 0. -1.
          1   -1    0    0  501    0  0.00000000000E+00 -0.00000000000E+00 -0.23043400978E+03  0.23043400983E+03  0.50400000000E-02 0.  1.
    5000001    1    1    2    0    0 -0.10635858545E+03  0.29225234197E+02 -0.86031196539E+02  0.21631604146E+03  0.16500000000E+03 0.  0.
   -5000001    1    1    2    0    0  0.10635858545E+03 -0.29225234197E+02  0.44985977979E+02  0.20350675966E+03  0.16500000000E+03 0.  0.
<mgrwt>
<rscale>  0 0.41781153E+03</rscale>
<asrwt>0</asrwt>
<pdfrwt beam="1">  1        1 0.32919144E-01 0.41781153E+03</pdfrwt>
<pdfrwt beam="2">  1       -1 0.27055542E-01 0.41781153E+03</pdfrwt>
<totfact> 0.16499489E+03</totfact>
</mgrwt>
</event>
<event>
 4    1  0.2428650E-005  0.5101081E+03  0.7818608E-02  0.1011174E+00
          1   -1    0    0  501    0  0.00000000000E+00  0.00000000000E+00  0.40289905944E+04  0.40289905944E+04  0.50400000000E-02 0.  1.
         -1   -1    0    0    0  501 -0.00000000000E+00 -0.00000000000E+00 -0.16146118879E+02  0.16146119665E+02  0.50400000000E-02 0. -1.
    5000001    1    1    2    0    0  0.15582977841E+03  0.10680986291E+03  0.23729456502E+04  0.23861658210E+04  0.16500000000E+03 0.  0.
   -5000001    1    1    2    0    0 -0.15582977841E+03 -0.10680986291E+03  0.16398988253E+04  0.16589708930E+04  0.16500000000E+03 0.  0.
<mgrwt>
<rscale>  0 0.51010808E+03</rscale>
<asrwt>0</asrwt>
<pdfrwt beam="1">  1        1 0.57557148E+00 0.51010808E+03</pdfrwt>
<pdfrwt beam="2">  1       -1 0.23065829E-02 0.51010808E+03</pdfrwt>
<totfact> 0.10752184E+02</totfact>
</mgrwt>
</event>
<event>
 4    1  0.2428650E-005  0.5655055E+03  0.7818608E-02  0.9979674E-01
         -1   -1    0    0    0  501 -0.00000000000E+00  0.00000000000E+00  0.68262033858E+02  0.68262034044E+02  0.50400000000E-02 0. -1.
          1   -1    0    0  501    0  0.00000000000E+00 -0.00000000000E+00 -0.11712091899E+04  0.11712091900E+04  0.50400000000E-02 0.  1.
    5000001    1    1    2    0    0 -0.14370020023E+03 -0.71235852686E+02 -0.91162082354E+03  0.94021370984E+03  0.16500000000E+03 0.  0.
   -5000001    1    1    2    0    0  0.14370020023E+03  0.71235852686E+02 -0.19132633254E+03  0.29925751416E+03  0.16500000000E+03 0.  0.
<mgrwt>
<rscale>  0 0.56550551E+03</rscale>
<asrwt>0</asrwt>
<pdfrwt beam="1">  1        1 0.16731559E+00 0.56550551E+03</pdfrwt>
<pdfrwt beam="2">  1       -1 0.97517198E-02 0.56550551E+03</pdfrwt>
<totfact> 0.86385577E+02</totfact>
</mgrwt>
</event>
<event>
 4    1  0.2428650E-005  0.4364117E+03  0.7818608E-02  0.1031853E+00
         -1   -1    0    0    0  501 -0.00000000000E+00  0.00000000000E+00  0.76691762945E+02  0.76691763111E+02  0.50400000000E-02 0. -1.
          1   -1    0    0  501    0  0.00000000000E+00 -0.00000000000E+00 -0.62084630344E+03  0.62084630346E+03  0.50400000000E-02 0.  1.
    5000001    1    1    2    0    0 -0.10614621717E+03  0.95286859568E+02 -0.26169506785E+03  0.34066980136E+03  0.16500000000E+03 0.  0.
   -5000001    1    1    2    0    0  0.10614621717E+03 -0.95286859568E+02 -0.28245947265E+03  0.35686826521E+03  0.16500000000E+03 0.  0.
<mgrwt>
<rscale>  0 0.43641172E+03</rscale>
<asrwt>0</asrwt>
<pdfrwt beam="1">  1        1 0.88692326E-01 0.43641172E+03</pdfrwt>
<pdfrwt beam="2">  1       -1 0.10955966E-01 0.43641172E+03</pdfrwt>
<totfact> 0.19742274E+03</totfact>
</mgrwt>
</event>
<event>
 4    1  0.2428650E-005  0.5390791E+03  0.7818608E-02  0.1004054E+00
          1   -1    0    0  501    0  0.00000000000E+00  0.00000000000E+00  0.28391052117E+03  0.28391052121E+03  0.50400000000E-02 0.  1.
         -1   -1    0    0    0  501 -0.00000000000E+00 -0.00000000000E+00 -0.25589596451E+03  0.25589596456E+03  0.50400000000E-02 0. -1.
    5000001    1    1    2    0    0  0.20949013435E+03 -0.36809810679E+02  0.27644691224E+02  0.27061098925E+03  0.16500000000E+03 0.  0.
   -5000001    1    1    2    0    0 -0.20949013435E+03  0.36809810679E+02  0.36986543081E+00  0.26919549653E+03  0.16500000000E+03 0.  0.
<mgrwt>
<rscale>  0 0.53907905E+03</rscale>
<asrwt>0</asrwt>
<pdfrwt beam="1">  1        1 0.40558646E-01 0.53907905E+03</pdfrwt>
<pdfrwt beam="2">  1       -1 0.36556566E-01 0.53907905E+03</pdfrwt>
<totfact> 0.74904742E+02</totfact>
</mgrwt>
</event>
<event>
 4    1  0.2428650E-005  0.6538953E+03  0.7818608E-02  0.9799497E-01
          1   -1    0    0  501    0  0.00000000000E+00  0.00000000000E+00  0.25579569511E+04  0.25579569511E+04  0.50400000000E-02 0. -1.
         -1   -1    0    0    0  501 -0.00000000000E+00 -0.00000000000E+00 -0.41789120589E+02  0.41789120893E+02  0.50400000000E-02 0.  1.
    5000001    1    1    2    0    0  0.13656893931E+03  0.22585638803E+03  0.86035476117E+03  0.91493032427E+03  0.16500000000E+03 0.  0.
   -5000001    1    1    2    0    0 -0.13656893931E+03 -0.22585638803E+03  0.16558130694E+04  0.16848157478E+04  0.16500000000E+03 0.  0.
<mgrwt>
<rscale>  0 0.65389532E+03</rscale>
<asrwt>0</asrwt>
<pdfrwt beam="1">  1        1 0.36542251E+00 0.65389532E+03</pdfrwt>
<pdfrwt beam="2">  1       -1 0.59698730E-02 0.65389532E+03</pdfrwt>
<totfact> 0.24484546E+02</totfact>
</mgrwt>
</event>
<event>
 4    1  0.2428650E-005  0.8752944E+03  0.7818608E-02  0.9457003E-01
          1   -1    0    0  501    0  0.00000000000E+00  0.00000000000E+00  0.12354891094E+04  0.12354891094E+04  0.50400000000E-02 0.  1.
         -1   -1    0    0    0  501 -0.00000000000E+00 -0.00000000000E+00 -0.15502773543E+03  0.15502773551E+03  0.50400000000E-02 0. -1.
    5000001    1    1    2    0    0  0.16500193247E+03  0.35419927517E+03  0.36892893380E+03  0.56215329087E+03  0.16500000000E+03 0.  0.
   -5000001    1    1    2    0    0 -0.16500193247E+03 -0.35419927517E+03  0.71153244013E+03  0.82836355400E+03  0.16500000000E+03 0.  0.
<mgrwt>
<rscale>  0 0.87529442E+03</rscale>
<asrwt>0</asrwt>
<pdfrwt beam="1">  1        1 0.17649845E+00 0.87529442E+03</pdfrwt>
<pdfrwt beam="2">  1       -1 0.22146818E-01 0.87529442E+03</pdfrwt>
<totfact> 0.20259942E+02</totfact>
</mgrwt>
</event>
<event>
 4    1  0.2428650E-005  0.4476369E+03  0.7818608E-02  0.1028429E+00
         -1   -1    0    0    0  501 -0.00000000000E+00  0.00000000000E+00  0.86892788490E+02  0.86892788636E+02  0.50400000000E-02 0. -1.
          1   -1    0    0  501    0  0.00000000000E+00 -0.00000000000E+00 -0.57651163929E+03  0.57651163931E+03  0.50400000000E-02 0.  1.
    5000001    1    1    2    0    0 -0.12810069354E+03 -0.79921239117E+02 -0.25742935513E+03  0.34101622399E+03  0.16500000000E+03 0.  0.
   -5000001    1    1    2    0    0  0.12810069354E+03  0.79921239117E+02 -0.23218949567E+03  0.32238820395E+03  0.16500000000E+03 0.  0.
<mgrwt>
<rscale>  0 0.44763692E+03</rscale>
<asrwt>0</asrwt>
<pdfrwt beam="1">  1        1 0.82358804E-01 0.44763692E+03</pdfrwt>
<pdfrwt beam="2">  1       -1 0.12413256E-01 0.44763692E+03</pdfrwt>
<totfact> 0.17961204E+03</totfact>
</mgrwt>
</event>
<event>
 4    1  0.2428650E-005  0.7171339E+03  0.7818608E-02  0.9688371E-01
          1   -1    0    0  501    0  0.00000000000E+00  0.00000000000E+00  0.25143497001E+04  0.25143497001E+04  0.50400000000E-02 0.  1.
         -1   -1    0    0    0  501 -0.00000000000E+00 -0.00000000000E+00 -0.51134592577E+02  0.51134592825E+02  0.50400000000E-02 0. -1.
    5000001    1    1    2    0    0  0.83181904355E+02 -0.20247493362E+03  0.20585235350E+04  0.20766943618E+04  0.16500000000E+03 0.  0.
   -5000001    1    1    2    0    0 -0.83181904355E+02  0.20247493362E+03  0.40469157251E+03  0.48878993117E+03  0.16500000000E+03 0.  0.
<mgrwt>
<rscale>  0 0.71713387E+03</rscale>
<asrwt>0</asrwt>
<pdfrwt beam="1">  1        1 0.35919274E+00 0.71713387E+03</pdfrwt>
<pdfrwt beam="2">  1       -1 0.73049433E-02 0.71713387E+03</pdfrwt>
<totfact> 0.18956431E+02</totfact>
</mgrwt>
</event>
<event>
 4    1  0.2428650E-005  0.7188647E+03  0.7818608E-02  0.9685504E-01
         -1   -1    0    0    0  501 -0.00000000000E+00  0.00000000000E+00  0.11467889727E+03  0.11467889738E+03  0.50400000000E-02 0. -1.
          1   -1    0    0  501    0  0.00000000000E+00 -0.00000000000E+00 -0.11265508333E+04  0.11265508333E+04  0.50400000000E-02 0.  1.
    5000001    1    1    2    0    0 -0.23069782399E+03 -0.11466526020E+03 -0.83170644146E+03  0.88618858753E+03  0.16500000000E+03 0.  0.
   -5000001    1    1    2    0    0  0.23069782399E+03  0.11466526020E+03 -0.18016549452E+03  0.35504114312E+03  0.16500000000E+03 0.  0.
<mgrwt>
<rscale>  0 0.71886468E+03</rscale>
<asrwt>0</asrwt>
<pdfrwt beam="1">  1        1 0.16093583E+00 0.71886468E+03</pdfrwt>
<pdfrwt beam="2">  1       -1 0.16382700E-01 0.71886468E+03</pdfrwt>
<totfact> 0.40134940E+02</totfact>
</mgrwt>
</event>
<event>
 4    1  0.2428650E-005  0.5349962E+03  0.7818608E-02  0.1005028E+00
         -1   -1    0    0    0  501 -0.00000000000E+00  0.00000000000E+00  0.18208167648E+03  0.18208167655E+03  0.50400000000E-02 0.  1.
          1   -1    0    0  501    0  0.00000000000E+00 -0.00000000000E+00 -0.39298431610E+03  0.39298431613E+03  0.50400000000E-02 0. -1.
    5000001    1    1    2    0    0  0.87671280916E+02  0.28689669194E+02  0.97988124320E+02  0.21292257542E+03  0.16500000000E+03 0.  0.
   -5000001    1    1    2    0    0 -0.87671280916E+02 -0.28689669194E+02 -0.30889076394E+03  0.36214341726E+03  0.16500000000E+03 0.  0.
<mgrwt>
<rscale>  0 0.53499624E+03</rscale>
<asrwt>0</asrwt>
<pdfrwt beam="1">  1        1 0.56140616E-01 0.53499624E+03</pdfrwt>
<pdfrwt beam="2">  1       -1 0.26011668E-01 0.53499624E+03</pdfrwt>
<totfact> 0.89011435E+02</totfact>
</mgrwt>
</event>
<event>
 4    1  0.2428650E-005  0.1413874E+04  0.7818608E-02  0.8943837E-01
         -1   -1    0    0    0  501 -0.00000000000E+00  0.00000000000E+00  0.29149991571E+03  0.29149991575E+03  0.50400000000E-02 0. -1.
          1   -1    0    0  501    0  0.00000000000E+00 -0.00000000000E+00 -0.17144422761E+04  0.17144422761E+04  0.50400000000E-02 0.  1.
    5000001    1    1    2    0    0  0.28874262745E+03  0.62168056131E+03 -0.63808220177E+03  0.95091162651E+03  0.16500000000E+03 0.  0.
   -5000001    1    1    2    0    0 -0.28874262745E+03 -0.62168056131E+03 -0.78486015864E+03  0.10550305654E+04  0.16500000000E+03 0.  0.
<mgrwt>
<rscale>  0 0.14138738E+04</rscale>
<asrwt>0</asrwt>
<pdfrwt beam="1">  1        1 0.24492032E+00 0.14138738E+04</pdfrwt>
<pdfrwt beam="2">  1       -1 0.41642846E-01 0.14138738E+04</pdfrwt>
<totfact> 0.31171239E+01</totfact>
</mgrwt>
</event>
<event>
 4    1  0.2428650E-005  0.4622829E+03  0.7818608E-02  0.1024121E+00
          1   -1    0    0  501    0  0.00000000000E+00  0.00000000000E+00  0.21954850233E+03  0.21954850238E+03  0.50400000000E-02 0. -1.
         -1   -1    0    0    0  501 -0.00000000000E+00 -0.00000000000E+00 -0.24334658787E+03  0.24334658793E+03  0.50400000000E-02 0.  1.
    5000001    1    1    2    0    0 -0.15573017931E+03 -0.40739418275E+02  0.51467184040E+01  0.23057119868E+03  0.16500000000E+03 0.  0.
   -5000001    1    1    2    0    0  0.15573017931E+03  0.40739418275E+02 -0.28944803953E+02  0.23232389163E+03  0.16500000000E+03 0.  0.
<mgrwt>
<rscale>  0 0.46228294E+03</rscale>
<asrwt>0</asrwt>
<pdfrwt beam="1">  1        1 0.31364072E-01 0.46228294E+03</pdfrwt>
<pdfrwt beam="2">  1       -1 0.34763798E-01 0.46228294E+03</pdfrwt>
<totfact> 0.11386666E+03</totfact>
</mgrwt>
</event>
<event>
 4    1  0.2428650E-005  0.4887347E+03  0.7818608E-02  0.1016762E+00
          1   -1    0    0  501    0  0.00000000000E+00  0.00000000000E+00  0.73204192633E+03  0.73204192634E+03  0.50400000000E-02 0. -1.
         -1   -1    0    0    0  501 -0.00000000000E+00 -0.00000000000E+00 -0.81573759937E+02  0.81573760093E+02  0.50400000000E-02 0.  1.
    5000001    1    1    2    0    0 -0.99515857969E+02 -0.15003802773E+03  0.31075978678E+03  0.39523595590E+03  0.16500000000E+03 0.  0.
   -5000001    1    1    2    0    0  0.99515857969E+02  0.15003802773E+03  0.33970837961E+03  0.41837973054E+03  0.16500000000E+03 0.  0.
<mgrwt>
<rscale>  0 0.48873474E+03</rscale>
<asrwt>0</asrwt>
<pdfrwt beam="1">  1        1 0.10457742E+00 0.48873474E+03</pdfrwt>
<pdfrwt beam="2">  1       -1 0.11653394E-01 0.48873474E+03</pdfrwt>
<totfact> 0.14139333E+03</totfact>
</mgrwt>
</event>
<event>
 4    1  0.2428650E-005  0.8767651E+03  0.7818608E-02  0.9455101E-01
          1   -1    0    0  501    0  0.00000000000E+00  0.00000000000E+00  0.15463161056E+03  0.15463161064E+03  0.50400000000E-02 0.  1.
         -1   -1    0    0    0  501 -0.00000000000E+00 -0.00000000000E+00 -0.12428200648E+04  0.12428200648E+04  0.50400000000E-02 0. -1.
    5000001    1    1    2    0    0 -0.25798845257E+03 -0.31245625422E+03 -0.49994321943E+03  0.66434567442E+03  0.16500000000E+03 0.  0.
   -5000001    1    1    2    0    0  0.25798845257E+03  0.31245625422E+03 -0.58824523477E+03  0.73310600100E+03  0.16500000000E+03 0.  0.
<mgrwt>
<rscale>  0 0.87676512E+03</rscale>
<asrwt>0</asrwt>
<pdfrwt beam="1">  1        1 0.22090231E-01 0.87676512E+03</pdfrwt>
<pdfrwt beam="2">  1       -1 0.17754572E+00 0.87676512E+03</pdfrwt>
<totfact> 0.50420976E+01</totfact>
</mgrwt>
</event>
<event>
 4    1  0.2428650E-005  0.3473316E+03  0.7818608E-02  0.1063716E+00
          1   -1    0    0  501    0  0.00000000000E+00  0.00000000000E+00  0.10968544436E+04  0.10968544436E+04  0.50400000000E-02 0.  1.
         -1   -1    0    0    0  501 -0.00000000000E+00 -0.00000000000E+00 -0.27496635415E+02  0.27496635877E+02  0.50400000000E-02 0. -1.
    5000001    1    1    2    0    0  0.48155328257E+02  0.24199470416E+02  0.51687273177E+03  0.54524028726E+03  0.16500000000E+03 0.  0.
   -5000001    1    1    2    0    0 -0.48155328257E+02 -0.24199470416E+02  0.55248507638E+03  0.57911079219E+03  0.16500000000E+03 0.  0.
<mgrwt>
<rscale>  0 0.34733158E+03</rscale>
<asrwt>0</asrwt>
<pdfrwt beam="1">  1        1 0.15669349E+00 0.34733158E+03</pdfrwt>
<pdfrwt beam="2">  1       -1 0.39280907E-02 0.34733158E+03</pdfrwt>
<totfact> 0.39281233E+03</totfact>
</mgrwt>
</event>
<event>
 4    1  0.2428650E-005  0.4608692E+03  0.7818608E-02  0.1024529E+00
          1   -1    0    0  501    0  0.00000000000E+00  0.00000000000E+00  0.90933549063E+03  0.90933549065E+03  0.50400000000E-02 0.  1.
         -1   -1    0    0    0  501 -0.00000000000E+00 -0.00000000000E+00 -0.58394413276E+02  0.58394413493E+02  0.50400000000E-02 0. -1.
    5000001    1    1    2    0    0  0.15096161512E+03  0.50203450668E+02  0.37554503975E+03  0.43996462651E+03  0.16500000000E+03 0.  0.
   -5000001    1    1    2    0    0 -0.15096161512E+03 -0.50203450668E+02  0.47539603761E+03  0.52776527763E+03  0.16500000000E+03 0.  0.
<mgrwt>
<rscale>  0 0.46086923E+03</rscale>
<asrwt>0</asrwt>
<pdfrwt beam="1">  1        1 0.12990507E+00 0.46086923E+03</pdfrwt>
<pdfrwt beam="2">  1       -1 0.83420588E-02 0.46086923E+03</pdfrwt>
<totfact> 0.17109398E+03</totfact>
</mgrwt>
</event>
<event>
 4    1  0.2428650E-005  0.1657949E+04  0.7818608E-02  0.8785718E-01
         -1   -1    0    0    0  501 -0.00000000000E+00  0.00000000000E+00  0.34968722423E+03  0.34968722427E+03  0.50400000000E-02 0. -1.
          1   -1    0    0  501    0  0.00000000000E+00 -0.00000000000E+00 -0.19651814516E+04  0.19651814516E+04  0.50400000000E-02 0.  1.
    5000001    1    1    2    0    0 -0.54470867533E+02  0.74373638812E+03 -0.12577191155E+04  0.14714595693E+04  0.16500000000E+03 0.  0.
   -5000001    1    1    2    0    0  0.54470867533E+02 -0.74373638812E+03 -0.35777511180E+03  0.84340910657E+03  0.16500000000E+03 0.  0.
<mgrwt>
<rscale>  0 0.16579492E+04</rscale>
<asrwt>0</asrwt>
<pdfrwt beam="1">  1        1 0.28074020E+00 0.16579492E+04</pdfrwt>
<pdfrwt beam="2">  1       -1 0.49955319E-01 0.16579492E+04</pdfrwt>
<totfact> 0.15081869E+01</totfact>
</mgrwt>
</event>
<event>
 4    1  0.2428650E-005  0.3559766E+03  0.7818608E-02  0.1060188E+00
         -1   -1    0    0    0  501 -0.00000000000E+00  0.00000000000E+00  0.79566692626E+02  0.79566692786E+02  0.50400000000E-02 0. -1.
          1   -1    0    0  501    0  0.00000000000E+00 -0.00000000000E+00 -0.39815454304E+03  0.39815454308E+03  0.50400000000E-02 0.  1.
    5000001    1    1    2    0    0  0.66584108995E+02  0.45454827050E+01 -0.15814323713E+03  0.23809323475E+03  0.16500000000E+03 0.  0.
   -5000001    1    1    2    0    0 -0.66584108995E+02 -0.45454827050E+01 -0.16044461329E+03  0.23962800111E+03  0.16500000000E+03 0.  0.
<mgrwt>
<rscale>  0 0.35597663E+03</rscale>
<asrwt>0</asrwt>
<pdfrwt beam="1">  1        1 0.56879219E-01 0.35597663E+03</pdfrwt>
<pdfrwt beam="2">  1       -1 0.11366671E-01 0.35597663E+03</pdfrwt>
<totfact> 0.33583257E+03</totfact>
</mgrwt>
</event>
<event>
 4    1  0.2428650E-005  0.4007710E+03  0.7818608E-02  0.1043513E+00
          1   -1    0    0  501    0  0.00000000000E+00  0.00000000000E+00  0.16750968253E+04  0.16750968253E+04  0.50400000000E-02 0.  1.
         -1   -1    0    0    0  501 -0.00000000000E+00 -0.00000000000E+00 -0.23971363663E+02  0.23971364193E+02  0.50400000000E-02 0. -1.
    5000001    1    1    2    0    0 -0.68256931077E+02  0.87859677079E+02  0.92508030734E+03  0.94624357674E+03  0.16500000000E+03 0.  0.
   -5000001    1    1    2    0    0  0.68256931077E+02 -0.87859677079E+02  0.72604515426E+03  0.75282461273E+03  0.16500000000E+03 0.  0.
<mgrwt>
<rscale>  0 0.40077104E+03</rscale>
<asrwt>0</asrwt>
<pdfrwt beam="1">  1        1 0.23929947E+00 0.40077104E+03</pdfrwt>
<pdfrwt beam="2">  1       -1 0.34244817E-02 0.40077104E+03</pdfrwt>
<totfact> 0.20338548E+03</totfact>
</mgrwt>
</event>
<event>
 4    1  0.2428650E-005  0.4210568E+03  0.7818608E-02  0.1036723E+00
          1   -1    0    0  501    0  0.00000000000E+00  0.00000000000E+00  0.17541205689E+03  0.17541205696E+03  0.50400000000E-02 0.  1.
         -1   -1    0    0    0  501 -0.00000000000E+00 -0.00000000000E+00 -0.25267484256E+03  0.25267484261E+03  0.50400000000E-02 0. -1.
    5000001    1    1    2    0    0  0.11501341424E+03 -0.56916637819E+02 -0.64142665313E+02  0.21864782329E+03  0.16500000000E+03 0.  0.
   -5000001    1    1    2    0    0 -0.11501341424E+03  0.56916637819E+02 -0.13120120362E+02  0.20943907628E+03  0.16500000000E+03 0.  0.
<mgrwt>
<rscale>  0 0.42105683E+03</rscale>
<asrwt>0</asrwt>
<pdfrwt beam="1">  1        1 0.25058865E-01 0.42105683E+03</pdfrwt>
<pdfrwt beam="2">  1       -1 0.36096406E-01 0.42105683E+03</pdfrwt>
<totfact> 0.14213270E+03</totfact>
</mgrwt>
</event>
<event>
 4    1  0.2428650E-005  0.8611793E+03  0.7818608E-02  0.9475454E-01
         -1   -1    0    0    0  501 -0.00000000000E+00  0.00000000000E+00  0.80561071538E+03  0.80561071540E+03  0.50400000000E-02 0. -1.
          1   -1    0    0  501    0  0.00000000000E+00 -0.00000000000E+00 -0.23014519080E+03  0.23014519085E+03  0.50400000000E-02 0.  1.
    5000001    1    1    2    0    0 -0.23801132001E+03  0.66258184669E+02  0.66259300119E+03  0.72615013649E+03  0.16500000000E+03 0.  0.
   -5000001    1    1    2    0    0  0.23801132001E+03 -0.66258184669E+02 -0.87127476609E+02  0.30960576976E+03  0.16500000000E+03 0.  0.
<mgrwt>
<rscale>  0 0.86117927E+03</rscale>
<asrwt>0</asrwt>
<pdfrwt beam="1">  1        1 0.32877885E-01 0.86117927E+03</pdfrwt>
<pdfrwt beam="2">  1       -1 0.11508724E+00 0.86117927E+03</pdfrwt>
<totfact> 0.94381951E+01</totfact>
</mgrwt>
</event>
<event>
 4    1  0.2428650E-005  0.3983119E+03  0.7818608E-02  0.1044366E+00
          1   -1    0    0  501    0  0.00000000000E+00  0.00000000000E+00  0.42029986372E+03  0.42029986375E+03  0.50400000000E-02 0.  1.
         -1   -1    0    0    0  501 -0.00000000000E+00 -0.00000000000E+00 -0.94368541377E+02  0.94368541511E+02  0.50400000000E-02 0. -1.
    5000001    1    1    2    0    0  0.81543189901E+01  0.58787772397E+02  0.40960188607E+02  0.18007007567E+03  0.16500000000E+03 0.  0.
   -5000001    1    1    2    0    0 -0.81543189901E+01 -0.58787772397E+02  0.28497113374E+03  0.33459832959E+03  0.16500000000E+03 0.  0.
<mgrwt>
<rscale>  0 0.39831186E+03</rscale>
<asrwt>0</asrwt>
<pdfrwt beam="1">  1        1 0.60042839E-01 0.39831186E+03</pdfrwt>
<pdfrwt beam="2">  1       -1 0.13481220E-01 0.39831186E+03</pdfrwt>
<totfact> 0.23963226E+03</totfact>
</mgrwt>
</event>
<event>
 4    1  0.2428650E-005  0.5650033E+03  0.7818608E-02  0.9980797E-01
         -1   -1    0    0    0  501 -0.00000000000E+00  0.00000000000E+00  0.56889219396E+02  0.56889219619E+02  0.50400000000E-02 0. -1.
          1   -1    0    0  501    0  0.00000000000E+00 -0.00000000000E+00 -0.14028524071E+04  0.14028524071E+04  0.50400000000E-02 0.  1.
    5000001    1    1    2    0    0  0.17776555635E+03 -0.14436203117E+03 -0.70368073094E+03  0.75817712981E+03  0.16500000000E+03 0.  0.
   -5000001    1    1    2    0    0 -0.17776555635E+03  0.14436203117E+03 -0.64228245675E+03  0.70156449690E+03  0.16500000000E+03 0.  0.
<mgrwt>
<rscale>  0 0.56500329E+03</rscale>
<asrwt>0</asrwt>
<pdfrwt beam="1">  1        1 0.20040747E+00 0.56500329E+03</pdfrwt>
<pdfrwt beam="2">  1       -1 0.81270322E-02 0.56500329E+03</pdfrwt>
<totfact> 0.80453239E+02</totfact>
</mgrwt>
</event>
<event>
 4    1  0.2428650E-005  0.4841584E+03  0.7818608E-02  0.1017999E+00
          1   -1    0    0  501    0  0.00000000000E+00  0.00000000000E+00  0.60745156161E+03  0.60745156163E+03  0.50400000000E-02 0.  1.
         -1   -1    0    0    0  501 -0.00000000000E+00 -0.00000000000E+00 -0.96472454694E+02  0.96472454826E+02  0.50400000000E-02 0. -1.
    5000001    1    1    2    0    0 -0.54830444783E+02 -0.13464174310E+03  0.40263360000E+03  0.45877401028E+03  0.16500000000E+03 0.  0.
   -5000001    1    1    2    0    0  0.54830444783E+02  0.13464174310E+03  0.10834550692E+03  0.24515000618E+03  0.16500000000E+03 0.  0.
<mgrwt>
<rscale>  0 0.48415842E+03</rscale>
<asrwt>0</asrwt>
<pdfrwt beam="1">  1        1 0.86778793E-01 0.48415842E+03</pdfrwt>
<pdfrwt beam="2">  1       -1 0.13781779E-01 0.48415842E+03</pdfrwt>
<totfact> 0.14143570E+03</totfact>
</mgrwt>
</event>
<event>
 4    1  0.2428650E-005  0.5844095E+03  0.7818608E-02  0.9938290E-01
         -1   -1    0    0    0  501 -0.00000000000E+00  0.00000000000E+00  0.48516924798E+02  0.48516925059E+02  0.50400000000E-02 0. -1.
          1   -1    0    0  501    0  0.00000000000E+00 -0.00000000000E+00 -0.17598729277E+04  0.17598729277E+04  0.50400000000E-02 0.  1.
    5000001    1    1    2    0    0  0.94629255847E+02 -0.87213586525E+02 -0.14867944875E+04  0.15014472198E+04  0.16500000000E+03 0.  0.
   -5000001    1    1    2    0    0 -0.94629255847E+02  0.87213586525E+02 -0.22456151537E+03  0.30694263295E+03  0.16500000000E+03 0.  0.
<mgrwt>
<rscale>  0 0.58440952E+03</rscale>
<asrwt>0</asrwt>
<pdfrwt beam="1">  1        1 0.25141038E+00 0.58440952E+03</pdfrwt>
<pdfrwt beam="2">  1       -1 0.69309904E-02 0.58440952E+03</pdfrwt>
<totfact> 0.61080257E+02</totfact>
</mgrwt>
</event>
