<event>
 4    1  0.2489209E-004  0.2573717E+03  0.7818608E-02  0.1108733E+00
          2   -1    0    0  501    0  0.00000000000E+00  0.00000000000E+00  0.86801677052E+03  0.86801677052E+03  0.25500000000E-02 0.  1.
         -2   -1    0    0    0  501 -0.00000000000E+00 -0.00000000000E+00 -0.19078032681E+02  0.19078032851E+02  0.25500000000E-02 0. -1.
    5000001    1    1    2    0    0  0.68194275593E+02 -0.31281564922E+02  0.66824118823E+03  0.67683401302E+03  0.77000000000E+02 0.  0.
   -5000001    1    1    2    0    0 -0.68194275593E+02  0.31281564922E+02  0.18069754961E+03  0.21026079036E+03  0.77000000000E+02 0.  0.
<mgrwt>
<rscale>  0 0.25737173E+03</rscale>
<asrwt>0</asrwt>
<pdfrwt beam="1">  1        2 0.13354104E+00 0.25737173E+03</pdfrwt>
<pdfrwt beam="2">  1       -2 0.29350821E-02 0.25737173E+03</pdfrwt>
<totfact> 0.13863838E+04</totfact>
</mgrwt>
</event>
<event>
 4    1  0.2489209E-004  0.1573994E+03  0.7818608E-02  0.1191664E+00
          2   -1    0    0  501    0  0.00000000000E+00  0.00000000000E+00  0.57627231933E+03  0.57627231933E+03  0.25500000000E-02 0.  1.
         -2   -1    0    0    0  501 -0.00000000000E+00 -0.00000000000E+00 -0.10747769520E+02  0.10747769822E+02  0.25500000000E-02 0. -1.
    5000001    1    1    2    0    0 -0.16116979330E+02 -0.20721867196E+01  0.28562981347E+03  0.29627257943E+03  0.77000000000E+02 0.  0.
   -5000001    1    1    2    0    0  0.16116979330E+02  0.20721867196E+01  0.27989473634E+03  0.29074750973E+03  0.77000000000E+02 0.  0.
<mgrwt>
<rscale>  0 0.15739939E+03</rscale>
<asrwt>0</asrwt>
<pdfrwt beam="1">  1        2 0.88657247E-01 0.15739939E+03</pdfrwt>
<pdfrwt beam="2">  1       -2 0.16535036E-02 0.15739939E+03</pdfrwt>
<totfact> 0.51051343E+04</totfact>
</mgrwt>
</event>
<event>
 4    1  0.2489209E-004  0.1918073E+03  0.7818608E-02  0.1156841E+00
          2   -1    0    0  501    0  0.00000000000E+00  0.00000000000E+00  0.11976954794E+04  0.11976954794E+04  0.25500000000E-02 0.  1.
         -2   -1    0    0    0  501 -0.00000000000E+00 -0.00000000000E+00 -0.76793381518E+01  0.76793385751E+01  0.25500000000E-02 0. -1.
    5000001    1    1    2    0    0 -0.49203508720E+02  0.27509396139E+02  0.65487629252E+03  0.66179280040E+03  0.77000000000E+02 0.  0.
   -5000001    1    1    2    0    0  0.49203508720E+02 -0.27509396139E+02  0.53513984877E+03  0.54358201763E+03  0.77000000000E+02 0.  0.
<mgrwt>
<rscale>  0 0.19180729E+03</rscale>
<asrwt>0</asrwt>
<pdfrwt beam="1">  1        2 0.18426064E+00 0.19180729E+03</pdfrwt>
<pdfrwt beam="2">  1       -2 0.11814380E-02 0.19180729E+03</pdfrwt>
<totfact> 0.32718767E+04</totfact>
</mgrwt>
</event>
<event>
 4    1  0.2489209E-004  0.2034814E+03  0.7818608E-02  0.1146835E+00
          2   -1    0    0  501    0  0.00000000000E+00  0.00000000000E+00  0.68076601004E+02  0.68076601052E+02  0.25500000000E-02 0.  1.
         -2   -1    0    0    0  501 -0.00000000000E+00 -0.00000000000E+00 -0.15205174969E+03  0.15205174971E+03  0.25500000000E-02 0. -1.
    5000001    1    1    2    0    0 -0.64935627140E+02  0.10428718939E+02 -0.52629671393E+02  0.11412395087E+03  0.77000000000E+02 0.  0.
   -5000001    1    1    2    0    0  0.64935627140E+02 -0.10428718939E+02 -0.31345477295E+02  0.10600439990E+03  0.77000000000E+02 0.  0.
<mgrwt>
<rscale>  0 0.20348136E+03</rscale>
<asrwt>0</asrwt>
<pdfrwt beam="1">  1        2 0.10473323E-01 0.20348136E+03</pdfrwt>
<pdfrwt beam="2">  1       -2 0.23392577E-01 0.20348136E+03</pdfrwt>
<totfact> 0.93828373E+03</totfact>
</mgrwt>
</event>
<event>
 4    1  0.2489209E-004  0.3636671E+03  0.7818608E-02  0.1057141E+00
         -2   -1    0    0    0  501 -0.00000000000E+00  0.00000000000E+00  0.10950738680E+02  0.10950738976E+02  0.25500000000E-02 0. -1.
          2   -1    0    0  501    0  0.00000000000E+00 -0.00000000000E+00 -0.30192884680E+04  0.30192884680E+04  0.25500000000E-02 0.  1.
    5000001    1    1    2    0    0 -0.14633840098E+03 -0.63206439770E+02 -0.18501872636E+04  0.18586371060E+04  0.77000000000E+02 0.  0.
   -5000001    1    1    2    0    0  0.14633840098E+03  0.63206439770E+02 -0.11581504658E+04  0.11716021010E+04  0.77000000000E+02 0.  0.
<mgrwt>
<rscale>  0 0.36366710E+03</rscale>
<asrwt>0</asrwt>
<pdfrwt beam="1">  1        2 0.46450525E+00 0.36366710E+03</pdfrwt>
<pdfrwt beam="2">  1       -2 0.16847315E-02 0.36366710E+03</pdfrwt>
<totfact> 0.19981191E+03</totfact>
</mgrwt>
</event>
<event>
 4    1  0.2489209E-004  0.4614965E+03  0.7818608E-02  0.1024348E+00
          2   -1    0    0  501    0  0.00000000000E+00  0.00000000000E+00  0.95531729640E+02  0.95531729674E+02  0.25500000000E-02 0.  1.
         -2   -1    0    0    0  501 -0.00000000000E+00 -0.00000000000E+00 -0.55735161471E+03  0.55735161472E+03  0.25500000000E-02 0. -1.
    5000001    1    1    2    0    0 -0.19885082442E+03 -0.22202341395E+02 -0.11019314364E+03  0.24105211727E+03  0.77000000000E+02 0.  0.
   -5000001    1    1    2    0    0  0.19885082442E+03  0.22202341395E+02 -0.35162674144E+03  0.41183122712E+03  0.77000000000E+02 0.  0.
<mgrwt>
<rscale>  0 0.46149654E+03</rscale>
<asrwt>0</asrwt>
<pdfrwt beam="1">  1        2 0.14697189E-01 0.46149654E+03</pdfrwt>
<pdfrwt beam="2">  1       -2 0.85746400E-01 0.46149654E+03</pdfrwt>
<totfact> 0.48972908E+02</totfact>
</mgrwt>
</event>
<event>
 4    1  0.2489209E-004  0.2407073E+03  0.7818608E-02  0.1119323E+00
         -2   -1    0    0    0  501 -0.00000000000E+00  0.00000000000E+00  0.17436608332E+02  0.17436608518E+02  0.25500000000E-02 0. -1.
          2   -1    0    0  501    0  0.00000000000E+00 -0.00000000000E+00 -0.83072361906E+03  0.83072361907E+03  0.25500000000E-02 0.  1.
    5000001    1    1    2    0    0  0.20887072775E+02 -0.33756692655E+02 -0.70103355392E+03  0.70636593054E+03  0.77000000000E+02 0.  0.
   -5000001    1    1    2    0    0 -0.20887072775E+02  0.33756692655E+02 -0.11225345681E+03  0.14179429705E+03  0.77000000000E+02 0.  0.
<mgrwt>
<rscale>  0 0.24070731E+03</rscale>
<asrwt>0</asrwt>
<pdfrwt beam="1">  1        2 0.12780360E+00 0.24070731E+03</pdfrwt>
<pdfrwt beam="2">  1       -2 0.26825558E-02 0.24070731E+03</pdfrwt>
<totfact> 0.16723337E+04</totfact>
</mgrwt>
</event>
<event>
 4    1  0.2489209E-004  0.2052185E+03  0.7818608E-02  0.1145409E+00
          2   -1    0    0  501    0  0.00000000000E+00  0.00000000000E+00  0.28114258934E+03  0.28114258936E+03  0.25500000000E-02 0.  1.
         -2   -1    0    0    0  501 -0.00000000000E+00 -0.00000000000E+00 -0.37449528149E+02  0.37449528236E+02  0.25500000000E-02 0. -1.
    5000001    1    1    2    0    0  0.45867198794E+02 -0.30433854098E+02  0.60340418202E+02  0.11224965688E+03  0.77000000000E+02 0.  0.
   -5000001    1    1    2    0    0 -0.45867198794E+02  0.30433854098E+02  0.18335264299E+03  0.20634246071E+03  0.77000000000E+02 0.  0.
<mgrwt>
<rscale>  0 0.20521849E+03</rscale>
<asrwt>0</asrwt>
<pdfrwt beam="1">  1        2 0.43252708E-01 0.20521849E+03</pdfrwt>
<pdfrwt beam="2">  1       -2 0.57614657E-02 0.20521849E+03</pdfrwt>
<totfact> 0.17917062E+04</totfact>
</mgrwt>
</event>
<event>
 4    1  0.2489209E-004  0.7441477E+03  0.7818608E-02  0.9644577E-01
          2   -1    0    0  501    0  0.00000000000E+00  0.00000000000E+00  0.90243230967E+03  0.90243230967E+03  0.25500000000E-02 0.  1.
         -2   -1    0    0    0  501 -0.00000000000E+00 -0.00000000000E+00 -0.15340646344E+03  0.15340646346E+03  0.25500000000E-02 0. -1.
    5000001    1    1    2    0    0 -0.82674847187E+01  0.34347534747E+03  0.54516711078E+03  0.64898370110E+03  0.77000000000E+02 0.  0.
   -5000001    1    1    2    0    0  0.82674847187E+01 -0.34347534747E+03  0.20385873545E+03  0.40685507203E+03  0.77000000000E+02 0.  0.
<mgrwt>
<rscale>  0 0.74414770E+03</rscale>
<asrwt>0</asrwt>
<pdfrwt beam="1">  1        2 0.13883574E+00 0.74414770E+03</pdfrwt>
<pdfrwt beam="2">  1       -2 0.23600995E-01 0.74414770E+03</pdfrwt>
<totfact> 0.46717258E+02</totfact>
</mgrwt>
</event>
<event>
 4    1  0.2489209E-004  0.1652664E+03  0.7818608E-02  0.1182876E+00
          2   -1    0    0  501    0  0.00000000000E+00  0.00000000000E+00  0.51790784904E+03  0.51790784905E+03  0.25500000000E-02 0.  1.
         -2   -1    0    0    0  501 -0.00000000000E+00 -0.00000000000E+00 -0.13184291476E+02  0.13184291723E+02  0.25500000000E-02 0. -1.
    5000001    1    1    2    0    0  0.16618921800E+01 -0.12120892465E+02  0.16438027414E+03  0.18193282399E+03  0.77000000000E+02 0.  0.
   -5000001    1    1    2    0    0 -0.16618921800E+01  0.12120892465E+02  0.34034328343E+03  0.34915931678E+03  0.77000000000E+02 0.  0.
<mgrwt>
<rscale>  0 0.16526643E+03</rscale>
<asrwt>0</asrwt>
<pdfrwt beam="1">  1        2 0.79678125E-01 0.16526643E+03</pdfrwt>
<pdfrwt beam="2">  1       -2 0.20283527E-02 0.16526643E+03</pdfrwt>
<totfact> 0.42964853E+04</totfact>
</mgrwt>
</event>
<event>
 4    1  0.2489209E-004  0.2162096E+03  0.7818608E-02  0.1136741E+00
         -2   -1    0    0    0  501 -0.00000000000E+00  0.00000000000E+00  0.99932205325E+01  0.99932208579E+01  0.25500000000E-02 0. -1.
          2   -1    0    0  501    0  0.00000000000E+00 -0.00000000000E+00 -0.11694572455E+04  0.11694572455E+04  0.25500000000E-02 0.  1.
    5000001    1    1    2    0    0  0.14722962285E+02  0.61797579542E+02 -0.80609923322E+03  0.81225653599E+03  0.77000000000E+02 0.  0.
   -5000001    1    1    2    0    0 -0.14722962285E+02 -0.61797579542E+02 -0.35336479172E+03  0.36719393035E+03  0.77000000000E+02 0.  0.
<mgrwt>
<rscale>  0 0.21620957E+03</rscale>
<asrwt>0</asrwt>
<pdfrwt beam="1">  1        2 0.17991639E+00 0.21620957E+03</pdfrwt>
<pdfrwt beam="2">  1       -2 0.15374195E-02 0.21620957E+03</pdfrwt>
<totfact> 0.23334012E+04</totfact>
</mgrwt>
</event>
<event>
 4    1  0.2489209E-004  0.3087671E+03  0.7818608E-02  0.1080938E+00
          2   -1    0    0  501    0  0.00000000000E+00  0.00000000000E+00  0.23066621876E+04  0.23066621876E+04  0.25500000000E-02 0.  1.
         -2   -1    0    0    0  501 -0.00000000000E+00 -0.00000000000E+00 -0.10332800432E+02  0.10332800746E+02  0.25500000000E-02 0. -1.
    5000001    1    1    2    0    0 -0.81977937715E+02 -0.10575346087E+03  0.11560480464E+04  0.11663105342E+04  0.77000000000E+02 0.  0.
   -5000001    1    1    2    0    0  0.81977937715E+02  0.10575346087E+03  0.11402813408E+04  0.11506844541E+04  0.77000000000E+02 0.  0.
<mgrwt>
<rscale>  0 0.30876710E+03</rscale>
<asrwt>0</asrwt>
<pdfrwt beam="1">  1        2 0.35487133E+00 0.30876710E+03</pdfrwt>
<pdfrwt beam="2">  1       -2 0.15896606E-02 0.30876710E+03</pdfrwt>
<totfact> 0.55307362E+03</totfact>
</mgrwt>
</event>
<event>
 4    1  0.2489209E-004  0.2540574E+03  0.7818608E-02  0.1110767E+00
          2   -1    0    0  501    0  0.00000000000E+00  0.00000000000E+00  0.38947103955E+03  0.38947103956E+03  0.25500000000E-02 0.  1.
         -2   -1    0    0    0  501 -0.00000000000E+00 -0.00000000000E+00 -0.41431289535E+02  0.41431289614E+02  0.25500000000E-02 0. -1.
    5000001    1    1    2    0    0 -0.26223230682E+02 -0.82163556298E+02  0.84773367533E+02  0.14336677319E+03  0.77000000000E+02 0.  0.
   -5000001    1    1    2    0    0  0.26223230682E+02  0.82163556298E+02  0.26326638248E+03  0.28753555599E+03  0.77000000000E+02 0.  0.
<mgrwt>
<rscale>  0 0.25405737E+03</rscale>
<asrwt>0</asrwt>
<pdfrwt beam="1">  1        2 0.59918623E-01 0.25405737E+03</pdfrwt>
<pdfrwt beam="2">  1       -2 0.63740444E-02 0.25405737E+03</pdfrwt>
<totfact> 0.10950530E+04</totfact>
</mgrwt>
</event>
<event>
 4    1  0.2489209E-004  0.2219163E+03  0.7818608E-02  0.1132462E+00
          2   -1    0    0  501    0  0.00000000000E+00  0.00000000000E+00  0.61905554825E+02  0.61905554878E+02  0.25500000000E-02 0.  1.
         -2   -1    0    0    0  501 -0.00000000000E+00 -0.00000000000E+00 -0.19887887090E+03  0.19887887091E+03  0.25500000000E-02 0. -1.
    5000001    1    1    2    0    0 -0.52766371523E+02 -0.54635896264E+02 -0.97589919131E+02  0.14567828747E+03  0.77000000000E+02 0.  0.
   -5000001    1    1    2    0    0  0.52766371523E+02  0.54635896264E+02 -0.39383396939E+02  0.11510613832E+03  0.77000000000E+02 0.  0.
<mgrwt>
<rscale>  0 0.22191626E+03</rscale>
<asrwt>0</asrwt>
<pdfrwt beam="1">  1        2 0.95239316E-02 0.22191626E+03</pdfrwt>
<pdfrwt beam="2">  1       -2 0.30596749E-01 0.22191626E+03</pdfrwt>
<totfact> 0.65825638E+03</totfact>
</mgrwt>
</event>
<event>
 4    1  0.2489209E-004  0.4546284E+03  0.7818608E-02  0.1026351E+00
          2   -1    0    0  501    0  0.00000000000E+00  0.00000000000E+00  0.61541549339E+03  0.61541549340E+03  0.25500000000E-02 0.  1.
         -2   -1    0    0    0  501 -0.00000000000E+00 -0.00000000000E+00 -0.83962388525E+02  0.83962388563E+02  0.25500000000E-02 0. -1.
    5000001    1    1    2    0    0 -0.21180576996E+03 -0.38301178999E+01  0.31100741700E+03  0.38409760143E+03  0.77000000000E+02 0.  0.
   -5000001    1    1    2    0    0  0.21180576996E+03  0.38301178999E+01  0.22044568787E+03  0.31528028053E+03  0.77000000000E+02 0.  0.
<mgrwt>
<rscale>  0 0.45462844E+03</rscale>
<asrwt>0</asrwt>
<pdfrwt beam="1">  1        2 0.94679308E-01 0.45462844E+03</pdfrwt>
<pdfrwt beam="2">  1       -2 0.12917290E-01 0.45462844E+03</pdfrwt>
<totfact> 0.21579233E+03</totfact>
</mgrwt>
</event>
<event>
 4    1  0.2489209E-004  0.2565602E+03  0.7818608E-02  0.1109228E+00
          2   -1    0    0  501    0  0.00000000000E+00  0.00000000000E+00  0.98000664083E+02  0.98000664116E+02  0.25500000000E-02 0.  1.
         -2   -1    0    0    0  501 -0.00000000000E+00 -0.00000000000E+00 -0.16791503966E+03  0.16791503968E+03  0.25500000000E-02 0. -1.
    5000001    1    1    2    0    0 -0.10979793667E+02 -0.77954621121E+02  0.33239589655E+02  0.11502760166E+03  0.77000000000E+02 0.  0.
   -5000001    1    1    2    0    0  0.10979793667E+02  0.77954621121E+02 -0.10315396523E+03  0.15088810214E+03  0.77000000000E+02 0.  0.
<mgrwt>
<rscale>  0 0.25656021E+03</rscale>
<asrwt>0</asrwt>
<pdfrwt beam="1">  1        2 0.15077025E-01 0.25656021E+03</pdfrwt>
<pdfrwt beam="2">  1       -2 0.25833083E-01 0.25656021E+03</pdfrwt>
<totfact> 0.51386082E+03</totfact>
</mgrwt>
</event>
<event>
 4    1  0.2489209E-004  0.8269055E+03  0.7818608E-02  0.9521869E-01
          2   -1    0    0  501    0  0.00000000000E+00  0.00000000000E+00  0.43805820325E+03  0.43805820326E+03  0.25500000000E-02 0.  1.
         -2   -1    0    0    0  501 -0.00000000000E+00 -0.00000000000E+00 -0.39022932633E+03  0.39022932634E+03  0.25500000000E-02 0. -1.
    5000001    1    1    2    0    0  0.22744566979E+03  0.33504723424E+03  0.55998829362E+02  0.41599645523E+03  0.77000000000E+02 0.  0.
   -5000001    1    1    2    0    0 -0.22744566979E+03 -0.33504723424E+03 -0.81699524380E+01  0.41229107436E+03  0.77000000000E+02 0.  0.
<mgrwt>
<rscale>  0 0.82690545E+03</rscale>
<asrwt>0</asrwt>
<pdfrwt beam="1">  1        2 0.67393570E-01 0.82690545E+03</pdfrwt>
<pdfrwt beam="2">  1       -2 0.60035281E-01 0.82690545E+03</pdfrwt>
<totfact> 0.18677664E+02</totfact>
</mgrwt>
</event>
<event>
 4    1  0.2489209E-004  0.1979498E+03  0.7818608E-02  0.1151480E+00
         -2   -1    0    0    0  501 -0.00000000000E+00  0.00000000000E+00  0.10075021372E+02  0.10075021695E+02  0.25500000000E-02 0. -1.
          2   -1    0    0  501    0  0.00000000000E+00 -0.00000000000E+00 -0.97230841161E+03  0.97230841161E+03  0.25500000000E-02 0.  1.
    5000001    1    1    2    0    0  0.10684131076E+01  0.24727785445E+02 -0.19800158929E+03  0.21388369325E+03  0.77000000000E+02 0.  0.
   -5000001    1    1    2    0    0 -0.10684131076E+01 -0.24727785445E+02 -0.76423180095E+03  0.76849974006E+03  0.77000000000E+02 0.  0.
<mgrwt>
<rscale>  0 0.19794977E+03</rscale>
<asrwt>0</asrwt>
<pdfrwt beam="1">  1        2 0.14958584E+00 0.19794977E+03</pdfrwt>
<pdfrwt beam="2">  1       -2 0.15500041E-02 0.19794977E+03</pdfrwt>
<totfact> 0.29972382E+04</totfact>
</mgrwt>
</event>
<event>
 4    1  0.2489209E-004  0.2323101E+03  0.7818608E-02  0.1125024E+00
          2   -1    0    0  501    0  0.00000000000E+00  0.00000000000E+00  0.29297467080E+03  0.29297467081E+03  0.25500000000E-02 0.  1.
         -2   -1    0    0    0  501 -0.00000000000E+00 -0.00000000000E+00 -0.46051750338E+02  0.46051750409E+02  0.25500000000E-02 0. -1.
    5000001    1    1    2    0    0  0.41441608104E+02 -0.76281586928E+02  0.11591932288E+03  0.16402005001E+03  0.77000000000E+02 0.  0.
   -5000001    1    1    2    0    0 -0.41441608104E+02  0.76281586928E+02  0.13100359758E+03  0.17500637121E+03  0.77000000000E+02 0.  0.
<mgrwt>
<rscale>  0 0.23231011E+03</rscale>
<asrwt>0</asrwt>
<pdfrwt beam="1">  1        2 0.45073024E-01 0.23231011E+03</pdfrwt>
<pdfrwt beam="2">  1       -2 0.70848850E-02 0.23231011E+03</pdfrwt>
<totfact> 0.12580914E+04</totfact>
</mgrwt>
</event>
<event>
 4    1  0.2489209E-004  0.2407302E+03  0.7818608E-02  0.1119307E+00
         -2   -1    0    0    0  501 -0.00000000000E+00  0.00000000000E+00  0.21204793426E+02  0.21204793579E+02  0.25500000000E-02 0. -1.
          2   -1    0    0  501    0  0.00000000000E+00 -0.00000000000E+00 -0.68323045420E+03  0.68323045421E+03  0.25500000000E-02 0.  1.
    5000001    1    1    2    0    0 -0.72124835020E+02 -0.57934010237E+02 -0.32911792021E+03  0.35043679426E+03  0.77000000000E+02 0.  0.
   -5000001    1    1    2    0    0  0.72124835020E+02  0.57934010237E+02 -0.33290774057E+03  0.35399845352E+03  0.77000000000E+02 0.  0.
<mgrwt>
<rscale>  0 0.24073023E+03</rscale>
<asrwt>0</asrwt>
<pdfrwt beam="1">  1        2 0.10511236E+00 0.24073023E+03</pdfrwt>
<pdfrwt beam="2">  1       -2 0.32622764E-02 0.24073023E+03</pdfrwt>
<totfact> 0.15942165E+04</totfact>
</mgrwt>
</event>
<event>
 4    1  0.2489209E-004  0.2411711E+03  0.7818608E-02  0.1119015E+00
          2   -1    0    0  501    0  0.00000000000E+00  0.00000000000E+00  0.32667344427E+03  0.32667344428E+03  0.25500000000E-02 0.  1.
         -2   -1    0    0    0  501 -0.00000000000E+00 -0.00000000000E+00 -0.44511945408E+02  0.44511945481E+02  0.25500000000E-02 0. -1.
    5000001    1    1    2    0    0  0.60894408945E+01 -0.88720209795E+02  0.10025803040E+03  0.15456076338E+03  0.77000000000E+02 0.  0.
   -5000001    1    1    2    0    0 -0.60894408945E+01  0.88720209795E+02  0.18190346846E+03  0.21662462638E+03  0.77000000000E+02 0.  0.
<mgrwt>
<rscale>  0 0.24117106E+03</rscale>
<asrwt>0</asrwt>
<pdfrwt beam="1">  1        2 0.50257454E-01 0.24117106E+03</pdfrwt>
<pdfrwt beam="2">  1       -2 0.68479914E-02 0.24117106E+03</pdfrwt>
<totfact> 0.11821300E+04</totfact>
</mgrwt>
</event>
<event>
 4    1  0.2489209E-004  0.5239917E+03  0.7818608E-02  0.1007700E+00
         -2   -1    0    0    0  501 -0.00000000000E+00  0.00000000000E+00  0.41490114187E+03  0.41490114187E+03  0.25500000000E-02 0. -1.
          2   -1    0    0  501    0  0.00000000000E+00 -0.00000000000E+00 -0.16544141366E+03  0.16544141368E+03  0.25500000000E-02 0.  1.
    5000001    1    1    2    0    0 -0.22729552756E+03  0.83103398500E+02  0.19602147189E+03  0.32081591159E+03  0.77000000000E+02 0.  0.
   -5000001    1    1    2    0    0  0.22729552756E+03 -0.83103398500E+02  0.53438256316E+02  0.25952664397E+03  0.77000000000E+02 0.  0.
<mgrwt>
<rscale>  0 0.52399172E+03</rscale>
<asrwt>0</asrwt>
<pdfrwt beam="1">  1        2 0.25452525E-01 0.52399172E+03</pdfrwt>
<pdfrwt beam="2">  1       -2 0.63830945E-01 0.52399172E+03</pdfrwt>
<totfact> 0.49150353E+02</totfact>
</mgrwt>
</event>
<event>
 4    1  0.2489209E-004  0.3350034E+03  0.7818608E-02  0.1068944E+00
         -2   -1    0    0    0  501 -0.00000000000E+00  0.00000000000E+00  0.33905223356E+03  0.33905223357E+03  0.25500000000E-02 0. -1.
          2   -1    0    0  501    0  0.00000000000E+00 -0.00000000000E+00 -0.82750739239E+02  0.82750739279E+02  0.25500000000E-02 0.  1.
    5000001    1    1    2    0    0 -0.11598588780E+03  0.54501118549E+01  0.24522267417E+03  0.28203827722E+03  0.77000000000E+02 0.  0.
   -5000001    1    1    2    0    0  0.11598588780E+03 -0.54501118549E+01  0.11078820152E+02  0.13976469563E+03  0.77000000000E+02 0.  0.
<mgrwt>
<rscale>  0 0.33500342E+03</rscale>
<asrwt>0</asrwt>
<pdfrwt beam="1">  1        2 0.12730883E-01 0.33500342E+03</pdfrwt>
<pdfrwt beam="2">  1       -2 0.52161882E-01 0.33500342E+03</pdfrwt>
<totfact> 0.16829499E+03</totfact>
</mgrwt>
</event>
<event>
 4    1  0.2489209E-004  0.3169971E+03  0.7818608E-02  0.1077040E+00
         -2   -1    0    0    0  501 -0.00000000000E+00  0.00000000000E+00  0.37740287610E+02  0.37740287696E+02  0.25500000000E-02 0. -1.
          2   -1    0    0  501    0  0.00000000000E+00 -0.00000000000E+00 -0.66564932231E+03  0.66564932232E+03  0.25500000000E-02 0.  1.
    5000001    1    1    2    0    0  0.93648213112E+02 -0.94856770590E+02 -0.39771677302E+03  0.42646855251E+03  0.77000000000E+02 0.  0.
   -5000001    1    1    2    0    0 -0.93648213112E+02  0.94856770590E+02 -0.23019226169E+03  0.27692105750E+03  0.77000000000E+02 0.  0.
<mgrwt>
<rscale>  0 0.31699714E+03</rscale>
<asrwt>0</asrwt>
<pdfrwt beam="1">  1        2 0.10240758E+00 0.31699714E+03</pdfrwt>
<pdfrwt beam="2">  1       -2 0.58061986E-02 0.31699714E+03</pdfrwt>
<totfact> 0.69530178E+03</totfact>
</mgrwt>
</event>
<event>
 4    1  0.2489209E-004  0.1773453E+03  0.7818608E-02  0.1170397E+00
         -2   -1    0    0    0  501 -0.00000000000E+00  0.00000000000E+00  0.11859991147E+02  0.11859991421E+02  0.25500000000E-02 0. -1.
          2   -1    0    0  501    0  0.00000000000E+00 -0.00000000000E+00 -0.66297203247E+03  0.66297203248E+03  0.25500000000E-02 0.  1.
    5000001    1    1    2    0    0  0.31743255085E+02 -0.26775395224E+02 -0.27050739214E+03  0.28430231311E+03  0.77000000000E+02 0.  0.
   -5000001    1    1    2    0    0 -0.31743255085E+02  0.26775395224E+02 -0.38060464918E+03  0.39052971079E+03  0.77000000000E+02 0.  0.
<mgrwt>
<rscale>  0 0.17734534E+03</rscale>
<asrwt>0</asrwt>
<pdfrwt beam="1">  1        2 0.10199567E+00 0.17734534E+03</pdfrwt>
<pdfrwt beam="2">  1       -2 0.18246146E-02 0.17734534E+03</pdfrwt>
<totfact> 0.38057044E+04</totfact>
</mgrwt>
</event>
<event>
 4    1  0.2489209E-004  0.2432282E+03  0.7818608E-02  0.1117661E+00
         -2   -1    0    0    0  501 -0.00000000000E+00  0.00000000000E+00  0.57715565544E+01  0.57715571177E+01  0.25500000000E-02 0. -1.
          2   -1    0    0  501    0  0.00000000000E+00 -0.00000000000E+00 -0.25625642299E+04  0.25625642299E+04  0.25500000000E-02 0.  1.
    5000001    1    1    2    0    0 -0.75169671016E+02  0.56614721964E+02 -0.13026574326E+04  0.13083199505E+04  0.77000000000E+02 0.  0.
   -5000001    1    1    2    0    0  0.75169671016E+02 -0.56614721964E+02 -0.12541352407E+04  0.12600158365E+04  0.77000000000E+02 0.  0.
<mgrwt>
<rscale>  0 0.24322817E+03</rscale>
<asrwt>0</asrwt>
<pdfrwt beam="1">  1        2 0.39423974E+00 0.24322817E+03</pdfrwt>
<pdfrwt beam="2">  1       -2 0.88793387E-03 0.24322817E+03</pdfrwt>
<totfact> 0.93807678E+03</totfact>
</mgrwt>
</event>
<event>
 4    1  0.2489209E-004  0.2460231E+03  0.7818608E-02  0.1115844E+00
          2   -1    0    0  501    0  0.00000000000E+00  0.00000000000E+00  0.64876060220E+03  0.64876060220E+03  0.25500000000E-02 0.  1.
         -2   -1    0    0    0  501 -0.00000000000E+00 -0.00000000000E+00 -0.23324231800E+02  0.23324231940E+02  0.25500000000E-02 0. -1.
    5000001    1    1    2    0    0  0.85251152683E+02  0.42907544087E+02  0.28622873377E+03  0.31139156124E+03  0.77000000000E+02 0.  0.
   -5000001    1    1    2    0    0 -0.85251152683E+02 -0.42907544087E+02  0.33920763663E+03  0.36069327290E+03  0.77000000000E+02 0.  0.
<mgrwt>
<rscale>  0 0.24602311E+03</rscale>
<asrwt>0</asrwt>
<pdfrwt beam="1">  1        2 0.99809336E-01 0.24602311E+03</pdfrwt>
<pdfrwt beam="2">  1       -2 0.35883429E-02 0.24602311E+03</pdfrwt>
<totfact> 0.14724971E+04</totfact>
</mgrwt>
</event>
<event>
 4    1  0.2489209E-004  0.2682181E+03  0.7818608E-02  0.1102304E+00
          2   -1    0    0  501    0  0.00000000000E+00  0.00000000000E+00  0.32507867255E+02  0.32507867355E+02  0.25500000000E-02 0.  1.
         -2   -1    0    0    0  501 -0.00000000000E+00 -0.00000000000E+00 -0.55325817688E+03  0.55325817689E+03  0.25500000000E-02 0. -1.
    5000001    1    1    2    0    0  0.86466477214E+02 -0.38434388421E+02 -0.38202125681E+03  0.40102729901E+03  0.77000000000E+02 0.  0.
   -5000001    1    1    2    0    0 -0.86466477214E+02  0.38434388421E+02 -0.13872905282E+03  0.18473874524E+03  0.77000000000E+02 0.  0.
<mgrwt>
<rscale>  0 0.26821815E+03</rscale>
<asrwt>0</asrwt>
<pdfrwt beam="1">  1        2 0.50012108E-02 0.26821815E+03</pdfrwt>
<pdfrwt beam="2">  1       -2 0.85116636E-01 0.26821815E+03</pdfrwt>
<totfact> 0.19438559E+03</totfact>
</mgrwt>
</event>
<event>
 4    1  0.2489209E-004  0.3550902E+03  0.7818608E-02  0.1060545E+00
         -2   -1    0    0    0  501 -0.00000000000E+00  0.00000000000E+00  0.17429891272E+03  0.17429891274E+03  0.25500000000E-02 0. -1.
          2   -1    0    0  501    0  0.00000000000E+00 -0.00000000000E+00 -0.18085175010E+03  0.18085175012E+03  0.25500000000E-02 0.  1.
    5000001    1    1    2    0    0  0.13295655257E+03  0.83997796560E+02  0.26057548856E+02  0.17703409432E+03  0.77000000000E+02 0.  0.
   -5000001    1    1    2    0    0 -0.13295655257E+03 -0.83997796560E+02 -0.32610386230E+02  0.17811656854E+03  0.77000000000E+02 0.  0.
<mgrwt>
<rscale>  0 0.35509020E+03</rscale>
<asrwt>0</asrwt>
<pdfrwt beam="1">  1        2 0.27823346E-01 0.35509020E+03</pdfrwt>
<pdfrwt beam="2">  1       -2 0.26815217E-01 0.35509020E+03</pdfrwt>
<totfact> 0.24025072E+03</totfact>
</mgrwt>
</event>
<event>
 4    1  0.2489209E-004  0.2590770E+03  0.7818608E-02  0.1107699E+00
         -2   -1    0    0    0  501 -0.00000000000E+00  0.00000000000E+00  0.15582236759E+03  0.15582236761E+03  0.25500000000E-02 0. -1.
          2   -1    0    0  501    0  0.00000000000E+00 -0.00000000000E+00 -0.10768818949E+03  0.10768818952E+03  0.25500000000E-02 0.  1.
    5000001    1    1    2    0    0 -0.10318532979E+03  0.12249664573E+02  0.31538686312E+02  0.13312007850E+03  0.77000000000E+02 0.  0.
   -5000001    1    1    2    0    0  0.10318532979E+03 -0.12249664573E+02  0.16595491791E+02  0.13039047862E+03  0.77000000000E+02 0.  0.
<mgrwt>
<rscale>  0 0.25907704E+03</rscale>
<asrwt>0</asrwt>
<pdfrwt beam="1">  1        2 0.16567414E-01 0.25907704E+03</pdfrwt>
<pdfrwt beam="2">  1       -2 0.23972672E-01 0.25907704E+03</pdfrwt>
<totfact> 0.52482166E+03</totfact>
</mgrwt>
</event>
<event>
 4    1  0.2489209E-004  0.1664737E+03  0.7818608E-02  0.1181576E+00
          2   -1    0    0  501    0  0.00000000000E+00  0.00000000000E+00  0.56611295078E+02  0.56611295136E+02  0.25500000000E-02 0.  1.
         -2   -1    0    0    0  501 -0.00000000000E+00 -0.00000000000E+00 -0.12238501639E+03  0.12238501642E+03  0.25500000000E-02 0. -1.
    5000001    1    1    2    0    0  0.27993552487E+02 -0.12308636562E+02 -0.41504270264E+02  0.92664696433E+02  0.77000000000E+02 0.  0.
   -5000001    1    1    2    0    0 -0.27993552487E+02  0.12308636562E+02 -0.24269451047E+02  0.86331615119E+02  0.77000000000E+02 0.  0.
<mgrwt>
<rscale>  0 0.16647371E+03</rscale>
<asrwt>0</asrwt>
<pdfrwt beam="1">  1        2 0.87094300E-02 0.16647371E+03</pdfrwt>
<pdfrwt beam="2">  1       -2 0.18828464E-01 0.16647371E+03</pdfrwt>
<totfact> 0.16842592E+04</totfact>
</mgrwt>
</event>
<event>
 4    1  0.2489209E-004  0.2073026E+03  0.7818608E-02  0.1143720E+00
          2   -1    0    0  501    0  0.00000000000E+00  0.00000000000E+00  0.43900151659E+04  0.43900151659E+04  0.25500000000E-02 0.  1.
         -2   -1    0    0    0  501 -0.00000000000E+00 -0.00000000000E+00 -0.24472788068E+01  0.24472801353E+01  0.25500000000E-02 0. -1.
    5000001    1    1    2    0    0  0.49939890399E+02  0.44086576317E+02  0.26051795209E+04  0.26071683787E+04  0.77000000000E+02 0.  0.
   -5000001    1    1    2    0    0 -0.49939890399E+02 -0.44086576317E+02  0.17823883662E+04  0.17852940673E+04  0.77000000000E+02 0.  0.
<mgrwt>
<rscale>  0 0.20730262E+03</rscale>
<asrwt>0</asrwt>
<pdfrwt beam="1">  1        2 0.67538437E+00 0.20730262E+03</pdfrwt>
<pdfrwt beam="2">  1       -2 0.37650597E-03 0.20730262E+03</pdfrwt>
<totfact> 0.18950595E+03</totfact>
</mgrwt>
</event>
<event>
 4    1  0.2489209E-004  0.2849365E+03  0.7818608E-02  0.1093023E+00
         -2   -1    0    0    0  501 -0.00000000000E+00  0.00000000000E+00  0.16116406251E+02  0.16116406452E+02  0.25500000000E-02 0. -1.
          2   -1    0    0  501    0  0.00000000000E+00 -0.00000000000E+00 -0.12594125178E+04  0.12594125178E+04  0.25500000000E-02 0.  1.
    5000001    1    1    2    0    0  0.86895652981E+02  0.82396535425E+02 -0.59789271771E+03  0.61460942512E+03  0.77000000000E+02 0.  0.
   -5000001    1    1    2    0    0 -0.86895652981E+02 -0.82396535425E+02 -0.64540339386E+03  0.66091949915E+03  0.77000000000E+02 0.  0.
<mgrwt>
<rscale>  0 0.28493651E+03</rscale>
<asrwt>0</asrwt>
<pdfrwt beam="1">  1        2 0.19375570E+00 0.28493651E+03</pdfrwt>
<pdfrwt beam="2">  1       -2 0.24794481E-02 0.28493651E+03</pdfrwt>
<totfact> 0.10402878E+04</totfact>
</mgrwt>
</event>
<event>
 4    1  0.2489209E-004  0.3687757E+03  0.7818608E-02  0.1055162E+00
          2   -1    0    0  501    0  0.00000000000E+00  0.00000000000E+00  0.13617831907E+04  0.13617831907E+04  0.25500000000E-02 0.  1.
         -2   -1    0    0    0  501 -0.00000000000E+00 -0.00000000000E+00 -0.24966434790E+02  0.24966434920E+02  0.25500000000E-02 0. -1.
    5000001    1    1    2    0    0 -0.10261805776E+03  0.12489291639E+03  0.50272954177E+03  0.53366159550E+03  0.77000000000E+02 0.  0.
   -5000001    1    1    2    0    0  0.10261805776E+03 -0.12489291639E+03  0.83408721409E+03  0.85308803007E+03  0.77000000000E+02 0.  0.
<mgrwt>
<rscale>  0 0.36877566E+03</rscale>
<asrwt>0</asrwt>
<pdfrwt beam="1">  1        2 0.20950518E+00 0.36877566E+03</pdfrwt>
<pdfrwt beam="2">  1       -2 0.38409887E-02 0.36877566E+03</pdfrwt>
<totfact> 0.47542479E+03</totfact>
</mgrwt>
</event>
<event>
 4    1  0.2489209E-004  0.1817825E+03  0.7818608E-02  0.1166089E+00
          2   -1    0    0  501    0  0.00000000000E+00  0.00000000000E+00  0.78651094811E+03  0.78651094811E+03  0.25500000000E-02 0.  1.
         -2   -1    0    0    0  501 -0.00000000000E+00 -0.00000000000E+00 -0.10503631354E+02  0.10503631664E+02  0.25500000000E-02 0. -1.
    5000001    1    1    2    0    0  0.47052230633E+02  0.29748685118E+01  0.34213249615E+03  0.35384517402E+03  0.77000000000E+02 0.  0.
   -5000001    1    1    2    0    0 -0.47052230633E+02 -0.29748685118E+01  0.43387482060E+03  0.44316940576E+03  0.77000000000E+02 0.  0.
<mgrwt>
<rscale>  0 0.18178252E+03</rscale>
<asrwt>0</asrwt>
<pdfrwt beam="1">  1        2 0.12100167E+00 0.18178252E+03</pdfrwt>
<pdfrwt beam="2">  1       -2 0.16159435E-02 0.18178252E+03</pdfrwt>
<totfact> 0.36993330E+04</totfact>
</mgrwt>
</event>
<event>
 4    1  0.2489209E-004  0.1792271E+03  0.7818608E-02  0.1168553E+00
         -2   -1    0    0    0  501 -0.00000000000E+00  0.00000000000E+00  0.21759206314E+02  0.21759206463E+02  0.25500000000E-02 0. -1.
          2   -1    0    0  501    0  0.00000000000E+00 -0.00000000000E+00 -0.36906638972E+03  0.36906638973E+03  0.25500000000E-02 0.  1.
    5000001    1    1    2    0    0 -0.19115328606E+02 -0.37954068871E+02 -0.13615684452E+03  0.16209131205E+03  0.77000000000E+02 0.  0.
   -5000001    1    1    2    0    0  0.19115328606E+02  0.37954068871E+02 -0.21115033888E+03  0.22873428414E+03  0.77000000000E+02 0.  0.
<mgrwt>
<rscale>  0 0.17922714E+03</rscale>
<asrwt>0</asrwt>
<pdfrwt beam="1">  1        2 0.56779440E-01 0.17922714E+03</pdfrwt>
<pdfrwt beam="2">  1       -2 0.33475705E-02 0.17922714E+03</pdfrwt>
<totfact> 0.29955267E+04</totfact>
</mgrwt>
</event>
<event>
 4    1  0.2489209E-004  0.1870185E+03  0.7818608E-02  0.1161178E+00
         -2   -1    0    0    0  501 -0.00000000000E+00  0.00000000000E+00  0.28179528745E+01  0.28179540283E+01  0.25500000000E-02 0. -1.
          2   -1    0    0  501    0  0.00000000000E+00 -0.00000000000E+00 -0.31029552842E+04  0.31029552842E+04  0.25500000000E-02 0.  1.
    5000001    1    1    2    0    0  0.10660690756E+02 -0.31695962270E+02 -0.22341181340E+04  0.22356947737E+04  0.77000000000E+02 0.  0.
   -5000001    1    1    2    0    0 -0.10660690756E+02  0.31695962270E+02 -0.86601919726E+03  0.87007846449E+03  0.77000000000E+02 0.  0.
<mgrwt>
<rscale>  0 0.18701854E+03</rscale>
<asrwt>0</asrwt>
<pdfrwt beam="1">  1        2 0.47737500E+00 0.18701854E+03</pdfrwt>
<pdfrwt beam="2">  1       -2 0.43353378E-03 0.18701854E+03</pdfrwt>
<totfact> 0.12859631E+04</totfact>
</mgrwt>
</event>
<event>
 4    1  0.2489209E-004  0.1902284E+03  0.7818608E-02  0.1158256E+00
         -2   -1    0    0    0  501 -0.00000000000E+00  0.00000000000E+00  0.43106475390E+02  0.43106475466E+02  0.25500000000E-02 0. -1.
          2   -1    0    0  501    0  0.00000000000E+00 -0.00000000000E+00 -0.20986890153E+03  0.20986890155E+03  0.25500000000E-02 0.  1.
    5000001    1    1    2    0    0  0.45415978668E+02 -0.23192529528E+02 -0.53137581677E+02  0.10655096025E+03  0.77000000000E+02 0.  0.
   -5000001    1    1    2    0    0 -0.45415978668E+02  0.23192529528E+02 -0.11362484447E+03  0.14642441676E+03  0.77000000000E+02 0.  0.
<mgrwt>
<rscale>  0 0.19022837E+03</rscale>
<asrwt>0</asrwt>
<pdfrwt beam="1">  1        2 0.32287523E-01 0.19022837E+03</pdfrwt>
<pdfrwt beam="2">  1       -2 0.66317656E-02 0.19022837E+03</pdfrwt>
<totfact> 0.19681380E+04</totfact>
</mgrwt>
</event>
<event>
 4    1  0.2489209E-004  0.2251400E+03  0.7818608E-02  0.1130108E+00
          2   -1    0    0  501    0  0.00000000000E+00  0.00000000000E+00  0.33347459897E+03  0.33347459898E+03  0.25500000000E-02 0.  1.
         -2   -1    0    0    0  501 -0.00000000000E+00 -0.00000000000E+00 -0.37999916534E+02  0.37999916620E+02  0.25500000000E-02 0. -1.
    5000001    1    1    2    0    0  0.72373049895E+02  0.38432885658E+02  0.13899687061E+03  0.17878499683E+03  0.77000000000E+02 0.  0.
   -5000001    1    1    2    0    0 -0.72373049895E+02 -0.38432885658E+02  0.15647781183E+03  0.19268951877E+03  0.77000000000E+02 0.  0.
<mgrwt>
<rscale>  0 0.22514002E+03</rscale>
<asrwt>0</asrwt>
<pdfrwt beam="1">  1        2 0.51303785E-01 0.22514002E+03</pdfrwt>
<pdfrwt beam="2">  1       -2 0.58461409E-02 0.22514002E+03</pdfrwt>
<totfact> 0.14684070E+04</totfact>
</mgrwt>
</event>
<event>
 4    1  0.2489209E-004  0.2433830E+03  0.7818608E-02  0.1117559E+00
         -2   -1    0    0    0  501 -0.00000000000E+00  0.00000000000E+00  0.52073573362E+03  0.52073573363E+03  0.25500000000E-02 0. -1.
          2   -1    0    0  501    0  0.00000000000E+00 -0.00000000000E+00 -0.28438267812E+02  0.28438267927E+02  0.25500000000E-02 0.  1.
    5000001    1    1    2    0    0 -0.10962594464E+02 -0.87358736898E+02  0.17036211441E+03  0.20664940700E+03  0.77000000000E+02 0.  0.
   -5000001    1    1    2    0    0  0.10962594464E+02  0.87358736898E+02  0.32193535140E+03  0.34252459455E+03  0.77000000000E+02 0.  0.
<mgrwt>
<rscale>  0 0.24338301E+03</rscale>
<asrwt>0</asrwt>
<pdfrwt beam="1">  1        2 0.43751185E-02 0.24338301E+03</pdfrwt>
<pdfrwt beam="2">  1       -2 0.80113184E-01 0.24338301E+03</pdfrwt>
<totfact> 0.26462594E+03</totfact>
</mgrwt>
</event>
<event>
 4    1  0.2489209E-004  0.2050602E+03  0.7818608E-02  0.1145539E+00
          2   -1    0    0  501    0  0.00000000000E+00  0.00000000000E+00  0.22774685632E+02  0.22774685775E+02  0.25500000000E-02 0.  1.
         -2   -1    0    0    0  501 -0.00000000000E+00 -0.00000000000E+00 -0.46158345830E+03  0.46158345830E+03  0.25500000000E-02 0. -1.
    5000001    1    1    2    0    0  0.57066396413E+02 -0.18738247594E+02 -0.29318605852E+03  0.30902226527E+03  0.77000000000E+02 0.  0.
   -5000001    1    1    2    0    0 -0.57066396413E+02  0.18738247594E+02 -0.14562271415E+03  0.17533587881E+03  0.77000000000E+02 0.  0.
<mgrwt>
<rscale>  0 0.20506017E+03</rscale>
<asrwt>0</asrwt>
<pdfrwt beam="1">  1        2 0.35037981E-02 0.20506017E+03</pdfrwt>
<pdfrwt beam="2">  1       -2 0.71012833E-01 0.20506017E+03</pdfrwt>
<totfact> 0.45887633E+03</totfact>
</mgrwt>
</event>
<event>
 4    1  0.2489209E-004  0.2328989E+03  0.7818608E-02  0.1124616E+00
         -2   -1    0    0    0  501 -0.00000000000E+00  0.00000000000E+00  0.83316139388E+01  0.83316143290E+01  0.25500000000E-02 0. -1.
          2   -1    0    0  501    0  0.00000000000E+00 -0.00000000000E+00 -0.16275929573E+04  0.16275929573E+04  0.25500000000E-02 0.  1.
    5000001    1    1    2    0    0 -0.19776921715E+02  0.83721398898E+02 -0.91640685080E+03  0.92365086232E+03  0.77000000000E+02 0.  0.
   -5000001    1    1    2    0    0  0.19776921715E+02 -0.83721398898E+02 -0.70285449254E+03  0.71227370930E+03  0.77000000000E+02 0.  0.
<mgrwt>
<rscale>  0 0.23289892E+03</rscale>
<asrwt>0</asrwt>
<pdfrwt beam="1">  1        2 0.25039866E+00 0.23289892E+03</pdfrwt>
<pdfrwt beam="2">  1       -2 0.12817881E-02 0.23289892E+03</pdfrwt>
<totfact> 0.17217982E+04</totfact>
</mgrwt>
</event>
<event>
 4    1  0.2489209E-004  0.2314900E+03  0.7818608E-02  0.1125595E+00
          2   -1    0    0  501    0  0.00000000000E+00  0.00000000000E+00  0.12318851486E+02  0.12318851750E+02  0.25500000000E-02 0.  1.
         -2   -1    0    0    0  501 -0.00000000000E+00 -0.00000000000E+00 -0.10875124256E+04  0.10875124256E+04  0.25500000000E-02 0. -1.
    5000001    1    1    2    0    0 -0.30440108640E+02  0.35553559553E+02 -0.19245494492E+03  0.21250543908E+03  0.77000000000E+02 0.  0.
   -5000001    1    1    2    0    0  0.30440108640E+02 -0.35553559553E+02 -0.88273862921E+03  0.88732583830E+03  0.77000000000E+02 0.  0.
<mgrwt>
<rscale>  0 0.23148999E+03</rscale>
<asrwt>0</asrwt>
<pdfrwt beam="1">  1        2 0.18952088E-02 0.23148999E+03</pdfrwt>
<pdfrwt beam="2">  1       -2 0.16730953E+00 0.23148999E+03</pdfrwt>
<totfact> 0.13924861E+03</totfact>
</mgrwt>
</event>
<event>
 4    1  0.2489209E-004  0.2082793E+03  0.7818608E-02  0.1142936E+00
         -2   -1    0    0    0  501 -0.00000000000E+00  0.00000000000E+00  0.91322446922E+02  0.91322446958E+02  0.25500000000E-02 0. -1.
          2   -1    0    0  501    0  0.00000000000E+00 -0.00000000000E+00 -0.11875572959E+03  0.11875572962E+03  0.25500000000E-02 0.  1.
    5000001    1    1    2    0    0 -0.64656118578E+02 -0.79268396172E+01  0.12446075292E+02  0.10162260204E+03  0.77000000000E+02 0.  0.
   -5000001    1    1    2    0    0  0.64656118578E+02  0.79268396172E+01 -0.39879357961E+02  0.10845557453E+03  0.77000000000E+02 0.  0.
<mgrwt>
<rscale>  0 0.20827927E+03</rscale>
<asrwt>0</asrwt>
<pdfrwt beam="1">  1        2 0.18270112E-01 0.20827927E+03</pdfrwt>
<pdfrwt beam="2">  1       -2 0.14049607E-01 0.20827927E+03</pdfrwt>
<totfact> 0.11424066E+04</totfact>
</mgrwt>
</event>
<event>
 4    1  0.2489209E-004  0.2106651E+03  0.7818608E-02  0.1141040E+00
          2   -1    0    0  501    0  0.00000000000E+00  0.00000000000E+00  0.33216797775E+03  0.33216797776E+03  0.25500000000E-02 0.  1.
         -2   -1    0    0    0  501 -0.00000000000E+00 -0.00000000000E+00 -0.33401621316E+02  0.33401621413E+02  0.25500000000E-02 0. -1.
    5000001    1    1    2    0    0 -0.39077588190E+02  0.51972779645E+02  0.96244063812E+02  0.13935618946E+03  0.77000000000E+02 0.  0.
   -5000001    1    1    2    0    0  0.39077588190E+02 -0.51972779645E+02  0.20252229262E+03  0.22621340970E+03  0.77000000000E+02 0.  0.
<mgrwt>
<rscale>  0 0.21066513E+03</rscale>
<asrwt>0</asrwt>
<pdfrwt beam="1">  1        2 0.51102764E-01 0.21066513E+03</pdfrwt>
<pdfrwt beam="2">  1       -2 0.51387112E-02 0.21066513E+03</pdfrwt>
<totfact> 0.17865983E+04</totfact>
</mgrwt>
</event>
<event>
 4    1  0.2489209E-004  0.2880242E+03  0.7818608E-02  0.1091385E+00
         -2   -1    0    0    0  501 -0.00000000000E+00  0.00000000000E+00  0.46156988447E+01  0.46156995491E+01  0.25500000000E-02 0. -1.
          2   -1    0    0  501    0  0.00000000000E+00 -0.00000000000E+00 -0.44932482320E+04  0.44932482320E+04  0.25500000000E-02 0.  1.
    5000001    1    1    2    0    0  0.82352551151E+02  0.83577344256E+02 -0.17398920451E+04  0.17455430226E+04  0.77000000000E+02 0.  0.
   -5000001    1    1    2    0    0 -0.82352551151E+02 -0.83577344256E+02 -0.27487404881E+04  0.27523209090E+04  0.77000000000E+02 0.  0.
<mgrwt>
<rscale>  0 0.28802418E+03</rscale>
<asrwt>0</asrwt>
<pdfrwt beam="1">  1        2 0.69126546E+00 0.28802418E+03</pdfrwt>
<pdfrwt beam="2">  1       -2 0.71011116E-03 0.28802418E+03</pdfrwt>
<totfact> 0.60101791E+02</totfact>
</mgrwt>
</event>
<event>
 4    1  0.2489209E-004  0.2053084E+03  0.7818608E-02  0.1145336E+00
          2   -1    0    0  501    0  0.00000000000E+00  0.00000000000E+00  0.52393252402E+03  0.52393252402E+03  0.25500000000E-02 0.  1.
         -2   -1    0    0    0  501 -0.00000000000E+00 -0.00000000000E+00 -0.20113051214E+02  0.20113051376E+02  0.25500000000E-02 0. -1.
    5000001    1    1    2    0    0  0.13624856931E+02  0.62098724550E+02  0.18881143982E+03  0.21358990642E+03  0.77000000000E+02 0.  0.
   -5000001    1    1    2    0    0 -0.13624856931E+02 -0.62098724550E+02  0.31500803299E+03  0.33045566898E+03  0.77000000000E+02 0.  0.
<mgrwt>
<rscale>  0 0.20530837E+03</rscale>
<asrwt>0</asrwt>
<pdfrwt beam="1">  1        2 0.80605007E-01 0.20530837E+03</pdfrwt>
<pdfrwt beam="2">  1       -2 0.30943155E-02 0.20530837E+03</pdfrwt>
<totfact> 0.23214119E+04</totfact>
</mgrwt>
</event>
<event>
 4    1  0.2489209E-004  0.1766237E+03  0.7818608E-02  0.1171111E+00
          2   -1    0    0  501    0  0.00000000000E+00  0.00000000000E+00  0.24443031311E+04  0.24443031311E+04  0.25500000000E-02 0.  1.
         -2   -1    0    0    0  501 -0.00000000000E+00 -0.00000000000E+00 -0.31906781481E+01  0.31906791670E+01  0.25500000000E-02 0. -1.
    5000001    1    1    2    0    0 -0.37600989018E+02  0.65880803156E+01  0.15020801950E+04  0.15045368554E+04  0.77000000000E+02 0.  0.
   -5000001    1    1    2    0    0  0.37600989018E+02 -0.65880803156E+01  0.93903225791E+03  0.94295695478E+03  0.77000000000E+02 0.  0.
<mgrwt>
<rscale>  0 0.17662373E+03</rscale>
<asrwt>0</asrwt>
<pdfrwt beam="1">  1        2 0.37604516E+00 0.17662373E+03</pdfrwt>
<pdfrwt beam="2">  1       -2 0.49087557E-03 0.17662373E+03</pdfrwt>
<totfact> 0.25282462E+04</totfact>
</mgrwt>
</event>
<event>
 4    1  0.2489209E-004  0.2433167E+03  0.7818608E-02  0.1117603E+00
         -2   -1    0    0    0  501 -0.00000000000E+00  0.00000000000E+00  0.24149255641E+02  0.24149255775E+02  0.25500000000E-02 0. -1.
          2   -1    0    0  501    0  0.00000000000E+00 -0.00000000000E+00 -0.61288644838E+03  0.61288644839E+03  0.25500000000E-02 0.  1.
    5000001    1    1    2    0    0  0.97489425323E+00  0.82740459866E+02 -0.17655787068E+03  0.20963925161E+03  0.77000000000E+02 0.  0.
   -5000001    1    1    2    0    0 -0.97489425323E+00 -0.82740459866E+02 -0.41217932206E+03  0.42739645255E+03  0.77000000000E+02 0.  0.
<mgrwt>
<rscale>  0 0.24331668E+03</rscale>
<asrwt>0</asrwt>
<pdfrwt beam="1">  1        2 0.94290211E-01 0.24331668E+03</pdfrwt>
<pdfrwt beam="2">  1       -2 0.37152706E-02 0.24331668E+03</pdfrwt>
<totfact> 0.14935423E+04</totfact>
</mgrwt>
</event>
<event>
 4    1  0.2489209E-004  0.2752913E+03  0.7818608E-02  0.1098289E+00
          2   -1    0    0  501    0  0.00000000000E+00  0.00000000000E+00  0.37598247368E+02  0.37598247455E+02  0.25500000000E-02 0.  1.
         -2   -1    0    0    0  501 -0.00000000000E+00 -0.00000000000E+00 -0.50391492841E+03  0.50391492841E+03  0.25500000000E-02 0. -1.
    5000001    1    1    2    0    0 -0.69406588169E+02 -0.47186238520E+02 -0.81127692400E+02  0.13983747016E+03  0.77000000000E+02 0.  0.
   -5000001    1    1    2    0    0  0.69406588169E+02  0.47186238520E+02 -0.38518898864E+03  0.40167570571E+03  0.77000000000E+02 0.  0.
<mgrwt>
<rscale>  0 0.27529125E+03</rscale>
<asrwt>0</asrwt>
<pdfrwt beam="1">  1        2 0.57843461E-02 0.27529125E+03</pdfrwt>
<pdfrwt beam="2">  1       -2 0.77525369E-01 0.27529125E+03</pdfrwt>
<totfact> 0.19755814E+03</totfact>
</mgrwt>
</event>
<event>
 4    1  0.2489209E-004  0.1964779E+03  0.7818608E-02  0.1152745E+00
          2   -1    0    0  501    0  0.00000000000E+00  0.00000000000E+00  0.53604063961E+03  0.53604063962E+03  0.25500000000E-02 0.  1.
         -2   -1    0    0    0  501 -0.00000000000E+00 -0.00000000000E+00 -0.18004022947E+02  0.18004023128E+02  0.25500000000E-02 0. -1.
    5000001    1    1    2    0    0  0.11996998199E+02  0.33922167813E+02  0.12009084963E+03  0.14712393959E+03  0.77000000000E+02 0.  0.
   -5000001    1    1    2    0    0 -0.11996998199E+02 -0.33922167813E+02  0.39794576703E+03  0.40692072315E+03  0.77000000000E+02 0.  0.
<mgrwt>
<rscale>  0 0.19647787E+03</rscale>
<asrwt>0</asrwt>
<pdfrwt beam="1">  1        2 0.82467791E-01 0.19647787E+03</pdfrwt>
<pdfrwt beam="2">  1       -2 0.27698497E-02 0.19647787E+03</pdfrwt>
<totfact> 0.26570526E+04</totfact>
</mgrwt>
</event>
<event>
 4    1  0.2489209E-004  0.1912480E+03  0.7818608E-02  0.1157341E+00
          2   -1    0    0  501    0  0.00000000000E+00  0.00000000000E+00  0.16946877904E+04  0.16946877904E+04  0.25500000000E-02 0.  1.
         -2   -1    0    0    0  501 -0.00000000000E+00 -0.00000000000E+00 -0.53956531563E+01  0.53956537589E+01  0.25500000000E-02 0. -1.
    5000001    1    1    2    0    0 -0.36472365915E+02  0.35305060369E+02  0.62006421758E+03  0.62688540794E+03  0.77000000000E+02 0.  0.
   -5000001    1    1    2    0    0  0.36472365915E+02 -0.35305060369E+02  0.10692279197E+04  0.10731980362E+04  0.77000000000E+02 0.  0.
<mgrwt>
<rscale>  0 0.19124799E+03</rscale>
<asrwt>0</asrwt>
<pdfrwt beam="1">  1        2 0.26072152E+00 0.19124799E+03</pdfrwt>
<pdfrwt beam="2">  1       -2 0.83009950E-03 0.19124799E+03</pdfrwt>
<totfact> 0.29491119E+04</totfact>
</mgrwt>
</event>
<event>
 4    1  0.2489209E-004  0.2649833E+03  0.7818608E-02  0.1104186E+00
         -2   -1    0    0    0  501 -0.00000000000E+00  0.00000000000E+00  0.95602774766E+02  0.95602774800E+02  0.25500000000E-02 0. -1.
          2   -1    0    0  501    0  0.00000000000E+00 -0.00000000000E+00 -0.18361425259E+03  0.18361425261E+03  0.25500000000E-02 0.  1.
    5000001    1    1    2    0    0  0.77243986801E+02 -0.41798967327E+02 -0.10990506353E+03  0.16038051676E+03  0.77000000000E+02 0.  0.
   -5000001    1    1    2    0    0 -0.77243986801E+02  0.41798967327E+02  0.21893585711E+02  0.11883651064E+03  0.77000000000E+02 0.  0.
<mgrwt>
<rscale>  0 0.26498326E+03</rscale>
<asrwt>0</asrwt>
<pdfrwt beam="1">  1        2 0.28248346E-01 0.26498326E+03</pdfrwt>
<pdfrwt beam="2">  1       -2 0.14708119E-01 0.26498326E+03</pdfrwt>
<totfact> 0.65670848E+03</totfact>
</mgrwt>
</event>
<event>
 4    1  0.2489209E-004  0.3958085E+03  0.7818608E-02  0.1045241E+00
         -2   -1    0    0    0  501 -0.00000000000E+00  0.00000000000E+00  0.24778811808E+03  0.24778811810E+03  0.25500000000E-02 0. -1.
          2   -1    0    0  501    0  0.00000000000E+00 -0.00000000000E+00 -0.15806285438E+03  0.15806285440E+03  0.25500000000E-02 0.  1.
    5000001    1    1    2    0    0  0.56229499218E+02 -0.43372836868E+02 -0.12730870612E+03  0.16486196109E+03  0.77000000000E+02 0.  0.
   -5000001    1    1    2    0    0 -0.56229499218E+02  0.43372836868E+02  0.21703396983E+03  0.24098901141E+03  0.77000000000E+02 0.  0.
<mgrwt>
<rscale>  0 0.39580853E+03</rscale>
<asrwt>0</asrwt>
<pdfrwt beam="1">  1        2 0.24317362E-01 0.39580853E+03</pdfrwt>
<pdfrwt beam="2">  1       -2 0.38121249E-01 0.39580853E+03</pdfrwt>
<totfact> 0.14604239E+03</totfact>
</mgrwt>
</event>
<event>
 4    1  0.2489209E-004  0.3023996E+03  0.7818608E-02  0.1084047E+00
          2   -1    0    0  501    0  0.00000000000E+00  0.00000000000E+00  0.20738413749E+04  0.20738413749E+04  0.25500000000E-02 0.  1.
         -2   -1    0    0    0  501 -0.00000000000E+00 -0.00000000000E+00 -0.11023690608E+02  0.11023690903E+02  0.25500000000E-02 0. -1.
    5000001    1    1    2    0    0  0.10220545459E+03  0.75970007717E+02  0.12157602045E+04  0.12248343855E+04  0.77000000000E+02 0.  0.
   -5000001    1    1    2    0    0 -0.10220545459E+03 -0.75970007717E+02  0.84705747982E+03  0.86003068034E+03  0.77000000000E+02 0.  0.
<mgrwt>
<rscale>  0 0.30239964E+03</rscale>
<asrwt>0</asrwt>
<pdfrwt beam="1">  1        2 0.31905233E+00 0.30239964E+03</pdfrwt>
<pdfrwt beam="2">  1       -2 0.16959535E-02 0.30239964E+03</pdfrwt>
<totfact> 0.66956793E+03</totfact>
</mgrwt>
</event>
<event>
 4    1  0.2489209E-004  0.1759509E+03  0.7818608E-02  0.1171780E+00
         -2   -1    0    0    0  501 -0.00000000000E+00  0.00000000000E+00  0.25076330150E+02  0.25076330280E+02  0.25500000000E-02 0. -1.
          2   -1    0    0  501    0  0.00000000000E+00 -0.00000000000E+00 -0.30864488171E+03  0.30864488172E+03  0.25500000000E-02 0.  1.
    5000001    1    1    2    0    0 -0.73996308609E+01 -0.30965105048E+02 -0.19533256683E+03  0.21236149353E+03  0.77000000000E+02 0.  0.
   -5000001    1    1    2    0    0  0.73996308609E+01  0.30965105048E+02 -0.88235984731E+02  0.12135971848E+03  0.77000000000E+02 0.  0.
<mgrwt>
<rscale>  0 0.17595091E+03</rscale>
<asrwt>0</asrwt>
<pdfrwt beam="1">  1        2 0.47483825E-01 0.17595091E+03</pdfrwt>
<pdfrwt beam="2">  1       -2 0.38578972E-02 0.17595091E+03</pdfrwt>
<totfact> 0.29316147E+04</totfact>
</mgrwt>
</event>
<event>
 4    1  0.2489209E-004  0.1703427E+03  0.7818608E-02  0.1177491E+00
         -2   -1    0    0    0  501 -0.00000000000E+00  0.00000000000E+00  0.10721418808E+02  0.10721419112E+02  0.25500000000E-02 0. -1.
          2   -1    0    0  501    0  0.00000000000E+00 -0.00000000000E+00 -0.67660439328E+03  0.67660439328E+03  0.25500000000E-02 0.  1.
    5000001    1    1    2    0    0 -0.12600739497E+02  0.33783586013E+02 -0.31274658674E+03  0.32409803584E+03  0.77000000000E+02 0.  0.
   -5000001    1    1    2    0    0  0.12600739497E+02 -0.33783586013E+02 -0.35313638773E+03  0.36322777655E+03  0.77000000000E+02 0.  0.
<mgrwt>
<rscale>  0 0.17034270E+03</rscale>
<asrwt>0</asrwt>
<pdfrwt beam="1">  1        2 0.10409295E+00 0.17034270E+03</pdfrwt>
<pdfrwt beam="2">  1       -2 0.16494496E-02 0.17034270E+03</pdfrwt>
<totfact> 0.42871416E+04</totfact>
</mgrwt>
</event>
<event>
 4    1  0.2489209E-004  0.1877778E+03  0.7818608E-02  0.1160481E+00
          2   -1    0    0  501    0  0.00000000000E+00  0.00000000000E+00  0.37177860579E+04  0.37177860579E+04  0.25500000000E-02 0.  1.
         -2   -1    0    0    0  501 -0.00000000000E+00 -0.00000000000E+00 -0.23710672347E+01  0.23710686059E+01  0.25500000000E-02 0. -1.
    5000001    1    1    2    0    0  0.28524905180E+02  0.44241827744E+02  0.16451479360E+04  0.16477899565E+04  0.77000000000E+02 0.  0.
   -5000001    1    1    2    0    0 -0.28524905180E+02 -0.44241827744E+02  0.20702670547E+04  0.20723671700E+04  0.77000000000E+02 0.  0.
<mgrwt>
<rscale>  0 0.18777778E+03</rscale>
<asrwt>0</asrwt>
<pdfrwt beam="1">  1        2 0.57196957E+00 0.18777778E+03</pdfrwt>
<pdfrwt beam="2">  1       -2 0.36477810E-03 0.18777778E+03</pdfrwt>
<totfact> 0.66257361E+03</totfact>
</mgrwt>
</event>
<event>
 4    1  0.2489209E-004  0.2074887E+03  0.7818608E-02  0.1143570E+00
          2   -1    0    0  501    0  0.00000000000E+00  0.00000000000E+00  0.32587918642E+03  0.32587918643E+03  0.25500000000E-02 0.  1.
         -2   -1    0    0    0  501 -0.00000000000E+00 -0.00000000000E+00 -0.33027246119E+02  0.33027246218E+02  0.25500000000E-02 0. -1.
    5000001    1    1    2    0    0  0.59031416010E+02 -0.22376528812E+02  0.19681155193E+03  0.22056564576E+03  0.77000000000E+02 0.  0.
   -5000001    1    1    2    0    0 -0.59031416010E+02  0.22376528812E+02  0.96040388375E+02  0.13834078689E+03  0.77000000000E+02 0.  0.
<mgrwt>
<rscale>  0 0.20748872E+03</rscale>
<asrwt>0</asrwt>
<pdfrwt beam="1">  1        2 0.50135260E-01 0.20748872E+03</pdfrwt>
<pdfrwt beam="2">  1       -2 0.50811148E-02 0.20748872E+03</pdfrwt>
<totfact> 0.18530313E+04</totfact>
</mgrwt>
</event>
<event>
 4    1  0.2489209E-004  0.2630783E+03  0.7818608E-02  0.1105308E+00
         -2   -1    0    0    0  501 -0.00000000000E+00  0.00000000000E+00  0.51815143460E+02  0.51815143523E+02  0.25500000000E-02 0. -1.
          2   -1    0    0  501    0  0.00000000000E+00 -0.00000000000E+00 -0.33392843280E+03  0.33392843281E+03  0.25500000000E-02 0.  1.
    5000001    1    1    2    0    0  0.10297889863E+03 -0.22767093694E+02 -0.11784715107E+03  0.17589754158E+03  0.77000000000E+02 0.  0.
   -5000001    1    1    2    0    0 -0.10297889863E+03  0.22767093694E+02 -0.16426613827E+03  0.20984603476E+03  0.77000000000E+02 0.  0.
<mgrwt>
<rscale>  0 0.26307831E+03</rscale>
<asrwt>0</asrwt>
<pdfrwt beam="1">  1        2 0.51373604E-01 0.26307831E+03</pdfrwt>
<pdfrwt beam="2">  1       -2 0.79715608E-02 0.26307831E+03</pdfrwt>
<totfact> 0.91574831E+03</totfact>
</mgrwt>
</event>
<event>
 4    1  0.2489209E-004  0.1855549E+03  0.7818608E-02  0.1162533E+00
          2   -1    0    0  501    0  0.00000000000E+00  0.00000000000E+00  0.31126459648E+03  0.31126459649E+03  0.25500000000E-02 0.  1.
         -2   -1    0    0    0  501 -0.00000000000E+00 -0.00000000000E+00 -0.27653810017E+02  0.27653810134E+02  0.25500000000E-02 0. -1.
    5000001    1    1    2    0    0  0.27883608338E+01  0.51579453167E+02  0.13590457041E+03  0.16452132750E+03  0.77000000000E+02 0.  0.
   -5000001    1    1    2    0    0 -0.27883608338E+01 -0.51579453167E+02  0.14770621605E+03  0.17439707912E+03  0.77000000000E+02 0.  0.
<mgrwt>
<rscale>  0 0.18555487E+03</rscale>
<asrwt>0</asrwt>
<pdfrwt beam="1">  1        2 0.47886858E-01 0.18555487E+03</pdfrwt>
<pdfrwt beam="2">  1       -2 0.42544326E-02 0.18555487E+03</pdfrwt>
<totfact> 0.25215647E+04</totfact>
</mgrwt>
</event>
<event>
 4    1  0.2489209E-004  0.1664478E+03  0.7818608E-02  0.1181604E+00
          2   -1    0    0  501    0  0.00000000000E+00  0.00000000000E+00  0.38071857736E+02  0.38071857822E+02  0.25500000000E-02 0.  1.
         -2   -1    0    0    0  501 -0.00000000000E+00 -0.00000000000E+00 -0.18192488900E+03  0.18192488902E+03  0.25500000000E-02 0. -1.
    5000001    1    1    2    0    0 -0.23310328897E+02  0.63939367764E+01 -0.98785810324E+02  0.12756131930E+03  0.77000000000E+02 0.  0.
   -5000001    1    1    2    0    0  0.23310328897E+02 -0.63939367764E+01 -0.45067220940E+02  0.92435427537E+02  0.77000000000E+02 0.  0.
<mgrwt>
<rscale>  0 0.16644781E+03</rscale>
<asrwt>0</asrwt>
<pdfrwt beam="1">  1        2 0.58572090E-02 0.16644781E+03</pdfrwt>
<pdfrwt beam="2">  1       -2 0.27988444E-01 0.16644781E+03</pdfrwt>
<totfact> 0.14051756E+04</totfact>
</mgrwt>
</event>
<event>
 4    1  0.2489209E-004  0.2140108E+03  0.7818608E-02  0.1138429E+00
         -2   -1    0    0    0  501 -0.00000000000E+00  0.00000000000E+00  0.70891574460E+01  0.70891579046E+01  0.25500000000E-02 0. -1.
          2   -1    0    0  501    0  0.00000000000E+00 -0.00000000000E+00 -0.16151643526E+04  0.16151643526E+04  0.25500000000E-02 0.  1.
    5000001    1    1    2    0    0 -0.15228728670E+02 -0.55234568475E+02 -0.11626705996E+04  0.11666253447E+04  0.77000000000E+02 0.  0.
   -5000001    1    1    2    0    0  0.15228728670E+02  0.55234568475E+02 -0.44540459553E+03  0.45562816578E+03  0.77000000000E+02 0.  0.
<mgrwt>
<rscale>  0 0.21401079E+03</rscale>
<asrwt>0</asrwt>
<pdfrwt beam="1">  1        2 0.24848653E+00 0.21401079E+03</pdfrwt>
<pdfrwt beam="2">  1       -2 0.10906409E-02 0.21401079E+03</pdfrwt>
<totfact> 0.22015023E+04</totfact>
</mgrwt>
</event>
<event>
 4    1  0.2489209E-004  0.1856424E+03  0.7818608E-02  0.1162451E+00
         -2   -1    0    0    0  501 -0.00000000000E+00  0.00000000000E+00  0.83550475920E+01  0.83550479811E+01  0.25500000000E-02 0. -1.
          2   -1    0    0  501    0  0.00000000000E+00 -0.00000000000E+00 -0.10312061404E+04  0.10312061404E+04  0.25500000000E-02 0.  1.
    5000001    1    1    2    0    0  0.16029908328E+02  0.30061596603E+02 -0.73018511150E+03  0.73502377826E+03  0.77000000000E+02 0.  0.
   -5000001    1    1    2    0    0 -0.16029908328E+02 -0.30061596603E+02 -0.29266598135E+03  0.30453741017E+03  0.77000000000E+02 0.  0.
<mgrwt>
<rscale>  0 0.18564242E+03</rscale>
<asrwt>0</asrwt>
<pdfrwt beam="1">  1        2 0.15864700E+00 0.18564242E+03</pdfrwt>
<pdfrwt beam="2">  1       -2 0.12853928E-02 0.18564242E+03</pdfrwt>
<totfact> 0.36056827E+04</totfact>
</mgrwt>
</event>
<event>
 4    1  0.2489209E-004  0.1667527E+03  0.7818608E-02  0.1181277E+00
          2   -1    0    0  501    0  0.00000000000E+00  0.00000000000E+00  0.14035739636E+03  0.14035739638E+03  0.25500000000E-02 0.  1.
         -2   -1    0    0    0  501 -0.00000000000E+00 -0.00000000000E+00 -0.49527982174E+02  0.49527982240E+02  0.25500000000E-02 0. -1.
    5000001    1    1    2    0    0 -0.30191107140E+02 -0.91980561575E+01  0.51277914616E+02  0.97747284948E+02  0.77000000000E+02 0.  0.
   -5000001    1    1    2    0    0  0.30191107140E+02  0.91980561575E+01  0.39551499567E+02  0.92138093671E+02  0.77000000000E+02 0.  0.
<mgrwt>
<rscale>  0 0.16675273E+03</rscale>
<asrwt>0</asrwt>
<pdfrwt beam="1">  1        2 0.21593445E-01 0.16675273E+03</pdfrwt>
<pdfrwt beam="2">  1       -2 0.76196897E-02 0.16675273E+03</pdfrwt>
<totfact> 0.24497381E+04</totfact>
</mgrwt>
</event>
<event>
 4    1  0.2489209E-004  0.2360812E+03  0.7818608E-02  0.1122431E+00
          2   -1    0    0  501    0  0.00000000000E+00  0.00000000000E+00  0.58514300522E+03  0.58514300522E+03  0.25500000000E-02 0.  1.
         -2   -1    0    0    0  501 -0.00000000000E+00 -0.00000000000E+00 -0.23812266467E+02  0.23812266603E+02  0.25500000000E-02 0. -1.
    5000001    1    1    2    0    0 -0.69042028054E+02 -0.35991116833E+02  0.39434835994E+03  0.40926982678E+03  0.77000000000E+02 0.  0.
   -5000001    1    1    2    0    0  0.69042028054E+02  0.35991116833E+02  0.16698237881E+03  0.19968544505E+03  0.77000000000E+02 0.  0.
<mgrwt>
<rscale>  0 0.23608118E+03</rscale>
<asrwt>0</asrwt>
<pdfrwt beam="1">  1        2 0.90021987E-01 0.23608118E+03</pdfrwt>
<pdfrwt beam="2">  1       -2 0.36634262E-02 0.23608118E+03</pdfrwt>
<totfact> 0.16067571E+04</totfact>
</mgrwt>
</event>
<event>
 4    1  0.2489209E-004  0.2291860E+03  0.7818608E-02  0.1127214E+00
         -2   -1    0    0    0  501 -0.00000000000E+00  0.00000000000E+00  0.10226120492E+02  0.10226120810E+02  0.25500000000E-02 0. -1.
          2   -1    0    0  501    0  0.00000000000E+00 -0.00000000000E+00 -0.12841194382E+04  0.12841194382E+04  0.25500000000E-02 0.  1.
    5000001    1    1    2    0    0  0.12675243413E+02 -0.31743135390E+02 -0.10756536068E+04  0.10789476217E+04  0.77000000000E+02 0.  0.
   -5000001    1    1    2    0    0 -0.12675243413E+02  0.31743135390E+02 -0.19823971091E+03  0.21539793736E+03  0.77000000000E+02 0.  0.
<mgrwt>
<rscale>  0 0.22918604E+03</rscale>
<asrwt>0</asrwt>
<pdfrwt beam="1">  1        2 0.19755671E+00 0.22918604E+03</pdfrwt>
<pdfrwt beam="2">  1       -2 0.15732503E-02 0.22918604E+03</pdfrwt>
<totfact> 0.19518199E+04</totfact>
</mgrwt>
</event>
<event>
 4    1  0.2489209E-004  0.2115289E+03  0.7818608E-02  0.1140361E+00
          2   -1    0    0  501    0  0.00000000000E+00  0.00000000000E+00  0.11835664375E+04  0.11835664375E+04  0.25500000000E-02 0.  1.
         -2   -1    0    0    0  501 -0.00000000000E+00 -0.00000000000E+00 -0.94511922242E+01  0.94511925682E+01  0.25500000000E-02 0. -1.
    5000001    1    1    2    0    0 -0.60809435884E+02  0.36443314982E+02  0.67281705189E+03  0.68090945655E+03  0.77000000000E+02 0.  0.
   -5000001    1    1    2    0    0  0.60809435884E+02 -0.36443314982E+02  0.50129819338E+03  0.51210817352E+03  0.77000000000E+02 0.  0.
<mgrwt>
<rscale>  0 0.21152885E+03</rscale>
<asrwt>0</asrwt>
<pdfrwt beam="1">  1        2 0.18208710E+00 0.21152885E+03</pdfrwt>
<pdfrwt beam="2">  1       -2 0.14540300E-02 0.21152885E+03</pdfrwt>
<totfact> 0.24813798E+04</totfact>
</mgrwt>
</event>
<event>
 4    1  0.2489209E-004  0.2613607E+03  0.7818608E-02  0.1106328E+00
          2   -1    0    0  501    0  0.00000000000E+00  0.00000000000E+00  0.10187876654E+04  0.10187876654E+04  0.25500000000E-02 0.  1.
         -2   -1    0    0    0  501 -0.00000000000E+00 -0.00000000000E+00 -0.16762422641E+02  0.16762422835E+02  0.25500000000E-02 0. -1.
    5000001    1    1    2    0    0 -0.82541138221E+02  0.65675100122E+02  0.48238998830E+03  0.49975529921E+03  0.77000000000E+02 0.  0.
   -5000001    1    1    2    0    0  0.82541138221E+02 -0.65675100122E+02  0.51963525446E+03  0.53579478903E+03  0.77000000000E+02 0.  0.
<mgrwt>
<rscale>  0 0.26136067E+03</rscale>
<asrwt>0</asrwt>
<pdfrwt beam="1">  1        2 0.15673660E+00 0.26136067E+03</pdfrwt>
<pdfrwt beam="2">  1       -2 0.25788336E-02 0.26136067E+03</pdfrwt>
<totfact> 0.13503744E+04</totfact>
</mgrwt>
</event>
<event>
 4    1  0.2489209E-004  0.5851666E+03  0.7818608E-02  0.9936668E-01
         -2   -1    0    0    0  501 -0.00000000000E+00  0.00000000000E+00  0.62407499120E+03  0.62407499120E+03  0.25500000000E-02 0. -1.
          2   -1    0    0  501    0  0.00000000000E+00 -0.00000000000E+00 -0.13717100344E+03  0.13717100346E+03  0.25500000000E-02 0.  1.
    5000001    1    1    2    0    0  0.13869780698E+03 -0.21765761979E+03  0.39214301860E+03  0.47572793501E+03  0.77000000000E+02 0.  0.
   -5000001    1    1    2    0    0 -0.13869780698E+03  0.21765761979E+03  0.94760969159E+02  0.28551805965E+03  0.77000000000E+02 0.  0.
<mgrwt>
<rscale>  0 0.58516662E+03</rscale>
<asrwt>0</asrwt>
<pdfrwt beam="1">  1        2 0.21103231E-01 0.58516662E+03</pdfrwt>
<pdfrwt beam="2">  1       -2 0.96011539E-01 0.58516662E+03</pdfrwt>
<totfact> 0.24546250E+02</totfact>
</mgrwt>
</event>
<event>
 4    1  0.2489209E-004  0.2072919E+03  0.7818608E-02  0.1143729E+00
         -2   -1    0    0    0  501 -0.00000000000E+00  0.00000000000E+00  0.32666209884E+02  0.32666209983E+02  0.25500000000E-02 0. -1.
          2   -1    0    0  501    0  0.00000000000E+00 -0.00000000000E+00 -0.32885619739E+03  0.32885619740E+03  0.25500000000E-02 0.  1.
    5000001    1    1    2    0    0 -0.14010450567E+02  0.65068504481E+02 -0.11395115253E+03  0.15278765710E+03  0.77000000000E+02 0.  0.
   -5000001    1    1    2    0    0  0.14010450567E+02 -0.65068504481E+02 -0.18223883498E+03  0.20873475028E+03  0.77000000000E+02 0.  0.
<mgrwt>
<rscale>  0 0.20729193E+03</rscale>
<asrwt>0</asrwt>
<pdfrwt beam="1">  1        2 0.50593259E-01 0.20729193E+03</pdfrwt>
<pdfrwt beam="2">  1       -2 0.50255710E-02 0.20729193E+03</pdfrwt>
<totfact> 0.18657377E+04</totfact>
</mgrwt>
</event>
<event>
 4    1  0.2489209E-004  0.2223926E+03  0.7818608E-02  0.1132112E+00
         -2   -1    0    0    0  501 -0.00000000000E+00  0.00000000000E+00  0.14243322108E+03  0.14243322110E+03  0.25500000000E-02 0. -1.
          2   -1    0    0  501    0  0.00000000000E+00 -0.00000000000E+00 -0.86809936564E+02  0.86809936602E+02  0.25500000000E-02 0.  1.
    5000001    1    1    2    0    0 -0.10195029259E+02 -0.52996834621E+02 -0.33371716395E+02  0.99776122177E+02  0.77000000000E+02 0.  0.
   -5000001    1    1    2    0    0  0.10195029259E+02  0.52996834621E+02  0.88995000913E+02  0.12946703553E+03  0.77000000000E+02 0.  0.
<mgrwt>
<rscale>  0 0.22239262E+03</rscale>
<asrwt>0</asrwt>
<pdfrwt beam="1">  1        2 0.13355375E-01 0.22239262E+03</pdfrwt>
<pdfrwt beam="2">  1       -2 0.21912803E-01 0.22239262E+03</pdfrwt>
<totfact> 0.78636504E+03</totfact>
</mgrwt>
</event>
<event>
 4    1  0.2489209E-004  0.4309366E+03  0.7818608E-02  0.1033565E+00
         -2   -1    0    0    0  501 -0.00000000000E+00  0.00000000000E+00  0.52947380385E+03  0.52947380386E+03  0.25500000000E-02 0. -1.
          2   -1    0    0  501    0  0.00000000000E+00 -0.00000000000E+00 -0.87684388642E+02  0.87684388679E+02  0.25500000000E-02 0.  1.
    5000001    1    1    2    0    0 -0.87359235789E+02 -0.17913908221E+03  0.26076718181E+03  0.33712159522E+03  0.77000000000E+02 0.  0.
   -5000001    1    1    2    0    0  0.87359235789E+02  0.17913908221E+03  0.18102223340E+03  0.28003659732E+03  0.77000000000E+02 0.  0.
<mgrwt>
<rscale>  0 0.43093659E+03</rscale>
<asrwt>0</asrwt>
<pdfrwt beam="1">  1        2 0.13489906E-01 0.43093659E+03</pdfrwt>
<pdfrwt beam="2">  1       -2 0.81457509E-01 0.43093659E+03</pdfrwt>
<totfact> 0.60982320E+02</totfact>
</mgrwt>
</event>
<event>
 4    1  0.2489209E-004  0.2293504E+03  0.7818608E-02  0.1127098E+00
          2   -1    0    0  501    0  0.00000000000E+00  0.00000000000E+00  0.14275406907E+04  0.14275406907E+04  0.25500000000E-02 0.  1.
         -2   -1    0    0    0  501 -0.00000000000E+00 -0.00000000000E+00 -0.92119240183E+01  0.92119243712E+01  0.25500000000E-02 0. -1.
    5000001    1    1    2    0    0  0.13227730666E+01  0.70615325798E+02  0.41313224353E+03  0.42614026401E+03  0.77000000000E+02 0.  0.
   -5000001    1    1    2    0    0 -0.13227730666E+01 -0.70615325798E+02  0.10051965231E+04  0.10106123510E+04  0.77000000000E+02 0.  0.
<mgrwt>
<rscale>  0 0.22935036E+03</rscale>
<asrwt>0</asrwt>
<pdfrwt beam="1">  1        2 0.21962173E+00 0.22935036E+03</pdfrwt>
<pdfrwt beam="2">  1       -2 0.14172185E-02 0.22935036E+03</pdfrwt>
<totfact> 0.18987745E+04</totfact>
</mgrwt>
</event>
<event>
 4    1  0.2489209E-004  0.2014072E+03  0.7818608E-02  0.1148557E+00
          2   -1    0    0  501    0  0.00000000000E+00  0.00000000000E+00  0.42063112996E+03  0.42063112996E+03  0.25500000000E-02 0.  1.
         -2   -1    0    0    0  501 -0.00000000000E+00 -0.00000000000E+00 -0.24109519841E+02  0.24109519976E+02  0.25500000000E-02 0. -1.
    5000001    1    1    2    0    0  0.21534443040E+01  0.50596713047E+02  0.10863127193E+03  0.14245847793E+03  0.77000000000E+02 0.  0.
   -5000001    1    1    2    0    0 -0.21534443040E+01 -0.50596713047E+02  0.28789033818E+03  0.30228217201E+03  0.77000000000E+02 0.  0.
<mgrwt>
<rscale>  0 0.20140720E+03</rscale>
<asrwt>0</asrwt>
<pdfrwt beam="1">  1        2 0.64712478E-01 0.20140720E+03</pdfrwt>
<pdfrwt beam="2">  1       -2 0.37091571E-02 0.20140720E+03</pdfrwt>
<totfact> 0.22546832E+04</totfact>
</mgrwt>
</event>
<event>
 4    1  0.2489209E-004  0.1960470E+03  0.7818608E-02  0.1153118E+00
          2   -1    0    0  501    0  0.00000000000E+00  0.00000000000E+00  0.93697001264E+03  0.93697001264E+03  0.25500000000E-02 0.  1.
         -2   -1    0    0    0  501 -0.00000000000E+00 -0.00000000000E+00 -0.10254972869E+02  0.10254973186E+02  0.25500000000E-02 0. -1.
    5000001    1    1    2    0    0 -0.10725674307E+01  0.32418080907E+02  0.71102332285E+03  0.71591567102E+03  0.77000000000E+02 0.  0.
   -5000001    1    1    2    0    0  0.10725674307E+01 -0.32418080907E+02  0.21569171691E+03  0.23130931481E+03  0.77000000000E+02 0.  0.
<mgrwt>
<rscale>  0 0.19604696E+03</rscale>
<asrwt>0</asrwt>
<pdfrwt beam="1">  1        2 0.14414923E+00 0.19604696E+03</pdfrwt>
<pdfrwt beam="2">  1       -2 0.15776882E-02 0.19604696E+03</pdfrwt>
<totfact> 0.30701764E+04</totfact>
</mgrwt>
</event>
<event>
 4    1  0.2489209E-004  0.1801709E+03  0.7818608E-02  0.1167638E+00
         -2   -1    0    0    0  501 -0.00000000000E+00  0.00000000000E+00  0.82077129525E+01  0.82077133487E+01  0.25500000000E-02 0. -1.
          2   -1    0    0  501    0  0.00000000000E+00 -0.00000000000E+00 -0.98875143341E+03  0.98875143341E+03  0.25500000000E-02 0.  1.
    5000001    1    1    2    0    0  0.32466213089E+01  0.26807236193E+02 -0.70150168214E+03  0.70623139162E+03  0.77000000000E+02 0.  0.
   -5000001    1    1    2    0    0 -0.32466213089E+01 -0.26807236193E+02 -0.27904203831E+03  0.29072775514E+03  0.77000000000E+02 0.  0.
<mgrwt>
<rscale>  0 0.18017090E+03</rscale>
<asrwt>0</asrwt>
<pdfrwt beam="1">  1        2 0.15211551E+00 0.18017090E+03</pdfrwt>
<pdfrwt beam="2">  1       -2 0.12627259E-02 0.18017090E+03</pdfrwt>
<totfact> 0.39147319E+04</totfact>
</mgrwt>
</event>
<event>
 4    1  0.2489209E-004  0.1914520E+03  0.7818608E-02  0.1157158E+00
         -2   -1    0    0    0  501 -0.00000000000E+00  0.00000000000E+00  0.46197817801E+01  0.46197824839E+01  0.25500000000E-02 0. -1.
          2   -1    0    0  501    0  0.00000000000E+00 -0.00000000000E+00 -0.19835274979E+04  0.19835274979E+04  0.25500000000E-02 0.  1.
    5000001    1    1    2    0    0 -0.30313804775E+01 -0.55850807850E+02 -0.88255683836E+03  0.88767340556E+03  0.77000000000E+02 0.  0.
   -5000001    1    1    2    0    0  0.30313804775E+01  0.55850807850E+02 -0.10963508777E+04  0.11004738748E+04  0.77000000000E+02 0.  0.
<mgrwt>
<rscale>  0 0.19145198E+03</rscale>
<asrwt>0</asrwt>
<pdfrwt beam="1">  1        2 0.30515740E+00 0.19145198E+03</pdfrwt>
<pdfrwt beam="2">  1       -2 0.71073729E-03 0.19145198E+03</pdfrwt>
<totfact> 0.26107498E+04</totfact>
</mgrwt>
</event>
<event>
 4    1  0.2489209E-004  0.2938858E+03  0.7818608E-02  0.1088338E+00
          2   -1    0    0  501    0  0.00000000000E+00  0.00000000000E+00  0.17212908633E+04  0.17212908633E+04  0.25500000000E-02 0.  1.
         -2   -1    0    0    0  501 -0.00000000000E+00 -0.00000000000E+00 -0.12544196862E+02  0.12544197122E+02  0.25500000000E-02 0. -1.
    5000001    1    1    2    0    0  0.54148939873E+02 -0.61971297995E+02  0.14106569575E+04  0.14151517944E+04  0.77000000000E+02 0.  0.
   -5000001    1    1    2    0    0 -0.54148939873E+02  0.61971297995E+02  0.29808970891E+03  0.31868326599E+03  0.77000000000E+02 0.  0.
<mgrwt>
<rscale>  0 0.29388577E+03</rscale>
<asrwt>0</asrwt>
<pdfrwt beam="1">  1        2 0.26481416E+00 0.29388577E+03</pdfrwt>
<pdfrwt beam="2">  1       -2 0.19298751E-02 0.29388577E+03</pdfrwt>
<totfact> 0.84921616E+03</totfact>
</mgrwt>
</event>
<event>
 4    1  0.2489209E-004  0.3179027E+03  0.7818608E-02  0.1076619E+00
          2   -1    0    0  501    0  0.00000000000E+00  0.00000000000E+00  0.41327234009E+03  0.41327234010E+03  0.25500000000E-02 0.  1.
         -2   -1    0    0    0  501 -0.00000000000E+00 -0.00000000000E+00 -0.61135289284E+02  0.61135289337E+02  0.25500000000E-02 0. -1.
    5000001    1    1    2    0    0 -0.12418068186E+03  0.13946428456E+02  0.26710130871E+03  0.30477443090E+03  0.77000000000E+02 0.  0.
   -5000001    1    1    2    0    0  0.12418068186E+03 -0.13946428456E+02  0.85035742098E+02  0.16963319854E+03  0.77000000000E+02 0.  0.
<mgrwt>
<rscale>  0 0.31790265E+03</rscale>
<asrwt>0</asrwt>
<pdfrwt beam="1">  1        2 0.63580360E-01 0.31790265E+03</pdfrwt>
<pdfrwt beam="2">  1       -2 0.94054291E-02 0.31790265E+03</pdfrwt>
<totfact> 0.56379176E+03</totfact>
</mgrwt>
</event>
<event>
 4    1  0.2489209E-004  0.2592365E+03  0.7818608E-02  0.1107603E+00
          2   -1    0    0  501    0  0.00000000000E+00  0.00000000000E+00  0.74562040196E+03  0.74562040196E+03  0.25500000000E-02 0.  1.
         -2   -1    0    0    0  501 -0.00000000000E+00 -0.00000000000E+00 -0.22532758705E+02  0.22532758849E+02  0.25500000000E-02 0. -1.
    5000001    1    1    2    0    0 -0.99123944935E+02 -0.25162219963E+02  0.30131184462E+03  0.32737825444E+03  0.77000000000E+02 0.  0.
   -5000001    1    1    2    0    0  0.99123944935E+02  0.25162219963E+02  0.42177579864E+03  0.44077490638E+03  0.77000000000E+02 0.  0.
<mgrwt>
<rscale>  0 0.25923645E+03</rscale>
<asrwt>0</asrwt>
<pdfrwt beam="1">  1        2 0.11471082E+00 0.25923645E+03</pdfrwt>
<pdfrwt beam="2">  1       -2 0.34665786E-02 0.25923645E+03</pdfrwt>
<totfact> 0.13135139E+04</totfact>
</mgrwt>
</event>
<event>
 4    1  0.2489209E-004  0.2283850E+03  0.7818608E-02  0.1127782E+00
          2   -1    0    0  501    0  0.00000000000E+00  0.00000000000E+00  0.12994065675E+04  0.12994065675E+04  0.25500000000E-02 0.  1.
         -2   -1    0    0    0  501 -0.00000000000E+00 -0.00000000000E+00 -0.10035294167E+02  0.10035294491E+02  0.25500000000E-02 0. -1.
    5000001    1    1    2    0    0  0.54681801352E+02 -0.63639632566E+02  0.59643396894E+03  0.60720884508E+03  0.77000000000E+02 0.  0.
   -5000001    1    1    2    0    0 -0.54681801352E+02  0.63639632566E+02  0.69293730443E+03  0.70223301695E+03  0.77000000000E+02 0.  0.
<mgrwt>
<rscale>  0 0.22838500E+03</rscale>
<asrwt>0</asrwt>
<pdfrwt beam="1">  1        2 0.19990849E+00 0.22838500E+03</pdfrwt>
<pdfrwt beam="2">  1       -2 0.15438930E-02 0.22838500E+03</pdfrwt>
<totfact> 0.19672923E+04</totfact>
</mgrwt>
</event>
<event>
 4    1  0.2489209E-004  0.4145987E+03  0.7818608E-02  0.1038839E+00
          2   -1    0    0  501    0  0.00000000000E+00  0.00000000000E+00  0.22172388417E+04  0.22172388417E+04  0.25500000000E-02 0.  1.
         -2   -1    0    0    0  501 -0.00000000000E+00 -0.00000000000E+00 -0.19381320515E+02  0.19381320683E+02  0.25500000000E-02 0. -1.
    5000001    1    1    2    0    0  0.11474819575E+03 -0.10451292017E+03  0.48493368395E+03  0.51495609205E+03  0.77000000000E+02 0.  0.
   -5000001    1    1    2    0    0 -0.11474819575E+03  0.10451292017E+03  0.17129238372E+04  0.17216640703E+04  0.77000000000E+02 0.  0.
<mgrwt>
<rscale>  0 0.41459868E+03</rscale>
<asrwt>0</asrwt>
<pdfrwt beam="1">  1        2 0.34111355E+00 0.41459868E+03</pdfrwt>
<pdfrwt beam="2">  1       -2 0.29817427E-02 0.41459868E+03</pdfrwt>
<totfact> 0.24149869E+03</totfact>
</mgrwt>
</event>
<event>
 4    1  0.2489209E-004  0.7444342E+03  0.7818608E-02  0.9644123E-01
          2   -1    0    0  501    0  0.00000000000E+00  0.00000000000E+00  0.73191461539E+02  0.73191461584E+02  0.25500000000E-02 0.  1.
         -2   -1    0    0    0  501 -0.00000000000E+00 -0.00000000000E+00 -0.18929197204E+04  0.18929197204E+04  0.25500000000E-02 0. -1.
    5000001    1    1    2    0    0  0.20621721640E+03  0.20016651520E+03 -0.15005718631E+04  0.15297833475E+04  0.77000000000E+02 0.  0.
   -5000001    1    1    2    0    0 -0.20621721640E+03 -0.20016651520E+03 -0.31915639578E+03  0.43632783444E+03  0.77000000000E+02 0.  0.
<mgrwt>
<rscale>  0 0.74443418E+03</rscale>
<asrwt>0</asrwt>
<pdfrwt beam="1">  1        2 0.11260226E-01 0.74443418E+03</pdfrwt>
<pdfrwt beam="2">  1       -2 0.29121838E+00 0.74443418E+03</pdfrwt>
<totfact> 0.21371237E+01</totfact>
</mgrwt>
</event>
<event>
 4    1  0.2489209E-004  0.2406329E+03  0.7818608E-02  0.1119372E+00
          2   -1    0    0  501    0  0.00000000000E+00  0.00000000000E+00  0.28070028247E+03  0.28070028248E+03  0.25500000000E-02 0.  1.
         -2   -1    0    0    0  501 -0.00000000000E+00 -0.00000000000E+00 -0.51571203581E+02  0.51571203644E+02  0.25500000000E-02 0. -1.
    5000001    1    1    2    0    0  0.42561589153E+02  0.77009150932E+02  0.15374569933E+03  0.19315444147E+03  0.77000000000E+02 0.  0.
   -5000001    1    1    2    0    0 -0.42561589153E+02 -0.77009150932E+02  0.75383379559E+02  0.13911704465E+03  0.77000000000E+02 0.  0.
<mgrwt>
<rscale>  0 0.24063293E+03</rscale>
<asrwt>0</asrwt>
<pdfrwt beam="1">  1        2 0.43184659E-01 0.24063293E+03</pdfrwt>
<pdfrwt beam="2">  1       -2 0.79340313E-02 0.24063293E+03</pdfrwt>
<totfact> 0.11070211E+04</totfact>
</mgrwt>
</event>
<event>
 4    1  0.2489209E-004  0.3678050E+03  0.7818608E-02  0.1055535E+00
         -2   -1    0    0    0  501 -0.00000000000E+00  0.00000000000E+00  0.46782674084E+02  0.46782674153E+02  0.25500000000E-02 0. -1.
          2   -1    0    0  501    0  0.00000000000E+00 -0.00000000000E+00 -0.72292000735E+03  0.72292000735E+03  0.25500000000E-02 0.  1.
    5000001    1    1    2    0    0  0.16965582229E+02  0.15964646801E+03 -0.43433945527E+03  0.46941941602E+03  0.77000000000E+02 0.  0.
   -5000001    1    1    2    0    0 -0.16965582229E+02 -0.15964646801E+03 -0.24179787799E+03  0.30028326549E+03  0.77000000000E+02 0.  0.
<mgrwt>
<rscale>  0 0.36780501E+03</rscale>
<asrwt>0</asrwt>
<pdfrwt beam="1">  1        2 0.11121845E+00 0.36780501E+03</pdfrwt>
<pdfrwt beam="2">  1       -2 0.71973350E-02 0.36780501E+03</pdfrwt>
<totfact> 0.45199646E+03</totfact>
</mgrwt>
</event>
<event>
 4    1  0.2489209E-004  0.2346128E+03  0.7818608E-02  0.1123435E+00
          2   -1    0    0  501    0  0.00000000000E+00  0.00000000000E+00  0.14434123983E+04  0.14434123983E+04  0.25500000000E-02 0.  1.
         -2   -1    0    0    0  501 -0.00000000000E+00 -0.00000000000E+00 -0.95335119298E+01  0.95335122708E+01  0.25500000000E-02 0. -1.
    5000001    1    1    2    0    0 -0.81005903697E+02 -0.20388626827E+02  0.89793234783E+03  0.90509068818E+03  0.77000000000E+02 0.  0.
   -5000001    1    1    2    0    0  0.81005903697E+02  0.20388626827E+02  0.53594653852E+03  0.54785522238E+03  0.77000000000E+02 0.  0.
<mgrwt>
<rscale>  0 0.23461278E+03</rscale>
<asrwt>0</asrwt>
<pdfrwt beam="1">  1        2 0.22206340E+00 0.23461278E+03</pdfrwt>
<pdfrwt beam="2">  1       -2 0.14666945E-02 0.23461278E+03</pdfrwt>
<totfact> 0.17727646E+04</totfact>
</mgrwt>
</event>
<event>
 4    1  0.2489209E-004  0.3798222E+03  0.7818608E-02  0.1051000E+00
          2   -1    0    0  501    0  0.00000000000E+00  0.00000000000E+00  0.15405101916E+03  0.15405101918E+03  0.25500000000E-02 0.  1.
         -2   -1    0    0    0  501 -0.00000000000E+00 -0.00000000000E+00 -0.23411866802E+03  0.23411866803E+03  0.25500000000E-02 0. -1.
    5000001    1    1    2    0    0  0.71709982688E+01 -0.16074753537E+03  0.26559798102E+02  0.18034859639E+03  0.77000000000E+02 0.  0.
   -5000001    1    1    2    0    0 -0.71709982688E+01  0.16074753537E+03 -0.10662744697E+03  0.20782109082E+03  0.77000000000E+02 0.  0.
<mgrwt>
<rscale>  0 0.37982217E+03</rscale>
<asrwt>0</asrwt>
<pdfrwt beam="1">  1        2 0.23700157E-01 0.37982217E+03</pdfrwt>
<pdfrwt beam="2">  1       -2 0.36018257E-01 0.37982217E+03</pdfrwt>
<totfact> 0.16738285E+03</totfact>
</mgrwt>
</event>
<event>
 4    1  0.2489209E-004  0.2063046E+03  0.7818608E-02  0.1144526E+00
          2   -1    0    0  501    0  0.00000000000E+00  0.00000000000E+00  0.71377298684E+02  0.71377298730E+02  0.25500000000E-02 0.  1.
         -2   -1    0    0    0  501 -0.00000000000E+00 -0.00000000000E+00 -0.14907260000E+03  0.14907260002E+03  0.25500000000E-02 0. -1.
    5000001    1    1    2    0    0 -0.22354704319E+02  0.52050081053E+02  0.25715570774E+01  0.95627175262E+02  0.77000000000E+02 0.  0.
   -5000001    1    1    2    0    0  0.22354704319E+02 -0.52050081053E+02 -0.80266858393E+02  0.12482272349E+03  0.77000000000E+02 0.  0.
<mgrwt>
<rscale>  0 0.20630462E+03</rscale>
<asrwt>0</asrwt>
<pdfrwt beam="1">  1        2 0.10981123E-01 0.20630462E+03</pdfrwt>
<pdfrwt beam="2">  1       -2 0.22934246E-01 0.20630462E+03</pdfrwt>
<totfact> 0.91709025E+03</totfact>
</mgrwt>
</event>
<event>
 4    1  0.2489209E-004  0.3778468E+03  0.7818608E-02  0.1051732E+00
         -2   -1    0    0    0  501 -0.00000000000E+00  0.00000000000E+00  0.24250148982E+03  0.24250148983E+03  0.25500000000E-02 0. -1.
          2   -1    0    0  501    0  0.00000000000E+00 -0.00000000000E+00 -0.14718283816E+03  0.14718283818E+03  0.25500000000E-02 0.  1.
    5000001    1    1    2    0    0 -0.12462447104E+03  0.11770980678E+03  0.27655796391E+02  0.18994920497E+03  0.77000000000E+02 0.  0.
   -5000001    1    1    2    0    0  0.12462447104E+03 -0.11770980678E+03  0.67662855263E+02  0.19973512304E+03  0.77000000000E+02 0.  0.
<mgrwt>
<rscale>  0 0.37784683E+03</rscale>
<asrwt>0</asrwt>
<pdfrwt beam="1">  1        2 0.22643514E-01 0.37784683E+03</pdfrwt>
<pdfrwt beam="2">  1       -2 0.37307921E-01 0.37784683E+03</pdfrwt>
<totfact> 0.16492898E+03</totfact>
</mgrwt>
</event>
<event>
 4    1  0.2489209E-004  0.4482201E+03  0.7818608E-02  0.1028254E+00
          2   -1    0    0  501    0  0.00000000000E+00  0.00000000000E+00  0.14735768179E+04  0.14735768179E+04  0.25500000000E-02 0.  1.
         -2   -1    0    0    0  501 -0.00000000000E+00 -0.00000000000E+00 -0.34083952040E+02  0.34083952136E+02  0.25500000000E-02 0. -1.
    5000001    1    1    2    0    0 -0.20985437454E+03  0.10482562838E+02  0.67888396477E+03  0.71481548687E+03  0.77000000000E+02 0.  0.
   -5000001    1    1    2    0    0  0.20985437454E+03 -0.10482562838E+02  0.76060890113E+03  0.79284528322E+03  0.77000000000E+02 0.  0.
<mgrwt>
<rscale>  0 0.44822013E+03</rscale>
<asrwt>0</asrwt>
<pdfrwt beam="1">  1        2 0.22670415E+00 0.44822013E+03</pdfrwt>
<pdfrwt beam="2">  1       -2 0.52436843E-02 0.44822013E+03</pdfrwt>
<totfact> 0.25618328E+03</totfact>
</mgrwt>
</event>
<event>
 4    1  0.2489209E-004  0.1755430E+03  0.7818608E-02  0.1172188E+00
          2   -1    0    0  501    0  0.00000000000E+00  0.00000000000E+00  0.25634723186E+04  0.25634723186E+04  0.25500000000E-02 0.  1.
         -2   -1    0    0    0  501 -0.00000000000E+00 -0.00000000000E+00 -0.30052329138E+01  0.30052339957E+01  0.25500000000E-02 0. -1.
    5000001    1    1    2    0    0  0.43011750669E+01  0.40602642231E+02  0.11284659526E+04  0.11318266125E+04  0.77000000000E+02 0.  0.
   -5000001    1    1    2    0    0 -0.43011750669E+01 -0.40602642231E+02  0.14320011331E+04  0.14346509401E+04  0.77000000000E+02 0.  0.
<mgrwt>
<rscale>  0 0.17554296E+03</rscale>
<asrwt>0</asrwt>
<pdfrwt beam="1">  1        2 0.39438222E+00 0.17554296E+03</pdfrwt>
<pdfrwt beam="2">  1       -2 0.46234142E-03 0.17554296E+03</pdfrwt>
<totfact> 0.23736858E+04</totfact>
</mgrwt>
</event>
<event>
 4    1  0.2489209E-004  0.2327304E+03  0.7818608E-02  0.1124733E+00
          2   -1    0    0  501    0  0.00000000000E+00  0.00000000000E+00  0.80765718598E+03  0.80765718598E+03  0.25500000000E-02 0.  1.
         -2   -1    0    0    0  501 -0.00000000000E+00 -0.00000000000E+00 -0.16765607612E+02  0.16765607806E+02  0.25500000000E-02 0. -1.
    5000001    1    1    2    0    0  0.35654132058E+02 -0.75892671071E+02  0.48082768190E+03  0.49412060708E+03  0.77000000000E+02 0.  0.
   -5000001    1    1    2    0    0 -0.35654132058E+02  0.75892671071E+02  0.31006389647E+03  0.33030218671E+03  0.77000000000E+02 0.  0.
<mgrwt>
<rscale>  0 0.23273043E+03</rscale>
<asrwt>0</asrwt>
<pdfrwt beam="1">  1        2 0.12425497E+00 0.23273043E+03</pdfrwt>
<pdfrwt beam="2">  1       -2 0.25793239E-02 0.23273043E+03</pdfrwt>
<totfact> 0.18341332E+04</totfact>
</mgrwt>
</event>
<event>
 4    1  0.2489209E-004  0.2572631E+03  0.7818608E-02  0.1108799E+00
         -2   -1    0    0    0  501 -0.00000000000E+00  0.00000000000E+00  0.71370359385E+03  0.71370359386E+03  0.25500000000E-02 0. -1.
          2   -1    0    0  501    0  0.00000000000E+00 -0.00000000000E+00 -0.23183400882E+02  0.23183401022E+02  0.25500000000E-02 0.  1.
    5000001    1    1    2    0    0  0.50544834283E+02 -0.84654987041E+02  0.43099073442E+03  0.44877974582E+03  0.77000000000E+02 0.  0.
   -5000001    1    1    2    0    0 -0.50544834283E+02  0.84654987041E+02  0.25952945855E+03  0.28810724906E+03  0.77000000000E+02 0.  0.
<mgrwt>
<rscale>  0 0.25726311E+03</rscale>
<asrwt>0</asrwt>
<pdfrwt beam="1">  1        2 0.35666773E-02 0.25726311E+03</pdfrwt>
<pdfrwt beam="2">  1       -2 0.10980055E+00 0.25726311E+03</pdfrwt>
<totfact> 0.16961812E+03</totfact>
</mgrwt>
</event>
<event>
 4    1  0.2489209E-004  0.2492879E+03  0.7818608E-02  0.1113756E+00
         -2   -1    0    0    0  501 -0.00000000000E+00  0.00000000000E+00  0.11207403654E+02  0.11207403944E+02  0.25500000000E-02 0. -1.
          2   -1    0    0  501    0  0.00000000000E+00 -0.00000000000E+00 -0.13862371263E+04  0.13862371263E+04  0.25500000000E-02 0.  1.
    5000001    1    1    2    0    0 -0.58523700262E+02 -0.20449034608E+02 -0.11131061809E+04  0.11174871616E+04  0.77000000000E+02 0.  0.
   -5000001    1    1    2    0    0  0.58523700262E+02  0.20449034608E+02 -0.26192354179E+03  0.27995736863E+03  0.77000000000E+02 0.  0.
<mgrwt>
<rscale>  0 0.24928794E+03</rscale>
<asrwt>0</asrwt>
<pdfrwt beam="1">  1        2 0.21326712E+00 0.24928794E+03</pdfrwt>
<pdfrwt beam="2">  1       -2 0.17242171E-02 0.24928794E+03</pdfrwt>
<totfact> 0.15061388E+04</totfact>
</mgrwt>
</event>
<event>
 4    1  0.2489209E-004  0.1940782E+03  0.7818608E-02  0.1154834E+00
         -2   -1    0    0    0  501 -0.00000000000E+00  0.00000000000E+00  0.25258667342E+02  0.25258667470E+02  0.25500000000E-02 0. -1.
          2   -1    0    0  501    0  0.00000000000E+00 -0.00000000000E+00 -0.37280599999E+03  0.37280600000E+03  0.25500000000E-02 0.  1.
    5000001    1    1    2    0    0  0.52855751794E+02 -0.83080584575E+01 -0.12250436929E+03  0.15426948768E+03  0.77000000000E+02 0.  0.
   -5000001    1    1    2    0    0 -0.52855751794E+02  0.83080584575E+01 -0.22504296336E+03  0.24379517979E+03  0.77000000000E+02 0.  0.
<mgrwt>
<rscale>  0 0.19407816E+03</rscale>
<asrwt>0</asrwt>
<pdfrwt beam="1">  1        2 0.57354765E-01 0.19407816E+03</pdfrwt>
<pdfrwt beam="2">  1       -2 0.38859491E-02 0.19407816E+03</pdfrwt>
<totfact> 0.23891235E+04</totfact>
</mgrwt>
</event>
<event>
 4    1  0.2489209E-004  0.3050043E+03  0.7818608E-02  0.1082765E+00
          2   -1    0    0  501    0  0.00000000000E+00  0.00000000000E+00  0.26396709819E+04  0.26396709819E+04  0.25500000000E-02 0.  1.
         -2   -1    0    0    0  501 -0.00000000000E+00 -0.00000000000E+00 -0.88105330352E+01  0.88105334042E+01  0.25500000000E-02 0. -1.
    5000001    1    1    2    0    0  0.99131788519E+02  0.74604108538E+02  0.93345589719E+03  0.94480780930E+03  0.77000000000E+02 0.  0.
   -5000001    1    1    2    0    0 -0.99131788519E+02 -0.74604108538E+02  0.16974045517E+04  0.17036737060E+04  0.77000000000E+02 0.  0.
<mgrwt>
<rscale>  0 0.30500432E+03</rscale>
<asrwt>0</asrwt>
<pdfrwt beam="1">  1        2 0.40610370E+00 0.30500432E+03</pdfrwt>
<pdfrwt beam="2">  1       -2 0.13554651E-02 0.30500432E+03</pdfrwt>
<totfact> 0.45877701E+03</totfact>
</mgrwt>
</event>
<event>
 4    1  0.2489209E-004  0.2757399E+03  0.7818608E-02  0.1098039E+00
          2   -1    0    0  501    0  0.00000000000E+00  0.00000000000E+00  0.90973611873E+03  0.90973611873E+03  0.25500000000E-02 0.  1.
         -2   -1    0    0    0  501 -0.00000000000E+00 -0.00000000000E+00 -0.20894103422E+02  0.20894103578E+02  0.25500000000E-02 0. -1.
    5000001    1    1    2    0    0 -0.84050882231E+02 -0.64654292247E+02  0.29986914970E+03  0.32725408363E+03  0.77000000000E+02 0.  0.
   -5000001    1    1    2    0    0  0.84050882231E+02  0.64654292247E+02  0.58897286561E+03  0.60337613869E+03  0.77000000000E+02 0.  0.
<mgrwt>
<rscale>  0 0.27573988E+03</rscale>
<asrwt>0</asrwt>
<pdfrwt beam="1">  1        2 0.13995942E+00 0.27573988E+03</pdfrwt>
<pdfrwt beam="2">  1       -2 0.32144772E-02 0.27573988E+03</pdfrwt>
<totfact> 0.11404674E+04</totfact>
</mgrwt>
</event>
<event>
 4    1  0.2489209E-004  0.2285932E+03  0.7818608E-02  0.1127634E+00
          2   -1    0    0  501    0  0.00000000000E+00  0.00000000000E+00  0.17675839476E+04  0.17675839476E+04  0.25500000000E-02 0.  1.
         -2   -1    0    0    0  501 -0.00000000000E+00 -0.00000000000E+00 -0.73907148793E+01  0.73907153192E+01  0.25500000000E-02 0. -1.
    5000001    1    1    2    0    0  0.20962225755E+02 -0.79605638175E+02  0.10270616530E+04  0.10332284896E+04  0.77000000000E+02 0.  0.
   -5000001    1    1    2    0    0 -0.20962225755E+02  0.79605638175E+02  0.73313157964E+03  0.74174617330E+03  0.77000000000E+02 0.  0.
<mgrwt>
<rscale>  0 0.22859317E+03</rscale>
<asrwt>0</asrwt>
<pdfrwt beam="1">  1        2 0.27193649E+00 0.22859317E+03</pdfrwt>
<pdfrwt beam="2">  1       -2 0.11370310E-02 0.22859317E+03</pdfrwt>
<totfact> 0.17295590E+04</totfact>
</mgrwt>
</event>
<event>
 4    1  0.2489209E-004  0.2055047E+03  0.7818608E-02  0.1145176E+00
         -2   -1    0    0    0  501 -0.00000000000E+00  0.00000000000E+00  0.25130645775E+02  0.25130645905E+02  0.25500000000E-02 0. -1.
          2   -1    0    0  501    0  0.00000000000E+00 -0.00000000000E+00 -0.42012629011E+03  0.42012629011E+03  0.25500000000E-02 0.  1.
    5000001    1    1    2    0    0  0.83515762588E+01  0.46496467314E+02 -0.30358353600E+03  0.31673906236E+03  0.77000000000E+02 0.  0.
   -5000001    1    1    2    0    0 -0.83515762588E+01 -0.46496467314E+02 -0.91412108336E+02  0.12851787366E+03  0.77000000000E+02 0.  0.
<mgrwt>
<rscale>  0 0.20550470E+03</rscale>
<asrwt>0</asrwt>
<pdfrwt beam="1">  1        2 0.64634809E-01 0.20550470E+03</pdfrwt>
<pdfrwt beam="2">  1       -2 0.38662535E-02 0.20550470E+03</pdfrwt>
<totfact> 0.21250530E+04</totfact>
</mgrwt>
</event>
<event>
 4    1  0.2489209E-004  0.2128009E+03  0.7818608E-02  0.1139367E+00
         -2   -1    0    0    0  501 -0.00000000000E+00  0.00000000000E+00  0.11078004407E+02  0.11078004700E+02  0.25500000000E-02 0. -1.
          2   -1    0    0  501    0  0.00000000000E+00 -0.00000000000E+00 -0.10219395414E+04  0.10219395415E+04  0.25500000000E-02 0.  1.
    5000001    1    1    2    0    0  0.13800490142E+02  0.71856691134E+02 -0.53543908603E+03  0.54587347658E+03  0.77000000000E+02 0.  0.
   -5000001    1    1    2    0    0 -0.13800490142E+02 -0.71856691134E+02 -0.47542245101E+03  0.48714406957E+03  0.77000000000E+02 0.  0.
<mgrwt>
<rscale>  0 0.21280085E+03</rscale>
<asrwt>0</asrwt>
<pdfrwt beam="1">  1        2 0.15722139E+00 0.21280085E+03</pdfrwt>
<pdfrwt beam="2">  1       -2 0.17043092E-02 0.21280085E+03</pdfrwt>
<totfact> 0.24464177E+04</totfact>
</mgrwt>
</event>
<event>
 4    1  0.2489209E-004  0.2720893E+03  0.7818608E-02  0.1100090E+00
          2   -1    0    0  501    0  0.00000000000E+00  0.00000000000E+00  0.43048089275E+03  0.43048089276E+03  0.25500000000E-02 0.  1.
         -2   -1    0    0    0  501 -0.00000000000E+00 -0.00000000000E+00 -0.42994104170E+02  0.42994104246E+02  0.25500000000E-02 0. -1.
    5000001    1    1    2    0    0  0.76486301183E+02 -0.76218267832E+02  0.14096899077E+03  0.19354750057E+03  0.77000000000E+02 0.  0.
   -5000001    1    1    2    0    0 -0.76486301183E+02  0.76218267832E+02  0.24651779782E+03  0.27992749643E+03  0.77000000000E+02 0.  0.
<mgrwt>
<rscale>  0 0.27208925E+03</rscale>
<asrwt>0</asrwt>
<pdfrwt beam="1">  1        2 0.66227833E-01 0.27208925E+03</pdfrwt>
<pdfrwt beam="2">  1       -2 0.66144772E-02 0.27208925E+03</pdfrwt>
<totfact> 0.93029204E+03</totfact>
</mgrwt>
</event>
<event>
 4    1  0.2489209E-004  0.3121614E+03  0.7818608E-02  0.1079314E+00
          2   -1    0    0  501    0  0.00000000000E+00  0.00000000000E+00  0.31721827498E+03  0.31721827499E+03  0.25500000000E-02 0.  1.
         -2   -1    0    0    0  501 -0.00000000000E+00 -0.00000000000E+00 -0.76796306524E+02  0.76796306567E+02  0.25500000000E-02 0. -1.
    5000001    1    1    2    0    0  0.94826387450E+02  0.73009010381E+02  0.39292992549E+02  0.14763230885E+03  0.77000000000E+02 0.  0.
   -5000001    1    1    2    0    0 -0.94826387450E+02 -0.73009010381E+02  0.20112897590E+03  0.24638227270E+03  0.77000000000E+02 0.  0.
<mgrwt>
<rscale>  0 0.31216144E+03</rscale>
<asrwt>0</asrwt>
<pdfrwt beam="1">  1        2 0.48802811E-01 0.31216144E+03</pdfrwt>
<pdfrwt beam="2">  1       -2 0.11814816E-01 0.31216144E+03</pdfrwt>
<totfact> 0.52126350E+03</totfact>
</mgrwt>
</event>
<event>
 4    1  0.2489209E-004  0.2038828E+03  0.7818608E-02  0.1146504E+00
         -2   -1    0    0    0  501 -0.00000000000E+00  0.00000000000E+00  0.50599937168E+03  0.50599937168E+03  0.25500000000E-02 0. -1.
          2   -1    0    0  501    0  0.00000000000E+00 -0.00000000000E+00 -0.20537663726E+02  0.20537663884E+02  0.25500000000E-02 0.  1.
    5000001    1    1    2    0    0 -0.45281707276E+02  0.49019164655E+02  0.25078801786E+03  0.27069713966E+03  0.77000000000E+02 0.  0.
   -5000001    1    1    2    0    0  0.45281707276E+02 -0.49019164655E+02  0.23467369009E+03  0.25583989591E+03  0.77000000000E+02 0.  0.
<mgrwt>
<rscale>  0 0.20388276E+03</rscale>
<asrwt>0</asrwt>
<pdfrwt beam="1">  1        2 0.31596409E-02 0.20388276E+03</pdfrwt>
<pdfrwt beam="2">  1       -2 0.77846050E-01 0.20388276E+03</pdfrwt>
<totfact> 0.43226944E+03</totfact>
</mgrwt>
</event>
<event>
 4    1  0.2489209E-004  0.1999485E+03  0.7818608E-02  0.1149782E+00
         -2   -1    0    0    0  501 -0.00000000000E+00  0.00000000000E+00  0.15572003306E+03  0.15572003308E+03  0.25500000000E-02 0. -1.
          2   -1    0    0  501    0  0.00000000000E+00 -0.00000000000E+00 -0.64184736008E+02  0.64184736059E+02  0.25500000000E-02 0.  1.
    5000001    1    1    2    0    0 -0.54582642330E+02  0.32939660246E+02  0.47142697738E+02  0.11052474841E+03  0.77000000000E+02 0.  0.
   -5000001    1    1    2    0    0  0.54582642330E+02 -0.32939660246E+02  0.44392599310E+02  0.10938002073E+03  0.77000000000E+02 0.  0.
<mgrwt>
<rscale>  0 0.19994849E+03</rscale>
<asrwt>0</asrwt>
<pdfrwt beam="1">  1        2 0.98745749E-02 0.19994849E+03</pdfrwt>
<pdfrwt beam="2">  1       -2 0.23956928E-01 0.19994849E+03</pdfrwt>
<totfact> 0.96682822E+03</totfact>
</mgrwt>
</event>
<event>
 4    1  0.2489209E-004  0.2124596E+03  0.7818608E-02  0.1139633E+00
          2   -1    0    0  501    0  0.00000000000E+00  0.00000000000E+00  0.73082215208E+03  0.73082215208E+03  0.25500000000E-02 0.  1.
         -2   -1    0    0    0  501 -0.00000000000E+00 -0.00000000000E+00 -0.15441202165E+02  0.15441202376E+02  0.25500000000E-02 0. -1.
    5000001    1    1    2    0    0  0.70287173445E+02 -0.11119161283E+02  0.41769661546E+03  0.43065460065E+03  0.77000000000E+02 0.  0.
   -5000001    1    1    2    0    0 -0.70287173445E+02  0.11119161283E+02  0.29768433446E+03  0.31560875381E+03  0.77000000000E+02 0.  0.
<mgrwt>
<rscale>  0 0.21245962E+03</rscale>
<asrwt>0</asrwt>
<pdfrwt beam="1">  1        2 0.11243418E+00 0.21245962E+03</pdfrwt>
<pdfrwt beam="2">  1       -2 0.23755695E-02 0.21245962E+03</pdfrwt>
<totfact> 0.23327271E+04</totfact>
</mgrwt>
</event>
<event>
 4    1  0.2489209E-004  0.1627448E+03  0.7818608E-02  0.1185632E+00
         -2   -1    0    0    0  501 -0.00000000000E+00  0.00000000000E+00  0.64808697814E+01  0.64808702831E+01  0.25500000000E-02 0. -1.
          2   -1    0    0  501    0  0.00000000000E+00 -0.00000000000E+00 -0.10216943528E+04  0.10216943528E+04  0.25500000000E-02 0.  1.
    5000001    1    1    2    0    0  0.93075627617E+00  0.25830943463E+02 -0.47642232879E+03  0.48329632661E+03  0.77000000000E+02 0.  0.
   -5000001    1    1    2    0    0 -0.93075627617E+00 -0.25830943463E+02 -0.53879115422E+03  0.54487889646E+03  0.77000000000E+02 0.  0.
<mgrwt>
<rscale>  0 0.16274481E+03</rscale>
<asrwt>0</asrwt>
<pdfrwt beam="1">  1        2 0.15718362E+00 0.16274481E+03</pdfrwt>
<pdfrwt beam="2">  1       -2 0.99705774E-03 0.16274481E+03</pdfrwt>
<totfact> 0.52116934E+04</totfact>
</mgrwt>
</event>
<event>
 4    1  0.2489209E-004  0.1703280E+03  0.7818608E-02  0.1177506E+00
         -2   -1    0    0    0  501 -0.00000000000E+00  0.00000000000E+00  0.66028237699E+02  0.66028237748E+02  0.25500000000E-02 0. -1.
          2   -1    0    0  501    0  0.00000000000E+00 -0.00000000000E+00 -0.10984549816E+03  0.10984549819E+03  0.25500000000E-02 0.  1.
    5000001    1    1    2    0    0 -0.26640875761E+02  0.19313026995E+02 -0.37944093438E+02  0.91931950376E+02  0.77000000000E+02 0.  0.
   -5000001    1    1    2    0    0  0.26640875761E+02 -0.19313026995E+02 -0.58731670266E+01  0.83941785566E+02  0.77000000000E+02 0.  0.
<mgrwt>
<rscale>  0 0.17032797E+03</rscale>
<asrwt>0</asrwt>
<pdfrwt beam="1">  1        2 0.16899307E-01 0.17032797E+03</pdfrwt>
<pdfrwt beam="2">  1       -2 0.10158190E-01 0.17032797E+03</pdfrwt>
<totfact> 0.20725435E+04</totfact>
</mgrwt>
</event>
<event>
 4    1  0.2489209E-004  0.3291539E+03  0.7818608E-02  0.1071512E+00
         -2   -1    0    0    0  501 -0.00000000000E+00  0.00000000000E+00  0.25025560306E+03  0.25025560307E+03  0.25500000000E-02 0. -1.
          2   -1    0    0  501    0  0.00000000000E+00 -0.00000000000E+00 -0.10823163934E+03  0.10823163937E+03  0.25500000000E-02 0.  1.
    5000001    1    1    2    0    0 -0.41817604149E+02 -0.11978627435E+03  0.14847809660E+03  0.20993381983E+03  0.77000000000E+02 0.  0.
   -5000001    1    1    2    0    0  0.41817604149E+02  0.11978627435E+03 -0.64541328683E+01  0.14855342261E+03  0.77000000000E+02 0.  0.
<mgrwt>
<rscale>  0 0.32915391E+03</rscale>
<asrwt>0</asrwt>
<pdfrwt beam="1">  1        2 0.16651021E-01 0.32915391E+03</pdfrwt>
<pdfrwt beam="2">  1       -2 0.38500862E-01 0.32915391E+03</pdfrwt>
<totfact> 0.22132142E+03</totfact>
</mgrwt>
</event>
<event>
 4    1  0.2489209E-004  0.3027125E+03  0.7818608E-02  0.1083892E+00
         -2   -1    0    0    0  501 -0.00000000000E+00  0.00000000000E+00  0.89977790145E+01  0.89977793758E+01  0.25500000000E-02 0. -1.
          2   -1    0    0  501    0  0.00000000000E+00 -0.00000000000E+00 -0.25460402495E+04  0.25460402495E+04  0.25500000000E-02 0.  1.
    5000001    1    1    2    0    0  0.27595548734E+02 -0.12388502159E+03 -0.15175790228E+04  0.15248226465E+04  0.77000000000E+02 0.  0.
   -5000001    1    1    2    0    0 -0.27595548734E+02  0.12388502159E+03 -0.10194634476E+04  0.10302153823E+04  0.77000000000E+02 0.  0.
<mgrwt>
<rscale>  0 0.30271246E+03</rscale>
<asrwt>0</asrwt>
<pdfrwt beam="1">  1        2 0.39169793E+00 0.30271246E+03</pdfrwt>
<pdfrwt beam="2">  1       -2 0.13842757E-02 0.30271246E+03</pdfrwt>
<totfact> 0.50164586E+03</totfact>
</mgrwt>
</event>
<event>
 4    1  0.2489209E-004  0.2461081E+03  0.7818608E-02  0.1115789E+00
         -2   -1    0    0    0  501 -0.00000000000E+00  0.00000000000E+00  0.21586834389E+02  0.21586834540E+02  0.25500000000E-02 0. -1.
          2   -1    0    0  501    0  0.00000000000E+00 -0.00000000000E+00 -0.70145975901E+03  0.70145975902E+03  0.25500000000E-02 0.  1.
    5000001    1    1    2    0    0  0.79322140510E+02  0.22055709544E+02 -0.19496731377E+03  0.22521036774E+03  0.77000000000E+02 0.  0.
   -5000001    1    1    2    0    0 -0.79322140510E+02 -0.22055709544E+02 -0.48490561085E+03  0.49783622582E+03  0.77000000000E+02 0.  0.
<mgrwt>
<rscale>  0 0.24610807E+03</rscale>
<asrwt>0</asrwt>
<pdfrwt beam="1">  1        2 0.10791687E+00 0.24610807E+03</pdfrwt>
<pdfrwt beam="2">  1       -2 0.33210520E-02 0.24610807E+03</pdfrwt>
<totfact> 0.15054870E+04</totfact>
</mgrwt>
</event>
<event>
 4    1  0.2489209E-004  0.1716694E+03  0.7818608E-02  0.1176118E+00
          2   -1    0    0  501    0  0.00000000000E+00  0.00000000000E+00  0.15152236214E+03  0.15152236216E+03  0.25500000000E-02 0.  1.
         -2   -1    0    0    0  501 -0.00000000000E+00 -0.00000000000E+00 -0.48623811364E+02  0.48623811431E+02  0.25500000000E-02 0. -1.
    5000001    1    1    2    0    0  0.19541460449E+02  0.15812041603E+02  0.84563296397E+02  0.11709756801E+03  0.77000000000E+02 0.  0.
   -5000001    1    1    2    0    0 -0.19541460449E+02 -0.15812041603E+02  0.18335254380E+02  0.83048605583E+02  0.77000000000E+02 0.  0.
<mgrwt>
<rscale>  0 0.17166939E+03</rscale>
<asrwt>0</asrwt>
<pdfrwt beam="1">  1        2 0.23311133E-01 0.17166939E+03</pdfrwt>
<pdfrwt beam="2">  1       -2 0.74805864E-02 0.17166939E+03</pdfrwt>
<totfact> 0.23192150E+04</totfact>
</mgrwt>
</event>
<event>
 4    1  0.2489209E-004  0.3734026E+03  0.7818608E-02  0.1053399E+00
         -2   -1    0    0    0  501 -0.00000000000E+00  0.00000000000E+00  0.23340028200E+02  0.23340028339E+02  0.25500000000E-02 0. -1.
          2   -1    0    0  501    0  0.00000000000E+00 -0.00000000000E+00 -0.14934593713E+04  0.14934593713E+04  0.25500000000E-02 0.  1.
    5000001    1    1    2    0    0 -0.32283830050E+02 -0.70378965664E+02 -0.11991025047E+03  0.16218172726E+03  0.77000000000E+02 0.  0.
   -5000001    1    1    2    0    0  0.32283830050E+02  0.70378965664E+02 -0.13502090926E+04  0.13546176723E+04  0.77000000000E+02 0.  0.
<mgrwt>
<rscale>  0 0.37340265E+03</rscale>
<asrwt>0</asrwt>
<pdfrwt beam="1">  1        2 0.22976290E+00 0.37340265E+03</pdfrwt>
<pdfrwt beam="2">  1       -2 0.35907748E-02 0.37340265E+03</pdfrwt>
<totfact> 0.44588521E+03</totfact>
</mgrwt>
</event>
<event>
 4    1  0.2489209E-004  0.3371382E+03  0.7818608E-02  0.1068021E+00
          2   -1    0    0  501    0  0.00000000000E+00  0.00000000000E+00  0.55528671799E+03  0.55528671800E+03  0.25500000000E-02 0.  1.
         -2   -1    0    0    0  501 -0.00000000000E+00 -0.00000000000E+00 -0.51172731116E+02  0.51172731179E+02  0.25500000000E-02 0. -1.
    5000001    1    1    2    0    0  0.18760727963E+02  0.13094962999E+03  0.12502784482E+03  0.19763788223E+03  0.77000000000E+02 0.  0.
   -5000001    1    1    2    0    0 -0.18760727963E+02 -0.13094962999E+03  0.37908614205E+03  0.40882156695E+03  0.77000000000E+02 0.  0.
<mgrwt>
<rscale>  0 0.33713818E+03</rscale>
<asrwt>0</asrwt>
<pdfrwt beam="1">  1        2 0.85428727E-01 0.33713818E+03</pdfrwt>
<pdfrwt beam="2">  1       -2 0.78727278E-02 0.33713818E+03</pdfrwt>
<totfact> 0.53701739E+03</totfact>
</mgrwt>
</event>
<event>
 4    1  0.2489209E-004  0.2950760E+03  0.7818608E-02  0.1087728E+00
          2   -1    0    0  501    0  0.00000000000E+00  0.00000000000E+00  0.41237542527E+03  0.41237542527E+03  0.25500000000E-02 0.  1.
         -2   -1    0    0    0  501 -0.00000000000E+00 -0.00000000000E+00 -0.52785535008E+02  0.52785535069E+02  0.25500000000E-02 0. -1.
    5000001    1    1    2    0    0 -0.81699708737E+02  0.79175915110E+02  0.26461096850E+03  0.29814699829E+03  0.77000000000E+02 0.  0.
   -5000001    1    1    2    0    0  0.81699708737E+02 -0.79175915110E+02  0.94978921762E+02  0.16701396205E+03  0.77000000000E+02 0.  0.
<mgrwt>
<rscale>  0 0.29507597E+03</rscale>
<asrwt>0</asrwt>
<pdfrwt beam="1">  1        2 0.63442372E-01 0.29507597E+03</pdfrwt>
<pdfrwt beam="2">  1       -2 0.81208517E-02 0.29507597E+03</pdfrwt>
<totfact> 0.71081852E+03</totfact>
</mgrwt>
</event>
<event>
 4    1  0.2489209E-004  0.1700248E+03  0.7818608E-02  0.1177822E+00
          2   -1    0    0  501    0  0.00000000000E+00  0.00000000000E+00  0.19202826731E+04  0.19202826731E+04  0.25500000000E-02 0.  1.
         -2   -1    0    0    0  501 -0.00000000000E+00 -0.00000000000E+00 -0.37635643156E+01  0.37635651794E+01  0.25500000000E-02 0. -1.
    5000001    1    1    2    0    0 -0.12074327874E+02  0.23942475050E+02  0.68594474134E+03  0.69077363853E+03  0.77000000000E+02 0.  0.
   -5000001    1    1    2    0    0  0.12074327874E+02 -0.23942475050E+02  0.12305743675E+04  0.12332725998E+04  0.77000000000E+02 0.  0.
<mgrwt>
<rscale>  0 0.17002480E+03</rscale>
<asrwt>0</asrwt>
<pdfrwt beam="1">  1        2 0.29542827E+00 0.17002480E+03</pdfrwt>
<pdfrwt beam="2">  1       -2 0.57900964E-03 0.17002480E+03</pdfrwt>
<totfact> 0.37504163E+04</totfact>
</mgrwt>
</event>
<event>
 4    1  0.2489209E-004  0.2350421E+03  0.7818608E-02  0.1123140E+00
         -2   -1    0    0    0  501 -0.00000000000E+00  0.00000000000E+00  0.19622431942E+03  0.19622431943E+03  0.25500000000E-02 0. -1.
          2   -1    0    0  501    0  0.00000000000E+00 -0.00000000000E+00 -0.70384733165E+02  0.70384733211E+02  0.25500000000E-02 0.  1.
    5000001    1    1    2    0    0  0.78397701747E+02 -0.34226150725E+02  0.89871552502E+02  0.14602576821E+03  0.77000000000E+02 0.  0.
   -5000001    1    1    2    0    0 -0.78397701747E+02  0.34226150725E+02  0.35968033748E+02  0.12058328443E+03  0.77000000000E+02 0.  0.
<mgrwt>
<rscale>  0 0.23504209E+03</rscale>
<asrwt>0</asrwt>
<pdfrwt beam="1">  1        2 0.10828421E-01 0.23504209E+03</pdfrwt>
<pdfrwt beam="2">  1       -2 0.30188356E-01 0.23504209E+03</pdfrwt>
<totfact> 0.57720360E+03</totfact>
</mgrwt>
</event>
<event>
 4    1  0.2489209E-004  0.3186922E+03  0.7818608E-02  0.1076253E+00
          2   -1    0    0  501    0  0.00000000000E+00  0.00000000000E+00  0.13830099855E+03  0.13830099857E+03  0.25500000000E-02 0.  1.
         -2   -1    0    0    0  501 -0.00000000000E+00 -0.00000000000E+00 -0.18359360949E+03  0.18359360951E+03  0.25500000000E-02 0. -1.
    5000001    1    1    2    0    0 -0.90894212676E+02  0.10192915681E+03 -0.51408201751E+02  0.16499428509E+03  0.77000000000E+02 0.  0.
   -5000001    1    1    2    0    0  0.90894212676E+02 -0.10192915681E+03  0.61155908061E+01  0.15690032300E+03  0.77000000000E+02 0.  0.
<mgrwt>
<rscale>  0 0.31869220E+03</rscale>
<asrwt>0</asrwt>
<pdfrwt beam="1">  1        2 0.21277077E-01 0.31869220E+03</pdfrwt>
<pdfrwt beam="2">  1       -2 0.28245171E-01 0.31869220E+03</pdfrwt>
<totfact> 0.29547594E+03</totfact>
</mgrwt>
</event>
<event>
 4    1  0.2489209E-004  0.3254913E+03  0.7818608E-02  0.1073149E+00
          2   -1    0    0  501    0  0.00000000000E+00  0.00000000000E+00  0.19756999491E+03  0.19756999493E+03  0.25500000000E-02 0.  1.
         -2   -1    0    0    0  501 -0.00000000000E+00 -0.00000000000E+00 -0.13405955525E+03  0.13405955528E+03  0.25500000000E-02 0. -1.
    5000001    1    1    2    0    0  0.16716362110E+02  0.86418475348E+02 -0.83558473778E+02  0.14373102721E+03  0.77000000000E+02 0.  0.
   -5000001    1    1    2    0    0 -0.16716362110E+02 -0.86418475348E+02  0.14706891344E+03  0.18789852299E+03  0.77000000000E+02 0.  0.
<mgrwt>
<rscale>  0 0.32549129E+03</rscale>
<asrwt>0</asrwt>
<pdfrwt beam="1">  1        2 0.30395384E-01 0.32549129E+03</pdfrwt>
<pdfrwt beam="2">  1       -2 0.20624547E-01 0.32549129E+03</pdfrwt>
<totfact> 0.34495820E+03</totfact>
</mgrwt>
</event>
<event>
 4    1  0.2489209E-004  0.9085513E+03  0.7818608E-02  0.9414955E-01
          2   -1    0    0  501    0  0.00000000000E+00  0.00000000000E+00  0.16378880214E+04  0.16378880214E+04  0.25500000000E-02 0.  1.
         -2   -1    0    0    0  501 -0.00000000000E+00 -0.00000000000E+00 -0.12599540827E+03  0.12599540829E+03  0.25500000000E-02 0. -1.
    5000001    1    1    2    0    0  0.35652288111E+03  0.31179324980E+02  0.23371889657E+03  0.43432043202E+03  0.77000000000E+02 0.  0.
   -5000001    1    1    2    0    0 -0.35652288111E+03 -0.31179324980E+02  0.12781737166E+04  0.13295629977E+04  0.77000000000E+02 0.  0.
<mgrwt>
<rscale>  0 0.90855131E+03</rscale>
<asrwt>0</asrwt>
<pdfrwt beam="1">  1        2 0.25198274E+00 0.90855131E+03</pdfrwt>
<pdfrwt beam="2">  1       -2 0.19383911E-01 0.90855131E+03</pdfrwt>
<totfact> 0.24068525E+02</totfact>
</mgrwt>
</event>
<event>
 4    1  0.2489209E-004  0.2519352E+03  0.7818608E-02  0.1112088E+00
         -2   -1    0    0    0  501 -0.00000000000E+00  0.00000000000E+00  0.20841548059E+02  0.20841548215E+02  0.25500000000E-02 0. -1.
          2   -1    0    0  501    0  0.00000000000E+00 -0.00000000000E+00 -0.76135578184E+03  0.76135578185E+03  0.25500000000E-02 0.  1.
    5000001    1    1    2    0    0 -0.17137404205E+02  0.36547286952E+02 -0.87239574023E+02  0.12316305486E+03  0.77000000000E+02 0.  0.
   -5000001    1    1    2    0    0  0.17137404205E+02 -0.36547286952E+02 -0.65327465976E+03  0.65903427520E+03  0.77000000000E+02 0.  0.
<mgrwt>
<rscale>  0 0.25193518E+03</rscale>
<asrwt>0</asrwt>
<pdfrwt beam="1">  1        2 0.11713164E+00 0.25193518E+03</pdfrwt>
<pdfrwt beam="2">  1       -2 0.32063926E-02 0.25193518E+03</pdfrwt>
<totfact> 0.14361259E+04</totfact>
</mgrwt>
</event>
<event>
 4    1  0.2489209E-004  0.2760414E+03  0.7818608E-02  0.1097871E+00
          2   -1    0    0  501    0  0.00000000000E+00  0.00000000000E+00  0.84710764579E+02  0.84710764617E+02  0.25500000000E-02 0.  1.
         -2   -1    0    0    0  501 -0.00000000000E+00 -0.00000000000E+00 -0.22487941340E+03  0.22487941341E+03  0.25500000000E-02 0. -1.
    5000001    1    1    2    0    0  0.93362038090E+02  0.56514926538E+02 -0.10910183348E+03  0.17246047996E+03  0.77000000000E+02 0.  0.
   -5000001    1    1    2    0    0 -0.93362038090E+02 -0.56514926538E+02 -0.31066815335E+02  0.13712969807E+03  0.77000000000E+02 0.  0.
<mgrwt>
<rscale>  0 0.27604135E+03</rscale>
<asrwt>0</asrwt>
<pdfrwt beam="1">  1        2 0.13032425E-01 0.27604135E+03</pdfrwt>
<pdfrwt beam="2">  1       -2 0.34596832E-01 0.27604135E+03</pdfrwt>
<totfact> 0.36084871E+03</totfact>
</mgrwt>
</event>
<event>
 4    1  0.2489209E-004  0.1908134E+03  0.7818608E-02  0.1157730E+00
         -2   -1    0    0    0  501 -0.00000000000E+00  0.00000000000E+00  0.10048293569E+02  0.10048293893E+02  0.25500000000E-02 0. -1.
          2   -1    0    0  501    0  0.00000000000E+00 -0.00000000000E+00 -0.90586894345E+03  0.90586894345E+03  0.25500000000E-02 0.  1.
    5000001    1    1    2    0    0 -0.27489514057E+02 -0.16490409676E+02 -0.22555626147E+03  0.24048333432E+03  0.77000000000E+02 0.  0.
   -5000001    1    1    2    0    0  0.27489514057E+02  0.16490409676E+02 -0.67026438841E+03  0.67543390303E+03  0.77000000000E+02 0.  0.
<mgrwt>
<rscale>  0 0.19081339E+03</rscale>
<asrwt>0</asrwt>
<pdfrwt beam="1">  1        2 0.13936439E+00 0.19081339E+03</pdfrwt>
<pdfrwt beam="2">  1       -2 0.15458921E-02 0.19081339E+03</pdfrwt>
<totfact> 0.33021368E+04</totfact>
</mgrwt>
</event>
<event>
 4    1  0.2489209E-004  0.3984506E+03  0.7818608E-02  0.1044317E+00
         -2   -1    0    0    0  501 -0.00000000000E+00  0.00000000000E+00  0.11397685851E+04  0.11397685851E+04  0.25500000000E-02 0. -1.
          2   -1    0    0  501    0  0.00000000000E+00 -0.00000000000E+00 -0.34823493107E+02  0.34823493201E+02  0.25500000000E-02 0.  1.
    5000001    1    1    2    0    0  0.17230427198E+03  0.56688068000E+02  0.46605212342E+03  0.50599988235E+03  0.77000000000E+02 0.  0.
   -5000001    1    1    2    0    0 -0.17230427198E+03 -0.56688068000E+02  0.63889296855E+03  0.66859219592E+03  0.77000000000E+02 0.  0.
<mgrwt>
<rscale>  0 0.39845062E+03</rscale>
<asrwt>0</asrwt>
<pdfrwt beam="1">  1        2 0.53574609E-02 0.39845062E+03</pdfrwt>
<pdfrwt beam="2">  1       -2 0.17534900E+00 0.39845062E+03</pdfrwt>
<totfact> 0.30043705E+02</totfact>
</mgrwt>
</event>
<event>
 4    1  0.2489209E-004  0.2525360E+03  0.7818608E-02  0.1111713E+00
          2   -1    0    0  501    0  0.00000000000E+00  0.00000000000E+00  0.34888690879E+03  0.34888690880E+03  0.25500000000E-02 0.  1.
         -2   -1    0    0    0  501 -0.00000000000E+00 -0.00000000000E+00 -0.45698513157E+02  0.45698513228E+02  0.25500000000E-02 0. -1.
    5000001    1    1    2    0    0  0.39437994526E+02 -0.91859758270E+02  0.15876165927E+03  0.20279998781E+03  0.77000000000E+02 0.  0.
   -5000001    1    1    2    0    0 -0.39437994526E+02  0.91859758270E+02  0.14442673637E+03  0.19178543422E+03  0.77000000000E+02 0.  0.
<mgrwt>
<rscale>  0 0.25253604E+03</rscale>
<asrwt>0</asrwt>
<pdfrwt beam="1">  1        2 0.53674911E-01 0.25253604E+03</pdfrwt>
<pdfrwt beam="2">  1       -2 0.70305403E-02 0.25253604E+03</pdfrwt>
<totfact> 0.10598794E+04</totfact>
</mgrwt>
</event>
<event>
 4    1  0.2489209E-004  0.2346441E+03  0.7818608E-02  0.1123413E+00
          2   -1    0    0  501    0  0.00000000000E+00  0.00000000000E+00  0.23733405948E+04  0.23733405948E+04  0.25500000000E-02 0.  1.
         -2   -1    0    0    0  501 -0.00000000000E+00 -0.00000000000E+00 -0.57996161218E+01  0.57996166824E+01  0.25500000000E-02 0. -1.
    5000001    1    1    2    0    0 -0.82043195295E+02  0.82808831731E-01  0.84681842281E+03  0.85426081144E+03  0.77000000000E+02 0.  0.
   -5000001    1    1    2    0    0  0.82043195295E+02 -0.82808831731E-01  0.15207225559E+04  0.15248794000E+04  0.77000000000E+02 0.  0.
<mgrwt>
<rscale>  0 0.23464411E+03</rscale>
<asrwt>0</asrwt>
<pdfrwt beam="1">  1        2 0.36512862E+00 0.23464411E+03</pdfrwt>
<pdfrwt beam="2">  1       -2 0.89225039E-03 0.23464411E+03</pdfrwt>
<totfact> 0.11799337E+04</totfact>
</mgrwt>
</event>
<event>
 4    1  0.2489209E-004  0.2929192E+03  0.7818608E-02  0.1088835E+00
          2   -1    0    0  501    0  0.00000000000E+00  0.00000000000E+00  0.75561162591E+03  0.75561162591E+03  0.25500000000E-02 0.  1.
         -2   -1    0    0    0  501 -0.00000000000E+00 -0.00000000000E+00 -0.28388151468E+02  0.28388151582E+02  0.25500000000E-02 0. -1.
    5000001    1    1    2    0    0 -0.54845663022E+02  0.83869107310E+02  0.16548990705E+03  0.20822579871E+03  0.77000000000E+02 0.  0.
   -5000001    1    1    2    0    0  0.54845663022E+02 -0.83869107310E+02  0.56173356739E+03  0.57577397878E+03  0.77000000000E+02 0.  0.
<mgrwt>
<rscale>  0 0.29291922E+03</rscale>
<asrwt>0</asrwt>
<pdfrwt beam="1">  1        2 0.11624794E+00 0.29291922E+03</pdfrwt>
<pdfrwt beam="2">  1       -2 0.43674081E-02 0.29291922E+03</pdfrwt>
<totfact> 0.91696364E+03</totfact>
</mgrwt>
</event>
<event>
 4    1  0.2489209E-004  0.2207016E+03  0.7818608E-02  0.1133361E+00
          2   -1    0    0  501    0  0.00000000000E+00  0.00000000000E+00  0.18369659130E+03  0.18369659132E+03  0.25500000000E-02 0.  1.
         -2   -1    0    0    0  501 -0.00000000000E+00 -0.00000000000E+00 -0.66290308681E+02  0.66290308731E+02  0.25500000000E-02 0. -1.
    5000001    1    1    2    0    0  0.22527400454E+02  0.66814210370E+02  0.99174979447E+02  0.14400103828E+03  0.77000000000E+02 0.  0.
   -5000001    1    1    2    0    0 -0.22527400454E+02 -0.66814210370E+02  0.18231303172E+02  0.10598586176E+03  0.77000000000E+02 0.  0.
<mgrwt>
<rscale>  0 0.22070164E+03</rscale>
<asrwt>0</asrwt>
<pdfrwt beam="1">  1        2 0.28261014E-01 0.22070164E+03</pdfrwt>
<pdfrwt beam="2">  1       -2 0.10198509E-01 0.22070164E+03</pdfrwt>
<totfact> 0.11754083E+04</totfact>
</mgrwt>
</event>
<event>
 4    1  0.2489209E-004  0.2198088E+03  0.7818608E-02  0.1134026E+00
         -2   -1    0    0    0  501 -0.00000000000E+00  0.00000000000E+00  0.81209632900E+01  0.81209636904E+01  0.25500000000E-02 0. -1.
          2   -1    0    0  501    0  0.00000000000E+00 -0.00000000000E+00 -0.14873816495E+04  0.14873816495E+04  0.25500000000E-02 0.  1.
    5000001    1    1    2    0    0 -0.52619564914E+02 -0.57971824986E+02 -0.77037575972E+03  0.77816281219E+03  0.77000000000E+02 0.  0.
   -5000001    1    1    2    0    0  0.52619564914E+02  0.57971824986E+02 -0.70888492645E+03  0.71733980097E+03  0.77000000000E+02 0.  0.
<mgrwt>
<rscale>  0 0.21980875E+03</rscale>
<asrwt>0</asrwt>
<pdfrwt beam="1">  1        2 0.22882773E+00 0.21980875E+03</pdfrwt>
<pdfrwt beam="2">  1       -2 0.12493802E-02 0.21980875E+03</pdfrwt>
<totfact> 0.21145583E+04</totfact>
</mgrwt>
</event>
<event>
 4    1  0.2489209E-004  0.1893843E+03  0.7818608E-02  0.1159018E+00
          2   -1    0    0  501    0  0.00000000000E+00  0.00000000000E+00  0.36778738927E+04  0.36778738927E+04  0.25500000000E-02 0.  1.
         -2   -1    0    0    0  501 -0.00000000000E+00 -0.00000000000E+00 -0.24379841617E+01  0.24379854953E+01  0.25500000000E-02 0. -1.
    5000001    1    1    2    0    0 -0.13253213547E+02  0.53496246463E+02  0.18440059757E+04  0.18464356296E+04  0.77000000000E+02 0.  0.
   -5000001    1    1    2    0    0  0.13253213547E+02 -0.53496246463E+02  0.18314299329E+04  0.18338762486E+04  0.77000000000E+02 0.  0.
<mgrwt>
<rscale>  0 0.18938427E+03</rscale>
<asrwt>0</asrwt>
<pdfrwt beam="1">  1        2 0.56582723E+00 0.18938427E+03</pdfrwt>
<pdfrwt beam="2">  1       -2 0.37507427E-03 0.18938427E+03</pdfrwt>
<totfact> 0.67851030E+03</totfact>
</mgrwt>
</event>
<event>
 4    1  0.2489209E-004  0.3035764E+03  0.7818608E-02  0.1083466E+00
          2   -1    0    0  501    0  0.00000000000E+00  0.00000000000E+00  0.68720332028E+03  0.68720332029E+03  0.25500000000E-02 0.  1.
         -2   -1    0    0    0  501 -0.00000000000E+00 -0.00000000000E+00 -0.33526703290E+02  0.33526703387E+02  0.25500000000E-02 0. -1.
    5000001    1    1    2    0    0 -0.89064014481E+02 -0.16006058502E+02  0.55109084463E+03  0.56375412337E+03  0.77000000000E+02 0.  0.
   -5000001    1    1    2    0    0  0.89064014481E+02  0.16006058502E+02  0.10258577236E+03  0.15697590030E+03  0.77000000000E+02 0.  0.
<mgrwt>
<rscale>  0 0.30357643E+03</rscale>
<asrwt>0</asrwt>
<pdfrwt beam="1">  1        2 0.10572358E+00 0.30357643E+03</pdfrwt>
<pdfrwt beam="2">  1       -2 0.51579548E-02 0.30357643E+03</pdfrwt>
<totfact> 0.80113175E+03</totfact>
</mgrwt>
</event>
<event>
 4    1  0.2489209E-004  0.2402670E+03  0.7818608E-02  0.1119615E+00
          2   -1    0    0  501    0  0.00000000000E+00  0.00000000000E+00  0.10852363496E+04  0.10852363496E+04  0.25500000000E-02 0. -1.
         -2   -1    0    0    0  501 -0.00000000000E+00 -0.00000000000E+00 -0.13298540401E+02  0.13298540646E+02  0.25500000000E-02 0.  1.
    5000001    1    1    2    0    0 -0.13302937656E+02  0.58599610096E+02  0.85576325646E+03  0.86131912411E+03  0.77000000000E+02 0.  0.
   -5000001    1    1    2    0    0  0.13302937656E+02 -0.58599610096E+02  0.21617455277E+03  0.23721576617E+03  0.77000000000E+02 0.  0.
<mgrwt>
<rscale>  0 0.24026701E+03</rscale>
<asrwt>0</asrwt>
<pdfrwt beam="1">  1        2 0.16695941E+00 0.24026701E+03</pdfrwt>
<pdfrwt beam="2">  1       -2 0.20459296E-02 0.24026701E+03</pdfrwt>
<totfact> 0.17278811E+04</totfact>
</mgrwt>
</event>
<event>
 4    1  0.2489209E-004  0.2374296E+03  0.7818608E-02  0.1121517E+00
         -2   -1    0    0    0  501 -0.00000000000E+00  0.00000000000E+00  0.35208217781E+02  0.35208217873E+02  0.25500000000E-02 0. -1.
          2   -1    0    0  501    0  0.00000000000E+00 -0.00000000000E+00 -0.40028162944E+03  0.40028162945E+03  0.25500000000E-02 0.  1.
    5000001    1    1    2    0    0 -0.23006859954E+02 -0.66695954729E+02 -0.78998017487E+02  0.13094790090E+03  0.77000000000E+02 0.  0.
   -5000001    1    1    2    0    0  0.23006859954E+02  0.66695954729E+02 -0.28607539417E+03  0.30454194643E+03  0.77000000000E+02 0.  0.
<mgrwt>
<rscale>  0 0.23742959E+03</rscale>
<asrwt>0</asrwt>
<pdfrwt beam="1">  1        2 0.61581786E-01 0.23742959E+03</pdfrwt>
<pdfrwt beam="2">  1       -2 0.54166492E-02 0.23742959E+03</pdfrwt>
<totfact> 0.13590374E+04</totfact>
</mgrwt>
</event>
<event>
 4    1  0.2489209E-004  0.1996927E+03  0.7818608E-02  0.1149999E+00
          2   -1    0    0  501    0  0.00000000000E+00  0.00000000000E+00  0.33299326854E+04  0.33299326854E+04  0.25500000000E-02 0.  1.
         -2   -1    0    0    0  501 -0.00000000000E+00 -0.00000000000E+00 -0.29938406799E+01  0.29938417658E+01  0.25500000000E-02 0. -1.
    5000001    1    1    2    0    0 -0.28208705389E+02 -0.55675702846E+02  0.18642908823E+04  0.18669239430E+04  0.77000000000E+02 0.  0.
   -5000001    1    1    2    0    0  0.28208705389E+02  0.55675702846E+02  0.14626479624E+04  0.14660025842E+04  0.77000000000E+02 0.  0.
<mgrwt>
<rscale>  0 0.19969266E+03</rscale>
<asrwt>0</asrwt>
<pdfrwt beam="1">  1        2 0.51229846E+00 0.19969266E+03</pdfrwt>
<pdfrwt beam="2">  1       -2 0.46058995E-03 0.19969266E+03</pdfrwt>
<totfact> 0.85655653E+03</totfact>
</mgrwt>
</event>
<event>
 4    1  0.2489209E-004  0.3279465E+03  0.7818608E-02  0.1072049E+00
          2   -1    0    0  501    0  0.00000000000E+00  0.00000000000E+00  0.15768664421E+04  0.15768664421E+04  0.25500000000E-02 0.  1.
         -2   -1    0    0    0  501 -0.00000000000E+00 -0.00000000000E+00 -0.17051052356E+02  0.17051052547E+02  0.25500000000E-02 0. -1.
    5000001    1    1    2    0    0  0.67469688992E+02 -0.89865083245E+02  0.12235103762E+04  0.12310704824E+04  0.77000000000E+02 0.  0.
   -5000001    1    1    2    0    0 -0.67469688992E+02  0.89865083245E+02  0.33630501355E+03  0.36284701220E+03  0.77000000000E+02 0.  0.
<mgrwt>
<rscale>  0 0.32794653E+03</rscale>
<asrwt>0</asrwt>
<pdfrwt beam="1">  1        2 0.24259492E+00 0.32794653E+03</pdfrwt>
<pdfrwt beam="2">  1       -2 0.26232380E-02 0.32794653E+03</pdfrwt>
<totfact> 0.64365331E+03</totfact>
</mgrwt>
</event>
<event>
 4    1  0.2489209E-004  0.2789111E+03  0.7818608E-02  0.1096285E+00
         -2   -1    0    0    0  501 -0.00000000000E+00  0.00000000000E+00  0.84221439169E+01  0.84221443029E+01  0.25500000000E-02 0. -1.
          2   -1    0    0  501    0  0.00000000000E+00 -0.00000000000E+00 -0.23091323503E+04  0.23091323503E+04  0.25500000000E-02 0.  1.
    5000001    1    1    2    0    0 -0.10624124358E+03 -0.19507042898E+02 -0.15078594821E+04  0.15136832378E+04  0.77000000000E+02 0.  0.
   -5000001    1    1    2    0    0  0.10624124358E+03  0.19507042898E+02 -0.79285072425E+03  0.80387125680E+03  0.77000000000E+02 0.  0.
<mgrwt>
<rscale>  0 0.27891106E+03</rscale>
<asrwt>0</asrwt>
<pdfrwt beam="1">  1        2 0.35525063E+00 0.27891106E+03</pdfrwt>
<pdfrwt beam="2">  1       -2 0.12957163E-02 0.27891106E+03</pdfrwt>
<totfact> 0.74407983E+03</totfact>
</mgrwt>
</event>
<event>
 4    1  0.2489209E-004  0.4401783E+03  0.7818608E-02  0.1030692E+00
         -2   -1    0    0    0  501 -0.00000000000E+00  0.00000000000E+00  0.10991682453E+03  0.10991682456E+03  0.25500000000E-02 0. -1.
          2   -1    0    0  501    0  0.00000000000E+00 -0.00000000000E+00 -0.44068983375E+03  0.44068983376E+03  0.25500000000E-02 0.  1.
    5000001    1    1    2    0    0  0.12875410909E+03  0.15726953043E+03 -0.12207486927E+03  0.24928417422E+03  0.77000000000E+02 0.  0.
   -5000001    1    1    2    0    0 -0.12875410909E+03 -0.15726953043E+03 -0.20869813995E+03  0.30132248410E+03  0.77000000000E+02 0.  0.
<mgrwt>
<rscale>  0 0.44017827E+03</rscale>
<asrwt>0</asrwt>
<pdfrwt beam="1">  1        2 0.67798435E-01 0.44017827E+03</pdfrwt>
<pdfrwt beam="2">  1       -2 0.16910281E-01 0.44017827E+03</pdfrwt>
<totfact> 0.20207450E+03</totfact>
</mgrwt>
</event>
<event>
 4    1  0.2489209E-004  0.2098919E+03  0.7818608E-02  0.1141652E+00
          2   -1    0    0  501    0  0.00000000000E+00  0.00000000000E+00  0.24330316280E+04  0.24330316280E+04  0.25500000000E-02 0.  1.
         -2   -1    0    0    0  501 -0.00000000000E+00 -0.00000000000E+00 -0.45267194310E+01  0.45267201492E+01  0.25500000000E-02 0. -1.
    5000001    1    1    2    0    0 -0.69657012957E+02  0.73511578471E+01  0.13694178275E+04  0.13733682410E+04  0.77000000000E+02 0.  0.
   -5000001    1    1    2    0    0  0.69657012957E+02 -0.73511578471E+01  0.10590870810E+04  0.10641901072E+04  0.77000000000E+02 0.  0.
<mgrwt>
<rscale>  0 0.20989190E+03</rscale>
<asrwt>0</asrwt>
<pdfrwt beam="1">  1        2 0.37431333E+00 0.20989190E+03</pdfrwt>
<pdfrwt beam="2">  1       -2 0.69641700E-03 0.20989190E+03</pdfrwt>
<totfact> 0.15628237E+04</totfact>
</mgrwt>
</event>
<event>
 4    1  0.2489209E-004  0.2713923E+03  0.7818608E-02  0.1100485E+00
          2   -1    0    0  501    0  0.00000000000E+00  0.00000000000E+00  0.76364594958E+02  0.76364595000E+02  0.25500000000E-02 0.  1.
         -2   -1    0    0    0  501 -0.00000000000E+00 -0.00000000000E+00 -0.24112539882E+03  0.24112539884E+03  0.25500000000E-02 0. -1.
    5000001    1    1    2    0    0  0.80822326148E+02 -0.66334086302E+02 -0.36293643485E+02  0.13482836485E+03  0.77000000000E+02 0.  0.
   -5000001    1    1    2    0    0 -0.80822326148E+02  0.66334086302E+02 -0.12846716038E+03  0.18266162899E+03  0.77000000000E+02 0.  0.
<mgrwt>
<rscale>  0 0.27139229E+03</rscale>
<asrwt>0</asrwt>
<pdfrwt beam="1">  1        2 0.11748399E-01 0.27139229E+03</pdfrwt>
<pdfrwt beam="2">  1       -2 0.37096215E-01 0.27139229E+03</pdfrwt>
<totfact> 0.35894153E+03</totfact>
</mgrwt>
</event>
<event>
 4    1  0.2489209E-004  0.3553991E+03  0.7818608E-02  0.1060421E+00
          2   -1    0    0  501    0  0.00000000000E+00  0.00000000000E+00  0.11120319188E+04  0.11120319188E+04  0.25500000000E-02 0.  1.
         -2   -1    0    0    0  501 -0.00000000000E+00 -0.00000000000E+00 -0.28395876825E+02  0.28395876940E+02  0.25500000000E-02 0. -1.
    5000001    1    1    2    0    0 -0.14466580536E+03 -0.64297833206E+02  0.46415850986E+03  0.49642172482E+03  0.77000000000E+02 0.  0.
   -5000001    1    1    2    0    0  0.14466580536E+03  0.64297833206E+02  0.61947753215E+03  0.64400607096E+03  0.77000000000E+02 0.  0.
<mgrwt>
<rscale>  0 0.35539905E+03</rscale>
<asrwt>0</asrwt>
<pdfrwt beam="1">  1        2 0.17108184E+00 0.35539905E+03</pdfrwt>
<pdfrwt beam="2">  1       -2 0.43685962E-02 0.35539905E+03</pdfrwt>
<totfact> 0.54268904E+03</totfact>
</mgrwt>
</event>
<event>
 4    1  0.2489209E-004  0.4007387E+03  0.7818608E-02  0.1043524E+00
          2   -1    0    0  501    0  0.00000000000E+00  0.00000000000E+00  0.55562028301E+02  0.55562028359E+02  0.25500000000E-02 0.  1.
         -2   -1    0    0    0  501 -0.00000000000E+00 -0.00000000000E+00 -0.72257764590E+03  0.72257764591E+03  0.25500000000E-02 0. -1.
    5000001    1    1    2    0    0  0.19076501381E+02 -0.14926297127E+03 -0.54242142134E+03  0.56814905247E+03  0.77000000000E+02 0.  0.
   -5000001    1    1    2    0    0 -0.19076501381E+02  0.14926297127E+03 -0.12459419626E+03  0.20999062179E+03  0.77000000000E+02 0.  0.
<mgrwt>
<rscale>  0 0.40073872E+03</rscale>
<asrwt>0</asrwt>
<pdfrwt beam="1">  1        2 0.85480049E-02 0.40073872E+03</pdfrwt>
<pdfrwt beam="2">  1       -2 0.11116578E+00 0.40073872E+03</pdfrwt>
<totfact> 0.52457555E+02</totfact>
</mgrwt>
</event>
<event>
 4    1  0.2489209E-004  0.1999372E+03  0.7818608E-02  0.1149792E+00
         -2   -1    0    0    0  501 -0.00000000000E+00  0.00000000000E+00  0.11486335102E+02  0.11486335385E+02  0.25500000000E-02 0. -1.
          2   -1    0    0  501    0  0.00000000000E+00 -0.00000000000E+00 -0.87005270088E+03  0.87005270089E+03  0.25500000000E-02 0.  1.
    5000001    1    1    2    0    0  0.39481208565E+02 -0.38015461104E+02 -0.28568139409E+03  0.30090995338E+03  0.77000000000E+02 0.  0.
   -5000001    1    1    2    0    0 -0.39481208565E+02  0.38015461104E+02 -0.57288497169E+03  0.58062908289E+03  0.77000000000E+02 0.  0.
<mgrwt>
<rscale>  0 0.19993716E+03</rscale>
<asrwt>0</asrwt>
<pdfrwt beam="1">  1        2 0.13385421E+00 0.19993716E+03</pdfrwt>
<pdfrwt beam="2">  1       -2 0.17671292E-02 0.19993716E+03</pdfrwt>
<totfact> 0.28757627E+04</totfact>
</mgrwt>
</event>
<event>
 4    1  0.2489209E-004  0.2366799E+03  0.7818608E-02  0.1122025E+00
          2   -1    0    0  501    0  0.00000000000E+00  0.00000000000E+00  0.11024851010E+03  0.11024851012E+03  0.25500000000E-02 0.  1.
         -2   -1    0    0    0  501 -0.00000000000E+00 -0.00000000000E+00 -0.12702522990E+03  0.12702522992E+03  0.25500000000E-02 0. -1.
    5000001    1    1    2    0    0  0.32973051929E+02 -0.33639732456E+02 -0.85108073286E+02  0.12406142790E+03  0.77000000000E+02 0.  0.
   -5000001    1    1    2    0    0 -0.32973051929E+02  0.33639732456E+02  0.68331353486E+02  0.11321231215E+03  0.77000000000E+02 0.  0.
<mgrwt>
<rscale>  0 0.23667989E+03</rscale>
<asrwt>0</asrwt>
<pdfrwt beam="1">  1        2 0.16961309E-01 0.23667989E+03</pdfrwt>
<pdfrwt beam="2">  1       -2 0.19542343E-01 0.23667989E+03</pdfrwt>
<totfact> 0.72377760E+03</totfact>
</mgrwt>
</event>
<event>
 4    1  0.2489209E-004  0.1945598E+03  0.7818608E-02  0.1154412E+00
         -2   -1    0    0    0  501 -0.00000000000E+00  0.00000000000E+00  0.10483702453E+02  0.10483702763E+02  0.25500000000E-02 0. -1.
          2   -1    0    0  501    0  0.00000000000E+00 -0.00000000000E+00 -0.90267535822E+03  0.90267535823E+03  0.25500000000E-02 0.  1.
    5000001    1    1    2    0    0 -0.28770006859E+02 -0.51974954019E+02 -0.43532040150E+03  0.44605152292E+03  0.77000000000E+02 0.  0.
   -5000001    1    1    2    0    0  0.28770006859E+02  0.51974954019E+02 -0.45687125427E+03  0.46710753807E+03  0.77000000000E+02 0.  0.
<mgrwt>
<rscale>  0 0.19455981E+03</rscale>
<asrwt>0</asrwt>
<pdfrwt beam="1">  1        2 0.13887307E+00 0.19455981E+03</pdfrwt>
<pdfrwt beam="2">  1       -2 0.16128780E-02 0.19455981E+03</pdfrwt>
<totfact> 0.31236739E+04</totfact>
</mgrwt>
</event>
<event>
 4    1  0.2489209E-004  0.2061351E+03  0.7818608E-02  0.1144664E+00
          2   -1    0    0  501    0  0.00000000000E+00  0.00000000000E+00  0.37042041720E+04  0.37042041720E+04  0.25500000000E-02 0.  1.
         -2   -1    0    0    0  501 -0.00000000000E+00 -0.00000000000E+00 -0.28678010800E+01  0.28678022138E+01  0.25500000000E-02 0. -1.
    5000001    1    1    2    0    0  0.29292161936E+02  0.48471737470E+02  0.25440051210E+04  0.25458001877E+04  0.77000000000E+02 0.  0.
   -5000001    1    1    2    0    0 -0.29292161936E+02 -0.48471737470E+02  0.11573312500E+04  0.11612717866E+04  0.77000000000E+02 0.  0.
<mgrwt>
<rscale>  0 0.20613513E+03</rscale>
<asrwt>0</asrwt>
<pdfrwt beam="1">  1        2 0.56987971E+00 0.20613513E+03</pdfrwt>
<pdfrwt beam="2">  1       -2 0.44119859E-03 0.20613513E+03</pdfrwt>
<totfact> 0.51559561E+03</totfact>
</mgrwt>
</event>
<event>
 4    1  0.2489209E-004  0.1844361E+03  0.7818608E-02  0.1163577E+00
         -2   -1    0    0    0  501 -0.00000000000E+00  0.00000000000E+00  0.15459376010E+02  0.15459376220E+02  0.25500000000E-02 0. -1.
          2   -1    0    0  501    0  0.00000000000E+00 -0.00000000000E+00 -0.55009798888E+03  0.55009798889E+03  0.25500000000E-02 0.  1.
    5000001    1    1    2    0    0  0.47823277931E+02 -0.10279998909E+02 -0.22590258479E+03  0.24362619339E+03  0.77000000000E+02 0.  0.
   -5000001    1    1    2    0    0 -0.47823277931E+02  0.10279998909E+02 -0.30873602808E+03  0.32193117172E+03  0.77000000000E+02 0.  0.
<mgrwt>
<rscale>  0 0.18443613E+03</rscale>
<asrwt>0</asrwt>
<pdfrwt beam="1">  1        2 0.84630445E-01 0.18443613E+03</pdfrwt>
<pdfrwt beam="2">  1       -2 0.23783660E-02 0.18443613E+03</pdfrwt>
<totfact> 0.32132604E+04</totfact>
</mgrwt>
</event>
<event>
 4    1  0.2489209E-004  0.2954129E+03  0.7818608E-02  0.1087556E+00
         -2   -1    0    0    0  501 -0.00000000000E+00  0.00000000000E+00  0.83892540446E+01  0.83892544321E+01  0.25500000000E-02 0. -1.
          2   -1    0    0  501    0  0.00000000000E+00 -0.00000000000E+00 -0.26006113927E+04  0.26006113927E+04  0.25500000000E-02 0.  1.
    5000001    1    1    2    0    0 -0.10649717008E+03  0.67295961944E+02 -0.13333683498E+04  0.13415180021E+04  0.77000000000E+02 0.  0.
   -5000001    1    1    2    0    0  0.10649717008E+03 -0.67295961944E+02 -0.12588537889E+04  0.12674826450E+04  0.77000000000E+02 0.  0.
<mgrwt>
<rscale>  0 0.29541286E+03</rscale>
<asrwt>0</asrwt>
<pdfrwt beam="1">  1        2 0.40009342E+00 0.29541286E+03</pdfrwt>
<pdfrwt beam="2">  1       -2 0.12906566E-02 0.29541286E+03</pdfrwt>
<totfact> 0.51848755E+03</totfact>
</mgrwt>
</event>
<event>
 4    1  0.2489209E-004  0.3282730E+03  0.7818608E-02  0.1071904E+00
         -2   -1    0    0    0  501 -0.00000000000E+00  0.00000000000E+00  0.11968548783E+03  0.11968548786E+03  0.25500000000E-02 0. -1.
          2   -1    0    0  501    0  0.00000000000E+00 -0.00000000000E+00 -0.22509659547E+03  0.22509659549E+03  0.25500000000E-02 0.  1.
    5000001    1    1    2    0    0 -0.10209942114E+03 -0.69247709678E+02 -0.13263990620E+03  0.19682957554E+03  0.77000000000E+02 0.  0.
   -5000001    1    1    2    0    0  0.10209942114E+03  0.69247709678E+02  0.27228798558E+02  0.14795250780E+03  0.77000000000E+02 0.  0.
<mgrwt>
<rscale>  0 0.32827303E+03</rscale>
<asrwt>0</asrwt>
<pdfrwt beam="1">  1        2 0.34630245E-01 0.32827303E+03</pdfrwt>
<pdfrwt beam="2">  1       -2 0.18413152E-01 0.32827303E+03</pdfrwt>
<totfact> 0.36308423E+03</totfact>
</mgrwt>
</event>
<event>
 4    1  0.2489209E-004  0.2111491E+03  0.7818608E-02  0.1140659E+00
          2   -1    0    0  501    0  0.00000000000E+00  0.00000000000E+00  0.16826237953E+02  0.16826238147E+02  0.25500000000E-02 0.  1.
         -2   -1    0    0    0  501 -0.00000000000E+00 -0.00000000000E+00 -0.66241722332E+03  0.66241722333E+03  0.25500000000E-02 0. -1.
    5000001    1    1    2    0    0  0.19345060186E+02 -0.41054715959E+02 -0.50355116292E+03  0.51142203192E+03  0.77000000000E+02 0.  0.
   -5000001    1    1    2    0    0 -0.19345060186E+02  0.41054715959E+02 -0.14203982245E+03  0.16782142956E+03  0.77000000000E+02 0.  0.
<mgrwt>
<rscale>  0 0.21114914E+03</rscale>
<asrwt>0</asrwt>
<pdfrwt beam="1">  1        2 0.25886525E-02 0.21114914E+03</pdfrwt>
<pdfrwt beam="2">  1       -2 0.10191032E+00 0.21114914E+03</pdfrwt>
<totfact> 0.30948075E+03</totfact>
</mgrwt>
</event>
<event>
 4    1  0.2489209E-004  0.2082598E+03  0.7818608E-02  0.1142952E+00
         -2   -1    0    0    0  501 -0.00000000000E+00  0.00000000000E+00  0.47370575336E+01  0.47370582200E+01  0.25500000000E-02 0. -1.
          2   -1    0    0  501    0  0.00000000000E+00 -0.00000000000E+00 -0.22889807044E+04  0.22889807044E+04  0.25500000000E-02 0.  1.
    5000001    1    1    2    0    0 -0.48718244983E+02 -0.42277464233E+02 -0.14443846502E+04  0.14478732227E+04  0.77000000000E+02 0.  0.
   -5000001    1    1    2    0    0  0.48718244983E+02  0.42277464233E+02 -0.83985899668E+03  0.84584453990E+03  0.77000000000E+02 0.  0.
<mgrwt>
<rscale>  0 0.20825978E+03</rscale>
<asrwt>0</asrwt>
<pdfrwt beam="1">  1        2 0.35214999E+00 0.20825978E+03</pdfrwt>
<pdfrwt beam="2">  1       -2 0.72877996E-03 0.20825978E+03</pdfrwt>
<totfact> 0.17477061E+04</totfact>
</mgrwt>
</event>
<event>
 4    1  0.2489209E-004  0.2615259E+03  0.7818608E-02  0.1106230E+00
          2   -1    0    0  501    0  0.00000000000E+00  0.00000000000E+00  0.90991952063E+02  0.90991952099E+02  0.25500000000E-02 0.  1.
         -2   -1    0    0    0  501 -0.00000000000E+00 -0.00000000000E+00 -0.18791716309E+03  0.18791716311E+03  0.25500000000E-02 0. -1.
    5000001    1    1    2    0    0  0.77218056418E+02  0.27907948685E+02 -0.11943259428E+03  0.16411772120E+03  0.77000000000E+02 0.  0.
   -5000001    1    1    2    0    0 -0.77218056418E+02 -0.27907948685E+02  0.22507383251E+02  0.11479139400E+03  0.77000000000E+02 0.  0.
<mgrwt>
<rscale>  0 0.26152590E+03</rscale>
<asrwt>0</asrwt>
<pdfrwt beam="1">  1        2 0.13998762E-01 0.26152590E+03</pdfrwt>
<pdfrwt beam="2">  1       -2 0.28910333E-01 0.26152590E+03</pdfrwt>
<totfact> 0.45930814E+03</totfact>
</mgrwt>
</event>
<event>
 4    1  0.2489209E-004  0.3849707E+03  0.7818608E-02  0.1049112E+00
          2   -1    0    0  501    0  0.00000000000E+00  0.00000000000E+00  0.50791415585E+03  0.50791415585E+03  0.25500000000E-02 0.  1.
         -2   -1    0    0    0  501 -0.00000000000E+00 -0.00000000000E+00 -0.72946611236E+02  0.72946611281E+02  0.25500000000E-02 0. -1.
    5000001    1    1    2    0    0 -0.99206534358E+02  0.11743898385E+03  0.34804686681E+03  0.38820029995E+03  0.77000000000E+02 0.  0.
   -5000001    1    1    2    0    0  0.99206534358E+02 -0.11743898385E+03  0.86920677803E+02  0.19266046718E+03  0.77000000000E+02 0.  0.
<mgrwt>
<rscale>  0 0.38497073E+03</rscale>
<asrwt>0</asrwt>
<pdfrwt beam="1">  1        2 0.78140640E-01 0.38497073E+03</pdfrwt>
<pdfrwt beam="2">  1       -2 0.11222555E-01 0.38497073E+03</pdfrwt>
<totfact> 0.33888702E+03</totfact>
</mgrwt>
</event>
<event>
 4    1  0.2489209E-004  0.2673286E+03  0.7818608E-02  0.1102818E+00
          2   -1    0    0  501    0  0.00000000000E+00  0.00000000000E+00  0.49670095832E+03  0.49670095832E+03  0.25500000000E-02 0.  1.
         -2   -1    0    0    0  501 -0.00000000000E+00 -0.00000000000E+00 -0.35969611180E+02  0.35969611271E+02  0.25500000000E-02 0. -1.
    5000001    1    1    2    0    0  0.34661829488E+02 -0.46089245862E+02  0.41527219070E+03  0.42626946099E+03  0.77000000000E+02 0.  0.
   -5000001    1    1    2    0    0 -0.34661829488E+02  0.46089245862E+02  0.45459156439E+02  0.10640110860E+03  0.77000000000E+02 0.  0.
<mgrwt>
<rscale>  0 0.26732856E+03</rscale>
<asrwt>0</asrwt>
<pdfrwt beam="1">  1        2 0.76415537E-01 0.26732856E+03</pdfrwt>
<pdfrwt beam="2">  1       -2 0.55337860E-02 0.26732856E+03</pdfrwt>
<totfact> 0.10435851E+04</totfact>
</mgrwt>
</event>
<event>
 4    1  0.2489209E-004  0.2966358E+03  0.7818608E-02  0.1086935E+00
         -2   -1    0    0    0  501 -0.00000000000E+00  0.00000000000E+00  0.14840868068E+02  0.14840868287E+02  0.25500000000E-02 0. -1.
          2   -1    0    0  501    0  0.00000000000E+00 -0.00000000000E+00 -0.14822718326E+04  0.14822718327E+04  0.25500000000E-02 0.  1.
    5000001    1    1    2    0    0  0.47608438989E+02 -0.11483573679E+03 -0.60851486320E+03  0.62583795717E+03  0.77000000000E+02 0.  0.
   -5000001    1    1    2    0    0 -0.47608438989E+02  0.11483573679E+03 -0.85891610138E+03  0.87127474376E+03  0.77000000000E+02 0.  0.
<mgrwt>
<rscale>  0 0.29663581E+03</rscale>
<asrwt>0</asrwt>
<pdfrwt beam="1">  1        2 0.22804170E+00 0.29663581E+03</pdfrwt>
<pdfrwt beam="2">  1       -2 0.22832117E-02 0.29663581E+03</pdfrwt>
<totfact> 0.88800188E+03</totfact>
</mgrwt>
</event>
<event>
 4    1  0.2489209E-004  0.2824170E+03  0.7818608E-02  0.1094376E+00
         -2   -1    0    0    0  501 -0.00000000000E+00  0.00000000000E+00  0.20931276658E+02  0.20931276814E+02  0.25500000000E-02 0. -1.
          2   -1    0    0  501    0  0.00000000000E+00 -0.00000000000E+00 -0.95263378339E+03  0.95263378339E+03  0.25500000000E-02 0.  1.
    5000001    1    1    2    0    0  0.55725786676E+02  0.10441846084E+03 -0.46066534589E+03  0.48181961268E+03  0.77000000000E+02 0.  0.
   -5000001    1    1    2    0    0 -0.55725786676E+02 -0.10441846084E+03 -0.47103716085E+03  0.49174544753E+03  0.77000000000E+02 0.  0.
<mgrwt>
<rscale>  0 0.28241701E+03</rscale>
<asrwt>0</asrwt>
<pdfrwt beam="1">  1        2 0.14655901E+00 0.28241701E+03</pdfrwt>
<pdfrwt beam="2">  1       -2 0.32201971E-02 0.28241701E+03</pdfrwt>
<totfact> 0.10690991E+04</totfact>
</mgrwt>
</event>
<event>
 4    1  0.2489209E-004  0.3668912E+03  0.7818608E-02  0.1055888E+00
          2   -1    0    0  501    0  0.00000000000E+00  0.00000000000E+00  0.60614755576E+03  0.60614755576E+03  0.25500000000E-02 0.  1.
         -2   -1    0    0    0  501 -0.00000000000E+00 -0.00000000000E+00 -0.55518318608E+02  0.55518318667E+02  0.25500000000E-02 0. -1.
    5000001    1    1    2    0    0 -0.71262946013E+02 -0.13296155611E+03  0.40240409432E+03  0.43659505036E+03  0.77000000000E+02 0.  0.
   -5000001    1    1    2    0    0  0.71262946013E+02  0.13296155611E+03  0.14822514283E+03  0.22507082407E+03  0.77000000000E+02 0.  0.
<mgrwt>
<rscale>  0 0.36689123E+03</rscale>
<asrwt>0</asrwt>
<pdfrwt beam="1">  1        2 0.93253470E-01 0.36689123E+03</pdfrwt>
<pdfrwt beam="2">  1       -2 0.85412798E-02 0.36689123E+03</pdfrwt>
<totfact> 0.42721612E+03</totfact>
</mgrwt>
</event>
<event>
 4    1  0.2489209E-004  0.2149658E+03  0.7818608E-02  0.1137693E+00
         -2   -1    0    0    0  501 -0.00000000000E+00  0.00000000000E+00  0.54352982682E+02  0.54352982742E+02  0.25500000000E-02 0. -1.
          2   -1    0    0  501    0  0.00000000000E+00 -0.00000000000E+00 -0.21254717523E+03  0.21254717524E+03  0.25500000000E-02 0.  1.
    5000001    1    1    2    0    0  0.21305948317E+02  0.10849720680E+02  0.91514195362E+01  0.81144367346E+02  0.77000000000E+02 0.  0.
   -5000001    1    1    2    0    0 -0.21305948317E+02 -0.10849720680E+02 -0.16734561208E+03  0.18575579064E+03  0.77000000000E+02 0.  0.
<mgrwt>
<rscale>  0 0.21496579E+03</rscale>
<asrwt>0</asrwt>
<pdfrwt beam="1">  1        2 0.32699565E-01 0.21496579E+03</pdfrwt>
<pdfrwt beam="2">  1       -2 0.83619974E-02 0.21496579E+03</pdfrwt>
<totfact> 0.13676956E+04</totfact>
</mgrwt>
</event>
<event>
 4    1  0.2489209E-004  0.2844166E+03  0.7818608E-02  0.1093301E+00
          2   -1    0    0  501    0  0.00000000000E+00  0.00000000000E+00  0.46228159136E+03  0.46228159137E+03  0.25500000000E-02 0.  1.
         -2   -1    0    0    0  501 -0.00000000000E+00 -0.00000000000E+00 -0.43746483621E+02  0.43746483695E+02  0.25500000000E-02 0. -1.
    5000001    1    1    2    0    0  0.30492730966E+02  0.11131104826E+03  0.26480069895E+03  0.29894542356E+03  0.77000000000E+02 0.  0.
   -5000001    1    1    2    0    0 -0.30492730966E+02 -0.11131104826E+03  0.15373440880E+03  0.20708265151E+03  0.77000000000E+02 0.  0.
<mgrwt>
<rscale>  0 0.28441655E+03</rscale>
<asrwt>0</asrwt>
<pdfrwt beam="1">  1        2 0.71120245E-01 0.28441655E+03</pdfrwt>
<pdfrwt beam="2">  1       -2 0.67302283E-02 0.28441655E+03</pdfrwt>
<totfact> 0.83876020E+03</totfact>
</mgrwt>
</event>
<event>
 4    1  0.2489209E-004  0.1739993E+03  0.7818608E-02  0.1173740E+00
          2   -1    0    0  501    0  0.00000000000E+00  0.00000000000E+00  0.49880223118E+03  0.49880223119E+03  0.25500000000E-02 0.  1.
         -2   -1    0    0    0  501 -0.00000000000E+00 -0.00000000000E+00 -0.15174220843E+02  0.15174221057E+02  0.25500000000E-02 0. -1.
    5000001    1    1    2    0    0  0.26070913832E+02  0.27938233206E+02  0.28141145962E+03  0.29424759477E+03  0.77000000000E+02 0.  0.
   -5000001    1    1    2    0    0 -0.26070913832E+02 -0.27938233206E+02  0.20221655072E+03  0.21972885747E+03  0.77000000000E+02 0.  0.
<mgrwt>
<rscale>  0 0.17399926E+03</rscale>
<asrwt>0</asrwt>
<pdfrwt beam="1">  1        2 0.76738788E-01 0.17399926E+03</pdfrwt>
<pdfrwt beam="2">  1       -2 0.23344960E-02 0.17399926E+03</pdfrwt>
<totfact> 0.36648202E+04</totfact>
</mgrwt>
</event>
<event>
 4    1  0.2489209E-004  0.2691869E+03  0.7818608E-02  0.1101746E+00
         -2   -1    0    0    0  501 -0.00000000000E+00  0.00000000000E+00  0.52928748753E+01  0.52928754895E+01  0.25500000000E-02 0. -1.
          2   -1    0    0  501    0  0.00000000000E+00 -0.00000000000E+00 -0.34226003452E+04  0.34226003452E+04  0.25500000000E-02 0.  1.
    5000001    1    1    2    0    0 -0.34925524235E+02 -0.10298950090E+03 -0.14671165701E+04  0.14731553414E+04  0.77000000000E+02 0.  0.
   -5000001    1    1    2    0    0  0.34925524235E+02  0.10298950090E+03 -0.19501909002E+04  0.19547378793E+04  0.77000000000E+02 0.  0.
<mgrwt>
<rscale>  0 0.26918690E+03</rscale>
<asrwt>0</asrwt>
<pdfrwt beam="1">  1        2 0.52655213E+00 0.26918690E+03</pdfrwt>
<pdfrwt beam="2">  1       -2 0.81429123E-03 0.26918690E+03</pdfrwt>
<totfact> 0.32771219E+03</totfact>
</mgrwt>
</event>
<event>
 4    1  0.2489209E-004  0.1773363E+03  0.7818608E-02  0.1170406E+00
         -2   -1    0    0    0  501 -0.00000000000E+00  0.00000000000E+00  0.10937283359E+02  0.10937283656E+02  0.25500000000E-02 0. -1.
          2   -1    0    0  501    0  0.00000000000E+00 -0.00000000000E+00 -0.71882919178E+03  0.71882919178E+03  0.25500000000E-02 0.  1.
    5000001    1    1    2    0    0  0.42236664963E+02 -0.12043082089E+02 -0.36224488238E+03  0.37293340760E+03  0.77000000000E+02 0.  0.
   -5000001    1    1    2    0    0 -0.42236664963E+02  0.12043082089E+02 -0.34564702604E+03  0.35683306784E+03  0.77000000000E+02 0.  0.
<mgrwt>
<rscale>  0 0.17733628E+03</rscale>
<asrwt>0</asrwt>
<pdfrwt beam="1">  1        2 0.11058907E+00 0.17733628E+03</pdfrwt>
<pdfrwt beam="2">  1       -2 0.16826596E-02 0.17733628E+03</pdfrwt>
<totfact> 0.38876118E+04</totfact>
</mgrwt>
</event>
<event>
 4    1  0.2489209E-004  0.2234526E+03  0.7818608E-02  0.1131335E+00
          2   -1    0    0  501    0  0.00000000000E+00  0.00000000000E+00  0.13976592612E+03  0.13976592614E+03  0.25500000000E-02 0.  1.
         -2   -1    0    0    0  501 -0.00000000000E+00 -0.00000000000E+00 -0.89311926195E+02  0.89311926232E+02  0.25500000000E-02 0. -1.
    5000001    1    1    2    0    0 -0.61761670880E+01 -0.42931539964E+02 -0.44849510932E+02  0.99104696127E+02  0.77000000000E+02 0.  0.
   -5000001    1    1    2    0    0  0.61761670880E+01  0.42931539964E+02  0.95303510856E+02  0.12997315625E+03  0.77000000000E+02 0.  0.
<mgrwt>
<rscale>  0 0.22345258E+03</rscale>
<asrwt>0</asrwt>
<pdfrwt beam="1">  1        2 0.21502450E-01 0.22345258E+03</pdfrwt>
<pdfrwt beam="2">  1       -2 0.13740296E-01 0.22345258E+03</pdfrwt>
<totfact> 0.98783048E+03</totfact>
</mgrwt>
</event>
<event>
 4    1  0.2489209E-004  0.4437615E+03  0.7818608E-02  0.1029599E+00
          2   -1    0    0  501    0  0.00000000000E+00  0.00000000000E+00  0.22086121622E+04  0.22086121622E+04  0.25500000000E-02 0.  1.
         -2   -1    0    0    0  501 -0.00000000000E+00 -0.00000000000E+00 -0.22290494523E+02  0.22290494669E+02  0.25500000000E-02 0. -1.
    5000001    1    1    2    0    0  0.12003553438E+03  0.11664179515E+03  0.17147586767E+04  0.17246275416E+04  0.77000000000E+02 0.  0.
   -5000001    1    1    2    0    0 -0.12003553438E+03 -0.11664179515E+03  0.47156299093E+03  0.50627511524E+03  0.77000000000E+02 0.  0.
<mgrwt>
<rscale>  0 0.44376146E+03</rscale>
<asrwt>0</asrwt>
<pdfrwt beam="1">  1        2 0.33978666E+00 0.44376146E+03</pdfrwt>
<pdfrwt beam="2">  1       -2 0.34293051E-02 0.44376146E+03</pdfrwt>
<totfact> 0.19726776E+03</totfact>
</mgrwt>
</event>
<event>
 4    1  0.2489209E-004  0.1990902E+03  0.7818608E-02  0.1150509E+00
         -2   -1    0    0    0  501 -0.00000000000E+00  0.00000000000E+00  0.47132846034E+01  0.47132852933E+01  0.25500000000E-02 0. -1.
          2   -1    0    0  501    0  0.00000000000E+00 -0.00000000000E+00 -0.21024031171E+04  0.21024031171E+04  0.25500000000E-02 0.  1.
    5000001    1    1    2    0    0 -0.47632106593E+02  0.39028331086E+02 -0.90365222193E+03  0.90901505290E+03  0.77000000000E+02 0.  0.
   -5000001    1    1    2    0    0  0.47632106593E+02 -0.39028331086E+02 -0.11940376106E+04  0.11981013495E+04  0.77000000000E+02 0.  0.
<mgrwt>
<rscale>  0 0.19909018E+03</rscale>
<asrwt>0</asrwt>
<pdfrwt beam="1">  1        2 0.32344588E+00 0.19909018E+03</pdfrwt>
<pdfrwt beam="2">  1       -2 0.72512244E-03 0.19909018E+03</pdfrwt>
<totfact> 0.22035464E+04</totfact>
</mgrwt>
</event>
<event>
 4    1  0.2489209E-004  0.1989638E+03  0.7818608E-02  0.1150616E+00
         -2   -1    0    0    0  501 -0.00000000000E+00  0.00000000000E+00  0.30282981744E+01  0.30282992480E+01  0.25500000000E-02 0. -1.
          2   -1    0    0  501    0  0.00000000000E+00 -0.00000000000E+00 -0.32680542314E+04  0.32680542314E+04  0.25500000000E-02 0.  1.
    5000001    1    1    2    0    0  0.45729268601E+02 -0.17585826342E+02 -0.98166117147E+03  0.98589455971E+03  0.77000000000E+02 0.  0.
   -5000001    1    1    2    0    0 -0.45729268601E+02  0.17585826342E+02 -0.22833647617E+04  0.22851879709E+04  0.77000000000E+02 0.  0.
<mgrwt>
<rscale>  0 0.19896376E+03</rscale>
<asrwt>0</asrwt>
<pdfrwt beam="1">  1        2 0.50277475E+00 0.19896376E+03</pdfrwt>
<pdfrwt beam="2">  1       -2 0.46589472E-03 0.19896376E+03</pdfrwt>
<totfact> 0.92112904E+03</totfact>
</mgrwt>
</event>
<event>
 4    1  0.2489209E-004  0.2043309E+03  0.7818608E-02  0.1146136E+00
          2   -1    0    0  501    0  0.00000000000E+00  0.00000000000E+00  0.10833593403E+04  0.10833593403E+04  0.25500000000E-02 0.  1.
         -2   -1    0    0    0  501 -0.00000000000E+00 -0.00000000000E+00 -0.96346430292E+01  0.96346433667E+01  0.25500000000E-02 0. -1.
    5000001    1    1    2    0    0 -0.68873468097E+01 -0.64641883867E+02  0.62681249990E+03  0.63486133819E+03  0.77000000000E+02 0.  0.
   -5000001    1    1    2    0    0  0.68873468097E+01  0.64641883867E+02  0.44691219734E+03  0.45813264545E+03  0.77000000000E+02 0.  0.
<mgrwt>
<rscale>  0 0.20433091E+03</rscale>
<asrwt>0</asrwt>
<pdfrwt beam="1">  1        2 0.16667063E+00 0.20433091E+03</pdfrwt>
<pdfrwt beam="2">  1       -2 0.14822532E-02 0.20433091E+03</pdfrwt>
<totfact> 0.27498204E+04</totfact>
</mgrwt>
</event>
<event>
 4    1  0.2489209E-004  0.1883582E+03  0.7818608E-02  0.1159951E+00
          2   -1    0    0  501    0  0.00000000000E+00  0.00000000000E+00  0.41578287000E+03  0.41578287001E+03  0.25500000000E-02 0.  1.
         -2   -1    0    0    0  501 -0.00000000000E+00 -0.00000000000E+00 -0.21332525510E+02  0.21332525663E+02  0.25500000000E-02 0. -1.
    5000001    1    1    2    0    0 -0.21339326288E+02 -0.28186002624E+02  0.29265150004E+03  0.30466985093E+03  0.77000000000E+02 0.  0.
   -5000001    1    1    2    0    0  0.21339326288E+02  0.28186002624E+02  0.10179884445E+03  0.13244554474E+03  0.77000000000E+02 0.  0.
<mgrwt>
<rscale>  0 0.18835816E+03</rscale>
<asrwt>0</asrwt>
<pdfrwt beam="1">  1        2 0.63966593E-01 0.18835816E+03</pdfrwt>
<pdfrwt beam="2">  1       -2 0.32819271E-02 0.18835816E+03</pdfrwt>
<totfact> 0.27250184E+04</totfact>
</mgrwt>
</event>
<event>
 4    1  0.2489209E-004  0.2406731E+03  0.7818608E-02  0.1119345E+00
          2   -1    0    0  501    0  0.00000000000E+00  0.00000000000E+00  0.54301863236E+02  0.54301863296E+02  0.25500000000E-02 0.  1.
         -2   -1    0    0    0  501 -0.00000000000E+00 -0.00000000000E+00 -0.26667373275E+03  0.26667373276E+03  0.25500000000E-02 0. -1.
    5000001    1    1    2    0    0  0.77786082702E+02  0.19866201822E+02 -0.16739692159E+03  0.20098773593E+03  0.77000000000E+02 0.  0.
   -5000001    1    1    2    0    0 -0.77786082702E+02 -0.19866201822E+02 -0.44974947924E+02  0.11998786013E+03  0.77000000000E+02 0.  0.
<mgrwt>
<rscale>  0 0.24067306E+03</rscale>
<asrwt>0</asrwt>
<pdfrwt beam="1">  1        2 0.83541330E-02 0.24067306E+03</pdfrwt>
<pdfrwt beam="2">  1       -2 0.41026727E-01 0.24067306E+03</pdfrwt>
<totfact> 0.45072491E+03</totfact>
</mgrwt>
</event>
<event>
 4    1  0.2489209E-004  0.2676483E+03  0.7818608E-02  0.1102633E+00
         -2   -1    0    0    0  501 -0.00000000000E+00  0.00000000000E+00  0.32374320240E+03  0.32374320241E+03  0.25500000000E-02 0. -1.
          2   -1    0    0  501    0  0.00000000000E+00 -0.00000000000E+00 -0.55318246836E+02  0.55318246895E+02  0.25500000000E-02 0.  1.
    5000001    1    1    2    0    0 -0.14768855070E+02  0.10609892877E+03  0.16603295982E+03  0.21206377699E+03  0.77000000000E+02 0.  0.
   -5000001    1    1    2    0    0  0.14768855070E+02 -0.10609892877E+03  0.10239199575E+03  0.16699767232E+03  0.77000000000E+02 0.  0.
<mgrwt>
<rscale>  0 0.26764832E+03</rscale>
<asrwt>0</asrwt>
<pdfrwt beam="1">  1        2 0.85104996E-02 0.26764832E+03</pdfrwt>
<pdfrwt beam="2">  1       -2 0.49806646E-01 0.26764832E+03</pdfrwt>
<totfact> 0.30263133E+03</totfact>
</mgrwt>
</event>
<event>
 4    1  0.2489209E-004  0.7605473E+03  0.7818608E-02  0.9618947E-01
         -2   -1    0    0    0  501 -0.00000000000E+00  0.00000000000E+00  0.16685397930E+03  0.16685397932E+03  0.25500000000E-02 0. -1.
          2   -1    0    0  501    0  0.00000000000E+00 -0.00000000000E+00 -0.86667428529E+03  0.86667428530E+03  0.25500000000E-02 0.  1.
    5000001    1    1    2    0    0 -0.17895221837E+03  0.24323399309E+03 -0.64605767025E+03  0.71729086509E+03  0.77000000000E+02 0.  0.
   -5000001    1    1    2    0    0  0.17895221837E+03 -0.24323399309E+03 -0.53762635737E+02  0.31623739953E+03  0.77000000000E+02 0.  0.
<mgrwt>
<rscale>  0 0.76054731E+03</rscale>
<asrwt>0</asrwt>
<pdfrwt beam="1">  1        2 0.13333450E+00 0.76054731E+03</pdfrwt>
<pdfrwt beam="2">  1       -2 0.25669843E-01 0.76054731E+03</pdfrwt>
<totfact> 0.42442183E+02</totfact>
</mgrwt>
</event>
<event>
 4    1  0.2489209E-004  0.2005203E+03  0.7818608E-02  0.1149301E+00
         -2   -1    0    0    0  501 -0.00000000000E+00  0.00000000000E+00  0.59559761832E+01  0.59559767291E+01  0.25500000000E-02 0. -1.
          2   -1    0    0  501    0  0.00000000000E+00 -0.00000000000E+00 -0.16877321118E+04  0.16877321118E+04  0.25500000000E-02 0.  1.
    5000001    1    1    2    0    0 -0.52400312932E+02 -0.14328173346E+02 -0.55172712883E+03  0.55971681593E+03  0.77000000000E+02 0.  0.
   -5000001    1    1    2    0    0  0.52400312932E+02  0.14328173346E+02 -0.11300490068E+04  0.11339712726E+04  0.77000000000E+02 0.  0.
<mgrwt>
<rscale>  0 0.20052025E+03</rscale>
<asrwt>0</asrwt>
<pdfrwt beam="1">  1        2 0.25965071E+00 0.20052025E+03</pdfrwt>
<pdfrwt beam="2">  1       -2 0.91630542E-03 0.20052025E+03</pdfrwt>
<totfact> 0.25861139E+04</totfact>
</mgrwt>
</event>
<event>
 4    1  0.2489209E-004  0.2061853E+03  0.7818608E-02  0.1144623E+00
         -2   -1    0    0    0  501 -0.00000000000E+00  0.00000000000E+00  0.13760801501E+03  0.13760801503E+03  0.25500000000E-02 0. -1.
          2   -1    0    0  501    0  0.00000000000E+00 -0.00000000000E+00 -0.77234574274E+02  0.77234574316E+02  0.25500000000E-02 0.  1.
    5000001    1    1    2    0    0 -0.98908357235E+01  0.66465103862E+02  0.16065659418E+02  0.10345310085E+03  0.77000000000E+02 0.  0.
   -5000001    1    1    2    0    0  0.98908357235E+01 -0.66465103862E+02  0.44307781315E+02  0.11138948850E+03  0.77000000000E+02 0.  0.
<mgrwt>
<rscale>  0 0.20618532E+03</rscale>
<asrwt>0</asrwt>
<pdfrwt beam="1">  1        2 0.11882242E-01 0.20618532E+03</pdfrwt>
<pdfrwt beam="2">  1       -2 0.21170464E-01 0.20618532E+03</pdfrwt>
<totfact> 0.95640135E+03</totfact>
</mgrwt>
</event>
<event>
 4    1  0.2489209E-004  0.1708746E+03  0.7818608E-02  0.1176939E+00
         -2   -1    0    0    0  501 -0.00000000000E+00  0.00000000000E+00  0.66387289138E+03  0.66387289138E+03  0.25500000000E-02 0. -1.
          2   -1    0    0  501    0  0.00000000000E+00 -0.00000000000E+00 -0.10995370574E+02  0.10995370870E+02  0.25500000000E-02 0.  1.
    5000001    1    1    2    0    0 -0.17261633627E+02  0.21245233352E+01  0.19736511063E+03  0.21256637667E+03  0.77000000000E+02 0.  0.
   -5000001    1    1    2    0    0  0.17261633627E+02 -0.21245233352E+01  0.45551241017E+03  0.46230188558E+03  0.77000000000E+02 0.  0.
<mgrwt>
<rscale>  0 0.17087456E+03</rscale>
<asrwt>0</asrwt>
<pdfrwt beam="1">  1        2 0.16915948E-02 0.17087456E+03</pdfrwt>
<pdfrwt beam="2">  1       -2 0.10213433E+00 0.17087456E+03</pdfrwt>
<totfact> 0.54372794E+03</totfact>
</mgrwt>
</event>
<event>
 4    1  0.2489209E-004  0.3274945E+03  0.7818608E-02  0.1072251E+00
          2   -1    0    0  501    0  0.00000000000E+00  0.00000000000E+00  0.61541786698E+03  0.61541786698E+03  0.25500000000E-02 0.  1.
         -2   -1    0    0    0  501 -0.00000000000E+00 -0.00000000000E+00 -0.43569025534E+02  0.43569025608E+02  0.25500000000E-02 0. -1.
    5000001    1    1    2    0    0  0.87579288455E+02  0.57541861389E+02  0.48616647960E+03  0.50325743260E+03  0.77000000000E+02 0.  0.
   -5000001    1    1    2    0    0 -0.87579288455E+02 -0.57541861389E+02  0.85682361843E+02  0.15572945999E+03  0.77000000000E+02 0.  0.
<mgrwt>
<rscale>  0 0.32749447E+03</rscale>
<asrwt>0</asrwt>
<pdfrwt beam="1">  1        2 0.94679663E-01 0.32749447E+03</pdfrwt>
<pdfrwt beam="2">  1       -2 0.67029277E-02 0.32749447E+03</pdfrwt>
<totfact> 0.61197473E+03</totfact>
</mgrwt>
</event>
<event>
 4    1  0.2489209E-004  0.3559727E+03  0.7818608E-02  0.1060190E+00
          2   -1    0    0  501    0  0.00000000000E+00  0.00000000000E+00  0.24517485294E+03  0.24517485296E+03  0.25500000000E-02 0. -1.
         -2   -1    0    0    0  501 -0.00000000000E+00 -0.00000000000E+00 -0.12921042965E+03  0.12921042967E+03  0.25500000000E-02 0.  1.
    5000001    1    1    2    0    0 -0.12411591480E+03  0.39520897807E+02  0.15655010902E+03  0.21772367420E+03  0.77000000000E+02 0.  0.
   -5000001    1    1    2    0    0  0.12411591480E+03 -0.39520897807E+02 -0.40585685727E+02  0.15666160843E+03  0.77000000000E+02 0.  0.
<mgrwt>
<rscale>  0 0.35597274E+03</rscale>
<asrwt>0</asrwt>
<pdfrwt beam="1">  1        2 0.37719208E-01 0.35597274E+03</pdfrwt>
<pdfrwt beam="2">  1       -2 0.19878528E-01 0.35597274E+03</pdfrwt>
<totfact> 0.29064724E+03</totfact>
</mgrwt>
</event>
<event>
 4    1  0.2489209E-004  0.2041750E+03  0.7818608E-02  0.1146264E+00
          2   -1    0    0  501    0  0.00000000000E+00  0.00000000000E+00  0.12657261344E+04  0.12657261344E+04  0.25500000000E-02 0.  1.
         -2   -1    0    0    0  501 -0.00000000000E+00 -0.00000000000E+00 -0.82338990484E+01  0.82338994432E+01  0.25500000000E-02 0. -1.
    5000001    1    1    2    0    0 -0.44052581716E+02  0.49618545208E+02  0.56947648912E+03  0.57847653508E+03  0.77000000000E+02 0.  0.
   -5000001    1    1    2    0    0  0.44052581716E+02 -0.49618545208E+02  0.68801574621E+03  0.69548349874E+03  0.77000000000E+02 0.  0.
<mgrwt>
<rscale>  0 0.20417504E+03</rscale>
<asrwt>0</asrwt>
<pdfrwt beam="1">  1        2 0.19472698E+00 0.20417504E+03</pdfrwt>
<pdfrwt beam="2">  1       -2 0.12667545E-02 0.20417504E+03</pdfrwt>
<totfact> 0.27213385E+04</totfact>
</mgrwt>
</event>
<event>
 4    1  0.2489209E-004  0.1984963E+03  0.7818608E-02  0.1151014E+00
         -2   -1    0    0    0  501 -0.00000000000E+00  0.00000000000E+00  0.93638290876E+01  0.93638294348E+01  0.25500000000E-02 0. -1.
          2   -1    0    0  501    0  0.00000000000E+00 -0.00000000000E+00 -0.10519408969E+04  0.10519408969E+04  0.25500000000E-02 0.  1.
    5000001    1    1    2    0    0 -0.31378609434E+02  0.53561450920E+02 -0.47727983871E+03  0.48742024024E+03  0.77000000000E+02 0.  0.
   -5000001    1    1    2    0    0  0.31378609434E+02 -0.53561450920E+02 -0.56529722906E+03  0.57388448606E+03  0.77000000000E+02 0.  0.
<mgrwt>
<rscale>  0 0.19849630E+03</rscale>
<asrwt>0</asrwt>
<pdfrwt beam="1">  1        2 0.16183697E+00 0.19849630E+03</pdfrwt>
<pdfrwt beam="2">  1       -2 0.14405899E-02 0.19849630E+03</pdfrwt>
<totfact> 0.29852495E+04</totfact>
</mgrwt>
</event>
<event>
 4    1  0.2489209E-004  0.2092144E+03  0.7818608E-02  0.1142190E+00
          2   -1    0    0  501    0  0.00000000000E+00  0.00000000000E+00  0.37490119852E+03  0.37490119853E+03  0.25500000000E-02 0.  1.
         -2   -1    0    0    0  501 -0.00000000000E+00 -0.00000000000E+00 -0.29188132496E+02  0.29188132608E+02  0.25500000000E-02 0. -1.
    5000001    1    1    2    0    0  0.44880826657E+02  0.51633835040E+02  0.20811954010E+03  0.23221344598E+03  0.77000000000E+02 0.  0.
   -5000001    1    1    2    0    0 -0.44880826657E+02 -0.51633835040E+02  0.13759352592E+03  0.17187588516E+03  0.77000000000E+02 0.  0.
<mgrwt>
<rscale>  0 0.20921440E+03</rscale>
<asrwt>0</asrwt>
<pdfrwt beam="1">  1        2 0.57677103E-01 0.20921440E+03</pdfrwt>
<pdfrwt beam="2">  1       -2 0.44904823E-02 0.20921440E+03</pdfrwt>
<totfact> 0.19222764E+04</totfact>
</mgrwt>
</event>
<event>
 4    1  0.2489209E-004  0.3300165E+03  0.7818608E-02  0.1071130E+00
          2   -1    0    0  501    0  0.00000000000E+00  0.00000000000E+00  0.33571085300E+04  0.33571085300E+04  0.25500000000E-02 0.  1.
         -2   -1    0    0    0  501 -0.00000000000E+00 -0.00000000000E+00 -0.81104684680E+01  0.81104688689E+01  0.25500000000E-02 0. -1.
    5000001    1    1    2    0    0 -0.73140430778E+02 -0.22370170667E+02  0.40706689652E+03  0.42128660719E+03  0.77000000000E+02 0.  0.
   -5000001    1    1    2    0    0  0.73140430778E+02  0.22370170667E+02  0.29419311650E+04  0.29439323917E+04  0.77000000000E+02 0.  0.
<mgrwt>
<rscale>  0 0.33001651E+03</rscale>
<asrwt>0</asrwt>
<pdfrwt beam="1">  1        2 0.51647858E+00 0.33001651E+03</pdfrwt>
<pdfrwt beam="2">  1       -2 0.12477636E-02 0.33001651E+03</pdfrwt>
<totfact> 0.19251761E+03</totfact>
</mgrwt>
</event>
<event>
 4    1  0.2489209E-004  0.2306273E+03  0.7818608E-02  0.1126199E+00
          2   -1    0    0  501    0  0.00000000000E+00  0.00000000000E+00  0.20281984293E+03  0.20281984294E+03  0.25500000000E-02 0.  1.
         -2   -1    0    0    0  501 -0.00000000000E+00 -0.00000000000E+00 -0.65561803536E+02  0.65561803585E+02  0.25500000000E-02 0. -1.
    5000001    1    1    2    0    0  0.48262749585E+02  0.67248541094E+02  0.95078005403E+02  0.14771758998E+03  0.77000000000E+02 0.  0.
   -5000001    1    1    2    0    0 -0.48262749585E+02 -0.67248541094E+02  0.42180033990E+02  0.12066405655E+03  0.77000000000E+02 0.  0.
<mgrwt>
<rscale>  0 0.23062727E+03</rscale>
<asrwt>0</asrwt>
<pdfrwt beam="1">  1        2 0.31203053E-01 0.23062727E+03</pdfrwt>
<pdfrwt beam="2">  1       -2 0.10086431E-01 0.23062727E+03</pdfrwt>
<totfact> 0.10760516E+04</totfact>
</mgrwt>
</event>
<event>
 4    1  0.2489209E-004  0.2155938E+03  0.7818608E-02  0.1137211E+00
          2   -1    0    0  501    0  0.00000000000E+00  0.00000000000E+00  0.37622676959E+04  0.37622676959E+04  0.25500000000E-02 0. -1.
         -2   -1    0    0    0  501 -0.00000000000E+00 -0.00000000000E+00 -0.30886065990E+01  0.30886076517E+01  0.25500000000E-02 0.  1.
    5000001    1    1    2    0    0  0.42432838588E+02  0.33112330683E+02  0.95638438189E+03  0.96098754318E+03  0.77000000000E+02 0.  0.
   -5000001    1    1    2    0    0 -0.42432838588E+02 -0.33112330683E+02  0.28027947074E+04  0.28043687603E+04  0.77000000000E+02 0.  0.
<mgrwt>
<rscale>  0 0.21559376E+03</rscale>
<asrwt>0</asrwt>
<pdfrwt beam="1">  1        2 0.57881148E+00 0.21559376E+03</pdfrwt>
<pdfrwt beam="2">  1       -2 0.47516945E-03 0.21559376E+03</pdfrwt>
<totfact> 0.42185042E+03</totfact>
</mgrwt>
</event>
<event>
 4    1  0.2489209E-004  0.4463864E+03  0.7818608E-02  0.1028805E+00
         -2   -1    0    0    0  501 -0.00000000000E+00  0.00000000000E+00  0.63488652040E+02  0.63488652091E+02  0.25500000000E-02 0. -1.
          2   -1    0    0  501    0  0.00000000000E+00 -0.00000000000E+00 -0.78463176852E+03  0.78463176852E+03  0.25500000000E-02 0.  1.
    5000001    1    1    2    0    0 -0.85920917482E+02  0.18946197164E+03 -0.40741920871E+03  0.46389401201E+03  0.77000000000E+02 0.  0.
   -5000001    1    1    2    0    0  0.85920917482E+02 -0.18946197164E+03 -0.31372390777E+03  0.38422640860E+03  0.77000000000E+02 0.  0.
<mgrwt>
<rscale>  0 0.44638644E+03</rscale>
<asrwt>0</asrwt>
<pdfrwt beam="1">  1        2 0.12071257E+00 0.44638644E+03</pdfrwt>
<pdfrwt beam="2">  1       -2 0.97674855E-02 0.44638644E+03</pdfrwt>
<totfact> 0.25167217E+03</totfact>
</mgrwt>
</event>
<event>
 4    1  0.2489209E-004  0.2693790E+03  0.7818608E-02  0.1101636E+00
          2   -1    0    0  501    0  0.00000000000E+00  0.00000000000E+00  0.18253921330E+03  0.18253921332E+03  0.25500000000E-02 0.  1.
         -2   -1    0    0    0  501 -0.00000000000E+00 -0.00000000000E+00 -0.99382834020E+02  0.99382834052E+02  0.25500000000E-02 0. -1.
    5000001    1    1    2    0    0  0.10963214369E+03 -0.86648099617E+01  0.52945734382E+02  0.14431402098E+03  0.77000000000E+02 0.  0.
   -5000001    1    1    2    0    0 -0.10963214369E+03  0.86648099617E+01  0.30210644897E+02  0.13760802639E+03  0.77000000000E+02 0.  0.
<mgrwt>
<rscale>  0 0.26937902E+03</rscale>
<asrwt>0</asrwt>
<pdfrwt beam="1">  1        2 0.28082956E-01 0.26937902E+03</pdfrwt>
<pdfrwt beam="2">  1       -2 0.15289667E-01 0.26937902E+03</pdfrwt>
<totfact> 0.62037110E+03</totfact>
</mgrwt>
</event>
<event>
 4    1  0.2489209E-004  0.6166905E+03  0.7818608E-02  0.9871371E-01
          2   -1    0    0  501    0  0.00000000000E+00  0.00000000000E+00  0.63052434823E+03  0.63052434823E+03  0.25500000000E-02 0.  1.
         -2   -1    0    0    0  501 -0.00000000000E+00 -0.00000000000E+00 -0.15079003492E+03  0.15079003494E+03  0.25500000000E-02 0. -1.
    5000001    1    1    2    0    0  0.29677939465E+03  0.30357006452E+02  0.25529229004E+03  0.40012836725E+03  0.77000000000E+02 0.  0.
   -5000001    1    1    2    0    0 -0.29677939465E+03 -0.30357006452E+02  0.22444202327E+03  0.38118601592E+03  0.77000000000E+02 0.  0.
<mgrwt>
<rscale>  0 0.61669048E+03</rscale>
<asrwt>0</asrwt>
<pdfrwt beam="1">  1        2 0.97003746E-01 0.61669048E+03</pdfrwt>
<pdfrwt beam="2">  1       -2 0.23198467E-01 0.61669048E+03</pdfrwt>
<totfact> 0.76958247E+02</totfact>
</mgrwt>
</event>
<event>
 4    1  0.2489209E-004  0.2643261E+03  0.7818608E-02  0.1104572E+00
          2   -1    0    0  501    0  0.00000000000E+00  0.00000000000E+00  0.12393254021E+04  0.12393254021E+04  0.25500000000E-02 0.  1.
         -2   -1    0    0    0  501 -0.00000000000E+00 -0.00000000000E+00 -0.14094015266E+02  0.14094015497E+02  0.25500000000E-02 0. -1.
    5000001    1    1    2    0    0  0.61298323996E+02  0.38172587971E+02  0.98969533642E+03  0.99530924337E+03  0.77000000000E+02 0.  0.
   -5000001    1    1    2    0    0 -0.61298323996E+02 -0.38172587971E+02  0.23553605038E+03  0.25811017420E+03  0.77000000000E+02 0.  0.
<mgrwt>
<rscale>  0 0.26432610E+03</rscale>
<asrwt>0</asrwt>
<pdfrwt beam="1">  1        2 0.19066544E+00 0.26432610E+03</pdfrwt>
<pdfrwt beam="2">  1       -2 0.21683102E-02 0.26432610E+03</pdfrwt>
<totfact> 0.12988148E+04</totfact>
</mgrwt>
</event>
<event>
 4    1  0.2489209E-004  0.1684356E+03  0.7818608E-02  0.1179489E+00
         -2   -1    0    0    0  501 -0.00000000000E+00  0.00000000000E+00  0.80404300582E+01  0.80404304626E+01  0.25500000000E-02 0. -1.
          2   -1    0    0  501    0  0.00000000000E+00 -0.00000000000E+00 -0.88212160999E+03  0.88212160999E+03  0.25500000000E-02 0.  1.
    5000001    1    1    2    0    0 -0.15842408978E+02  0.18974475791E+02 -0.56127740815E+03  0.56707348867E+03  0.77000000000E+02 0.  0.
   -5000001    1    1    2    0    0  0.15842408978E+02 -0.18974475791E+02 -0.31280377177E+03  0.32308855178E+03  0.77000000000E+02 0.  0.
<mgrwt>
<rscale>  0 0.16843559E+03</rscale>
<asrwt>0</asrwt>
<pdfrwt beam="1">  1        2 0.13571094E+00 0.16843559E+03</pdfrwt>
<pdfrwt beam="2">  1       -2 0.12369900E-02 0.16843559E+03</pdfrwt>
<totfact> 0.46744117E+04</totfact>
</mgrwt>
</event>
<event>
 4    1  0.2489209E-004  0.2292248E+03  0.7818608E-02  0.1127187E+00
         -2   -1    0    0    0  501 -0.00000000000E+00  0.00000000000E+00  0.32208863759E+02  0.32208863860E+02  0.25500000000E-02 0. -1.
          2   -1    0    0  501    0  0.00000000000E+00 -0.00000000000E+00 -0.40783799546E+03  0.40783799547E+03  0.25500000000E-02 0.  1.
    5000001    1    1    2    0    0  0.34731001083E+02  0.74831627918E+02 -0.22625609255E+03  0.25283756522E+03  0.77000000000E+02 0.  0.
   -5000001    1    1    2    0    0 -0.34731001083E+02 -0.74831627918E+02 -0.14937303915E+03  0.18720929410E+03  0.77000000000E+02 0.  0.
<mgrwt>
<rscale>  0 0.22922477E+03</rscale>
<asrwt>0</asrwt>
<pdfrwt beam="1">  1        2 0.62744303E-01 0.22922477E+03</pdfrwt>
<pdfrwt beam="2">  1       -2 0.49552101E-02 0.22922477E+03</pdfrwt>
<totfact> 0.15215371E+04</totfact>
</mgrwt>
</event>
<event>
 4    1  0.2489209E-004  0.2008395E+03  0.7818608E-02  0.1149033E+00
         -2   -1    0    0    0  501 -0.00000000000E+00  0.00000000000E+00  0.49823920343E+01  0.49823926869E+01  0.25500000000E-02 0. -1.
          2   -1    0    0  501    0  0.00000000000E+00 -0.00000000000E+00 -0.20239525658E+04  0.20239525658E+04  0.25500000000E-02 0.  1.
    5000001    1    1    2    0    0  0.52540923877E+02  0.15114549410E+02 -0.13544635825E+04  0.13577516690E+04  0.77000000000E+02 0.  0.
   -5000001    1    1    2    0    0 -0.52540923877E+02 -0.15114549410E+02 -0.66450659120E+03  0.67118328945E+03  0.77000000000E+02 0.  0.
<mgrwt>
<rscale>  0 0.20083950E+03</rscale>
<asrwt>0</asrwt>
<pdfrwt beam="1">  1        2 0.31137666E+00 0.20083950E+03</pdfrwt>
<pdfrwt beam="2">  1       -2 0.76652352E-03 0.20083950E+03</pdfrwt>
<totfact> 0.22363848E+04</totfact>
</mgrwt>
</event>
<event>
 4    1  0.2489209E-004  0.2057275E+03  0.7818608E-02  0.1144995E+00
         -2   -1    0    0    0  501 -0.00000000000E+00  0.00000000000E+00  0.91387025526E+02  0.91387025561E+02  0.25500000000E-02 0. -1.
          2   -1    0    0  501    0  0.00000000000E+00 -0.00000000000E+00 -0.11578175062E+03  0.11578175065E+03  0.25500000000E-02 0.  1.
    5000001    1    1    2    0    0 -0.26307864173E+02 -0.62754948498E+02 -0.16884271805E+02  0.10413628528E+03  0.77000000000E+02 0.  0.
   -5000001    1    1    2    0    0  0.26307864173E+02  0.62754948498E+02 -0.75104532930E+01  0.10303249093E+03  0.77000000000E+02 0.  0.
<mgrwt>
<rscale>  0 0.20572749E+03</rscale>
<asrwt>0</asrwt>
<pdfrwt beam="1">  1        2 0.17812577E-01 0.20572749E+03</pdfrwt>
<pdfrwt beam="2">  1       -2 0.14059542E-01 0.20572749E+03</pdfrwt>
<totfact> 0.11740582E+04</totfact>
</mgrwt>
</event>
<event>
 4    1  0.2489209E-004  0.2872251E+03  0.7818608E-02  0.1091807E+00
         -2   -1    0    0    0  501 -0.00000000000E+00  0.00000000000E+00  0.59470160967E+02  0.59470161021E+02  0.25500000000E-02 0. -1.
          2   -1    0    0  501    0  0.00000000000E+00 -0.00000000000E+00 -0.34680520594E+03  0.34680520595E+03  0.25500000000E-02 0.  1.
    5000001    1    1    2    0    0 -0.94867762634E+02 -0.61389553962E+02 -0.20575986690E+03  0.24705200374E+03  0.77000000000E+02 0.  0.
   -5000001    1    1    2    0    0  0.94867762634E+02  0.61389553962E+02 -0.81575178074E+02  0.15922336324E+03  0.77000000000E+02 0.  0.
<mgrwt>
<rscale>  0 0.28722508E+03</rscale>
<asrwt>0</asrwt>
<pdfrwt beam="1">  1        2 0.53354646E-01 0.28722508E+03</pdfrwt>
<pdfrwt beam="2">  1       -2 0.91492557E-02 0.28722508E+03</pdfrwt>
<totfact> 0.71050820E+03</totfact>
</mgrwt>
</event>
<event>
 4    1  0.2489209E-004  0.2906796E+03  0.7818608E-02  0.1089995E+00
          2   -1    0    0  501    0  0.00000000000E+00  0.00000000000E+00  0.12116682112E+04  0.12116682112E+04  0.25500000000E-02 0.  1.
         -2   -1    0    0    0  501 -0.00000000000E+00 -0.00000000000E+00 -0.17433536830E+02  0.17433537017E+02  0.25500000000E-02 0. -1.
    5000001    1    1    2    0    0 -0.98781442600E+02 -0.41348332776E+02  0.33897166989E+03  0.36372826534E+03  0.77000000000E+02 0.  0.
   -5000001    1    1    2    0    0  0.98781442600E+02  0.41348332776E+02  0.85526300453E+03  0.86537348292E+03  0.77000000000E+02 0.  0.
<mgrwt>
<rscale>  0 0.29067963E+03</rscale>
<asrwt>0</asrwt>
<pdfrwt beam="1">  1        2 0.18641044E+00 0.29067963E+03</pdfrwt>
<pdfrwt beam="2">  1       -2 0.26820834E-02 0.29067963E+03</pdfrwt>
<totfact> 0.98552496E+03</totfact>
</mgrwt>
</event>
<event>
 4    1  0.2489209E-004  0.1604346E+03  0.7818608E-02  0.1188207E+00
          2   -1    0    0  501    0  0.00000000000E+00  0.00000000000E+00  0.22240714167E+04  0.22240714167E+04  0.25500000000E-02 0.  1.
         -2   -1    0    0    0  501 -0.00000000000E+00 -0.00000000000E+00 -0.28932600152E+01  0.28932611390E+01  0.25500000000E-02 0. -1.
    5000001    1    1    2    0    0  0.46507893463E+01  0.15725397428E+02  0.13242366183E+04  0.13265747394E+04  0.77000000000E+02 0.  0.
   -5000001    1    1    2    0    0 -0.46507893463E+01 -0.15725397428E+02  0.89694153836E+03  0.90038993842E+03  0.77000000000E+02 0.  0.
<mgrwt>
<rscale>  0 0.16043464E+03</rscale>
<asrwt>0</asrwt>
<pdfrwt beam="1">  1        2 0.34216451E+00 0.16043464E+03</pdfrwt>
<pdfrwt beam="2">  1       -2 0.44511744E-03 0.16043464E+03</pdfrwt>
<totfact> 0.37817582E+04</totfact>
</mgrwt>
</event>
<event>
 4    1  0.2489209E-004  0.3961313E+03  0.7818608E-02  0.1045128E+00
          2   -1    0    0  501    0  0.00000000000E+00  0.00000000000E+00  0.17197028778E+03  0.17197028780E+03  0.25500000000E-02 0.  1.
         -2   -1    0    0    0  501 -0.00000000000E+00 -0.00000000000E+00 -0.22812079228E+03  0.22812079229E+03  0.25500000000E-02 0. -1.
    5000001    1    1    2    0    0 -0.15180876594E+03  0.58980257702E+02 -0.11121717839E+03  0.21171403587E+03  0.77000000000E+02 0.  0.
   -5000001    1    1    2    0    0  0.15180876594E+03 -0.58980257702E+02  0.55066673896E+02  0.18837704422E+03  0.77000000000E+02 0.  0.
<mgrwt>
<rscale>  0 0.39613128E+03</rscale>
<asrwt>0</asrwt>
<pdfrwt beam="1">  1        2 0.26456967E-01 0.39613128E+03</pdfrwt>
<pdfrwt beam="2">  1       -2 0.35095507E-01 0.39613128E+03</pdfrwt>
<totfact> 0.15530011E+03</totfact>
</mgrwt>
</event>
<event>
 4    1  0.2489209E-004  0.4410096E+03  0.7818608E-02  0.1030438E+00
         -2   -1    0    0    0  501 -0.00000000000E+00  0.00000000000E+00  0.14284598834E+03  0.14284598837E+03  0.25500000000E-02 0. -1.
          2   -1    0    0  501    0  0.00000000000E+00 -0.00000000000E+00 -0.34038308541E+03  0.34038308541E+03  0.25500000000E-02 0.  1.
    5000001    1    1    2    0    0 -0.13872382349E+03 -0.15004684272E+03 -0.13227371622E+03  0.25531096767E+03  0.77000000000E+02 0.  0.
   -5000001    1    1    2    0    0  0.13872382349E+03  0.15004684272E+03 -0.65263380845E+02  0.22791810611E+03  0.77000000000E+02 0.  0.
<mgrwt>
<rscale>  0 0.44100956E+03</rscale>
<asrwt>0</asrwt>
<pdfrwt beam="1">  1        2 0.52366628E-01 0.44100956E+03</pdfrwt>
<pdfrwt beam="2">  1       -2 0.21976306E-01 0.44100956E+03</pdfrwt>
<totfact> 0.17119073E+03</totfact>
</mgrwt>
</event>
<event>
 4    1  0.2489209E-004  0.1820543E+03  0.7818608E-02  0.1165830E+00
          2   -1    0    0  501    0  0.00000000000E+00  0.00000000000E+00  0.88883023607E+03  0.88883023607E+03  0.25500000000E-02 0.  1.
         -2   -1    0    0    0  501 -0.00000000000E+00 -0.00000000000E+00 -0.93222980247E+01  0.93222983735E+01  0.25500000000E-02 0. -1.
    5000001    1    1    2    0    0 -0.33328811703E+02  0.14271600764E+02  0.28046808842E+03  0.29309697525E+03  0.77000000000E+02 0.  0.
   -5000001    1    1    2    0    0  0.33328811703E+02 -0.14271600764E+02  0.59903984963E+03  0.60505555920E+03  0.77000000000E+02 0.  0.
<mgrwt>
<rscale>  0 0.18205428E+03</rscale>
<asrwt>0</asrwt>
<pdfrwt beam="1">  1        2 0.13674312E+00 0.18205428E+03</pdfrwt>
<pdfrwt beam="2">  1       -2 0.14341997E-02 0.18205428E+03</pdfrwt>
<totfact> 0.37615513E+04</totfact>
</mgrwt>
</event>
<event>
 4    1  0.2489209E-004  0.2339242E+03  0.7818608E-02  0.1123908E+00
         -2   -1    0    0    0  501 -0.00000000000E+00  0.00000000000E+00  0.15054488657E+02  0.15054488873E+02  0.25500000000E-02 0. -1.
          2   -1    0    0  501    0  0.00000000000E+00 -0.00000000000E+00 -0.90870771971E+03  0.90870771972E+03  0.25500000000E-02 0.  1.
    5000001    1    1    2    0    0 -0.67603402169E+02  0.39021721711E+02 -0.28601939179E+03  0.30631520894E+03  0.77000000000E+02 0.  0.
   -5000001    1    1    2    0    0  0.67603402169E+02 -0.39021721711E+02 -0.60763383927E+03  0.61744699965E+03  0.77000000000E+02 0.  0.
<mgrwt>
<rscale>  0 0.23392418E+03</rscale>
<asrwt>0</asrwt>
<pdfrwt beam="1">  1        2 0.13980115E+00 0.23392418E+03</pdfrwt>
<pdfrwt beam="2">  1       -2 0.23160759E-02 0.23392418E+03</pdfrwt>
<totfact> 0.18439337E+04</totfact>
</mgrwt>
</event>
<event>
 4    1  0.2489209E-004  0.2700577E+03  0.7818608E-02  0.1101247E+00
          2   -1    0    0  501    0  0.00000000000E+00  0.00000000000E+00  0.61953475102E+02  0.61953475155E+02  0.25500000000E-02 0.  1.
         -2   -1    0    0    0  501 -0.00000000000E+00 -0.00000000000E+00 -0.29429806604E+03  0.29429806605E+03  0.25500000000E-02 0. -1.
    5000001    1    1    2    0    0 -0.10498848885E+03  0.34293201469E+02 -0.12970142376E+03  0.18694936690E+03  0.77000000000E+02 0.  0.
   -5000001    1    1    2    0    0  0.10498848885E+03 -0.34293201469E+02 -0.10264316717E+03  0.16930217431E+03  0.77000000000E+02 0.  0.
<mgrwt>
<rscale>  0 0.27005768E+03</rscale>
<asrwt>0</asrwt>
<pdfrwt beam="1">  1        2 0.95313041E-02 0.27005768E+03</pdfrwt>
<pdfrwt beam="2">  1       -2 0.45276625E-01 0.27005768E+03</pdfrwt>
<totfact> 0.31696429E+03</totfact>
</mgrwt>
</event>
<event>
 4    1  0.2489209E-004  0.2602813E+03  0.7818608E-02  0.1106974E+00
         -2   -1    0    0    0  501 -0.00000000000E+00  0.00000000000E+00  0.13181815369E+04  0.13181815369E+04  0.25500000000E-02 0. -1.
          2   -1    0    0  501    0  0.00000000000E+00 -0.00000000000E+00 -0.12848447921E+02  0.12848448174E+02  0.25500000000E-02 0.  1.
    5000001    1    1    2    0    0 -0.10043907445E+03  0.29753509201E+02  0.62271338344E+03  0.63614010791E+03  0.77000000000E+02 0.  0.
   -5000001    1    1    2    0    0  0.10043907445E+03 -0.29753509201E+02  0.68261970552E+03  0.69488987714E+03  0.77000000000E+02 0.  0.
<mgrwt>
<rscale>  0 0.26028129E+03</rscale>
<asrwt>0</asrwt>
<pdfrwt beam="1">  1        2 0.19766845E-02 0.26028129E+03</pdfrwt>
<pdfrwt beam="2">  1       -2 0.20279714E+00 0.26028129E+03</pdfrwt>
<totfact> 0.76969289E+02</totfact>
</mgrwt>
</event>
<event>
 4    1  0.2489209E-004  0.2290160E+03  0.7818608E-02  0.1127334E+00
         -2   -1    0    0    0  501 -0.00000000000E+00  0.00000000000E+00  0.45210201725E+01  0.45210208916E+01  0.25500000000E-02 0. -1.
          2   -1    0    0  501    0  0.00000000000E+00 -0.00000000000E+00 -0.29002484370E+04  0.29002484370E+04  0.25500000000E-02 0.  1.
    5000001    1    1    2    0    0 -0.70489529595E+02  0.34186885156E+02 -0.10377337202E+04  0.10435314039E+04  0.77000000000E+02 0.  0.
   -5000001    1    1    2    0    0  0.70489529595E+02 -0.34186885156E+02 -0.18579936966E+04  0.18612380540E+04  0.77000000000E+02 0.  0.
<mgrwt>
<rscale>  0 0.22901601E+03</rscale>
<asrwt>0</asrwt>
<pdfrwt beam="1">  1        2 0.44619058E+00 0.22901601E+03</pdfrwt>
<pdfrwt beam="2">  1       -2 0.69554394E-03 0.22901601E+03</pdfrwt>
<totfact> 0.86073719E+03</totfact>
</mgrwt>
</event>
<event>
 4    1  0.2489209E-004  0.2716839E+03  0.7818608E-02  0.1100320E+00
         -2   -1    0    0    0  501 -0.00000000000E+00  0.00000000000E+00  0.24966891440E+03  0.24966891441E+03  0.25500000000E-02 0. -1.
          2   -1    0    0  501    0  0.00000000000E+00 -0.00000000000E+00 -0.73910021539E+02  0.73910021583E+02  0.25500000000E-02 0.  1.
    5000001    1    1    2    0    0 -0.98886597434E+02  0.49031274745E+02  0.65872776263E+02  0.14983606945E+03  0.77000000000E+02 0.  0.
   -5000001    1    1    2    0    0  0.98886597434E+02 -0.49031274745E+02  0.10988611660E+03  0.17374286655E+03  0.77000000000E+02 0.  0.
<mgrwt>
<rscale>  0 0.27168390E+03</rscale>
<asrwt>0</asrwt>
<pdfrwt beam="1">  1        2 0.11370773E-01 0.27168390E+03</pdfrwt>
<pdfrwt beam="2">  1       -2 0.38410602E-01 0.27168390E+03</pdfrwt>
<totfact> 0.34979478E+03</totfact>
</mgrwt>
</event>
<event>
 4    1  0.2489209E-004  0.1831321E+03  0.7818608E-02  0.1164806E+00
         -2   -1    0    0    0  501 -0.00000000000E+00  0.00000000000E+00  0.63445976769E+01  0.63445981894E+01  0.25500000000E-02 0. -1.
          2   -1    0    0  501    0  0.00000000000E+00 -0.00000000000E+00 -0.13214926211E+04  0.13214926211E+04  0.25500000000E-02 0.  1.
    5000001    1    1    2    0    0 -0.18573220898E+02  0.43379384255E+02 -0.54794583746E+03  0.55533807388E+03  0.77000000000E+02 0.  0.
   -5000001    1    1    2    0    0  0.18573220898E+02 -0.43379384255E+02 -0.76720218595E+03  0.77249914540E+03  0.77000000000E+02 0.  0.
<mgrwt>
<rscale>  0 0.18313208E+03</rscale>
<asrwt>0</asrwt>
<pdfrwt beam="1">  1        2 0.20330634E+00 0.18313208E+03</pdfrwt>
<pdfrwt beam="2">  1       -2 0.97609304E-03 0.18313208E+03</pdfrwt>
<totfact> 0.36701647E+04</totfact>
</mgrwt>
</event>
<event>
 4    1  0.2489209E-004  0.2342789E+03  0.7818608E-02  0.1123664E+00
          2   -1    0    0  501    0  0.00000000000E+00  0.00000000000E+00  0.27885626954E+02  0.27885627070E+02  0.25500000000E-02 0.  1.
         -2   -1    0    0    0  501 -0.00000000000E+00 -0.00000000000E+00 -0.49206878676E+03  0.49206878677E+03  0.25500000000E-02 0. -1.
    5000001    1    1    2    0    0  0.33899752928E+02  0.64620934147E+02 -0.12184414164E+03  0.16155510896E+03  0.77000000000E+02 0.  0.
   -5000001    1    1    2    0    0 -0.33899752928E+02 -0.64620934147E+02 -0.34233901817E+03  0.35839930488E+03  0.77000000000E+02 0.  0.
<mgrwt>
<rscale>  0 0.23427887E+03</rscale>
<asrwt>0</asrwt>
<pdfrwt beam="1">  1        2 0.42900969E-02 0.23427887E+03</pdfrwt>
<pdfrwt beam="2">  1       -2 0.75702883E-01 0.23427887E+03</pdfrwt>
<totfact> 0.30700004E+03</totfact>
</mgrwt>
</event>
<event>
 4    1  0.2489209E-004  0.1994871E+03  0.7818608E-02  0.1150173E+00
         -2   -1    0    0    0  501 -0.00000000000E+00  0.00000000000E+00  0.79490839876E+01  0.79490843966E+01  0.25500000000E-02 0. -1.
          2   -1    0    0  501    0  0.00000000000E+00 -0.00000000000E+00 -0.12515618887E+04  0.12515618887E+04  0.25500000000E-02 0.  1.
    5000001    1    1    2    0    0 -0.37418049469E+02 -0.50417952765E+02 -0.56615565010E+03  0.57480718552E+03  0.77000000000E+02 0.  0.
   -5000001    1    1    2    0    0  0.37418049469E+02  0.50417952765E+02 -0.67745715459E+03  0.68470378755E+03  0.77000000000E+02 0.  0.
<mgrwt>
<rscale>  0 0.19948705E+03</rscale>
<asrwt>0</asrwt>
<pdfrwt beam="1">  1        2 0.19254783E+00 0.19948705E+03</pdfrwt>
<pdfrwt beam="2">  1       -2 0.12229370E-02 0.19948705E+03</pdfrwt>
<totfact> 0.29117647E+04</totfact>
</mgrwt>
</event>
<event>
 4    1  0.2489209E-004  0.1724209E+03  0.7818608E-02  0.1175346E+00
          2   -1    0    0  501    0  0.00000000000E+00  0.00000000000E+00  0.17264419968E+04  0.17264419968E+04  0.25500000000E-02 0.  1.
         -2   -1    0    0    0  501 -0.00000000000E+00 -0.00000000000E+00 -0.43049472665E+01  0.43049480218E+01  0.25500000000E-02 0. -1.
    5000001    1    1    2    0    0  0.96081483439E+01 -0.30543938963E+02  0.64160885272E+03  0.64700553986E+03  0.77000000000E+02 0.  0.
   -5000001    1    1    2    0    0 -0.96081483439E+01  0.30543938963E+02  0.10805281968E+04  0.10837414050E+04  0.77000000000E+02 0.  0.
<mgrwt>
<rscale>  0 0.17242091E+03</rscale>
<asrwt>0</asrwt>
<pdfrwt beam="1">  1        2 0.26560644E+00 0.17242091E+03</pdfrwt>
<pdfrwt beam="2">  1       -2 0.66229970E-03 0.17242091E+03</pdfrwt>
<totfact> 0.39005415E+04</totfact>
</mgrwt>
</event>
<event>
 4    1  0.2489209E-004  0.2025243E+03  0.7818608E-02  0.1147627E+00
          2   -1    0    0  501    0  0.00000000000E+00  0.00000000000E+00  0.13275052438E+04  0.13275052438E+04  0.25500000000E-02 0.  1.
         -2   -1    0    0    0  501 -0.00000000000E+00 -0.00000000000E+00 -0.77242835808E+01  0.77242840017E+01  0.25500000000E-02 0. -1.
    5000001    1    1    2    0    0 -0.38681543448E+01 -0.47599638893E+02  0.95798579869E+03  0.96226112814E+03  0.77000000000E+02 0.  0.
   -5000001    1    1    2    0    0  0.38681543448E+01  0.47599638893E+02  0.36179516153E+03  0.37296839966E+03  0.77000000000E+02 0.  0.
<mgrwt>
<rscale>  0 0.20252434E+03</rscale>
<asrwt>0</asrwt>
<pdfrwt beam="1">  1        2 0.20423134E+00 0.20252434E+03</pdfrwt>
<pdfrwt beam="2">  1       -2 0.11883527E-02 0.20252434E+03</pdfrwt>
<totfact> 0.27597277E+04</totfact>
</mgrwt>
</event>
<event>
 4    1  0.2489209E-004  0.4054813E+03  0.7818608E-02  0.1041898E+00
         -2   -1    0    0    0  501 -0.00000000000E+00  0.00000000000E+00  0.29362286464E+02  0.29362286575E+02  0.25500000000E-02 0. -1.
          2   -1    0    0  501    0  0.00000000000E+00 -0.00000000000E+00 -0.13998828757E+04  0.13998828757E+04  0.25500000000E-02 0.  1.
    5000001    1    1    2    0    0  0.16928022557E+02 -0.66977041012E+02 -0.70665289029E+02  0.12527994669E+03  0.77000000000E+02 0.  0.
   -5000001    1    1    2    0    0 -0.16928022557E+02  0.66977041012E+02 -0.12998553002E+04  0.13039652155E+04  0.77000000000E+02 0.  0.
<mgrwt>
<rscale>  0 0.40548126E+03</rscale>
<asrwt>0</asrwt>
<pdfrwt beam="1">  1        2 0.21536654E+00 0.40548126E+03</pdfrwt>
<pdfrwt beam="2">  1       -2 0.45172759E-02 0.40548126E+03</pdfrwt>
<totfact> 0.35389437E+03</totfact>
</mgrwt>
</event>
<event>
 4    1  0.2489209E-004  0.1996246E+03  0.7818608E-02  0.1150056E+00
         -2   -1    0    0    0  501 -0.00000000000E+00  0.00000000000E+00  0.30071298948E+01  0.30071309759E+01  0.25500000000E-02 0. -1.
          2   -1    0    0  501    0  0.00000000000E+00 -0.00000000000E+00 -0.33129588310E+04  0.33129588310E+04  0.25500000000E-02 0.  1.
    5000001    1    1    2    0    0  0.50100910312E+02  0.38656704165E+02 -0.15654344518E+04  0.15686039860E+04  0.77000000000E+02 0.  0.
   -5000001    1    1    2    0    0 -0.50100910312E+02 -0.38656704165E+02 -0.17445172493E+04  0.17473619760E+04  0.77000000000E+02 0.  0.
<mgrwt>
<rscale>  0 0.19962464E+03</rscale>
<asrwt>0</asrwt>
<pdfrwt beam="1">  1        2 0.50968305E+00 0.19962464E+03</pdfrwt>
<pdfrwt beam="2">  1       -2 0.46263810E-03 0.19962464E+03</pdfrwt>
<totfact> 0.87232606E+03</totfact>
</mgrwt>
</event>
<event>
 4    1  0.2489209E-004  0.2805816E+03  0.7818608E-02  0.1095372E+00
          2   -1    0    0  501    0  0.00000000000E+00  0.00000000000E+00  0.13762734135E+04  0.13762734136E+04  0.25500000000E-02 0.  1.
         -2   -1    0    0    0  501 -0.00000000000E+00 -0.00000000000E+00 -0.14300585243E+02  0.14300585471E+02  0.25500000000E-02 0. -1.
    5000001    1    1    2    0    0  0.84022254437E+02  0.80721620663E+02  0.61508856542E+03  0.63074453037E+03  0.77000000000E+02 0.  0.
   -5000001    1    1    2    0    0 -0.84022254437E+02 -0.80721620663E+02  0.74688426288E+03  0.75982946865E+03  0.77000000000E+02 0.  0.
<mgrwt>
<rscale>  0 0.28058165E+03</rscale>
<asrwt>0</asrwt>
<pdfrwt beam="1">  1        2 0.21173427E+00 0.28058165E+03</pdfrwt>
<pdfrwt beam="2">  1       -2 0.22000911E-02 0.28058165E+03</pdfrwt>
<totfact> 0.10695078E+04</totfact>
</mgrwt>
</event>
<event>
 4    1  0.2489209E-004  0.4002525E+03  0.7818608E-02  0.1043692E+00
          2   -1    0    0  501    0  0.00000000000E+00  0.00000000000E+00  0.11462822313E+04  0.11462822313E+04  0.25500000000E-02 0.  1.
         -2   -1    0    0    0  501 -0.00000000000E+00 -0.00000000000E+00 -0.34939482490E+02  0.34939482583E+02  0.25500000000E-02 0. -1.
    5000001    1    1    2    0    0  0.30894207848E+02  0.95847035550E+02  0.98661442397E+02  0.16063681557E+03  0.77000000000E+02 0.  0.
   -5000001    1    1    2    0    0 -0.30894207848E+02 -0.95847035550E+02  0.10126813064E+04  0.10205848983E+04  0.77000000000E+02 0.  0.
<mgrwt>
<rscale>  0 0.40025246E+03</rscale>
<asrwt>0</asrwt>
<pdfrwt beam="1">  1        2 0.17635110E+00 0.40025246E+03</pdfrwt>
<pdfrwt beam="2">  1       -2 0.53753052E-02 0.40025246E+03</pdfrwt>
<totfact> 0.37746248E+03</totfact>
</mgrwt>
</event>
<event>
 4    1  0.2489209E-004  0.3375333E+03  0.7818608E-02  0.1067851E+00
         -2   -1    0    0    0  501 -0.00000000000E+00  0.00000000000E+00  0.15091578583E+02  0.15091578798E+02  0.25500000000E-02 0. -1.
          2   -1    0    0  501    0  0.00000000000E+00 -0.00000000000E+00 -0.18872892665E+04  0.18872892665E+04  0.25500000000E-02 0.  1.
    5000001    1    1    2    0    0 -0.94603187796E+02 -0.93454837936E+02 -0.54279540186E+03  0.56412712942E+03  0.77000000000E+02 0.  0.
   -5000001    1    1    2    0    0  0.94603187796E+02  0.93454837936E+02 -0.13294022861E+04  0.13382537159E+04  0.77000000000E+02 0.  0.
<mgrwt>
<rscale>  0 0.33753325E+03</rscale>
<asrwt>0</asrwt>
<pdfrwt beam="1">  1        2 0.29035201E+00 0.33753325E+03</pdfrwt>
<pdfrwt beam="2">  1       -2 0.23217828E-02 0.33753325E+03</pdfrwt>
<totfact> 0.52822553E+03</totfact>
</mgrwt>
</event>
<event>
 4    1  0.2489209E-004  0.1963748E+03  0.7818608E-02  0.1152834E+00
         -2   -1    0    0    0  501 -0.00000000000E+00  0.00000000000E+00  0.23233780222E+02  0.23233780362E+02  0.25500000000E-02 0. -1.
          2   -1    0    0  501    0  0.00000000000E+00 -0.00000000000E+00 -0.41494589302E+03  0.41494589302E+03  0.25500000000E-02 0.  1.
    5000001    1    1    2    0    0  0.20982453015E+02  0.35980899524E+02 -0.96645937617E+02  0.13040063544E+03  0.77000000000E+02 0.  0.
   -5000001    1    1    2    0    0 -0.20982453015E+02 -0.35980899524E+02 -0.29506617518E+03  0.30777903795E+03  0.77000000000E+02 0.  0.
<mgrwt>
<rscale>  0 0.19637476E+03</rscale>
<asrwt>0</asrwt>
<pdfrwt beam="1">  1        2 0.63837824E-01 0.19637476E+03</pdfrwt>
<pdfrwt beam="2">  1       -2 0.35744280E-02 0.19637476E+03</pdfrwt>
<totfact> 0.24134260E+04</totfact>
</mgrwt>
</event>
<event>
 4    1  0.2489209E-004  0.3117303E+03  0.7818608E-02  0.1079519E+00
          2   -1    0    0  501    0  0.00000000000E+00  0.00000000000E+00  0.30785262327E+03  0.30785262328E+03  0.25500000000E-02 0.  1.
         -2   -1    0    0    0  501 -0.00000000000E+00 -0.00000000000E+00 -0.78914229268E+02  0.78914229310E+02  0.25500000000E-02 0. -1.
    5000001    1    1    2    0    0  0.54709388494E+02 -0.10503796793E+03  0.19619477684E+03  0.24175914121E+03  0.77000000000E+02 0.  0.
   -5000001    1    1    2    0    0 -0.54709388494E+02  0.10503796793E+03  0.32743617164E+02  0.14500771139E+03  0.77000000000E+02 0.  0.
<mgrwt>
<rscale>  0 0.31173035E+03</rscale>
<asrwt>0</asrwt>
<pdfrwt beam="1">  1        2 0.47361942E-01 0.31173035E+03</pdfrwt>
<pdfrwt beam="2">  1       -2 0.12140651E-01 0.31173035E+03</pdfrwt>
<totfact> 0.51519074E+03</totfact>
</mgrwt>
</event>
<event>
 4    1  0.2489209E-004  0.3121072E+03  0.7818608E-02  0.1079340E+00
         -2   -1    0    0    0  501 -0.00000000000E+00  0.00000000000E+00  0.14661389526E+03  0.14661389528E+03  0.25500000000E-02 0. -1.
          2   -1    0    0  501    0  0.00000000000E+00 -0.00000000000E+00 -0.16610105055E+03  0.16610105057E+03  0.25500000000E-02 0.  1.
    5000001    1    1    2    0    0  0.12864032687E+03  0.41434525632E+02  0.28733391531E+01  0.15557123671E+03  0.77000000000E+02 0.  0.
   -5000001    1    1    2    0    0 -0.12864032687E+03 -0.41434525632E+02 -0.22360494442E+02  0.15714370915E+03  0.77000000000E+02 0.  0.
<mgrwt>
<rscale>  0 0.31210717E+03</rscale>
<asrwt>0</asrwt>
<pdfrwt beam="1">  1        2 0.25554008E-01 0.31210717E+03</pdfrwt>
<pdfrwt beam="2">  1       -2 0.22555984E-01 0.31210717E+03</pdfrwt>
<totfact> 0.35774273E+03</totfact>
</mgrwt>
</event>
<event>
 4    1  0.2489209E-004  0.2438572E+03  0.7818608E-02  0.1117250E+00
         -2   -1    0    0    0  501 -0.00000000000E+00  0.00000000000E+00  0.13025018227E+02  0.13025018477E+02  0.25500000000E-02 0. -1.
          2   -1    0    0  501    0  0.00000000000E+00 -0.00000000000E+00 -0.11413864046E+04  0.11413864046E+04  0.25500000000E-02 0.  1.
    5000001    1    1    2    0    0 -0.68656213605E+02  0.51425602624E+02 -0.75231104821E+03  0.76109078402E+03  0.77000000000E+02 0.  0.
   -5000001    1    1    2    0    0  0.68656213605E+02 -0.51425602624E+02 -0.37605033815E+03  0.39332063904E+03  0.77000000000E+02 0.  0.
<mgrwt>
<rscale>  0 0.24385716E+03</rscale>
<asrwt>0</asrwt>
<pdfrwt beam="1">  1        2 0.17559783E+00 0.24385716E+03</pdfrwt>
<pdfrwt beam="2">  1       -2 0.20038499E-02 0.24385716E+03</pdfrwt>
<totfact> 0.16532971E+04</totfact>
</mgrwt>
</event>
<event>
 4    1  0.2489209E-004  0.2025557E+03  0.7818608E-02  0.1147601E+00
          2   -1    0    0  501    0  0.00000000000E+00  0.00000000000E+00  0.18662524479E+04  0.18662524479E+04  0.25500000000E-02 0.  1.
         -2   -1    0    0    0  501 -0.00000000000E+00 -0.00000000000E+00 -0.54961471824E+01  0.54961477739E+01  0.25500000000E-02 0. -1.
    5000001    1    1    2    0    0  0.60854379839E+02  0.24771286885E+02  0.96147746241E+03  0.96679097168E+03  0.77000000000E+02 0.  0.
   -5000001    1    1    2    0    0 -0.60854379839E+02 -0.24771286885E+02  0.89927883828E+03  0.90495762397E+03  0.77000000000E+02 0.  0.
<mgrwt>
<rscale>  0 0.20255566E+03</rscale>
<asrwt>0</asrwt>
<pdfrwt beam="1">  1        2 0.28711564E+00 0.20255566E+03</pdfrwt>
<pdfrwt beam="2">  1       -2 0.84556151E-03 0.20255566E+03</pdfrwt>
<totfact> 0.23460766E+04</totfact>
</mgrwt>
</event>
<event>
 4    1  0.2489209E-004  0.3972178E+03  0.7818608E-02  0.1044747E+00
         -2   -1    0    0    0  501 -0.00000000000E+00  0.00000000000E+00  0.84180617529E+02  0.84180617568E+02  0.25500000000E-02 0. -1.
          2   -1    0    0  501    0  0.00000000000E+00 -0.00000000000E+00 -0.46858177133E+03  0.46858177134E+03  0.25500000000E-02 0.  1.
    5000001    1    1    2    0    0 -0.17485763337E+03 -0.17958598024E+02 -0.12098731454E+03  0.22685817920E+03  0.77000000000E+02 0.  0.
   -5000001    1    1    2    0    0  0.17485763337E+03  0.17958598024E+02 -0.26341383926E+03  0.32590420971E+03  0.77000000000E+02 0.  0.
<mgrwt>
<rscale>  0 0.39721784E+03</rscale>
<asrwt>0</asrwt>
<pdfrwt beam="1">  1        2 0.72089502E-01 0.39721784E+03</pdfrwt>
<pdfrwt beam="2">  1       -2 0.12950865E-01 0.39721784E+03</pdfrwt>
<totfact> 0.29402829E+03</totfact>
</mgrwt>
</event>
<event>
 4    1  0.2489209E-004  0.2867919E+03  0.7818608E-02  0.1092036E+00
         -2   -1    0    0    0  501 -0.00000000000E+00  0.00000000000E+00  0.11540156133E+02  0.11540156414E+02  0.25500000000E-02 0. -1.
          2   -1    0    0  501    0  0.00000000000E+00 -0.00000000000E+00 -0.17818132439E+04  0.17818132439E+04  0.25500000000E-02 0.  1.
    5000001    1    1    2    0    0  0.54245253448E+02 -0.10419505352E+03 -0.10657483635E+04  0.10749640603E+04  0.77000000000E+02 0.  0.
   -5000001    1    1    2    0    0 -0.54245253448E+02  0.10419505352E+03 -0.70452472425E+03  0.71838933997E+03  0.77000000000E+02 0.  0.
<mgrwt>
<rscale>  0 0.28679193E+03</rscale>
<asrwt>0</asrwt>
<pdfrwt beam="1">  1        2 0.27412490E+00 0.28679193E+03</pdfrwt>
<pdfrwt beam="2">  1       -2 0.17754101E-02 0.28679193E+03</pdfrwt>
<totfact> 0.89190404E+03</totfact>
</mgrwt>
</event>
<event>
 4    1  0.2489209E-004  0.1702230E+03  0.7818608E-02  0.1177616E+00
         -2   -1    0    0    0  501 -0.00000000000E+00  0.00000000000E+00  0.10278352196E+02  0.10278352512E+02  0.25500000000E-02 0. -1.
          2   -1    0    0  501    0  0.00000000000E+00 -0.00000000000E+00 -0.70477872065E+03  0.70477872065E+03  0.25500000000E-02 0.  1.
    5000001    1    1    2    0    0  0.14119366151E+02  0.32954016176E+02 -0.37012007979E+03  0.37974096058E+03  0.77000000000E+02 0.  0.
   -5000001    1    1    2    0    0 -0.14119366151E+02 -0.32954016176E+02 -0.32438028866E+03  0.33531611258E+03  0.77000000000E+02 0.  0.
<mgrwt>
<rscale>  0 0.17022296E+03</rscale>
<asrwt>0</asrwt>
<pdfrwt beam="1">  1        2 0.10842746E+00 0.17022296E+03</pdfrwt>
<pdfrwt beam="2">  1       -2 0.15812855E-02 0.17022296E+03</pdfrwt>
<totfact> 0.43412994E+04</totfact>
</mgrwt>
</event>
<event>
 4    1  0.2489209E-004  0.1680471E+03  0.7818608E-02  0.1179900E+00
          2   -1    0    0  501    0  0.00000000000E+00  0.00000000000E+00  0.26994176462E+04  0.26994176462E+04  0.25500000000E-02 0.  1.
         -2   -1    0    0    0  501 -0.00000000000E+00 -0.00000000000E+00 -0.26153627856E+01  0.26153640288E+01  0.25500000000E-02 0. -1.
    5000001    1    1    2    0    0  0.17638121604E+02  0.25804828939E+02  0.11488880269E+04  0.11518896174E+04  0.77000000000E+02 0.  0.
   -5000001    1    1    2    0    0 -0.17638121604E+02 -0.25804828939E+02  0.15479142565E+04  0.15501433927E+04  0.77000000000E+02 0.  0.
<mgrwt>
<rscale>  0 0.16804711E+03</rscale>
<asrwt>0</asrwt>
<pdfrwt beam="1">  1        2 0.41529741E+00 0.16804711E+03</pdfrwt>
<pdfrwt beam="2">  1       -2 0.40236129E-03 0.16804711E+03</pdfrwt>
<totfact> 0.24318569E+04</totfact>
</mgrwt>
</event>
<event>
 4    1  0.2489209E-004  0.2023151E+03  0.7818608E-02  0.1147800E+00
          2   -1    0    0  501    0  0.00000000000E+00  0.00000000000E+00  0.29940679041E+04  0.29940679041E+04  0.25500000000E-02 0.  1.
         -2   -1    0    0    0  501 -0.00000000000E+00 -0.00000000000E+00 -0.34177075862E+01  0.34177085375E+01  0.25500000000E-02 0. -1.
    5000001    1    1    2    0    0 -0.31871694816E+02  0.42460856076E+02  0.20662903728E+04  0.20684060612E+04  0.77000000000E+02 0.  0.
   -5000001    1    1    2    0    0  0.31871694816E+02 -0.42460856076E+02  0.92435982370E+03  0.92907955144E+03  0.77000000000E+02 0.  0.
<mgrwt>
<rscale>  0 0.20231510E+03</rscale>
<asrwt>0</asrwt>
<pdfrwt beam="1">  1        2 0.46062744E+00 0.20231510E+03</pdfrwt>
<pdfrwt beam="2">  1       -2 0.52579940E-03 0.20231510E+03</pdfrwt>
<totfact> 0.11333476E+04</totfact>
</mgrwt>
</event>
<event>
 4    1  0.2489209E-004  0.2262480E+03  0.7818608E-02  0.1129309E+00
          2   -1    0    0  501    0  0.00000000000E+00  0.00000000000E+00  0.25255600776E+04  0.25255600776E+04  0.25500000000E-02 0.  1.
         -2   -1    0    0    0  501 -0.00000000000E+00 -0.00000000000E+00 -0.50670099094E+01  0.50670105510E+01  0.25500000000E-02 0. -1.
    5000001    1    1    2    0    0 -0.73797126599E+02  0.18740798180E+02  0.89423170662E+03  0.90076444120E+03  0.77000000000E+02 0.  0.
   -5000001    1    1    2    0    0  0.73797126599E+02 -0.18740798180E+02  0.16262613611E+04  0.16298626470E+04  0.77000000000E+02 0.  0.
<mgrwt>
<rscale>  0 0.22624799E+03</rscale>
<asrwt>0</asrwt>
<pdfrwt beam="1">  1        2 0.38854746E+00 0.22624799E+03</pdfrwt>
<pdfrwt beam="2">  1       -2 0.77954053E-03 0.22624799E+03</pdfrwt>
<totfact> 0.11853609E+04</totfact>
</mgrwt>
</event>
<event>
 4    1  0.2489209E-004  0.2136565E+03  0.7818608E-02  0.1138703E+00
         -2   -1    0    0    0  501 -0.00000000000E+00  0.00000000000E+00  0.74091650240E+01  0.74091654628E+01  0.25500000000E-02 0. -1.
          2   -1    0    0  501    0  0.00000000000E+00 -0.00000000000E+00 -0.15402919553E+04  0.15402919553E+04  0.25500000000E-02 0.  1.
    5000001    1    1    2    0    0  0.55960093281E+02 -0.48309541579E+02 -0.79711796573E+03  0.80423342080E+03  0.77000000000E+02 0.  0.
   -5000001    1    1    2    0    0 -0.55960093281E+02  0.48309541579E+02 -0.73576482459E+03  0.74346770001E+03  0.77000000000E+02 0.  0.
<mgrwt>
<rscale>  0 0.21365652E+03</rscale>
<asrwt>0</asrwt>
<pdfrwt beam="1">  1        2 0.23696774E+00 0.21365652E+03</pdfrwt>
<pdfrwt beam="2">  1       -2 0.11398728E-02 0.21365652E+03</pdfrwt>
<totfact> 0.22612180E+04</totfact>
</mgrwt>
</event>
<event>
 4    1  0.2489209E-004  0.2468208E+03  0.7818608E-02  0.1115331E+00
          2   -1    0    0  501    0  0.00000000000E+00  0.00000000000E+00  0.95829673405E+03  0.95829673405E+03  0.25500000000E-02 0.  1.
         -2   -1    0    0    0  501 -0.00000000000E+00 -0.00000000000E+00 -0.15892909313E+02  0.15892909518E+02  0.25500000000E-02 0. -1.
    5000001    1    1    2    0    0  0.48321355447E+02  0.83121422545E+02  0.50100045946E+03  0.51592110314E+03  0.77000000000E+02 0.  0.
   -5000001    1    1    2    0    0 -0.48321355447E+02 -0.83121422545E+02  0.44140336527E+03  0.45826854044E+03  0.77000000000E+02 0.  0.
<mgrwt>
<rscale>  0 0.24682077E+03</rscale>
<asrwt>0</asrwt>
<pdfrwt beam="1">  1        2 0.14743028E+00 0.24682077E+03</pdfrwt>
<pdfrwt beam="2">  1       -2 0.24450627E-02 0.24682077E+03</pdfrwt>
<totfact> 0.15879155E+04</totfact>
</mgrwt>
</event>
<event>
 4    1  0.2489209E-004  0.2871946E+03  0.7818608E-02  0.1091823E+00
         -2   -1    0    0    0  501 -0.00000000000E+00  0.00000000000E+00  0.83073532079E+02  0.83073532118E+02  0.25500000000E-02 0. -1.
          2   -1    0    0  501    0  0.00000000000E+00 -0.00000000000E+00 -0.24821609442E+03  0.24821609443E+03  0.25500000000E-02 0.  1.
    5000001    1    1    2    0    0 -0.23265939419E+02  0.96898553065E+02 -0.29809539537E+01  0.12597031241E+03  0.77000000000E+02 0.  0.
   -5000001    1    1    2    0    0  0.23265939419E+02 -0.96898553065E+02 -0.16216160839E+03  0.20531931414E+03  0.77000000000E+02 0.  0.
<mgrwt>
<rscale>  0 0.28719462E+03</rscale>
<asrwt>0</asrwt>
<pdfrwt beam="1">  1        2 0.38187091E-01 0.28719462E+03</pdfrwt>
<pdfrwt beam="2">  1       -2 0.12780544E-01 0.28719462E+03</pdfrwt>
<totfact> 0.59655318E+03</totfact>
</mgrwt>
</event>
<event>
 4    1  0.2489209E-004  0.4209605E+03  0.7818608E-02  0.1036754E+00
          2   -1    0    0  501    0  0.00000000000E+00  0.00000000000E+00  0.15745506988E+04  0.15745506988E+04  0.25500000000E-02 0.  1.
         -2   -1    0    0    0  501 -0.00000000000E+00 -0.00000000000E+00 -0.28136238428E+02  0.28136238543E+02  0.25500000000E-02 0. -1.
    5000001    1    1    2    0    0 -0.18571605726E+03 -0.61104526670E+02  0.72677842851E+03  0.75654484418E+03  0.77000000000E+02 0.  0.
   -5000001    1    1    2    0    0  0.18571605726E+03  0.61104526670E+02  0.81963603182E+03  0.84614209312E+03  0.77000000000E+02 0.  0.
<mgrwt>
<rscale>  0 0.42096049E+03</rscale>
<asrwt>0</asrwt>
<pdfrwt beam="1">  1        2 0.24223862E+00 0.42096049E+03</pdfrwt>
<pdfrwt beam="2">  1       -2 0.43286512E-02 0.42096049E+03</pdfrwt>
<totfact> 0.30323407E+03</totfact>
</mgrwt>
</event>
<event>
 4    1  0.2489209E-004  0.3042844E+03  0.7818608E-02  0.1083118E+00
         -2   -1    0    0    0  501 -0.00000000000E+00  0.00000000000E+00  0.67195093921E+01  0.67195098760E+01  0.25500000000E-02 0. -1.
          2   -1    0    0  501    0  0.00000000000E+00 -0.00000000000E+00 -0.34447829663E+04  0.34447829663E+04  0.25500000000E-02 0.  1.
    5000001    1    1    2    0    0 -0.58925976492E+02 -0.10896378629E+03 -0.22099202258E+04  0.22147283766E+04  0.77000000000E+02 0.  0.
   -5000001    1    1    2    0    0  0.58925976492E+02  0.10896378629E+03 -0.12281432310E+04  0.12367740996E+04  0.77000000000E+02 0.  0.
<mgrwt>
<rscale>  0 0.30428442E+03</rscale>
<asrwt>0</asrwt>
<pdfrwt beam="1">  1        2 0.52996520E+00 0.30428442E+03</pdfrwt>
<pdfrwt beam="2">  1       -2 0.10337735E-02 0.30428442E+03</pdfrwt>
<totfact> 0.22310188E+03</totfact>
</mgrwt>
</event>
<event>
 4    1  0.2489209E-004  0.1999518E+03  0.7818608E-02  0.1149780E+00
         -2   -1    0    0    0  501 -0.00000000000E+00  0.00000000000E+00  0.56676346406E+01  0.56676352143E+01  0.25500000000E-02 0. -1.
          2   -1    0    0  501    0  0.00000000000E+00 -0.00000000000E+00 -0.17635536206E+04  0.17635536206E+04  0.25500000000E-02 0.  1.
    5000001    1    1    2    0    0  0.58288724710E+02 -0.20048538801E+02 -0.73445398325E+03  0.74104734858E+03  0.77000000000E+02 0.  0.
   -5000001    1    1    2    0    0 -0.58288724710E+02  0.20048538801E+02 -0.10234320027E+04  0.10281739072E+04  0.77000000000E+02 0.  0.
<mgrwt>
<rscale>  0 0.19995178E+03</rscale>
<asrwt>0</asrwt>
<pdfrwt beam="1">  1        2 0.27131550E+00 0.19995178E+03</pdfrwt>
<pdfrwt beam="2">  1       -2 0.87194524E-03 0.19995178E+03</pdfrwt>
<totfact> 0.25362171E+04</totfact>
</mgrwt>
</event>
<event>
 4    1  0.2489209E-004  0.2692114E+03  0.7818608E-02  0.1101732E+00
         -2   -1    0    0    0  501 -0.00000000000E+00  0.00000000000E+00  0.48742136376E+02  0.48742136443E+02  0.25500000000E-02 0. -1.
          2   -1    0    0  501    0  0.00000000000E+00 -0.00000000000E+00 -0.37172549132E+03  0.37172549133E+03  0.25500000000E-02 0.  1.
    5000001    1    1    2    0    0  0.87726503242E+02 -0.19675850918E+02 -0.61403871150E+02  0.13335109251E+03  0.77000000000E+02 0.  0.
   -5000001    1    1    2    0    0 -0.87726503242E+02  0.19675850918E+02 -0.26157948379E+03  0.28711653526E+03  0.77000000000E+02 0.  0.
<mgrwt>
<rscale>  0 0.26921140E+03</rscale>
<asrwt>0</asrwt>
<pdfrwt beam="1">  1        2 0.57188535E-01 0.26921140E+03</pdfrwt>
<pdfrwt beam="2">  1       -2 0.74987905E-02 0.26921140E+03</pdfrwt>
<totfact> 0.89805475E+03</totfact>
</mgrwt>
</event>
<event>
 4    1  0.2489209E-004  0.1702248E+03  0.7818608E-02  0.1177614E+00
          2   -1    0    0  501    0  0.00000000000E+00  0.00000000000E+00  0.12763793856E+04  0.12763793856E+04  0.25500000000E-02 0.  1.
         -2   -1    0    0    0  501 -0.00000000000E+00 -0.00000000000E+00 -0.56755245353E+01  0.56755251081E+01  0.25500000000E-02 0. -1.
    5000001    1    1    2    0    0 -0.63369407526E+01  0.34028548794E+02  0.55387754783E+03  0.56027443002E+03  0.77000000000E+02 0.  0.
   -5000001    1    1    2    0    0  0.63369407526E+01 -0.34028548794E+02  0.71682631323E+03  0.72178048068E+03  0.77000000000E+02 0.  0.
<mgrwt>
<rscale>  0 0.17022483E+03</rscale>
<asrwt>0</asrwt>
<pdfrwt beam="1">  1        2 0.19636617E+00 0.17022483E+03</pdfrwt>
<pdfrwt beam="2">  1       -2 0.87315715E-03 0.17022483E+03</pdfrwt>
<totfact> 0.45340847E+04</totfact>
</mgrwt>
</event>
<event>
 4    1  0.2489209E-004  0.2314547E+03  0.7818608E-02  0.1125620E+00
          2   -1    0    0  501    0  0.00000000000E+00  0.00000000000E+00  0.20163544603E+04  0.20163544603E+04  0.25500000000E-02 0.  1.
         -2   -1    0    0    0  501 -0.00000000000E+00 -0.00000000000E+00 -0.66420979106E+01  0.66420984001E+01  0.25500000000E-02 0. -1.
    5000001    1    1    2    0    0  0.60879553635E+02  0.15489795001E+02  0.48647352184E+03  0.49651962826E+03  0.77000000000E+02 0.  0.
   -5000001    1    1    2    0    0 -0.60879553635E+02 -0.15489795001E+02  0.15232388405E+04  0.15264769304E+04  0.77000000000E+02 0.  0.
<mgrwt>
<rscale>  0 0.23145474E+03</rscale>
<asrwt>0</asrwt>
<pdfrwt beam="1">  1        2 0.31020793E+00 0.23145474E+03</pdfrwt>
<pdfrwt beam="2">  1       -2 0.10218627E-02 0.23145474E+03</pdfrwt>
<totfact> 0.14977926E+04</totfact>
</mgrwt>
</event>
<event>
 4    1  0.2489209E-004  0.4051723E+03  0.7818608E-02  0.1042003E+00
         -2   -1    0    0    0  501 -0.00000000000E+00  0.00000000000E+00  0.11337478278E+03  0.11337478281E+03  0.25500000000E-02 0. -1.
          2   -1    0    0  501    0  0.00000000000E+00 -0.00000000000E+00 -0.36199539324E+03  0.36199539325E+03  0.25500000000E-02 0.  1.
    5000001    1    1    2    0    0  0.84878794639E+02  0.16467719252E+03 -0.91351220475E+02  0.22044734745E+03  0.77000000000E+02 0.  0.
   -5000001    1    1    2    0    0 -0.84878794639E+02 -0.16467719252E+03 -0.15726938999E+03  0.25492282860E+03  0.77000000000E+02 0.  0.
<mgrwt>
<rscale>  0 0.40517230E+03</rscale>
<asrwt>0</asrwt>
<pdfrwt beam="1">  1        2 0.55691598E-01 0.40517230E+03</pdfrwt>
<pdfrwt beam="2">  1       -2 0.17442274E-01 0.40517230E+03</pdfrwt>
<totfact> 0.23813064E+03</totfact>
</mgrwt>
</event>
<event>
 4    1  0.2489209E-004  0.2054851E+03  0.7818608E-02  0.1145192E+00
         -2   -1    0    0    0  501 -0.00000000000E+00  0.00000000000E+00  0.32385343953E+01  0.32385353992E+01  0.25500000000E-02 0. -1.
          2   -1    0    0  501    0  0.00000000000E+00 -0.00000000000E+00 -0.32595082623E+04  0.32595082623E+04  0.25500000000E-02 0.  1.
    5000001    1    1    2    0    0 -0.39286842409E+02  0.54746299115E+02 -0.17757412549E+04  0.17786867677E+04  0.77000000000E+02 0.  0.
   -5000001    1    1    2    0    0  0.39286842409E+02 -0.54746299115E+02 -0.14805284730E+04  0.14840600300E+04  0.77000000000E+02 0.  0.
<mgrwt>
<rscale>  0 0.20548510E+03</rscale>
<asrwt>0</asrwt>
<pdfrwt beam="1">  1        2 0.50146019E+00 0.20548510E+03</pdfrwt>
<pdfrwt beam="2">  1       -2 0.49823875E-03 0.20548510E+03</pdfrwt>
<totfact> 0.84716111E+03</totfact>
</mgrwt>
</event>
<event>
 4    1  0.2489209E-004  0.2206379E+03  0.7818608E-02  0.1133408E+00
         -2   -1    0    0    0  501 -0.00000000000E+00  0.00000000000E+00  0.18427982918E+04  0.18427982918E+04  0.25500000000E-02 0.  1.
          2   -1    0    0  501    0  0.00000000000E+00 -0.00000000000E+00 -0.66042333435E+01  0.66042338358E+01  0.25500000000E-02 0. -1.
    5000001    1    1    2    0    0  0.29953205263E+02  0.72133999512E+02  0.81864949111E+03  0.82596398087E+03  0.77000000000E+02 0.  0.
   -5000001    1    1    2    0    0 -0.29953205263E+02 -0.72133999512E+02  0.10175445674E+04  0.10234385448E+04  0.77000000000E+02 0.  0.
<mgrwt>
<rscale>  0 0.22063790E+03</rscale>
<asrwt>0</asrwt>
<pdfrwt beam="1">  1        2 0.10160357E-02 0.22063790E+03</pdfrwt>
<pdfrwt beam="2">  1       -2 0.28350748E+00 0.22063790E+03</pdfrwt>
<totfact> 0.64214259E+02</totfact>
</mgrwt>
</event>
<event>
 4    1  0.2489209E-004  0.2453081E+03  0.7818608E-02  0.1116306E+00
          2   -1    0    0  501    0  0.00000000000E+00  0.00000000000E+00  0.44899679527E+03  0.44899679528E+03  0.25500000000E-02 0.  1.
         -2   -1    0    0    0  501 -0.00000000000E+00 -0.00000000000E+00 -0.33505855943E+02  0.33505856040E+02  0.25500000000E-02 0. -1.
    5000001    1    1    2    0    0  0.43999559134E+02 -0.59886059691E+02  0.89849366077E+02  0.13972905902E+03  0.77000000000E+02 0.  0.
   -5000001    1    1    2    0    0 -0.43999559134E+02  0.59886059691E+02  0.32564157325E+03  0.34277359230E+03  0.77000000000E+02 0.  0.
<mgrwt>
<rscale>  0 0.24530815E+03</rscale>
<asrwt>0</asrwt>
<pdfrwt beam="1">  1        2 0.69076428E-01 0.24530815E+03</pdfrwt>
<pdfrwt beam="2">  1       -2 0.51547472E-02 0.24530815E+03</pdfrwt>
<totfact> 0.12950974E+04</totfact>
</mgrwt>
</event>
<event>
 4    1  0.2489209E-004  0.2183316E+03  0.7818608E-02  0.1135133E+00
          2   -1    0    0  501    0  0.00000000000E+00  0.00000000000E+00  0.11464485162E+04  0.11464485162E+04  0.25500000000E-02 0.  1.
         -2   -1    0    0    0  501 -0.00000000000E+00 -0.00000000000E+00 -0.10394860765E+02  0.10394861077E+02  0.25500000000E-02 0. -1.
    5000001    1    1    2    0    0 -0.51909209361E+02  0.50288725713E+02  0.42150930730E+03  0.43453724592E+03  0.77000000000E+02 0.  0.
   -5000001    1    1    2    0    0  0.51909209361E+02 -0.50288725713E+02  0.71454434818E+03  0.72230613141E+03  0.77000000000E+02 0.  0.
<mgrwt>
<rscale>  0 0.21833161E+03</rscale>
<asrwt>0</asrwt>
<pdfrwt beam="1">  1        2 0.17637661E+00 0.21833161E+03</pdfrwt>
<pdfrwt beam="2">  1       -2 0.15992102E-02 0.21833161E+03</pdfrwt>
<totfact> 0.22721136E+04</totfact>
</mgrwt>
</event>
<event>
 4    1  0.2489209E-004  0.1849391E+03  0.7818608E-02  0.1163107E+00
          2   -1    0    0  501    0  0.00000000000E+00  0.00000000000E+00  0.11218311342E+03  0.11218311345E+03  0.25500000000E-02 0.  1.
         -2   -1    0    0    0  501 -0.00000000000E+00 -0.00000000000E+00 -0.76220184103E+02  0.76220184146E+02  0.25500000000E-02 0. -1.
    5000001    1    1    2    0    0 -0.44487352476E+02  0.24677202077E+02  0.23880327932E+02  0.95327639721E+02  0.77000000000E+02 0.  0.
   -5000001    1    1    2    0    0  0.44487352476E+02 -0.24677202077E+02  0.12082601386E+02  0.93075657876E+02  0.77000000000E+02 0.  0.
<mgrwt>
<rscale>  0 0.18493910E+03</rscale>
<asrwt>0</asrwt>
<pdfrwt beam="1">  1        2 0.17258941E-01 0.18493910E+03</pdfrwt>
<pdfrwt beam="2">  1       -2 0.11726182E-01 0.18493910E+03</pdfrwt>
<totfact> 0.16207786E+04</totfact>
</mgrwt>
</event>
<event>
 4    1  0.2489209E-004  0.2483517E+03  0.7818608E-02  0.1114351E+00
         -2   -1    0    0    0  501 -0.00000000000E+00  0.00000000000E+00  0.11161647143E+03  0.11161647146E+03  0.25500000000E-02 0.  1.
          2   -1    0    0  501    0  0.00000000000E+00 -0.00000000000E+00 -0.13814839521E+03  0.13814839523E+03  0.25500000000E-02 0. -1.
    5000001    1    1    2    0    0  0.77745228814E+02  0.55408590682E+02 -0.32772308022E+02  0.12695454579E+03  0.77000000000E+02 0.  0.
   -5000001    1    1    2    0    0 -0.77745228814E+02 -0.55408590682E+02  0.62403842444E+01  0.12281032090E+03  0.77000000000E+02 0.  0.
<mgrwt>
<rscale>  0 0.24835166E+03</rscale>
<asrwt>0</asrwt>
<pdfrwt beam="1">  1        2 0.21253599E-01 0.24835166E+03</pdfrwt>
<pdfrwt beam="2">  1       -2 0.17171765E-01 0.24835166E+03</pdfrwt>
<totfact> 0.69612965E+03</totfact>
</mgrwt>
</event>
<event>
 4    1  0.2489209E-004  0.5573457E+03  0.7818608E-02  0.9998078E-01
          2   -1    0    0  501    0  0.00000000000E+00  0.00000000000E+00  0.41973402126E+03  0.41973402127E+03  0.25500000000E-02 0.  1.
         -2   -1    0    0    0  501 -0.00000000000E+00 -0.00000000000E+00 -0.18501849684E+03  0.18501849686E+03  0.25500000000E-02 0. -1.
    5000001    1    1    2    0    0  0.99125315361E+02 -0.21098125740E+02 -0.15163732989E+03  0.19797433892E+03  0.77000000000E+02 0.  0.
   -5000001    1    1    2    0    0 -0.99125315361E+02  0.21098125740E+02  0.38635285430E+03  0.40677817921E+03  0.77000000000E+02 0.  0.
<mgrwt>
<rscale>  0 0.55734570E+03</rscale>
<asrwt>0</asrwt>
<pdfrwt beam="1">  1        2 0.64574465E-01 0.55734570E+03</pdfrwt>
<pdfrwt beam="2">  1       -2 0.28464384E-01 0.55734570E+03</pdfrwt>
<totfact> 0.85440968E+02</totfact>
</mgrwt>
</event>
<event>
 4    1  0.2489209E-004  0.2162955E+03  0.7818608E-02  0.1136675E+00
         -2   -1    0    0    0  501 -0.00000000000E+00  0.00000000000E+00  0.81043638061E+02  0.81043638101E+02  0.25500000000E-02 0. -1.
          2   -1    0    0  501    0  0.00000000000E+00 -0.00000000000E+00 -0.14431650368E+03  0.14431650370E+03  0.25500000000E-02 0.  1.
    5000001    1    1    2    0    0  0.74130771923E+02 -0.11054343871E+02 -0.18902764425E+02  0.10910492366E+03  0.77000000000E+02 0.  0.
   -5000001    1    1    2    0    0 -0.74130771923E+02  0.11054343871E+02 -0.44370101190E+02  0.11625521814E+03  0.77000000000E+02 0.  0.
<mgrwt>
<rscale>  0 0.21629549E+03</rscale>
<asrwt>0</asrwt>
<pdfrwt beam="1">  1        2 0.22202539E-01 0.21629549E+03</pdfrwt>
<pdfrwt beam="2">  1       -2 0.12468252E-01 0.21629549E+03</pdfrwt>
<totfact> 0.11133197E+04</totfact>
</mgrwt>
</event>
<event>
 4    1  0.2489209E-004  0.1850890E+03  0.7818608E-02  0.1162967E+00
         -2   -1    0    0    0  501 -0.00000000000E+00  0.00000000000E+00  0.81913305209E+02  0.81913305249E+02  0.25500000000E-02 0. -1.
          2   -1    0    0  501    0  0.00000000000E+00 -0.00000000000E+00 -0.10455548905E+03  0.10455548908E+03  0.25500000000E-02 0.  1.
    5000001    1    1    2    0    0  0.14308712703E+01  0.43869313479E+02 -0.38145159722E+02  0.96491539877E+02  0.77000000000E+02 0.  0.
   -5000001    1    1    2    0    0 -0.14308712703E+01 -0.43869313479E+02  0.15502975882E+02  0.89977254453E+02  0.77000000000E+02 0.  0.
<mgrwt>
<rscale>  0 0.18508901E+03</rscale>
<asrwt>0</asrwt>
<pdfrwt beam="1">  1        2 0.16085460E-01 0.18508901E+03</pdfrwt>
<pdfrwt beam="2">  1       -2 0.12602047E-01 0.18508901E+03</pdfrwt>
<totfact> 0.15668991E+04</totfact>
</mgrwt>
</event>
<event>
 4    1  0.2489209E-004  0.2211645E+03  0.7818608E-02  0.1133018E+00
          2   -1    0    0  501    0  0.00000000000E+00  0.00000000000E+00  0.94717519689E+03  0.94717519689E+03  0.25500000000E-02 0.  1.
         -2   -1    0    0    0  501 -0.00000000000E+00 -0.00000000000E+00 -0.12910422440E+02  0.12910422692E+02  0.25500000000E-02 0. -1.
    5000001    1    1    2    0    0 -0.67944271139E+02  0.27499111515E+02  0.59928909672E+03  0.60864525511E+03  0.77000000000E+02 0.  0.
   -5000001    1    1    2    0    0  0.67944271139E+02 -0.27499111515E+02  0.33497567773E+03  0.35144036448E+03  0.77000000000E+02 0.  0.
<mgrwt>
<rscale>  0 0.22116448E+03</rscale>
<asrwt>0</asrwt>
<pdfrwt beam="1">  1        2 0.14571923E+00 0.22116448E+03</pdfrwt>
<pdfrwt beam="2">  1       -2 0.19862193E-02 0.22116448E+03</pdfrwt>
<totfact> 0.21783436E+04</totfact>
</mgrwt>
</event>
<event>
 4    1  0.2489209E-004  0.2626051E+03  0.7818608E-02  0.1105588E+00
          2   -1    0    0  501    0  0.00000000000E+00  0.00000000000E+00  0.56999144413E+02  0.56999144470E+02  0.25500000000E-02 0.  1.
         -2   -1    0    0    0  501 -0.00000000000E+00 -0.00000000000E+00 -0.30246707362E+03  0.30246707363E+03  0.25500000000E-02 0. -1.
    5000001    1    1    2    0    0  0.93152514657E+02 -0.18919827483E+02 -0.57429587865E+02  0.13513884867E+03  0.77000000000E+02 0.  0.
   -5000001    1    1    2    0    0 -0.93152514657E+02  0.18919827483E+02 -0.18803834134E+03  0.22432736943E+03  0.77000000000E+02 0.  0.
<mgrwt>
<rscale>  0 0.26260514E+03</rscale>
<asrwt>0</asrwt>
<pdfrwt beam="1">  1        2 0.87690993E-02 0.26260514E+03</pdfrwt>
<pdfrwt beam="2">  1       -2 0.46533395E-01 0.26260514E+03</pdfrwt>
<totfact> 0.33317667E+03</totfact>
</mgrwt>
</event>
<event>
 4    1  0.2489209E-004  0.1799834E+03  0.7818608E-02  0.1167819E+00
          2   -1    0    0  501    0  0.00000000000E+00  0.00000000000E+00  0.12592587528E+04  0.12592587528E+04  0.25500000000E-02 0.  1.
         -2   -1    0    0    0  501 -0.00000000000E+00 -0.00000000000E+00 -0.64311665597E+01  0.64311670652E+01  0.25500000000E-02 0. -1.
    5000001    1    1    2    0    0 -0.22215332986E+02  0.31998780001E+02  0.80598586057E+03  0.81059216033E+03  0.77000000000E+02 0.  0.
   -5000001    1    1    2    0    0  0.22215332986E+02 -0.31998780001E+02  0.44684172568E+03  0.45509775955E+03  0.77000000000E+02 0.  0.
<mgrwt>
<rscale>  0 0.17998337E+03</rscale>
<asrwt>0</asrwt>
<pdfrwt beam="1">  1        2 0.19373210E+00 0.17998337E+03</pdfrwt>
<pdfrwt beam="2">  1       -2 0.98941036E-03 0.17998337E+03</pdfrwt>
<totfact> 0.38879573E+04</totfact>
</mgrwt>
</event>
<event>
 4    1  0.2489209E-004  0.2784504E+03  0.7818608E-02  0.1096538E+00
          2   -1    0    0  501    0  0.00000000000E+00  0.00000000000E+00  0.46768294358E+03  0.46768294359E+03  0.25500000000E-02 0.  1.
         -2   -1    0    0    0  501 -0.00000000000E+00 -0.00000000000E+00 -0.41446148943E+02  0.41446149021E+02  0.25500000000E-02 0. -1.
    5000001    1    1    2    0    0  0.38293126838E+02 -0.10943061937E+03  0.20646707102E+03  0.24899613538E+03  0.77000000000E+02 0.  0.
   -5000001    1    1    2    0    0 -0.38293126838E+02  0.10943061937E+03  0.21976972362E+03  0.26013295723E+03  0.77000000000E+02 0.  0.
<mgrwt>
<rscale>  0 0.27845040E+03</rscale>
<asrwt>0</asrwt>
<pdfrwt beam="1">  1        2 0.71951218E-01 0.27845040E+03</pdfrwt>
<pdfrwt beam="2">  1       -2 0.63763310E-02 0.27845040E+03</pdfrwt>
<totfact> 0.89934600E+03</totfact>
</mgrwt>
</event>
<event>
 4    1  0.2489209E-004  0.2178950E+03  0.7818608E-02  0.1135462E+00
          2   -1    0    0  501    0  0.00000000000E+00  0.00000000000E+00  0.10909168684E+04  0.10909168684E+04  0.25500000000E-02 0.  1.
         -2   -1    0    0    0  501 -0.00000000000E+00 -0.00000000000E+00 -0.10880348765E+02  0.10880349063E+02  0.25500000000E-02 0. -1.
    5000001    1    1    2    0    0 -0.68676984708E+01 -0.74888857895E+02  0.62539013943E+03  0.63458437801E+03  0.77000000000E+02 0.  0.
   -5000001    1    1    2    0    0  0.68676984708E+01  0.74888857895E+02  0.45464638023E+03  0.46721283948E+03  0.77000000000E+02 0.  0.
<mgrwt>
<rscale>  0 0.21789499E+03</rscale>
<asrwt>0</asrwt>
<pdfrwt beam="1">  1        2 0.16783334E+00 0.21789499E+03</pdfrwt>
<pdfrwt beam="2">  1       -2 0.16739000E-02 0.21789499E+03</pdfrwt>
<totfact> 0.22889108E+04</totfact>
</mgrwt>
</event>
<event>
 4    1  0.2489209E-004  0.2410831E+03  0.7818608E-02  0.1119073E+00
          2   -1    0    0  501    0  0.00000000000E+00  0.00000000000E+00  0.83488009164E+03  0.83488009165E+03  0.25500000000E-02 0.  1.
         -2   -1    0    0    0  501 -0.00000000000E+00 -0.00000000000E+00 -0.17404011386E+02  0.17404011573E+02  0.25500000000E-02 0. -1.
    5000001    1    1    2    0    0 -0.91493938098E+02 -0.14184571987E+02  0.42774952921E+03  0.44437709497E+03  0.77000000000E+02 0.  0.
   -5000001    1    1    2    0    0  0.91493938098E+02  0.14184571987E+02  0.38972655105E+03  0.40790700825E+03  0.77000000000E+02 0.  0.
<mgrwt>
<rscale>  0 0.24108308E+03</rscale>
<asrwt>0</asrwt>
<pdfrwt beam="1">  1        2 0.12844311E+00 0.24108308E+03</pdfrwt>
<pdfrwt beam="2">  1       -2 0.26775399E-02 0.24108308E+03</pdfrwt>
<totfact> 0.16663421E+04</totfact>
</mgrwt>
</event>
<event>
 4    1  0.2489209E-004  0.2166167E+03  0.7818608E-02  0.1136431E+00
         -2   -1    0    0    0  501 -0.00000000000E+00  0.00000000000E+00  0.13147766471E+02  0.13147766719E+02  0.25500000000E-02 0. -1.
          2   -1    0    0  501    0  0.00000000000E+00 -0.00000000000E+00 -0.89221957372E+03  0.89221957372E+03  0.25500000000E-02 0.  1.
    5000001    1    1    2    0    0 -0.57197607763E+02  0.27310467414E+02 -0.61608392426E+03  0.62410402153E+03  0.77000000000E+02 0.  0.
   -5000001    1    1    2    0    0  0.57197607763E+02 -0.27310467414E+02 -0.26298788299E+03  0.28126331891E+03  0.77000000000E+02 0.  0.
<mgrwt>
<rscale>  0 0.21661666E+03</rscale>
<asrwt>0</asrwt>
<pdfrwt beam="1">  1        2 0.13726450E+00 0.21661666E+03</pdfrwt>
<pdfrwt beam="2">  1       -2 0.20227340E-02 0.21661666E+03</pdfrwt>
<totfact> 0.22954457E+04</totfact>
</mgrwt>
</event>
<event>
 4    1  0.2489209E-004  0.3153871E+03  0.7818608E-02  0.1077792E+00
         -2   -1    0    0    0  501 -0.00000000000E+00  0.00000000000E+00  0.16867007545E+02  0.16867007738E+02  0.25500000000E-02 0.  1.
          2   -1    0    0  501    0  0.00000000000E+00 -0.00000000000E+00 -0.14743131590E+04  0.14743131590E+04  0.25500000000E-02 0. -1.
    5000001    1    1    2    0    0  0.10229616447E+03  0.39000390743E+02 -0.33448055486E+03  0.36026625893E+03  0.77000000000E+02 0.  0.
   -5000001    1    1    2    0    0 -0.10229616447E+03 -0.39000390743E+02 -0.11229655966E+04  0.11309139078E+04  0.77000000000E+02 0.  0.
<mgrwt>
<rscale>  0 0.31538707E+03</rscale>
<asrwt>0</asrwt>
<pdfrwt beam="1">  1        2 0.22681731E+00 0.31538707E+03</pdfrwt>
<pdfrwt beam="2">  1       -2 0.25949254E-02 0.31538707E+03</pdfrwt>
<totfact> 0.74236298E+03</totfact>
</mgrwt>
</event>
<event>
 4    1  0.2489209E-004  0.2101041E+03  0.7818608E-02  0.1141484E+00
         -2   -1    0    0    0  501 -0.00000000000E+00  0.00000000000E+00  0.76175804133E+01  0.76175808401E+01  0.25500000000E-02 0. -1.
          2   -1    0    0  501    0  0.00000000000E+00 -0.00000000000E+00 -0.14487452934E+04  0.14487452934E+04  0.25500000000E-02 0.  1.
    5000001    1    1    2    0    0  0.42655282624E+02 -0.50378276718E+02 -0.91032969291E+03  0.91596211367E+03  0.77000000000E+02 0.  0.
   -5000001    1    1    2    0    0 -0.42655282624E+02  0.50378276718E+02 -0.53079802008E+03  0.54040076057E+03  0.77000000000E+02 0.  0.
<mgrwt>
<rscale>  0 0.21010411E+03</rscale>
<asrwt>0</asrwt>
<pdfrwt beam="1">  1        2 0.22288367E+00 0.21010411E+03</pdfrwt>
<pdfrwt beam="2">  1       -2 0.11719366E-02 0.21010411E+03</pdfrwt>
<totfact> 0.24273937E+04</totfact>
</mgrwt>
</event>
<event>
 4    1  0.2489209E-004  0.2410641E+03  0.7818608E-02  0.1119086E+00
          2   -1    0    0  501    0  0.00000000000E+00  0.00000000000E+00  0.91990138956E+03  0.91990138957E+03  0.25500000000E-02 0.  1.
         -2   -1    0    0    0  501 -0.00000000000E+00 -0.00000000000E+00 -0.15792969885E+02  0.15792970090E+02  0.25500000000E-02 0. -1.
    5000001    1    1    2    0    0 -0.14807205547E+01  0.69324309570E+02  0.69104102002E+03  0.69876658748E+03  0.77000000000E+02 0.  0.
   -5000001    1    1    2    0    0  0.14807205547E+01 -0.69324309570E+02  0.21306739966E+03  0.23692777218E+03  0.77000000000E+02 0.  0.
<mgrwt>
<rscale>  0 0.24106410E+03</rscale>
<asrwt>0</asrwt>
<pdfrwt beam="1">  1        2 0.14152334E+00 0.24106410E+03</pdfrwt>
<pdfrwt beam="2">  1       -2 0.24296868E-02 0.24106410E+03</pdfrwt>
<totfact> 0.16927023E+04</totfact>
</mgrwt>
</event>
<event>
 4    1  0.2489209E-004  0.1606574E+03  0.7818608E-02  0.1187957E+00
         -2   -1    0    0    0  501 -0.00000000000E+00  0.00000000000E+00  0.48536460916E+01  0.48536467614E+01  0.25500000000E-02 0. -1.
          2   -1    0    0  501    0  0.00000000000E+00 -0.00000000000E+00 -0.13294544387E+04  0.13294544387E+04  0.25500000000E-02 0.  1.
    5000001    1    1    2    0    0 -0.21808450786E+02 -0.65587173054E+01 -0.64358766837E+03  0.64857745272E+03  0.77000000000E+02 0.  0.
   -5000001    1    1    2    0    0  0.21808450786E+02  0.65587173054E+01 -0.68101312420E+03  0.68573063270E+03  0.77000000000E+02 0.  0.
<mgrwt>
<rscale>  0 0.16065742E+03</rscale>
<asrwt>0</asrwt>
<pdfrwt beam="1">  1        2 0.20453116E+00 0.16065742E+03</pdfrwt>
<pdfrwt beam="2">  1       -2 0.74671589E-03 0.16065742E+03</pdfrwt>
<totfact> 0.52833604E+04</totfact>
</mgrwt>
</event>
<event>
 4    1  0.2489209E-004  0.1820994E+03  0.7818608E-02  0.1165787E+00
          2   -1    0    0  501    0  0.00000000000E+00  0.00000000000E+00  0.38807870512E+03  0.38807870513E+03  0.25500000000E-02 0.  1.
         -2   -1    0    0    0  501 -0.00000000000E+00 -0.00000000000E+00 -0.21361768005E+02  0.21361768157E+02  0.25500000000E-02 0. -1.
    5000001    1    1    2    0    0 -0.16677216337E+02 -0.39039179869E+02  0.23651221221E+03  0.25232759190E+03  0.77000000000E+02 0.  0.
   -5000001    1    1    2    0    0  0.16677216337E+02  0.39039179869E+02  0.13020472490E+03  0.15711288138E+03  0.77000000000E+02 0.  0.
<mgrwt>
<rscale>  0 0.18209939E+03</rscale>
<asrwt>0</asrwt>
<pdfrwt beam="1">  1        2 0.59704418E-01 0.18209939E+03</pdfrwt>
<pdfrwt beam="2">  1       -2 0.32864257E-02 0.18209939E+03</pdfrwt>
<totfact> 0.29210475E+04</totfact>
</mgrwt>
</event>
<event>
 4    1  0.2489209E-004  0.2247619E+03  0.7818608E-02  0.1130382E+00
         -2   -1    0    0    0  501 -0.00000000000E+00  0.00000000000E+00  0.20422437628E+03  0.20422437630E+03  0.25500000000E-02 0. -1.
          2   -1    0    0  501    0  0.00000000000E+00 -0.00000000000E+00 -0.61841212205E+02  0.61841212258E+02  0.25500000000E-02 0.  1.
    5000001    1    1    2    0    0 -0.77120172442E+02 -0.27418603992E+02  0.69904507494E+02  0.13234402522E+03  0.77000000000E+02 0.  0.
   -5000001    1    1    2    0    0  0.77120172442E+02  0.27418603992E+02  0.72478656585E+02  0.13372156334E+03  0.77000000000E+02 0.  0.
<mgrwt>
<rscale>  0 0.22476195E+03</rscale>
<asrwt>0</asrwt>
<pdfrwt beam="1">  1        2 0.95140326E-02 0.22476195E+03</pdfrwt>
<pdfrwt beam="2">  1       -2 0.31419135E-01 0.22476195E+03</pdfrwt>
<totfact> 0.62846056E+03</totfact>
</mgrwt>
</event>
<event>
 4    1  0.2489209E-004  0.2140034E+03  0.7818608E-02  0.1138434E+00
          2   -1    0    0  501    0  0.00000000000E+00  0.00000000000E+00  0.17394999802E+03  0.17394999804E+03  0.25500000000E-02 0.  1.
         -2   -1    0    0    0  501 -0.00000000000E+00 -0.00000000000E+00 -0.65819856768E+02  0.65819856817E+02  0.25500000000E-02 0. -1.
    5000001    1    1    2    0    0  0.22393729541E+02  0.69893341170E+02  0.67025255929E+02  0.12572964326E+03  0.77000000000E+02 0.  0.
   -5000001    1    1    2    0    0 -0.22393729541E+02 -0.69893341170E+02  0.41104885323E+02  0.11404021159E+03  0.77000000000E+02 0.  0.
<mgrwt>
<rscale>  0 0.21400340E+03</rscale>
<asrwt>0</asrwt>
<pdfrwt beam="1">  1        2 0.26761538E-01 0.21400340E+03</pdfrwt>
<pdfrwt beam="2">  1       -2 0.10126132E-01 0.21400340E+03</pdfrwt>
<totfact> 0.12599588E+04</totfact>
</mgrwt>
</event>
<event>
 4    1  0.2489209E-004  0.1821569E+03  0.7818608E-02  0.1165732E+00
          2   -1    0    0  501    0  0.00000000000E+00  0.00000000000E+00  0.11106412846E+04  0.11106412846E+04  0.25500000000E-02 0.  1.
         -2   -1    0    0    0  501 -0.00000000000E+00 -0.00000000000E+00 -0.74689167617E+01  0.74689171970E+01  0.25500000000E-02 0. -1.
    5000001    1    1    2    0    0  0.46080841069E+02 -0.15518889096E+02  0.54288876414E+03  0.55047387773E+03  0.77000000000E+02 0.  0.
   -5000001    1    1    2    0    0 -0.46080841069E+02  0.15518889096E+02  0.56028360374E+03  0.56763632412E+03  0.77000000000E+02 0.  0.
<mgrwt>
<rscale>  0 0.18215694E+03</rscale>
<asrwt>0</asrwt>
<pdfrwt beam="1">  1        2 0.17086796E+00 0.18215694E+03</pdfrwt>
<pdfrwt beam="2">  1       -2 0.11490637E-02 0.18215694E+03</pdfrwt>
<totfact> 0.38032629E+04</totfact>
</mgrwt>
</event>
<event>
 4    1  0.2489209E-004  0.1880480E+03  0.7818608E-02  0.1160234E+00
          2   -1    0    0  501    0  0.00000000000E+00  0.00000000000E+00  0.12296522153E+04  0.12296522153E+04  0.25500000000E-02 0.  1.
         -2   -1    0    0    0  501 -0.00000000000E+00 -0.00000000000E+00 -0.71894420419E+01  0.71894424941E+01  0.25500000000E-02 0. -1.
    5000001    1    1    2    0    0  0.17973619277E+02 -0.41141980149E+02  0.41437436424E+03  0.42385236493E+03  0.77000000000E+02 0.  0.
   -5000001    1    1    2    0    0 -0.17973619277E+02  0.41141980149E+02  0.80808840902E+03  0.81298929287E+03  0.77000000000E+02 0.  0.
<mgrwt>
<rscale>  0 0.18804801E+03</rscale>
<asrwt>0</asrwt>
<pdfrwt beam="1">  1        2 0.18917708E+00 0.18804801E+03</pdfrwt>
<pdfrwt beam="2">  1       -2 0.11060691E-02 0.18804801E+03</pdfrwt>
<totfact> 0.34490269E+04</totfact>
</mgrwt>
</event>
<event>
 4    1  0.2489209E-004  0.2018737E+03  0.7818608E-02  0.1148168E+00
          2   -1    0    0  501    0  0.00000000000E+00  0.00000000000E+00  0.19074699535E+04  0.19074699535E+04  0.25500000000E-02 0.  1.
         -2   -1    0    0    0  501 -0.00000000000E+00 -0.00000000000E+00 -0.53412360833E+01  0.53412366920E+01  0.25500000000E-02 0. -1.
    5000001    1    1    2    0    0 -0.27134338058E+02  0.51686482852E+02  0.12275549619E+04  0.12313520818E+04  0.77000000000E+02 0.  0.
   -5000001    1    1    2    0    0  0.27134338058E+02 -0.51686482852E+02  0.67457375546E+03  0.68145910836E+03  0.77000000000E+02 0.  0.
<mgrwt>
<rscale>  0 0.20187370E+03</rscale>
<asrwt>0</asrwt>
<pdfrwt beam="1">  1        2 0.29345700E+00 0.20187370E+03</pdfrwt>
<pdfrwt beam="2">  1       -2 0.82172843E-03 0.20187370E+03</pdfrwt>
<totfact> 0.23267571E+04</totfact>
</mgrwt>
</event>
<event>
 4    1  0.2489209E-004  0.2130530E+03  0.7818608E-02  0.1139171E+00
         -2   -1    0    0    0  501 -0.00000000000E+00  0.00000000000E+00  0.19231591012E+03  0.19231591013E+03  0.25500000000E-02 0. -1.
          2   -1    0    0  501    0  0.00000000000E+00 -0.00000000000E+00 -0.59006533059E+02  0.59006533114E+02  0.25500000000E-02 0.  1.
    5000001    1    1    2    0    0 -0.42616394526E+02 -0.49309076259E+02  0.10702736338E+03  0.14707616597E+03  0.77000000000E+02 0.  0.
   -5000001    1    1    2    0    0  0.42616394526E+02  0.49309076259E+02  0.26282013678E+02  0.10424627728E+03  0.77000000000E+02 0.  0.
<mgrwt>
<rscale>  0 0.21305300E+03</rscale>
<asrwt>0</asrwt>
<pdfrwt beam="1">  1        2 0.90779280E-02 0.21305300E+03</pdfrwt>
<pdfrwt beam="2">  1       -2 0.29587064E-01 0.21305300E+03</pdfrwt>
<totfact> 0.74093016E+03</totfact>
</mgrwt>
</event>
<event>
 4    1  0.2489209E-004  0.3027044E+03  0.7818608E-02  0.1083896E+00
         -2   -1    0    0    0  501 -0.00000000000E+00  0.00000000000E+00  0.30848004436E+03  0.30848004438E+03  0.25500000000E-02 0. -1.
          2   -1    0    0  501    0  0.00000000000E+00 -0.00000000000E+00 -0.74259235765E+02  0.74259235809E+02  0.25500000000E-02 0.  1.
    5000001    1    1    2    0    0 -0.11953953281E+03  0.36490287558E+02  0.16369200499E+03  0.21987567735E+03  0.77000000000E+02 0.  0.
   -5000001    1    1    2    0    0  0.11953953281E+03 -0.36490287558E+02  0.70528803608E+02  0.16286360284E+03  0.77000000000E+02 0.  0.
<mgrwt>
<rscale>  0 0.30270443E+03</rscale>
<asrwt>0</asrwt>
<pdfrwt beam="1">  1        2 0.11424498E-01 0.30270443E+03</pdfrwt>
<pdfrwt beam="2">  1       -2 0.47458469E-01 0.30270443E+03</pdfrwt>
<totfact> 0.23158182E+03</totfact>
</mgrwt>
</event>
<event>
 4    1  0.2489209E-004  0.2065817E+03  0.7818608E-02  0.1144302E+00
          2   -1    0    0  501    0  0.00000000000E+00  0.00000000000E+00  0.27154107478E+02  0.27154107598E+02  0.25500000000E-02 0.  1.
         -2   -1    0    0    0  501 -0.00000000000E+00 -0.00000000000E+00 -0.39290565150E+03  0.39290565151E+03  0.25500000000E-02 0. -1.
    5000001    1    1    2    0    0  0.56980386129E+02 -0.38606603627E+02 -0.17949272782E+03  0.20708421859E+03  0.77000000000E+02 0.  0.
   -5000001    1    1    2    0    0 -0.56980386129E+02  0.38606603627E+02 -0.18625881620E+03  0.21297554052E+03  0.77000000000E+02 0.  0.
<mgrwt>
<rscale>  0 0.20658173E+03</rscale>
<asrwt>0</asrwt>
<pdfrwt beam="1">  1        2 0.41775553E-02 0.20658173E+03</pdfrwt>
<pdfrwt beam="2">  1       -2 0.60447019E-01 0.20658173E+03</pdfrwt>
<totfact> 0.50918853E+03</totfact>
</mgrwt>
</event>
<event>
 4    1  0.2489209E-004  0.2591672E+03  0.7818608E-02  0.1107645E+00
          2   -1    0    0  501    0  0.00000000000E+00  0.00000000000E+00  0.20801865241E+04  0.20801865241E+04  0.25500000000E-02 0.  1.
         -2   -1    0    0    0  501 -0.00000000000E+00 -0.00000000000E+00 -0.80723120251E+01  0.80723124278E+01  0.25500000000E-02 0. -1.
    5000001    1    1    2    0    0  0.22920769956E+01  0.94698957704E+02  0.13863316423E+04  0.13916959325E+04  0.77000000000E+02 0.  0.
   -5000001    1    1    2    0    0 -0.22920769956E+01 -0.94698957704E+02  0.68578256981E+03  0.69656290402E+03  0.77000000000E+02 0.  0.
<mgrwt>
<rscale>  0 0.25916724E+03</rscale>
<asrwt>0</asrwt>
<pdfrwt beam="1">  1        2 0.32002873E+00 0.25916724E+03</pdfrwt>
<pdfrwt beam="2">  1       -2 0.12418941E-02 0.25916724E+03</pdfrwt>
<totfact> 0.10470520E+04</totfact>
</mgrwt>
</event>
<event>
 4    1  0.2489209E-004  0.1969655E+03  0.7818608E-02  0.1152325E+00
          2   -1    0    0  501    0  0.00000000000E+00  0.00000000000E+00  0.22889342090E+03  0.22889342091E+03  0.25500000000E-02 0.  1.
         -2   -1    0    0    0  501 -0.00000000000E+00 -0.00000000000E+00 -0.42372783161E+02  0.42372783238E+02  0.25500000000E-02 0. -1.
    5000001    1    1    2    0    0  0.44718188487E+02 -0.14086639023E+02  0.38660578058E+02  0.98090723702E+02  0.77000000000E+02 0.  0.
   -5000001    1    1    2    0    0 -0.44718188487E+02  0.14086639023E+02  0.14786005968E+03  0.17317548045E+03  0.77000000000E+02 0.  0.
<mgrwt>
<rscale>  0 0.19696549E+03</rscale>
<asrwt>0</asrwt>
<pdfrwt beam="1">  1        2 0.35214373E-01 0.19696549E+03</pdfrwt>
<pdfrwt beam="2">  1       -2 0.65188896E-02 0.19696549E+03</pdfrwt>
<totfact> 0.18444921E+04</totfact>
</mgrwt>
</event>
<event>
 4    1  0.2489209E-004  0.2552058E+03  0.7818608E-02  0.1110058E+00
          2   -1    0    0  501    0  0.00000000000E+00  0.00000000000E+00  0.15532267759E+04  0.15532267759E+04  0.25500000000E-02 0. -1.
         -2   -1    0    0    0  501 -0.00000000000E+00 -0.00000000000E+00 -0.10483017400E+02  0.10483017710E+02  0.25500000000E-02 0.  1.
    5000001    1    1    2    0    0 -0.12800952783E+02  0.97652035495E+02  0.92803297792E+03  0.93641550208E+03  0.77000000000E+02 0.  0.
   -5000001    1    1    2    0    0  0.12800952783E+02 -0.97652035495E+02  0.61471078058E+03  0.62729429154E+03  0.77000000000E+02 0.  0.
<mgrwt>
<rscale>  0 0.25520583E+03</rscale>
<asrwt>0</asrwt>
<pdfrwt beam="1">  1        2 0.23895812E+00 0.25520583E+03</pdfrwt>
<pdfrwt beam="2">  1       -2 0.16127709E-02 0.25520583E+03</pdfrwt>
<totfact> 0.13524166E+04</totfact>
</mgrwt>
</event>
<event>
 4    1  0.2489209E-004  0.3114964E+03  0.7818608E-02  0.1079631E+00
          2   -1    0    0  501    0  0.00000000000E+00  0.00000000000E+00  0.20187881762E+04  0.20187881762E+04  0.25500000000E-02 0.  1.
         -2   -1    0    0    0  501 -0.00000000000E+00 -0.00000000000E+00 -0.12015874407E+02  0.12015874678E+02  0.25500000000E-02 0. -1.
    5000001    1    1    2    0    0 -0.66075288423E+02 -0.90769294402E+02  0.51016046795E+03  0.52801298432E+03  0.77000000000E+02 0.  0.
   -5000001    1    1    2    0    0  0.66075288423E+02  0.90769294402E+02  0.14966118338E+04  0.15027910666E+04  0.77000000000E+02 0.  0.
<mgrwt>
<rscale>  0 0.31149642E+03</rscale>
<asrwt>0</asrwt>
<pdfrwt beam="1">  1        2 0.31058297E+00 0.31149642E+03</pdfrwt>
<pdfrwt beam="2">  1       -2 0.18485951E-02 0.31149642E+03</pdfrwt>
<totfact> 0.63071114E+03</totfact>
</mgrwt>
</event>
<event>
 4    1  0.2489209E-004  0.2767429E+03  0.7818608E-02  0.1097481E+00
         -2   -1    0    0    0  501 -0.00000000000E+00  0.00000000000E+00  0.12363034575E+02  0.12363034838E+02  0.25500000000E-02 0. -1.
          2   -1    0    0  501    0  0.00000000000E+00 -0.00000000000E+00 -0.15487015771E+04  0.15487015771E+04  0.25500000000E-02 0.  1.
    5000001    1    1    2    0    0 -0.22347577086E+02  0.67979356548E+02 -0.26058550441E+03  0.28098827773E+03  0.77000000000E+02 0.  0.
   -5000001    1    1    2    0    0  0.22347577086E+02 -0.67979356548E+02 -0.12757530381E+04  0.12800763342E+04  0.77000000000E+02 0.  0.
<mgrwt>
<rscale>  0 0.27674285E+03</rscale>
<asrwt>0</asrwt>
<pdfrwt beam="1">  1        2 0.23826163E+00 0.27674285E+03</pdfrwt>
<pdfrwt beam="2">  1       -2 0.19020066E-02 0.27674285E+03</pdfrwt>
<totfact> 0.10698481E+04</totfact>
</mgrwt>
</event>
<event>
 4    1  0.2489209E-004  0.1747804E+03  0.7818608E-02  0.1172952E+00
         -2   -1    0    0    0  501 -0.00000000000E+00  0.00000000000E+00  0.24590741989E+02  0.24590742121E+02  0.25500000000E-02 0. -1.
          2   -1    0    0  501    0  0.00000000000E+00 -0.00000000000E+00 -0.31056579435E+03  0.31056579436E+03  0.25500000000E-02 0.  1.
    5000001    1    1    2    0    0  0.23543627180E+02  0.29464223670E+02 -0.17539420623E+03  0.19522953270E+03  0.77000000000E+02 0.  0.
   -5000001    1    1    2    0    0 -0.23543627180E+02 -0.29464223670E+02 -0.11058084613E+03  0.13992700378E+03  0.77000000000E+02 0.  0.
<mgrwt>
<rscale>  0 0.17478036E+03</rscale>
<asrwt>0</asrwt>
<pdfrwt beam="1">  1        2 0.47779350E-01 0.17478036E+03</pdfrwt>
<pdfrwt beam="2">  1       -2 0.37831913E-02 0.17478036E+03</pdfrwt>
<totfact> 0.29966196E+04</totfact>
</mgrwt>
</event>
<event>
 4    1  0.2489209E-004  0.3184191E+03  0.7818608E-02  0.1076379E+00
         -2   -1    0    0    0  501 -0.00000000000E+00  0.00000000000E+00  0.61379977505E+02  0.61379977558E+02  0.25500000000E-02 0. -1.
          2   -1    0    0  501    0  0.00000000000E+00 -0.00000000000E+00 -0.41296335604E+03  0.41296335605E+03  0.25500000000E-02 0.  1.
    5000001    1    1    2    0    0  0.10470483135E+03  0.18504177572E+02 -0.30997209868E+03  0.33662621446E+03  0.77000000000E+02 0.  0.
   -5000001    1    1    2    0    0 -0.10470483135E+03 -0.18504177572E+02 -0.41611279853E+02  0.13771711915E+03  0.77000000000E+02 0.  0.
<mgrwt>
<rscale>  0 0.31841910E+03</rscale>
<asrwt>0</asrwt>
<pdfrwt beam="1">  1        2 0.63532822E-01 0.31841910E+03</pdfrwt>
<pdfrwt beam="2">  1       -2 0.94430738E-02 0.31841910E+03</pdfrwt>
<totfact> 0.56071198E+03</totfact>
</mgrwt>
</event>
<event>
 4    1  0.2489209E-004  0.2036565E+03  0.7818608E-02  0.1146690E+00
         -2   -1    0    0    0  501 -0.00000000000E+00  0.00000000000E+00  0.40936305737E+03  0.40936305737E+03  0.25500000000E-02 0. -1.
          2   -1    0    0  501    0  0.00000000000E+00 -0.00000000000E+00 -0.25329570721E+02  0.25329570850E+02  0.25500000000E-02 0.  1.
    5000001    1    1    2    0    0  0.26149982956E+02 -0.56410975969E+02  0.24315299736E+03  0.26252314173E+03  0.77000000000E+02 0.  0.
   -5000001    1    1    2    0    0 -0.26149982956E+02  0.56410975969E+02  0.14088048928E+03  0.17216948649E+03  0.77000000000E+02 0.  0.
<mgrwt>
<rscale>  0 0.20365648E+03</rscale>
<asrwt>0</asrwt>
<pdfrwt beam="1">  1        2 0.38968570E-02 0.20365648E+03</pdfrwt>
<pdfrwt beam="2">  1       -2 0.62978932E-01 0.20365648E+03</pdfrwt>
<totfact> 0.51262277E+03</totfact>
</mgrwt>
</event>
<event>
 4    1  0.2489209E-004  0.2711125E+03  0.7818608E-02  0.1100645E+00
         -2   -1    0    0    0  501 -0.00000000000E+00  0.00000000000E+00  0.13325540236E+03  0.13325540238E+03  0.25500000000E-02 0. -1.
          2   -1    0    0  501    0  0.00000000000E+00 -0.00000000000E+00 -0.13789684606E+03  0.13789684608E+03  0.25500000000E-02 0.  1.
    5000001    1    1    2    0    0  0.60552550220E+02 -0.54289716908E+02 -0.78702817179E+02  0.13688359336E+03  0.77000000000E+02 0.  0.
   -5000001    1    1    2    0    0 -0.60552550220E+02  0.54289716908E+02  0.74061373484E+02  0.13426865510E+03  0.77000000000E+02 0.  0.
<mgrwt>
<rscale>  0 0.27111252E+03</rscale>
<asrwt>0</asrwt>
<pdfrwt beam="1">  1        2 0.21214900E-01 0.27111252E+03</pdfrwt>
<pdfrwt beam="2">  1       -2 0.20500831E-01 0.27111252E+03</pdfrwt>
<totfact> 0.51840661E+03</totfact>
</mgrwt>
</event>
<event>
 4    1  0.2489209E-004  0.2515182E+03  0.7818608E-02  0.1112349E+00
          2   -1    0    0  501    0  0.00000000000E+00  0.00000000000E+00  0.53095409111E+03  0.53095409112E+03  0.25500000000E-02 0.  1.
         -2   -1    0    0    0  501 -0.00000000000E+00 -0.00000000000E+00 -0.29786667849E+02  0.29786667959E+02  0.25500000000E-02 0. -1.
    5000001    1    1    2    0    0 -0.82905709207E+02 -0.39404808817E+02  0.16539002321E+03  0.20422770467E+03  0.77000000000E+02 0.  0.
   -5000001    1    1    2    0    0  0.82905709207E+02  0.39404808817E+02  0.33577740005E+03  0.35651305441E+03  0.77000000000E+02 0.  0.
<mgrwt>
<rscale>  0 0.25151822E+03</rscale>
<asrwt>0</asrwt>
<pdfrwt beam="1">  1        2 0.81685248E-01 0.25151822E+03</pdfrwt>
<pdfrwt beam="2">  1       -2 0.45825641E-02 0.25151822E+03</pdfrwt>
<totfact> 0.12860561E+04</totfact>
</mgrwt>
</event>
<event>
 4    1  0.2489209E-004  0.2384220E+03  0.7818608E-02  0.1120848E+00
         -2   -1    0    0    0  501 -0.00000000000E+00  0.00000000000E+00  0.65116706730E+01  0.65116711723E+01  0.25500000000E-02 0. -1.
          2   -1    0    0  501    0  0.00000000000E+00 -0.00000000000E+00 -0.21824302428E+04  0.21824302428E+04  0.25500000000E-02 0.  1.
    5000001    1    1    2    0    0 -0.28227364006E+02 -0.68319788881E+02 -0.60059932643E+03  0.61001059707E+03  0.77000000000E+02 0.  0.
   -5000001    1    1    2    0    0  0.28227364006E+02  0.68319788881E+02 -0.15753192457E+04  0.15789313170E+04  0.77000000000E+02 0.  0.
<mgrwt>
<rscale>  0 0.23842204E+03</rscale>
<asrwt>0</asrwt>
<pdfrwt beam="1">  1        2 0.33575791E+00 0.23842204E+03</pdfrwt>
<pdfrwt beam="2">  1       -2 0.10017973E-02 0.23842204E+03</pdfrwt>
<totfact> 0.12615767E+04</totfact>
</mgrwt>
</event>
<event>
 4    1  0.2489209E-004  0.2576006E+03  0.7818608E-02  0.1108593E+00
         -2   -1    0    0    0  501 -0.00000000000E+00  0.00000000000E+00  0.28483870100E+02  0.28483870214E+02  0.25500000000E-02 0. -1.
          2   -1    0    0  501    0  0.00000000000E+00 -0.00000000000E+00 -0.58241812664E+03  0.58241812665E+03  0.25500000000E-02 0.  1.
    5000001    1    1    2    0    0 -0.40080102114E+02  0.93568019428E+02 -0.23595076962E+03  0.26825949104E+03  0.77000000000E+02 0.  0.
   -5000001    1    1    2    0    0  0.40080102114E+02 -0.93568019428E+02 -0.31798348692E+03  0.34264250583E+03  0.77000000000E+02 0.  0.
<mgrwt>
<rscale>  0 0.25760064E+03</rscale>
<asrwt>0</asrwt>
<pdfrwt beam="1">  1        2 0.89602780E-01 0.25760064E+03</pdfrwt>
<pdfrwt beam="2">  1       -2 0.43821343E-02 0.25760064E+03</pdfrwt>
<totfact> 0.12396173E+04</totfact>
</mgrwt>
</event>
<event>
 4    1  0.2489209E-004  0.2926834E+03  0.7818608E-02  0.1088956E+00
         -2   -1    0    0    0  501 -0.00000000000E+00  0.00000000000E+00  0.19447561072E+03  0.19447561074E+03  0.25500000000E-02 0. -1.
          2   -1    0    0  501    0  0.00000000000E+00 -0.00000000000E+00 -0.11012120643E+03  0.11012120646E+03  0.25500000000E-02 0.  1.
    5000001    1    1    2    0    0  0.46674121768E+02 -0.11296081307E+03  0.17808941339E+02  0.14554991352E+03  0.77000000000E+02 0.  0.
   -5000001    1    1    2    0    0 -0.46674121768E+02  0.11296081307E+03  0.66545462947E+02  0.15904690368E+03  0.77000000000E+02 0.  0.
<mgrwt>
<rscale>  0 0.29268337E+03</rscale>
<asrwt>0</asrwt>
<pdfrwt beam="1">  1        2 0.16941724E-01 0.29268337E+03</pdfrwt>
<pdfrwt beam="2">  1       -2 0.29919324E-01 0.29268337E+03</pdfrwt>
<totfact> 0.34570538E+03</totfact>
</mgrwt>
</event>
<event>
 4    1  0.2489209E-004  0.2465769E+03  0.7818608E-02  0.1115487E+00
          2   -1    0    0  501    0  0.00000000000E+00  0.00000000000E+00  0.13888575620E+03  0.13888575622E+03  0.25500000000E-02 0.  1.
         -2   -1    0    0    0  501 -0.00000000000E+00 -0.00000000000E+00 -0.10944273403E+03  0.10944273406E+03  0.25500000000E-02 0. -1.
    5000001    1    1    2    0    0  0.72938375311E+02  0.35632540718E+02 -0.37428112002E+02  0.11798113459E+03  0.77000000000E+02 0.  0.
   -5000001    1    1    2    0    0 -0.72938375311E+02 -0.35632540718E+02  0.66871134166E+02  0.13034735569E+03  0.77000000000E+02 0.  0.
<mgrwt>
<rscale>  0 0.24657686E+03</rscale>
<asrwt>0</asrwt>
<pdfrwt beam="1">  1        2 0.21367039E-01 0.24657686E+03</pdfrwt>
<pdfrwt beam="2">  1       -2 0.16837344E-01 0.24657686E+03</pdfrwt>
<totfact> 0.71485596E+03</totfact>
</mgrwt>
</event>
<event>
 4    1  0.2489209E-004  0.2090941E+03  0.7818608E-02  0.1142285E+00
         -2   -1    0    0    0  501 -0.00000000000E+00  0.00000000000E+00  0.84321296055E+01  0.84321299911E+01  0.25500000000E-02 0. -1.
          2   -1    0    0  501    0  0.00000000000E+00 -0.00000000000E+00 -0.12962425421E+04  0.12962425421E+04  0.25500000000E-02 0.  1.
    5000001    1    1    2    0    0  0.35725139723E+02  0.45306004559E+02 -0.89905787523E+03  0.90419189483E+03  0.77000000000E+02 0.  0.
   -5000001    1    1    2    0    0 -0.35725139723E+02 -0.45306004559E+02 -0.38875253725E+03  0.40048277725E+03  0.77000000000E+02 0.  0.
<mgrwt>
<rscale>  0 0.20909410E+03</rscale>
<asrwt>0</asrwt>
<pdfrwt beam="1">  1        2 0.19942177E+00 0.20909410E+03</pdfrwt>
<pdfrwt beam="2">  1       -2 0.12972518E-02 0.20909410E+03</pdfrwt>
<totfact> 0.25327052E+04</totfact>
</mgrwt>
</event>
<event>
 4    1  0.2489209E-004  0.2814011E+03  0.7818608E-02  0.1094926E+00
          2   -1    0    0  501    0  0.00000000000E+00  0.00000000000E+00  0.41754545627E+03  0.41754545628E+03  0.25500000000E-02 0.  1.
         -2   -1    0    0    0  501 -0.00000000000E+00 -0.00000000000E+00 -0.47411958174E+02  0.47411958243E+02  0.25500000000E-02 0. -1.
    5000001    1    1    2    0    0  0.11224394849E+03  0.22956927801E+02  0.14006112003E+03  0.19665157475E+03  0.77000000000E+02 0.  0.
   -5000001    1    1    2    0    0 -0.11224394849E+03 -0.22956927801E+02  0.23007237807E+03  0.26830583977E+03  0.77000000000E+02 0.  0.
<mgrwt>
<rscale>  0 0.28140112E+03</rscale>
<asrwt>0</asrwt>
<pdfrwt beam="1">  1        2 0.64237765E-01 0.28140112E+03</pdfrwt>
<pdfrwt beam="2">  1       -2 0.72941471E-02 0.28140112E+03</pdfrwt>
<totfact> 0.82776060E+03</totfact>
</mgrwt>
</event>
<event>
 4    1  0.2489209E-004  0.2596129E+03  0.7818608E-02  0.1107376E+00
         -2   -1    0    0    0  501 -0.00000000000E+00  0.00000000000E+00  0.35036410177E+02  0.35036410270E+02  0.25500000000E-02 0. -1.
          2   -1    0    0  501    0  0.00000000000E+00 -0.00000000000E+00 -0.48092022894E+03  0.48092022895E+03  0.25500000000E-02 0.  1.
    5000001    1    1    2    0    0 -0.47421170044E+01  0.92175174373E+02 -0.32034449661E+03  0.34215252002E+03  0.77000000000E+02 0.  0.
   -5000001    1    1    2    0    0  0.47421170044E+01 -0.92175174373E+02 -0.12553932215E+03  0.17380411920E+03  0.77000000000E+02 0.  0.
<mgrwt>
<rscale>  0 0.25961293E+03</rscale>
<asrwt>0</asrwt>
<pdfrwt beam="1">  1        2 0.73987723E-01 0.25961293E+03</pdfrwt>
<pdfrwt beam="2">  1       -2 0.53902173E-02 0.25961293E+03</pdfrwt>
<totfact> 0.11246340E+04</totfact>
</mgrwt>
</event>
<event>
 4    1  0.2489209E-004  0.1884414E+03  0.7818608E-02  0.1159875E+00
          2   -1    0    0  501    0  0.00000000000E+00  0.00000000000E+00  0.50073714353E+03  0.50073714354E+03  0.25500000000E-02 0.  1.
         -2   -1    0    0    0  501 -0.00000000000E+00 -0.00000000000E+00 -0.17728934978E+02  0.17728935162E+02  0.25500000000E-02 0. -1.
    5000001    1    1    2    0    0 -0.35588300896E+01  0.46326630944E+02  0.16418636896E+03  0.18720306023E+03  0.77000000000E+02 0.  0.
   -5000001    1    1    2    0    0  0.35588300896E+01 -0.46326630944E+02  0.31882183959E+03  0.33126301847E+03  0.77000000000E+02 0.  0.
<mgrwt>
<rscale>  0 0.18844136E+03</rscale>
<asrwt>0</asrwt>
<pdfrwt beam="1">  1        2 0.77036492E-01 0.18844136E+03</pdfrwt>
<pdfrwt beam="2">  1       -2 0.27275282E-02 0.18844136E+03</pdfrwt>
<totfact> 0.29232417E+04</totfact>
</mgrwt>
</event>
<event>
 4    1  0.2489209E-004  0.1865781E+03  0.7818608E-02  0.1161584E+00
         -2   -1    0    0    0  501 -0.00000000000E+00  0.00000000000E+00  0.61712922041E+02  0.61712922093E+02  0.25500000000E-02 0. -1.
          2   -1    0    0  501    0  0.00000000000E+00 -0.00000000000E+00 -0.14102152864E+03  0.14102152866E+03  0.25500000000E-02 0.  1.
    5000001    1    1    2    0    0 -0.48051277955E+02  0.20271900525E+02 -0.31671332980E+02  0.98244331117E+02  0.77000000000E+02 0.  0.
   -5000001    1    1    2    0    0  0.48051277955E+02 -0.20271900525E+02 -0.47637273616E+02  0.10449011964E+03  0.77000000000E+02 0.  0.
<mgrwt>
<rscale>  0 0.18657814E+03</rscale>
<asrwt>0</asrwt>
<pdfrwt beam="1">  1        2 0.21695620E-01 0.18657814E+03</pdfrwt>
<pdfrwt beam="2">  1       -2 0.94942957E-02 0.18657814E+03</pdfrwt>
<totfact> 0.17460790E+04</totfact>
</mgrwt>
</event>
<event>
 4    1  0.2489209E-004  0.2064510E+03  0.7818608E-02  0.1144408E+00
         -2   -1    0    0    0  501 -0.00000000000E+00  0.00000000000E+00  0.99890080582E+01  0.99890083837E+01  0.25500000000E-02 0. -1.
          2   -1    0    0  501    0  0.00000000000E+00 -0.00000000000E+00 -0.10667228399E+04  0.10667228399E+04  0.25500000000E-02 0.  1.
    5000001    1    1    2    0    0 -0.43673648855E+02  0.24965900655E+02 -0.28397838259E+03  0.29850193564E+03  0.77000000000E+02 0.  0.
   -5000001    1    1    2    0    0  0.43673648855E+02 -0.24965900655E+02 -0.77275544923E+03  0.77820991262E+03  0.77000000000E+02 0.  0.
<mgrwt>
<rscale>  0 0.20645099E+03</rscale>
<asrwt>0</asrwt>
<pdfrwt beam="1">  1        2 0.16411112E+00 0.20645099E+03</pdfrwt>
<pdfrwt beam="2">  1       -2 0.15367713E-02 0.20645099E+03</pdfrwt>
<totfact> 0.26701964E+04</totfact>
</mgrwt>
</event>
<event>
 4    1  0.2489209E-004  0.3337466E+03  0.7818608E-02  0.1069491E+00
         -2   -1    0    0    0  501 -0.00000000000E+00  0.00000000000E+00  0.10978670997E+03  0.10978671000E+03  0.25500000000E-02 0. -1.
          2   -1    0    0  501    0  0.00000000000E+00 -0.00000000000E+00 -0.25364357171E+03  0.25364357173E+03  0.25500000000E-02 0.  1.
    5000001    1    1    2    0    0  0.65118286393E+01  0.12580948037E+03 -0.15660899909E+03  0.21523430921E+03  0.77000000000E+02 0.  0.
   -5000001    1    1    2    0    0 -0.65118286393E+01 -0.12580948037E+03  0.12752137352E+02  0.14819597252E+03  0.77000000000E+02 0.  0.
<mgrwt>
<rscale>  0 0.33374657E+03</rscale>
<asrwt>0</asrwt>
<pdfrwt beam="1">  1        2 0.39022088E-01 0.33374657E+03</pdfrwt>
<pdfrwt beam="2">  1       -2 0.16890263E-01 0.33374657E+03</pdfrwt>
<totfact> 0.36901220E+03</totfact>
</mgrwt>
</event>
<event>
 4    1  0.2489209E-004  0.2656946E+03  0.7818608E-02  0.1103769E+00
          2   -1    0    0  501    0  0.00000000000E+00  0.00000000000E+00  0.45455487267E+02  0.45455487339E+02  0.25500000000E-02 0.  1.
         -2   -1    0    0    0  501 -0.00000000000E+00 -0.00000000000E+00 -0.38825686124E+03  0.38825686125E+03  0.25500000000E-02 0. -1.
    5000001    1    1    2    0    0 -0.78624085794E+02 -0.47318996149E+02 -0.77648382261E+02  0.14275540456E+03  0.77000000000E+02 0.  0.
   -5000001    1    1    2    0    0  0.78624085794E+02  0.47318996149E+02 -0.26515299171E+03  0.29095694403E+03  0.77000000000E+02 0.  0.
<mgrwt>
<rscale>  0 0.26569460E+03</rscale>
<asrwt>0</asrwt>
<pdfrwt beam="1">  1        2 0.69931521E-02 0.26569460E+03</pdfrwt>
<pdfrwt beam="2">  1       -2 0.59731823E-01 0.26569460E+03</pdfrwt>
<totfact> 0.26872904E+03</totfact>
</mgrwt>
</event>
<event>
 4    1  0.2489209E-004  0.2097599E+03  0.7818608E-02  0.1141756E+00
         -2   -1    0    0    0  501 -0.00000000000E+00  0.00000000000E+00  0.42192549768E+02  0.42192549845E+02  0.25500000000E-02 0. -1.
          2   -1    0    0  501    0  0.00000000000E+00 -0.00000000000E+00 -0.26070500126E+03  0.26070500127E+03  0.25500000000E-02 0.  1.
    5000001    1    1    2    0    0 -0.30836297776E+02 -0.75805000413E+01 -0.20129443278E+03  0.21784579388E+03  0.77000000000E+02 0.  0.
   -5000001    1    1    2    0    0  0.30836297776E+02  0.75805000413E+01 -0.17218018710E+02  0.85051757241E+02  0.77000000000E+02 0.  0.
<mgrwt>
<rscale>  0 0.20975995E+03</rscale>
<asrwt>0</asrwt>
<pdfrwt beam="1">  1        2 0.40108460E-01 0.20975995E+03</pdfrwt>
<pdfrwt beam="2">  1       -2 0.64911617E-02 0.20975995E+03</pdfrwt>
<totfact> 0.16211204E+04</totfact>
</mgrwt>
</event>
<event>
 4    1  0.2489209E-004  0.2693834E+03  0.7818608E-02  0.1101633E+00
          2   -1    0    0  501    0  0.00000000000E+00  0.00000000000E+00  0.65244207475E+02  0.65244207525E+02  0.25500000000E-02 0.  1.
         -2   -1    0    0    0  501 -0.00000000000E+00 -0.00000000000E+00 -0.27806083408E+03  0.27806083409E+03  0.25500000000E-02 0. -1.
    5000001    1    1    2    0    0  0.77313230525E+02 -0.71822796843E+02 -0.14823167723E+03  0.19757904721E+03  0.77000000000E+02 0.  0.
   -5000001    1    1    2    0    0 -0.77313230525E+02  0.71822796843E+02 -0.64584949369E+02  0.14572599441E+03  0.77000000000E+02 0.  0.
<mgrwt>
<rscale>  0 0.26938343E+03</rscale>
<asrwt>0</asrwt>
<pdfrwt beam="1">  1        2 0.10037571E-01 0.26938343E+03</pdfrwt>
<pdfrwt beam="2">  1       -2 0.42778589E-01 0.26938343E+03</pdfrwt>
<totfact> 0.33183861E+03</totfact>
</mgrwt>
</event>
<event>
 4    1  0.2489209E-004  0.2639823E+03  0.7818608E-02  0.1104774E+00
          2   -1    0    0  501    0  0.00000000000E+00  0.00000000000E+00  0.61610992686E+03  0.61610992687E+03  0.25500000000E-02 0.  1.
         -2   -1    0    0    0  501 -0.00000000000E+00 -0.00000000000E+00 -0.28276881890E+02  0.28276882005E+02  0.25500000000E-02 0. -1.
    5000001    1    1    2    0    0  0.57174030026E+02 -0.89758587745E+02  0.32547979191E+03  0.35098656487E+03  0.77000000000E+02 0.  0.
   -5000001    1    1    2    0    0 -0.57174030026E+02  0.89758587745E+02  0.26235325307E+03  0.29340024400E+03  0.77000000000E+02 0.  0.
<mgrwt>
<rscale>  0 0.26398233E+03</rscale>
<asrwt>0</asrwt>
<pdfrwt beam="1">  1        2 0.94786150E-01 0.26398233E+03</pdfrwt>
<pdfrwt beam="2">  1       -2 0.43502892E-02 0.26398233E+03</pdfrwt>
<totfact> 0.11754481E+04</totfact>
</mgrwt>
</event>
<event>
 4    1  0.2489209E-004  0.2132177E+03  0.7818608E-02  0.1139043E+00
         -2   -1    0    0    0  501 -0.00000000000E+00  0.00000000000E+00  0.15521518701E+02  0.15521518910E+02  0.25500000000E-02 0. -1.
          2   -1    0    0  501    0  0.00000000000E+00 -0.00000000000E+00 -0.73223777311E+03  0.73223777311E+03  0.25500000000E-02 0.  1.
    5000001    1    1    2    0    0 -0.34342239533E+02  0.46257651312E+01 -0.58660190819E+03  0.59264794424E+03  0.77000000000E+02 0.  0.
   -5000001    1    1    2    0    0  0.34342239533E+02 -0.46257651312E+01 -0.13011434621E+03  0.15511134778E+03  0.77000000000E+02 0.  0.
<mgrwt>
<rscale>  0 0.21321766E+03</rscale>
<asrwt>0</asrwt>
<pdfrwt beam="1">  1        2 0.11265194E+00 0.21321766E+03</pdfrwt>
<pdfrwt beam="2">  1       -2 0.23879265E-02 0.21321766E+03</pdfrwt>
<totfact> 0.23100479E+04</totfact>
</mgrwt>
</event>
<event>
 4    1  0.2489209E-004  0.4927296E+03  0.7818608E-02  0.1015694E+00
         -2   -1    0    0    0  501 -0.00000000000E+00  0.00000000000E+00  0.20145198220E+03  0.20145198222E+03  0.25500000000E-02 0. -1.
          2   -1    0    0  501    0  0.00000000000E+00 -0.00000000000E+00 -0.30129067183E+03  0.30129067184E+03  0.25500000000E-02 0.  1.
    5000001    1    1    2    0    0  0.21366286646E+03 -0.40989488044E+02 -0.13789595492E+03  0.26884243158E+03  0.77000000000E+02 0.  0.
   -5000001    1    1    2    0    0 -0.21366286646E+03  0.40989488044E+02  0.38057265295E+02  0.23390022248E+03  0.77000000000E+02 0.  0.
<mgrwt>
<rscale>  0 0.49272955E+03</rscale>
<asrwt>0</asrwt>
<pdfrwt beam="1">  1        2 0.46352411E-01 0.49272955E+03</pdfrwt>
<pdfrwt beam="2">  1       -2 0.30992613E-01 0.49272955E+03</pdfrwt>
<totfact> 0.10548066E+03</totfact>
</mgrwt>
</event>
<event>
 4    1  0.2489209E-004  0.1825606E+03  0.7818608E-02  0.1165348E+00
          2   -1    0    0  501    0  0.00000000000E+00  0.00000000000E+00  0.20766484458E+03  0.20766484460E+03  0.25500000000E-02 0.  1.
         -2   -1    0    0    0  501 -0.00000000000E+00 -0.00000000000E+00 -0.40122772637E+02  0.40122772718E+02  0.25500000000E-02 0. -1.
    5000001    1    1    2    0    0  0.16130128468E+02 -0.38792842515E+02  0.49487070921E+02  0.10071264004E+03  0.77000000000E+02 0.  0.
   -5000001    1    1    2    0    0 -0.16130128468E+02  0.38792842515E+02  0.11805500103E+03  0.14707497728E+03  0.77000000000E+02 0.  0.
<mgrwt>
<rscale>  0 0.18256056E+03</rscale>
<asrwt>0</asrwt>
<pdfrwt beam="1">  1        2 0.31948438E-01 0.18256056E+03</pdfrwt>
<pdfrwt beam="2">  1       -2 0.61727342E-02 0.18256056E+03</pdfrwt>
<totfact> 0.22144120E+04</totfact>
</mgrwt>
</event>
<event>
 4    1  0.2489209E-004  0.2543234E+03  0.7818608E-02  0.1110603E+00
         -2   -1    0    0    0  501 -0.00000000000E+00  0.00000000000E+00  0.26961931534E+02  0.26961931655E+02  0.25500000000E-02 0. -1.
          2   -1    0    0  501    0  0.00000000000E+00 -0.00000000000E+00 -0.59973825951E+03  0.59973825952E+03  0.25500000000E-02 0.  1.
    5000001    1    1    2    0    0 -0.84180339340E+02  0.17170390608E+02 -0.15460720019E+03  0.19290810816E+03  0.77000000000E+02 0.  0.
   -5000001    1    1    2    0    0  0.84180339340E+02 -0.17170390608E+02 -0.41816912779E+03  0.43379208301E+03  0.77000000000E+02 0.  0.
<mgrwt>
<rscale>  0 0.25432343E+03</rscale>
<asrwt>0</asrwt>
<pdfrwt beam="1">  1        2 0.92267415E-01 0.25432343E+03</pdfrwt>
<pdfrwt beam="2">  1       -2 0.41479899E-02 0.25432343E+03</pdfrwt>
<totfact> 0.13009765E+04</totfact>
</mgrwt>
</event>
<event>
 4    1  0.2489209E-004  0.1785609E+03  0.7818608E-02  0.1169203E+00
         -2   -1    0    0    0  501 -0.00000000000E+00  0.00000000000E+00  0.82177420791E+01  0.82177424748E+01  0.25500000000E-02 0. -1.
          2   -1    0    0  501    0  0.00000000000E+00 -0.00000000000E+00 -0.96997471715E+03  0.96997471715E+03  0.25500000000E-02 0.  1.
    5000001    1    1    2    0    0 -0.52076792711E+01  0.44641681130E+02 -0.45518192020E+03  0.46383141344E+03  0.77000000000E+02 0.  0.
   -5000001    1    1    2    0    0  0.52076792711E+01 -0.44641681130E+02 -0.50657505487E+03  0.51436104618E+03  0.77000000000E+02 0.  0.
<mgrwt>
<rscale>  0 0.17856094E+03</rscale>
<asrwt>0</asrwt>
<pdfrwt beam="1">  1        2 0.14922679E+00 0.17856094E+03</pdfrwt>
<pdfrwt beam="2">  1       -2 0.12642688E-02 0.17856094E+03</pdfrwt>
<totfact> 0.40094146E+04</totfact>
</mgrwt>
</event>
<event>
 4    1  0.2489209E-004  0.3126751E+03  0.7818608E-02  0.1079071E+00
         -2   -1    0    0    0  501 -0.00000000000E+00  0.00000000000E+00  0.19990306406E+02  0.19990306569E+02  0.25500000000E-02 0. -1.
          2   -1    0    0  501    0  0.00000000000E+00 -0.00000000000E+00 -0.12226642350E+04  0.12226642350E+04  0.25500000000E-02 0.  1.
    5000001    1    1    2    0    0 -0.13331482052E+03 -0.25214866085E+02 -0.64182808950E+03  0.66051565258E+03  0.77000000000E+02 0.  0.
   -5000001    1    1    2    0    0  0.13331482052E+03  0.25214866085E+02 -0.56084583914E+03  0.58213888903E+03  0.77000000000E+02 0.  0.
<mgrwt>
<rscale>  0 0.31267512E+03</rscale>
<asrwt>0</asrwt>
<pdfrwt beam="1">  1        2 0.18810213E+00 0.31267512E+03</pdfrwt>
<pdfrwt beam="2">  1       -2 0.30754327E-02 0.31267512E+03</pdfrwt>
<totfact> 0.79340797E+03</totfact>
</mgrwt>
</event>
<event>
 4    1  0.2489209E-004  0.1946149E+03  0.7818608E-02  0.1154364E+00
         -2   -1    0    0    0  501 -0.00000000000E+00  0.00000000000E+00  0.62204476159E+01  0.62204481385E+01  0.25500000000E-02 0. -1.
          2   -1    0    0  501    0  0.00000000000E+00 -0.00000000000E+00 -0.15221957919E+04  0.15221957919E+04  0.25500000000E-02 0.  1.
    5000001    1    1    2    0    0  0.29055308494E+02  0.32498059201E+02 -0.10759741560E+04  0.10796062797E+04  0.77000000000E+02 0.  0.
   -5000001    1    1    2    0    0 -0.29055308494E+02 -0.32498059201E+02 -0.44000118831E+03  0.44880996036E+03  0.77000000000E+02 0.  0.
<mgrwt>
<rscale>  0 0.19461490E+03</rscale>
<asrwt>0</asrwt>
<pdfrwt beam="1">  1        2 0.23418367E+00 0.19461490E+03</pdfrwt>
<pdfrwt beam="2">  1       -2 0.95699319E-03 0.19461490E+03</pdfrwt>
<totfact> 0.29611486E+04</totfact>
</mgrwt>
</event>
<event>
 4    1  0.2489209E-004  0.2303060E+03  0.7818608E-02  0.1126425E+00
         -2   -1    0    0    0  501 -0.00000000000E+00  0.00000000000E+00  0.51744096732E+02  0.51744096795E+02  0.25500000000E-02 0. -1.
          2   -1    0    0  501    0  0.00000000000E+00 -0.00000000000E+00 -0.25626517443E+03  0.25626517444E+03  0.25500000000E-02 0.  1.
    5000001    1    1    2    0    0  0.27518194883E+02 -0.80985286681E+02 -0.97022080262E+02  0.15052624943E+03  0.77000000000E+02 0.  0.
   -5000001    1    1    2    0    0 -0.27518194883E+02  0.80985286681E+02 -0.10749899743E+03  0.15748302181E+03  0.77000000000E+02 0.  0.
<mgrwt>
<rscale>  0 0.23030597E+03</rscale>
<asrwt>0</asrwt>
<pdfrwt beam="1">  1        2 0.39425411E-01 0.23030597E+03</pdfrwt>
<pdfrwt beam="2">  1       -2 0.79606304E-02 0.23030597E+03</pdfrwt>
<totfact> 0.12115454E+04</totfact>
</mgrwt>
</event>
<event>
 4    1  0.2489209E-004  0.2201697E+03  0.7818608E-02  0.1133757E+00
          2   -1    0    0  501    0  0.00000000000E+00  0.00000000000E+00  0.48886207928E+03  0.48886207929E+03  0.25500000000E-02 0.  1.
         -2   -1    0    0    0  501 -0.00000000000E+00 -0.00000000000E+00 -0.24789555350E+02  0.24789555481E+02  0.25500000000E-02 0. -1.
    5000001    1    1    2    0    0  0.20896444565E+02 -0.75836748001E+02  0.22890635695E+03  0.25399801967E+03  0.77000000000E+02 0.  0.
   -5000001    1    1    2    0    0 -0.20896444565E+02  0.75836748001E+02  0.23516616698E+03  0.25965361510E+03  0.77000000000E+02 0.  0.
<mgrwt>
<rscale>  0 0.22016969E+03</rscale>
<asrwt>0</asrwt>
<pdfrwt beam="1">  1        2 0.75209550E-01 0.22016969E+03</pdfrwt>
<pdfrwt beam="2">  1       -2 0.38137778E-02 0.22016969E+03</pdfrwt>
<totfact> 0.18454750E+04</totfact>
</mgrwt>
</event>
<event>
 4    1  0.2489209E-004  0.2011252E+03  0.7818608E-02  0.1148793E+00
         -2   -1    0    0    0  501 -0.00000000000E+00  0.00000000000E+00  0.15558082523E+03  0.15558082525E+03  0.25500000000E-02 0. -1.
          2   -1    0    0  501    0  0.00000000000E+00 -0.00000000000E+00 -0.65000546659E+02  0.65000546709E+02  0.25500000000E-02 0.  1.
    5000001    1    1    2    0    0  0.45118031235E+02 -0.28926287548E+02  0.55726503394E+01  0.93980962357E+02  0.77000000000E+02 0.  0.
   -5000001    1    1    2    0    0 -0.45118031235E+02  0.28926287548E+02  0.85007628230E+02  0.12660040960E+03  0.77000000000E+02 0.  0.
<mgrwt>
<rscale>  0 0.20112522E+03</rscale>
<asrwt>0</asrwt>
<pdfrwt beam="1">  1        2 0.10000084E-01 0.20112522E+03</pdfrwt>
<pdfrwt beam="2">  1       -2 0.23935511E-01 0.20112522E+03</pdfrwt>
<totfact> 0.95369015E+03</totfact>
</mgrwt>
</event>
<event>
 4    1  0.2489209E-004  0.2601678E+03  0.7818608E-02  0.1107042E+00
         -2   -1    0    0    0  501 -0.00000000000E+00  0.00000000000E+00  0.72431093856E+02  0.72431093901E+02  0.25500000000E-02 0. -1.
          2   -1    0    0  501    0  0.00000000000E+00 -0.00000000000E+00 -0.23362640023E+03  0.23362640024E+03  0.25500000000E-02 0.  1.
    5000001    1    1    2    0    0  0.92426530544E+02 -0.49485177284E+02 -0.81974281124E+02  0.15375379373E+03  0.77000000000E+02 0.  0.
   -5000001    1    1    2    0    0 -0.92426530544E+02  0.49485177284E+02 -0.79221025245E+02  0.15230370042E+03  0.77000000000E+02 0.  0.
<mgrwt>
<rscale>  0 0.26016776E+03</rscale>
<asrwt>0</asrwt>
<pdfrwt beam="1">  1        2 0.35942523E-01 0.26016776E+03</pdfrwt>
<pdfrwt beam="2">  1       -2 0.11143245E-01 0.26016776E+03</pdfrwt>
<totfact> 0.79179749E+03</totfact>
</mgrwt>
</event>
<event>
 4    1  0.2489209E-004  0.2438670E+03  0.7818608E-02  0.1117243E+00
         -2   -1    0    0    0  501 -0.00000000000E+00  0.00000000000E+00  0.10934602631E+02  0.10934602928E+02  0.25500000000E-02 0. -1.
          2   -1    0    0  501    0  0.00000000000E+00 -0.00000000000E+00 -0.13596994780E+04  0.13596994780E+04  0.25500000000E-02 0.  1.
    5000001    1    1    2    0    0  0.88854410010E+02  0.27870150273E+02 -0.76620743839E+03  0.77567692379E+03  0.77000000000E+02 0.  0.
   -5000001    1    1    2    0    0 -0.88854410010E+02 -0.27870150273E+02 -0.58255743698E+03  0.59495715715E+03  0.77000000000E+02 0.  0.
<mgrwt>
<rscale>  0 0.24386696E+03</rscale>
<asrwt>0</asrwt>
<pdfrwt beam="1">  1        2 0.20918440E+00 0.24386696E+03</pdfrwt>
<pdfrwt beam="2">  1       -2 0.16822477E-02 0.24386696E+03</pdfrwt>
<totfact> 0.16129110E+04</totfact>
</mgrwt>
</event>
<event>
 4    1  0.2489209E-004  0.2762874E+03  0.7818608E-02  0.1097734E+00
          2   -1    0    0  501    0  0.00000000000E+00  0.00000000000E+00  0.77043651993E+03  0.77043651993E+03  0.25500000000E-02 0. -1.
         -2   -1    0    0    0  501 -0.00000000000E+00 -0.00000000000E+00 -0.24769960167E+02  0.24769960298E+02  0.25500000000E-02 0.  1.
    5000001    1    1    2    0    0 -0.16290556143E+02  0.97235119404E+02  0.20415510575E+03  0.23943341010E+03  0.77000000000E+02 0.  0.
   -5000001    1    1    2    0    0  0.16290556143E+02 -0.97235119404E+02  0.54151145401E+03  0.55577307013E+03  0.77000000000E+02 0.  0.
<mgrwt>
<rscale>  0 0.27628740E+03</rscale>
<asrwt>0</asrwt>
<pdfrwt beam="1">  1        2 0.11852870E+00 0.27628740E+03</pdfrwt>
<pdfrwt beam="2">  1       -2 0.38107630E-02 0.27628740E+03</pdfrwt>
<totfact> 0.10969893E+04</totfact>
</mgrwt>
</event>
<event>
 4    1  0.2489209E-004  0.2206474E+03  0.7818608E-02  0.1133401E+00
         -2   -1    0    0    0  501 -0.00000000000E+00  0.00000000000E+00  0.14873906517E+03  0.14873906519E+03  0.25500000000E-02 0. -1.
          2   -1    0    0  501    0  0.00000000000E+00 -0.00000000000E+00 -0.81830035779E+02  0.81830035819E+02  0.25500000000E-02 0.  1.
    5000001    1    1    2    0    0  0.62848463018E+02 -0.47213609816E+02  0.25142679333E+02  0.11287253244E+03  0.77000000000E+02 0.  0.
   -5000001    1    1    2    0    0 -0.62848463018E+02  0.47213609816E+02  0.41766350056E+02  0.11769656857E+03  0.77000000000E+02 0.  0.
<mgrwt>
<rscale>  0 0.22064744E+03</rscale>
<asrwt>0</asrwt>
<pdfrwt beam="1">  1        2 0.12589236E-01 0.22064744E+03</pdfrwt>
<pdfrwt beam="2">  1       -2 0.22882933E-01 0.22064744E+03</pdfrwt>
<totfact> 0.78288699E+03</totfact>
</mgrwt>
</event>
<event>
 4    1  0.2489209E-004  0.1760804E+03  0.7818608E-02  0.1171651E+00
         -2   -1    0    0    0  501 -0.00000000000E+00  0.00000000000E+00  0.51235796848E+01  0.51235803193E+01  0.25500000000E-02 0. -1.
          2   -1    0    0  501    0  0.00000000000E+00 -0.00000000000E+00 -0.15128243062E+04  0.15128243062E+04  0.25500000000E-02 0.  1.
    5000001    1    1    2    0    0  0.41239250814E+02 -0.12627113222E+01 -0.65949092310E+03  0.66525149222E+03  0.77000000000E+02 0.  0.
   -5000001    1    1    2    0    0 -0.41239250814E+02  0.12627113222E+01 -0.84820980341E+03  0.85269639430E+03  0.77000000000E+02 0.  0.
<mgrwt>
<rscale>  0 0.17608039E+03</rscale>
<asrwt>0</asrwt>
<pdfrwt beam="1">  1        2 0.23274184E+00 0.17608039E+03</pdfrwt>
<pdfrwt beam="2">  1       -2 0.78824429E-03 0.17608039E+03</pdfrwt>
<totfact> 0.39330790E+04</totfact>
</mgrwt>
</event>
<event>
 4    1  0.2489209E-004  0.3091798E+03  0.7818608E-02  0.1080740E+00
          2   -1    0    0  501    0  0.00000000000E+00  0.00000000000E+00  0.29048385820E+03  0.29048385821E+03  0.25500000000E-02 0.  1.
         -2   -1    0    0    0  501 -0.00000000000E+00 -0.00000000000E+00 -0.82269737351E+02  0.82269737391E+02  0.25500000000E-02 0. -1.
    5000001    1    1    2    0    0  0.11501559297E+03  0.20555981227E+02  0.18332925408E+03  0.23062903198E+03  0.77000000000E+02 0.  0.
   -5000001    1    1    2    0    0 -0.11501559297E+03 -0.20555981227E+02  0.24884866773E+02  0.14212456362E+03  0.77000000000E+02 0.  0.
<mgrwt>
<rscale>  0 0.30917976E+03</rscale>
<asrwt>0</asrwt>
<pdfrwt beam="1">  1        2 0.44689824E-01 0.30917976E+03</pdfrwt>
<pdfrwt beam="2">  1       -2 0.12656883E-01 0.30917976E+03</pdfrwt>
<totfact> 0.51253282E+03</totfact>
</mgrwt>
</event>
<event>
 4    1  0.2489209E-004  0.2179207E+03  0.7818608E-02  0.1135443E+00
         -2   -1    0    0    0  501 -0.00000000000E+00  0.00000000000E+00  0.21756351787E+02  0.21756351936E+02  0.25500000000E-02 0. -1.
          2   -1    0    0  501    0  0.00000000000E+00 -0.00000000000E+00 -0.54569632702E+03  0.54569632703E+03  0.25500000000E-02 0.  1.
    5000001    1    1    2    0    0  0.67067583402E+02  0.24930417216E+02 -0.33670693739E+03  0.35273240301E+03  0.77000000000E+02 0.  0.
   -5000001    1    1    2    0    0 -0.67067583402E+02 -0.24930417216E+02 -0.18723303785E+03  0.21472027596E+03  0.77000000000E+02 0.  0.
<mgrwt>
<rscale>  0 0.21792073E+03</rscale>
<asrwt>0</asrwt>
<pdfrwt beam="1">  1        2 0.83953271E-01 0.21792073E+03</pdfrwt>
<pdfrwt beam="2">  1       -2 0.33471315E-02 0.21792073E+03</pdfrwt>
<totfact> 0.19812270E+04</totfact>
</mgrwt>
</event>
<event>
 4    1  0.2489209E-004  0.2728590E+03  0.7818608E-02  0.1099654E+00
         -2   -1    0    0    0  501 -0.00000000000E+00  0.00000000000E+00  0.19629737131E+03  0.19629737133E+03  0.25500000000E-02 0. -1.
          2   -1    0    0  501    0  0.00000000000E+00 -0.00000000000E+00 -0.94820494090E+02  0.94820494124E+02  0.25500000000E-02 0.  1.
    5000001    1    1    2    0    0  0.54228096734E+02 -0.54051733886E+01 -0.54417075899E+02  0.10890418047E+03  0.77000000000E+02 0.  0.
   -5000001    1    1    2    0    0 -0.54228096734E+02  0.54051733886E+01  0.15589395312E+03  0.18221368498E+03  0.77000000000E+02 0.  0.
<mgrwt>
<rscale>  0 0.27285904E+03</rscale>
<asrwt>0</asrwt>
<pdfrwt beam="1">  1        2 0.14587769E-01 0.27285904E+03</pdfrwt>
<pdfrwt beam="2">  1       -2 0.30199595E-01 0.27285904E+03</pdfrwt>
<totfact> 0.40466973E+03</totfact>
</mgrwt>
</event>
<event>
 4    1  0.2489209E-004  0.3527943E+03  0.7818608E-02  0.1061474E+00
         -2   -1    0    0    0  501 -0.00000000000E+00  0.00000000000E+00  0.20751951743E+03  0.20751951745E+03  0.25500000000E-02 0. -1.
          2   -1    0    0  501    0  0.00000000000E+00 -0.00000000000E+00 -0.14994233719E+03  0.14994233722E+03  0.25500000000E-02 0.  1.
    5000001    1    1    2    0    0  0.32967676535E+02 -0.15524056899E+03  0.29475428580E+02  0.17884155794E+03  0.77000000000E+02 0.  0.
   -5000001    1    1    2    0    0 -0.32967676535E+02  0.15524056899E+03  0.28101751659E+02  0.17862029673E+03  0.77000000000E+02 0.  0.
<mgrwt>
<rscale>  0 0.35279434E+03</rscale>
<asrwt>0</asrwt>
<pdfrwt beam="1">  1        2 0.23068052E-01 0.35279434E+03</pdfrwt>
<pdfrwt beam="2">  1       -2 0.31926079E-01 0.35279434E+03</pdfrwt>
<totfact> 0.21594074E+03</totfact>
</mgrwt>
</event>
<event>
 4    1  0.2489209E-004  0.2104510E+03  0.7818608E-02  0.1141209E+00
         -2   -1    0    0    0  501 -0.00000000000E+00  0.00000000000E+00  0.93484210866E+01  0.93484214344E+01  0.25500000000E-02 0. -1.
          2   -1    0    0  501    0  0.00000000000E+00 -0.00000000000E+00 -0.11844142516E+04  0.11844142516E+04  0.25500000000E-02 0.  1.
    5000001    1    1    2    0    0 -0.65426454769E+02  0.29354328104E+02 -0.59349787651E+03  0.60275287389E+03  0.77000000000E+02 0.  0.
   -5000001    1    1    2    0    0  0.65426454769E+02 -0.29354328104E+02 -0.58156795396E+03  0.59100979911E+03  0.77000000000E+02 0.  0.
<mgrwt>
<rscale>  0 0.21045098E+03</rscale>
<asrwt>0</asrwt>
<pdfrwt beam="1">  1        2 0.18221746E+00 0.21045098E+03</pdfrwt>
<pdfrwt beam="2">  1       -2 0.14382196E-02 0.21045098E+03</pdfrwt>
<totfact> 0.25176184E+04</totfact>
</mgrwt>
</event>
<event>
 4    1  0.2489209E-004  0.1802819E+03  0.7818608E-02  0.1167530E+00
         -2   -1    0    0    0  501 -0.00000000000E+00  0.00000000000E+00  0.26259669077E+02  0.26259669201E+02  0.25500000000E-02 0. -1.
          2   -1    0    0  501    0  0.00000000000E+00 -0.00000000000E+00 -0.30942473510E+03  0.30942473511E+03  0.25500000000E-02 0.  1.
    5000001    1    1    2    0    0 -0.45014794481E+02 -0.12817216071E+02 -0.14605846627E+03  0.17161785548E+03  0.77000000000E+02 0.  0.
   -5000001    1    1    2    0    0  0.45014794481E+02  0.12817216071E+02 -0.13710659975E+03  0.16406654883E+03  0.77000000000E+02 0.  0.
<mgrwt>
<rscale>  0 0.18028190E+03</rscale>
<asrwt>0</asrwt>
<pdfrwt beam="1">  1        2 0.47603803E-01 0.18028190E+03</pdfrwt>
<pdfrwt beam="2">  1       -2 0.40399493E-02 0.18028190E+03</pdfrwt>
<totfact> 0.27350975E+04</totfact>
</mgrwt>
</event>
<event>
 4    1  0.2489209E-004  0.4277848E+03  0.7818608E-02  0.1034562E+00
         -2   -1    0    0    0  501 -0.00000000000E+00  0.00000000000E+00  0.67054122962E+02  0.67054123011E+02  0.25500000000E-02 0. -1.
          2   -1    0    0  501    0  0.00000000000E+00 -0.00000000000E+00 -0.68228398882E+03  0.68228398883E+03  0.25500000000E-02 0.  1.
    5000001    1    1    2    0    0  0.19548630763E+03  0.39935444838E+02 -0.31348192536E+03  0.37948603894E+03  0.77000000000E+02 0.  0.
   -5000001    1    1    2    0    0 -0.19548630763E+03 -0.39935444838E+02 -0.30174794050E+03  0.36985207289E+03  0.77000000000E+02 0.  0.
<mgrwt>
<rscale>  0 0.42778478E+03</rscale>
<asrwt>0</asrwt>
<pdfrwt beam="1">  1        2 0.10496676E+00 0.42778478E+03</pdfrwt>
<pdfrwt beam="2">  1       -2 0.10316019E-01 0.42778478E+03</pdfrwt>
<totfact> 0.27467191E+03</totfact>
</mgrwt>
</event>
<event>
 4    1  0.2489209E-004  0.1725111E+03  0.7818608E-02  0.1175254E+00
         -2   -1    0    0    0  501 -0.00000000000E+00  0.00000000000E+00  0.26588794871E+02  0.26588794993E+02  0.25500000000E-02 0. -1.
          2   -1    0    0  501    0  0.00000000000E+00 -0.00000000000E+00 -0.27981794642E+03  0.27981794643E+03  0.25500000000E-02 0.  1.
    5000001    1    1    2    0    0  0.37951808407E+02 -0.75179844591E+01 -0.11993043225E+03  0.14767927556E+03  0.77000000000E+02 0.  0.
   -5000001    1    1    2    0    0 -0.37951808407E+02  0.75179844591E+01 -0.13329871930E+03  0.15872746586E+03  0.77000000000E+02 0.  0.
<mgrwt>
<rscale>  0 0.17251112E+03</rscale>
<asrwt>0</asrwt>
<pdfrwt beam="1">  1        2 0.43048913E-01 0.17251112E+03</pdfrwt>
<pdfrwt beam="2">  1       -2 0.40905840E-02 0.17251112E+03</pdfrwt>
<totfact> 0.29768959E+04</totfact>
</mgrwt>
</event>
<event>
 4    1  0.2489209E-004  0.2171342E+03  0.7818608E-02  0.1136038E+00
          2   -1    0    0  501    0  0.00000000000E+00  0.00000000000E+00  0.20441809949E+04  0.20441809949E+04  0.25500000000E-02 0.  1.
         -2   -1    0    0    0  501 -0.00000000000E+00 -0.00000000000E+00 -0.57660330098E+01  0.57660335736E+01  0.25500000000E-02 0. -1.
    5000001    1    1    2    0    0  0.23911363047E+02  0.61373360622E+02  0.13872064475E+04  0.13909022866E+04  0.77000000000E+02 0.  0.
   -5000001    1    1    2    0    0 -0.23911363047E+02 -0.61373360622E+02  0.65120851437E+03  0.65904474193E+03  0.77000000000E+02 0.  0.
<mgrwt>
<rscale>  0 0.21713420E+03</rscale>
<asrwt>0</asrwt>
<pdfrwt beam="1">  1        2 0.31448975E+00 0.21713420E+03</pdfrwt>
<pdfrwt beam="2">  1       -2 0.88708102E-03 0.21713420E+03</pdfrwt>
<totfact> 0.17736887E+04</totfact>
</mgrwt>
</event>
<event>
 4    1  0.2489209E-004  0.2112949E+03  0.7818608E-02  0.1140545E+00
         -2   -1    0    0    0  501 -0.00000000000E+00  0.00000000000E+00  0.32671061554E+02  0.32671061654E+02  0.25500000000E-02 0. -1.
          2   -1    0    0  501    0  0.00000000000E+00 -0.00000000000E+00 -0.34162908884E+03  0.34162908885E+03  0.25500000000E-02 0.  1.
    5000001    1    1    2    0    0 -0.28922409351E+02 -0.61418913554E+02 -0.19871571432E+03  0.22366431057E+03  0.77000000000E+02 0.  0.
   -5000001    1    1    2    0    0  0.28922409351E+02  0.61418913554E+02 -0.11024231297E+03  0.15063583994E+03  0.77000000000E+02 0.  0.
<mgrwt>
<rscale>  0 0.21129491E+03</rscale>
<asrwt>0</asrwt>
<pdfrwt beam="1">  1        2 0.52558319E-01 0.21129491E+03</pdfrwt>
<pdfrwt beam="2">  1       -2 0.50263174E-02 0.21129491E+03</pdfrwt>
<totfact> 0.17930117E+04</totfact>
</mgrwt>
</event>
<event>
 4    1  0.2489209E-004  0.2511314E+03  0.7818608E-02  0.1112592E+00
         -2   -1    0    0    0  501 -0.00000000000E+00  0.00000000000E+00  0.13443229382E+03  0.13443229384E+03  0.25500000000E-02 0. -1.
          2   -1    0    0  501    0  0.00000000000E+00 -0.00000000000E+00 -0.11728389957E+03  0.11728389960E+03  0.25500000000E-02 0.  1.
    5000001    1    1    2    0    0 -0.68385274037E+02 -0.70631315906E+02 -0.45870754651E+01  0.12496147307E+03  0.77000000000E+02 0.  0.
   -5000001    1    1    2    0    0  0.68385274037E+02  0.70631315906E+02  0.21735469711E+02  0.12675472037E+03  0.77000000000E+02 0.  0.
<mgrwt>
<rscale>  0 0.25113139E+03</rscale>
<asrwt>0</asrwt>
<pdfrwt beam="1">  1        2 0.18043677E-01 0.25113139E+03</pdfrwt>
<pdfrwt beam="2">  1       -2 0.20681891E-01 0.25113139E+03</pdfrwt>
<totfact> 0.61303667E+03</totfact>
</mgrwt>
</event>
<event>
 4    1  0.2489209E-004  0.1762871E+03  0.7818608E-02  0.1171446E+00
          2   -1    0    0  501    0  0.00000000000E+00  0.00000000000E+00  0.54008960137E+03  0.54008960138E+03  0.25500000000E-02 0.  1.
         -2   -1    0    0    0  501 -0.00000000000E+00 -0.00000000000E+00 -0.14385184065E+02  0.14385184291E+02  0.25500000000E-02 0. -1.
    5000001    1    1    2    0    0 -0.22101598337E+02  0.35191855782E+02  0.29633755236E+03  0.30898526227E+03  0.77000000000E+02 0.  0.
   -5000001    1    1    2    0    0  0.22101598337E+02 -0.35191855782E+02  0.22936686495E+03  0.24548952340E+03  0.77000000000E+02 0.  0.
<mgrwt>
<rscale>  0 0.17628713E+03</rscale>
<asrwt>0</asrwt>
<pdfrwt beam="1">  1        2 0.83090713E-01 0.17628713E+03</pdfrwt>
<pdfrwt beam="2">  1       -2 0.22131051E-02 0.17628713E+03</pdfrwt>
<totfact> 0.36312123E+04</totfact>
</mgrwt>
</event>
<event>
 4    1  0.2489209E-004  0.2382941E+03  0.7818608E-02  0.1120934E+00
         -2   -1    0    0    0  501 -0.00000000000E+00  0.00000000000E+00  0.54313273454E+01  0.54313279440E+01  0.25500000000E-02 0. -1.
          2   -1    0    0  501    0  0.00000000000E+00 -0.00000000000E+00 -0.26137287025E+04  0.26137287025E+04  0.25500000000E-02 0.  1.
    5000001    1    1    2    0    0 -0.25229344157E+02  0.81517877630E+02 -0.95913188192E+03  0.96599412581E+03  0.77000000000E+02 0.  0.
   -5000001    1    1    2    0    0  0.25229344157E+02 -0.81517877630E+02 -0.16491654932E+04  0.16531659046E+04  0.77000000000E+02 0.  0.
<mgrwt>
<rscale>  0 0.23829408E+03</rscale>
<asrwt>0</asrwt>
<pdfrwt beam="1">  1        2 0.40211110E+00 0.23829408E+03</pdfrwt>
<pdfrwt beam="2">  1       -2 0.83559095E-03 0.23829408E+03</pdfrwt>
<totfact> 0.95957638E+03</totfact>
</mgrwt>
</event>
<event>
 4    1  0.2489209E-004  0.4505845E+03  0.7818608E-02  0.1027548E+00
         -2   -1    0    0    0  501 -0.00000000000E+00  0.00000000000E+00  0.36012251110E+02  0.36012251201E+02  0.25500000000E-02 0. -1.
          2   -1    0    0  501    0  0.00000000000E+00 -0.00000000000E+00 -0.14094260623E+04  0.14094260623E+04  0.25500000000E-02 0.  1.
    5000001    1    1    2    0    0  0.29607680605E+02  0.20810467990E+03 -0.76807888482E+03  0.80003646533E+03  0.77000000000E+02 0.  0.
   -5000001    1    1    2    0    0 -0.29607680605E+02 -0.20810467990E+03 -0.60533492636E+03  0.64540184817E+03  0.77000000000E+02 0.  0.
<mgrwt>
<rscale>  0 0.45058453E+03</rscale>
<asrwt>0</asrwt>
<pdfrwt beam="1">  1        2 0.21683474E+00 0.45058453E+03</pdfrwt>
<pdfrwt beam="2">  1       -2 0.55403474E-02 0.45058453E+03</pdfrwt>
<totfact> 0.25521476E+03</totfact>
</mgrwt>
</event>
<event>
 4    1  0.2489209E-004  0.3072302E+03  0.7818608E-02  0.1081681E+00
          2   -1    0    0  501    0  0.00000000000E+00  0.00000000000E+00  0.12408247493E+04  0.12408247493E+04  0.25500000000E-02 0.  1.
         -2   -1    0    0    0  501 -0.00000000000E+00 -0.00000000000E+00 -0.19017672472E+02  0.19017672643E+02  0.25500000000E-02 0. -1.
    5000001    1    1    2    0    0  0.46326426663E+02 -0.71731207108E+02  0.19317877641E+03  0.22480779242E+03  0.77000000000E+02 0.  0.
   -5000001    1    1    2    0    0 -0.46326426663E+02  0.71731207108E+02  0.10286283005E+04  0.10350346296E+04  0.77000000000E+02 0.  0.
<mgrwt>
<rscale>  0 0.30723020E+03</rscale>
<asrwt>0</asrwt>
<pdfrwt beam="1">  1        2 0.19089613E+00 0.30723020E+03</pdfrwt>
<pdfrwt beam="2">  1       -2 0.29257956E-02 0.30723020E+03</pdfrwt>
<totfact> 0.83451003E+03</totfact>
</mgrwt>
</event>
<event>
 4    1  0.2489209E-004  0.2465688E+03  0.7818608E-02  0.1115493E+00
          2   -1    0    0  501    0  0.00000000000E+00  0.00000000000E+00  0.40978052073E+03  0.40978052074E+03  0.25500000000E-02 0.  1.
         -2   -1    0    0    0  501 -0.00000000000E+00 -0.00000000000E+00 -0.37090701631E+02  0.37090701719E+02  0.25500000000E-02 0. -1.
    5000001    1    1    2    0    0  0.39802104345E+02  0.82897755588E+02  0.23804645175E+03  0.26655460713E+03  0.77000000000E+02 0.  0.
   -5000001    1    1    2    0    0 -0.39802104345E+02 -0.82897755588E+02  0.13464336735E+03  0.18031661533E+03  0.77000000000E+02 0.  0.
<mgrwt>
<rscale>  0 0.24656883E+03</rscale>
<asrwt>0</asrwt>
<pdfrwt beam="1">  1        2 0.63043156E-01 0.24656883E+03</pdfrwt>
<pdfrwt beam="2">  1       -2 0.57062619E-02 0.24656883E+03</pdfrwt>
<totfact> 0.12260946E+04</totfact>
</mgrwt>
</event>
<event>
 4    1  0.2489209E-004  0.2561390E+03  0.7818608E-02  0.1109485E+00
          2   -1    0    0  501    0  0.00000000000E+00  0.00000000000E+00  0.38428107952E+02  0.38428108037E+02  0.25500000000E-02 0.  1.
         -2   -1    0    0    0  501 -0.00000000000E+00 -0.00000000000E+00 -0.42681759792E+03  0.42681759793E+03  0.25500000000E-02 0. -1.
    5000001    1    1    2    0    0 -0.23141214807E+02 -0.83772785669E+02 -0.96053103065E+02  0.15069370939E+03  0.77000000000E+02 0.  0.
   -5000001    1    1    2    0    0  0.23141214807E+02  0.83772785669E+02 -0.29233638690E+03  0.31455199657E+03  0.77000000000E+02 0.  0.
<mgrwt>
<rscale>  0 0.25613897E+03</rscale>
<asrwt>0</asrwt>
<pdfrwt beam="1">  1        2 0.59120169E-02 0.25613897E+03</pdfrwt>
<pdfrwt beam="2">  1       -2 0.65664243E-01 0.25613897E+03</pdfrwt>
<totfact> 0.27375760E+03</totfact>
</mgrwt>
</event>
<event>
 4    1  0.2489209E-004  0.4224436E+03  0.7818608E-02  0.1036274E+00
          2   -1    0    0  501    0  0.00000000000E+00  0.00000000000E+00  0.17630146327E+04  0.17630146327E+04  0.25500000000E-02 0.  1.
         -2   -1    0    0    0  501 -0.00000000000E+00 -0.00000000000E+00 -0.25305890979E+02  0.25305891108E+02  0.25500000000E-02 0. -1.
    5000001    1    1    2    0    0  0.10672424897E+03 -0.16482022903E+03  0.82060932422E+03  0.84728061243E+03  0.77000000000E+02 0.  0.
   -5000001    1    1    2    0    0 -0.10672424897E+03  0.16482022903E+03  0.91709941751E+03  0.94103991138E+03  0.77000000000E+02 0.  0.
<mgrwt>
<rscale>  0 0.42244364E+03</rscale>
<asrwt>0</asrwt>
<pdfrwt beam="1">  1        2 0.27123306E+00 0.42244364E+03</pdfrwt>
<pdfrwt beam="2">  1       -2 0.38932135E-02 0.42244364E+03</pdfrwt>
<totfact> 0.28231940E+03</totfact>
</mgrwt>
</event>
<event>
 4    1  0.2489209E-004  0.2341988E+03  0.7818608E-02  0.1123719E+00
         -2   -1    0    0    0  501 -0.00000000000E+00  0.00000000000E+00  0.64379740053E+02  0.64379740104E+02  0.25500000000E-02 0. -1.
          2   -1    0    0  501    0  0.00000000000E+00 -0.00000000000E+00 -0.21299051451E+03  0.21299051452E+03  0.25500000000E-02 0.  1.
    5000001    1    1    2    0    0 -0.84789202344E+02  0.23335759551E+02 -0.65972212897E+02  0.13422033893E+03  0.77000000000E+02 0.  0.
   -5000001    1    1    2    0    0  0.84789202344E+02 -0.23335759551E+02 -0.82638561558E+02  0.14314991570E+03  0.77000000000E+02 0.  0.
<mgrwt>
<rscale>  0 0.23419884E+03</rscale>
<asrwt>0</asrwt>
<pdfrwt beam="1">  1        2 0.32767771E-01 0.23419884E+03</pdfrwt>
<pdfrwt beam="2">  1       -2 0.99045755E-02 0.23419884E+03</pdfrwt>
<totfact> 0.10509528E+04</totfact>
</mgrwt>
</event>
<event>
 4    1  0.2489209E-004  0.2858530E+03  0.7818608E-02  0.1092534E+00
         -2   -1    0    0    0  501 -0.00000000000E+00  0.00000000000E+00  0.68920119248E+02  0.68920119295E+02  0.25500000000E-02 0. -1.
          2   -1    0    0  501    0  0.00000000000E+00 -0.00000000000E+00 -0.29640087653E+03  0.29640087654E+03  0.25500000000E-02 0.  1.
    5000001    1    1    2    0    0 -0.31135741813E+02 -0.11582621977E+03 -0.12737590820E+03  0.19115116948E+03  0.77000000000E+02 0.  0.
   -5000001    1    1    2    0    0  0.31135741813E+02  0.11582621977E+03 -0.10010484908E+03  0.17416982636E+03  0.77000000000E+02 0.  0.
<mgrwt>
<rscale>  0 0.28585300E+03</rscale>
<asrwt>0</asrwt>
<pdfrwt beam="1">  1        2 0.45600134E-01 0.28585300E+03</pdfrwt>
<pdfrwt beam="2">  1       -2 0.10603095E-01 0.28585300E+03</pdfrwt>
<totfact> 0.66565951E+03</totfact>
</mgrwt>
</event>
<event>
 4    1  0.2489209E-004  0.1771149E+03  0.7818608E-02  0.1170625E+00
          2   -1    0    0  501    0  0.00000000000E+00  0.00000000000E+00  0.18455540709E+04  0.18455540709E+04  0.25500000000E-02 0.  1.
         -2   -1    0    0    0  501 -0.00000000000E+00 -0.00000000000E+00 -0.42493586220E+01  0.42493593871E+01  0.25500000000E-02 0. -1.
    5000001    1    1    2    0    0  0.65107483705E+00 -0.27109563896E+02  0.56217978176E+03  0.56807610350E+03  0.77000000000E+02 0.  0.
   -5000001    1    1    2    0    0 -0.65107483705E+00  0.27109563896E+02  0.12791249305E+04  0.12817273268E+04  0.77000000000E+02 0.  0.
<mgrwt>
<rscale>  0 0.17711490E+03</rscale>
<asrwt>0</asrwt>
<pdfrwt beam="1">  1        2 0.28393105E+00 0.17711490E+03</pdfrwt>
<pdfrwt beam="2">  1       -2 0.65374834E-03 0.17711490E+03</pdfrwt>
<totfact> 0.34545400E+04</totfact>
</mgrwt>
</event>
<event>
 4    1  0.2489209E-004  0.1963710E+03  0.7818608E-02  0.1152837E+00
         -2   -1    0    0    0  501 -0.00000000000E+00  0.00000000000E+00  0.49052952074E+01  0.49052958702E+01  0.25500000000E-02 0.  1.
          2   -1    0    0  501    0  0.00000000000E+00 -0.00000000000E+00 -0.19653034891E+04  0.19653034891E+04  0.25500000000E-02 0. -1.
    5000001    1    1    2    0    0 -0.31615289722E+02 -0.43916862040E+02 -0.12609782443E+04  0.12644854091E+04  0.77000000000E+02 0.  0.
   -5000001    1    1    2    0    0  0.31615289722E+02  0.43916862040E+02 -0.69941994962E+03  0.70572337586E+03  0.77000000000E+02 0.  0.
<mgrwt>
<rscale>  0 0.19637102E+03</rscale>
<asrwt>0</asrwt>
<pdfrwt beam="1">  1        2 0.30235375E+00 0.19637102E+03</pdfrwt>
<pdfrwt beam="2">  1       -2 0.75466242E-03 0.19637102E+03</pdfrwt>
<totfact> 0.24510293E+04</totfact>
</mgrwt>
</event>
<event>
 4    1  0.2489209E-004  0.3050784E+03  0.7818608E-02  0.1082729E+00
          2   -1    0    0  501    0  0.00000000000E+00  0.00000000000E+00  0.81419290638E+03  0.81419290638E+03  0.25500000000E-02 0.  1.
         -2   -1    0    0    0  501 -0.00000000000E+00 -0.00000000000E+00 -0.28578257247E+02  0.28578257360E+02  0.25500000000E-02 0. -1.
    5000001    1    1    2    0    0  0.40811494896E+02 -0.11019452100E+03  0.55695507536E+03  0.57440087617E+03  0.77000000000E+02 0.  0.
   -5000001    1    1    2    0    0 -0.40811494896E+02  0.11019452100E+03  0.22865957377E+03  0.26837028757E+03  0.77000000000E+02 0.  0.
<mgrwt>
<rscale>  0 0.30507844E+03</rscale>
<asrwt>0</asrwt>
<pdfrwt beam="1">  1        2 0.12526045E+00 0.30507844E+03</pdfrwt>
<pdfrwt beam="2">  1       -2 0.43966550E-02 0.30507844E+03</pdfrwt>
<totfact> 0.82669969E+03</totfact>
</mgrwt>
</event>
<event>
 4    1  0.2489209E-004  0.1244064E+04  0.7818608E-02  0.9075138E-01
         -2   -1    0    0    0  501 -0.00000000000E+00  0.00000000000E+00  0.22504731512E+03  0.22504731514E+03  0.25500000000E-02 0. -1.
          2   -1    0    0  501    0  0.00000000000E+00 -0.00000000000E+00 -0.17192999403E+04  0.17192999403E+04  0.25500000000E-02 0.  1.
    5000001    1    1    2    0    0 -0.43690666212E+03  0.30650625873E+03 -0.26247287670E+03  0.59971203843E+03  0.77000000000E+02 0.  0.
   -5000001    1    1    2    0    0  0.43690666212E+03 -0.30650625873E+03 -0.12317797485E+04  0.13446352170E+04  0.77000000000E+02 0.  0.
<mgrwt>
<rscale>  0 0.12440640E+04</rscale>
<asrwt>0</asrwt>
<pdfrwt beam="1">  1        2 0.26450768E+00 0.12440640E+04</pdfrwt>
<pdfrwt beam="2">  1       -2 0.34622665E-01 0.12440640E+04</pdfrwt>
<totfact> 0.73616127E+01</totfact>
</mgrwt>
</event>
<event>
 4    1  0.2489209E-004  0.2588204E+03  0.7818608E-02  0.1107854E+00
          2   -1    0    0  501    0  0.00000000000E+00  0.00000000000E+00  0.91565168660E+03  0.91565168661E+03  0.25500000000E-02 0.  1.
         -2   -1    0    0    0  501 -0.00000000000E+00 -0.00000000000E+00 -0.18289707896E+02  0.18289708074E+02  0.25500000000E-02 0. -1.
    5000001    1    1    2    0    0  0.61588998109E+02  0.53451049323E+02  0.21572513856E+03  0.24313896185E+03  0.77000000000E+02 0.  0.
   -5000001    1    1    2    0    0 -0.61588998109E+02 -0.53451049323E+02  0.68163684014E+03  0.69080243283E+03  0.77000000000E+02 0.  0.
<mgrwt>
<rscale>  0 0.25882042E+03</rscale>
<asrwt>0</asrwt>
<pdfrwt beam="1">  1        2 0.14086950E+00 0.25882042E+03</pdfrwt>
<pdfrwt beam="2">  1       -2 0.28138010E-02 0.25882042E+03</pdfrwt>
<totfact> 0.13750412E+04</totfact>
</mgrwt>
</event>
<event>
 4    1  0.2489209E-004  0.2465306E+03  0.7818608E-02  0.1115517E+00
         -2   -1    0    0    0  501 -0.00000000000E+00  0.00000000000E+00  0.16117812106E+03  0.16117812108E+03  0.25500000000E-02 0. -1.
          2   -1    0    0  501    0  0.00000000000E+00 -0.00000000000E+00 -0.94270451267E+02  0.94270451301E+02  0.25500000000E-02 0.  1.
    5000001    1    1    2    0    0  0.57326375912E+02 -0.46350608968E+02 -0.30677225861E+02  0.11092693322E+03  0.77000000000E+02 0.  0.
   -5000001    1    1    2    0    0 -0.57326375912E+02  0.46350608968E+02  0.97584895658E+02  0.14452163917E+03  0.77000000000E+02 0.  0.
<mgrwt>
<rscale>  0 0.24653060E+03</rscale>
<asrwt>0</asrwt>
<pdfrwt beam="1">  1        2 0.14503146E-01 0.24653060E+03</pdfrwt>
<pdfrwt beam="2">  1       -2 0.24796634E-01 0.24653060E+03</pdfrwt>
<totfact> 0.57745593E+03</totfact>
</mgrwt>
</event>
<event>
 4    1  0.2489209E-004  0.1651330E+03  0.7818608E-02  0.1183020E+00
         -2   -1    0    0    0  501 -0.00000000000E+00  0.00000000000E+00  0.29452913684E+01  0.29452924722E+01  0.25500000000E-02 0. -1.
          2   -1    0    0  501    0  0.00000000000E+00 -0.00000000000E+00 -0.23146192509E+04  0.23146192509E+04  0.25500000000E-02 0.  1.
    5000001    1    1    2    0    0 -0.29124365760E+02 -0.35171438345E+01 -0.12296089654E+04  0.12323667501E+04  0.77000000000E+02 0.  0.
   -5000001    1    1    2    0    0  0.29124365760E+02  0.35171438345E+01 -0.10820649941E+04  0.10851977932E+04  0.77000000000E+02 0.  0.
<mgrwt>
<rscale>  0 0.16513303E+03</rscale>
<asrwt>0</asrwt>
<pdfrwt beam="1">  1        2 0.35609381E+00 0.16513303E+03</pdfrwt>
<pdfrwt beam="2">  1       -2 0.45312369E-03 0.16513303E+03</pdfrwt>
<totfact> 0.33102889E+04</totfact>
</mgrwt>
</event>
<event>
 4    1  0.2489209E-004  0.2489929E+03  0.7818608E-02  0.1113943E+00
         -2   -1    0    0    0  501 -0.00000000000E+00  0.00000000000E+00  0.11426921882E+02  0.11426922167E+02  0.25500000000E-02 0. -1.
          2   -1    0    0  501    0  0.00000000000E+00 -0.00000000000E+00 -0.13563908262E+04  0.13563908262E+04  0.25500000000E-02 0.  1.
    5000001    1    1    2    0    0 -0.31962359702E+02 -0.18604054242E+01 -0.11802967082E+04  0.11832389332E+04  0.77000000000E+02 0.  0.
   -5000001    1    1    2    0    0  0.31962359702E+02  0.18604054242E+01 -0.16466719605E+03  0.18457881515E+03  0.77000000000E+02 0.  0.
<mgrwt>
<rscale>  0 0.24899295E+03</rscale>
<asrwt>0</asrwt>
<pdfrwt beam="1">  1        2 0.20867538E+00 0.24899295E+03</pdfrwt>
<pdfrwt beam="2">  1       -2 0.17579891E-02 0.24899295E+03</pdfrwt>
<totfact> 0.15196800E+04</totfact>
</mgrwt>
</event>
<event>
 4    1  0.2489209E-004  0.3910378E+03  0.7818608E-02  0.1046928E+00
          2   -1    0    0  501    0  0.00000000000E+00  0.00000000000E+00  0.33763688419E+04  0.33763688419E+04  0.25500000000E-02 0.  1.
         -2   -1    0    0    0  501 -0.00000000000E+00 -0.00000000000E+00 -0.11322113704E+02  0.11322113991E+02  0.25500000000E-02 0. -1.
    5000001    1    1    2    0    0  0.25884872704E+02 -0.15678343392E+03  0.24098081437E+04  0.24162688926E+04  0.77000000000E+02 0.  0.
   -5000001    1    1    2    0    0 -0.25884872704E+02  0.15678343392E+03  0.95523858450E+03  0.97142206332E+03  0.77000000000E+02 0.  0.
<mgrwt>
<rscale>  0 0.39103776E+03</rscale>
<asrwt>0</asrwt>
<pdfrwt beam="1">  1        2 0.51944150E+00 0.39103776E+03</pdfrwt>
<pdfrwt beam="2">  1       -2 0.17418632E-02 0.39103776E+03</pdfrwt>
<totfact> 0.11346817E+03</totfact>
</mgrwt>
</event>
<event>
 4    1  0.2489209E-004  0.2045280E+03  0.7818608E-02  0.1145974E+00
          2   -1    0    0  501    0  0.00000000000E+00  0.00000000000E+00  0.64165726802E+03  0.64165726803E+03  0.25500000000E-02 0.  1.
         -2   -1    0    0    0  501 -0.00000000000E+00 -0.00000000000E+00 -0.16298298543E+02  0.16298298742E+02  0.25500000000E-02 0. -1.
    5000001    1    1    2    0    0  0.48773398967E+02 -0.46272498914E+02  0.32229443292E+03  0.33811638543E+03  0.77000000000E+02 0.  0.
   -5000001    1    1    2    0    0 -0.48773398967E+02  0.46272498914E+02  0.30306453656E+03  0.31983918134E+03  0.77000000000E+02 0.  0.
<mgrwt>
<rscale>  0 0.20452796E+03</rscale>
<asrwt>0</asrwt>
<pdfrwt beam="1">  1        2 0.98716520E-01 0.20452796E+03</pdfrwt>
<pdfrwt beam="2">  1       -2 0.25074301E-02 0.20452796E+03</pdfrwt>
<totfact> 0.25109491E+04</totfact>
</mgrwt>
</event>
<event>
 4    1  0.2489209E-004  0.2406384E+03  0.7818608E-02  0.1119368E+00
          2   -1    0    0  501    0  0.00000000000E+00  0.00000000000E+00  0.51208752618E+03  0.51208752618E+03  0.25500000000E-02 0. -1.
         -2   -1    0    0    0  501 -0.00000000000E+00 -0.00000000000E+00 -0.28270000257E+02  0.28270000372E+02  0.25500000000E-02 0.  1.
    5000001    1    1    2    0    0 -0.57456694576E+02 -0.66807962649E+02  0.17906884582E+03  0.21391406491E+03  0.77000000000E+02 0.  0.
   -5000001    1    1    2    0    0  0.57456694576E+02  0.66807962649E+02  0.30474868010E+03  0.32644346164E+03  0.77000000000E+02 0.  0.
<mgrwt>
<rscale>  0 0.24063844E+03</rscale>
<asrwt>0</asrwt>
<pdfrwt beam="1">  1        2 0.78782688E-01 0.24063844E+03</pdfrwt>
<pdfrwt beam="2">  1       -2 0.43492313E-02 0.24063844E+03</pdfrwt>
<totfact> 0.14461922E+04</totfact>
</mgrwt>
</event>
<event>
 4    1  0.2489209E-004  0.2849755E+03  0.7818608E-02  0.1093002E+00
         -2   -1    0    0    0  501 -0.00000000000E+00  0.00000000000E+00  0.37601948993E+03  0.37601948993E+03  0.25500000000E-02 0. -1.
          2   -1    0    0  501    0  0.00000000000E+00 -0.00000000000E+00 -0.53993897610E+02  0.53993897670E+02  0.25500000000E-02 0.  1.
    5000001    1    1    2    0    0  0.82789523522E+02 -0.66629615454E+02  0.24475804645E+03  0.27772128504E+03  0.77000000000E+02 0.  0.
   -5000001    1    1    2    0    0 -0.82789523522E+02  0.66629615454E+02  0.77267545865E+02  0.15229210257E+03  0.77000000000E+02 0.  0.
<mgrwt>
<rscale>  0 0.28497549E+03</rscale>
<asrwt>0</asrwt>
<pdfrwt beam="1">  1        2 0.83067537E-02 0.28497549E+03</pdfrwt>
<pdfrwt beam="2">  1       -2 0.57849151E-01 0.28497549E+03</pdfrwt>
<totfact> 0.23088318E+03</totfact>
</mgrwt>
</event>
<event>
 4    1  0.2489209E-004  0.4303380E+03  0.7818608E-02  0.1033753E+00
          2   -1    0    0  501    0  0.00000000000E+00  0.00000000000E+00  0.53755552558E+02  0.53755552619E+02  0.25500000000E-02 0.  1.
         -2   -1    0    0    0  501 -0.00000000000E+00 -0.00000000000E+00 -0.86126375946E+03  0.86126375946E+03  0.25500000000E-02 0. -1.
    5000001    1    1    2    0    0  0.17539934609E+03 -0.82288465555E+02 -0.29059309219E+03  0.35764461047E+03  0.77000000000E+02 0.  0.
   -5000001    1    1    2    0    0 -0.17539934609E+03  0.82288465555E+02 -0.51691511471E+03  0.55737470161E+03  0.77000000000E+02 0.  0.
<mgrwt>
<rscale>  0 0.43033805E+03</rscale>
<asrwt>0</asrwt>
<pdfrwt beam="1">  1        2 0.82700856E-02 0.43033805E+03</pdfrwt>
<pdfrwt beam="2">  1       -2 0.13250211E+00 0.43033805E+03</pdfrwt>
<totfact> 0.35559892E+02</totfact>
</mgrwt>
</event>
<event>
 4    1  0.2489209E-004  0.6827762E+03  0.7818608E-02  0.9747149E-01
         -2   -1    0    0    0  501 -0.00000000000E+00  0.00000000000E+00  0.15186942432E+03  0.15186942435E+03  0.25500000000E-02 0.  1.
          2   -1    0    0  501    0  0.00000000000E+00 -0.00000000000E+00 -0.76740808777E+03  0.76740808777E+03  0.25500000000E-02 0. -1.
    5000001    1    1    2    0    0 -0.19236241455E+03  0.19497518648E+03 -0.56179775744E+03  0.62973354852E+03  0.77000000000E+02 0.  0.
   -5000001    1    1    2    0    0  0.19236241455E+03 -0.19497518648E+03 -0.53740906008E+02  0.28954396359E+03  0.77000000000E+02 0.  0.
<mgrwt>
<rscale>  0 0.68277617E+03</rscale>
<asrwt>0</asrwt>
<pdfrwt beam="1">  1        2 0.11806278E+00 0.68277617E+03</pdfrwt>
<pdfrwt beam="2">  1       -2 0.23364527E-01 0.68277617E+03</pdfrwt>
<totfact> 0.59280608E+02</totfact>
</mgrwt>
</event>
<event>
 4    1  0.2489209E-004  0.2365192E+03  0.7818608E-02  0.1122134E+00
          2   -1    0    0  501    0  0.00000000000E+00  0.00000000000E+00  0.23471652780E+03  0.23471652782E+03  0.25500000000E-02 0.  1.
         -2   -1    0    0    0  501 -0.00000000000E+00 -0.00000000000E+00 -0.59583923894E+02  0.59583923949E+02  0.25500000000E-02 0. -1.
    5000001    1    1    2    0    0 -0.28343280156E+02  0.66529677222E+02  0.15372264545E+03  0.18651860820E+03  0.77000000000E+02 0.  0.
   -5000001    1    1    2    0    0  0.28343280156E+02 -0.66529677222E+02  0.21409958462E+02  0.10778184357E+03  0.77000000000E+02 0.  0.
<mgrwt>
<rscale>  0 0.23651919E+03</rscale>
<asrwt>0</asrwt>
<pdfrwt beam="1">  1        2 0.36110235E-01 0.23651919E+03</pdfrwt>
<pdfrwt beam="2">  1       -2 0.91667575E-02 0.23651919E+03</pdfrwt>
<totfact> 0.10694917E+04</totfact>
</mgrwt>
</event>
<event>
 4    1  0.2489209E-004  0.1867448E+03  0.7818608E-02  0.1161431E+00
          2   -1    0    0  501    0  0.00000000000E+00  0.00000000000E+00  0.30750121216E+03  0.30750121217E+03  0.25500000000E-02 0.  1.
         -2   -1    0    0    0  501 -0.00000000000E+00 -0.00000000000E+00 -0.28352417927E+02  0.28352418041E+02  0.25500000000E-02 0. -1.
    5000001    1    1    2    0    0  0.48646636206E+02  0.16895995972E+02  0.16065811073E+03  0.18545079788E+03  0.77000000000E+02 0.  0.
   -5000001    1    1    2    0    0 -0.48646636206E+02 -0.16895995972E+02  0.11849068351E+03  0.15040283233E+03  0.77000000000E+02 0.  0.
<mgrwt>
<rscale>  0 0.18674478E+03</rscale>
<asrwt>0</asrwt>
<pdfrwt beam="1">  1        2 0.47307877E-01 0.18674478E+03</pdfrwt>
<pdfrwt beam="2">  1       -2 0.43619107E-02 0.18674478E+03</pdfrwt>
<totfact> 0.24620150E+04</totfact>
</mgrwt>
</event>
<event>
 4    1  0.2489209E-004  0.2121586E+03  0.7818608E-02  0.1139868E+00
          2   -1    0    0  501    0  0.00000000000E+00  0.00000000000E+00  0.74193707979E+03  0.74193707979E+03  0.25500000000E-02 0.  1.
         -2   -1    0    0    0  501 -0.00000000000E+00 -0.00000000000E+00 -0.15166807703E+02  0.15166807917E+02  0.25500000000E-02 0. -1.
    5000001    1    1    2    0    0 -0.67004308858E+02 -0.26610046412E+02  0.32330491718E+03  0.34007755211E+03  0.77000000000E+02 0.  0.
   -5000001    1    1    2    0    0  0.67004308858E+02  0.26610046412E+02  0.40346535491E+03  0.41702633560E+03  0.77000000000E+02 0.  0.
<mgrwt>
<rscale>  0 0.21215859E+03</rscale>
<asrwt>0</asrwt>
<pdfrwt beam="1">  1        2 0.11414415E+00 0.21215859E+03</pdfrwt>
<pdfrwt beam="2">  1       -2 0.23333554E-02 0.21215859E+03</pdfrwt>
<totfact> 0.23509606E+04</totfact>
</mgrwt>
</event>
<event>
 4    1  0.2489209E-004  0.1971804E+03  0.7818608E-02  0.1152140E+00
         -2   -1    0    0    0  501 -0.00000000000E+00  0.00000000000E+00  0.28408240291E+01  0.28408251736E+01  0.25500000000E-02 0. -1.
          2   -1    0    0  501    0  0.00000000000E+00 -0.00000000000E+00 -0.34215512887E+04  0.34215512887E+04  0.25500000000E-02 0.  1.
    5000001    1    1    2    0    0 -0.23594297610E+02 -0.45717343425E+02 -0.22968205715E+04  0.22986866911E+04  0.77000000000E+02 0.  0.
   -5000001    1    1    2    0    0  0.23594297610E+02  0.45717343425E+02 -0.11218898932E+04  0.11257054227E+04  0.77000000000E+02 0.  0.
<mgrwt>
<rscale>  0 0.19718040E+03</rscale>
<asrwt>0</asrwt>
<pdfrwt beam="1">  1        2 0.52638921E+00 0.19718040E+03</pdfrwt>
<pdfrwt beam="2">  1       -2 0.43705268E-03 0.19718040E+03</pdfrwt>
<totfact> 0.80729536E+03</totfact>
</mgrwt>
</event>
<event>
 4    1  0.2489209E-004  0.2023777E+03  0.7818608E-02  0.1147748E+00
          2   -1    0    0  501    0  0.00000000000E+00  0.00000000000E+00  0.87703685231E+03  0.87703685231E+03  0.25500000000E-02 0.  1.
         -2   -1    0    0    0  501 -0.00000000000E+00 -0.00000000000E+00 -0.11674748479E+02  0.11674748757E+02  0.25500000000E-02 0. -1.
    5000001    1    1    2    0    0  0.10946981311E+02  0.53819818541E+02  0.27472814341E+03  0.29055285587E+03  0.77000000000E+02 0.  0.
   -5000001    1    1    2    0    0 -0.10946981311E+02 -0.53819818541E+02  0.59063396042E+03  0.59815874521E+03  0.77000000000E+02 0.  0.
<mgrwt>
<rscale>  0 0.20237771E+03</rscale>
<asrwt>0</asrwt>
<pdfrwt beam="1">  1        2 0.13492874E+00 0.20237771E+03</pdfrwt>
<pdfrwt beam="2">  1       -2 0.17961153E-02 0.20237771E+03</pdfrwt>
<totfact> 0.27813870E+04</totfact>
</mgrwt>
</event>
<event>
 4    1  0.2489209E-004  0.1715017E+03  0.7818608E-02  0.1176291E+00
         -2   -1    0    0    0  501 -0.00000000000E+00  0.00000000000E+00  0.17336879563E+03  0.17336879565E+03  0.25500000000E-02 0. -1.
          2   -1    0    0  501    0  0.00000000000E+00 -0.00000000000E+00 -0.42413666804E+02  0.42413666880E+02  0.25500000000E-02 0.  1.
    5000001    1    1    2    0    0  0.14850196784E+02  0.26325583085E+02  0.37045663303E+02  0.90636338402E+02  0.77000000000E+02 0.  0.
   -5000001    1    1    2    0    0 -0.14850196784E+02 -0.26325583085E+02  0.93909465525E+02  0.12514612413E+03  0.77000000000E+02 0.  0.
<mgrwt>
<rscale>  0 0.17150168E+03</rscale>
<asrwt>0</asrwt>
<pdfrwt beam="1">  1        2 0.65251795E-02 0.17150168E+03</pdfrwt>
<pdfrwt beam="2">  1       -2 0.26672123E-01 0.17150168E+03</pdfrwt>
<totfact> 0.13350240E+04</totfact>
</mgrwt>
</event>
<event>
 4    1  0.2489209E-004  0.5262953E+03  0.7818608E-02  0.1007135E+00
          2   -1    0    0  501    0  0.00000000000E+00  0.00000000000E+00  0.12422077187E+04  0.12422077187E+04  0.25500000000E-02 0.  1.
         -2   -1    0    0    0  501 -0.00000000000E+00 -0.00000000000E+00 -0.55744845902E+02  0.55744845961E+02  0.25500000000E-02 0. -1.
    5000001    1    1    2    0    0  0.49861637339E+02 -0.18874733926E+03  0.98477561958E+03  0.10068881576E+04  0.77000000000E+02 0.  0.
   -5000001    1    1    2    0    0 -0.49861637339E+02  0.18874733926E+03  0.20168725320E+03  0.29106440706E+03  0.77000000000E+02 0.  0.
<mgrwt>
<rscale>  0 0.52629527E+03</rscale>
<asrwt>0</asrwt>
<pdfrwt beam="1">  1        2 0.19110887E+00 0.52629527E+03</pdfrwt>
<pdfrwt beam="2">  1       -2 0.85761307E-02 0.52629527E+03</pdfrwt>
<totfact> 0.15931783E+03</totfact>
</mgrwt>
</event>
<event>
 4    1  0.2489209E-004  0.2385438E+03  0.7818608E-02  0.1120767E+00
          2   -1    0    0  501    0  0.00000000000E+00  0.00000000000E+00  0.33037732522E+04  0.33037732522E+04  0.25500000000E-02 0.  1.
         -2   -1    0    0    0  501 -0.00000000000E+00 -0.00000000000E+00 -0.43059218031E+01  0.43059225582E+01  0.25500000000E-02 0. -1.
    5000001    1    1    2    0    0 -0.83164283775E+02  0.25624227749E+02  0.20228501174E+04  0.20261847144E+04  0.77000000000E+02 0.  0.
   -5000001    1    1    2    0    0  0.83164283775E+02 -0.25624227749E+02  0.12766172130E+04  0.12818944604E+04  0.77000000000E+02 0.  0.
<mgrwt>
<rscale>  0 0.23854384E+03</rscale>
<asrwt>0</asrwt>
<pdfrwt beam="1">  1        2 0.50827509E+00 0.23854384E+03</pdfrwt>
<pdfrwt beam="2">  1       -2 0.66244659E-03 0.23854384E+03</pdfrwt>
<totfact> 0.52736081E+03</totfact>
</mgrwt>
</event>
<event>
 4    1  0.2489209E-004  0.3498164E+03  0.7818608E-02  0.1062690E+00
          2   -1    0    0  501    0  0.00000000000E+00  0.00000000000E+00  0.29699075563E+03  0.29699075564E+03  0.25500000000E-02 0.  1.
         -2   -1    0    0    0  501 -0.00000000000E+00 -0.00000000000E+00 -0.10300953221E+03  0.10300953224E+03  0.25500000000E-02 0. -1.
    5000001    1    1    2    0    0  0.33211897378E+02  0.13689231854E+03  0.17593611135E+02  0.16149635338E+03  0.77000000000E+02 0.  0.
   -5000001    1    1    2    0    0 -0.33211897378E+02 -0.13689231854E+03  0.17638761229E+03  0.23850393450E+03  0.77000000000E+02 0.  0.
<mgrwt>
<rscale>  0 0.34981640E+03</rscale>
<asrwt>0</asrwt>
<pdfrwt beam="1">  1        2 0.45690885E-01 0.34981640E+03</pdfrwt>
<pdfrwt beam="2">  1       -2 0.15847621E-01 0.34981640E+03</pdfrwt>
<totfact> 0.34639323E+03</totfact>
</mgrwt>
</event>
<event>
 4    1  0.2489209E-004  0.3177289E+03  0.7818608E-02  0.1076699E+00
          2   -1    0    0  501    0  0.00000000000E+00  0.00000000000E+00  0.14526192503E+04  0.14526192503E+04  0.25500000000E-02 0.  1.
         -2   -1    0    0    0  501 -0.00000000000E+00 -0.00000000000E+00 -0.17374077984E+02  0.17374078172E+02  0.25500000000E-02 0. -1.
    5000001    1    1    2    0    0  0.11658701722E+03 -0.74650177969E+02  0.77309094589E+03  0.78915384575E+03  0.77000000000E+02 0.  0.
   -5000001    1    1    2    0    0 -0.11658701722E+03  0.74650177969E+02  0.66215422643E+03  0.68083948272E+03  0.77000000000E+02 0.  0.
<mgrwt>
<rscale>  0 0.31772894E+03</rscale>
<asrwt>0</asrwt>
<pdfrwt beam="1">  1        2 0.22347979E+00 0.31772894E+03</pdfrwt>
<pdfrwt beam="2">  1       -2 0.26729362E-02 0.31772894E+03</pdfrwt>
<totfact> 0.72987111E+03</totfact>
</mgrwt>
</event>
<event>
 4    1  0.2489209E-004  0.3323405E+03  0.7818608E-02  0.1070106E+00
         -2   -1    0    0    0  501 -0.00000000000E+00  0.00000000000E+00  0.11850313158E+03  0.11850313161E+03  0.25500000000E-02 0. -1.
          2   -1    0    0  501    0  0.00000000000E+00 -0.00000000000E+00 -0.23301121962E+03  0.23301121963E+03  0.25500000000E-02 0.  1.
    5000001    1    1    2    0    0  0.13413301630E+03  0.60000203426E+02 -0.47116245813E+02  0.17245472186E+03  0.77000000000E+02 0.  0.
   -5000001    1    1    2    0    0 -0.13413301630E+03 -0.60000203426E+02 -0.67391842227E+02  0.17905962938E+03  0.77000000000E+02 0.  0.
<mgrwt>
<rscale>  0 0.33234054E+03</rscale>
<asrwt>0</asrwt>
<pdfrwt beam="1">  1        2 0.35847880E-01 0.33234054E+03</pdfrwt>
<pdfrwt beam="2">  1       -2 0.18231251E-01 0.33234054E+03</pdfrwt>
<totfact> 0.35568650E+03</totfact>
</mgrwt>
</event>
<event>
 4    1  0.2489209E-004  0.2698512E+03  0.7818608E-02  0.1101365E+00
         -2   -1    0    0    0  501 -0.00000000000E+00  0.00000000000E+00  0.54288148885E+02  0.54288148944E+02  0.25500000000E-02 0. -1.
          2   -1    0    0  501    0  0.00000000000E+00 -0.00000000000E+00 -0.33533879587E+03  0.33533879588E+03  0.25500000000E-02 0.  1.
    5000001    1    1    2    0    0 -0.68019884079E+02  0.49185048720E+02 -0.36106825296E+02  0.11949299762E+03  0.77000000000E+02 0.  0.
   -5000001    1    1    2    0    0  0.68019884079E+02 -0.49185048720E+02 -0.24494382169E+03  0.27013394721E+03  0.77000000000E+02 0.  0.
<mgrwt>
<rscale>  0 0.26985124E+03</rscale>
<asrwt>0</asrwt>
<pdfrwt beam="1">  1        2 0.51590583E-01 0.26985124E+03</pdfrwt>
<pdfrwt beam="2">  1       -2 0.83520231E-02 0.26985124E+03</pdfrwt>
<totfact> 0.84840011E+03</totfact>
</mgrwt>
</event>
<event>
 4    1  0.2489209E-004  0.1647772E+03  0.7818608E-02  0.1183406E+00
          2   -1    0    0  501    0  0.00000000000E+00  0.00000000000E+00  0.17536761477E+03  0.17536761479E+03  0.25500000000E-02 0.  1.
         -2   -1    0    0    0  501 -0.00000000000E+00 -0.00000000000E+00 -0.38706603263E+02  0.38706603347E+02  0.25500000000E-02 0. -1.
    5000001    1    1    2    0    0 -0.77437857721E+01  0.13987628425E+02  0.36420924032E+02  0.86666623763E+02  0.77000000000E+02 0.  0.
   -5000001    1    1    2    0    0  0.77437857721E+01 -0.13987628425E+02  0.10024008748E+03  0.12740759438E+03  0.77000000000E+02 0.  0.
<mgrwt>
<rscale>  0 0.16477724E+03</rscale>
<asrwt>0</asrwt>
<pdfrwt beam="1">  1        2 0.26979633E-01 0.16477724E+03</pdfrwt>
<pdfrwt beam="2">  1       -2 0.59548620E-02 0.16477724E+03</pdfrwt>
<totfact> 0.27873789E+04</totfact>
</mgrwt>
</event>
<event>
 4    1  0.2489209E-004  0.4938499E+03  0.7818608E-02  0.1015397E+00
         -2   -1    0    0    0  501 -0.00000000000E+00  0.00000000000E+00  0.91925337347E+02  0.91925337382E+02  0.25500000000E-02 0. -1.
          2   -1    0    0  501    0  0.00000000000E+00 -0.00000000000E+00 -0.66327663190E+03  0.66327663190E+03  0.25500000000E-02 0.  1.
    5000001    1    1    2    0    0 -0.11710334897E+03 -0.19792179450E+03 -0.35669271368E+03  0.43132925136E+03  0.77000000000E+02 0.  0.
   -5000001    1    1    2    0    0  0.11710334897E+03  0.19792179450E+03 -0.21465858086E+03  0.32387271793E+03  0.77000000000E+02 0.  0.
<mgrwt>
<rscale>  0 0.49384989E+03</rscale>
<asrwt>0</asrwt>
<pdfrwt beam="1">  1        2 0.10204256E+00 0.49384989E+03</pdfrwt>
<pdfrwt beam="2">  1       -2 0.14142360E-01 0.49384989E+03</pdfrwt>
<totfact> 0.16967935E+03</totfact>
</mgrwt>
</event>
<event>
 4    1  0.2489209E-004  0.4481814E+03  0.7818608E-02  0.1028266E+00
          2   -1    0    0  501    0  0.00000000000E+00  0.00000000000E+00  0.54279627603E+03  0.54279627604E+03  0.25500000000E-02 0.  1.
         -2   -1    0    0    0  501 -0.00000000000E+00 -0.00000000000E+00 -0.92514697179E+02  0.92514697214E+02  0.25500000000E-02 0. -1.
    5000001    1    1    2    0    0 -0.30793558512E+02  0.20363198659E+03  0.16378602732E+03  0.27416982320E+03  0.77000000000E+02 0.  0.
   -5000001    1    1    2    0    0  0.30793558512E+02 -0.20363198659E+03  0.28649555153E+03  0.36114115005E+03  0.77000000000E+02 0.  0.
<mgrwt>
<rscale>  0 0.44818136E+03</rscale>
<asrwt>0</asrwt>
<pdfrwt beam="1">  1        2 0.83507120E-01 0.44818136E+03</pdfrwt>
<pdfrwt beam="2">  1       -2 0.14233030E-01 0.44818136E+03</pdfrwt>
<totfact> 0.21297536E+03</totfact>
</mgrwt>
</event>
<event>
 4    1  0.2489209E-004  0.3262712E+03  0.7818608E-02  0.1072799E+00
         -2   -1    0    0    0  501 -0.00000000000E+00  0.00000000000E+00  0.15502252536E+03  0.15502252538E+03  0.25500000000E-02 0. -1.
          2   -1    0    0  501    0  0.00000000000E+00 -0.00000000000E+00 -0.17167328493E+03  0.17167328495E+03  0.25500000000E-02 0.  1.
    5000001    1    1    2    0    0  0.45894997159E+02 -0.13606527812E+03 -0.30774402757E+00  0.16293926899E+03  0.77000000000E+02 0.  0.
   -5000001    1    1    2    0    0 -0.45894997159E+02  0.13606527812E+03 -0.16343015549E+02  0.16375654134E+03  0.77000000000E+02 0.  0.
<mgrwt>
<rscale>  0 0.32627121E+03</rscale>
<asrwt>0</asrwt>
<pdfrwt beam="1">  1        2 0.26411275E-01 0.32627121E+03</pdfrwt>
<pdfrwt beam="2">  1       -2 0.23849619E-01 0.32627121E+03</pdfrwt>
<totfact> 0.31303382E+03</totfact>
</mgrwt>
</event>
<event>
 4    1  0.2489209E-004  0.5840500E+03  0.7818608E-02  0.9939061E-01
         -2   -1    0    0    0  501 -0.00000000000E+00  0.00000000000E+00  0.43691380411E+02  0.43691380485E+02  0.25500000000E-02 0. -1.
          2   -1    0    0  501    0  0.00000000000E+00 -0.00000000000E+00 -0.19518405904E+04  0.19518405904E+04  0.25500000000E-02 0.  1.
    5000001    1    1    2    0    0  0.68005413543E+02 -0.26484631416E+03 -0.11853360136E+04  0.12189006405E+04  0.77000000000E+02 0.  0.
   -5000001    1    1    2    0    0 -0.68005413543E+02  0.26484631416E+03 -0.72281319644E+03  0.77663133039E+03  0.77000000000E+02 0.  0.
<mgrwt>
<rscale>  0 0.58405003E+03</rscale>
<asrwt>0</asrwt>
<pdfrwt beam="1">  1        2 0.30028310E+00 0.58405003E+03</pdfrwt>
<pdfrwt beam="2">  1       -2 0.67217524E-02 0.58405003E+03</pdfrwt>
<totfact> 0.95228299E+02</totfact>
</mgrwt>
</event>
<event>
 4    1  0.2489209E-004  0.3140096E+03  0.7818608E-02  0.1078440E+00
          2   -1    0    0  501    0  0.00000000000E+00  0.00000000000E+00  0.52534492176E+03  0.52534492176E+03  0.25500000000E-02 0.  1.
         -2   -1    0    0    0  501 -0.00000000000E+00 -0.00000000000E+00 -0.46922521630E+02  0.46922521699E+02  0.25500000000E-02 0. -1.
    5000001    1    1    2    0    0  0.76751105104E+02  0.10214132483E+03  0.32845416703E+03  0.36074190526E+03  0.77000000000E+02 0.  0.
   -5000001    1    1    2    0    0 -0.76751105104E+02 -0.10214132483E+03  0.14996823310E+03  0.21152553820E+03  0.77000000000E+02 0.  0.
<mgrwt>
<rscale>  0 0.31400961E+03</rscale>
<asrwt>0</asrwt>
<pdfrwt beam="1">  1        2 0.80822292E-01 0.31400961E+03</pdfrwt>
<pdfrwt beam="2">  1       -2 0.72188498E-02 0.31400961E+03</pdfrwt>
<totfact> 0.65394556E+03</totfact>
</mgrwt>
</event>
<event>
 4    1  0.2489209E-004  0.3156304E+03  0.7818608E-02  0.1077678E+00
         -2   -1    0    0    0  501 -0.00000000000E+00  0.00000000000E+00  0.24031552173E+02  0.24031552308E+02  0.25500000000E-02 0.  1.
          2   -1    0    0  501    0  0.00000000000E+00 -0.00000000000E+00 -0.10363726700E+04  0.10363726700E+04  0.25500000000E-02 0. -1.
    5000001    1    1    2    0    0  0.29362974797E+02 -0.13457430139E+03 -0.51306975365E+03  0.53678859805E+03  0.77000000000E+02 0.  0.
   -5000001    1    1    2    0    0 -0.29362974797E+02  0.13457430139E+03 -0.49927136414E+03  0.52361562423E+03  0.77000000000E+02 0.  0.
<mgrwt>
<rscale>  0 0.31563044E+03</rscale>
<asrwt>0</asrwt>
<pdfrwt beam="1">  1        2 0.15944191E+00 0.31563044E+03</pdfrwt>
<pdfrwt beam="2">  1       -2 0.36971627E-02 0.31563044E+03</pdfrwt>
<totfact> 0.77385524E+03</totfact>
</mgrwt>
</event>
<event>
 4    1  0.2489209E-004  0.2252346E+03  0.7818608E-02  0.1130040E+00
         -2   -1    0    0    0  501 -0.00000000000E+00  0.00000000000E+00  0.69888426757E+01  0.69888431409E+01  0.25500000000E-02 0. -1.
          2   -1    0    0  501    0  0.00000000000E+00 -0.00000000000E+00 -0.18147004317E+04  0.18147004317E+04  0.25500000000E-02 0.  1.
    5000001    1    1    2    0    0  0.25412498816E+02 -0.74575373196E+02 -0.10929092198E+04  0.10984474699E+04  0.77000000000E+02 0.  0.
   -5000001    1    1    2    0    0 -0.25412498816E+02  0.74575373196E+02 -0.71480236924E+03  0.72324180496E+03  0.77000000000E+02 0.  0.
<mgrwt>
<rscale>  0 0.22523460E+03</rscale>
<asrwt>0</asrwt>
<pdfrwt beam="1">  1        2 0.27918431E+00 0.22523460E+03</pdfrwt>
<pdfrwt beam="2">  1       -2 0.10752080E-02 0.22523460E+03</pdfrwt>
<totfact> 0.17714253E+04</totfact>
</mgrwt>
</event>
<event>
 4    1  0.2489209E-004  0.1967564E+03  0.7818608E-02  0.1152505E+00
         -2   -1    0    0    0  501 -0.00000000000E+00  0.00000000000E+00  0.27227054076E+02  0.27227054196E+02  0.25500000000E-02 0. -1.
          2   -1    0    0  501    0  0.00000000000E+00 -0.00000000000E+00 -0.35546518582E+03  0.35546518582E+03  0.25500000000E-02 0.  1.
    5000001    1    1    2    0    0  0.60297317103E+02 -0.10652453398E+02 -0.16378986139E+03  0.19106375875E+03  0.77000000000E+02 0.  0.
   -5000001    1    1    2    0    0 -0.60297317103E+02  0.10652453398E+02 -0.16444827034E+03  0.19162848127E+03  0.77000000000E+02 0.  0.
<mgrwt>
<rscale>  0 0.19675640E+03</rscale>
<asrwt>0</asrwt>
<pdfrwt beam="1">  1        2 0.54686949E-01 0.19675640E+03</pdfrwt>
<pdfrwt beam="2">  1       -2 0.41887778E-02 0.19675640E+03</pdfrwt>
<totfact> 0.22497491E+04</totfact>
</mgrwt>
</event>
<event>
 4    1  0.2489209E-004  0.4037628E+03  0.7818608E-02  0.1042485E+00
          2   -1    0    0  501    0  0.00000000000E+00  0.00000000000E+00  0.20293562620E+03  0.20293562622E+03  0.25500000000E-02 0.  1.
         -2   -1    0    0    0  501 -0.00000000000E+00 -0.00000000000E+00 -0.20083260809E+03  0.20083260811E+03  0.25500000000E-02 0. -1.
    5000001    1    1    2    0    0 -0.10276192309E+03  0.99321497683E+00  0.15682939610E+03  0.20269548291E+03  0.77000000000E+02 0.  0.
   -5000001    1    1    2    0    0  0.10276192309E+03 -0.99321497683E+00 -0.15472637799E+03  0.20107275141E+03  0.77000000000E+02 0.  0.
<mgrwt>
<rscale>  0 0.40376276E+03</rscale>
<asrwt>0</asrwt>
<pdfrwt beam="1">  1        2 0.31220866E-01 0.40376276E+03</pdfrwt>
<pdfrwt beam="2">  1       -2 0.30897324E-01 0.40376276E+03</pdfrwt>
<totfact> 0.16368277E+03</totfact>
</mgrwt>
</event>
<event>
 4    1  0.2489209E-004  0.2226982E+03  0.7818608E-02  0.1131887E+00
         -2   -1    0    0    0  501 -0.00000000000E+00  0.00000000000E+00  0.28047195335E+02  0.28047195451E+02  0.25500000000E-02 0. -1.
          2   -1    0    0  501    0  0.00000000000E+00 -0.00000000000E+00 -0.44206268856E+03  0.44206268856E+03  0.25500000000E-02 0.  1.
    5000001    1    1    2    0    0  0.39268344479E+02 -0.35711422445E+02 -0.33458303373E+03  0.34740770721E+03  0.77000000000E+02 0.  0.
   -5000001    1    1    2    0    0 -0.39268344479E+02  0.35711422445E+02 -0.79432459494E+02  0.12270217680E+03  0.77000000000E+02 0.  0.
<mgrwt>
<rscale>  0 0.22269817E+03</rscale>
<asrwt>0</asrwt>
<pdfrwt beam="1">  1        2 0.68009639E-01 0.22269817E+03</pdfrwt>
<pdfrwt beam="2">  1       -2 0.43149535E-02 0.22269817E+03</pdfrwt>
<totfact> 0.17143615E+04</totfact>
</mgrwt>
</event>
<event>
 4    1  0.2489209E-004  0.4345000E+03  0.7818608E-02  0.1032448E+00
          2   -1    0    0  501    0  0.00000000000E+00  0.00000000000E+00  0.91447647115E+03  0.91447647116E+03  0.25500000000E-02 0.  1.
         -2   -1    0    0    0  501 -0.00000000000E+00 -0.00000000000E+00 -0.51611561477E+02  0.51611561540E+02  0.25500000000E-02 0. -1.
    5000001    1    1    2    0    0  0.16348892546E+03  0.10162024719E+03  0.57575554692E+03  0.61194669146E+03  0.77000000000E+02 0.  0.
   -5000001    1    1    2    0    0 -0.16348892546E+03 -0.10162024719E+03  0.28710936276E+03  0.35414134123E+03  0.77000000000E+02 0.  0.
<mgrwt>
<rscale>  0 0.43449998E+03</rscale>
<asrwt>0</asrwt>
<pdfrwt beam="1">  1        2 0.14068870E+00 0.43449998E+03</pdfrwt>
<pdfrwt beam="2">  1       -2 0.79402393E-02 0.43449998E+03</pdfrwt>
<totfact> 0.28551675E+03</totfact>
</mgrwt>
</event>
<event>
 4    1  0.2489209E-004  0.2692791E+03  0.7818608E-02  0.1101693E+00
          2   -1    0    0  501    0  0.00000000000E+00  0.00000000000E+00  0.10922332283E+04  0.10922332283E+04  0.25500000000E-02 0.  1.
         -2   -1    0    0    0  501 -0.00000000000E+00 -0.00000000000E+00 -0.16597012418E+02  0.16597012613E+02  0.25500000000E-02 0. -1.
    5000001    1    1    2    0    0 -0.61735442083E+02  0.91579194430E+02  0.53414681319E+03  0.55085372986E+03  0.77000000000E+02 0.  0.
   -5000001    1    1    2    0    0  0.61735442083E+02 -0.91579194430E+02  0.54148940273E+03  0.55797651109E+03  0.77000000000E+02 0.  0.
<mgrwt>
<rscale>  0 0.26927910E+03</rscale>
<asrwt>0</asrwt>
<pdfrwt beam="1">  1        2 0.16803598E+00 0.26927910E+03</pdfrwt>
<pdfrwt beam="2">  1       -2 0.25533851E-02 0.26927910E+03</pdfrwt>
<totfact> 0.12399686E+04</totfact>
</mgrwt>
</event>
<event>
 4    1  0.2489209E-004  0.2350932E+03  0.7818608E-02  0.1123105E+00
          2   -1    0    0  501    0  0.00000000000E+00  0.00000000000E+00  0.23117025795E+04  0.23117025795E+04  0.25500000000E-02 0.  1.
         -2   -1    0    0    0  501 -0.00000000000E+00 -0.00000000000E+00 -0.59770679483E+01  0.59770684922E+01  0.25500000000E-02 0. -1.
    5000001    1    1    2    0    0  0.66152228447E+02  0.29454018768E+02  0.16598406349E+04  0.16632028108E+04  0.77000000000E+02 0.  0.
   -5000001    1    1    2    0    0 -0.66152228447E+02 -0.29454018768E+02  0.64588487664E+03  0.65447683719E+03  0.77000000000E+02 0.  0.
<mgrwt>
<rscale>  0 0.23509321E+03</rscale>
<asrwt>0</asrwt>
<pdfrwt beam="1">  1        2 0.35564674E+00 0.23509321E+03</pdfrwt>
<pdfrwt beam="2">  1       -2 0.91954847E-03 0.23509321E+03</pdfrwt>
<totfact> 0.12188949E+04</totfact>
</mgrwt>
</event>
<event>
 4    1  0.2489209E-004  0.2397456E+03  0.7818608E-02  0.1119962E+00
         -2   -1    0    0    0  501 -0.00000000000E+00  0.00000000000E+00  0.18390496907E+02  0.18390497084E+02  0.25500000000E-02 0. -1.
          2   -1    0    0  501    0  0.00000000000E+00 -0.00000000000E+00 -0.78135406788E+03  0.78135406789E+03  0.25500000000E-02 0.  1.
    5000001    1    1    2    0    0  0.26059530042E+02  0.74531696951E+02 -0.53817290963E+03  0.54935703656E+03  0.77000000000E+02 0.  0.
   -5000001    1    1    2    0    0 -0.26059530042E+02 -0.74531696951E+02 -0.22479066135E+03  0.25038752841E+03  0.77000000000E+02 0.  0.
<mgrwt>
<rscale>  0 0.23974561E+03</rscale>
<asrwt>0</asrwt>
<pdfrwt beam="1">  1        2 0.12020829E+00 0.23974561E+03</pdfrwt>
<pdfrwt beam="2">  1       -2 0.28293078E-02 0.23974561E+03</pdfrwt>
<totfact> 0.16704204E+04</totfact>
</mgrwt>
</event>
<event>
 4    1  0.2489209E-004  0.2242803E+03  0.7818608E-02  0.1130732E+00
         -2   -1    0    0    0  501 -0.00000000000E+00  0.00000000000E+00  0.71725410594E+01  0.71725415127E+01  0.25500000000E-02 0. -1.
          2   -1    0    0  501    0  0.00000000000E+00 -0.00000000000E+00 -0.17532710833E+04  0.17532710833E+04  0.25500000000E-02 0.  1.
    5000001    1    1    2    0    0  0.51303973419E+02 -0.59814001842E+02 -0.70903890364E+03  0.71754789344E+03  0.77000000000E+02 0.  0.
   -5000001    1    1    2    0    0 -0.51303973419E+02  0.59814001842E+02 -0.10370596385E+04  0.10428957313E+04  0.77000000000E+02 0.  0.
<mgrwt>
<rscale>  0 0.22428026E+03</rscale>
<asrwt>0</asrwt>
<pdfrwt beam="1">  1        2 0.26973367E+00 0.22428026E+03</pdfrwt>
<pdfrwt beam="2">  1       -2 0.11034693E-02 0.22428026E+03</pdfrwt>
<totfact> 0.18364242E+04</totfact>
</mgrwt>
</event>
<event>
 4    1  0.2489209E-004  0.1880024E+03  0.7818608E-02  0.1160275E+00
          2   -1    0    0  501    0  0.00000000000E+00  0.00000000000E+00  0.98214976840E+03  0.98214976841E+03  0.25500000000E-02 0.  1.
         -2   -1    0    0    0  501 -0.00000000000E+00 -0.00000000000E+00 -0.89968176660E+01  0.89968180274E+01  0.25500000000E-02 0. -1.
    5000001    1    1    2    0    0  0.47662770263E+02  0.23528921838E+02  0.53427931385E+03  0.54241011702E+03  0.77000000000E+02 0.  0.
   -5000001    1    1    2    0    0 -0.47662770263E+02 -0.23528921838E+02  0.43887363688E+03  0.44873646941E+03  0.77000000000E+02 0.  0.
<mgrwt>
<rscale>  0 0.18800237E+03</rscale>
<asrwt>0</asrwt>
<pdfrwt beam="1">  1        2 0.15110001E+00 0.18800237E+03</pdfrwt>
<pdfrwt beam="2">  1       -2 0.13841254E-02 0.18800237E+03</pdfrwt>
<totfact> 0.34709671E+04</totfact>
</mgrwt>
</event>
<event>
 4    1  0.2489209E-004  0.2726910E+03  0.7818608E-02  0.1099749E+00
          2   -1    0    0  501    0  0.00000000000E+00  0.00000000000E+00  0.97404792229E+02  0.97404792262E+02  0.25500000000E-02 0.  1.
         -2   -1    0    0    0  501 -0.00000000000E+00 -0.00000000000E+00 -0.19085407861E+03  0.19085407863E+03  0.25500000000E-02 0. -1.
    5000001    1    1    2    0    0 -0.80054862208E+02  0.62323976307E+02  0.47160228420E+01  0.12745312808E+03  0.77000000000E+02 0.  0.
   -5000001    1    1    2    0    0  0.80054862208E+02 -0.62323976307E+02 -0.98165309222E+02  0.16080574281E+03  0.77000000000E+02 0.  0.
<mgrwt>
<rscale>  0 0.27269105E+03</rscale>
<asrwt>0</asrwt>
<pdfrwt beam="1">  1        2 0.14985353E-01 0.27269105E+03</pdfrwt>
<pdfrwt beam="2">  1       -2 0.29362166E-01 0.27269105E+03</pdfrwt>
<totfact> 0.41245631E+03</totfact>
</mgrwt>
</event>
<event>
 4    1  0.2489209E-004  0.2007498E+03  0.7818608E-02  0.1149108E+00
          2   -1    0    0  501    0  0.00000000000E+00  0.00000000000E+00  0.24874163071E+02  0.24874163202E+02  0.25500000000E-02 0.  1.
         -2   -1    0    0    0  501 -0.00000000000E+00 -0.00000000000E+00 -0.40504360137E+03  0.40504360138E+03  0.25500000000E-02 0. -1.
    5000001    1    1    2    0    0  0.43744110907E+02 -0.46903230465E+02 -0.17784586631E+03  0.20413625947E+03  0.77000000000E+02 0.  0.
   -5000001    1    1    2    0    0 -0.43744110907E+02  0.46903230465E+02 -0.20232357198E+03  0.22578150511E+03  0.77000000000E+02 0.  0.
<mgrwt>
<rscale>  0 0.20074980E+03</rscale>
<asrwt>0</asrwt>
<pdfrwt beam="1">  1        2 0.38267946E-02 0.20074980E+03</pdfrwt>
<pdfrwt beam="2">  1       -2 0.62314395E-01 0.20074980E+03</pdfrwt>
<totfact> 0.53646732E+03</totfact>
</mgrwt>
</event>
<event>
 4    1  0.2489209E-004  0.2260687E+03  0.7818608E-02  0.1129438E+00
         -2   -1    0    0    0  501 -0.00000000000E+00  0.00000000000E+00  0.19678881786E+02  0.19678881951E+02  0.25500000000E-02 0. -1.
          2   -1    0    0  501    0  0.00000000000E+00 -0.00000000000E+00 -0.64926273607E+03  0.64926273608E+03  0.25500000000E-02 0.  1.
    5000001    1    1    2    0    0  0.31902894353E+02  0.44272396864E+02 -0.13071513355E+03  0.16122433418E+03  0.77000000000E+02 0.  0.
   -5000001    1    1    2    0    0 -0.31902894353E+02 -0.44272396864E+02 -0.49886872074E+03  0.50771728385E+03  0.77000000000E+02 0.  0.
<mgrwt>
<rscale>  0 0.22606870E+03</rscale>
<asrwt>0</asrwt>
<pdfrwt beam="1">  1        2 0.99886558E-01 0.22606870E+03</pdfrwt>
<pdfrwt beam="2">  1       -2 0.30275208E-02 0.22606870E+03</pdfrwt>
<totfact> 0.18863774E+04</totfact>
</mgrwt>
</event>
<event>
 4    1  0.2489209E-004  0.1995055E+03  0.7818608E-02  0.1150157E+00
         -2   -1    0    0    0  501 -0.00000000000E+00  0.00000000000E+00  0.59456324032E+01  0.59456329500E+01  0.25500000000E-02 0. -1.
          2   -1    0    0  501    0  0.00000000000E+00 -0.00000000000E+00 -0.16736008405E+04  0.16736008405E+04  0.25500000000E-02 0.  1.
    5000001    1    1    2    0    0  0.71143100580E+01 -0.59795467819E+02 -0.66640551866E+03  0.67353650731E+03  0.77000000000E+02 0.  0.
   -5000001    1    1    2    0    0 -0.71143100580E+01  0.59795467819E+02 -0.10012496895E+04  0.10060099662E+04  0.77000000000E+02 0.  0.
<mgrwt>
<rscale>  0 0.19950555E+03</rscale>
<asrwt>0</asrwt>
<pdfrwt beam="1">  1        2 0.25747668E+00 0.19950555E+03</pdfrwt>
<pdfrwt beam="2">  1       -2 0.91471405E-03 0.19950555E+03</pdfrwt>
<totfact> 0.26362593E+04</totfact>
</mgrwt>
</event>
<event>
 4    1  0.2489209E-004  0.4935792E+03  0.7818608E-02  0.1015469E+00
         -2   -1    0    0    0  501 -0.00000000000E+00  0.00000000000E+00  0.60433293798E+02  0.60433293852E+02  0.25500000000E-02 0. -1.
          2   -1    0    0  501    0  0.00000000000E+00 -0.00000000000E+00 -0.10078070283E+04  0.10078070283E+04  0.25500000000E-02 0.  1.
    5000001    1    1    2    0    0  0.19385058950E+03 -0.41919683460E+02 -0.20301603833E+03  0.29407451901E+03  0.77000000000E+02 0.  0.
   -5000001    1    1    2    0    0 -0.19385058950E+03  0.41919683460E+02 -0.74435769617E+03  0.77416580314E+03  0.77000000000E+02 0.  0.
<mgrwt>
<rscale>  0 0.49357917E+03</rscale>
<asrwt>0</asrwt>
<pdfrwt beam="1">  1        2 0.15504722E+00 0.49357917E+03</pdfrwt>
<pdfrwt beam="2">  1       -2 0.92974306E-02 0.49357917E+03</pdfrwt>
<totfact> 0.19355006E+03</totfact>
</mgrwt>
</event>
<event>
 4    1  0.2489209E-004  0.2543543E+03  0.7818608E-02  0.1110584E+00
          2   -1    0    0  501    0  0.00000000000E+00  0.00000000000E+00  0.23068186966E+03  0.23068186968E+03  0.25500000000E-02 0.  1.
         -2   -1    0    0    0  501 -0.00000000000E+00 -0.00000000000E+00 -0.70113985089E+02  0.70113985135E+02  0.25500000000E-02 0. -1.
    5000001    1    1    2    0    0  0.78033797347E+02 -0.43082404283E+02  0.23573317838E+02  0.12012521967E+03  0.77000000000E+02 0.  0.
   -5000001    1    1    2    0    0 -0.78033797347E+02  0.43082404283E+02  0.13699456674E+03  0.18067063514E+03  0.77000000000E+02 0.  0.
<mgrwt>
<rscale>  0 0.25435428E+03</rscale>
<asrwt>0</asrwt>
<pdfrwt beam="1">  1        2 0.35489518E-01 0.25435428E+03</pdfrwt>
<pdfrwt beam="2">  1       -2 0.10786767E-01 0.25435428E+03</pdfrwt>
<totfact> 0.84479209E+03</totfact>
</mgrwt>
</event>
<event>
 4    1  0.2489209E-004  0.1753358E+03  0.7818608E-02  0.1172395E+00
         -2   -1    0    0    0  501 -0.00000000000E+00  0.00000000000E+00  0.80887692501E+03  0.80887692501E+03  0.25500000000E-02 0. -1.
          2   -1    0    0  501    0  0.00000000000E+00 -0.00000000000E+00 -0.95016393990E+01  0.95016397412E+01  0.25500000000E-02 0.  1.
    5000001    1    1    2    0    0 -0.14590069233E+02 -0.31672224340E+02  0.29115891791E+03  0.30318066461E+03  0.77000000000E+02 0.  0.
   -5000001    1    1    2    0    0  0.14590069233E+02  0.31672224340E+02  0.50821636770E+03  0.51519790014E+03  0.77000000000E+02 0.  0.
<mgrwt>
<rscale>  0 0.17533576E+03</rscale>
<asrwt>0</asrwt>
<pdfrwt beam="1">  1        2 0.14617908E-02 0.17533576E+03</pdfrwt>
<pdfrwt beam="2">  1       -2 0.12444260E+00 0.17533576E+03</pdfrwt>
<totfact> 0.41680373E+03</totfact>
</mgrwt>
</event>
<event>
 4    1  0.2489209E-004  0.2493945E+03  0.7818608E-02  0.1113688E+00
          2   -1    0    0  501    0  0.00000000000E+00  0.00000000000E+00  0.13332443743E+04  0.13332443743E+04  0.25500000000E-02 0.  1.
         -2   -1    0    0    0  501 -0.00000000000E+00 -0.00000000000E+00 -0.11662828283E+02  0.11662828562E+02  0.25500000000E-02 0. -1.
    5000001    1    1    2    0    0  0.94065120625E+02 -0.21115155028E+02  0.56337786752E+03  0.57673019541E+03  0.77000000000E+02 0.  0.
   -5000001    1    1    2    0    0 -0.94065120625E+02  0.21115155028E+02  0.75820367845E+03  0.76817700740E+03  0.77000000000E+02 0.  0.
<mgrwt>
<rscale>  0 0.24939447E+03</rscale>
<asrwt>0</asrwt>
<pdfrwt beam="1">  1        2 0.20511464E+00 0.24939447E+03</pdfrwt>
<pdfrwt beam="2">  1       -2 0.17942802E-02 0.24939447E+03</pdfrwt>
<totfact> 0.15185749E+04</totfact>
</mgrwt>
</event>
<event>
 4    1  0.2489209E-004  0.1763553E+03  0.7818608E-02  0.1171378E+00
         -2   -1    0    0    0  501 -0.00000000000E+00  0.00000000000E+00  0.20378441163E+02  0.20378441323E+02  0.25500000000E-02 0. -1.
          2   -1    0    0  501    0  0.00000000000E+00 -0.00000000000E+00 -0.38154541165E+03  0.38154541166E+03  0.25500000000E-02 0.  1.
    5000001    1    1    2    0    0  0.23660574116E+02 -0.22720999036E+02 -0.11733260358E+03  0.14412496809E+03  0.77000000000E+02 0.  0.
   -5000001    1    1    2    0    0 -0.23660574116E+02  0.22720999036E+02 -0.24383436691E+03  0.25779888489E+03  0.77000000000E+02 0.  0.
<mgrwt>
<rscale>  0 0.17635533E+03</rscale>
<asrwt>0</asrwt>
<pdfrwt beam="1">  1        2 0.58699289E-01 0.17635533E+03</pdfrwt>
<pdfrwt beam="2">  1       -2 0.31351451E-02 0.17635533E+03</pdfrwt>
<totfact> 0.31808928E+04</totfact>
</mgrwt>
</event>
<event>
 4    1  0.2489209E-004  0.1812933E+03  0.7818608E-02  0.1166557E+00
          2   -1    0    0  501    0  0.00000000000E+00  0.00000000000E+00  0.14488871141E+03  0.14488871143E+03  0.25500000000E-02 0.  1.
         -2   -1    0    0    0  501 -0.00000000000E+00 -0.00000000000E+00 -0.56711200667E+02  0.56711200724E+02  0.25500000000E-02 0. -1.
    5000001    1    1    2    0    0  0.20290658634E+02 -0.43313836886E+02  0.43959543752E+02  0.10074344038E+03  0.77000000000E+02 0.  0.
   -5000001    1    1    2    0    0 -0.20290658634E+02  0.43313836886E+02  0.44217966991E+02  0.10085647177E+03  0.77000000000E+02 0.  0.
<mgrwt>
<rscale>  0 0.18129327E+03</rscale>
<asrwt>0</asrwt>
<pdfrwt beam="1">  1        2 0.22290571E-01 0.18129327E+03</pdfrwt>
<pdfrwt beam="2">  1       -2 0.87248002E-02 0.18129327E+03</pdfrwt>
<totfact> 0.19292259E+04</totfact>
</mgrwt>
</event>
<event>
 4    1  0.2489209E-004  0.2231372E+03  0.7818608E-02  0.1131566E+00
         -2   -1    0    0    0  501 -0.00000000000E+00  0.00000000000E+00  0.75601357296E+02  0.75601357339E+02  0.25500000000E-02 0. -1.
          2   -1    0    0  501    0  0.00000000000E+00 -0.00000000000E+00 -0.16464718743E+03  0.16464718745E+03  0.25500000000E-02 0.  1.
    5000001    1    1    2    0    0 -0.34778410087E+02  0.68356200641E+02 -0.71685339484E+02  0.13019176576E+03  0.77000000000E+02 0.  0.
   -5000001    1    1    2    0    0  0.34778410087E+02 -0.68356200641E+02 -0.17360490647E+02  0.11005677903E+03  0.77000000000E+02 0.  0.
<mgrwt>
<rscale>  0 0.22313719E+03</rscale>
<asrwt>0</asrwt>
<pdfrwt beam="1">  1        2 0.25330337E-01 0.22313719E+03</pdfrwt>
<pdfrwt beam="2">  1       -2 0.11630978E-01 0.22313719E+03</pdfrwt>
<totfact> 0.10763570E+04</totfact>
</mgrwt>
</event>
<event>
 4    1  0.2489209E-004  0.2258851E+03  0.7818608E-02  0.1129570E+00
          2   -1    0    0  501    0  0.00000000000E+00  0.00000000000E+00  0.16122858535E+04  0.16122858535E+04  0.25500000000E-02 0.  1.
         -2   -1    0    0    0  501 -0.00000000000E+00 -0.00000000000E+00 -0.79117577912E+01  0.79117582022E+01  0.25500000000E-02 0. -1.
    5000001    1    1    2    0    0  0.73784916169E+02 -0.23730503592E+02  0.10075389011E+04  0.10134451085E+04  0.77000000000E+02 0.  0.
   -5000001    1    1    2    0    0 -0.73784916169E+02  0.23730503592E+02  0.59683519456E+03  0.60675250318E+03  0.77000000000E+02 0.  0.
<mgrwt>
<rscale>  0 0.22588506E+03</rscale>
<asrwt>0</asrwt>
<pdfrwt beam="1">  1        2 0.24804378E+00 0.22588506E+03</pdfrwt>
<pdfrwt beam="2">  1       -2 0.12171945E-02 0.22588506E+03</pdfrwt>
<totfact> 0.18886043E+04</totfact>
</mgrwt>
</event>
<event>
 4    1  0.2489209E-004  0.1841929E+03  0.7818608E-02  0.1163806E+00
          2   -1    0    0  501    0  0.00000000000E+00  0.00000000000E+00  0.16455400020E+04  0.16455400020E+04  0.25500000000E-02 0.  1.
         -2   -1    0    0    0  501 -0.00000000000E+00 -0.00000000000E+00 -0.51543929950E+01  0.51543936258E+01  0.25500000000E-02 0. -1.
    5000001    1    1    2    0    0 -0.39596150277E+02 -0.31151410168E+02  0.85431220793E+03  0.85925352143E+03  0.77000000000E+02 0.  0.
   -5000001    1    1    2    0    0  0.39596150277E+02  0.31151410168E+02  0.78607340102E+03  0.79144087414E+03  0.77000000000E+02 0.  0.
<mgrwt>
<rscale>  0 0.18419295E+03</rscale>
<asrwt>0</asrwt>
<pdfrwt beam="1">  1        2 0.25315990E+00 0.18419295E+03</pdfrwt>
<pdfrwt beam="2">  1       -2 0.79298391E-03 0.18419295E+03</pdfrwt>
<totfact> 0.33331594E+04</totfact>
</mgrwt>
</event>
<event>
 4    1  0.2489209E-004  0.1992318E+03  0.7818608E-02  0.1150389E+00
          2   -1    0    0  501    0  0.00000000000E+00  0.00000000000E+00  0.18765364625E+04  0.18765364625E+04  0.25500000000E-02 0.  1.
         -2   -1    0    0    0  501 -0.00000000000E+00 -0.00000000000E+00 -0.52881072150E+01  0.52881078298E+01  0.25500000000E-02 0. -1.
    5000001    1    1    2    0    0 -0.55916858318E+02 -0.28576547082E+02  0.86816224201E+03  0.87382949855E+03  0.77000000000E+02 0.  0.
   -5000001    1    1    2    0    0  0.55916858318E+02  0.28576547082E+02  0.10030861133E+04  0.10079950718E+04  0.77000000000E+02 0.  0.
<mgrwt>
<rscale>  0 0.19923179E+03</rscale>
<asrwt>0</asrwt>
<pdfrwt beam="1">  1        2 0.28869754E+00 0.19923179E+03</pdfrwt>
<pdfrwt beam="2">  1       -2 0.81355607E-03 0.19923179E+03</pdfrwt>
<totfact> 0.24478975E+04</totfact>
</mgrwt>
</event>
<event>
 4    1  0.2489209E-004  0.3417067E+03  0.7818608E-02  0.1066071E+00
         -2   -1    0    0    0  501 -0.00000000000E+00  0.00000000000E+00  0.26578734237E+03  0.26578734238E+03  0.25500000000E-02 0. -1.
          2   -1    0    0  501    0  0.00000000000E+00 -0.00000000000E+00 -0.10982789342E+03  0.10982789345E+03  0.25500000000E-02 0.  1.
    5000001    1    1    2    0    0  0.72319593155E+02 -0.13210631550E+03  0.51514409970E+02  0.17681893728E+03  0.77000000000E+02 0.  0.
   -5000001    1    1    2    0    0 -0.72319593155E+02  0.13210631550E+03  0.10444503898E+03  0.19879629855E+03  0.77000000000E+02 0.  0.
<mgrwt>
<rscale>  0 0.34170668E+03</rscale>
<asrwt>0</asrwt>
<pdfrwt beam="1">  1        2 0.16896599E-01 0.34170668E+03</pdfrwt>
<pdfrwt beam="2">  1       -2 0.40890360E-01 0.34170668E+03</pdfrwt>
<totfact> 0.19397699E+03</totfact>
</mgrwt>
</event>
<event>
 4    1  0.2489209E-004  0.3702069E+03  0.7818608E-02  0.1054614E+00
          2   -1    0    0  501    0  0.00000000000E+00  0.00000000000E+00  0.10380430251E+04  0.10380430251E+04  0.25500000000E-02 0.  1.
         -2   -1    0    0    0  501 -0.00000000000E+00 -0.00000000000E+00 -0.33007573563E+02  0.33007573662E+02  0.25500000000E-02 0. -1.
    5000001    1    1    2    0    0 -0.81053147204E+02 -0.10573965961E+03  0.80015422610E+03  0.81481671180E+03  0.77000000000E+02 0.  0.
   -5000001    1    1    2    0    0  0.81053147204E+02  0.10573965961E+03  0.20488122539E+03  0.25623388691E+03  0.77000000000E+02 0.  0.
<mgrwt>
<rscale>  0 0.37020687E+03</rscale>
<asrwt>0</asrwt>
<pdfrwt beam="1">  1        2 0.15969891E+00 0.37020687E+03</pdfrwt>
<pdfrwt beam="2">  1       -2 0.50780887E-02 0.37020687E+03</pdfrwt>
<totfact> 0.47790560E+03</totfact>
</mgrwt>
</event>
<event>
 4    1  0.2489209E-004  0.1784444E+03  0.7818608E-02  0.1169317E+00
         -2   -1    0    0    0  501 -0.00000000000E+00  0.00000000000E+00  0.59793797128E+02  0.59793797182E+02  0.25500000000E-02 0. -1.
          2   -1    0    0  501    0  0.00000000000E+00 -0.00000000000E+00 -0.13313427404E+03  0.13313427407E+03  0.25500000000E-02 0.  1.
    5000001    1    1    2    0    0 -0.41895951376E+02  0.12480531240E+02 -0.48541884352E+02  0.10097697232E+03  0.77000000000E+02 0.  0.
   -5000001    1    1    2    0    0  0.41895951376E+02 -0.12480531240E+02 -0.24798592562E+02  0.91951098932E+02  0.77000000000E+02 0.  0.
<mgrwt>
<rscale>  0 0.17844443E+03</rscale>
<asrwt>0</asrwt>
<pdfrwt beam="1">  1        2 0.20482196E-01 0.17844443E+03</pdfrwt>
<pdfrwt beam="2">  1       -2 0.91990457E-02 0.17844443E+03</pdfrwt>
<totfact> 0.19511617E+04</totfact>
</mgrwt>
</event>
<event>
 4    1  0.2489209E-004  0.1891645E+03  0.7818608E-02  0.1159217E+00
         -2   -1    0    0    0  501 -0.00000000000E+00  0.00000000000E+00  0.67846738305E+03  0.67846738306E+03  0.25500000000E-02 0. -1.
          2   -1    0    0  501    0  0.00000000000E+00 -0.00000000000E+00 -0.13185308520E+02  0.13185308767E+02  0.25500000000E-02 0.  1.
    5000001    1    1    2    0    0  0.49496296053E+02 -0.20411804515E+02  0.37746336016E+03  0.38893972971E+03  0.77000000000E+02 0.  0.
   -5000001    1    1    2    0    0 -0.49496296053E+02  0.20411804515E+02  0.28781871438E+03  0.30271296212E+03  0.77000000000E+02 0.  0.
<mgrwt>
<rscale>  0 0.18916450E+03</rscale>
<asrwt>0</asrwt>
<pdfrwt beam="1">  1        2 0.20285086E-02 0.18916450E+03</pdfrwt>
<pdfrwt beam="2">  1       -2 0.10437962E+00 0.18916450E+03</pdfrwt>
<totfact> 0.40576569E+03</totfact>
</mgrwt>
</event>
<event>
 4    1  0.2489209E-004  0.4019024E+03  0.7818608E-02  0.1043123E+00
          2   -1    0    0  501    0  0.00000000000E+00  0.00000000000E+00  0.52292926109E+03  0.52292926110E+03  0.25500000000E-02 0.  1.
         -2   -1    0    0    0  501 -0.00000000000E+00 -0.00000000000E+00 -0.77221496647E+02  0.77221496689E+02  0.25500000000E-02 0. -1.
    5000001    1    1    2    0    0 -0.15568064051E+03 -0.83478003363E+02  0.13775893891E+03  0.23687879627E+03  0.77000000000E+02 0.  0.
   -5000001    1    1    2    0    0  0.15568064051E+03  0.83478003363E+02  0.30794882553E+03  0.36327196151E+03  0.77000000000E+02 0.  0.
<mgrwt>
<rscale>  0 0.40190238E+03</rscale>
<asrwt>0</asrwt>
<pdfrwt beam="1">  1        2 0.80450654E-01 0.40190238E+03</pdfrwt>
<pdfrwt beam="2">  1       -2 0.11880230E-01 0.40190238E+03</pdfrwt>
<totfact> 0.29903261E+03</totfact>
</mgrwt>
</event>
<event>
 4    1  0.2489209E-004  0.1714473E+03  0.7818608E-02  0.1176347E+00
          2   -1    0    0  501    0  0.00000000000E+00  0.00000000000E+00  0.36349111600E+03  0.36349111601E+03  0.25500000000E-02 0.  1.
         -2   -1    0    0    0  501 -0.00000000000E+00 -0.00000000000E+00 -0.20216562859E+02  0.20216563020E+02  0.25500000000E-02 0. -1.
    5000001    1    1    2    0    0 -0.23614147146E+02 -0.29278249949E+02  0.17648779004E+03  0.19619323102E+03  0.77000000000E+02 0.  0.
   -5000001    1    1    2    0    0  0.23614147146E+02  0.29278249949E+02  0.16678676310E+03  0.18751444801E+03  0.77000000000E+02 0.  0.
<mgrwt>
<rscale>  0 0.17144726E+03</rscale>
<asrwt>0</asrwt>
<pdfrwt beam="1">  1        2 0.55921711E-01 0.17144726E+03</pdfrwt>
<pdfrwt beam="2">  1       -2 0.31102404E-02 0.17144726E+03</pdfrwt>
<totfact> 0.33815769E+04</totfact>
</mgrwt>
</event>
<event>
 4    1  0.2489209E-004  0.2242436E+03  0.7818608E-02  0.1130758E+00
         -2   -1    0    0    0  501 -0.00000000000E+00  0.00000000000E+00  0.92981629040E+01  0.92981632537E+01  0.25500000000E-02 0. -1.
          2   -1    0    0  501    0  0.00000000000E+00 -0.00000000000E+00 -0.13520194021E+04  0.13520194021E+04  0.25500000000E-02 0.  1.
    5000001    1    1    2    0    0 -0.16661196945E+02  0.72195475392E+02 -0.87745334151E+03  0.88393616776E+03  0.77000000000E+02 0.  0.
   -5000001    1    1    2    0    0  0.16661196945E+02 -0.72195475392E+02 -0.46526789765E+03  0.47738139755E+03  0.77000000000E+02 0.  0.
<mgrwt>
<rscale>  0 0.22424359E+03</rscale>
<asrwt>0</asrwt>
<pdfrwt beam="1">  1        2 0.20800283E+00 0.22424359E+03</pdfrwt>
<pdfrwt beam="2">  1       -2 0.14304877E-02 0.22424359E+03</pdfrwt>
<totfact> 0.20557522E+04</totfact>
</mgrwt>
</event>
<event>
 4    1  0.2489209E-004  0.4552396E+03  0.7818608E-02  0.1026171E+00
          2   -1    0    0  501    0  0.00000000000E+00  0.00000000000E+00  0.22645431584E+03  0.22645431585E+03  0.25500000000E-02 0. -1.
         -2   -1    0    0    0  501 -0.00000000000E+00 -0.00000000000E+00 -0.22879123634E+03  0.22879123635E+03  0.25500000000E-02 0.  1.
    5000001    1    1    2    0    0 -0.18726194220E+03  0.40510270590E+02  0.94611953318E+02  0.22713110472E+03  0.77000000000E+02 0.  0.
   -5000001    1    1    2    0    0  0.18726194220E+03 -0.40510270590E+02 -0.96948873820E+02  0.22811444749E+03  0.77000000000E+02 0.  0.
<mgrwt>
<rscale>  0 0.45523955E+03</rscale>
<asrwt>0</asrwt>
<pdfrwt beam="1">  1        2 0.34839126E-01 0.45523955E+03</pdfrwt>
<pdfrwt beam="2">  1       -2 0.35198652E-01 0.45523955E+03</pdfrwt>
<totfact> 0.11380241E+03</totfact>
</mgrwt>
</event>
<event>
 4    1  0.2489209E-004  0.2074670E+03  0.7818608E-02  0.1143588E+00
         -2   -1    0    0    0  501 -0.00000000000E+00  0.00000000000E+00  0.12484897918E+02  0.12484898179E+02  0.25500000000E-02 0. -1.
          2   -1    0    0  501    0  0.00000000000E+00 -0.00000000000E+00 -0.86189238767E+03  0.86189238767E+03  0.25500000000E-02 0.  1.
    5000001    1    1    2    0    0  0.57480247377E+02  0.39067795192E+02 -0.42963156835E+03  0.44197574140E+03  0.77000000000E+02 0.  0.
   -5000001    1    1    2    0    0 -0.57480247377E+02 -0.39067795192E+02 -0.41977592140E+03  0.43240154446E+03  0.77000000000E+02 0.  0.
<mgrwt>
<rscale>  0 0.20746700E+03</rscale>
<asrwt>0</asrwt>
<pdfrwt beam="1">  1        2 0.13259878E+00 0.20746700E+03</pdfrwt>
<pdfrwt beam="2">  1       -2 0.19207542E-02 0.20746700E+03</pdfrwt>
<totfact> 0.25840180E+04</totfact>
</mgrwt>
</event>
<event>
 4    1  0.2489209E-004  0.2348639E+03  0.7818608E-02  0.1123262E+00
          2   -1    0    0  501    0  0.00000000000E+00  0.00000000000E+00  0.44945476059E+02  0.44945476132E+02  0.25500000000E-02 0.  1.
         -2   -1    0    0    0  501 -0.00000000000E+00 -0.00000000000E+00 -0.30682197775E+03  0.30682197776E+03  0.25500000000E-02 0. -1.
    5000001    1    1    2    0    0  0.74353636124E+02  0.47776563754E+02 -0.12032675332E+03  0.16798390046E+03  0.77000000000E+02 0.  0.
   -5000001    1    1    2    0    0 -0.74353636124E+02 -0.47776563754E+02 -0.14154974837E+03  0.18378355344E+03  0.77000000000E+02 0.  0.
<mgrwt>
<rscale>  0 0.23486387E+03</rscale>
<asrwt>0</asrwt>
<pdfrwt beam="1">  1        2 0.69146888E-02 0.23486387E+03</pdfrwt>
<pdfrwt beam="2">  1       -2 0.47203380E-01 0.23486387E+03</pdfrwt>
<totfact> 0.43636257E+03</totfact>
</mgrwt>
</event>
<event>
 4    1  0.2489209E-004  0.2695338E+03  0.7818608E-02  0.1101547E+00
         -2   -1    0    0    0  501 -0.00000000000E+00  0.00000000000E+00  0.93180817581E+03  0.93180817582E+03  0.25500000000E-02 0. -1.
          2   -1    0    0  501    0  0.00000000000E+00 -0.00000000000E+00 -0.19491258114E+02  0.19491258281E+02  0.25500000000E-02 0.  1.
    5000001    1    1    2    0    0 -0.79944854823E+02  0.51212490360E+02  0.65641145503E+03  0.66769671055E+03  0.77000000000E+02 0.  0.
   -5000001    1    1    2    0    0  0.79944854823E+02 -0.51212490360E+02  0.25590546267E+03  0.28360272355E+03  0.77000000000E+02 0.  0.
<mgrwt>
<rscale>  0 0.26953377E+03</rscale>
<asrwt>0</asrwt>
<pdfrwt beam="1">  1        2 0.29986540E-02 0.26953377E+03</pdfrwt>
<pdfrwt beam="2">  1       -2 0.14335516E+00 0.26953377E+03</pdfrwt>
<totfact> 0.11164459E+03</totfact>
</mgrwt>
</event>
<event>
 4    1  0.2489209E-004  0.2294661E+03  0.7818608E-02  0.1127016E+00
         -2   -1    0    0    0  501 -0.00000000000E+00  0.00000000000E+00  0.25020321389E+02  0.25020321519E+02  0.25500000000E-02 0. -1.
          2   -1    0    0  501    0  0.00000000000E+00 -0.00000000000E+00 -0.52611902818E+03  0.52611902818E+03  0.25500000000E-02 0.  1.
    5000001    1    1    2    0    0  0.75189088527E+02  0.21572962719E+02 -0.17031675831E+03  0.20262179033E+03  0.77000000000E+02 0.  0.
   -5000001    1    1    2    0    0 -0.75189088527E+02 -0.21572962719E+02 -0.33078194848E+03  0.34851755938E+03  0.77000000000E+02 0.  0.
<mgrwt>
<rscale>  0 0.22946605E+03</rscale>
<asrwt>0</asrwt>
<pdfrwt beam="1">  1        2 0.80941381E-01 0.22946605E+03</pdfrwt>
<pdfrwt beam="2">  1       -2 0.38492806E-02 0.22946605E+03</pdfrwt>
<totfact> 0.16810253E+04</totfact>
</mgrwt>
</event>
<event>
 4    1  0.2489209E-004  0.1838880E+03  0.7818608E-02  0.1164092E+00
         -2   -1    0    0    0  501 -0.00000000000E+00  0.00000000000E+00  0.57361944199E+02  0.57361944256E+02  0.25500000000E-02 0. -1.
          2   -1    0    0  501    0  0.00000000000E+00 -0.00000000000E+00 -0.14737476411E+03  0.14737476413E+03  0.25500000000E-02 0.  1.
    5000001    1    1    2    0    0  0.44073042763E+02 -0.22195727047E+02 -0.55546485967E+02  0.10700231540E+03  0.77000000000E+02 0.  0.
   -5000001    1    1    2    0    0 -0.44073042763E+02  0.22195727047E+02 -0.34466333946E+02  0.97734392991E+02  0.77000000000E+02 0.  0.
<mgrwt>
<rscale>  0 0.18388804E+03</rscale>
<asrwt>0</asrwt>
<pdfrwt beam="1">  1        2 0.22673040E-01 0.18388804E+03</pdfrwt>
<pdfrwt beam="2">  1       -2 0.88249146E-02 0.18388804E+03</pdfrwt>
<totfact> 0.18614507E+04</totfact>
</mgrwt>
</event>
<event>
 4    1  0.2489209E-004  0.2415395E+03  0.7818608E-02  0.1118771E+00
          2   -1    0    0  501    0  0.00000000000E+00  0.00000000000E+00  0.59913077917E+03  0.59913077918E+03  0.25500000000E-02 0.  1.
         -2   -1    0    0    0  501 -0.00000000000E+00 -0.00000000000E+00 -0.24344151124E+02  0.24344151257E+02  0.25500000000E-02 0. -1.
    5000001    1    1    2    0    0  0.67844243348E+02 -0.45059824763E+02  0.40349530309E+03  0.41877283672E+03  0.77000000000E+02 0.  0.
   -5000001    1    1    2    0    0 -0.67844243348E+02  0.45059824763E+02  0.17129132496E+03  0.20470209371E+03  0.77000000000E+02 0.  0.
<mgrwt>
<rscale>  0 0.24153948E+03</rscale>
<asrwt>0</asrwt>
<pdfrwt beam="1">  1        2 0.92173949E-01 0.24153948E+03</pdfrwt>
<pdfrwt beam="2">  1       -2 0.37452547E-02 0.24153948E+03</pdfrwt>
<totfact> 0.15145179E+04</totfact>
</mgrwt>
</event>
<event>
 4    1  0.2489209E-004  0.2542640E+03  0.7818608E-02  0.1110639E+00
         -2   -1    0    0    0  501 -0.00000000000E+00  0.00000000000E+00  0.29653101761E+02  0.29653101871E+02  0.25500000000E-02 0. -1.
          2   -1    0    0  501    0  0.00000000000E+00 -0.00000000000E+00 -0.54505424869E+03  0.54505424870E+03  0.25500000000E-02 0.  1.
    5000001    1    1    2    0    0 -0.66368005676E+01 -0.95967546507E+02 -0.18695235951E+03  0.22390623447E+03  0.77000000000E+02 0.  0.
   -5000001    1    1    2    0    0  0.66368005676E+01  0.95967546507E+02 -0.32844878742E+03  0.35080111611E+03  0.77000000000E+02 0.  0.
<mgrwt>
<rscale>  0 0.25426403E+03</rscale>
<asrwt>0</asrwt>
<pdfrwt beam="1">  1        2 0.83854492E-01 0.25426403E+03</pdfrwt>
<pdfrwt beam="2">  1       -2 0.45620161E-02 0.25426403E+03</pdfrwt>
<totfact> 0.12576202E+04</totfact>
</mgrwt>
</event>
<event>
 4    1  0.2489209E-004  0.1792042E+03  0.7818608E-02  0.1168575E+00
          2   -1    0    0  501    0  0.00000000000E+00  0.00000000000E+00  0.28594550811E+03  0.28594550812E+03  0.25500000000E-02 0.  1.
         -2   -1    0    0    0  501 -0.00000000000E+00 -0.00000000000E+00 -0.28077169212E+02  0.28077169328E+02  0.25500000000E-02 0. -1.
    5000001    1    1    2    0    0  0.50861548353E+01  0.38342726853E+02  0.17198224959E+03  0.19236145105E+03  0.77000000000E+02 0.  0.
   -5000001    1    1    2    0    0 -0.50861548353E+01 -0.38342726853E+02  0.85886089302E+02  0.12166122640E+03  0.77000000000E+02 0.  0.
<mgrwt>
<rscale>  0 0.17920425E+03</rscale>
<asrwt>0</asrwt>
<pdfrwt beam="1">  1        2 0.43991617E-01 0.17920425E+03</pdfrwt>
<pdfrwt beam="2">  1       -2 0.43195644E-02 0.17920425E+03</pdfrwt>
<totfact> 0.26903006E+04</totfact>
</mgrwt>
</event>
<event>
 4    1  0.2489209E-004  0.2938762E+03  0.7818608E-02  0.1088343E+00
          2   -1    0    0  501    0  0.00000000000E+00  0.00000000000E+00  0.39576727004E+03  0.39576727005E+03  0.25500000000E-02 0.  1.
         -2   -1    0    0    0  501 -0.00000000000E+00 -0.00000000000E+00 -0.54554292410E+02  0.54554292470E+02  0.25500000000E-02 0. -1.
    5000001    1    1    2    0    0 -0.50648376754E+01  0.11595742894E+03  0.24231701843E+03  0.27949653902E+03  0.77000000000E+02 0.  0.
   -5000001    1    1    2    0    0  0.50648376754E+01 -0.11595742894E+03  0.98895959209E+02  0.17082502350E+03  0.77000000000E+02 0.  0.
<mgrwt>
<rscale>  0 0.29387619E+03</rscale>
<asrwt>0</asrwt>
<pdfrwt beam="1">  1        2 0.60887273E-01 0.29387619E+03</pdfrwt>
<pdfrwt beam="2">  1       -2 0.83929680E-02 0.29387619E+03</pdfrwt>
<totfact> 0.70586815E+03</totfact>
</mgrwt>
</event>
<event>
 4    1  0.2489209E-004  0.1830247E+03  0.7818608E-02  0.1164907E+00
         -2   -1    0    0    0  501 -0.00000000000E+00  0.00000000000E+00  0.58982863830E+03  0.58982863831E+03  0.25500000000E-02 0. -1.
          2   -1    0    0  501    0  0.00000000000E+00 -0.00000000000E+00 -0.14198208328E+02  0.14198208557E+02  0.25500000000E-02 0.  1.
    5000001    1    1    2    0    0 -0.13786641577E+02 -0.45211023656E+02  0.23983072371E+03  0.25628477166E+03  0.77000000000E+02 0.  0.
   -5000001    1    1    2    0    0  0.13786641577E+02  0.45211023656E+02  0.33579970626E+03  0.34774207521E+03  0.77000000000E+02 0.  0.
<mgrwt>
<rscale>  0 0.18302470E+03</rscale>
<asrwt>0</asrwt>
<pdfrwt beam="1">  1        2 0.21843404E-02 0.18302470E+03</pdfrwt>
<pdfrwt beam="2">  1       -2 0.90742840E-01 0.18302470E+03</pdfrwt>
<totfact> 0.50448810E+03</totfact>
</mgrwt>
</event>
<event>
 4    1  0.2489209E-004  0.2146646E+03  0.7818608E-02  0.1137924E+00
         -2   -1    0    0    0  501 -0.00000000000E+00  0.00000000000E+00  0.18492024563E+02  0.18492024739E+02  0.25500000000E-02 0. -1.
          2   -1    0    0  501    0  0.00000000000E+00 -0.00000000000E+00 -0.62298356541E+03  0.62298356541E+03  0.25500000000E-02 0.  1.
    5000001    1    1    2    0    0  0.23451618159E+02  0.60647156434E+02 -0.19191545567E+03  0.21676853578E+03  0.77000000000E+02 0.  0.
   -5000001    1    1    2    0    0 -0.23451618159E+02 -0.60647156434E+02 -0.41257608517E+03  0.42470705437E+03  0.77000000000E+02 0.  0.
<mgrwt>
<rscale>  0 0.21466464E+03</rscale>
<asrwt>0</asrwt>
<pdfrwt beam="1">  1        2 0.95843610E-01 0.21466464E+03</pdfrwt>
<pdfrwt beam="2">  1       -2 0.28449273E-02 0.21466464E+03</pdfrwt>
<totfact> 0.21642331E+04</totfact>
</mgrwt>
</event>
<event>
 4    1  0.2489209E-004  0.2116831E+03  0.7818608E-02  0.1140240E+00
          2   -1    0    0  501    0  0.00000000000E+00  0.00000000000E+00  0.19758740250E+04  0.19758740250E+04  0.25500000000E-02 0.  1.
         -2   -1    0    0    0  501 -0.00000000000E+00 -0.00000000000E+00 -0.56696073189E+01  0.56696078923E+01  0.25500000000E-02 0. -1.
    5000001    1    1    2    0    0 -0.55651322863E+02 -0.34096848207E+02  0.68705415256E+03  0.69442931487E+03  0.77000000000E+02 0.  0.
   -5000001    1    1    2    0    0  0.55651322863E+02  0.34096848207E+02  0.12831502651E+04  0.12871143180E+04  0.77000000000E+02 0.  0.
<mgrwt>
<rscale>  0 0.21168307E+03</rscale>
<asrwt>0</asrwt>
<pdfrwt beam="1">  1        2 0.30398081E+00 0.21168307E+03</pdfrwt>
<pdfrwt beam="2">  1       -2 0.87224678E-03 0.21168307E+03</pdfrwt>
<totfact> 0.19710395E+04</totfact>
</mgrwt>
</event>
<event>
 4    1  0.2489209E-004  0.6011203E+03  0.7818608E-02  0.9903084E-01
         -2   -1    0    0    0  501 -0.00000000000E+00  0.00000000000E+00  0.56430677729E+02  0.56430677787E+02  0.25500000000E-02 0. -1.
          2   -1    0    0  501    0  0.00000000000E+00 -0.00000000000E+00 -0.16008386378E+04  0.16008386378E+04  0.25500000000E-02 0.  1.
    5000001    1    1    2    0    0 -0.13620780918E+03  0.16162904579E+02 -0.66110138493E+02  0.17062636718E+03  0.77000000000E+02 0.  0.
   -5000001    1    1    2    0    0  0.13620780918E+03 -0.16162904579E+02 -0.14782978216E+04  0.14866429484E+04  0.77000000000E+02 0.  0.
<mgrwt>
<rscale>  0 0.60112032E+03</rscale>
<asrwt>0</asrwt>
<pdfrwt beam="1">  1        2 0.24628283E+00 0.60112032E+03</pdfrwt>
<pdfrwt beam="2">  1       -2 0.86816440E-02 0.60112032E+03</pdfrwt>
<totfact> 0.98177907E+02</totfact>
</mgrwt>
</event>
<event>
 4    1  0.2489209E-004  0.1719183E+03  0.7818608E-02  0.1175862E+00
          2   -1    0    0  501    0  0.00000000000E+00  0.00000000000E+00  0.23971811832E+03  0.23971811834E+03  0.25500000000E-02 0.  1.
         -2   -1    0    0    0  501 -0.00000000000E+00 -0.00000000000E+00 -0.30823584735E+02  0.30823584840E+02  0.25500000000E-02 0. -1.
    5000001    1    1    2    0    0  0.18150464706E+02 -0.33375707181E+02  0.11085781187E+03  0.14022065345E+03  0.77000000000E+02 0.  0.
   -5000001    1    1    2    0    0 -0.18150464706E+02  0.33375707181E+02  0.98036721715E+02  0.13032104973E+03  0.77000000000E+02 0.  0.
<mgrwt>
<rscale>  0 0.17191826E+03</rscale>
<asrwt>0</asrwt>
<pdfrwt beam="1">  1        2 0.36879709E-01 0.17191826E+03</pdfrwt>
<pdfrwt beam="2">  1       -2 0.47420901E-02 0.17191826E+03</pdfrwt>
<totfact> 0.28134229E+04</totfact>
</mgrwt>
</event>
<event>
 4    1  0.2489209E-004  0.2849869E+03  0.7818608E-02  0.1092996E+00
         -2   -1    0    0    0  501 -0.00000000000E+00  0.00000000000E+00  0.67696097135E+02  0.67696097183E+02  0.25500000000E-02 0. -1.
          2   -1    0    0  501    0  0.00000000000E+00 -0.00000000000E+00 -0.29993433629E+03  0.29993433630E+03  0.25500000000E-02 0.  1.
    5000001    1    1    2    0    0 -0.26202025756E+02  0.11653246492E+03 -0.10264983588E+03  0.17530644695E+03  0.77000000000E+02 0.  0.
   -5000001    1    1    2    0    0  0.26202025756E+02 -0.11653246492E+03 -0.12958840327E+03  0.19232398654E+03  0.77000000000E+02 0.  0.
<mgrwt>
<rscale>  0 0.28498690E+03</rscale>
<asrwt>0</asrwt>
<pdfrwt beam="1">  1        2 0.46143743E-01 0.28498690E+03</pdfrwt>
<pdfrwt beam="2">  1       -2 0.10414784E-01 0.28498690E+03</pdfrwt>
<totfact> 0.67623686E+03</totfact>
</mgrwt>
</event>
<event>
 4    1  0.2489209E-004  0.2406275E+03  0.7818608E-02  0.1119375E+00
         -2   -1    0    0    0  501 -0.00000000000E+00  0.00000000000E+00  0.63127374146E+02  0.63127374198E+02  0.25500000000E-02 0. -1.
          2   -1    0    0  501    0  0.00000000000E+00 -0.00000000000E+00 -0.22930467277E+03  0.22930467278E+03  0.25500000000E-02 0.  1.
    5000001    1    1    2    0    0 -0.57643595755E+02  0.49222279682E+02 -0.18772574111E+02  0.10966780059E+03  0.77000000000E+02 0.  0.
   -5000001    1    1    2    0    0  0.57643595755E+02 -0.49222279682E+02 -0.14740472451E+03  0.18276424639E+03  0.77000000000E+02 0.  0.
<mgrwt>
<rscale>  0 0.24062753E+03</rscale>
<asrwt>0</asrwt>
<pdfrwt beam="1">  1        2 0.35277642E-01 0.24062753E+03</pdfrwt>
<pdfrwt beam="2">  1       -2 0.97119038E-02 0.24062753E+03</pdfrwt>
<totfact> 0.10021022E+04</totfact>
</mgrwt>
</event>
<event>
 4    1  0.2489209E-004  0.2043618E+03  0.7818608E-02  0.1146110E+00
         -2   -1    0    0    0  501 -0.00000000000E+00  0.00000000000E+00  0.39926022325E+01  0.39926030468E+01  0.25500000000E-02 0. -1.
          2   -1    0    0  501    0  0.00000000000E+00 -0.00000000000E+00 -0.26150693400E+04  0.26150693400E+04  0.25500000000E-02 0.  1.
    5000001    1    1    2    0    0  0.51616342849E+02  0.32599477359E+01 -0.18548358851E+04  0.18571537456E+04  0.77000000000E+02 0.  0.
   -5000001    1    1    2    0    0 -0.51616342849E+02 -0.32599477359E+01 -0.75624085264E+03  0.76190819743E+03  0.77000000000E+02 0.  0.
<mgrwt>
<rscale>  0 0.20436177E+03</rscale>
<asrwt>0</asrwt>
<pdfrwt beam="1">  1        2 0.40231699E+00 0.20436177E+03</pdfrwt>
<pdfrwt beam="2">  1       -2 0.61424865E-03 0.20436177E+03</pdfrwt>
<totfact> 0.14886661E+04</totfact>
</mgrwt>
</event>
<event>
 4    1  0.2489209E-004  0.2345835E+03  0.7818608E-02  0.1123455E+00
         -2   -1    0    0    0  501 -0.00000000000E+00  0.00000000000E+00  0.58850662750E+01  0.58850668275E+01  0.25500000000E-02 0.  1.
          2   -1    0    0  501    0  0.00000000000E+00 -0.00000000000E+00 -0.23376711496E+04  0.23376711496E+04  0.25500000000E-02 0. -1.
    5000001    1    1    2    0    0 -0.19594583588E+02  0.75108047996E+02 -0.74166636933E+03  0.74968204592E+03  0.77000000000E+02 0.  0.
   -5000001    1    1    2    0    0  0.19594583588E+02 -0.75108047996E+02 -0.15901197140E+04  0.15938741705E+04  0.77000000000E+02 0.  0.
<mgrwt>
<rscale>  0 0.23458346E+03</rscale>
<asrwt>0</asrwt>
<pdfrwt beam="1">  1        2 0.35964097E+00 0.23458346E+03</pdfrwt>
<pdfrwt beam="2">  1       -2 0.90539672E-03 0.23458346E+03</pdfrwt>
<totfact> 0.12072721E+04</totfact>
</mgrwt>
</event>
<event>
 4    1  0.2489209E-004  0.3097619E+03  0.7818608E-02  0.1080460E+00
         -2   -1    0    0    0  501 -0.00000000000E+00  0.00000000000E+00  0.41865188549E+02  0.41865188627E+02  0.25500000000E-02 0. -1.
          2   -1    0    0  501    0  0.00000000000E+00 -0.00000000000E+00 -0.57298472963E+03  0.57298472964E+03  0.25500000000E-02 0.  1.
    5000001    1    1    2    0    0 -0.10416486426E+03 -0.81995283324E+02 -0.22182103215E+03  0.26964257033E+03  0.77000000000E+02 0.  0.
   -5000001    1    1    2    0    0  0.10416486426E+03  0.81995283324E+02 -0.30929850894E+03  0.34520734793E+03  0.77000000000E+02 0.  0.
<mgrwt>
<rscale>  0 0.30976193E+03</rscale>
<asrwt>0</asrwt>
<pdfrwt beam="1">  1        2 0.88151491E-01 0.30976193E+03</pdfrwt>
<pdfrwt beam="2">  1       -2 0.64407986E-02 0.30976193E+03</pdfrwt>
<totfact> 0.70645166E+03</totfact>
</mgrwt>
</event>
<event>
 4    1  0.2489209E-004  0.1971291E+03  0.7818608E-02  0.1152184E+00
         -2   -1    0    0    0  501 -0.00000000000E+00  0.00000000000E+00  0.24895322218E+03  0.24895322219E+03  0.25500000000E-02 0. -1.
          2   -1    0    0  501    0  0.00000000000E+00 -0.00000000000E+00 -0.39023272279E+02  0.39023272363E+02  0.25500000000E-02 0.  1.
    5000001    1    1    2    0    0  0.17650212239E+02  0.33070041105E+02  0.33684783406E+02  0.92026204115E+02  0.77000000000E+02 0.  0.
   -5000001    1    1    2    0    0 -0.17650212239E+02 -0.33070041105E+02  0.17624516649E+03  0.19595029044E+03  0.77000000000E+02 0.  0.
<mgrwt>
<rscale>  0 0.19712909E+03</rscale>
<asrwt>0</asrwt>
<pdfrwt beam="1">  1        2 0.60035806E-02 0.19712909E+03</pdfrwt>
<pdfrwt beam="2">  1       -2 0.38300494E-01 0.19712909E+03</pdfrwt>
<totfact> 0.77573344E+03</totfact>
</mgrwt>
</event>
<event>
 4    1  0.2489209E-004  0.3553605E+03  0.7818608E-02  0.1060436E+00
          2   -1    0    0  501    0  0.00000000000E+00  0.00000000000E+00  0.11980001470E+04  0.11980001470E+04  0.25500000000E-02 0.  1.
         -2   -1    0    0    0  501 -0.00000000000E+00 -0.00000000000E+00 -0.26352473841E+02  0.26352473964E+02  0.25500000000E-02 0. -1.
    5000001    1    1    2    0    0  0.19428867125E+02 -0.12305009599E+03  0.93246524105E+03  0.94389577432E+03  0.77000000000E+02 0.  0.
   -5000001    1    1    2    0    0 -0.19428867125E+02  0.12305009599E+03  0.23918243207E+03  0.28045684661E+03  0.77000000000E+02 0.  0.
<mgrwt>
<rscale>  0 0.35536048E+03</rscale>
<asrwt>0</asrwt>
<pdfrwt beam="1">  1        2 0.18430772E+00 0.35536048E+03</pdfrwt>
<pdfrwt beam="2">  1       -2 0.40542266E-02 0.35536048E+03</pdfrwt>
<totfact> 0.54162929E+03</totfact>
</mgrwt>
</event>
<event>
 4    1  0.2489209E-004  0.2911719E+03  0.7818608E-02  0.1089739E+00
          2   -1    0    0  501    0  0.00000000000E+00  0.00000000000E+00  0.10932730322E+04  0.10932730322E+04  0.25500000000E-02 0.  1.
         -2   -1    0    0    0  501 -0.00000000000E+00 -0.00000000000E+00 -0.19386980941E+02  0.19386981108E+02  0.25500000000E-02 0. -1.
    5000001    1    1    2    0    0  0.56526282455E+02 -0.68534559922E+02  0.20879762579E+03  0.23961981355E+03  0.77000000000E+02 0.  0.
   -5000001    1    1    2    0    0 -0.56526282455E+02  0.68534559922E+02  0.86508842548E+03  0.87304019977E+03  0.77000000000E+02 0.  0.
<mgrwt>
<rscale>  0 0.29117186E+03</rscale>
<asrwt>0</asrwt>
<pdfrwt beam="1">  1        2 0.16819585E+00 0.29117186E+03</pdfrwt>
<pdfrwt beam="2">  1       -2 0.29826124E-02 0.29117186E+03</pdfrwt>
<totfact> 0.98523303E+03</totfact>
</mgrwt>
</event>
<event>
 4    1  0.2489209E-004  0.2221782E+03  0.7818608E-02  0.1132269E+00
          2   -1    0    0  501    0  0.00000000000E+00  0.00000000000E+00  0.60816709714E+03  0.60816709715E+03  0.25500000000E-02 0.  1.
         -2   -1    0    0    0  501 -0.00000000000E+00 -0.00000000000E+00 -0.20291779187E+02  0.20291779347E+02  0.25500000000E-02 0. -1.
    5000001    1    1    2    0    0 -0.16851371941E+02 -0.67801417592E+02  0.18326677735E+03  0.21070527436E+03  0.77000000000E+02 0.  0.
   -5000001    1    1    2    0    0  0.16851371941E+02  0.67801417592E+02  0.40460854061E+03  0.41775360213E+03  0.77000000000E+02 0.  0.
<mgrwt>
<rscale>  0 0.22217824E+03</rscale>
<asrwt>0</asrwt>
<pdfrwt beam="1">  1        2 0.93564167E-01 0.22217824E+03</pdfrwt>
<pdfrwt beam="2">  1       -2 0.31218123E-02 0.22217824E+03</pdfrwt>
<totfact> 0.19435985E+04</totfact>
</mgrwt>
</event>
<event>
 4    1  0.2489209E-004  0.2048726E+03  0.7818608E-02  0.1145692E+00
          2   -1    0    0  501    0  0.00000000000E+00  0.00000000000E+00  0.25993827916E+03  0.25993827918E+03  0.25500000000E-02 0.  1.
         -2   -1    0    0    0  501 -0.00000000000E+00 -0.00000000000E+00 -0.40368025622E+02  0.40368025703E+02  0.25500000000E-02 0. -1.
    5000001    1    1    2    0    0  0.41638430120E+02  0.49472707622E+02  0.81102682758E+02  0.12918185946E+03  0.77000000000E+02 0.  0.
   -5000001    1    1    2    0    0 -0.41638430120E+02 -0.49472707622E+02  0.13846757078E+03  0.17112444542E+03  0.77000000000E+02 0.  0.
<mgrwt>
<rscale>  0 0.20487260E+03</rscale>
<asrwt>0</asrwt>
<pdfrwt beam="1">  1        2 0.39990505E-01 0.20487260E+03</pdfrwt>
<pdfrwt beam="2">  1       -2 0.62104654E-02 0.20487260E+03</pdfrwt>
<totfact> 0.17374549E+04</totfact>
</mgrwt>
</event>
<event>
 4    1  0.2489209E-004  0.1716977E+03  0.7818608E-02  0.1176089E+00
         -2   -1    0    0    0  501 -0.00000000000E+00  0.00000000000E+00  0.11046297039E+02  0.11046297334E+02  0.25500000000E-02 0. -1.
          2   -1    0    0  501    0  0.00000000000E+00 -0.00000000000E+00 -0.66719428094E+03  0.66719428094E+03  0.25500000000E-02 0.  1.
    5000001    1    1    2    0    0  0.24814319841E+02 -0.25896262731E+02 -0.27894844010E+03  0.29159492301E+03  0.77000000000E+02 0.  0.
   -5000001    1    1    2    0    0 -0.24814319841E+02  0.25896262731E+02 -0.37719954380E+03  0.38664565526E+03  0.77000000000E+02 0.  0.
<mgrwt>
<rscale>  0 0.17169771E+03</rscale>
<asrwt>0</asrwt>
<pdfrwt beam="1">  1        2 0.10264524E+00 0.17169771E+03</pdfrwt>
<pdfrwt beam="2">  1       -2 0.16994309E-02 0.17169771E+03</pdfrwt>
<totfact> 0.41767692E+04</totfact>
</mgrwt>
</event>
<event>
 4    1  0.2489209E-004  0.2588270E+03  0.7818608E-02  0.1107850E+00
         -2   -1    0    0    0  501 -0.00000000000E+00  0.00000000000E+00  0.27689533063E+02  0.27689533180E+02  0.25500000000E-02 0. -1.
          2   -1    0    0  501    0  0.00000000000E+00 -0.00000000000E+00 -0.60484407242E+03  0.60484407242E+03  0.25500000000E-02 0.  1.
    5000001    1    1    2    0    0  0.73956260733E+02 -0.47821523197E+02 -0.15333679253E+03  0.19286678959E+03  0.77000000000E+02 0.  0.
   -5000001    1    1    2    0    0 -0.73956260733E+02  0.47821523197E+02 -0.42381774682E+03  0.43966681601E+03  0.77000000000E+02 0.  0.
<mgrwt>
<rscale>  0 0.25882697E+03</rscale>
<asrwt>0</asrwt>
<pdfrwt beam="1">  1        2 0.93052924E-01 0.25882697E+03</pdfrwt>
<pdfrwt beam="2">  1       -2 0.42599286E-02 0.25882697E+03</pdfrwt>
<totfact> 0.12385765E+04</totfact>
</mgrwt>
</event>
<event>
 4    1  0.2489209E-004  0.1876268E+03  0.7818608E-02  0.1160619E+00
          2   -1    0    0  501    0  0.00000000000E+00  0.00000000000E+00  0.32658600868E+03  0.32658600869E+03  0.25500000000E-02 0.  1.
         -2   -1    0    0    0  501 -0.00000000000E+00 -0.00000000000E+00 -0.26948338337E+02  0.26948338457E+02  0.25500000000E-02 0. -1.
    5000001    1    1    2    0    0 -0.36796136980E+02  0.29678398379E+02  0.10225571095E+03  0.13645509682E+03  0.77000000000E+02 0.  0.
   -5000001    1    1    2    0    0  0.36796136980E+02 -0.29678398379E+02  0.19738195940E+03  0.21707925033E+03  0.77000000000E+02 0.  0.
<mgrwt>
<rscale>  0 0.18762676E+03</rscale>
<asrwt>0</asrwt>
<pdfrwt beam="1">  1        2 0.50244003E-01 0.18762676E+03</pdfrwt>
<pdfrwt beam="2">  1       -2 0.41458981E-02 0.18762676E+03</pdfrwt>
<totfact> 0.24922746E+04</totfact>
</mgrwt>
</event>
<event>
 4    1  0.2489209E-004  0.5295069E+03  0.7818608E-02  0.1006352E+00
         -2   -1    0    0    0  501 -0.00000000000E+00  0.00000000000E+00  0.27517321687E+02  0.27517321805E+02  0.25500000000E-02 0. -1.
          2   -1    0    0  501    0  0.00000000000E+00 -0.00000000000E+00 -0.25472826894E+04  0.25472826894E+04  0.25500000000E-02 0.  1.
    5000001    1    1    2    0    0  0.14732150532E+02 -0.15891681875E+03 -0.22163994292E+04  0.22234718396E+04  0.77000000000E+02 0.  0.
   -5000001    1    1    2    0    0 -0.14732150532E+02  0.15891681875E+03 -0.30336593846E+03  0.35132817160E+03  0.77000000000E+02 0.  0.
<mgrwt>
<rscale>  0 0.52950693E+03</rscale>
<asrwt>0</asrwt>
<pdfrwt beam="1">  1        2 0.39188946E+00 0.52950693E+03</pdfrwt>
<pdfrwt beam="2">  1       -2 0.42334361E-02 0.52950693E+03</pdfrwt>
<totfact> 0.92389376E+02</totfact>
</mgrwt>
</event>
<event>
 4    1  0.2489209E-004  0.3264054E+03  0.7818608E-02  0.1072739E+00
         -2   -1    0    0    0  501 -0.00000000000E+00  0.00000000000E+00  0.31145042496E+02  0.31145042601E+02  0.25500000000E-02 0. -1.
          2   -1    0    0  501    0  0.00000000000E+00 -0.00000000000E+00 -0.85519595308E+03  0.85519595309E+03  0.25500000000E-02 0.  1.
    5000001    1    1    2    0    0  0.24738249287E+01  0.11718296710E+03 -0.18535119712E+03  0.23242640526E+03  0.77000000000E+02 0.  0.
   -5000001    1    1    2    0    0 -0.24738249287E+01 -0.11718296710E+03 -0.63869971347E+03  0.65391459043E+03  0.77000000000E+02 0.  0.
<mgrwt>
<rscale>  0 0.32640536E+03</rscale>
<asrwt>0</asrwt>
<pdfrwt beam="1">  1        2 0.13156859E+00 0.32640536E+03</pdfrwt>
<pdfrwt beam="2">  1       -2 0.47915457E-02 0.32640536E+03</pdfrwt>
<totfact> 0.68157229E+03</totfact>
</mgrwt>
</event>
<event>
 4    1  0.2489209E-004  0.2701432E+03  0.7818608E-02  0.1101198E+00
          2   -1    0    0  501    0  0.00000000000E+00  0.00000000000E+00  0.80363544330E+03  0.80363544331E+03  0.25500000000E-02 0.  1.
         -2   -1    0    0    0  501 -0.00000000000E+00 -0.00000000000E+00 -0.22702251470E+02  0.22702251614E+02  0.25500000000E-02 0. -1.
    5000001    1    1    2    0    0 -0.92824434059E+02 -0.13955752939E+02  0.57154127263E+03  0.58429407400E+03  0.77000000000E+02 0.  0.
   -5000001    1    1    2    0    0  0.92824434059E+02  0.13955752939E+02  0.20939191921E+03  0.24204362092E+03  0.77000000000E+02 0.  0.
<mgrwt>
<rscale>  0 0.27014318E+03</rscale>
<asrwt>0</asrwt>
<pdfrwt beam="1">  1        2 0.12363620E+00 0.27014318E+03</pdfrwt>
<pdfrwt beam="2">  1       -2 0.34926546E-02 0.27014318E+03</pdfrwt>
<totfact> 0.11841624E+04</totfact>
</mgrwt>
</event>
<event>
 4    1  0.2489209E-004  0.4597506E+03  0.7818608E-02  0.1024854E+00
         -2   -1    0    0    0  501 -0.00000000000E+00  0.00000000000E+00  0.43371057970E+03  0.43371057971E+03  0.25500000000E-02 0. -1.
          2   -1    0    0  501    0  0.00000000000E+00 -0.00000000000E+00 -0.12183853955E+03  0.12183853958E+03  0.25500000000E-02 0.  1.
    5000001    1    1    2    0    0  0.86216233933E+02 -0.19603750160E+03  0.11678551302E+03  0.25579639770E+03  0.77000000000E+02 0.  0.
   -5000001    1    1    2    0    0 -0.86216233933E+02  0.19603750160E+03  0.19508652713E+03  0.29975272158E+03  0.77000000000E+02 0.  0.
<mgrwt>
<rscale>  0 0.45975064E+03</rscale>
<asrwt>0</asrwt>
<pdfrwt beam="1">  1        2 0.18744391E-01 0.45975064E+03</pdfrwt>
<pdfrwt beam="2">  1       -2 0.66724704E-01 0.45975064E+03</pdfrwt>
<totfact> 0.63686314E+02</totfact>
</mgrwt>
</event>
<event>
 4    1  0.2489209E-004  0.4142932E+03  0.7818608E-02  0.1038940E+00
         -2   -1    0    0    0  501 -0.00000000000E+00  0.00000000000E+00  0.56001695947E+02  0.56001696005E+02  0.25500000000E-02 0. -1.
          2   -1    0    0  501    0  0.00000000000E+00 -0.00000000000E+00 -0.76622172849E+03  0.76622172850E+03  0.25500000000E-02 0.  1.
    5000001    1    1    2    0    0  0.15489901462E+03 -0.10360600664E+03 -0.26091150984E+03  0.32974493978E+03  0.77000000000E+02 0.  0.
   -5000001    1    1    2    0    0 -0.15489901462E+03  0.10360600664E+03 -0.44930852270E+03  0.49247848472E+03  0.77000000000E+02 0.  0.
<mgrwt>
<rscale>  0 0.41429321E+03</rscale>
<asrwt>0</asrwt>
<pdfrwt beam="1">  1        2 0.11788026E+00 0.41429321E+03</pdfrwt>
<pdfrwt beam="2">  1       -2 0.86156461E-02 0.41429321E+03</pdfrwt>
<totfact> 0.31690092E+03</totfact>
</mgrwt>
</event>
<event>
 4    1  0.2489209E-004  0.1925040E+03  0.7818608E-02  0.1156222E+00
          2   -1    0    0  501    0  0.00000000000E+00  0.00000000000E+00  0.10477989245E+04  0.10477989245E+04  0.25500000000E-02 0.  1.
         -2   -1    0    0    0  501 -0.00000000000E+00 -0.00000000000E+00 -0.88418206452E+01  0.88418210130E+01  0.25500000000E-02 0. -1.
    5000001    1    1    2    0    0  0.56839045866E+02 -0.94211588413E+01  0.49751255788E+03  0.50672199539E+03  0.77000000000E+02 0.  0.
   -5000001    1    1    2    0    0 -0.56839045866E+02  0.94211588413E+01  0.54144454599E+03  0.54991875013E+03  0.77000000000E+02 0.  0.
<mgrwt>
<rscale>  0 0.19250403E+03</rscale>
<asrwt>0</asrwt>
<pdfrwt beam="1">  1        2 0.16119983E+00 0.19250403E+03</pdfrwt>
<pdfrwt beam="2">  1       -2 0.13602802E-02 0.19250403E+03</pdfrwt>
<totfact> 0.32558632E+04</totfact>
</mgrwt>
</event>
<event>
 4    1  0.2489209E-004  0.6016020E+03  0.7818608E-02  0.9902088E-01
         -2   -1    0    0    0  501 -0.00000000000E+00  0.00000000000E+00  0.64879867275E+03  0.64879867276E+03  0.25500000000E-02 0. -1.
          2   -1    0    0  501    0  0.00000000000E+00 -0.00000000000E+00 -0.13945967493E+03  0.13945967495E+03  0.25500000000E-02 0.  1.
    5000001    1    1    2    0    0  0.18355509734E+03 -0.21460851695E+03  0.34547536170E+03  0.45280405790E+03  0.77000000000E+02 0.  0.
   -5000001    1    1    2    0    0 -0.18355509734E+03  0.21460851695E+03  0.16386363612E+03  0.33545428981E+03  0.77000000000E+02 0.  0.
<mgrwt>
<rscale>  0 0.60160203E+03</rscale>
<asrwt>0</asrwt>
<pdfrwt beam="1">  1        2 0.21455334E-01 0.60160203E+03</pdfrwt>
<pdfrwt beam="2">  1       -2 0.99815182E-01 0.60160203E+03</pdfrwt>
<totfact> 0.21972688E+02</totfact>
</mgrwt>
</event>
<event>
 4    1  0.2489209E-004  0.2436825E+03  0.7818608E-02  0.1117364E+00
         -2   -1    0    0    0  501 -0.00000000000E+00  0.00000000000E+00  0.24752755922E+02  0.24752756053E+02  0.25500000000E-02 0. -1.
          2   -1    0    0  501    0  0.00000000000E+00 -0.00000000000E+00 -0.59974295000E+03  0.59974295001E+03  0.25500000000E-02 0.  1.
    5000001    1    1    2    0    0 -0.43356646546E+02  0.69797267781E+02 -0.40673383089E+03  0.42203420073E+03  0.77000000000E+02 0.  0.
   -5000001    1    1    2    0    0  0.43356646546E+02 -0.69797267781E+02 -0.16825636319E+03  0.20246150534E+03  0.77000000000E+02 0.  0.
<mgrwt>
<rscale>  0 0.24368251E+03</rscale>
<asrwt>0</asrwt>
<pdfrwt beam="1">  1        2 0.92268135E-01 0.24368251E+03</pdfrwt>
<pdfrwt beam="2">  1       -2 0.38081167E-02 0.24368251E+03</pdfrwt>
<totfact> 0.14761366E+04</totfact>
</mgrwt>
</event>
<event>
 4    1  0.2489209E-004  0.2101496E+03  0.7818608E-02  0.1141448E+00
         -2   -1    0    0    0  501 -0.00000000000E+00  0.00000000000E+00  0.79643700784E+02  0.79643700824E+02  0.25500000000E-02 0. -1.
          2   -1    0    0  501    0  0.00000000000E+00 -0.00000000000E+00 -0.13862633679E+03  0.13862633681E+03  0.25500000000E-02 0.  1.
    5000001    1    1    2    0    0 -0.58541272241E+02  0.39863967571E+02 -0.39641240875E+02  0.11187781033E+03  0.77000000000E+02 0.  0.
   -5000001    1    1    2    0    0  0.58541272241E+02 -0.39863967571E+02 -0.19341395133E+02  0.10639222731E+03  0.77000000000E+02 0.  0.
<mgrwt>
<rscale>  0 0.21014961E+03</rscale>
<asrwt>0</asrwt>
<pdfrwt beam="1">  1        2 0.21327129E-01 0.21014961E+03</pdfrwt>
<pdfrwt beam="2">  1       -2 0.12252877E-01 0.21014961E+03</pdfrwt>
<totfact> 0.11961260E+04</totfact>
</mgrwt>
</event>
<event>
 4    1  0.2489209E-004  0.2357727E+03  0.7818608E-02  0.1122641E+00
         -2   -1    0    0    0  501 -0.00000000000E+00  0.00000000000E+00  0.21948786121E+02  0.21948786270E+02  0.25500000000E-02 0. -1.
          2   -1    0    0  501    0  0.00000000000E+00 -0.00000000000E+00 -0.63316471938E+03  0.63316471939E+03  0.25500000000E-02 0.  1.
    5000001    1    1    2    0    0 -0.73437659121E+02 -0.48253050421E+02 -0.26196121924E+03  0.28683466848E+03  0.77000000000E+02 0.  0.
   -5000001    1    1    2    0    0  0.73437659121E+02  0.48253050421E+02 -0.34925471402E+03  0.36827883718E+03  0.77000000000E+02 0.  0.
<mgrwt>
<rscale>  0 0.23577275E+03</rscale>
<asrwt>0</asrwt>
<pdfrwt beam="1">  1        2 0.97409943E-01 0.23577275E+03</pdfrwt>
<pdfrwt beam="2">  1       -2 0.33767368E-02 0.23577275E+03</pdfrwt>
<totfact> 0.16556788E+04</totfact>
</mgrwt>
</event>
<event>
 4    1  0.2489209E-004  0.1868914E+03  0.7818608E-02  0.1161295E+00
         -2   -1    0    0    0  501 -0.00000000000E+00  0.00000000000E+00  0.48329361039E+03  0.48329361040E+03  0.25500000000E-02 0. -1.
          2   -1    0    0  501    0  0.00000000000E+00 -0.00000000000E+00 -0.18067893128E+02  0.18067893308E+02  0.25500000000E-02 0.  1.
    5000001    1    1    2    0    0  0.48264883200E+02 -0.73577669903E+01  0.28755528586E+03  0.30166318654E+03  0.77000000000E+02 0.  0.
   -5000001    1    1    2    0    0 -0.48264883200E+02  0.73577669903E+01  0.17767043140E+03  0.19969831717E+03  0.77000000000E+02 0.  0.
<mgrwt>
<rscale>  0 0.18689138E+03</rscale>
<asrwt>0</asrwt>
<pdfrwt beam="1">  1        2 0.27796762E-02 0.18689138E+03</pdfrwt>
<pdfrwt beam="2">  1       -2 0.74352854E-01 0.18689138E+03</pdfrwt>
<totfact> 0.56483876E+03</totfact>
</mgrwt>
</event>
<event>
 4    1  0.2489209E-004  0.1925985E+03  0.7818608E-02  0.1156138E+00
         -2   -1    0    0    0  501 -0.00000000000E+00  0.00000000000E+00  0.86117753960E+02  0.86117753997E+02  0.25500000000E-02 0. -1.
          2   -1    0    0  501    0  0.00000000000E+00 -0.00000000000E+00 -0.10768445081E+03  0.10768445084E+03  0.25500000000E-02 0.  1.
    5000001    1    1    2    0    0  0.44125564412E+02 -0.11323731591E+02 -0.46632557646E+02  0.10089047410E+03  0.77000000000E+02 0.  0.
   -5000001    1    1    2    0    0 -0.44125564412E+02  0.11323731591E+02  0.25065860792E+02  0.92911730740E+02  0.77000000000E+02 0.  0.
<mgrwt>
<rscale>  0 0.19259847E+03</rscale>
<asrwt>0</asrwt>
<pdfrwt beam="1">  1        2 0.16566839E-01 0.19259847E+03</pdfrwt>
<pdfrwt beam="2">  1       -2 0.13248885E-01 0.19259847E+03</pdfrwt>
<totfact> 0.14004551E+04</totfact>
</mgrwt>
</event>
<event>
 4    1  0.2489209E-004  0.1704033E+03  0.7818608E-02  0.1177428E+00
         -2   -1    0    0    0  501 -0.00000000000E+00  0.00000000000E+00  0.52034650255E+02  0.52034650318E+02  0.25500000000E-02 0. -1.
          2   -1    0    0  501    0  0.00000000000E+00 -0.00000000000E+00 -0.13950935633E+03  0.13950935636E+03  0.25500000000E-02 0.  1.
    5000001    1    1    2    0    0 -0.31364404080E+02 -0.18602950285E+02 -0.42922915669E+02  0.95400064424E+02  0.77000000000E+02 0.  0.
   -5000001    1    1    2    0    0  0.31364404080E+02  0.18602950285E+02 -0.44551790408E+02  0.96143942249E+02  0.77000000000E+02 0.  0.
<mgrwt>
<rscale>  0 0.17040329E+03</rscale>
<asrwt>0</asrwt>
<pdfrwt beam="1">  1        2 0.21462978E-01 0.17040329E+03</pdfrwt>
<pdfrwt beam="2">  1       -2 0.80053309E-02 0.17040329E+03</pdfrwt>
<totfact> 0.22894825E+04</totfact>
</mgrwt>
</event>
<event>
 4    1  0.2489209E-004  0.2453242E+03  0.7818608E-02  0.1116296E+00
          2   -1    0    0  501    0  0.00000000000E+00  0.00000000000E+00  0.65681081004E+03  0.65681081004E+03  0.25500000000E-02 0.  1.
         -2   -1    0    0    0  501 -0.00000000000E+00 -0.00000000000E+00 -0.22907657030E+02  0.22907657171E+02  0.25500000000E-02 0. -1.
    5000001    1    1    2    0    0 -0.80324938756E+01 -0.94161643029E+02  0.35474498693E+03  0.37510524087E+03  0.77000000000E+02 0.  0.
   -5000001    1    1    2    0    0  0.80324938756E+01  0.94161643029E+02  0.27915816608E+03  0.30461322635E+03  0.77000000000E+02 0.  0.
<mgrwt>
<rscale>  0 0.24532425E+03</rscale>
<asrwt>0</asrwt>
<pdfrwt beam="1">  1        2 0.10104783E+00 0.24532425E+03</pdfrwt>
<pdfrwt beam="2">  1       -2 0.35242546E-02 0.24532425E+03</pdfrwt>
<totfact> 0.14905539E+04</totfact>
</mgrwt>
</event>
<event>
 4    1  0.2489209E-004  0.1613917E+03  0.7818608E-02  0.1187134E+00
          2   -1    0    0  501    0  0.00000000000E+00  0.00000000000E+00  0.13576911653E+03  0.13576911655E+03  0.25500000000E-02 0.  1.
         -2   -1    0    0    0  501 -0.00000000000E+00 -0.00000000000E+00 -0.47962464157E+02  0.47962464224E+02  0.25500000000E-02 0. -1.
    5000001    1    1    2    0    0 -0.20305678935E+02  0.10269203248E+02  0.53084687271E+02  0.96253629308E+02  0.77000000000E+02 0.  0.
   -5000001    1    1    2    0    0  0.20305678935E+02 -0.10269203248E+02  0.34721965098E+02  0.87477951466E+02  0.77000000000E+02 0.  0.
<mgrwt>
<rscale>  0 0.16139171E+03</rscale>
<asrwt>0</asrwt>
<pdfrwt beam="1">  1        2 0.20887557E-01 0.16139171E+03</pdfrwt>
<pdfrwt beam="2">  1       -2 0.73788405E-02 0.16139171E+03</pdfrwt>
<totfact> 0.26644219E+04</totfact>
</mgrwt>
</event>
<event>
 4    1  0.2489209E-004  0.2307356E+03  0.7818608E-02  0.1126123E+00
          2   -1    0    0  501    0  0.00000000000E+00  0.00000000000E+00  0.19663882991E+04  0.19663882991E+04  0.25500000000E-02 0.  1.
         -2   -1    0    0    0  501 -0.00000000000E+00 -0.00000000000E+00 -0.67686185763E+01  0.67686190566E+01  0.25500000000E-02 0. -1.
    5000001    1    1    2    0    0  0.71427372604E+02 -0.44457104262E+02  0.11285262174E+04  0.11342745378E+04  0.77000000000E+02 0.  0.
   -5000001    1    1    2    0    0 -0.71427372604E+02  0.44457104262E+02  0.83109346305E+03  0.83888238031E+03  0.77000000000E+02 0.  0.
<mgrwt>
<rscale>  0 0.23073563E+03</rscale>
<asrwt>0</asrwt>
<pdfrwt beam="1">  1        2 0.30252127E+00 0.23073563E+03</pdfrwt>
<pdfrwt beam="2">  1       -2 0.10413260E-02 0.23073563E+03</pdfrwt>
<totfact> 0.15476399E+04</totfact>
</mgrwt>
</event>
<event>
 4    1  0.2489209E-004  0.2553254E+03  0.7818608E-02  0.1109985E+00
          2   -1    0    0  501    0  0.00000000000E+00  0.00000000000E+00  0.52063494788E+02  0.52063494850E+02  0.25500000000E-02 0.  1.
         -2   -1    0    0    0  501 -0.00000000000E+00 -0.00000000000E+00 -0.31303626757E+03  0.31303626758E+03  0.25500000000E-02 0. -1.
    5000001    1    1    2    0    0 -0.29644852782E+02 -0.96946606372E+02 -0.14414962666E+03  0.19231634525E+03  0.77000000000E+02 0.  0.
   -5000001    1    1    2    0    0  0.29644852782E+02  0.96946606372E+02 -0.11682314612E+03  0.17278341718E+03  0.77000000000E+02 0.  0.
<mgrwt>
<rscale>  0 0.25532538E+03</rscale>
<asrwt>0</asrwt>
<pdfrwt beam="1">  1        2 0.80097686E-02 0.25532538E+03</pdfrwt>
<pdfrwt beam="2">  1       -2 0.48159425E-01 0.25532538E+03</pdfrwt>
<totfact> 0.34878599E+03</totfact>
</mgrwt>
</event>
<event>
 4    1  0.2489209E-004  0.2452510E+03  0.7818608E-02  0.1116343E+00
         -2   -1    0    0    0  501 -0.00000000000E+00  0.00000000000E+00  0.65134946212E+01  0.65134951204E+01  0.25500000000E-02 0. -1.
          2   -1    0    0  501    0  0.00000000000E+00 -0.00000000000E+00 -0.23085928504E+04  0.23085928504E+04  0.25500000000E-02 0.  1.
    5000001    1    1    2    0    0 -0.53279519443E+02  0.38328255199E+02 -0.18050610746E+04  0.18078944231E+04  0.77000000000E+02 0.  0.
   -5000001    1    1    2    0    0  0.53279519443E+02 -0.38328255199E+02 -0.49701828126E+03  0.50721192242E+03  0.77000000000E+02 0.  0.
<mgrwt>
<rscale>  0 0.24525095E+03</rscale>
<asrwt>0</asrwt>
<pdfrwt beam="1">  1        2 0.35516748E+00 0.24525095E+03</pdfrwt>
<pdfrwt beam="2">  1       -2 0.10020780E-02 0.24525095E+03</pdfrwt>
<totfact> 0.10811272E+04</totfact>
</mgrwt>
</event>
<event>
 4    1  0.2489209E-004  0.2711220E+03  0.7818608E-02  0.1100639E+00
         -2   -1    0    0    0  501 -0.00000000000E+00  0.00000000000E+00  0.35806725162E+03  0.35806725163E+03  0.25500000000E-02 0. -1.
          2   -1    0    0  501    0  0.00000000000E+00 -0.00000000000E+00 -0.51322171370E+02  0.51322171434E+02  0.25500000000E-02 0.  1.
    5000001    1    1    2    0    0 -0.10098234017E+03 -0.39818774428E+02  0.19230610652E+03  0.23386664240E+03  0.77000000000E+02 0.  0.
   -5000001    1    1    2    0    0  0.10098234017E+03  0.39818774428E+02  0.11443897373E+03  0.17552278066E+03  0.77000000000E+02 0.  0.
<mgrwt>
<rscale>  0 0.27112203E+03</rscale>
<asrwt>0</asrwt>
<pdfrwt beam="1">  1        2 0.78957188E-02 0.27112203E+03</pdfrwt>
<pdfrwt beam="2">  1       -2 0.55087269E-01 0.27112203E+03</pdfrwt>
<totfact> 0.27179828E+03</totfact>
</mgrwt>
</event>
<event>
 4    1  0.2489209E-004  0.2875127E+03  0.7818608E-02  0.1091655E+00
         -2   -1    0    0    0  501 -0.00000000000E+00  0.00000000000E+00  0.11931606561E+03  0.11931606564E+03  0.25500000000E-02 0. -1.
          2   -1    0    0  501    0  0.00000000000E+00 -0.00000000000E+00 -0.17320292761E+03  0.17320292763E+03  0.25500000000E-02 0.  1.
    5000001    1    1    2    0    0  0.80679877302E+02  0.69784261273E+02 -0.85898996386E+02  0.15712009198E+03  0.77000000000E+02 0.  0.
   -5000001    1    1    2    0    0 -0.80679877302E+02 -0.69784261273E+02  0.32012134380E+02  0.13539890129E+03  0.77000000000E+02 0.  0.
<mgrwt>
<rscale>  0 0.28751273E+03</rscale>
<asrwt>0</asrwt>
<pdfrwt beam="1">  1        2 0.26646604E-01 0.28751273E+03</pdfrwt>
<pdfrwt beam="2">  1       -2 0.18356318E-01 0.28751273E+03</pdfrwt>
<totfact> 0.48531348E+03</totfact>
</mgrwt>
</event>
<event>
 4    1  0.2489209E-004  0.3512899E+03  0.7818608E-02  0.1062087E+00
          2   -1    0    0  501    0  0.00000000000E+00  0.00000000000E+00  0.24779067924E+03  0.24779067925E+03  0.25500000000E-02 0.  1.
         -2   -1    0    0    0  501 -0.00000000000E+00 -0.00000000000E+00 -0.12450484819E+03  0.12450484822E+03  0.25500000000E-02 0. -1.
    5000001    1    1    2    0    0  0.88370872532E+01  0.14563445319E+03 -0.22501428117E+01  0.16498954879E+03  0.77000000000E+02 0.  0.
   -5000001    1    1    2    0    0 -0.88370872532E+01 -0.14563445319E+03  0.12553597386E+03  0.20730597868E+03  0.77000000000E+02 0.  0.
<mgrwt>
<rscale>  0 0.35128986E+03</rscale>
<asrwt>0</asrwt>
<pdfrwt beam="1">  1        2 0.38121642E-01 0.35128986E+03</pdfrwt>
<pdfrwt beam="2">  1       -2 0.19154592E-01 0.35128986E+03</pdfrwt>
<totfact> 0.30610609E+03</totfact>
</mgrwt>
</event>
<event>
 4    1  0.2489209E-004  0.4806146E+03  0.7818608E-02  0.1018966E+00
          2   -1    0    0  501    0  0.00000000000E+00  0.00000000000E+00  0.16961538180E+04  0.16961538180E+04  0.25500000000E-02 0.  1.
         -2   -1    0    0    0  501 -0.00000000000E+00 -0.00000000000E+00 -0.34046207055E+02  0.34046207150E+02  0.25500000000E-02 0. -1.
    5000001    1    1    2    0    0  0.61498450363E+02 -0.20314052979E+03  0.11272699599E+04  0.11496585131E+04  0.77000000000E+02 0.  0.
   -5000001    1    1    2    0    0 -0.61498450363E+02  0.20314052979E+03  0.53483765098E+03  0.58054151199E+03  0.77000000000E+02 0.  0.
<mgrwt>
<rscale>  0 0.48061462E+03</rscale>
<asrwt>0</asrwt>
<pdfrwt beam="1">  1        2 0.26094675E+00 0.48061462E+03</pdfrwt>
<pdfrwt beam="2">  1       -2 0.52378778E-02 0.48061462E+03</pdfrwt>
<totfact> 0.19412187E+03</totfact>
</mgrwt>
</event>
<event>
 4    1  0.2489209E-004  0.2002416E+03  0.7818608E-02  0.1149535E+00
         -2   -1    0    0    0  501 -0.00000000000E+00  0.00000000000E+00  0.50783801827E+01  0.50783808229E+01  0.25500000000E-02 0. -1.
          2   -1    0    0  501    0  0.00000000000E+00 -0.00000000000E+00 -0.19738924261E+04  0.19738924261E+04  0.25500000000E-02 0.  1.
    5000001    1    1    2    0    0 -0.37263925332E+02  0.46971759692E+01 -0.47235061375E+03  0.48005704443E+03  0.77000000000E+02 0.  0.
   -5000001    1    1    2    0    0  0.37263925332E+02 -0.46971759692E+01 -0.14964634322E+04  0.14989137625E+04  0.77000000000E+02 0.  0.
<mgrwt>
<rscale>  0 0.20024162E+03</rscale>
<asrwt>0</asrwt>
<pdfrwt beam="1">  1        2 0.30367515E+00 0.20024162E+03</pdfrwt>
<pdfrwt beam="2">  1       -2 0.78129088E-03 0.20024162E+03</pdfrwt>
<totfact> 0.23100390E+04</totfact>
</mgrwt>
</event>
<event>
 4    1  0.2489209E-004  0.2382237E+03  0.7818608E-02  0.1120982E+00
         -2   -1    0    0    0  501 -0.00000000000E+00  0.00000000000E+00  0.33536213471E+02  0.33536213568E+02  0.25500000000E-02 0. -1.
          2   -1    0    0  501    0  0.00000000000E+00 -0.00000000000E+00 -0.42305405351E+03  0.42305405351E+03  0.25500000000E-02 0.  1.
    5000001    1    1    2    0    0  0.80293724378E+02  0.37018922684E+02 -0.23501523303E+03  0.26263785441E+03  0.77000000000E+02 0.  0.
   -5000001    1    1    2    0    0 -0.80293724378E+02 -0.37018922684E+02 -0.15450260700E+03  0.19395241267E+03  0.77000000000E+02 0.  0.
<mgrwt>
<rscale>  0 0.23822369E+03</rscale>
<asrwt>0</asrwt>
<pdfrwt beam="1">  1        2 0.65085235E-01 0.23822369E+03</pdfrwt>
<pdfrwt beam="2">  1       -2 0.51594178E-02 0.23822369E+03</pdfrwt>
<totfact> 0.13782338E+04</totfact>
</mgrwt>
</event>
<event>
 4    1  0.2489209E-004  0.3686437E+03  0.7818608E-02  0.1055213E+00
          2   -1    0    0  501    0  0.00000000000E+00  0.00000000000E+00  0.74274593971E+03  0.74274593971E+03  0.25500000000E-02 0.  1.
         -2   -1    0    0    0  501 -0.00000000000E+00 -0.00000000000E+00 -0.45741818101E+02  0.45741818172E+02  0.25500000000E-02 0. -1.
    5000001    1    1    2    0    0  0.78199307930E+02  0.80147318827E+02  0.61485012857E+03  0.62968913369E+03  0.77000000000E+02 0.  0.
   -5000001    1    1    2    0    0 -0.78199307930E+02 -0.80147318827E+02  0.82153993035E+02  0.15879862420E+03  0.77000000000E+02 0.  0.
<mgrwt>
<rscale>  0 0.36864373E+03</rscale>
<asrwt>0</asrwt>
<pdfrwt beam="1">  1        2 0.11426860E+00 0.36864373E+03</pdfrwt>
<pdfrwt beam="2">  1       -2 0.70372033E-02 0.36864373E+03</pdfrwt>
<totfact> 0.45265006E+03</totfact>
</mgrwt>
</event>
<event>
 4    1  0.2489209E-004  0.2151485E+03  0.7818608E-02  0.1137553E+00
         -2   -1    0    0    0  501 -0.00000000000E+00  0.00000000000E+00  0.16861987040E+02  0.16861987232E+02  0.25500000000E-02 0. -1.
          2   -1    0    0  501    0  0.00000000000E+00 -0.00000000000E+00 -0.68629054306E+03  0.68629054307E+03  0.25500000000E-02 0.  1.
    5000001    1    1    2    0    0  0.70353954466E+02 -0.92640619700E+01 -0.41528237919E+03  0.42828023095E+03  0.77000000000E+02 0.  0.
   -5000001    1    1    2    0    0 -0.70353954466E+02  0.92640619700E+01 -0.25414617683E+03  0.27487229935E+03  0.77000000000E+02 0.  0.
<mgrwt>
<rscale>  0 0.21514853E+03</rscale>
<asrwt>0</asrwt>
<pdfrwt beam="1">  1        2 0.10558314E+00 0.21514853E+03</pdfrwt>
<pdfrwt beam="2">  1       -2 0.25941524E-02 0.21514853E+03</pdfrwt>
<totfact> 0.22127315E+04</totfact>
</mgrwt>
</event>
<event>
 4    1  0.2489209E-004  0.2659175E+03  0.7818608E-02  0.1103639E+00
          2   -1    0    0  501    0  0.00000000000E+00  0.00000000000E+00  0.87783288030E+02  0.87783288067E+02  0.25500000000E-02 0.  1.
         -2   -1    0    0    0  501 -0.00000000000E+00 -0.00000000000E+00 -0.20138268535E+03  0.20138268536E+03  0.25500000000E-02 0. -1.
    5000001    1    1    2    0    0 -0.10727353590E+03 -0.31934939466E+01 -0.40264210910E+02  0.13808698921E+03  0.77000000000E+02 0.  0.
   -5000001    1    1    2    0    0  0.10727353590E+03  0.31934939466E+01 -0.73335186409E+02  0.15107898422E+03  0.77000000000E+02 0.  0.
<mgrwt>
<rscale>  0 0.26591754E+03</rscale>
<asrwt>0</asrwt>
<pdfrwt beam="1">  1        2 0.13505121E-01 0.26591754E+03</pdfrwt>
<pdfrwt beam="2">  1       -2 0.30981952E-01 0.26591754E+03</pdfrwt>
<totfact> 0.42314625E+03</totfact>
</mgrwt>
</event>
<event>
 4    1  0.2489209E-004  0.3270014E+03  0.7818608E-02  0.1072471E+00
         -2   -1    0    0    0  501 -0.00000000000E+00  0.00000000000E+00  0.12411490185E+03  0.12411490187E+03  0.25500000000E-02 0. -1.
          2   -1    0    0  501    0  0.00000000000E+00 -0.00000000000E+00 -0.21538492125E+03  0.21538492127E+03  0.25500000000E-02 0.  1.
    5000001    1    1    2    0    0  0.31032404916E+02 -0.11951881021E+03 -0.12302061900E+03  0.19055400507E+03  0.77000000000E+02 0.  0.
   -5000001    1    1    2    0    0 -0.31032404916E+02  0.11951881021E+03  0.31750599592E+02  0.14894581808E+03  0.77000000000E+02 0.  0.
<mgrwt>
<rscale>  0 0.32700140E+03</rscale>
<asrwt>0</asrwt>
<pdfrwt beam="1">  1        2 0.33136142E-01 0.32700140E+03</pdfrwt>
<pdfrwt beam="2">  1       -2 0.19094600E-01 0.32700140E+03</pdfrwt>
<totfact> 0.35813439E+03</totfact>
</mgrwt>
</event>
<event>
 4    1  0.2489209E-004  0.1738833E+03  0.7818608E-02  0.1173858E+00
         -2   -1    0    0    0  501 -0.00000000000E+00  0.00000000000E+00  0.64249950629E+01  0.64249955689E+01  0.25500000000E-02 0. -1.
          2   -1    0    0  501    0  0.00000000000E+00 -0.00000000000E+00 -0.11764752044E+04  0.11764752044E+04  0.25500000000E-02 0.  1.
    5000001    1    1    2    0    0  0.19703935341E+01 -0.14445043260E+02 -0.32891770977E+03  0.33812483128E+03  0.77000000000E+02 0.  0.
   -5000001    1    1    2    0    0 -0.19703935341E+01  0.14445043260E+02 -0.84113249952E+03  0.84477536865E+03  0.77000000000E+02 0.  0.
<mgrwt>
<rscale>  0 0.17388327E+03</rscale>
<asrwt>0</asrwt>
<pdfrwt beam="1">  1        2 0.18099601E+00 0.17388327E+03</pdfrwt>
<pdfrwt beam="2">  1       -2 0.98846176E-03 0.17388327E+03</pdfrwt>
<totfact> 0.43180209E+04</totfact>
</mgrwt>
</event>
<event>
 4    1  0.2489209E-004  0.2893150E+03  0.7818608E-02  0.1090707E+00
          2   -1    0    0  501    0  0.00000000000E+00  0.00000000000E+00  0.11601632358E+04  0.11601632358E+04  0.25500000000E-02 0.  1.
         -2   -1    0    0    0  501 -0.00000000000E+00 -0.00000000000E+00 -0.18036935015E+02  0.18036935196E+02  0.25500000000E-02 0. -1.
    5000001    1    1    2    0    0 -0.95703157923E+01 -0.62700637286E+02  0.99766942818E+03  0.10026446274E+04  0.77000000000E+02 0.  0.
   -5000001    1    1    2    0    0  0.95703157923E+01  0.62700637286E+02  0.14445687265E+03  0.17555554368E+03  0.77000000000E+02 0.  0.
<mgrwt>
<rscale>  0 0.28931498E+03</rscale>
<asrwt>0</asrwt>
<pdfrwt beam="1">  1        2 0.17848665E+00 0.28931498E+03</pdfrwt>
<pdfrwt beam="2">  1       -2 0.27749132E-02 0.28931498E+03</pdfrwt>
<totfact> 0.10025883E+04</totfact>
</mgrwt>
</event>
<event>
 4    1  0.2489209E-004  0.2740356E+03  0.7818608E-02  0.1098992E+00
          2   -1    0    0  501    0  0.00000000000E+00  0.00000000000E+00  0.18387742675E+04  0.18387742675E+04  0.25500000000E-02 0.  1.
         -2   -1    0    0    0  501 -0.00000000000E+00 -0.00000000000E+00 -0.10209992861E+02  0.10209993179E+02  0.25500000000E-02 0. -1.
    5000001    1    1    2    0    0  0.72354774004E+02 -0.93088388948E+01  0.32905837474E+03  0.34573151691E+03  0.77000000000E+02 0.  0.
   -5000001    1    1    2    0    0 -0.72354774004E+02  0.93088388948E+01  0.14995058999E+04  0.15032527437E+04  0.77000000000E+02 0.  0.
<mgrwt>
<rscale>  0 0.27403556E+03</rscale>
<asrwt>0</asrwt>
<pdfrwt beam="1">  1        2 0.28288812E+00 0.27403556E+03</pdfrwt>
<pdfrwt beam="2">  1       -2 0.15707694E-02 0.27403556E+03</pdfrwt>
<totfact> 0.99573407E+03</totfact>
</mgrwt>
</event>
<event>
 4    1  0.2489209E-004  0.1824951E+03  0.7818608E-02  0.1165410E+00
          2   -1    0    0  501    0  0.00000000000E+00  0.00000000000E+00  0.12858226216E+04  0.12858226216E+04  0.25500000000E-02 0.  1.
         -2   -1    0    0    0  501 -0.00000000000E+00 -0.00000000000E+00 -0.64753193792E+01  0.64753198813E+01  0.25500000000E-02 0. -1.
    5000001    1    1    2    0    0 -0.26158359233E+02  0.33338213392E+02  0.46601393187E+03  0.47422956564E+03  0.77000000000E+02 0.  0.
   -5000001    1    1    2    0    0  0.26158359233E+02 -0.33338213392E+02  0.81333337036E+03  0.81806837585E+03  0.77000000000E+02 0.  0.
<mgrwt>
<rscale>  0 0.18249507E+03</rscale>
<asrwt>0</asrwt>
<pdfrwt beam="1">  1        2 0.19781886E+00 0.18249507E+03</pdfrwt>
<pdfrwt beam="2">  1       -2 0.99620304E-03 0.18249507E+03</pdfrwt>
<totfact> 0.37263645E+04</totfact>
</mgrwt>
</event>
<event>
 4    1  0.2489209E-004  0.2067257E+03  0.7818608E-02  0.1144185E+00
          2   -1    0    0  501    0  0.00000000000E+00  0.00000000000E+00  0.17174733694E+04  0.17174733694E+04  0.25500000000E-02 0.  1.
         -2   -1    0    0    0  501 -0.00000000000E+00 -0.00000000000E+00 -0.62206974089E+01  0.62206979316E+01  0.25500000000E-02 0. -1.
    5000001    1    1    2    0    0  0.10662527146E+02 -0.40498825523E+02  0.39885230781E+03  0.40836993989E+03  0.77000000000E+02 0.  0.
   -5000001    1    1    2    0    0 -0.10662527146E+02  0.40498825523E+02  0.13124003642E+04  0.13153241275E+04  0.77000000000E+02 0.  0.
<mgrwt>
<rscale>  0 0.20672574E+03</rscale>
<asrwt>0</asrwt>
<pdfrwt beam="1">  1        2 0.26422645E+00 0.20672574E+03</pdfrwt>
<pdfrwt beam="2">  1       -2 0.95703122E-03 0.20672574E+03</pdfrwt>
<totfact> 0.23472721E+04</totfact>
</mgrwt>
</event>
<event>
 4    1  0.2489209E-004  0.2203878E+03  0.7818608E-02  0.1133594E+00
          2   -1    0    0  501    0  0.00000000000E+00  0.00000000000E+00  0.23010454959E+03  0.23010454960E+03  0.25500000000E-02 0.  1.
         -2   -1    0    0    0  501 -0.00000000000E+00 -0.00000000000E+00 -0.52770350982E+02  0.52770351044E+02  0.25500000000E-02 0. -1.
    5000001    1    1    2    0    0  0.67887233167E+02  0.72274216465E+01  0.13924520975E+03  0.17314485406E+03  0.77000000000E+02 0.  0.
   -5000001    1    1    2    0    0 -0.67887233167E+02 -0.72274216465E+01  0.38088988857E+02  0.10973004658E+03  0.77000000000E+02 0.  0.
<mgrwt>
<rscale>  0 0.22038782E+03</rscale>
<asrwt>0</asrwt>
<pdfrwt beam="1">  1        2 0.35400699E-01 0.22038782E+03</pdfrwt>
<pdfrwt beam="2">  1       -2 0.81185158E-02 0.22038782E+03</pdfrwt>
<totfact> 0.13162708E+04</totfact>
</mgrwt>
</event>
<event>
 4    1  0.2489209E-004  0.1968738E+03  0.7818608E-02  0.1152404E+00
         -2   -1    0    0    0  501 -0.00000000000E+00  0.00000000000E+00  0.11226578112E+02  0.11226578402E+02  0.25500000000E-02 0. -1.
          2   -1    0    0  501    0  0.00000000000E+00 -0.00000000000E+00 -0.86311413466E+03  0.86311413466E+03  0.25500000000E-02 0.  1.
    5000001    1    1    2    0    0 -0.19834612068E+02  0.56356707710E+02 -0.48737401653E+03  0.49702306016E+03  0.77000000000E+02 0.  0.
   -5000001    1    1    2    0    0  0.19834612068E+02 -0.56356707710E+02 -0.36451354002E+03  0.37731765291E+03  0.77000000000E+02 0.  0.
<mgrwt>
<rscale>  0 0.19687375E+03</rscale>
<asrwt>0</asrwt>
<pdfrwt beam="1">  1        2 0.13278674E+00 0.19687375E+03</pdfrwt>
<pdfrwt beam="2">  1       -2 0.17271666E-02 0.19687375E+03</pdfrwt>
<totfact> 0.30012269E+04</totfact>
</mgrwt>
</event>
<event>
 4    1  0.2489209E-004  0.3745504E+03  0.7818608E-02  0.1052967E+00
         -2   -1    0    0    0  501 -0.00000000000E+00  0.00000000000E+00  0.87935563362E+03  0.87935563363E+03  0.25500000000E-02 0. -1.
          2   -1    0    0  501    0  0.00000000000E+00 -0.00000000000E+00 -0.39883749831E+02  0.39883749913E+02  0.25500000000E-02 0.  1.
    5000001    1    1    2    0    0  0.28779565334E+02 -0.16336635923E+03  0.51870541474E+03  0.55000103454E+03  0.77000000000E+02 0.  0.
   -5000001    1    1    2    0    0 -0.28779565334E+02  0.16336635923E+03  0.32076646905E+03  0.36923834900E+03  0.77000000000E+02 0.  0.
<mgrwt>
<rscale>  0 0.37455040E+03</rscale>
<asrwt>0</asrwt>
<pdfrwt beam="1">  1        2 0.61359614E-02 0.37455040E+03</pdfrwt>
<pdfrwt beam="2">  1       -2 0.13528548E+00 0.37455040E+03</pdfrwt>
<totfact> 0.49750649E+02</totfact>
</mgrwt>
</event>
<event>
 4    1  0.2489209E-004  0.1751821E+03  0.7818608E-02  0.1172549E+00
         -2   -1    0    0    0  501 -0.00000000000E+00  0.00000000000E+00  0.27655660683E+02  0.27655660800E+02  0.25500000000E-02 0. -1.
          2   -1    0    0  501    0  0.00000000000E+00 -0.00000000000E+00 -0.27741863660E+03  0.27741863661E+03  0.25500000000E-02 0.  1.
    5000001    1    1    2    0    0  0.22910014929E+02  0.16073479536E+02 -0.17883809815E+03  0.19671118646E+03  0.77000000000E+02 0.  0.
   -5000001    1    1    2    0    0 -0.22910014929E+02 -0.16073479536E+02 -0.70924877760E+02  0.10836311095E+03  0.77000000000E+02 0.  0.
<mgrwt>
<rscale>  0 0.17518214E+03</rscale>
<asrwt>0</asrwt>
<pdfrwt beam="1">  1        2 0.42679788E-01 0.17518214E+03</pdfrwt>
<pdfrwt beam="2">  1       -2 0.42547172E-02 0.17518214E+03</pdfrwt>
<totfact> 0.28366020E+04</totfact>
</mgrwt>
</event>
<event>
 4    1  0.2489209E-004  0.2576948E+03  0.7818608E-02  0.1108536E+00
         -2   -1    0    0    0  501 -0.00000000000E+00  0.00000000000E+00  0.18663717338E+04  0.18663717338E+04  0.25500000000E-02 0. -1.
          2   -1    0    0  501    0  0.00000000000E+00 -0.00000000000E+00 -0.88951454081E+01  0.88951457736E+01  0.25500000000E-02 0.  1.
    5000001    1    1    2    0    0 -0.90898760016E+02 -0.46807515039E+02  0.10364588922E+04  0.10443321135E+04  0.77000000000E+02 0.  0.
   -5000001    1    1    2    0    0  0.90898760016E+02  0.46807515039E+02  0.82101769621E+03  0.83093476611E+03  0.77000000000E+02 0.  0.
<mgrwt>
<rscale>  0 0.25769477E+03</rscale>
<asrwt>0</asrwt>
<pdfrwt beam="1">  1        2 0.13684835E-02 0.25769477E+03</pdfrwt>
<pdfrwt beam="2">  1       -2 0.28713420E+00 0.25769477E+03</pdfrwt>
<totfact> 0.40421912E+02</totfact>
</mgrwt>
</event>
<event>
 4    1  0.2489209E-004  0.2146467E+03  0.7818608E-02  0.1137938E+00
         -2   -1    0    0    0  501 -0.00000000000E+00  0.00000000000E+00  0.54682473025E+02  0.54682473084E+02  0.25500000000E-02 0. -1.
          2   -1    0    0  501    0  0.00000000000E+00 -0.00000000000E+00 -0.21063972478E+03  0.21063972479E+03  0.25500000000E-02 0.  1.
    5000001    1    1    2    0    0  0.44791022398E+02  0.59857288600E+02 -0.78488865397E+02  0.13296101939E+03  0.77000000000E+02 0.  0.
   -5000001    1    1    2    0    0 -0.44791022398E+02 -0.59857288600E+02 -0.77468386357E+02  0.13236117849E+03  0.77000000000E+02 0.  0.
<mgrwt>
<rscale>  0 0.21464670E+03</rscale>
<asrwt>0</asrwt>
<pdfrwt beam="1">  1        2 0.32406111E-01 0.21464670E+03</pdfrwt>
<pdfrwt beam="2">  1       -2 0.84126883E-02 0.21464670E+03</pdfrwt>
<totfact> 0.13680495E+04</totfact>
</mgrwt>
</event>
<event>
 4    1  0.2489209E-004  0.6907171E+03  0.7818608E-02  0.9733240E-01
         -2   -1    0    0    0  501 -0.00000000000E+00  0.00000000000E+00  0.27228686490E+03  0.27228686491E+03  0.25500000000E-02 0. -1.
          2   -1    0    0  501    0  0.00000000000E+00 -0.00000000000E+00 -0.43804000152E+03  0.43804000153E+03  0.25500000000E-02 0.  1.
    5000001    1    1    2    0    0  0.10390851525E+02 -0.29402063141E+03  0.85438732285E+02  0.31588744588E+03  0.77000000000E+02 0.  0.
   -5000001    1    1    2    0    0 -0.10390851525E+02  0.29402063141E+03 -0.25119186891E+03  0.39443942056E+03  0.77000000000E+02 0.  0.
<mgrwt>
<rscale>  0 0.69071713E+03</rscale>
<asrwt>0</asrwt>
<pdfrwt beam="1">  1        2 0.67390769E-01 0.69071713E+03</pdfrwt>
<pdfrwt beam="2">  1       -2 0.41890287E-01 0.69071713E+03</pdfrwt>
<totfact> 0.39056702E+02</totfact>
</mgrwt>
</event>
<event>
 4    1  0.2489209E-004  0.4895873E+03  0.7818608E-02  0.1016533E+00
         -2   -1    0    0    0  501 -0.00000000000E+00  0.00000000000E+00  0.52835557519E+02  0.52835557580E+02  0.25500000000E-02 0. -1.
          2   -1    0    0  501    0  0.00000000000E+00 -0.00000000000E+00 -0.11341589382E+04  0.11341589382E+04  0.25500000000E-02 0.  1.
    5000001    1    1    2    0    0 -0.41741700991E+02 -0.16957149258E+03 -0.91231208519E+03  0.93206180132E+03  0.77000000000E+02 0.  0.
   -5000001    1    1    2    0    0  0.41741700991E+02  0.16957149258E+03 -0.16901129548E+03  0.25493269445E+03  0.77000000000E+02 0.  0.
<mgrwt>
<rscale>  0 0.48958725E+03</rscale>
<asrwt>0</asrwt>
<pdfrwt beam="1">  1        2 0.17448597E+00 0.48958725E+03</pdfrwt>
<pdfrwt beam="2">  1       -2 0.81285482E-02 0.48958725E+03</pdfrwt>
<totfact> 0.20089294E+03</totfact>
</mgrwt>
</event>
<event>
 4    1  0.2489209E-004  0.1784357E+03  0.7818608E-02  0.1169326E+00
         -2   -1    0    0    0  501 -0.00000000000E+00  0.00000000000E+00  0.15850609560E+04  0.15850609560E+04  0.25500000000E-02 0. -1.
          2   -1    0    0  501    0  0.00000000000E+00 -0.00000000000E+00 -0.50217781365E+01  0.50217787840E+01  0.25500000000E-02 0.  1.
    5000001    1    1    2    0    0 -0.22224975454E+01  0.43400472717E+02  0.68372364915E+03  0.68941683250E+03  0.77000000000E+02 0.  0.
   -5000001    1    1    2    0    0  0.22224975454E+01 -0.43400472717E+02  0.89631552868E+03  0.90066590225E+03  0.77000000000E+02 0.  0.
<mgrwt>
<rscale>  0 0.17843570E+03</rscale>
<asrwt>0</asrwt>
<pdfrwt beam="1">  1        2 0.77258012E-03 0.17843570E+03</pdfrwt>
<pdfrwt beam="2">  1       -2 0.24385591E+00 0.17843570E+03</pdfrwt>
<totfact> 0.15862366E+03</totfact>
</mgrwt>
</event>
<event>
 4    1  0.2489209E-004  0.2707273E+03  0.7818608E-02  0.1100864E+00
          2   -1    0    0  501    0  0.00000000000E+00  0.00000000000E+00  0.65935827339E+02  0.65935827389E+02  0.25500000000E-02 0.  1.
         -2   -1    0    0    0  501 -0.00000000000E+00 -0.00000000000E+00 -0.27789627163E+03  0.27789627164E+03  0.25500000000E-02 0. -1.
    5000001    1    1    2    0    0  0.25760586621E+02 -0.67521832785E+02 -0.21353254248E+03  0.23821828734E+03  0.77000000000E+02 0.  0.
   -5000001    1    1    2    0    0 -0.25760586621E+02  0.67521832785E+02  0.15720981950E+01  0.10561381168E+03  0.77000000000E+02 0.  0.
<mgrwt>
<rscale>  0 0.27072732E+03</rscale>
<asrwt>0</asrwt>
<pdfrwt beam="1">  1        2 0.10143974E-01 0.27072732E+03</pdfrwt>
<pdfrwt beam="2">  1       -2 0.42753272E-01 0.27072732E+03</pdfrwt>
<totfact> 0.32795272E+03</totfact>
</mgrwt>
</event>
<event>
 4    1  0.2489209E-004  0.3965394E+03  0.7818608E-02  0.1044985E+00
         -2   -1    0    0    0  501 -0.00000000000E+00  0.00000000000E+00  0.90162258303E+02  0.90162258339E+02  0.25500000000E-02 0. -1.
          2   -1    0    0  501    0  0.00000000000E+00 -0.00000000000E+00 -0.43600148032E+03  0.43600148033E+03  0.25500000000E-02 0.  1.
    5000001    1    1    2    0    0  0.71601170605E+02  0.15128080408E+03 -0.27014778270E+03  0.32698843070E+03  0.77000000000E+02 0.  0.
   -5000001    1    1    2    0    0 -0.71601170605E+02 -0.15128080408E+03 -0.75691439320E+02  0.19917530796E+03  0.77000000000E+02 0.  0.
<mgrwt>
<rscale>  0 0.39653942E+03</rscale>
<asrwt>0</asrwt>
<pdfrwt beam="1">  1        2 0.67077150E-01 0.39653942E+03</pdfrwt>
<pdfrwt beam="2">  1       -2 0.13871117E-01 0.39653942E+03</pdfrwt>
<totfact> 0.28459048E+03</totfact>
</mgrwt>
</event>
<event>
 4    1  0.2489209E-004  0.3404264E+03  0.7818608E-02  0.1066614E+00
         -2   -1    0    0    0  501 -0.00000000000E+00  0.00000000000E+00  0.12089497882E+03  0.12089497884E+03  0.25500000000E-02 0. -1.
          2   -1    0    0  501    0  0.00000000000E+00 -0.00000000000E+00 -0.23965036953E+03  0.23965036955E+03  0.25500000000E-02 0.  1.
    5000001    1    1    2    0    0  0.48507716877E+02 -0.13989145889E+03 -0.23919093842E+02  0.16859342193E+03  0.77000000000E+02 0.  0.
   -5000001    1    1    2    0    0 -0.48507716877E+02  0.13989145889E+03 -0.94836296875E+02  0.19195192646E+03  0.77000000000E+02 0.  0.
<mgrwt>
<rscale>  0 0.34042636E+03</rscale>
<asrwt>0</asrwt>
<pdfrwt beam="1">  1        2 0.36869288E-01 0.34042636E+03</pdfrwt>
<pdfrwt beam="2">  1       -2 0.18599228E-01 0.34042636E+03</pdfrwt>
<totfact> 0.33361136E+03</totfact>
</mgrwt>
</event>
<event>
 4    1  0.2489209E-004  0.3122833E+03  0.7818608E-02  0.1079257E+00
         -2   -1    0    0    0  501 -0.00000000000E+00  0.00000000000E+00  0.34951097938E+02  0.34951098031E+02  0.25500000000E-02 0. -1.
          2   -1    0    0  501    0  0.00000000000E+00 -0.00000000000E+00 -0.69755238279E+03  0.69755238280E+03  0.25500000000E-02 0.  1.
    5000001    1    1    2    0    0  0.33864014945E+02  0.13128115514E+03 -0.35088474525E+03  0.38396694864E+03  0.77000000000E+02 0.  0.
   -5000001    1    1    2    0    0 -0.33864014945E+02 -0.13128115514E+03 -0.31171653961E+03  0.34853653219E+03  0.77000000000E+02 0.  0.
<mgrwt>
<rscale>  0 0.31228334E+03</rscale>
<asrwt>0</asrwt>
<pdfrwt beam="1">  1        2 0.10731574E+00 0.31228334E+03</pdfrwt>
<pdfrwt beam="2">  1       -2 0.53770925E-02 0.31228334E+03</pdfrwt>
<totfact> 0.73882445E+03</totfact>
</mgrwt>
</event>
<event>
 4    1  0.2489209E-004  0.3809816E+03  0.7818608E-02  0.1050572E+00
         -2   -1    0    0    0  501 -0.00000000000E+00  0.00000000000E+00  0.52439810453E+02  0.52439810515E+02  0.25500000000E-02 0. -1.
          2   -1    0    0  501    0  0.00000000000E+00 -0.00000000000E+00 -0.69196937912E+03  0.69196937913E+03  0.25500000000E-02 0.  1.
    5000001    1    1    2    0    0 -0.35662917008E+02  0.14054862340E+03 -0.13101140927E+03  0.21004463465E+03  0.77000000000E+02 0.  0.
   -5000001    1    1    2    0    0  0.35662917008E+02 -0.14054862340E+03 -0.50851815940E+03  0.53436455499E+03  0.77000000000E+02 0.  0.
<mgrwt>
<rscale>  0 0.38098159E+03</rscale>
<asrwt>0</asrwt>
<pdfrwt beam="1">  1        2 0.10645682E+00 0.38098159E+03</pdfrwt>
<pdfrwt beam="2">  1       -2 0.80676636E-02 0.38098159E+03</pdfrwt>
<totfact> 0.39898808E+03</totfact>
</mgrwt>
</event>
<event>
 4    1  0.2489209E-004  0.3472316E+03  0.7818608E-02  0.1063757E+00
          2   -1    0    0  501    0  0.00000000000E+00  0.00000000000E+00  0.15930324489E+04  0.15930324489E+04  0.25500000000E-02 0.  1.
         -2   -1    0    0    0  501 -0.00000000000E+00 -0.00000000000E+00 -0.18921428428E+02  0.18921428600E+02  0.25500000000E-02 0. -1.
    5000001    1    1    2    0    0 -0.91287696017E+02 -0.11570071341E+03  0.10188617173E+04  0.10323411730E+04  0.77000000000E+02 0.  0.
   -5000001    1    1    2    0    0  0.91287696017E+02  0.11570071341E+03  0.55524930323E+03  0.57961270455E+03  0.77000000000E+02 0.  0.
<mgrwt>
<rscale>  0 0.34723162E+03</rscale>
<asrwt>0</asrwt>
<pdfrwt beam="1">  1        2 0.24508189E+00 0.34723162E+03</pdfrwt>
<pdfrwt beam="2">  1       -2 0.29109893E-02 0.34723162E+03</pdfrwt>
<totfact> 0.54027500E+03</totfact>
</mgrwt>
</event>
<event>
 4    1  0.2489209E-004  0.1845258E+03  0.7818608E-02  0.1163493E+00
         -2   -1    0    0    0  501 -0.00000000000E+00  0.00000000000E+00  0.42947983338E+02  0.42947983414E+02  0.25500000000E-02 0. -1.
          2   -1    0    0  501    0  0.00000000000E+00 -0.00000000000E+00 -0.19820358761E+03  0.19820358763E+03  0.25500000000E-02 0.  1.
    5000001    1    1    2    0    0  0.25407520502E+02 -0.27444466700E+02 -0.12260970247E+03  0.14953554758E+03  0.77000000000E+02 0.  0.
   -5000001    1    1    2    0    0 -0.25407520502E+02  0.27444466700E+02 -0.32645901804E+02  0.91616023462E+02  0.77000000000E+02 0.  0.
<mgrwt>
<rscale>  0 0.18452582E+03</rscale>
<asrwt>0</asrwt>
<pdfrwt beam="1">  1        2 0.30492859E-01 0.18452582E+03</pdfrwt>
<pdfrwt beam="2">  1       -2 0.66073822E-02 0.18452582E+03</pdfrwt>
<totfact> 0.21009907E+04</totfact>
</mgrwt>
</event>
<event>
 4    1  0.2489209E-004  0.1833546E+03  0.7818608E-02  0.1164595E+00
          2   -1    0    0  501    0  0.00000000000E+00  0.00000000000E+00  0.30106246177E+03  0.30106246178E+03  0.25500000000E-02 0.  1.
         -2   -1    0    0    0  501 -0.00000000000E+00 -0.00000000000E+00 -0.27916873734E+02  0.27916873851E+02  0.25500000000E-02 0. -1.
    5000001    1    1    2    0    0 -0.41650309169E+02 -0.12755590962E+02  0.93426645652E+02  0.12866620175E+03  0.77000000000E+02 0.  0.
   -5000001    1    1    2    0    0  0.41650309169E+02  0.12755590962E+02  0.17971894239E+03  0.20031313389E+03  0.77000000000E+02 0.  0.
<mgrwt>
<rscale>  0 0.18335455E+03</rscale>
<asrwt>0</asrwt>
<pdfrwt beam="1">  1        2 0.46317302E-01 0.18335455E+03</pdfrwt>
<pdfrwt beam="2">  1       -2 0.42949037E-02 0.18335455E+03</pdfrwt>
<totfact> 0.25734485E+04</totfact>
</mgrwt>
</event>
<event>
 4    1  0.2489209E-004  0.1826664E+03  0.7818608E-02  0.1165247E+00
          2   -1    0    0  501    0  0.00000000000E+00  0.00000000000E+00  0.35527637958E+02  0.35527638050E+02  0.25500000000E-02 0.  1.
         -2   -1    0    0    0  501 -0.00000000000E+00 -0.00000000000E+00 -0.23479629077E+03  0.23479629079E+03  0.25500000000E-02 0. -1.
    5000001    1    1    2    0    0  0.41801138102E+02  0.13452983075E+02 -0.67062239363E+02  0.11115152652E+03  0.77000000000E+02 0.  0.
   -5000001    1    1    2    0    0 -0.41801138102E+02 -0.13452983075E+02 -0.13220641345E+03  0.15917240231E+03  0.77000000000E+02 0.  0.
<mgrwt>
<rscale>  0 0.18266645E+03</rscale>
<asrwt>0</asrwt>
<pdfrwt beam="1">  1        2 0.54657906E-02 0.18266645E+03</pdfrwt>
<pdfrwt beam="2">  1       -2 0.36122505E-01 0.18266645E+03</pdfrwt>
<totfact> 0.97287870E+03</totfact>
</mgrwt>
</event>
<event>
 4    1  0.2489209E-004  0.2317757E+03  0.7818608E-02  0.1125396E+00
         -2   -1    0    0    0  501 -0.00000000000E+00  0.00000000000E+00  0.27196169862E+03  0.27196169863E+03  0.25500000000E-02 0. -1.
          2   -1    0    0  501    0  0.00000000000E+00 -0.00000000000E+00 -0.49381950500E+02  0.49381950566E+02  0.25500000000E-02 0.  1.
    5000001    1    1    2    0    0  0.78259959320E+02  0.21950948959E+02  0.15275663380E+03  0.18939391374E+03  0.77000000000E+02 0.  0.
   -5000001    1    1    2    0    0 -0.78259959320E+02 -0.21950948959E+02  0.69823114316E+02  0.13194973545E+03  0.77000000000E+02 0.  0.
<mgrwt>
<rscale>  0 0.23177575E+03</rscale>
<asrwt>0</asrwt>
<pdfrwt beam="1">  1        2 0.75972232E-02 0.23177575E+03</pdfrwt>
<pdfrwt beam="2">  1       -2 0.41840261E-01 0.23177575E+03</pdfrwt>
<totfact> 0.48881477E+03</totfact>
</mgrwt>
</event>
<event>
 4    1  0.2489209E-004  0.2756333E+03  0.7818608E-02  0.1098098E+00
          2   -1    0    0  501    0  0.00000000000E+00  0.00000000000E+00  0.73495728900E+03  0.73495728901E+03  0.25500000000E-02 0. -1.
         -2   -1    0    0    0  501 -0.00000000000E+00 -0.00000000000E+00 -0.25842893879E+02  0.25842894005E+02  0.25500000000E-02 0.  1.
    5000001    1    1    2    0    0  0.11012128400E+03 -0.11323853606E+02  0.43308916116E+03  0.45359690074E+03  0.77000000000E+02 0.  0.
   -5000001    1    1    2    0    0 -0.11012128400E+03  0.11323853606E+02  0.27602523397E+03  0.30720328227E+03  0.77000000000E+02 0.  0.
<mgrwt>
<rscale>  0 0.27563326E+03</rscale>
<asrwt>0</asrwt>
<pdfrwt beam="1">  1        2 0.11307036E+00 0.27563326E+03</pdfrwt>
<pdfrwt beam="2">  1       -2 0.39758294E-02 0.27563326E+03</pdfrwt>
<totfact> 0.10913457E+04</totfact>
</mgrwt>
</event>
<event>
 4    1  0.2489209E-004  0.2295764E+03  0.7818608E-02  0.1126938E+00
          2   -1    0    0  501    0  0.00000000000E+00  0.00000000000E+00  0.67925583415E+03  0.67925583415E+03  0.25500000000E-02 0.  1.
         -2   -1    0    0    0  501 -0.00000000000E+00 -0.00000000000E+00 -0.19398177675E+02  0.19398177842E+02  0.25500000000E-02 0. -1.
    5000001    1    1    2    0    0 -0.15555126335E+02 -0.60424418457E+02  0.15367728774E+03  0.18286273833E+03  0.77000000000E+02 0.  0.
   -5000001    1    1    2    0    0  0.15555126335E+02  0.60424418457E+02  0.50618036874E+03  0.51579127367E+03  0.77000000000E+02 0.  0.
<mgrwt>
<rscale>  0 0.22957635E+03</rscale>
<asrwt>0</asrwt>
<pdfrwt beam="1">  1        2 0.10450092E+00 0.22957635E+03</pdfrwt>
<pdfrwt beam="2">  1       -2 0.29843345E-02 0.22957635E+03</pdfrwt>
<totfact> 0.18279910E+04</totfact>
</mgrwt>
</event>
<event>
 4    1  0.2489209E-004  0.3848571E+03  0.7818608E-02  0.1049153E+00
          2   -1    0    0  501    0  0.00000000000E+00  0.00000000000E+00  0.97720044053E+02  0.97720044087E+02  0.25500000000E-02 0.  1.
         -2   -1    0    0    0  501 -0.00000000000E+00 -0.00000000000E+00 -0.37892682931E+03  0.37892682932E+03  0.25500000000E-02 0. -1.
    5000001    1    1    2    0    0  0.27024292346E+01  0.17597362342E+03 -0.15449050242E+03  0.24651639824E+03  0.77000000000E+02 0.  0.
   -5000001    1    1    2    0    0 -0.27024292346E+01 -0.17597362342E+03 -0.12671628283E+03  0.23013047516E+03  0.77000000000E+02 0.  0.
<mgrwt>
<rscale>  0 0.38485710E+03</rscale>
<asrwt>0</asrwt>
<pdfrwt beam="1">  1        2 0.15033853E-01 0.38485710E+03</pdfrwt>
<pdfrwt beam="2">  1       -2 0.58296435E-01 0.38485710E+03</pdfrwt>
<totfact> 0.10985547E+03</totfact>
</mgrwt>
</event>
<event>
 4    1  0.2489209E-004  0.1647805E+03  0.7818608E-02  0.1183403E+00
         -2   -1    0    0    0  501 -0.00000000000E+00  0.00000000000E+00  0.14271565545E+02  0.14271565773E+02  0.25500000000E-02 0. -1.
          2   -1    0    0  501    0  0.00000000000E+00 -0.00000000000E+00 -0.47564162608E+03  0.47564162608E+03  0.25500000000E-02 0.  1.
    5000001    1    1    2    0    0 -0.81970470843E+01  0.19697737078E+01 -0.14722120052E+03  0.16635550328E+03  0.77000000000E+02 0.  0.
   -5000001    1    1    2    0    0  0.81970470843E+01 -0.19697737078E+01 -0.31414886002E+03  0.32355768858E+03  0.77000000000E+02 0.  0.
<mgrwt>
<rscale>  0 0.16478047E+03</rscale>
<asrwt>0</asrwt>
<pdfrwt beam="1">  1        2 0.73175623E-01 0.16478047E+03</pdfrwt>
<pdfrwt beam="2">  1       -2 0.21956259E-02 0.16478047E+03</pdfrwt>
<totfact> 0.42029591E+04</totfact>
</mgrwt>
</event>
<event>
 4    1  0.2489209E-004  0.1014410E+04  0.7818608E-02  0.9292880E-01
          2   -1    0    0  501    0  0.00000000000E+00  0.00000000000E+00  0.13675134159E+04  0.13675134159E+04  0.25500000000E-02 0.  1.
         -2   -1    0    0    0  501 -0.00000000000E+00 -0.00000000000E+00 -0.18812005475E+03  0.18812005477E+03  0.25500000000E-02 0. -1.
    5000001    1    1    2    0    0  0.17009060490E+03  0.33027506788E+03  0.11059206254E+04  0.11691885493E+04  0.77000000000E+02 0.  0.
   -5000001    1    1    2    0    0 -0.17009060490E+03 -0.33027506788E+03  0.73472735833E+02  0.38644492136E+03  0.77000000000E+02 0.  0.
<mgrwt>
<rscale>  0 0.10144096E+04</rscale>
<asrwt>0</asrwt>
<pdfrwt beam="1">  1        2 0.21038669E+00 0.10144096E+04</pdfrwt>
<pdfrwt beam="2">  1       -2 0.28941546E-01 0.10144096E+04</pdfrwt>
<totfact> 0.16502859E+02</totfact>
</mgrwt>
</event>
<event>
 4    1  0.2489209E-004  0.2718678E+03  0.7818608E-02  0.1100215E+00
         -2   -1    0    0    0  501 -0.00000000000E+00  0.00000000000E+00  0.14610498730E+02  0.14610498952E+02  0.25500000000E-02 0. -1.
          2   -1    0    0  501    0  0.00000000000E+00 -0.00000000000E+00 -0.12647090925E+04  0.12647090925E+04  0.25500000000E-02 0.  1.
    5000001    1    1    2    0    0 -0.77876664558E+02  0.62555534353E+02 -0.86365312131E+03  0.87281365922E+03  0.77000000000E+02 0.  0.
   -5000001    1    1    2    0    0  0.77876664558E+02 -0.62555534353E+02 -0.38644547242E+03  0.40650593220E+03  0.77000000000E+02 0.  0.
<mgrwt>
<rscale>  0 0.27186784E+03</rscale>
<asrwt>0</asrwt>
<pdfrwt beam="1">  1        2 0.19457054E+00 0.27186784E+03</pdfrwt>
<pdfrwt beam="2">  1       -2 0.22477700E-02 0.27186784E+03</pdfrwt>
<totfact> 0.11930279E+04</totfact>
</mgrwt>
</event>
<event>
 4    1  0.2489209E-004  0.2653688E+03  0.7818608E-02  0.1103960E+00
          2   -1    0    0  501    0  0.00000000000E+00  0.00000000000E+00  0.12325779903E+04  0.12325779903E+04  0.25500000000E-02 0.  1.
         -2   -1    0    0    0  501 -0.00000000000E+00 -0.00000000000E+00 -0.14283189401E+02  0.14283189629E+02  0.25500000000E-02 0. -1.
    5000001    1    1    2    0    0 -0.51419692091E+01 -0.10792196830E+03  0.60163854267E+03  0.61609376488E+03  0.77000000000E+02 0.  0.
   -5000001    1    1    2    0    0  0.51419692091E+01  0.10792196830E+03  0.61665625827E+03  0.63076741510E+03  0.77000000000E+02 0.  0.
<mgrwt>
<rscale>  0 0.26536876E+03</rscale>
<asrwt>0</asrwt>
<pdfrwt beam="1">  1        2 0.18962740E+00 0.26536876E+03</pdfrwt>
<pdfrwt beam="2">  1       -2 0.21974136E-02 0.26536876E+03</pdfrwt>
<totfact> 0.12848687E+04</totfact>
</mgrwt>
</event>
<event>
 4    1  0.2489209E-004  0.1850735E+03  0.7818608E-02  0.1162981E+00
         -2   -1    0    0    0  501 -0.00000000000E+00  0.00000000000E+00  0.64816805897E+01  0.64816810913E+01  0.25500000000E-02 0. -1.
          2   -1    0    0  501    0  0.00000000000E+00 -0.00000000000E+00 -0.13211160458E+04  0.13211160458E+04  0.25500000000E-02 0.  1.
    5000001    1    1    2    0    0 -0.48461116266E+02 -0.50489981167E+01 -0.54163246088E+03  0.54924374812E+03  0.77000000000E+02 0.  0.
   -5000001    1    1    2    0    0  0.48461116266E+02  0.50489981167E+01 -0.77300190428E+03  0.77835397873E+03  0.77000000000E+02 0.  0.
<mgrwt>
<rscale>  0 0.18507353E+03</rscale>
<asrwt>0</asrwt>
<pdfrwt beam="1">  1        2 0.20324841E+00 0.18507353E+03</pdfrwt>
<pdfrwt beam="2">  1       -2 0.99718272E-03 0.18507353E+03</pdfrwt>
<totfact> 0.35631847E+04</totfact>
</mgrwt>
</event>
<event>
 4    1  0.2489209E-004  0.1753565E+03  0.7818608E-02  0.1172374E+00
          2   -1    0    0  501    0  0.00000000000E+00  0.00000000000E+00  0.21903082312E+03  0.21903082314E+03  0.25500000000E-02 0.  1.
         -2   -1    0    0    0  501 -0.00000000000E+00 -0.00000000000E+00 -0.35097695539E+02  0.35097695631E+02  0.25500000000E-02 0. -1.
    5000001    1    1    2    0    0  0.24676713812E+02  0.31091384585E+02  0.11156376819E+03  0.14124832308E+03  0.77000000000E+02 0.  0.
   -5000001    1    1    2    0    0 -0.24676713812E+02 -0.31091384585E+02  0.72369359397E+02  0.11288019569E+03  0.77000000000E+02 0.  0.
<mgrwt>
<rscale>  0 0.17535652E+03</rscale>
<asrwt>0</asrwt>
<pdfrwt beam="1">  1        2 0.33697050E-01 0.17535652E+03</pdfrwt>
<pdfrwt beam="2">  1       -2 0.53996455E-02 0.17535652E+03</pdfrwt>
<totfact> 0.25531688E+04</totfact>
</mgrwt>
</event>
<event>
 4    1  0.2489209E-004  0.2143444E+03  0.7818608E-02  0.1138171E+00
         -2   -1    0    0    0  501 -0.00000000000E+00  0.00000000000E+00  0.59619277173E+01  0.59619282626E+01  0.25500000000E-02 0. -1.
          2   -1    0    0  501    0  0.00000000000E+00 -0.00000000000E+00 -0.19265378577E+04  0.19265378577E+04  0.25500000000E-02 0.  1.
    5000001    1    1    2    0    0 -0.40050508562E+02  0.62730034825E+02 -0.92227193235E+03  0.92846842580E+03  0.77000000000E+02 0.  0.
   -5000001    1    1    2    0    0  0.40050508562E+02 -0.62730034825E+02 -0.99830399758E+03  0.10040313601E+04  0.77000000000E+02 0.  0.
<mgrwt>
<rscale>  0 0.21434440E+03</rscale>
<asrwt>0</asrwt>
<pdfrwt beam="1">  1        2 0.29638994E+00 0.21434440E+03</pdfrwt>
<pdfrwt beam="2">  1       -2 0.91722123E-03 0.21434440E+03</pdfrwt>
<totfact> 0.19457720E+04</totfact>
</mgrwt>
</event>
<event>
 4    1  0.2489209E-004  0.2376473E+03  0.7818608E-02  0.1121370E+00
         -2   -1    0    0    0  501 -0.00000000000E+00  0.00000000000E+00  0.18511125106E+04  0.18511125106E+04  0.25500000000E-02 0. -1.
          2   -1    0    0  501    0  0.00000000000E+00 -0.00000000000E+00 -0.76273391519E+01  0.76273395782E+01  0.25500000000E-02 0.  1.
    5000001    1    1    2    0    0 -0.53798903723E+02  0.65993976223E+02  0.11616112252E+04  0.11672699625E+04  0.77000000000E+02 0.  0.
   -5000001    1    1    2    0    0  0.53798903723E+02 -0.65993976223E+02  0.68187394624E+03  0.69146988763E+03  0.77000000000E+02 0.  0.
<mgrwt>
<rscale>  0 0.23764733E+03</rscale>
<asrwt>0</asrwt>
<pdfrwt beam="1">  1        2 0.11734368E-02 0.23764733E+03</pdfrwt>
<pdfrwt beam="2">  1       -2 0.28478655E+00 0.23764733E+03</pdfrwt>
<totfact> 0.51674476E+02</totfact>
</mgrwt>
</event>
<event>
 4    1  0.2489209E-004  0.3242803E+03  0.7818608E-02  0.1073696E+00
         -2   -1    0    0    0  501 -0.00000000000E+00  0.00000000000E+00  0.47454633669E+02  0.47454633737E+02  0.25500000000E-02 0. -1.
          2   -1    0    0  501    0  0.00000000000E+00 -0.00000000000E+00 -0.55399081187E+03  0.55399081187E+03  0.25500000000E-02 0.  1.
    5000001    1    1    2    0    0  0.11786471824E+03 -0.93592407624E+01 -0.10511479680E+03  0.17594830973E+03  0.77000000000E+02 0.  0.
   -5000001    1    1    2    0    0 -0.11786471824E+03  0.93592407624E+01 -0.40142138140E+03  0.42549713588E+03  0.77000000000E+02 0.  0.
<mgrwt>
<rscale>  0 0.32428032E+03</rscale>
<asrwt>0</asrwt>
<pdfrwt beam="1">  1        2 0.85229351E-01 0.32428032E+03</pdfrwt>
<pdfrwt beam="2">  1       -2 0.73007133E-02 0.32428032E+03</pdfrwt>
<totfact> 0.60530922E+03</totfact>
</mgrwt>
</event>
<event>
 4    1  0.2489209E-004  0.1946333E+03  0.7818608E-02  0.1154348E+00
         -2   -1    0    0    0  501 -0.00000000000E+00  0.00000000000E+00  0.64188847614E+01  0.64188852679E+01  0.25500000000E-02 0. -1.
          2   -1    0    0  501    0  0.00000000000E+00 -0.00000000000E+00 -0.14754166872E+04  0.14754166872E+04  0.25500000000E-02 0.  1.
    5000001    1    1    2    0    0  0.20747314472E+02 -0.22725312145E+02 -0.34668679323E+03  0.35646545902E+03  0.77000000000E+02 0.  0.
   -5000001    1    1    2    0    0 -0.20747314472E+02  0.22725312145E+02 -0.11223110092E+04  0.11253701134E+04  0.77000000000E+02 0.  0.
<mgrwt>
<rscale>  0 0.19463330E+03</rscale>
<asrwt>0</asrwt>
<pdfrwt beam="1">  1        2 0.22698691E+00 0.19463330E+03</pdfrwt>
<pdfrwt beam="2">  1       -2 0.98752194E-03 0.19463330E+03</pdfrwt>
<totfact> 0.29960286E+04</totfact>
</mgrwt>
</event>
<event>
 4    1  0.2489209E-004  0.1749241E+03  0.7818608E-02  0.1172808E+00
         -2   -1    0    0    0  501 -0.00000000000E+00  0.00000000000E+00  0.10259233040E+02  0.10259233357E+02  0.25500000000E-02 0. -1.
          2   -1    0    0  501    0  0.00000000000E+00 -0.00000000000E+00 -0.74563207923E+03  0.74563207923E+03  0.25500000000E-02 0.  1.
    5000001    1    1    2    0    0 -0.37889179399E+02  0.31028119264E+01 -0.29597498192E+03  0.30818080290E+03  0.77000000000E+02 0.  0.
   -5000001    1    1    2    0    0  0.37889179399E+02 -0.31028119264E+01 -0.43939786427E+03  0.44771050968E+03  0.77000000000E+02 0.  0.
<mgrwt>
<rscale>  0 0.17492414E+03</rscale>
<asrwt>0</asrwt>
<pdfrwt beam="1">  1        2 0.11471259E+00 0.17492414E+03</pdfrwt>
<pdfrwt beam="2">  1       -2 0.15783442E-02 0.17492414E+03</pdfrwt>
<totfact> 0.40757224E+04</totfact>
</mgrwt>
</event>
<event>
 4    1  0.2489209E-004  0.2909160E+03  0.7818608E-02  0.1089872E+00
         -2   -1    0    0    0  501 -0.00000000000E+00  0.00000000000E+00  0.72729500122E+02  0.72729500167E+02  0.25500000000E-02 0. -1.
          2   -1    0    0  501    0  0.00000000000E+00 -0.00000000000E+00 -0.29091392903E+03  0.29091392904E+03  0.25500000000E-02 0.  1.
    5000001    1    1    2    0    0 -0.98929545396E+02 -0.64769815321E+02 -0.15323031888E+03  0.20830437958E+03  0.77000000000E+02 0.  0.
   -5000001    1    1    2    0    0  0.98929545396E+02  0.64769815321E+02 -0.64954110025E+02  0.15533904962E+03  0.77000000000E+02 0.  0.
<mgrwt>
<rscale>  0 0.29091596E+03</rscale>
<asrwt>0</asrwt>
<pdfrwt beam="1">  1        2 0.44755988E-01 0.29091596E+03</pdfrwt>
<pdfrwt beam="2">  1       -2 0.11189154E-01 0.29091596E+03</pdfrwt>
<totfact> 0.62343699E+03</totfact>
</mgrwt>
</event>
<event>
 4    1  0.2489209E-004  0.2469066E+03  0.7818608E-02  0.1115276E+00
         -2   -1    0    0    0  501 -0.00000000000E+00  0.00000000000E+00  0.63288255989E+02  0.63288256041E+02  0.25500000000E-02 0. -1.
          2   -1    0    0  501    0  0.00000000000E+00 -0.00000000000E+00 -0.24081430146E+03  0.24081430147E+03  0.25500000000E-02 0.  1.
    5000001    1    1    2    0    0  0.72957091047E+02 -0.43147077894E+01 -0.11155735914E+02  0.10674644856E+03  0.77000000000E+02 0.  0.
   -5000001    1    1    2    0    0 -0.72957091047E+02  0.43147077894E+01 -0.16637030955E+03  0.19735610895E+03  0.77000000000E+02 0.  0.
<mgrwt>
<rscale>  0 0.24690660E+03</rscale>
<asrwt>0</asrwt>
<pdfrwt beam="1">  1        2 0.37048354E-01 0.24690660E+03</pdfrwt>
<pdfrwt beam="2">  1       -2 0.97366549E-02 0.24690660E+03</pdfrwt>
<totfact> 0.94776158E+03</totfact>
</mgrwt>
</event>
<event>
 4    1  0.2489209E-004  0.2372258E+03  0.7818608E-02  0.1121655E+00
          2   -1    0    0  501    0  0.00000000000E+00  0.00000000000E+00  0.10080284727E+04  0.10080284727E+04  0.25500000000E-02 0.  1.
         -2   -1    0    0    0  501 -0.00000000000E+00 -0.00000000000E+00 -0.13956969698E+02  0.13956969931E+02  0.25500000000E-02 0. -1.
    5000001    1    1    2    0    0  0.60124374697E+02  0.67166589247E+02  0.48107156235E+03  0.49546456911E+03  0.77000000000E+02 0.  0.
   -5000001    1    1    2    0    0 -0.60124374697E+02 -0.67166589247E+02  0.51299994060E+03  0.52652087347E+03  0.77000000000E+02 0.  0.
<mgrwt>
<rscale>  0 0.23722582E+03</rscale>
<asrwt>0</asrwt>
<pdfrwt beam="1">  1        2 0.15508133E+00 0.23722582E+03</pdfrwt>
<pdfrwt beam="2">  1       -2 0.21472258E-02 0.23722582E+03</pdfrwt>
<totfact> 0.17887691E+04</totfact>
</mgrwt>
</event>
<event>
 4    1  0.2489209E-004  0.3403437E+03  0.7818608E-02  0.1066650E+00
          2   -1    0    0  501    0  0.00000000000E+00  0.00000000000E+00  0.79629544620E+02  0.79629544661E+02  0.25500000000E-02 0.  1.
         -2   -1    0    0    0  501 -0.00000000000E+00 -0.00000000000E+00 -0.36366484020E+03  0.36366484021E+03  0.25500000000E-02 0. -1.
    5000001    1    1    2    0    0  0.13990755220E+03 -0.34954886956E+02 -0.20357320666E+03  0.26108814173E+03  0.77000000000E+02 0.  0.
   -5000001    1    1    2    0    0 -0.13990755220E+03  0.34954886956E+02 -0.80462088925E+02  0.18220624314E+03  0.77000000000E+02 0.  0.
<mgrwt>
<rscale>  0 0.34034374E+03</rscale>
<asrwt>0</asrwt>
<pdfrwt beam="1">  1        2 0.12250699E-01 0.34034374E+03</pdfrwt>
<pdfrwt beam="2">  1       -2 0.55948436E-01 0.34034374E+03</pdfrwt>
<totfact> 0.15296350E+03</totfact>
</mgrwt>
</event>
<event>
 4    1  0.2489209E-004  0.2537109E+03  0.7818608E-02  0.1110982E+00
         -2   -1    0    0    0  501 -0.00000000000E+00  0.00000000000E+00  0.83274787978E+03  0.83274787979E+03  0.25500000000E-02 0. -1.
          2   -1    0    0  501    0  0.00000000000E+00 -0.00000000000E+00 -0.19324336071E+02  0.19324336240E+02  0.25500000000E-02 0.  1.
    5000001    1    1    2    0    0  0.94771762320E+02 -0.18399339355E+02  0.50422668943E+03  0.51912790038E+03  0.77000000000E+02 0.  0.
   -5000001    1    1    2    0    0 -0.94771762320E+02  0.18399339355E+02  0.30919685428E+03  0.33294431564E+03  0.77000000000E+02 0.  0.
<mgrwt>
<rscale>  0 0.25371086E+03</rscale>
<asrwt>0</asrwt>
<pdfrwt beam="1">  1        2 0.29729748E-02 0.25371086E+03</pdfrwt>
<pdfrwt beam="2">  1       -2 0.12811506E+00 0.25371086E+03</pdfrwt>
<totfact> 0.14943658E+03</totfact>
</mgrwt>
</event>
<event>
 4    1  0.2489209E-004  0.2094250E+03  0.7818608E-02  0.1142022E+00
         -2   -1    0    0    0  501 -0.00000000000E+00  0.00000000000E+00  0.67872555909E+01  0.67872560699E+01  0.25500000000E-02 0. -1.
          2   -1    0    0  501    0  0.00000000000E+00 -0.00000000000E+00 -0.16154847523E+04  0.16154847523E+04  0.25500000000E-02 0.  1.
    5000001    1    1    2    0    0  0.14333369684E+01  0.66556237887E+02 -0.99471292359E+03  0.99990728951E+03  0.77000000000E+02 0.  0.
   -5000001    1    1    2    0    0 -0.14333369684E+01 -0.66556237887E+02 -0.61398457309E+03  0.62236471884E+03  0.77000000000E+02 0.  0.
<mgrwt>
<rscale>  0 0.20942501E+03</rscale>
<asrwt>0</asrwt>
<pdfrwt beam="1">  1        2 0.24853581E+00 0.20942501E+03</pdfrwt>
<pdfrwt beam="2">  1       -2 0.10441945E-02 0.20942501E+03</pdfrwt>
<totfact> 0.23412352E+04</totfact>
</mgrwt>
</event>
<event>
 4    1  0.2489209E-004  0.1762593E+03  0.7818608E-02  0.1171473E+00
          2   -1    0    0  501    0  0.00000000000E+00  0.00000000000E+00  0.68161420839E+03  0.68161420839E+03  0.25500000000E-02 0.  1.
         -2   -1    0    0    0  501 -0.00000000000E+00 -0.00000000000E+00 -0.11394768908E+02  0.11394769194E+02  0.25500000000E-02 0. -1.
    5000001    1    1    2    0    0 -0.15024658111E+02 -0.20940111534E+02  0.20041570744E+03  0.21623987701E+03  0.77000000000E+02 0.  0.
   -5000001    1    1    2    0    0  0.15024658111E+02  0.20940111534E+02  0.46980373204E+03  0.47676910057E+03  0.77000000000E+02 0.  0.
<mgrwt>
<rscale>  0 0.17625931E+03</rscale>
<asrwt>0</asrwt>
<pdfrwt beam="1">  1        2 0.10486372E+00 0.17625931E+03</pdfrwt>
<pdfrwt beam="2">  1       -2 0.17530415E-02 0.17625931E+03</pdfrwt>
<totfact> 0.39016013E+04</totfact>
</mgrwt>
</event>
<event>
 4    1  0.2489209E-004  0.2242741E+03  0.7818608E-02  0.1130736E+00
          2   -1    0    0  501    0  0.00000000000E+00  0.00000000000E+00  0.36830385088E+03  0.36830385089E+03  0.25500000000E-02 0.  1.
         -2   -1    0    0    0  501 -0.00000000000E+00 -0.00000000000E+00 -0.34142234963E+02  0.34142235058E+02  0.25500000000E-02 0. -1.
    5000001    1    1    2    0    0 -0.77512178102E+02 -0.25250131416E+02  0.16725794708E+03  0.20137012626E+03  0.77000000000E+02 0.  0.
   -5000001    1    1    2    0    0  0.77512178102E+02  0.25250131416E+02  0.16690366884E+03  0.20107595968E+03  0.77000000000E+02 0.  0.
<mgrwt>
<rscale>  0 0.22427409E+03</rscale>
<asrwt>0</asrwt>
<pdfrwt beam="1">  1        2 0.56662132E-01 0.22427409E+03</pdfrwt>
<pdfrwt beam="2">  1       -2 0.52526514E-02 0.22427409E+03</pdfrwt>
<totfact> 0.15529121E+04</totfact>
</mgrwt>
</event>
<event>
 4    1  0.2489209E-004  0.1704686E+03  0.7818608E-02  0.1177360E+00
          2   -1    0    0  501    0  0.00000000000E+00  0.00000000000E+00  0.24488698429E+04  0.24488698429E+04  0.25500000000E-02 0.  1.
         -2   -1    0    0    0  501 -0.00000000000E+00 -0.00000000000E+00 -0.29666286348E+01  0.29666297307E+01  0.25500000000E-02 0. -1.
    5000001    1    1    2    0    0 -0.13858573067E+01  0.29827668939E+02  0.15261134768E+04  0.15283464772E+04  0.77000000000E+02 0.  0.
   -5000001    1    1    2    0    0  0.13858573067E+01 -0.29827668939E+02  0.91978973748E+03  0.92348999540E+03  0.77000000000E+02 0.  0.
<mgrwt>
<rscale>  0 0.17046863E+03</rscale>
<asrwt>0</asrwt>
<pdfrwt beam="1">  1        2 0.37674873E+00 0.17046863E+03</pdfrwt>
<pdfrwt beam="2">  1       -2 0.45640506E-03 0.17046863E+03</pdfrwt>
<totfact> 0.27844895E+04</totfact>
</mgrwt>
</event>
<event>
 4    1  0.2489209E-004  0.3366427E+03  0.7818608E-02  0.1068235E+00
          2   -1    0    0  501    0  0.00000000000E+00  0.00000000000E+00  0.19133531072E+04  0.19133531072E+04  0.25500000000E-02 0.  1.
         -2   -1    0    0    0  501 -0.00000000000E+00 -0.00000000000E+00 -0.14807549843E+02  0.14807550063E+02  0.25500000000E-02 0. -1.
    5000001    1    1    2    0    0 -0.11347284441E+03 -0.24593431870E+02  0.40825843856E+03  0.43137556255E+03  0.77000000000E+02 0.  0.
   -5000001    1    1    2    0    0  0.11347284441E+03  0.24593431870E+02  0.14902871187E+04  0.14967850947E+04  0.77000000000E+02 0.  0.
<mgrwt>
<rscale>  0 0.33664267E+03</rscale>
<asrwt>0</asrwt>
<pdfrwt beam="1">  1        2 0.29436186E+00 0.33664267E+03</pdfrwt>
<pdfrwt beam="2">  1       -2 0.22780859E-02 0.33664267E+03</pdfrwt>
<totfact> 0.52636880E+03</totfact>
</mgrwt>
</event>
<event>
 4    1  0.2489209E-004  0.6488888E+03  0.7818608E-02  0.9808866E-01
          2   -1    0    0  501    0  0.00000000000E+00  0.00000000000E+00  0.81543652332E+03  0.81543652332E+03  0.25500000000E-02 0.  1.
         -2   -1    0    0    0  501 -0.00000000000E+00 -0.00000000000E+00 -0.12908935500E+03  0.12908935503E+03  0.25500000000E-02 0. -1.
    5000001    1    1    2    0    0 -0.14111795647E+03  0.27077542067E+03  0.45687459503E+03  0.55488467420E+03  0.77000000000E+02 0.  0.
   -5000001    1    1    2    0    0  0.14111795647E+03 -0.27077542067E+03  0.22947257328E+03  0.38964120415E+03  0.77000000000E+02 0.  0.
<mgrwt>
<rscale>  0 0.64888882E+03</rscale>
<asrwt>0</asrwt>
<pdfrwt beam="1">  1        2 0.12545177E+00 0.64888882E+03</pdfrwt>
<pdfrwt beam="2">  1       -2 0.19859901E-01 0.64888882E+03</pdfrwt>
<totfact> 0.72974060E+02</totfact>
</mgrwt>
</event>
<event>
 4    1  0.2489209E-004  0.1855486E+03  0.7818608E-02  0.1162539E+00
         -2   -1    0    0    0  501 -0.00000000000E+00  0.00000000000E+00  0.85958548477E+01  0.85958552260E+01  0.25500000000E-02 0. -1.
          2   -1    0    0  501    0  0.00000000000E+00 -0.00000000000E+00 -0.10013042692E+04  0.10013042693E+04  0.25500000000E-02 0.  1.
    5000001    1    1    2    0    0 -0.40641094958E+01  0.47099605547E+02 -0.61093431500E+03  0.61757965241E+03  0.77000000000E+02 0.  0.
   -5000001    1    1    2    0    0  0.40641094958E+01 -0.47099605547E+02 -0.38177409940E+03  0.39232047207E+03  0.77000000000E+02 0.  0.
<mgrwt>
<rscale>  0 0.18554855E+03</rscale>
<asrwt>0</asrwt>
<pdfrwt beam="1">  1        2 0.15404672E+00 0.18554855E+03</pdfrwt>
<pdfrwt beam="2">  1       -2 0.13224400E-02 0.18554855E+03</pdfrwt>
<totfact> 0.36063018E+04</totfact>
</mgrwt>
</event>
<event>
 4    1  0.2489209E-004  0.2420348E+03  0.7818608E-02  0.1118445E+00
          2   -1    0    0  501    0  0.00000000000E+00  0.00000000000E+00  0.10125553644E+04  0.10125553644E+04  0.25500000000E-02 0.  1.
         -2   -1    0    0    0  501 -0.00000000000E+00 -0.00000000000E+00 -0.14463611608E+02  0.14463611833E+02  0.25500000000E-02 0. -1.
    5000001    1    1    2    0    0  0.22296756278E+02  0.89023997260E+02  0.57177684404E+03  0.58419190067E+03  0.77000000000E+02 0.  0.
   -5000001    1    1    2    0    0 -0.22296756278E+02 -0.89023997260E+02  0.42631490871E+03  0.44282707553E+03  0.77000000000E+02 0.  0.
<mgrwt>
<rscale>  0 0.24203477E+03</rscale>
<asrwt>0</asrwt>
<pdfrwt beam="1">  1        2 0.15577780E+00 0.24203477E+03</pdfrwt>
<pdfrwt beam="2">  1       -2 0.22251703E-02 0.24203477E+03</pdfrwt>
<totfact> 0.16882059E+04</totfact>
</mgrwt>
</event>
<event>
 4    1  0.2489209E-004  0.4837432E+03  0.7818608E-02  0.1018111E+00
         -2   -1    0    0    0  501 -0.00000000000E+00  0.00000000000E+00  0.16668055067E+03  0.16668055069E+03  0.25500000000E-02 0. -1.
          2   -1    0    0  501    0  0.00000000000E+00 -0.00000000000E+00 -0.35098200016E+03  0.35098200017E+03  0.25500000000E-02 0.  1.
    5000001    1    1    2    0    0  0.58622765372E+02 -0.19977417410E+03  0.10639288091E+02  0.22223533407E+03  0.77000000000E+02 0.  0.
   -5000001    1    1    2    0    0 -0.58622765372E+02  0.19977417410E+03 -0.19494073758E+03  0.29542721680E+03  0.77000000000E+02 0.  0.
<mgrwt>
<rscale>  0 0.48374321E+03</rscale>
<asrwt>0</asrwt>
<pdfrwt beam="1">  1        2 0.53997231E-01 0.48374321E+03</pdfrwt>
<pdfrwt beam="2">  1       -2 0.25643162E-01 0.48374321E+03</pdfrwt>
<totfact> 0.12595306E+03</totfact>
</mgrwt>
</event>
<event>
 4    1  0.2489209E-004  0.2279183E+03  0.7818608E-02  0.1128114E+00
          2   -1    0    0  501    0  0.00000000000E+00  0.00000000000E+00  0.57123461979E+03  0.57123461980E+03  0.25500000000E-02 0.  1.
         -2   -1    0    0    0  501 -0.00000000000E+00 -0.00000000000E+00 -0.22734419887E+02  0.22734420031E+02  0.25500000000E-02 0. -1.
    5000001    1    1    2    0    0  0.72766236527E+02 -0.37185106153E+02  0.22344657931E+03  0.25007005239E+03  0.77000000000E+02 0.  0.
   -5000001    1    1    2    0    0 -0.72766236527E+02  0.37185106153E+02  0.32505362059E+03  0.34389898743E+03  0.77000000000E+02 0.  0.
<mgrwt>
<rscale>  0 0.22791830E+03</rscale>
<asrwt>0</asrwt>
<pdfrwt beam="1">  1        2 0.87882244E-01 0.22791830E+03</pdfrwt>
<pdfrwt beam="2">  1       -2 0.34976033E-02 0.22791830E+03</pdfrwt>
<totfact> 0.17664797E+04</totfact>
</mgrwt>
</event>
<event>
 4    1  0.2489209E-004  0.1782630E+03  0.7818608E-02  0.1169495E+00
         -2   -1    0    0    0  501 -0.00000000000E+00  0.00000000000E+00  0.80999751203E+01  0.80999755216E+01  0.25500000000E-02 0. -1.
          2   -1    0    0  501    0  0.00000000000E+00 -0.00000000000E+00 -0.98079649862E+03  0.98079649863E+03  0.25500000000E-02 0.  1.
    5000001    1    1    2    0    0 -0.41917226207E+02  0.16014992089E+02 -0.49398196179E+03  0.50195688301E+03  0.77000000000E+02 0.  0.
   -5000001    1    1    2    0    0  0.41917226207E+02 -0.16014992089E+02 -0.47871456171E+03  0.48693959114E+03  0.77000000000E+02 0.  0.
<mgrwt>
<rscale>  0 0.17826304E+03</rscale>
<asrwt>0</asrwt>
<pdfrwt beam="1">  1        2 0.15089168E+00 0.17826304E+03</pdfrwt>
<pdfrwt beam="2">  1       -2 0.12461508E-02 0.17826304E+03</pdfrwt>
<totfact> 0.40314890E+04</totfact>
</mgrwt>
</event>
<event>
 4    1  0.2489209E-004  0.3409664E+03  0.7818608E-02  0.1066385E+00
          2   -1    0    0  501    0  0.00000000000E+00  0.00000000000E+00  0.33923393450E+02  0.33923393545E+02  0.25500000000E-02 0.  1.
         -2   -1    0    0    0  501 -0.00000000000E+00 -0.00000000000E+00 -0.85676919582E+03  0.85676919582E+03  0.25500000000E-02 0. -1.
    5000001    1    1    2    0    0  0.20413387383E+02  0.11587855123E+03 -0.15962802498E+03  0.21273140665E+03  0.77000000000E+02 0.  0.
   -5000001    1    1    2    0    0 -0.20413387383E+02 -0.11587855123E+03 -0.66321777739E+03  0.67796118271E+03  0.77000000000E+02 0.  0.
<mgrwt>
<rscale>  0 0.34096638E+03</rscale>
<asrwt>0</asrwt>
<pdfrwt beam="1">  1        2 0.52189843E-02 0.34096638E+03</pdfrwt>
<pdfrwt beam="2">  1       -2 0.13181063E+00 0.34096638E+03</pdfrwt>
<totfact> 0.65724125E+02</totfact>
</mgrwt>
</event>
<event>
 4    1  0.2489209E-004  0.2072928E+03  0.7818608E-02  0.1143728E+00
          2   -1    0    0  501    0  0.00000000000E+00  0.00000000000E+00  0.14647402329E+04  0.14647402329E+04  0.25500000000E-02 0.  1.
         -2   -1    0    0    0  501 -0.00000000000E+00 -0.00000000000E+00 -0.73341166241E+01  0.73341170674E+01  0.25500000000E-02 0. -1.
    5000001    1    1    2    0    0  0.46343404033E+02  0.50326163190E+02  0.64676164847E+03  0.65491225651E+03  0.77000000000E+02 0.  0.
   -5000001    1    1    2    0    0 -0.46343404033E+02 -0.50326163190E+02  0.81064446782E+03  0.81716209347E+03  0.77000000000E+02 0.  0.
<mgrwt>
<rscale>  0 0.20729280E+03</rscale>
<asrwt>0</asrwt>
<pdfrwt beam="1">  1        2 0.22534425E+00 0.20729280E+03</pdfrwt>
<pdfrwt beam="2">  1       -2 0.11283277E-02 0.20729280E+03</pdfrwt>
<totfact> 0.25127214E+04</totfact>
</mgrwt>
</event>
<event>
 4    1  0.2489209E-004  0.3701277E+03  0.7818608E-02  0.1054644E+00
          2   -1    0    0  501    0  0.00000000000E+00  0.00000000000E+00  0.68453973995E+03  0.68453973996E+03  0.25500000000E-02 0. -1.
         -2   -1    0    0    0  501 -0.00000000000E+00 -0.00000000000E+00 -0.50031601489E+02  0.50031601554E+02  0.25500000000E-02 0.  1.
    5000001    1    1    2    0    0  0.14324838100E+03 -0.51191858523E+02  0.17442986308E+03  0.24391695753E+03  0.77000000000E+02 0.  0.
   -5000001    1    1    2    0    0 -0.14324838100E+03  0.51191858523E+02  0.46007827539E+03  0.49065438398E+03  0.77000000000E+02 0.  0.
<mgrwt>
<rscale>  0 0.37012765E+03</rscale>
<asrwt>0</asrwt>
<pdfrwt beam="1">  1        2 0.10531380E+00 0.37012765E+03</pdfrwt>
<pdfrwt beam="2">  1       -2 0.76971699E-02 0.37012765E+03</pdfrwt>
<totfact> 0.43514752E+03</totfact>
</mgrwt>
</event>
<event>
 4    1  0.2489209E-004  0.2892744E+03  0.7818608E-02  0.1090729E+00
         -2   -1    0    0    0  501 -0.00000000000E+00  0.00000000000E+00  0.72958808410E+02  0.72958808454E+02  0.25500000000E-02 0. -1.
          2   -1    0    0  501    0  0.00000000000E+00 -0.00000000000E+00 -0.28673600279E+03  0.28673600280E+03  0.25500000000E-02 0.  1.
    5000001    1    1    2    0    0  0.11033199965E+03 -0.19011763050E+02 -0.45262217694E+02  0.14322103767E+03  0.77000000000E+02 0.  0.
   -5000001    1    1    2    0    0 -0.11033199965E+03  0.19011763050E+02 -0.16851497669E+03  0.21647377358E+03  0.77000000000E+02 0.  0.
<mgrwt>
<rscale>  0 0.28927438E+03</rscale>
<asrwt>0</asrwt>
<pdfrwt beam="1">  1        2 0.44113231E-01 0.28927438E+03</pdfrwt>
<pdfrwt beam="2">  1       -2 0.11224432E-01 0.28927438E+03</pdfrwt>
<totfact> 0.62991957E+03</totfact>
</mgrwt>
</event>
<event>
 4    1  0.2489209E-004  0.2223894E+03  0.7818608E-02  0.1132114E+00
         -2   -1    0    0    0  501 -0.00000000000E+00  0.00000000000E+00  0.47101176656E+01  0.47101183559E+01  0.25500000000E-02 0. -1.
          2   -1    0    0  501    0  0.00000000000E+00 -0.00000000000E+00 -0.26250417853E+04  0.26250417853E+04  0.25500000000E-02 0.  1.
    5000001    1    1    2    0    0  0.66452371545E+01 -0.71329176954E+02 -0.17370538538E+04  0.17402347834E+04  0.77000000000E+02 0.  0.
   -5000001    1    1    2    0    0 -0.66452371545E+01  0.71329176954E+02 -0.88327781390E+03  0.88951712024E+03  0.77000000000E+02 0.  0.
<mgrwt>
<rscale>  0 0.22238936E+03</rscale>
<asrwt>0</asrwt>
<pdfrwt beam="1">  1        2 0.40385141E+00 0.22238936E+03</pdfrwt>
<pdfrwt beam="2">  1       -2 0.72463564E-03 0.22238936E+03</pdfrwt>
<totfact> 0.11608564E+04</totfact>
</mgrwt>
</event>
<event>
 4    1  0.2489209E-004  0.1795942E+03  0.7818608E-02  0.1168196E+00
          2   -1    0    0  501    0  0.00000000000E+00  0.00000000000E+00  0.13014323738E+03  0.13014323741E+03  0.25500000000E-02 0.  1.
         -2   -1    0    0    0  501 -0.00000000000E+00 -0.00000000000E+00 -0.61958822477E+02  0.61958822530E+02  0.25500000000E-02 0. -1.
    5000001    1    1    2    0    0  0.13179989854E+02 -0.35314936030E+02  0.55171694202E+01  0.85908649144E+02  0.77000000000E+02 0.  0.
   -5000001    1    1    2    0    0 -0.13179989854E+02  0.35314936030E+02  0.62667245486E+02  0.10619341079E+03  0.77000000000E+02 0.  0.
<mgrwt>
<rscale>  0 0.17959423E+03</rscale>
<asrwt>0</asrwt>
<pdfrwt beam="1">  1        2 0.20022036E-01 0.17959423E+03</pdfrwt>
<pdfrwt beam="2">  1       -2 0.95321266E-02 0.17959423E+03</pdfrwt>
<totfact> 0.18943722E+04</totfact>
</mgrwt>
</event>
<event>
 4    1  0.2489209E-004  0.3354105E+03  0.7818608E-02  0.1068768E+00
          2   -1    0    0  501    0  0.00000000000E+00  0.00000000000E+00  0.35137947283E+03  0.35137947284E+03  0.25500000000E-02 0. -1.
         -2   -1    0    0    0  501 -0.00000000000E+00 -0.00000000000E+00 -0.80041836819E+02  0.80041836860E+02  0.25500000000E-02 0.  1.
    5000001    1    1    2    0    0  0.31741421426E+02 -0.10871624958E+03  0.26017154467E+03  0.29401526051E+03  0.77000000000E+02 0.  0.
   -5000001    1    1    2    0    0 -0.31741421426E+02  0.10871624958E+03  0.11166091338E+02  0.13740604919E+03  0.77000000000E+02 0.  0.
<mgrwt>
<rscale>  0 0.33541055E+03</rscale>
<asrwt>0</asrwt>
<pdfrwt beam="1">  1        2 0.54058382E-01 0.33541055E+03</pdfrwt>
<pdfrwt beam="2">  1       -2 0.12314128E-01 0.33541055E+03</pdfrwt>
<totfact> 0.43709912E+03</totfact>
</mgrwt>
</event>
<event>
 4    1  0.2489209E-004  0.2375366E+03  0.7818608E-02  0.1121445E+00
          2   -1    0    0  501    0  0.00000000000E+00  0.00000000000E+00  0.87902270812E+03  0.87902270813E+03  0.25500000000E-02 0.  1.
         -2   -1    0    0    0  501 -0.00000000000E+00 -0.00000000000E+00 -0.16047269377E+02  0.16047269579E+02  0.25500000000E-02 0. -1.
    5000001    1    1    2    0    0 -0.41103910916E+02 -0.43302947961E+02  0.17558069616E+03  0.20080402800E+03  0.77000000000E+02 0.  0.
   -5000001    1    1    2    0    0  0.41103910916E+02  0.43302947961E+02  0.68739474258E+03  0.69426594971E+03  0.77000000000E+02 0.  0.
<mgrwt>
<rscale>  0 0.23753664E+03</rscale>
<asrwt>0</asrwt>
<pdfrwt beam="1">  1        2 0.13523429E+00 0.23753664E+03</pdfrwt>
<pdfrwt beam="2">  1       -2 0.24688101E-02 0.23753664E+03</pdfrwt>
<totfact> 0.17552947E+04</totfact>
</mgrwt>
</event>
<event>
 4    1  0.2489209E-004  0.1757386E+03  0.7818608E-02  0.1171992E+00
         -2   -1    0    0    0  501 -0.00000000000E+00  0.00000000000E+00  0.19553561388E+02  0.19553561555E+02  0.25500000000E-02 0. -1.
          2   -1    0    0  501    0  0.00000000000E+00 -0.00000000000E+00 -0.39486484056E+03  0.39486484056E+03  0.25500000000E-02 0.  1.
    5000001    1    1    2    0    0 -0.66322284742E+01 -0.41790015922E+02 -0.19065897673E+03  0.20992912445E+03  0.77000000000E+02 0.  0.
   -5000001    1    1    2    0    0  0.66322284742E+01  0.41790015922E+02 -0.18465230244E+03  0.20448927767E+03  0.77000000000E+02 0.  0.
<mgrwt>
<rscale>  0 0.17573860E+03</rscale>
<asrwt>0</asrwt>
<pdfrwt beam="1">  1        2 0.60748431E-01 0.17573860E+03</pdfrwt>
<pdfrwt beam="2">  1       -2 0.30082405E-02 0.17573860E+03</pdfrwt>
<totfact> 0.32579167E+04</totfact>
</mgrwt>
</event>
<event>
 4    1  0.2489209E-004  0.3547797E+03  0.7818608E-02  0.1060670E+00
         -2   -1    0    0    0  501 -0.00000000000E+00  0.00000000000E+00  0.54737774135E+02  0.54737774194E+02  0.25500000000E-02 0. -1.
          2   -1    0    0  501    0  0.00000000000E+00 -0.00000000000E+00 -0.57487093498E+03  0.57487093499E+03  0.25500000000E-02 0.  1.
    5000001    1    1    2    0    0  0.13067550423E+03  0.67283353960E+02 -0.37138969959E+03  0.40677075372E+03  0.77000000000E+02 0.  0.
   -5000001    1    1    2    0    0 -0.13067550423E+03 -0.67283353960E+02 -0.14874346126E+03  0.22283795546E+03  0.77000000000E+02 0.  0.
<mgrwt>
<rscale>  0 0.35477968E+03</rscale>
<asrwt>0</asrwt>
<pdfrwt beam="1">  1        2 0.88441678E-01 0.35477968E+03</pdfrwt>
<pdfrwt beam="2">  1       -2 0.84211964E-02 0.35477968E+03</pdfrwt>
<totfact> 0.46453269E+03</totfact>
</mgrwt>
</event>
<event>
 4    1  0.2489209E-004  0.3056622E+03  0.7818608E-02  0.1082444E+00
         -2   -1    0    0    0  501 -0.00000000000E+00  0.00000000000E+00  0.14273798059E+02  0.14273798286E+02  0.25500000000E-02 0. -1.
          2   -1    0    0  501    0  0.00000000000E+00 -0.00000000000E+00 -0.16363795855E+04  0.16363795855E+04  0.25500000000E-02 0.  1.
    5000001    1    1    2    0    0  0.86199964122E+02 -0.82864388923E+02 -0.11132457107E+04  0.11222931672E+04  0.77000000000E+02 0.  0.
   -5000001    1    1    2    0    0 -0.86199964122E+02  0.82864388923E+02 -0.50886007676E+03  0.52836021660E+03  0.77000000000E+02 0.  0.
<mgrwt>
<rscale>  0 0.30566224E+03</rscale>
<asrwt>0</asrwt>
<pdfrwt beam="1">  1        2 0.25175056E+00 0.30566224E+03</pdfrwt>
<pdfrwt beam="2">  1       -2 0.21959702E-02 0.30566224E+03</pdfrwt>
<totfact> 0.77859410E+03</totfact>
</mgrwt>
</event>
<event>
 4    1  0.2489209E-004  0.2534950E+03  0.7818608E-02  0.1111116E+00
          2   -1    0    0  501    0  0.00000000000E+00  0.00000000000E+00  0.15727432535E+04  0.15727432535E+04  0.25500000000E-02 0.  1.
         -2   -1    0    0    0  501 -0.00000000000E+00 -0.00000000000E+00 -0.10214592195E+02  0.10214592513E+02  0.25500000000E-02 0. -1.
    5000001    1    1    2    0    0  0.90373588170E+02 -0.33065711943E+02  0.96600166914E+03  0.97383209617E+03  0.77000000000E+02 0.  0.
   -5000001    1    1    2    0    0 -0.90373588170E+02  0.33065711943E+02  0.59652699212E+03  0.60912574980E+03  0.77000000000E+02 0.  0.
<mgrwt>
<rscale>  0 0.25349502E+03</rscale>
<asrwt>0</asrwt>
<pdfrwt beam="1">  1        2 0.24196049E+00 0.25349502E+03</pdfrwt>
<pdfrwt beam="2">  1       -2 0.15714758E-02 0.25349502E+03</pdfrwt>
<totfact> 0.13713500E+04</totfact>
</mgrwt>
</event>
<event>
 4    1  0.2489209E-004  0.2720090E+03  0.7818608E-02  0.1100135E+00
          2   -1    0    0  501    0  0.00000000000E+00  0.00000000000E+00  0.28051500991E+03  0.28051500992E+03  0.25500000000E-02 0.  1.
         -2   -1    0    0    0  501 -0.00000000000E+00 -0.00000000000E+00 -0.65940215565E+02  0.65940215614E+02  0.25500000000E-02 0. -1.
    5000001    1    1    2    0    0  0.65747617102E+02  0.77535030746E+02  0.47088980832E+02  0.13594411449E+03  0.77000000000E+02 0.  0.
   -5000001    1    1    2    0    0 -0.65747617102E+02 -0.77535030746E+02  0.16748581351E+03  0.21051111105E+03  0.77000000000E+02 0.  0.
<mgrwt>
<rscale>  0 0.27200897E+03</rscale>
<asrwt>0</asrwt>
<pdfrwt beam="1">  1        2 0.43156155E-01 0.27200897E+03</pdfrwt>
<pdfrwt beam="2">  1       -2 0.10144649E-01 0.27200897E+03</pdfrwt>
<totfact> 0.75652135E+03</totfact>
</mgrwt>
</event>
<event>
 4    1  0.2489209E-004  0.5884594E+03  0.7818608E-02  0.9929643E-01
         -2   -1    0    0    0  501 -0.00000000000E+00  0.00000000000E+00  0.18709362217E+03  0.18709362219E+03  0.25500000000E-02 0. -1.
          2   -1    0    0  501    0  0.00000000000E+00 -0.00000000000E+00 -0.46271543934E+03  0.46271543934E+03  0.25500000000E-02 0.  1.
    5000001    1    1    2    0    0  0.19410466381E+03  0.20244319436E+03 -0.18697493158E+03  0.34575785240E+03  0.77000000000E+02 0.  0.
   -5000001    1    1    2    0    0 -0.19410466381E+03 -0.20244319436E+03 -0.88646885582E+02  0.30405120913E+03  0.77000000000E+02 0.  0.
<mgrwt>
<rscale>  0 0.58845937E+03</rscale>
<asrwt>0</asrwt>
<pdfrwt beam="1">  1        2 0.71186990E-01 0.58845937E+03</pdfrwt>
<pdfrwt beam="2">  1       -2 0.28783634E-01 0.58845937E+03</pdfrwt>
<totfact> 0.74956569E+02</totfact>
</mgrwt>
</event>
<event>
 4    1  0.2489209E-004  0.2848824E+03  0.7818608E-02  0.1093052E+00
          2   -1    0    0  501    0  0.00000000000E+00  0.00000000000E+00  0.10377927392E+03  0.10377927395E+03  0.25500000000E-02 0.  1.
         -2   -1    0    0    0  501 -0.00000000000E+00 -0.00000000000E+00 -0.19550628114E+03  0.19550628116E+03  0.25500000000E-02 0. -1.
    5000001    1    1    2    0    0 -0.10730554836E+03 -0.21569065107E+02  0.53967861331E+01  0.13393218649E+03  0.77000000000E+02 0.  0.
   -5000001    1    1    2    0    0  0.10730554836E+03  0.21569065107E+02 -0.97123793353E+02  0.16535336862E+03  0.77000000000E+02 0.  0.
<mgrwt>
<rscale>  0 0.28488243E+03</rscale>
<asrwt>0</asrwt>
<pdfrwt beam="1">  1        2 0.15966042E-01 0.28488243E+03</pdfrwt>
<pdfrwt beam="2">  1       -2 0.30077889E-01 0.28488243E+03</pdfrwt>
<totfact> 0.36682846E+03</totfact>
</mgrwt>
</event>
<event>
 4    1  0.2489209E-004  0.4590472E+03  0.7818608E-02  0.1025058E+00
         -2   -1    0    0    0  501 -0.00000000000E+00  0.00000000000E+00  0.31524878805E+02  0.31524878908E+02  0.25500000000E-02 0. -1.
          2   -1    0    0  501    0  0.00000000000E+00 -0.00000000000E+00 -0.16710955324E+04  0.16710955324E+04  0.25500000000E-02 0.  1.
    5000001    1    1    2    0    0  0.34578559666E+02 -0.20847920823E+03 -0.65010668876E+03  0.68791493938E+03  0.77000000000E+02 0.  0.
   -5000001    1    1    2    0    0 -0.34578559666E+02  0.20847920823E+03 -0.98946396483E+03  0.10147054719E+04  0.77000000000E+02 0.  0.
<mgrwt>
<rscale>  0 0.45904721E+03</rscale>
<asrwt>0</asrwt>
<pdfrwt beam="1">  1        2 0.25709155E+00 0.45904721E+03</pdfrwt>
<pdfrwt beam="2">  1       -2 0.48499827E-02 0.45904721E+03</pdfrwt>
<totfact> 0.22567955E+03</totfact>
</mgrwt>
</event>
<event>
 4    1  0.2489209E-004  0.1978350E+03  0.7818608E-02  0.1151579E+00
          2   -1    0    0  501    0  0.00000000000E+00  0.00000000000E+00  0.22221958129E+02  0.22221958275E+02  0.25500000000E-02 0.  1.
         -2   -1    0    0    0  501 -0.00000000000E+00 -0.00000000000E+00 -0.44031548787E+03  0.44031548788E+03  0.25500000000E-02 0. -1.
    5000001    1    1    2    0    0  0.36632585911E+02  0.49510200603E+02 -0.19056830369E+03  0.21456580502E+03  0.77000000000E+02 0.  0.
   -5000001    1    1    2    0    0 -0.36632585911E+02 -0.49510200603E+02 -0.22752522606E+03  0.24797164113E+03  0.77000000000E+02 0.  0.
<mgrwt>
<rscale>  0 0.19783501E+03</rscale>
<asrwt>0</asrwt>
<pdfrwt beam="1">  1        2 0.34187631E-02 0.19783501E+03</pdfrwt>
<pdfrwt beam="2">  1       -2 0.67740838E-01 0.19783501E+03</pdfrwt>
<totfact> 0.52325099E+03</totfact>
</mgrwt>
</event>
<event>
 4    1  0.2489209E-004  0.2240088E+03  0.7818608E-02  0.1130929E+00
         -2   -1    0    0    0  501 -0.00000000000E+00  0.00000000000E+00  0.50219027963E+01  0.50219034437E+01  0.25500000000E-02 0. -1.
          2   -1    0    0  501    0  0.00000000000E+00 -0.00000000000E+00 -0.24980539087E+04  0.24980539087E+04  0.25500000000E-02 0.  1.
    5000001    1    1    2    0    0 -0.65921686333E+02 -0.29273120592E+02 -0.16666052305E+04  0.16699414896E+04  0.77000000000E+02 0.  0.
   -5000001    1    1    2    0    0  0.65921686333E+02  0.29273120592E+02 -0.82642677542E+03  0.83313432257E+03  0.77000000000E+02 0.  0.
<mgrwt>
<rscale>  0 0.22400879E+03</rscale>
<asrwt>0</asrwt>
<pdfrwt beam="1">  1        2 0.38431499E+00 0.22400879E+03</pdfrwt>
<pdfrwt beam="2">  1       -2 0.77260248E-03 0.22400879E+03</pdfrwt>
<totfact> 0.12427533E+04</totfact>
</mgrwt>
</event>
<event>
 4    1  0.2489209E-004  0.2879821E+03  0.7818608E-02  0.1091407E+00
          2   -1    0    0  501    0  0.00000000000E+00  0.00000000000E+00  0.11236725687E+03  0.11236725690E+03  0.25500000000E-02 0.  1.
         -2   -1    0    0    0  501 -0.00000000000E+00 -0.00000000000E+00 -0.18451481814E+03  0.18451481815E+03  0.25500000000E-02 0. -1.
    5000001    1    1    2    0    0  0.57252441003E+00 -0.93419303661E+02 -0.11643760205E+03  0.16797085834E+03  0.77000000000E+02 0.  0.
   -5000001    1    1    2    0    0 -0.57252441003E+00  0.93419303661E+02  0.44290040791E+02  0.12891121671E+03  0.77000000000E+02 0.  0.
<mgrwt>
<rscale>  0 0.28798211E+03</rscale>
<asrwt>0</asrwt>
<pdfrwt beam="1">  1        2 0.17287270E-01 0.28798211E+03</pdfrwt>
<pdfrwt beam="2">  1       -2 0.28386895E-01 0.28798211E+03</pdfrwt>
<totfact> 0.37118820E+03</totfact>
</mgrwt>
</event>
<event>
 4    1  0.2489209E-004  0.2646540E+03  0.7818608E-02  0.1104379E+00
          2   -1    0    0  501    0  0.00000000000E+00  0.00000000000E+00  0.73560645384E+03  0.73560645385E+03  0.25500000000E-02 0.  1.
         -2   -1    0    0    0  501 -0.00000000000E+00 -0.00000000000E+00 -0.23804088522E+02  0.23804088658E+02  0.25500000000E-02 0. -1.
    5000001    1    1    2    0    0  0.80623211210E+02  0.70272700656E+02  0.32157721414E+03  0.34753310533E+03  0.77000000000E+02 0.  0.
   -5000001    1    1    2    0    0 -0.80623211210E+02 -0.70272700656E+02  0.39022515118E+03  0.41187743718E+03  0.77000000000E+02 0.  0.
<mgrwt>
<rscale>  0 0.26465405E+03</rscale>
<asrwt>0</asrwt>
<pdfrwt beam="1">  1        2 0.11317019E+00 0.26465405E+03</pdfrwt>
<pdfrwt beam="2">  1       -2 0.36621684E-02 0.26465405E+03</pdfrwt>
<totfact> 0.12313688E+04</totfact>
</mgrwt>
</event>
<event>
 4    1  0.2489209E-004  0.1785127E+03  0.7818608E-02  0.1169250E+00
         -2   -1    0    0    0  501 -0.00000000000E+00  0.00000000000E+00  0.21878693373E+02  0.21878693522E+02  0.25500000000E-02 0. -1.
          2   -1    0    0  501    0  0.00000000000E+00 -0.00000000000E+00 -0.36413037263E+03  0.36413037264E+03  0.25500000000E-02 0.  1.
    5000001    1    1    2    0    0 -0.72410989247E+01 -0.37451444721E+02 -0.22332135621E+03  0.23928324715E+03  0.77000000000E+02 0.  0.
   -5000001    1    1    2    0    0  0.72410989247E+01  0.37451444721E+02 -0.11893032304E+03  0.14672581901E+03  0.77000000000E+02 0.  0.
<mgrwt>
<rscale>  0 0.17851271E+03</rscale>
<asrwt>0</asrwt>
<pdfrwt beam="1">  1        2 0.56020053E-01 0.17851271E+03</pdfrwt>
<pdfrwt beam="2">  1       -2 0.33659531E-02 0.17851271E+03</pdfrwt>
<totfact> 0.30134461E+04</totfact>
</mgrwt>
</event>
<event>
 4    1  0.2489209E-004  0.3022082E+03  0.7818608E-02  0.1084142E+00
          2   -1    0    0  501    0  0.00000000000E+00  0.00000000000E+00  0.43138061758E+04  0.43138061758E+04  0.25500000000E-02 0.  1.
         -2   -1    0    0    0  501 -0.00000000000E+00 -0.00000000000E+00 -0.52928785601E+01  0.52928791744E+01  0.25500000000E-02 0. -1.
    5000001    1    1    2    0    0 -0.10704885292E+03  0.39378471861E+02  0.30460159131E+04  0.30491231631E+04  0.77000000000E+02 0.  0.
   -5000001    1    1    2    0    0  0.10704885292E+03 -0.39378471861E+02  0.12624973841E+04  0.12699758918E+04  0.77000000000E+02 0.  0.
<mgrwt>
<rscale>  0 0.30220823E+03</rscale>
<asrwt>0</asrwt>
<pdfrwt beam="1">  1        2 0.66366203E+00 0.30220823E+03</pdfrwt>
<pdfrwt beam="2">  1       -2 0.81428962E-03 0.30220823E+03</pdfrwt>
<totfact> 0.71005144E+02</totfact>
</mgrwt>
</event>
<event>
 4    1  0.2489209E-004  0.1814970E+03  0.7818608E-02  0.1166362E+00
         -2   -1    0    0    0  501 -0.00000000000E+00  0.00000000000E+00  0.25759926657E+01  0.25759939278E+01  0.25500000000E-02 0. -1.
          2   -1    0    0  501    0  0.00000000000E+00 -0.00000000000E+00 -0.31969390018E+04  0.31969390018E+04  0.25500000000E-02 0.  1.
    5000001    1    1    2    0    0  0.11115138415E+02  0.34782486307E+02 -0.10473185364E+04  0.10507799410E+04  0.77000000000E+02 0.  0.
   -5000001    1    1    2    0    0 -0.11115138415E+02 -0.34782486307E+02 -0.21470444727E+04  0.21487350547E+04  0.77000000000E+02 0.  0.
<mgrwt>
<rscale>  0 0.18149704E+03</rscale>
<asrwt>0</asrwt>
<pdfrwt beam="1">  1        2 0.49183360E+00 0.18149704E+03</pdfrwt>
<pdfrwt beam="2">  1       -2 0.39630922E-03 0.18149704E+03</pdfrwt>
<totfact> 0.12821416E+04</totfact>
</mgrwt>
</event>
<event>
 4    1  0.2489209E-004  0.2240875E+03  0.7818608E-02  0.1130872E+00
         -2   -1    0    0    0  501 -0.00000000000E+00  0.00000000000E+00  0.78991221998E+01  0.78991226114E+01  0.25500000000E-02 0. -1.
          2   -1    0    0  501    0  0.00000000000E+00 -0.00000000000E+00 -0.15892648424E+04  0.15892648424E+04  0.25500000000E-02 0.  1.
    5000001    1    1    2    0    0  0.23129372347E+02 -0.73142938543E+02 -0.98456163206E+03  0.99054301504E+03  0.77000000000E+02 0.  0.
   -5000001    1    1    2    0    0 -0.23129372347E+02  0.73142938543E+02 -0.59680408816E+03  0.60662094999E+03  0.77000000000E+02 0.  0.
<mgrwt>
<rscale>  0 0.22408746E+03</rscale>
<asrwt>0</asrwt>
<pdfrwt beam="1">  1        2 0.24450203E+00 0.22408746E+03</pdfrwt>
<pdfrwt beam="2">  1       -2 0.12152509E-02 0.22408746E+03</pdfrwt>
<totfact> 0.19459134E+04</totfact>
</mgrwt>
</event>
<event>
 4    1  0.2489209E-004  0.1643730E+03  0.7818608E-02  0.1183846E+00
          2   -1    0    0  501    0  0.00000000000E+00  0.00000000000E+00  0.14506289985E+03  0.14506289987E+03  0.25500000000E-02 0.  1.
         -2   -1    0    0    0  501 -0.00000000000E+00 -0.00000000000E+00 -0.46563419991E+02  0.46563420061E+02  0.25500000000E-02 0. -1.
    5000001    1    1    2    0    0 -0.15874430073E+02  0.23712001130E+02  0.53180446522E+02  0.97833616002E+02  0.77000000000E+02 0.  0.
   -5000001    1    1    2    0    0  0.15874430073E+02 -0.23712001130E+02  0.45319033334E+02  0.93792703928E+02  0.77000000000E+02 0.  0.
<mgrwt>
<rscale>  0 0.16437305E+03</rscale>
<asrwt>0</asrwt>
<pdfrwt beam="1">  1        2 0.22317369E-01 0.16437305E+03</pdfrwt>
<pdfrwt beam="2">  1       -2 0.71636031E-02 0.16437305E+03</pdfrwt>
<totfact> 0.25929021E+04</totfact>
</mgrwt>
</event>
<event>
 4    1  0.2489209E-004  0.2296253E+03  0.7818608E-02  0.1126904E+00
         -2   -1    0    0    0  501 -0.00000000000E+00  0.00000000000E+00  0.13238580291E+03  0.13238580293E+03  0.25500000000E-02 0. -1.
          2   -1    0    0  501    0  0.00000000000E+00 -0.00000000000E+00 -0.99572224927E+02  0.99572224960E+02  0.25500000000E-02 0.  1.
    5000001    1    1    2    0    0 -0.70760886330E+02  0.47390356778E+02  0.16407745778E+02  0.11597914930E+03  0.77000000000E+02 0.  0.
   -5000001    1    1    2    0    0  0.70760886330E+02 -0.47390356778E+02  0.16405832200E+02  0.11597887859E+03  0.77000000000E+02 0.  0.
<mgrwt>
<rscale>  0 0.22962534E+03</rscale>
<asrwt>0</asrwt>
<pdfrwt beam="1">  1        2 0.15318804E-01 0.22962534E+03</pdfrwt>
<pdfrwt beam="2">  1       -2 0.20367047E-01 0.22962534E+03</pdfrwt>
<totfact> 0.75888161E+03</totfact>
</mgrwt>
</event>
<event>
 4    1  0.2489209E-004  0.3307211E+03  0.7818608E-02  0.1070818E+00
          2   -1    0    0  501    0  0.00000000000E+00  0.00000000000E+00  0.21141291765E+04  0.21141291765E+04  0.25500000000E-02 0.  1.
         -2   -1    0    0    0  501 -0.00000000000E+00 -0.00000000000E+00 -0.12933980458E+02  0.12933980709E+02  0.25500000000E-02 0. -1.
    5000001    1    1    2    0    0 -0.60057408747E+02 -0.75819633813E+02  0.17568906207E+04  0.17612351241E+04  0.77000000000E+02 0.  0.
   -5000001    1    1    2    0    0  0.60057408747E+02  0.75819633813E+02  0.34430457534E+03  0.36582803312E+03  0.77000000000E+02 0.  0.
<mgrwt>
<rscale>  0 0.33072107E+03</rscale>
<asrwt>0</asrwt>
<pdfrwt beam="1">  1        2 0.32525035E+00 0.33072107E+03</pdfrwt>
<pdfrwt beam="2">  1       -2 0.19898450E-02 0.33072107E+03</pdfrwt>
<totfact> 0.50339205E+03</totfact>
</mgrwt>
</event>
<event>
 4    1  0.2489209E-004  0.2378874E+03  0.7818608E-02  0.1121208E+00
         -2   -1    0    0    0  501 -0.00000000000E+00  0.00000000000E+00  0.38494462073E+03  0.38494462074E+03  0.25500000000E-02 0. -1.
          2   -1    0    0  501    0  0.00000000000E+00 -0.00000000000E+00 -0.36752303054E+02  0.36752303142E+02  0.25500000000E-02 0.  1.
    5000001    1    1    2    0    0 -0.44031966009E+02  0.58115599636E+02  0.78595800459E+02  0.13199445746E+03  0.77000000000E+02 0.  0.
   -5000001    1    1    2    0    0  0.44031966009E+02 -0.58115599636E+02  0.26959651722E+03  0.28970246641E+03  0.77000000000E+02 0.  0.
<mgrwt>
<rscale>  0 0.23788738E+03</rscale>
<asrwt>0</asrwt>
<pdfrwt beam="1">  1        2 0.56542004E-02 0.23788738E+03</pdfrwt>
<pdfrwt beam="2">  1       -2 0.59222250E-01 0.23788738E+03</pdfrwt>
<totfact> 0.35886555E+03</totfact>
</mgrwt>
</event>
<event>
 4    1  0.2489209E-004  0.3966801E+03  0.7818608E-02  0.1044935E+00
         -2   -1    0    0    0  501 -0.00000000000E+00  0.00000000000E+00  0.40352459413E+02  0.40352459493E+02  0.25500000000E-02 0. -1.
          2   -1    0    0  501    0  0.00000000000E+00 -0.00000000000E+00 -0.97487923334E+03  0.97487923334E+03  0.25500000000E-02 0.  1.
    5000001    1    1    2    0    0  0.12250219837E+03  0.12527364496E+03 -0.60048335808E+03  0.63024561724E+03  0.77000000000E+02 0.  0.
   -5000001    1    1    2    0    0 -0.12250219837E+03 -0.12527364496E+03 -0.33404341585E+03  0.38498607559E+03  0.77000000000E+02 0.  0.
<mgrwt>
<rscale>  0 0.39668010E+03</rscale>
<asrwt>0</asrwt>
<pdfrwt beam="1">  1        2 0.14998140E+00 0.39668010E+03</pdfrwt>
<pdfrwt beam="2">  1       -2 0.62080714E-02 0.39668010E+03</pdfrwt>
<totfact> 0.38382122E+03</totfact>
</mgrwt>
</event>
<event>
 4    1  0.2489209E-004  0.1581545E+03  0.7818608E-02  0.1190796E+00
          2   -1    0    0  501    0  0.00000000000E+00  0.00000000000E+00  0.81670574125E+03  0.81670574125E+03  0.25500000000E-02 0.  1.
         -2   -1    0    0    0  501 -0.00000000000E+00 -0.00000000000E+00 -0.76566282490E+01  0.76566286736E+01  0.25500000000E-02 0. -1.
    5000001    1    1    2    0    0  0.11865605834E+02 -0.12774316167E+02  0.38107654024E+03  0.38916873625E+03  0.77000000000E+02 0.  0.
   -5000001    1    1    2    0    0 -0.11865605834E+02  0.12774316167E+02  0.42797257276E+03  0.43519363367E+03  0.77000000000E+02 0.  0.
<mgrwt>
<rscale>  0 0.15815451E+03</rscale>
<asrwt>0</asrwt>
<pdfrwt beam="1">  1        2 0.12564703E+00 0.15815451E+03</pdfrwt>
<pdfrwt beam="2">  1       -2 0.11779429E-02 0.15815451E+03</pdfrwt>
<totfact> 0.55048209E+04</totfact>
</mgrwt>
</event>
<event>
 4    1  0.2489209E-004  0.2362982E+03  0.7818608E-02  0.1122284E+00
         -2   -1    0    0    0  501 -0.00000000000E+00  0.00000000000E+00  0.13670753039E+02  0.13670753277E+02  0.25500000000E-02 0. -1.
          2   -1    0    0  501    0  0.00000000000E+00 -0.00000000000E+00 -0.10211005351E+04  0.10211005351E+04  0.25500000000E-02 0.  1.
    5000001    1    1    2    0    0 -0.75879177118E+02  0.40858083014E+02 -0.39616556525E+03  0.41267806769E+03  0.77000000000E+02 0.  0.
   -5000001    1    1    2    0    0  0.75879177118E+02 -0.40858083014E+02 -0.61126421680E+03  0.62209322067E+03  0.77000000000E+02 0.  0.
<mgrwt>
<rscale>  0 0.23629823E+03</rscale>
<asrwt>0</asrwt>
<pdfrwt beam="1">  1        2 0.15709233E+00 0.23629823E+03</pdfrwt>
<pdfrwt beam="2">  1       -2 0.21031936E-02 0.23629823E+03</pdfrwt>
<totfact> 0.18104329E+04</totfact>
</mgrwt>
</event>
<event>
 4    1  0.2489209E-004  0.5067843E+03  0.7818608E-02  0.1012023E+00
         -2   -1    0    0    0  501 -0.00000000000E+00  0.00000000000E+00  0.18169697813E+02  0.18169697992E+02  0.25500000000E-02 0. -1.
          2   -1    0    0  501    0  0.00000000000E+00 -0.00000000000E+00 -0.35337730014E+04  0.35337730014E+04  0.25500000000E-02 0.  1.
    5000001    1    1    2    0    0  0.17466254519E+03 -0.16275229479E+03 -0.15067272526E+04  0.15274656552E+04  0.77000000000E+02 0.  0.
   -5000001    1    1    2    0    0 -0.17466254519E+03  0.16275229479E+03 -0.20088760509E+04  0.20244770441E+04  0.77000000000E+02 0.  0.
<mgrwt>
<rscale>  0 0.50678432E+03</rscale>
<asrwt>0</asrwt>
<pdfrwt beam="1">  1        2 0.54365684E+00 0.50678432E+03</pdfrwt>
<pdfrwt beam="2">  1       -2 0.27953410E-02 0.50678432E+03</pdfrwt>
<totfact> 0.43202928E+02</totfact>
</mgrwt>
</event>
<event>
 4    1  0.2489209E-004  0.1998662E+03  0.7818608E-02  0.1149852E+00
          2   -1    0    0  501    0  0.00000000000E+00  0.00000000000E+00  0.15127156631E+04  0.15127156631E+04  0.25500000000E-02 0.  1.
         -2   -1    0    0    0  501 -0.00000000000E+00 -0.00000000000E+00 -0.66017862869E+01  0.66017867794E+01  0.25500000000E-02 0. -1.
    5000001    1    1    2    0    0  0.57754884176E+02 -0.25510125245E+02  0.68889920295E+03  0.69605854995E+03  0.77000000000E+02 0.  0.
   -5000001    1    1    2    0    0 -0.57754884176E+02  0.25510125245E+02  0.81721467389E+03  0.82325889996E+03  0.77000000000E+02 0.  0.
<mgrwt>
<rscale>  0 0.19986621E+03</rscale>
<asrwt>0</asrwt>
<pdfrwt beam="1">  1        2 0.23272548E+00 0.19986621E+03</pdfrwt>
<pdfrwt beam="2">  1       -2 0.10156595E-02 0.19986621E+03</pdfrwt>
<totfact> 0.27533135E+04</totfact>
</mgrwt>
</event>
<event>
 4    1  0.2489209E-004  0.1744513E+03  0.7818608E-02  0.1173284E+00
         -2   -1    0    0    0  501 -0.00000000000E+00  0.00000000000E+00  0.10307811105E+02  0.10307811421E+02  0.25500000000E-02 0. -1.
          2   -1    0    0  501    0  0.00000000000E+00 -0.00000000000E+00 -0.73811188181E+03  0.73811188181E+03  0.25500000000E-02 0.  1.
    5000001    1    1    2    0    0 -0.34697887783E+02  0.21657398839E+02 -0.35310688540E+03  0.36371205487E+03  0.77000000000E+02 0.  0.
   -5000001    1    1    2    0    0  0.34697887783E+02 -0.21657398839E+02 -0.37469718530E+03  0.38470763836E+03  0.77000000000E+02 0.  0.
<mgrwt>
<rscale>  0 0.17445135E+03</rscale>
<asrwt>0</asrwt>
<pdfrwt beam="1">  1        2 0.11355563E+00 0.17445135E+03</pdfrwt>
<pdfrwt beam="2">  1       -2 0.15858177E-02 0.17445135E+03</pdfrwt>
<totfact> 0.40973248E+04</totfact>
</mgrwt>
</event>
<event>
 4    1  0.2489209E-004  0.2080478E+03  0.7818608E-02  0.1143121E+00
         -2   -1    0    0    0  501 -0.00000000000E+00  0.00000000000E+00  0.35550174636E+03  0.35550174637E+03  0.25500000000E-02 0. -1.
          2   -1    0    0  501    0  0.00000000000E+00 -0.00000000000E+00 -0.30438593967E+02  0.30438594074E+02  0.25500000000E-02 0.  1.
    5000001    1    1    2    0    0  0.42228130751E+02  0.55685778965E+02  0.16772981542E+03  0.19734845321E+03  0.77000000000E+02 0.  0.
   -5000001    1    1    2    0    0 -0.42228130751E+02 -0.55685778965E+02  0.15733333698E+03  0.18859188723E+03  0.77000000000E+02 0.  0.
<mgrwt>
<rscale>  0 0.20804782E+03</rscale>
<asrwt>0</asrwt>
<pdfrwt beam="1">  1        2 0.46828608E-02 0.20804782E+03</pdfrwt>
<pdfrwt beam="2">  1       -2 0.54692575E-01 0.20804782E+03</pdfrwt>
<totfact> 0.53724119E+03</totfact>
</mgrwt>
</event>
<event>
 4    1  0.2489209E-004  0.2437020E+03  0.7818608E-02  0.1117351E+00
         -2   -1    0    0    0  501 -0.00000000000E+00  0.00000000000E+00  0.14353285427E+02  0.14353285654E+02  0.25500000000E-02 0. -1.
          2   -1    0    0  501    0  0.00000000000E+00 -0.00000000000E+00 -0.10344436263E+04  0.10344436263E+04  0.25500000000E-02 0.  1.
    5000001    1    1    2    0    0 -0.86426285052E+02 -0.75821952975E+01 -0.67059166285E+03  0.68055063788E+03  0.77000000000E+02 0.  0.
   -5000001    1    1    2    0    0  0.86426285052E+02  0.75821952975E+01 -0.34949867805E+03  0.36824627411E+03  0.77000000000E+02 0.  0.
<mgrwt>
<rscale>  0 0.24370199E+03</rscale>
<asrwt>0</asrwt>
<pdfrwt beam="1">  1        2 0.15914511E+00 0.24370199E+03</pdfrwt>
<pdfrwt beam="2">  1       -2 0.22081986E-02 0.24370199E+03</pdfrwt>
<totfact> 0.16566783E+04</totfact>
</mgrwt>
</event>
<event>
 4    1  0.2489209E-004  0.2739989E+03  0.7818608E-02  0.1099013E+00
          2   -1    0    0  501    0  0.00000000000E+00  0.00000000000E+00  0.77491963612E+02  0.77491963654E+02  0.25500000000E-02 0.  1.
         -2   -1    0    0    0  501 -0.00000000000E+00 -0.00000000000E+00 -0.24220378033E+03  0.24220378034E+03  0.25500000000E-02 0. -1.
    5000001    1    1    2    0    0 -0.70424194452E+02  0.58174796235E+02 -0.41211242494E+01  0.11954019302E+03  0.77000000000E+02 0.  0.
   -5000001    1    1    2    0    0  0.70424194452E+02 -0.58174796235E+02 -0.16059069247E+03  0.20015555098E+03  0.77000000000E+02 0.  0.
<mgrwt>
<rscale>  0 0.27399888E+03</rscale>
<asrwt>0</asrwt>
<pdfrwt beam="1">  1        2 0.11921841E-01 0.27399888E+03</pdfrwt>
<pdfrwt beam="2">  1       -2 0.37262120E-01 0.27399888E+03</pdfrwt>
<totfact> 0.34974014E+03</totfact>
</mgrwt>
</event>
<event>
 4    1  0.2489209E-004  0.2494684E+03  0.7818608E-02  0.1113641E+00
         -2   -1    0    0    0  501 -0.00000000000E+00  0.00000000000E+00  0.12092922423E+02  0.12092922692E+02  0.25500000000E-02 0. -1.
          2   -1    0    0  501    0  0.00000000000E+00 -0.00000000000E+00 -0.12865894048E+04  0.12865894049E+04  0.25500000000E-02 0.  1.
    5000001    1    1    2    0    0 -0.71196823238E+02  0.54424297111E+02 -0.84539127253E+03  0.85360786983E+03  0.77000000000E+02 0.  0.
   -5000001    1    1    2    0    0  0.71196823238E+02 -0.54424297111E+02 -0.42910520989E+03  0.44507445772E+03  0.77000000000E+02 0.  0.
<mgrwt>
<rscale>  0 0.24946844E+03</rscale>
<asrwt>0</asrwt>
<pdfrwt beam="1">  1        2 0.19793672E+00 0.24946844E+03</pdfrwt>
<pdfrwt beam="2">  1       -2 0.18604506E-02 0.24946844E+03</pdfrwt>
<totfact> 0.15278923E+04</totfact>
</mgrwt>
</event>
<event>
 4    1  0.2489209E-004  0.2166772E+03  0.7818608E-02  0.1136385E+00
         -2   -1    0    0    0  501 -0.00000000000E+00  0.00000000000E+00  0.13899858262E+02  0.13899858496E+02  0.25500000000E-02 0. -1.
          2   -1    0    0  501    0  0.00000000000E+00 -0.00000000000E+00 -0.84441506767E+03  0.84441506767E+03  0.25500000000E-02 0.  1.
    5000001    1    1    2    0    0 -0.54091683240E+02  0.42218208247E+01 -0.20324625426E+03  0.22401288766E+03  0.77000000000E+02 0.  0.
   -5000001    1    1    2    0    0  0.54091683240E+02 -0.42218208247E+01 -0.62726895515E+03  0.63430203851E+03  0.77000000000E+02 0.  0.
<mgrwt>
<rscale>  0 0.21667718E+03</rscale>
<asrwt>0</asrwt>
<pdfrwt beam="1">  1        2 0.12990997E+00 0.21667718E+03</pdfrwt>
<pdfrwt beam="2">  1       -2 0.21384404E-02 0.21667718E+03</pdfrwt>
<totfact> 0.22736415E+04</totfact>
</mgrwt>
</event>
<event>
 4    1  0.2489209E-004  0.6653130E+03  0.7818608E-02  0.9778462E-01
         -2   -1    0    0    0  501 -0.00000000000E+00  0.00000000000E+00  0.95721026572E+02  0.95721026606E+02  0.25500000000E-02 0. -1.
          2   -1    0    0  501    0  0.00000000000E+00 -0.00000000000E+00 -0.11560713268E+04  0.11560713268E+04  0.25500000000E-02 0.  1.
    5000001    1    1    2    0    0  0.15371568897E+02  0.24902227120E+03 -0.91798039783E+03  0.95439267991E+03  0.77000000000E+02 0.  0.
   -5000001    1    1    2    0    0 -0.15371568897E+02 -0.24902227120E+03 -0.14236990239E+03  0.29739967349E+03  0.77000000000E+02 0.  0.
<mgrwt>
<rscale>  0 0.66531296E+03</rscale>
<asrwt>0</asrwt>
<pdfrwt beam="1">  1        2 0.17785712E+00 0.66531296E+03</pdfrwt>
<pdfrwt beam="2">  1       -2 0.14726313E-01 0.66531296E+03</pdfrwt>
<totfact> 0.73467463E+02</totfact>
</mgrwt>
</event>
<event>
 4    1  0.2489209E-004  0.1605100E+03  0.7818608E-02  0.1188122E+00
         -2   -1    0    0    0  501 -0.00000000000E+00  0.00000000000E+00  0.45021815767E+01  0.45021822988E+01  0.25500000000E-02 0. -1.
          2   -1    0    0  501    0  0.00000000000E+00 -0.00000000000E+00 -0.14306097030E+04  0.14306097030E+04  0.25500000000E-02 0.  1.
    5000001    1    1    2    0    0 -0.15872707526E+01  0.88494556404E+01 -0.89867978325E+03  0.90201728648E+03  0.77000000000E+02 0.  0.
   -5000001    1    1    2    0    0  0.15872707526E+01 -0.88494556404E+01 -0.52742773818E+03  0.53309459883E+03  0.77000000000E+02 0.  0.
<mgrwt>
<rscale>  0 0.16051000E+03</rscale>
<asrwt>0</asrwt>
<pdfrwt beam="1">  1        2 0.22009344E+00 0.16051000E+03</pdfrwt>
<pdfrwt beam="2">  1       -2 0.69264452E-03 0.16051000E+03</pdfrwt>
<totfact> 0.51934783E+04</totfact>
</mgrwt>
</event>
<event>
 4    1  0.2489209E-004  0.3219585E+03  0.7818608E-02  0.1074751E+00
         -2   -1    0    0    0  501 -0.00000000000E+00  0.00000000000E+00  0.22310908864E+02  0.22310909010E+02  0.25500000000E-02 0. -1.
          2   -1    0    0  501    0  0.00000000000E+00 -0.00000000000E+00 -0.11615085378E+04  0.11615085378E+04  0.25500000000E-02 0.  1.
    5000001    1    1    2    0    0  0.54337587917E+02 -0.11482365070E+03 -0.34150251611E+03  0.37241108030E+03  0.77000000000E+02 0.  0.
   -5000001    1    1    2    0    0 -0.54337587917E+02  0.11482365070E+03 -0.79769511281E+03  0.81140836650E+03  0.77000000000E+02 0.  0.
<mgrwt>
<rscale>  0 0.32195845E+03</rscale>
<asrwt>0</asrwt>
<pdfrwt beam="1">  1        2 0.17869357E+00 0.32195845E+03</pdfrwt>
<pdfrwt beam="2">  1       -2 0.34324484E-02 0.32195845E+03</pdfrwt>
<totfact> 0.72994397E+03</totfact>
</mgrwt>
</event>
<event>
 4    1  0.2489209E-004  0.3224448E+03  0.7818608E-02  0.1074530E+00
         -2   -1    0    0    0  501 -0.00000000000E+00  0.00000000000E+00  0.11661819286E+03  0.11661819289E+03  0.25500000000E-02 0. -1.
          2   -1    0    0  501    0  0.00000000000E+00 -0.00000000000E+00 -0.22288686858E+03  0.22288686859E+03  0.25500000000E-02 0.  1.
    5000001    1    1    2    0    0 -0.14159525407E+03  0.36768881314E+01 -0.54148827079E+02  0.17007007660E+03  0.77000000000E+02 0.  0.
   -5000001    1    1    2    0    0  0.14159525407E+03 -0.36768881314E+01 -0.52119848637E+02  0.16943498489E+03  0.77000000000E+02 0.  0.
<mgrwt>
<rscale>  0 0.32244481E+03</rscale>
<asrwt>0</asrwt>
<pdfrwt beam="1">  1        2 0.34290287E-01 0.32244481E+03</pdfrwt>
<pdfrwt beam="2">  1       -2 0.17941260E-01 0.32244481E+03</pdfrwt>
<totfact> 0.38337104E+03</totfact>
</mgrwt>
</event>
<event>
 4    1  0.2489209E-004  0.2732204E+03  0.7818608E-02  0.1099450E+00
         -2   -1    0    0    0  501 -0.00000000000E+00  0.00000000000E+00  0.25251914970E+02  0.25251915099E+02  0.25500000000E-02 0. -1.
          2   -1    0    0  501    0  0.00000000000E+00 -0.00000000000E+00 -0.73904705366E+03  0.73904705366E+03  0.25500000000E-02 0.  1.
    5000001    1    1    2    0    0 -0.67023660255E+02  0.75019497934E+01 -0.60997699780E+03  0.61850577049E+03  0.77000000000E+02 0.  0.
   -5000001    1    1    2    0    0  0.67023660255E+02 -0.75019497934E+01 -0.10381814089E+03  0.14579319827E+03  0.77000000000E+02 0.  0.
<mgrwt>
<rscale>  0 0.27322045E+03</rscale>
<asrwt>0</asrwt>
<pdfrwt beam="1">  1        2 0.11369953E+00 0.27322045E+03</pdfrwt>
<pdfrwt beam="2">  1       -2 0.38849106E-02 0.27322045E+03</pdfrwt>
<totfact> 0.11218884E+04</totfact>
</mgrwt>
</event>
<event>
 4    1  0.2489209E-004  0.3184913E+03  0.7818608E-02  0.1076346E+00
         -2   -1    0    0    0  501 -0.00000000000E+00  0.00000000000E+00  0.54575867509E+03  0.54575867509E+03  0.25500000000E-02 0. -1.
          2   -1    0    0  501    0  0.00000000000E+00 -0.00000000000E+00 -0.46465916035E+02  0.46465916105E+02  0.25500000000E-02 0.  1.
    5000001    1    1    2    0    0  0.57054204419E+02 -0.54997707559E+02  0.46288006630E+03  0.47588537050E+03  0.77000000000E+02 0.  0.
   -5000001    1    1    2    0    0 -0.57054204419E+02  0.54997707559E+02  0.36412692750E+02  0.11633922070E+03  0.77000000000E+02 0.  0.
<mgrwt>
<rscale>  0 0.31849130E+03</rscale>
<asrwt>0</asrwt>
<pdfrwt beam="1">  1        2 0.71486022E-02 0.31849130E+03</pdfrwt>
<pdfrwt beam="2">  1       -2 0.83962876E-01 0.31849130E+03</pdfrwt>
<totfact> 0.12615053E+03</totfact>
</mgrwt>
</event>
<event>
 4    1  0.2489209E-004  0.2210372E+03  0.7818608E-02  0.1133112E+00
          2   -1    0    0  501    0  0.00000000000E+00  0.00000000000E+00  0.70003344897E+03  0.70003344897E+03  0.25500000000E-02 0.  1.
         -2   -1    0    0    0  501 -0.00000000000E+00 -0.00000000000E+00 -0.17448257389E+02  0.17448257575E+02  0.25500000000E-02 0. -1.
    5000001    1    1    2    0    0 -0.14876172754E+02  0.72601988978E+02  0.43270097054E+03  0.44570335339E+03  0.77000000000E+02 0.  0.
   -5000001    1    1    2    0    0  0.14876172754E+02 -0.72601988978E+02  0.24988422104E+03  0.27177835316E+03  0.77000000000E+02 0.  0.
<mgrwt>
<rscale>  0 0.22103723E+03</rscale>
<asrwt>0</asrwt>
<pdfrwt beam="1">  1        2 0.10769743E+00 0.22103723E+03</pdfrwt>
<pdfrwt beam="2">  1       -2 0.26843479E-02 0.22103723E+03</pdfrwt>
<totfact> 0.20577652E+04</totfact>
</mgrwt>
</event>
<event>
 4    1  0.2489209E-004  0.2233183E+03  0.7818608E-02  0.1131433E+00
          2   -1    0    0  501    0  0.00000000000E+00  0.00000000000E+00  0.15090873460E+04  0.15090873460E+04  0.25500000000E-02 0.  1.
         -2   -1    0    0    0  501 -0.00000000000E+00 -0.00000000000E+00 -0.82617925617E+01  0.82617929552E+01  0.25500000000E-02 0. -1.
    5000001    1    1    2    0    0 -0.56137333437E+02  0.52064479018E+02  0.57366848660E+03  0.58385498431E+03  0.77000000000E+02 0.  0.
   -5000001    1    1    2    0    0  0.56137333437E+02 -0.52064479018E+02  0.92715706687E+03  0.93349415468E+03  0.77000000000E+02 0.  0.
<mgrwt>
<rscale>  0 0.22331831E+03</rscale>
<asrwt>0</asrwt>
<pdfrwt beam="1">  1        2 0.23216719E+00 0.22331831E+03</pdfrwt>
<pdfrwt beam="2">  1       -2 0.12710456E-02 0.22331831E+03</pdfrwt>
<totfact> 0.20098052E+04</totfact>
</mgrwt>
</event>
<event>
 4    1  0.2489209E-004  0.6155953E+03  0.7818608E-02  0.9873569E-01
          2   -1    0    0  501    0  0.00000000000E+00  0.00000000000E+00  0.33497548688E+03  0.33497548689E+03  0.25500000000E-02 0.  1.
         -2   -1    0    0    0  501 -0.00000000000E+00 -0.00000000000E+00 -0.28282484907E+03  0.28282484908E+03  0.25500000000E-02 0. -1.
    5000001    1    1    2    0    0  0.18284017362E+03  0.22002484222E+03 -0.57703828944E+02  0.30182808378E+03  0.77000000000E+02 0.  0.
   -5000001    1    1    2    0    0 -0.18284017362E+03 -0.22002484222E+03  0.10985446676E+03  0.31597225219E+03  0.77000000000E+02 0.  0.
<mgrwt>
<rscale>  0 0.61559529E+03</rscale>
<asrwt>0</asrwt>
<pdfrwt beam="1">  1        2 0.51534690E-01 0.61559529E+03</pdfrwt>
<pdfrwt beam="2">  1       -2 0.43511516E-01 0.61559529E+03</pdfrwt>
<totfact> 0.49021101E+02</totfact>
</mgrwt>
</event>
<event>
 4    1  0.2489209E-004  0.2040336E+03  0.7818608E-02  0.1146380E+00
          2   -1    0    0  501    0  0.00000000000E+00  0.00000000000E+00  0.27684573068E+04  0.27684573069E+04  0.25500000000E-02 0.  1.
         -2   -1    0    0    0  501 -0.00000000000E+00 -0.00000000000E+00 -0.37592876465E+01  0.37592885114E+01  0.25500000000E-02 0. -1.
    5000001    1    1    2    0    0  0.76720297482E+01 -0.53816858618E+02  0.19126472615E+04  0.19149683186E+04  0.77000000000E+02 0.  0.
   -5000001    1    1    2    0    0 -0.76720297482E+01  0.53816858618E+02  0.85205075770E+03  0.85724827676E+03  0.77000000000E+02 0.  0.
<mgrwt>
<rscale>  0 0.20403361E+03</rscale>
<asrwt>0</asrwt>
<pdfrwt beam="1">  1        2 0.42591760E+00 0.20403361E+03</pdfrwt>
<pdfrwt beam="2">  1       -2 0.57835053E-03 0.20403361E+03</pdfrwt>
<totfact> 0.13329455E+04</totfact>
</mgrwt>
</event>
<event>
 4    1  0.2489209E-004  0.2285076E+03  0.7818608E-02  0.1127695E+00
          2   -1    0    0  501    0  0.00000000000E+00  0.00000000000E+00  0.34147097525E+02  0.34147097621E+02  0.25500000000E-02 0.  1.
         -2   -1    0    0    0  501 -0.00000000000E+00 -0.00000000000E+00 -0.38228538507E+03  0.38228538508E+03  0.25500000000E-02 0. -1.
    5000001    1    1    2    0    0  0.74033222008E+02  0.38604751527E+02 -0.15147640672E+03  0.18932867346E+03  0.77000000000E+02 0.  0.
   -5000001    1    1    2    0    0 -0.74033222008E+02 -0.38604751527E+02 -0.19666188082E+03  0.22710380924E+03  0.77000000000E+02 0.  0.
<mgrwt>
<rscale>  0 0.22850765E+03</rscale>
<asrwt>0</asrwt>
<pdfrwt beam="1">  1        2 0.52533999E-02 0.22850765E+03</pdfrwt>
<pdfrwt beam="2">  1       -2 0.58813133E-01 0.22850765E+03</pdfrwt>
<totfact> 0.40010183E+03</totfact>
</mgrwt>
</event>
<event>
 4    1  0.2489209E-004  0.1902418E+03  0.7818608E-02  0.1158243E+00
          2   -1    0    0  501    0  0.00000000000E+00  0.00000000000E+00  0.14861460901E+04  0.14861460901E+04  0.25500000000E-02 0.  1.
         -2   -1    0    0    0  501 -0.00000000000E+00 -0.00000000000E+00 -0.60882208496E+01  0.60882213836E+01  0.25500000000E-02 0. -1.
    5000001    1    1    2    0    0  0.48895709725E+02 -0.16974144723E+02  0.57548043844E+03  0.58291135436E+03  0.77000000000E+02 0.  0.
   -5000001    1    1    2    0    0 -0.48895709725E+02  0.16974144723E+02  0.90457743081E+03  0.90932295713E+03  0.77000000000E+02 0.  0.
<mgrwt>
<rscale>  0 0.19024180E+03</rscale>
<asrwt>0</asrwt>
<pdfrwt beam="1">  1        2 0.22863778E+00 0.19024180E+03</pdfrwt>
<pdfrwt beam="2">  1       -2 0.93664972E-03 0.19024180E+03</pdfrwt>
<totfact> 0.31868175E+04</totfact>
</mgrwt>
</event>
<event>
 4    1  0.2489209E-004  0.2248524E+03  0.7818608E-02  0.1130316E+00
          2   -1    0    0  501    0  0.00000000000E+00  0.00000000000E+00  0.54874757236E+03  0.54874757236E+03  0.25500000000E-02 0.  1.
         -2   -1    0    0    0  501 -0.00000000000E+00 -0.00000000000E+00 -0.23033630896E+02  0.23033631037E+02  0.25500000000E-02 0. -1.
    5000001    1    1    2    0    0 -0.79887797566E+02 -0.18121913950E+02  0.26395105646E+03  0.28689653914E+03  0.77000000000E+02 0.  0.
   -5000001    1    1    2    0    0  0.79887797566E+02  0.18121913950E+02  0.26176288500E+03  0.28488466426E+03  0.77000000000E+02 0.  0.
<mgrwt>
<rscale>  0 0.22485239E+03</rscale>
<asrwt>0</asrwt>
<pdfrwt beam="1">  1        2 0.84422707E-01 0.22485239E+03</pdfrwt>
<pdfrwt beam="2">  1       -2 0.35436354E-02 0.22485239E+03</pdfrwt>
<totfact> 0.18118460E+04</totfact>
</mgrwt>
</event>
<event>
 4    1  0.2489209E-004  0.2610371E+03  0.7818608E-02  0.1106522E+00
          2   -1    0    0  501    0  0.00000000000E+00  0.00000000000E+00  0.23630666828E+04  0.23630666828E+04  0.25500000000E-02 0.  1.
         -2   -1    0    0    0  501 -0.00000000000E+00 -0.00000000000E+00 -0.72088896337E+01  0.72088900847E+01  0.25500000000E-02 0. -1.
    5000001    1    1    2    0    0  0.79059184962E+02  0.69172250674E+02  0.12544038410E+04  0.12611475534E+04  0.77000000000E+02 0.  0.
   -5000001    1    1    2    0    0 -0.79059184962E+02 -0.69172250674E+02  0.11014539521E+04  0.11091280195E+04  0.77000000000E+02 0.  0.
<mgrwt>
<rscale>  0 0.26103707E+03</rscale>
<asrwt>0</asrwt>
<pdfrwt beam="1">  1        2 0.36354865E+00 0.26103707E+03</pdfrwt>
<pdfrwt beam="2">  1       -2 0.11090602E-02 0.26103707E+03</pdfrwt>
<totfact> 0.87285093E+03</totfact>
</mgrwt>
</event>
<event>
 4    1  0.2489209E-004  0.2032851E+03  0.7818608E-02  0.1146997E+00
          2   -1    0    0  501    0  0.00000000000E+00  0.00000000000E+00  0.50270681649E+03  0.50270681650E+03  0.25500000000E-02 0.  1.
         -2   -1    0    0    0  501 -0.00000000000E+00 -0.00000000000E+00 -0.20551154144E+02  0.20551154302E+02  0.25500000000E-02 0. -1.
    5000001    1    1    2    0    0  0.42197274277E+02 -0.45612363899E+02  0.18120191302E+03  0.20645636580E+03  0.77000000000E+02 0.  0.
   -5000001    1    1    2    0    0 -0.42197274277E+02  0.45612363899E+02  0.30095374933E+03  0.31680160500E+03  0.77000000000E+02 0.  0.
<mgrwt>
<rscale>  0 0.20328507E+03</rscale>
<asrwt>0</asrwt>
<pdfrwt beam="1">  1        2 0.77339506E-01 0.20328507E+03</pdfrwt>
<pdfrwt beam="2">  1       -2 0.31617162E-02 0.20328507E+03</pdfrwt>
<totfact> 0.23529451E+04</totfact>
</mgrwt>
</event>
<event>
 4    1  0.2489209E-004  0.2722093E+03  0.7818608E-02  0.1100022E+00
          2   -1    0    0  501    0  0.00000000000E+00  0.00000000000E+00  0.64366402421E+03  0.64366402421E+03  0.25500000000E-02 0.  1.
         -2   -1    0    0    0  501 -0.00000000000E+00 -0.00000000000E+00 -0.28779738049E+02  0.28779738161E+02  0.25500000000E-02 0. -1.
    5000001    1    1    2    0    0  0.32337262679E+02  0.10679286497E+03  0.27768864909E+03  0.30901521062E+03  0.77000000000E+02 0.  0.
   -5000001    1    1    2    0    0 -0.32337262679E+02 -0.10679286497E+03  0.33719563707E+03  0.36342855175E+03  0.77000000000E+02 0.  0.
<mgrwt>
<rscale>  0 0.27220935E+03</rscale>
<asrwt>0</asrwt>
<pdfrwt beam="1">  1        2 0.99025226E-01 0.27220935E+03</pdfrwt>
<pdfrwt beam="2">  1       -2 0.44276524E-02 0.27220935E+03</pdfrwt>
<totfact> 0.10885334E+04</totfact>
</mgrwt>
</event>
<event>
 4    1  0.2489209E-004  0.2523227E+03  0.7818608E-02  0.1111846E+00
         -2   -1    0    0    0  501 -0.00000000000E+00  0.00000000000E+00  0.17118621832E+03  0.17118621834E+03  0.25500000000E-02 0. -1.
          2   -1    0    0  501    0  0.00000000000E+00 -0.00000000000E+00 -0.92978760392E+02  0.92978760427E+02  0.25500000000E-02 0.  1.
    5000001    1    1    2    0    0 -0.24019611253E+02 -0.77623040602E+02 -0.21811269350E+02  0.11404827762E+03  0.77000000000E+02 0.  0.
   -5000001    1    1    2    0    0  0.24019611253E+02  0.77623040602E+02  0.10001872728E+03  0.15011670115E+03  0.77000000000E+02 0.  0.
<mgrwt>
<rscale>  0 0.25232267E+03</rscale>
<asrwt>0</asrwt>
<pdfrwt beam="1">  1        2 0.14304425E-01 0.25232267E+03</pdfrwt>
<pdfrwt beam="2">  1       -2 0.26336341E-01 0.25232267E+03</pdfrwt>
<totfact> 0.52821823E+03</totfact>
</mgrwt>
</event>
<event>
 4    1  0.2489209E-004  0.5606246E+03  0.7818608E-02  0.9990642E-01
         -2   -1    0    0    0  501 -0.00000000000E+00  0.00000000000E+00  0.13333731097E+03  0.13333731100E+03  0.25500000000E-02 0. -1.
          2   -1    0    0  501    0  0.00000000000E+00 -0.00000000000E+00 -0.58929491416E+03  0.58929491417E+03  0.25500000000E-02 0.  1.
    5000001    1    1    2    0    0 -0.20647338931E+03 -0.17090556276E+03 -0.26457365634E+03  0.38440628442E+03  0.77000000000E+02 0.  0.
   -5000001    1    1    2    0    0  0.20647338931E+03  0.17090556276E+03 -0.19138394685E+03  0.33822594074E+03  0.77000000000E+02 0.  0.
<mgrwt>
<rscale>  0 0.56062465E+03</rscale>
<asrwt>0</asrwt>
<pdfrwt beam="1">  1        2 0.90660754E-01 0.56062465E+03</pdfrwt>
<pdfrwt beam="2">  1       -2 0.20513433E-01 0.56062465E+03</pdfrwt>
<totfact> 0.10377709E+03</totfact>
</mgrwt>
</event>
<event>
 4    1  0.2489209E-004  0.2107303E+03  0.7818608E-02  0.1140989E+00
         -2   -1    0    0    0  501 -0.00000000000E+00  0.00000000000E+00  0.14517044804E+03  0.14517044806E+03  0.25500000000E-02 0. -1.
          2   -1    0    0  501    0  0.00000000000E+00 -0.00000000000E+00 -0.76474308023E+02  0.76474308065E+02  0.25500000000E-02 0.  1.
    5000001    1    1    2    0    0  0.47593000997E+02  0.53566704833E+02  0.27836799414E+02  0.10880428766E+03  0.77000000000E+02 0.  0.
   -5000001    1    1    2    0    0 -0.47593000997E+02 -0.53566704833E+02  0.40859340605E+02  0.11284046847E+03  0.77000000000E+02 0.  0.
<mgrwt>
<rscale>  0 0.21073025E+03</rscale>
<asrwt>0</asrwt>
<pdfrwt beam="1">  1        2 0.11765278E-01 0.21073025E+03</pdfrwt>
<pdfrwt beam="2">  1       -2 0.22333915E-01 0.21073025E+03</pdfrwt>
<totfact> 0.88390398E+03</totfact>
</mgrwt>
</event>
<event>
 4    1  0.2489209E-004  0.1791223E+03  0.7818608E-02  0.1168655E+00
          2   -1    0    0  501    0  0.00000000000E+00  0.00000000000E+00  0.57457450308E+03  0.57457450308E+03  0.25500000000E-02 0.  1.
         -2   -1    0    0    0  501 -0.00000000000E+00 -0.00000000000E+00 -0.13960248919E+02  0.13960249152E+02  0.25500000000E-02 0. -1.
    5000001    1    1    2    0    0  0.11827924552E+02 -0.44086163504E+02  0.29000596646E+03  0.30350609581E+03  0.77000000000E+02 0.  0.
   -5000001    1    1    2    0    0 -0.11827924552E+02  0.44086163504E+02  0.27060828770E+03  0.28502865643E+03  0.77000000000E+02 0.  0.
<mgrwt>
<rscale>  0 0.17912234E+03</rscale>
<asrwt>0</asrwt>
<pdfrwt beam="1">  1        2 0.88396054E-01 0.17912234E+03</pdfrwt>
<pdfrwt beam="2">  1       -2 0.21477312E-02 0.17912234E+03</pdfrwt>
<totfact> 0.35429694E+04</totfact>
</mgrwt>
</event>
<event>
 4    1  0.2489209E-004  0.2546638E+03  0.7818608E-02  0.1110392E+00
          2   -1    0    0  501    0  0.00000000000E+00  0.00000000000E+00  0.56161547308E+02  0.56161547366E+02  0.25500000000E-02 0.  1.
         -2   -1    0    0    0  501 -0.00000000000E+00 -0.00000000000E+00 -0.28869248816E+03  0.28869248817E+03  0.25500000000E-02 0. -1.
    5000001    1    1    2    0    0 -0.96123929141E+02  0.18716629199E+02 -0.15194671745E+03  0.19648645477E+03  0.77000000000E+02 0.  0.
   -5000001    1    1    2    0    0  0.96123929141E+02 -0.18716629199E+02 -0.80584223393E+02  0.14836758076E+03  0.77000000000E+02 0.  0.
<mgrwt>
<rscale>  0 0.25466383E+03</rscale>
<asrwt>0</asrwt>
<pdfrwt beam="1">  1        2 0.86402382E-02 0.25466383E+03</pdfrwt>
<pdfrwt beam="2">  1       -2 0.44414228E-01 0.25466383E+03</pdfrwt>
<totfact> 0.37144341E+03</totfact>
</mgrwt>
</event>
<event>
 4    1  0.2489209E-004  0.3828769E+03  0.7818608E-02  0.1049876E+00
         -2   -1    0    0    0  501 -0.00000000000E+00  0.00000000000E+00  0.36160371654E+03  0.36160371655E+03  0.25500000000E-02 0. -1.
          2   -1    0    0  501    0  0.00000000000E+00 -0.00000000000E+00 -0.10135037399E+03  0.10135037402E+03  0.25500000000E-02 0.  1.
    5000001    1    1    2    0    0 -0.17791436435E+02 -0.15473565630E+03  0.22731083864E+03  0.28610990179E+03  0.77000000000E+02 0.  0.
   -5000001    1    1    2    0    0  0.17791436435E+02  0.15473565630E+03  0.32942503908E+02  0.17684418877E+03  0.77000000000E+02 0.  0.
<mgrwt>
<rscale>  0 0.38287686E+03</rscale>
<asrwt>0</asrwt>
<pdfrwt beam="1">  1        2 0.15592365E-01 0.38287686E+03</pdfrwt>
<pdfrwt beam="2">  1       -2 0.55631342E-01 0.38287686E+03</pdfrwt>
<totfact> 0.11582554E+03</totfact>
</mgrwt>
</event>
<event>
 4    1  0.2489209E-004  0.2644217E+03  0.7818608E-02  0.1104515E+00
         -2   -1    0    0    0  501 -0.00000000000E+00  0.00000000000E+00  0.36171468615E+02  0.36171468705E+02  0.25500000000E-02 0.  1.
          2   -1    0    0  501    0  0.00000000000E+00 -0.00000000000E+00 -0.48324592727E+03  0.48324592727E+03  0.25500000000E-02 0. -1.
    5000001    1    1    2    0    0 -0.91428107246E+02 -0.70418472508E+01 -0.11342783266E+03  0.16493501638E+03  0.77000000000E+02 0.  0.
   -5000001    1    1    2    0    0  0.91428107246E+02  0.70418472508E+01 -0.33364662600E+03  0.35448237960E+03  0.77000000000E+02 0.  0.
<mgrwt>
<rscale>  0 0.26442175E+03</rscale>
<asrwt>0</asrwt>
<pdfrwt beam="1">  1        2 0.74345523E-01 0.26442175E+03</pdfrwt>
<pdfrwt beam="2">  1       -2 0.55648417E-02 0.26442175E+03</pdfrwt>
<totfact> 0.10663670E+04</totfact>
</mgrwt>
</event>
<event>
 4    1  0.2489209E-004  0.2542585E+03  0.7818608E-02  0.1110643E+00
         -2   -1    0    0    0  501 -0.00000000000E+00  0.00000000000E+00  0.38216908145E+02  0.38216908230E+02  0.25500000000E-02 0. -1.
          2   -1    0    0  501    0  0.00000000000E+00 -0.00000000000E+00 -0.42289785969E+03  0.42289785969E+03  0.25500000000E-02 0.  1.
    5000001    1    1    2    0    0 -0.59742350670E+02  0.70986341547E+02 -0.11924137649E+03  0.16957510141E+03  0.77000000000E+02 0.  0.
   -5000001    1    1    2    0    0  0.59742350670E+02 -0.70986341547E+02 -0.26543957505E+03  0.29153966652E+03  0.77000000000E+02 0.  0.
<mgrwt>
<rscale>  0 0.25425852E+03</rscale>
<asrwt>0</asrwt>
<pdfrwt beam="1">  1        2 0.65061206E-01 0.25425852E+03</pdfrwt>
<pdfrwt beam="2">  1       -2 0.58795246E-02 0.25425852E+03</pdfrwt>
<totfact> 0.11334388E+04</totfact>
</mgrwt>
</event>
<event>
 4    1  0.2489209E-004  0.2610712E+03  0.7818608E-02  0.1106501E+00
         -2   -1    0    0    0  501 -0.00000000000E+00  0.00000000000E+00  0.10682056077E+02  0.10682056382E+02  0.25500000000E-02 0. -1.
          2   -1    0    0  501    0  0.00000000000E+00 -0.00000000000E+00 -0.15951559935E+04  0.15951559935E+04  0.25500000000E-02 0.  1.
    5000001    1    1    2    0    0  0.66680223536E+02  0.58008980101E+02 -0.11455425396E+04  0.11515242091E+04  0.77000000000E+02 0.  0.
   -5000001    1    1    2    0    0 -0.66680223536E+02 -0.58008980101E+02 -0.43893139782E+03  0.45431384083E+03  0.77000000000E+02 0.  0.
<mgrwt>
<rscale>  0 0.26107122E+03</rscale>
<asrwt>0</asrwt>
<pdfrwt beam="1">  1        2 0.24540843E+00 0.26107122E+03</pdfrwt>
<pdfrwt beam="2">  1       -2 0.16433945E-02 0.26107122E+03</pdfrwt>
<totfact> 0.12508222E+04</totfact>
</mgrwt>
</event>
<event>
 4    1  0.2489209E-004  0.2193606E+03  0.7818608E-02  0.1134361E+00
          2   -1    0    0  501    0  0.00000000000E+00  0.00000000000E+00  0.17310246118E+03  0.17310246120E+03  0.25500000000E-02 0.  1.
         -2   -1    0    0    0  501 -0.00000000000E+00 -0.00000000000E+00 -0.69495072782E+02  0.69495072829E+02  0.25500000000E-02 0. -1.
    5000001    1    1    2    0    0 -0.50024767236E+02  0.31996564498E+02  0.10791819527E+03  0.14526387833E+03  0.77000000000E+02 0.  0.
   -5000001    1    1    2    0    0  0.50024767236E+02 -0.31996564498E+02 -0.43108068679E+01  0.97333655703E+02  0.77000000000E+02 0.  0.
<mgrwt>
<rscale>  0 0.21936060E+03</rscale>
<asrwt>0</asrwt>
<pdfrwt beam="1">  1        2 0.26631147E-01 0.21936060E+03</pdfrwt>
<pdfrwt beam="2">  1       -2 0.10691550E-01 0.21936060E+03</pdfrwt>
<totfact> 0.11637846E+04</totfact>
</mgrwt>
</event>
<event>
 4    1  0.2489209E-004  0.2439093E+03  0.7818608E-02  0.1117216E+00
          2   -1    0    0  501    0  0.00000000000E+00  0.00000000000E+00  0.27110822037E+03  0.27110822038E+03  0.25500000000E-02 0.  1.
         -2   -1    0    0    0  501 -0.00000000000E+00 -0.00000000000E+00 -0.54859758637E+02  0.54859758696E+02  0.25500000000E-02 0. -1.
    5000001    1    1    2    0    0  0.14899773868E+02  0.85894268245E+02  0.15712049020E+03  0.19548830405E+03  0.77000000000E+02 0.  0.
   -5000001    1    1    2    0    0 -0.14899773868E+02 -0.85894268245E+02  0.59127971536E+02  0.13047967503E+03  0.77000000000E+02 0.  0.
<mgrwt>
<rscale>  0 0.24390926E+03</rscale>
<asrwt>0</asrwt>
<pdfrwt beam="1">  1        2 0.41708957E-01 0.24390926E+03</pdfrwt>
<pdfrwt beam="2">  1       -2 0.84399629E-02 0.24390926E+03</pdfrwt>
<totfact> 0.10440706E+04</totfact>
</mgrwt>
</event>
<event>
 4    1  0.2489209E-004  0.2008793E+03  0.7818608E-02  0.1148999E+00
          2   -1    0    0  501    0  0.00000000000E+00  0.00000000000E+00  0.12392623566E+04  0.12392623566E+04  0.25500000000E-02 0.  1.
         -2   -1    0    0    0  501 -0.00000000000E+00 -0.00000000000E+00 -0.81404255802E+01  0.81404259796E+01  0.25500000000E-02 0. -1.
    5000001    1    1    2    0    0 -0.56819105333E+02  0.24089612487E+02  0.73180093305E+03  0.73842421803E+03  0.77000000000E+02 0.  0.
   -5000001    1    1    2    0    0  0.56819105333E+02 -0.24089612487E+02  0.49932099801E+03  0.50897856459E+03  0.77000000000E+02 0.  0.
<mgrwt>
<rscale>  0 0.20087930E+03</rscale>
<asrwt>0</asrwt>
<pdfrwt beam="1">  1        2 0.19065583E+00 0.20087930E+03</pdfrwt>
<pdfrwt beam="2">  1       -2 0.12523727E-02 0.20087930E+03</pdfrwt>
<totfact> 0.28589925E+04</totfact>
</mgrwt>
</event>
<event>
 4    1  0.2489209E-004  0.1993359E+03  0.7818608E-02  0.1150301E+00
          2   -1    0    0  501    0  0.00000000000E+00  0.00000000000E+00  0.76475398694E+03  0.76475398694E+03  0.25500000000E-02 0.  1.
         -2   -1    0    0    0  501 -0.00000000000E+00 -0.00000000000E+00 -0.12989406611E+02  0.12989406862E+02  0.25500000000E-02 0. -1.
    5000001    1    1    2    0    0 -0.44774442526E+02  0.35493786949E+02  0.48202936410E+03  0.49147316048E+03  0.77000000000E+02 0.  0.
   -5000001    1    1    2    0    0  0.44774442526E+02 -0.35493786949E+02  0.26973521622E+03  0.28627023332E+03  0.77000000000E+02 0.  0.
<mgrwt>
<rscale>  0 0.19933590E+03</rscale>
<asrwt>0</asrwt>
<pdfrwt beam="1">  1        2 0.11765449E+00 0.19933590E+03</pdfrwt>
<pdfrwt beam="2">  1       -2 0.19983698E-02 0.19933590E+03</pdfrwt>
<totfact> 0.28306640E+04</totfact>
</mgrwt>
</event>
<event>
 4    1  0.2489209E-004  0.2036915E+03  0.7818608E-02  0.1146661E+00
         -2   -1    0    0    0  501 -0.00000000000E+00  0.00000000000E+00  0.44910596447E+01  0.44910603686E+01  0.25500000000E-02 0. -1.
          2   -1    0    0  501    0  0.00000000000E+00 -0.00000000000E+00 -0.23096016115E+04  0.23096016115E+04  0.25500000000E-02 0.  1.
    5000001    1    1    2    0    0 -0.48705866271E+02 -0.45500813014E+02 -0.11637676027E+04  0.11682151422E+04  0.77000000000E+02 0.  0.
   -5000001    1    1    2    0    0  0.48705866271E+02  0.45500813014E+02 -0.11413429492E+04  0.11458775298E+04  0.77000000000E+02 0.  0.
<mgrwt>
<rscale>  0 0.20369153E+03</rscale>
<asrwt>0</asrwt>
<pdfrwt beam="1">  1        2 0.35532238E+00 0.20369153E+03</pdfrwt>
<pdfrwt beam="2">  1       -2 0.69093415E-03 0.20369153E+03</pdfrwt>
<totfact> 0.18386629E+04</totfact>
</mgrwt>
</event>
<event>
 4    1  0.2489209E-004  0.2341201E+03  0.7818608E-02  0.1123773E+00
          2   -1    0    0  501    0  0.00000000000E+00  0.00000000000E+00  0.15203717619E+04  0.15203717619E+04  0.25500000000E-02 0.  1.
         -2   -1    0    0    0  501 -0.00000000000E+00 -0.00000000000E+00 -0.90129658426E+01  0.90129662034E+01  0.25500000000E-02 0. -1.
    5000001    1    1    2    0    0 -0.81579922066E+02  0.28189934394E+02  0.63807610535E+03  0.64847519020E+03  0.77000000000E+02 0.  0.
   -5000001    1    1    2    0    0  0.81579922066E+02 -0.28189934394E+02  0.87328269073E+03  0.88090953793E+03  0.77000000000E+02 0.  0.
<mgrwt>
<rscale>  0 0.23412013E+03</rscale>
<asrwt>0</asrwt>
<pdfrwt beam="1">  1        2 0.23390344E+00 0.23412013E+03</pdfrwt>
<pdfrwt beam="2">  1       -2 0.13866096E-02 0.23412013E+03</pdfrwt>
<totfact> 0.17500860E+04</totfact>
</mgrwt>
</event>
<event>
 4    1  0.2489209E-004  0.3420528E+03  0.7818608E-02  0.1065925E+00
         -2   -1    0    0    0  501 -0.00000000000E+00  0.00000000000E+00  0.12489254327E+02  0.12489254587E+02  0.25500000000E-02 0. -1.
          2   -1    0    0  501    0  0.00000000000E+00 -0.00000000000E+00 -0.23420159466E+04  0.23420159466E+04  0.25500000000E-02 0.  1.
    5000001    1    1    2    0    0  0.32029329600E+02 -0.11758873684E+03 -0.53133421361E+03  0.55054340023E+03  0.77000000000E+02 0.  0.
   -5000001    1    1    2    0    0 -0.32029329600E+02  0.11758873684E+03 -0.17981924786E+04  0.18039618009E+04  0.77000000000E+02 0.  0.
<mgrwt>
<rscale>  0 0.34205282E+03</rscale>
<asrwt>0</asrwt>
<pdfrwt beam="1">  1        2 0.36030980E+00 0.34205282E+03</pdfrwt>
<pdfrwt beam="2">  1       -2 0.19214256E-02 0.34205282E+03</pdfrwt>
<totfact> 0.39973296E+03</totfact>
</mgrwt>
</event>
<event>
 4    1  0.2489209E-004  0.1567129E+03  0.7818608E-02  0.1192459E+00
         -2   -1    0    0    0  501 -0.00000000000E+00  0.00000000000E+00  0.17483196538E+03  0.17483196539E+03  0.25500000000E-02 0. -1.
          2   -1    0    0  501    0  0.00000000000E+00 -0.00000000000E+00 -0.35117889148E+02  0.35117889241E+02  0.25500000000E-02 0.  1.
    5000001    1    1    2    0    0  0.13289211871E+02  0.55934429527E+01  0.72114692832E+02  0.10647731532E+03  0.77000000000E+02 0.  0.
   -5000001    1    1    2    0    0 -0.13289211871E+02 -0.55934429527E+01  0.67599383395E+02  0.10347253931E+03  0.77000000000E+02 0.  0.
<mgrwt>
<rscale>  0 0.15671285E+03</rscale>
<asrwt>0</asrwt>
<pdfrwt beam="1">  1        2 0.54027523E-02 0.15671285E+03</pdfrwt>
<pdfrwt beam="2">  1       -2 0.26897225E-01 0.15671285E+03</pdfrwt>
<totfact> 0.16657499E+04</totfact>
</mgrwt>
</event>
<event>
 4    1  0.2489209E-004  0.2366007E+03  0.7818608E-02  0.1122078E+00
         -2   -1    0    0    0  501 -0.00000000000E+00  0.00000000000E+00  0.82655527947E+01  0.82655531880E+01  0.25500000000E-02 0.  1.
          2   -1    0    0  501    0  0.00000000000E+00 -0.00000000000E+00 -0.16931686423E+04  0.16931686423E+04  0.25500000000E-02 0. -1.
    5000001    1    1    2    0    0  0.82826670472E+02 -0.31675506579E+02 -0.74014981468E+03  0.74940932955E+03  0.77000000000E+02 0.  0.
   -5000001    1    1    2    0    0 -0.82826670472E+02  0.31675506579E+02 -0.94475327482E+03  0.95202486593E+03  0.77000000000E+02 0.  0.
<mgrwt>
<rscale>  0 0.23660072E+03</rscale>
<asrwt>0</asrwt>
<pdfrwt beam="1">  1        2 0.26048721E+00 0.23660072E+03</pdfrwt>
<pdfrwt beam="2">  1       -2 0.12716249E-02 0.23660072E+03</pdfrwt>
<totfact> 0.16099879E+04</totfact>
</mgrwt>
</event>
<event>
 4    1  0.2489209E-004  0.3913173E+03  0.7818608E-02  0.1046828E+00
         -2   -1    0    0    0  501 -0.00000000000E+00  0.00000000000E+00  0.29266298992E+02  0.29266299103E+02  0.25500000000E-02 0. -1.
          2   -1    0    0  501    0  0.00000000000E+00 -0.00000000000E+00 -0.13080676707E+04  0.13080676707E+04  0.25500000000E-02 0.  1.
    5000001    1    1    2    0    0 -0.13277804085E+03 -0.12030870854E+03 -0.69333971078E+03  0.72024519993E+03  0.77000000000E+02 0.  0.
   -5000001    1    1    2    0    0  0.13277804085E+03  0.12030870854E+03 -0.58546166092E+03  0.61708876987E+03  0.77000000000E+02 0.  0.
<mgrwt>
<rscale>  0 0.39131726E+03</rscale>
<asrwt>0</asrwt>
<pdfrwt beam="1">  1        2 0.20124113E+00 0.39131726E+03</pdfrwt>
<pdfrwt beam="2">  1       -2 0.45025086E-02 0.39131726E+03</pdfrwt>
<totfact> 0.40007736E+03</totfact>
</mgrwt>
</event>
<event>
 4    1  0.2489209E-004  0.3868797E+03  0.7818608E-02  0.1048420E+00
         -2   -1    0    0    0  501 -0.00000000000E+00  0.00000000000E+00  0.15295355279E+02  0.15295355492E+02  0.25500000000E-02 0. -1.
          2   -1    0    0  501    0  0.00000000000E+00 -0.00000000000E+00 -0.24464274225E+04  0.24464274225E+04  0.25500000000E-02 0.  1.
    5000001    1    1    2    0    0  0.49983419775E+02  0.15842477436E+03 -0.16125911414E+04  0.16229528461E+04  0.77000000000E+02 0.  0.
   -5000001    1    1    2    0    0 -0.49983419775E+02 -0.15842477436E+03 -0.81854092578E+03  0.83876993184E+03  0.77000000000E+02 0.  0.
<mgrwt>
<rscale>  0 0.38687971E+03</rscale>
<asrwt>0</asrwt>
<pdfrwt beam="1">  1        2 0.37637314E+00 0.38687971E+03</pdfrwt>
<pdfrwt beam="2">  1       -2 0.23531335E-02 0.38687971E+03</pdfrwt>
<totfact> 0.25867635E+03</totfact>
</mgrwt>
</event>
<event>
 4    1  0.2489209E-004  0.2199897E+03  0.7818608E-02  0.1133891E+00
         -2   -1    0    0    0  501 -0.00000000000E+00  0.00000000000E+00  0.19546411873E+02  0.19546412039E+02  0.25500000000E-02 0. -1.
          2   -1    0    0  501    0  0.00000000000E+00 -0.00000000000E+00 -0.61898150588E+03  0.61898150589E+03  0.25500000000E-02 0.  1.
    5000001    1    1    2    0    0 -0.84508689413E+01 -0.77947890275E+02 -0.31350893634E+03  0.33221099312E+03  0.77000000000E+02 0.  0.
   -5000001    1    1    2    0    0  0.84508689413E+01  0.77947890275E+02 -0.28592615767E+03  0.30631692481E+03  0.77000000000E+02 0.  0.
<mgrwt>
<rscale>  0 0.21998970E+03</rscale>
<asrwt>0</asrwt>
<pdfrwt beam="1">  1        2 0.95227909E-01 0.21998970E+03</pdfrwt>
<pdfrwt beam="2">  1       -2 0.30071408E-02 0.21998970E+03</pdfrwt>
<totfact> 0.20117291E+04</totfact>
</mgrwt>
</event>
<event>
 4    1  0.2489209E-004  0.5743607E+03  0.7818608E-02  0.9960075E-01
         -2   -1    0    0    0  501 -0.00000000000E+00  0.00000000000E+00  0.16558297485E+03  0.16558297487E+03  0.25500000000E-02 0. -1.
          2   -1    0    0  501    0  0.00000000000E+00 -0.00000000000E+00 -0.49807389616E+03  0.49807389616E+03  0.25500000000E-02 0.  1.
    5000001    1    1    2    0    0 -0.15878171505E+03 -0.18189411647E+03 -0.32232576965E+03  0.41002439491E+03  0.77000000000E+02 0.  0.
   -5000001    1    1    2    0    0  0.15878171505E+03  0.18189411647E+03 -0.10165151658E+02  0.25363247613E+03  0.77000000000E+02 0.  0.
<mgrwt>
<rscale>  0 0.57436071E+03</rscale>
<asrwt>0</asrwt>
<pdfrwt beam="1">  1        2 0.76626752E-01 0.57436071E+03</pdfrwt>
<pdfrwt beam="2">  1       -2 0.25474304E-01 0.57436071E+03</pdfrwt>
<totfact> 0.86041935E+02</totfact>
</mgrwt>
</event>
<event>
 4    1  0.2489209E-004  0.2449465E+03  0.7818608E-02  0.1116541E+00
          2   -1    0    0  501    0  0.00000000000E+00  0.00000000000E+00  0.30628061208E+03  0.30628061209E+03  0.25500000000E-02 0.  1.
         -2   -1    0    0    0  501 -0.00000000000E+00 -0.00000000000E+00 -0.48973718989E+02  0.48973719056E+02  0.25500000000E-02 0. -1.
    5000001    1    1    2    0    0 -0.13147732490E+01 -0.66352019358E+02  0.22772710780E+03  0.24938515339E+03  0.77000000000E+02 0.  0.
   -5000001    1    1    2    0    0  0.13147732490E+01  0.66352019358E+02  0.29579785287E+02  0.10586917776E+03  0.77000000000E+02 0.  0.
<mgrwt>
<rscale>  0 0.24494653E+03</rscale>
<asrwt>0</asrwt>
<pdfrwt beam="1">  1        2 0.47120094E-01 0.24494653E+03</pdfrwt>
<pdfrwt beam="2">  1       -2 0.75344184E-02 0.24494653E+03</pdfrwt>
<totfact> 0.10935070E+04</totfact>
</mgrwt>
</event>
<event>
 4    1  0.2489209E-004  0.2182859E+03  0.7818608E-02  0.1135168E+00
         -2   -1    0    0    0  501 -0.00000000000E+00  0.00000000000E+00  0.88025267714E+01  0.88025271407E+01  0.25500000000E-02 0. -1.
          2   -1    0    0  501    0  0.00000000000E+00 -0.00000000000E+00 -0.13532680269E+04  0.13532680269E+04  0.25500000000E-02 0.  1.
    5000001    1    1    2    0    0  0.48167003951E+02  0.58850050996E+02 -0.58403441957E+03  0.59397692886E+03  0.77000000000E+02 0.  0.
   -5000001    1    1    2    0    0 -0.48167003951E+02 -0.58850050996E+02 -0.76043108054E+03  0.76809362517E+03  0.77000000000E+02 0.  0.
<mgrwt>
<rscale>  0 0.21828585E+03</rscale>
<asrwt>0</asrwt>
<pdfrwt beam="1">  1        2 0.20819492E+00 0.21828585E+03</pdfrwt>
<pdfrwt beam="2">  1       -2 0.13542360E-02 0.21828585E+03</pdfrwt>
<totfact> 0.22198267E+04</totfact>
</mgrwt>
</event>
<event>
 4    1  0.2489209E-004  0.4684238E+03  0.7818608E-02  0.1022366E+00
          2   -1    0    0  501    0  0.00000000000E+00  0.00000000000E+00  0.12589266201E+04  0.12589266201E+04  0.25500000000E-02 0.  1.
         -2   -1    0    0    0  501 -0.00000000000E+00 -0.00000000000E+00 -0.43572994614E+02  0.43572994689E+02  0.25500000000E-02 0. -1.
    5000001    1    1    2    0    0  0.19394788819E+03  0.10573289807E+03  0.57585455831E+03  0.62155667593E+03  0.77000000000E+02 0.  0.
   -5000001    1    1    2    0    0 -0.19394788819E+03 -0.10573289807E+03  0.63949906721E+03  0.68094293889E+03  0.77000000000E+02 0.  0.
<mgrwt>
<rscale>  0 0.46842375E+03</rscale>
<asrwt>0</asrwt>
<pdfrwt beam="1">  1        2 0.19368101E+00 0.46842375E+03</pdfrwt>
<pdfrwt beam="2">  1       -2 0.67035378E-02 0.46842375E+03</pdfrwt>
<totfact> 0.23038378E+03</totfact>
</mgrwt>
</event>
<event>
 4    1  0.2489209E-004  0.1729991E+03  0.7818608E-02  0.1174756E+00
         -2   -1    0    0    0  501 -0.00000000000E+00  0.00000000000E+00  0.64120330801E+01  0.64120335872E+01  0.25500000000E-02 0. -1.
          2   -1    0    0  501    0  0.00000000000E+00 -0.00000000000E+00 -0.11668959105E+04  0.11668959105E+04  0.25500000000E-02 0.  1.
    5000001    1    1    2    0    0  0.30982891701E+02  0.16186797842E+02 -0.45680969431E+03  0.46457082218E+03  0.77000000000E+02 0.  0.
   -5000001    1    1    2    0    0 -0.30982891701E+02 -0.16186797842E+02 -0.70367418314E+03  0.70873712194E+03  0.77000000000E+02 0.  0.
<mgrwt>
<rscale>  0 0.17299914E+03</rscale>
<asrwt>0</asrwt>
<pdfrwt beam="1">  1        2 0.17952228E+00 0.17299914E+03</pdfrwt>
<pdfrwt beam="2">  1       -2 0.98646759E-03 0.17299914E+03</pdfrwt>
<totfact> 0.43830257E+04</totfact>
</mgrwt>
</event>
<event>
 4    1  0.2489209E-004  0.2322011E+03  0.7818608E-02  0.1125100E+00
         -2   -1    0    0    0  501 -0.00000000000E+00  0.00000000000E+00  0.31125727951E+02  0.31125728056E+02  0.25500000000E-02 0. -1.
          2   -1    0    0  501    0  0.00000000000E+00 -0.00000000000E+00 -0.43306111057E+03  0.43306111058E+03  0.25500000000E-02 0.  1.
    5000001    1    1    2    0    0  0.58250694085E+02  0.63827239686E+02 -0.18272431451E+03  0.21629663659E+03  0.77000000000E+02 0.  0.
   -5000001    1    1    2    0    0 -0.58250694085E+02 -0.63827239686E+02 -0.21921106810E+03  0.24789020204E+03  0.77000000000E+02 0.  0.
<mgrwt>
<rscale>  0 0.23220114E+03</rscale>
<asrwt>0</asrwt>
<pdfrwt beam="1">  1        2 0.66624782E-01 0.23220114E+03</pdfrwt>
<pdfrwt beam="2">  1       -2 0.47885738E-02 0.23220114E+03</pdfrwt>
<totfact> 0.15022318E+04</totfact>
</mgrwt>
</event>
<event>
 4    1  0.2489209E-004  0.2548184E+03  0.7818608E-02  0.1110297E+00
          2   -1    0    0  501    0  0.00000000000E+00  0.00000000000E+00  0.84737248413E+02  0.84737248451E+02  0.25500000000E-02 0.  1.
         -2   -1    0    0    0  501 -0.00000000000E+00 -0.00000000000E+00 -0.19156984050E+03  0.19156984052E+03  0.25500000000E-02 0. -1.
    5000001    1    1    2    0    0 -0.83969106507E+02 -0.34261844334E+02 -0.39701996931E+01  0.11903548761E+03  0.77000000000E+02 0.  0.
   -5000001    1    1    2    0    0  0.83969106507E+02  0.34261844334E+02 -0.10286239239E+03  0.15727160136E+03  0.77000000000E+02 0.  0.
<mgrwt>
<rscale>  0 0.25481838E+03</rscale>
<asrwt>0</asrwt>
<pdfrwt beam="1">  1        2 0.13036500E-01 0.25481838E+03</pdfrwt>
<pdfrwt beam="2">  1       -2 0.29472283E-01 0.25481838E+03</pdfrwt>
<totfact> 0.48267946E+03</totfact>
</mgrwt>
</event>
<event>
 4    1  0.2489209E-004  0.2478656E+03  0.7818608E-02  0.1114661E+00
          2   -1    0    0  501    0  0.00000000000E+00  0.00000000000E+00  0.53563549054E+02  0.53563549114E+02  0.25500000000E-02 0. -1.
         -2   -1    0    0    0  501 -0.00000000000E+00 -0.00000000000E+00 -0.28674983037E+03  0.28674983039E+03  0.25500000000E-02 0.  1.
    5000001    1    1    2    0    0  0.74838264882E+02 -0.61437634202E+02 -0.12677445771E+03  0.17713303451E+03  0.77000000000E+02 0.  0.
   -5000001    1    1    2    0    0 -0.74838264882E+02  0.61437634202E+02 -0.10641182361E+03  0.16318034499E+03  0.77000000000E+02 0.  0.
<mgrwt>
<rscale>  0 0.24786560E+03</rscale>
<asrwt>0</asrwt>
<pdfrwt beam="1">  1        2 0.82405462E-02 0.24786560E+03</pdfrwt>
<pdfrwt beam="2">  1       -2 0.44115358E-01 0.24786560E+03</pdfrwt>
<totfact> 0.39913684E+03</totfact>
</mgrwt>
</event>
<event>
 4    1  0.2489209E-004  0.4173847E+03  0.7818608E-02  0.1037921E+00
         -2   -1    0    0    0  501 -0.00000000000E+00  0.00000000000E+00  0.31122560456E+02  0.31122560560E+02  0.25500000000E-02 0. -1.
          2   -1    0    0  501    0  0.00000000000E+00 -0.00000000000E+00 -0.13993865825E+04  0.13993865825E+04  0.25500000000E-02 0.  1.
    5000001    1    1    2    0    0 -0.18512091091E+03 -0.27807290758E+02 -0.85823481604E+03  0.88178171706E+03  0.77000000000E+02 0.  0.
   -5000001    1    1    2    0    0  0.18512091091E+03  0.27807290758E+02 -0.51002920602E+03  0.54872742602E+03  0.77000000000E+02 0.  0.
<mgrwt>
<rscale>  0 0.41738468E+03</rscale>
<asrwt>0</asrwt>
<pdfrwt beam="1">  1        2 0.21529019E+00 0.41738468E+03</pdfrwt>
<pdfrwt beam="2">  1       -2 0.47880873E-02 0.41738468E+03</pdfrwt>
<totfact> 0.32387050E+03</totfact>
</mgrwt>
</event>
<event>
 4    1  0.2489209E-004  0.2913894E+03  0.7818608E-02  0.1089626E+00
          2   -1    0    0  501    0  0.00000000000E+00  0.00000000000E+00  0.12390418712E+04  0.12390418712E+04  0.25500000000E-02 0.  1.
         -2   -1    0    0    0  501 -0.00000000000E+00 -0.00000000000E+00 -0.17131745045E+02  0.17131745235E+02  0.25500000000E-02 0. -1.
    5000001    1    1    2    0    0  0.39096061547E+02  0.10643462823E+03  0.82395045860E+03  0.83527252460E+03  0.77000000000E+02 0.  0.
   -5000001    1    1    2    0    0 -0.39096061547E+02 -0.10643462823E+03  0.39795966757E+03  0.42090109186E+03  0.77000000000E+02 0.  0.
<mgrwt>
<rscale>  0 0.29138943E+03</rscale>
<asrwt>0</asrwt>
<pdfrwt beam="1">  1        2 0.19062184E+00 0.29138943E+03</pdfrwt>
<pdfrwt beam="2">  1       -2 0.26356529E-02 0.29138943E+03</pdfrwt>
<totfact> 0.97604588E+03</totfact>
</mgrwt>
</event>
<event>
 4    1  0.2489209E-004  0.6310530E+03  0.7818608E-02  0.9842996E-01
          2   -1    0    0  501    0  0.00000000000E+00  0.00000000000E+00  0.10695581555E+04  0.10695581555E+04  0.25500000000E-02 0. -1.
         -2   -1    0    0    0  501 -0.00000000000E+00 -0.00000000000E+00 -0.93082344146E+02  0.93082344181E+02  0.25500000000E-02 0.  1.
    5000001    1    1    2    0    0  0.22279143260E+03 -0.15090919394E+03  0.21986687480E+03  0.35592140971E+03  0.77000000000E+02 0.  0.
   -5000001    1    1    2    0    0 -0.22279143260E+03  0.15090919394E+03  0.75660893658E+03  0.80671908999E+03  0.77000000000E+02 0.  0.
<mgrwt>
<rscale>  0 0.63105303E+03</rscale>
<asrwt>0</asrwt>
<pdfrwt beam="1">  1        2 0.16454741E+00 0.63105303E+03</pdfrwt>
<pdfrwt beam="2">  1       -2 0.14320360E-01 0.63105303E+03</pdfrwt>
<totfact> 0.86992075E+02</totfact>
</mgrwt>
</event>
<event>
 4    1  0.2489209E-004  0.4330679E+03  0.7818608E-02  0.1032895E+00
         -2   -1    0    0    0  501 -0.00000000000E+00  0.00000000000E+00  0.22588927128E+02  0.22588927272E+02  0.25500000000E-02 0. -1.
          2   -1    0    0  501    0  0.00000000000E+00 -0.00000000000E+00 -0.20756608939E+04  0.20756608939E+04  0.25500000000E-02 0.  1.
    5000001    1    1    2    0    0  0.12197547326E+03 -0.10006851842E+03 -0.16406629425E+04  0.16500289741E+04  0.77000000000E+02 0.  0.
   -5000001    1    1    2    0    0 -0.12197547326E+03  0.10006851842E+03 -0.41240902426E+03  0.44822084707E+03  0.77000000000E+02 0.  0.
<mgrwt>
<rscale>  0 0.43306791E+03</rscale>
<asrwt>0</asrwt>
<pdfrwt beam="1">  1        2 0.31933230E+00 0.43306791E+03</pdfrwt>
<pdfrwt beam="2">  1       -2 0.34752212E-02 0.43306791E+03</pdfrwt>
<totfact> 0.22817218E+03</totfact>
</mgrwt>
</event>
<event>
 4    1  0.2489209E-004  0.1972929E+03  0.7818608E-02  0.1152043E+00
         -2   -1    0    0    0  501 -0.00000000000E+00  0.00000000000E+00  0.51283127855E+01  0.51283134195E+01  0.25500000000E-02 0. -1.
          2   -1    0    0  501    0  0.00000000000E+00 -0.00000000000E+00 -0.18975288676E+04  0.18975288676E+04  0.25500000000E-02 0.  1.
    5000001    1    1    2    0    0 -0.72585810284E+01  0.53720165988E+02 -0.66280010881E+03  0.66945614305E+03  0.77000000000E+02 0.  0.
   -5000001    1    1    2    0    0  0.72585810284E+01 -0.53720165988E+02 -0.12296004460E+04  0.12332010380E+04  0.77000000000E+02 0.  0.
<mgrwt>
<rscale>  0 0.19729290E+03</rscale>
<asrwt>0</asrwt>
<pdfrwt beam="1">  1        2 0.29192696E+00 0.19729290E+03</pdfrwt>
<pdfrwt beam="2">  1       -2 0.78897276E-03 0.19729290E+03</pdfrwt>
<totfact> 0.24938317E+04</totfact>
</mgrwt>
</event>
<event>
 4    1  0.2489209E-004  0.1789191E+03  0.7818608E-02  0.1168853E+00
         -2   -1    0    0    0  501 -0.00000000000E+00  0.00000000000E+00  0.61909414980E+01  0.61909420231E+01  0.25500000000E-02 0. -1.
          2   -1    0    0  501    0  0.00000000000E+00 -0.00000000000E+00 -0.12926967623E+04  0.12926967623E+04  0.25500000000E-02 0.  1.
    5000001    1    1    2    0    0 -0.40375763663E+02 -0.44015266803E+01 -0.79281458974E+03  0.79757980756E+03  0.77000000000E+02 0.  0.
   -5000001    1    1    2    0    0  0.40375763663E+02  0.44015266803E+01 -0.49369123106E+03  0.50130789676E+03  0.77000000000E+02 0.  0.
<mgrwt>
<rscale>  0 0.17891909E+03</rscale>
<asrwt>0</asrwt>
<pdfrwt beam="1">  1        2 0.19887621E+00 0.17891909E+03</pdfrwt>
<pdfrwt beam="2">  1       -2 0.95245361E-03 0.17891909E+03</pdfrwt>
<totfact> 0.39352895E+04</totfact>
</mgrwt>
</event>
<event>
 4    1  0.2489209E-004  0.3234938E+03  0.7818608E-02  0.1074053E+00
          2   -1    0    0  501    0  0.00000000000E+00  0.00000000000E+00  0.24235994164E+04  0.24235994164E+04  0.25500000000E-02 0.  1.
         -2   -1    0    0    0  501 -0.00000000000E+00 -0.00000000000E+00 -0.10794709407E+02  0.10794709708E+02  0.25500000000E-02 0. -1.
    5000001    1    1    2    0    0  0.26697503974E+02 -0.10795771822E+03  0.53900247381E+03  0.55571601778E+03  0.77000000000E+02 0.  0.
   -5000001    1    1    2    0    0 -0.26697503974E+02  0.10795771822E+03  0.18738022332E+04  0.18786781083E+04  0.77000000000E+02 0.  0.
<mgrwt>
<rscale>  0 0.32349375E+03</rscale>
<asrwt>0</asrwt>
<pdfrwt beam="1">  1        2 0.37286142E+00 0.32349375E+03</pdfrwt>
<pdfrwt beam="2">  1       -2 0.16607247E-02 0.32349375E+03</pdfrwt>
<totfact> 0.44789818E+03</totfact>
</mgrwt>
</event>
<event>
 4    1  0.2489209E-004  0.2191489E+03  0.7818608E-02  0.1134519E+00
         -2   -1    0    0    0  501 -0.00000000000E+00  0.00000000000E+00  0.26072309746E+02  0.26072309871E+02  0.25500000000E-02 0. -1.
          2   -1    0    0  501    0  0.00000000000E+00 -0.00000000000E+00 -0.46051003685E+03  0.46051003686E+03  0.25500000000E-02 0.  1.
    5000001    1    1    2    0    0 -0.56560190881E+02 -0.16611002760E+02 -0.10394777560E+03  0.14215878677E+03  0.77000000000E+02 0.  0.
   -5000001    1    1    2    0    0  0.56560190881E+02  0.16611002760E+02 -0.33048995151E+03  0.34442355996E+03  0.77000000000E+02 0.  0.
<mgrwt>
<rscale>  0 0.21914890E+03</rscale>
<asrwt>0</asrwt>
<pdfrwt beam="1">  1        2 0.70847692E-01 0.21914890E+03</pdfrwt>
<pdfrwt beam="2">  1       -2 0.40111249E-02 0.21914890E+03</pdfrwt>
<totfact> 0.18273048E+04</totfact>
</mgrwt>
</event>
<event>
 4    1  0.2489209E-004  0.2767206E+03  0.7818608E-02  0.1097494E+00
          2   -1    0    0  501    0  0.00000000000E+00  0.00000000000E+00  0.36723613607E+03  0.36723613608E+03  0.25500000000E-02 0.  1.
         -2   -1    0    0    0  501 -0.00000000000E+00 -0.00000000000E+00 -0.52128773378E+02  0.52128773440E+02  0.25500000000E-02 0. -1.
    5000001    1    1    2    0    0  0.50876023395E+01 -0.82281043656E+02  0.27896744762E+03  0.30091176560E+03  0.77000000000E+02 0.  0.
   -5000001    1    1    2    0    0 -0.50876023395E+01  0.82281043656E+02  0.36139915066E+02  0.11845314392E+03  0.77000000000E+02 0.  0.
<mgrwt>
<rscale>  0 0.27672058E+03</rscale>
<asrwt>0</asrwt>
<pdfrwt beam="1">  1        2 0.56497865E-01 0.27672058E+03</pdfrwt>
<pdfrwt beam="2">  1       -2 0.80198116E-02 0.27672058E+03</pdfrwt>
<totfact> 0.82037036E+03</totfact>
</mgrwt>
</event>
<event>
 4    1  0.2489209E-004  0.2222324E+03  0.7818608E-02  0.1132230E+00
          2   -1    0    0  501    0  0.00000000000E+00  0.00000000000E+00  0.16489649732E+04  0.16489649732E+04  0.25500000000E-02 0. -1.
         -2   -1    0    0    0  501 -0.00000000000E+00 -0.00000000000E+00 -0.74876119937E+01  0.74876124279E+01  0.25500000000E-02 0.  1.
    5000001    1    1    2    0    0  0.18533727846E+02 -0.77828459440E+02  0.85150908832E+03  0.85871851945E+03  0.77000000000E+02 0.  0.
   -5000001    1    1    2    0    0 -0.18533727846E+02  0.77828459440E+02  0.78996827293E+03  0.79773406622E+03  0.77000000000E+02 0.  0.
<mgrwt>
<rscale>  0 0.22223240E+03</rscale>
<asrwt>0</asrwt>
<pdfrwt beam="1">  1        2 0.25368726E+00 0.22223240E+03</pdfrwt>
<pdfrwt beam="2">  1       -2 0.11519388E-02 0.22223240E+03</pdfrwt>
<totfact> 0.19557098E+04</totfact>
</mgrwt>
</event>
<event>
 4    1  0.2489209E-004  0.2906166E+03  0.7818608E-02  0.1090028E+00
         -2   -1    0    0    0  501 -0.00000000000E+00  0.00000000000E+00  0.58416882610E+01  0.58416888176E+01  0.25500000000E-02 0. -1.
          2   -1    0    0  501    0  0.00000000000E+00 -0.00000000000E+00 -0.36144529319E+04  0.36144529319E+04  0.25500000000E-02 0.  1.
    5000001    1    1    2    0    0 -0.11239591138E+03  0.50476366388E+02 -0.18316090042E+04  0.18373625796E+04  0.77000000000E+02 0.  0.
   -5000001    1    1    2    0    0  0.11239591138E+03 -0.50476366388E+02 -0.17770022394E+04  0.17829320412E+04  0.77000000000E+02 0.  0.
<mgrwt>
<rscale>  0 0.29061664E+03</rscale>
<asrwt>0</asrwt>
<pdfrwt beam="1">  1        2 0.55606789E+00 0.29061664E+03</pdfrwt>
<pdfrwt beam="2">  1       -2 0.89872420E-03 0.29061664E+03</pdfrwt>
<totfact> 0.21098142E+03</totfact>
</mgrwt>
</event>
<event>
 4    1  0.2489209E-004  0.4359225E+03  0.7818608E-02  0.1032005E+00
         -2   -1    0    0    0  501 -0.00000000000E+00  0.00000000000E+00  0.18730765880E+02  0.18730766053E+02  0.25500000000E-02 0. -1.
          2   -1    0    0  501    0  0.00000000000E+00 -0.00000000000E+00 -0.25363145099E+04  0.25363145099E+04  0.25500000000E-02 0.  1.
    5000001    1    1    2    0    0 -0.15920009624E+03 -0.10881295529E+03 -0.87030266236E+03  0.89472937472E+03  0.77000000000E+02 0.  0.
   -5000001    1    1    2    0    0  0.15920009624E+03  0.10881295529E+03 -0.16472810817E+04  0.16603159012E+04  0.77000000000E+02 0.  0.
<mgrwt>
<rscale>  0 0.43592253E+03</rscale>
<asrwt>0</asrwt>
<pdfrwt beam="1">  1        2 0.39020196E+00 0.43592253E+03</pdfrwt>
<pdfrwt beam="2">  1       -2 0.28816583E-02 0.43592253E+03</pdfrwt>
<totfact> 0.16955107E+03</totfact>
</mgrwt>
</event>
<event>
 4    1  0.2489209E-004  0.3157867E+03  0.7818608E-02  0.1077605E+00
         -2   -1    0    0    0  501 -0.00000000000E+00  0.00000000000E+00  0.35299045771E+02  0.35299045863E+02  0.25500000000E-02 0. -1.
          2   -1    0    0  501    0  0.00000000000E+00 -0.00000000000E+00 -0.70626011450E+03  0.70626011451E+03  0.25500000000E-02 0.  1.
    5000001    1    1    2    0    0  0.44269501562E+02 -0.98435883082E+02 -0.53683055171E+03  0.55296062527E+03  0.77000000000E+02 0.  0.
   -5000001    1    1    2    0    0 -0.44269501562E+02  0.98435883082E+02 -0.13413051702E+03  0.18859853510E+03  0.77000000000E+02 0.  0.
<mgrwt>
<rscale>  0 0.31578669E+03</rscale>
<asrwt>0</asrwt>
<pdfrwt beam="1">  1        2 0.10865539E+00 0.31578669E+03</pdfrwt>
<pdfrwt beam="2">  1       -2 0.54306229E-02 0.31578669E+03</pdfrwt>
<totfact> 0.71697194E+03</totfact>
</mgrwt>
</event>
<event>
 4    1  0.2489209E-004  0.2650637E+03  0.7818608E-02  0.1104138E+00
         -2   -1    0    0    0  501 -0.00000000000E+00  0.00000000000E+00  0.13177664061E+02  0.13177664308E+02  0.25500000000E-02 0. -1.
          2   -1    0    0  501    0  0.00000000000E+00 -0.00000000000E+00 -0.13329139824E+04  0.13329139824E+04  0.25500000000E-02 0.  1.
    5000001    1    1    2    0    0 -0.10667946670E+03 -0.11768156319E+02 -0.60500889472E+03  0.61926065660E+03  0.77000000000E+02 0.  0.
   -5000001    1    1    2    0    0  0.10667946670E+03  0.11768156319E+02 -0.71472742365E+03  0.72683099014E+03  0.77000000000E+02 0.  0.
<mgrwt>
<rscale>  0 0.26506371E+03</rscale>
<asrwt>0</asrwt>
<pdfrwt beam="1">  1        2 0.20506358E+00 0.26506371E+03</pdfrwt>
<pdfrwt beam="2">  1       -2 0.20273340E-02 0.26506371E+03</pdfrwt>
<totfact> 0.12723856E+04</totfact>
</mgrwt>
</event>
<event>
 4    1  0.2489209E-004  0.1875095E+03  0.7818608E-02  0.1160727E+00
          2   -1    0    0  501    0  0.00000000000E+00  0.00000000000E+00  0.11957724236E+04  0.11957724236E+04  0.25500000000E-02 0.  1.
         -2   -1    0    0    0  501 -0.00000000000E+00 -0.00000000000E+00 -0.73508591976E+01  0.73508596399E+01  0.25500000000E-02 0. -1.
    5000001    1    1    2    0    0  0.40672671153E+02  0.27263454614E+02  0.45608922230E+03  0.46512787579E+03  0.77000000000E+02 0.  0.
   -5000001    1    1    2    0    0 -0.40672671153E+02 -0.27263454614E+02  0.73233234214E+03  0.73799540750E+03  0.77000000000E+02 0.  0.
<mgrwt>
<rscale>  0 0.18750952E+03</rscale>
<asrwt>0</asrwt>
<pdfrwt beam="1">  1        2 0.18396514E+00 0.18750952E+03</pdfrwt>
<pdfrwt beam="2">  1       -2 0.11309005E-02 0.18750952E+03</pdfrwt>
<totfact> 0.34883845E+04</totfact>
</mgrwt>
</event>
<event>
 4    1  0.2489209E-004  0.3115354E+03  0.7818608E-02  0.1079612E+00
         -2   -1    0    0    0  501 -0.00000000000E+00  0.00000000000E+00  0.16511928879E+03  0.16511928881E+03  0.25500000000E-02 0. -1.
          2   -1    0    0  501    0  0.00000000000E+00 -0.00000000000E+00 -0.14694575151E+03  0.14694575154E+03  0.25500000000E-02 0.  1.
    5000001    1    1    2    0    0  0.75508470072E+02 -0.48917637738E+02  0.11045225060E+03  0.16193567858E+03  0.77000000000E+02 0.  0.
   -5000001    1    1    2    0    0 -0.75508470072E+02  0.48917637738E+02 -0.92278713318E+02  0.15012936177E+03  0.77000000000E+02 0.  0.
<mgrwt>
<rscale>  0 0.31153541E+03</rscale>
<asrwt>0</asrwt>
<pdfrwt beam="1">  1        2 0.22607039E-01 0.31153541E+03</pdfrwt>
<pdfrwt beam="2">  1       -2 0.25402967E-01 0.31153541E+03</pdfrwt>
<totfact> 0.33321059E+03</totfact>
</mgrwt>
</event>
<event>
 4    1  0.2489209E-004  0.2950175E+03  0.7818608E-02  0.1087758E+00
         -2   -1    0    0    0  501 -0.00000000000E+00  0.00000000000E+00  0.77720240866E+01  0.77720245050E+01  0.25500000000E-02 0. -1.
          2   -1    0    0  501    0  0.00000000000E+00 -0.00000000000E+00 -0.27996349062E+04  0.27996349062E+04  0.25500000000E-02 0.  1.
    5000001    1    1    2    0    0  0.10468178201E+03 -0.65141698167E+02 -0.11574377474E+04  0.11665302634E+04  0.77000000000E+02 0.  0.
   -5000001    1    1    2    0    0 -0.10468178201E+03  0.65141698167E+02 -0.16344251348E+04  0.16408766674E+04  0.77000000000E+02 0.  0.
<mgrwt>
<rscale>  0 0.29501749E+03</rscale>
<asrwt>0</asrwt>
<pdfrwt beam="1">  1        2 0.43071226E+00 0.29501749E+03</pdfrwt>
<pdfrwt beam="2">  1       -2 0.11956983E-02 0.29501749E+03</pdfrwt>
<totfact> 0.44751625E+03</totfact>
</mgrwt>
</event>
<event>
 4    1  0.2489209E-004  0.5136606E+03  0.7818608E-02  0.1010274E+00
         -2   -1    0    0    0  501 -0.00000000000E+00  0.00000000000E+00  0.20112916467E+03  0.20112916469E+03  0.25500000000E-02 0. -1.
          2   -1    0    0  501    0  0.00000000000E+00 -0.00000000000E+00 -0.32795745172E+03  0.32795745173E+03  0.25500000000E-02 0.  1.
    5000001    1    1    2    0    0 -0.20132754985E+03  0.81980097972E+02  0.53026301999E+02  0.23663116341E+03  0.77000000000E+02 0.  0.
   -5000001    1    1    2    0    0  0.20132754985E+03 -0.81980097972E+02 -0.17985458905E+03  0.29245545301E+03  0.77000000000E+02 0.  0.
<mgrwt>
<rscale>  0 0.51366062E+03</rscale>
<asrwt>0</asrwt>
<pdfrwt beam="1">  1        2 0.50454993E-01 0.51366062E+03</pdfrwt>
<pdfrwt beam="2">  1       -2 0.30942948E-01 0.51366062E+03</pdfrwt>
<totfact> 0.96371765E+02</totfact>
</mgrwt>
</event>
<event>
 4    1  0.2489209E-004  0.2024577E+03  0.7818608E-02  0.1147682E+00
         -2   -1    0    0    0  501 -0.00000000000E+00  0.00000000000E+00  0.24560289729E+03  0.24560289730E+03  0.25500000000E-02 0. -1.
          2   -1    0    0  501    0  0.00000000000E+00 -0.00000000000E+00 -0.41722960435E+02  0.41722960513E+02  0.25500000000E-02 0.  1.
    5000001    1    1    2    0    0 -0.15440892089E+02 -0.45327601323E+02  0.38072220871E+02  0.98343818272E+02  0.77000000000E+02 0.  0.
   -5000001    1    1    2    0    0  0.15440892089E+02  0.45327601323E+02  0.16580771598E+03  0.18898203954E+03  0.77000000000E+02 0.  0.
<mgrwt>
<rscale>  0 0.20245770E+03</rscale>
<asrwt>0</asrwt>
<pdfrwt beam="1">  1        2 0.64189169E-02 0.20245770E+03</pdfrwt>
<pdfrwt beam="2">  1       -2 0.37785061E-01 0.20245770E+03</pdfrwt>
<totfact> 0.73106330E+03</totfact>
</mgrwt>
</event>
<event>
 4    1  0.2489209E-004  0.1896942E+03  0.7818608E-02  0.1158737E+00
         -2   -1    0    0    0  501 -0.00000000000E+00  0.00000000000E+00  0.16149069911E+02  0.16149070112E+02  0.25500000000E-02 0. -1.
          2   -1    0    0  501    0  0.00000000000E+00 -0.00000000000E+00 -0.55705823481E+03  0.55705823482E+03  0.25500000000E-02 0.  1.
    5000001    1    1    2    0    0  0.29298183401E+02  0.35947542160E+02 -0.36192727415E+03  0.37292219177E+03  0.77000000000E+02 0.  0.
   -5000001    1    1    2    0    0 -0.29298183401E+02 -0.35947542160E+02 -0.17898189075E+03  0.20028511316E+03  0.77000000000E+02 0.  0.
<mgrwt>
<rscale>  0 0.18969420E+03</rscale>
<asrwt>0</asrwt>
<pdfrwt beam="1">  1        2 0.85701252E-01 0.18969420E+03</pdfrwt>
<pdfrwt beam="2">  1       -2 0.24844727E-02 0.18969420E+03</pdfrwt>
<totfact> 0.29781393E+04</totfact>
</mgrwt>
</event>
<event>
 4    1  0.2489209E-004  0.1931937E+03  0.7818608E-02  0.1155612E+00
          2   -1    0    0  501    0  0.00000000000E+00  0.00000000000E+00  0.30818205117E+02  0.30818205223E+02  0.25500000000E-02 0.  1.
         -2   -1    0    0    0  501 -0.00000000000E+00 -0.00000000000E+00 -0.30277413013E+03  0.30277413015E+03  0.25500000000E-02 0. -1.
    5000001    1    1    2    0    0 -0.36547518459E+01 -0.58073793655E+02 -0.14289188100E+03  0.17243263142E+03  0.77000000000E+02 0.  0.
   -5000001    1    1    2    0    0  0.36547518459E+01  0.58073793655E+02 -0.12906404402E+03  0.16115970395E+03  0.77000000000E+02 0.  0.
<mgrwt>
<rscale>  0 0.19319374E+03</rscale>
<asrwt>0</asrwt>
<pdfrwt beam="1">  1        2 0.47412625E-02 0.19319374E+03</pdfrwt>
<pdfrwt beam="2">  1       -2 0.46580633E-01 0.19319374E+03</pdfrwt>
<totfact> 0.72426914E+03</totfact>
</mgrwt>
</event>
<event>
 4    1  0.2489209E-004  0.1738233E+03  0.7818608E-02  0.1173918E+00
          2   -1    0    0  501    0  0.00000000000E+00  0.00000000000E+00  0.34345451636E+03  0.34345451637E+03  0.25500000000E-02 0.  1.
         -2   -1    0    0    0  501 -0.00000000000E+00 -0.00000000000E+00 -0.21993103598E+02  0.21993103746E+02  0.25500000000E-02 0. -1.
    5000001    1    1    2    0    0 -0.32949904875E+02 -0.21033463702E+01  0.11212409082E+03  0.13996761068E+03  0.77000000000E+02 0.  0.
   -5000001    1    1    2    0    0  0.32949904875E+02  0.21033463702E+01  0.20933732194E+03  0.22548000944E+03  0.77000000000E+02 0.  0.
<mgrwt>
<rscale>  0 0.17382325E+03</rscale>
<asrwt>0</asrwt>
<pdfrwt beam="1">  1        2 0.52839155E-01 0.17382325E+03</pdfrwt>
<pdfrwt beam="2">  1       -2 0.33835545E-02 0.17382325E+03</pdfrwt>
<totfact> 0.31756935E+04</totfact>
</mgrwt>
</event>
<event>
 4    1  0.2489209E-004  0.4369460E+03  0.7818608E-02  0.1031688E+00
         -2   -1    0    0    0  501 -0.00000000000E+00  0.00000000000E+00  0.35593276337E+02  0.35593276429E+02  0.25500000000E-02 0. -1.
          2   -1    0    0  501    0  0.00000000000E+00 -0.00000000000E+00 -0.13409962016E+04  0.13409962016E+04  0.25500000000E-02 0.  1.
    5000001    1    1    2    0    0  0.19927467883E+03 -0.24449975800E+02 -0.77444414919E+03  0.80374183613E+03  0.77000000000E+02 0.  0.
   -5000001    1    1    2    0    0 -0.19927467883E+03  0.24449975800E+02 -0.53095877608E+03  0.57284764191E+03  0.77000000000E+02 0.  0.
<mgrwt>
<rscale>  0 0.43694598E+03</rscale>
<asrwt>0</asrwt>
<pdfrwt beam="1">  1        2 0.20630707E+00 0.43694598E+03</pdfrwt>
<pdfrwt beam="2">  1       -2 0.54758897E-02 0.43694598E+03</pdfrwt>
<totfact> 0.28376635E+03</totfact>
</mgrwt>
</event>
<event>
 4    1  0.2489209E-004  0.1623934E+03  0.7818608E-02  0.1186021E+00
         -2   -1    0    0    0  501 -0.00000000000E+00  0.00000000000E+00  0.32490986162E+01  0.32490996169E+01  0.25500000000E-02 0. -1.
          2   -1    0    0  501    0  0.00000000000E+00 -0.00000000000E+00 -0.20291487304E+04  0.20291487304E+04  0.25500000000E-02 0.  1.
    5000001    1    1    2    0    0  0.50469604166E+01  0.17072178996E+02 -0.12460748574E+04  0.12485785844E+04  0.77000000000E+02 0.  0.
   -5000001    1    1    2    0    0 -0.50469604166E+01 -0.17072178996E+02 -0.77982477441E+03  0.78381924568E+03  0.77000000000E+02 0.  0.
<mgrwt>
<rscale>  0 0.16239342E+03</rscale>
<asrwt>0</asrwt>
<pdfrwt beam="1">  1        2 0.31217571E+00 0.16239342E+03</pdfrwt>
<pdfrwt beam="2">  1       -2 0.49986303E-03 0.16239342E+03</pdfrwt>
<totfact> 0.40514591E+04</totfact>
</mgrwt>
</event>
<event>
 4    1  0.2489209E-004  0.3979818E+03  0.7818608E-02  0.1044481E+00
         -2   -1    0    0    0  501 -0.00000000000E+00  0.00000000000E+00  0.39135660542E+02  0.39135660626E+02  0.25500000000E-02 0. -1.
          2   -1    0    0  501    0  0.00000000000E+00 -0.00000000000E+00 -0.10117976961E+04  0.10117976961E+04  0.25500000000E-02 0.  1.
    5000001    1    1    2    0    0 -0.14133610064E+03  0.66523971400E+02 -0.74053508884E+03  0.76073816120E+03  0.77000000000E+02 0.  0.
   -5000001    1    1    2    0    0  0.14133610064E+03 -0.66523971400E+02 -0.23212694677E+03  0.29019519557E+03  0.77000000000E+02 0.  0.
<mgrwt>
<rscale>  0 0.39798176E+03</rscale>
<asrwt>0</asrwt>
<pdfrwt beam="1">  1        2 0.15566116E+00 0.39798176E+03</pdfrwt>
<pdfrwt beam="2">  1       -2 0.60208716E-02 0.39798176E+03</pdfrwt>
<totfact> 0.38169634E+03</totfact>
</mgrwt>
</event>
<event>
 4    1  0.2489209E-004  0.3052162E+03  0.7818608E-02  0.1082662E+00
          2   -1    0    0  501    0  0.00000000000E+00  0.00000000000E+00  0.67775582642E+03  0.67775582642E+03  0.25500000000E-02 0.  1.
         -2   -1    0    0    0  501 -0.00000000000E+00 -0.00000000000E+00 -0.34362280052E+02  0.34362280147E+02  0.25500000000E-02 0. -1.
    5000001    1    1    2    0    0  0.75059444034E+02 -0.10379510447E+03  0.24967460559E+03  0.29098754703E+03  0.77000000000E+02 0.  0.
   -5000001    1    1    2    0    0 -0.75059444034E+02  0.10379510447E+03  0.39371894078E+03  0.42113055954E+03  0.77000000000E+02 0.  0.
<mgrwt>
<rscale>  0 0.30521622E+03</rscale>
<asrwt>0</asrwt>
<pdfrwt beam="1">  1        2 0.10427012E+00 0.30521622E+03</pdfrwt>
<pdfrwt beam="2">  1       -2 0.52865048E-02 0.30521622E+03</pdfrwt>
<totfact> 0.78471578E+03</totfact>
</mgrwt>
</event>
<event>
 4    1  0.2489209E-004  0.2080552E+03  0.7818608E-02  0.1143115E+00
          2   -1    0    0  501    0  0.00000000000E+00  0.00000000000E+00  0.45642074041E+03  0.45642074042E+03  0.25500000000E-02 0.  1.
         -2   -1    0    0    0  501 -0.00000000000E+00 -0.00000000000E+00 -0.23710004255E+02  0.23710004392E+02  0.25500000000E-02 0. -1.
    5000001    1    1    2    0    0 -0.37156400241E+02 -0.35603905082E+01  0.35287079721E+03  0.36309788485E+03  0.77000000000E+02 0.  0.
   -5000001    1    1    2    0    0  0.37156400241E+02  0.35603905082E+01  0.79839938947E+02  0.11703285996E+03  0.77000000000E+02 0.  0.
<mgrwt>
<rscale>  0 0.20805516E+03</rscale>
<asrwt>0</asrwt>
<pdfrwt beam="1">  1        2 0.70218567E-01 0.20805516E+03</pdfrwt>
<pdfrwt beam="2">  1       -2 0.36476934E-02 0.20805516E+03</pdfrwt>
<totfact> 0.21195471E+04</totfact>
</mgrwt>
</event>
<event>
 4    1  0.2489209E-004  0.2806889E+03  0.7818608E-02  0.1095313E+00
         -2   -1    0    0    0  501 -0.00000000000E+00  0.00000000000E+00  0.68695427149E+01  0.68695431882E+01  0.25500000000E-02 0. -1.
          2   -1    0    0  501    0  0.00000000000E+00 -0.00000000000E+00 -0.28672309508E+04  0.28672309508E+04  0.25500000000E-02 0.  1.
    5000001    1    1    2    0    0 -0.17013324879E+02 -0.97229069059E+02 -0.20797704977E+04  0.20835348012E+04  0.77000000000E+02 0.  0.
   -5000001    1    1    2    0    0  0.17013324879E+02  0.97229069059E+02 -0.78059091039E+03  0.79056569271E+03  0.77000000000E+02 0.  0.
<mgrwt>
<rscale>  0 0.28068891E+03</rscale>
<asrwt>0</asrwt>
<pdfrwt beam="1">  1        2 0.44111150E+00 0.28068891E+03</pdfrwt>
<pdfrwt beam="2">  1       -2 0.10568551E-02 0.28068891E+03</pdfrwt>
<totfact> 0.49014315E+03</totfact>
</mgrwt>
</event>
<event>
 4    1  0.2489209E-004  0.3229352E+03  0.7818608E-02  0.1074306E+00
          2   -1    0    0  501    0  0.00000000000E+00  0.00000000000E+00  0.13621426981E+04  0.13621426981E+04  0.25500000000E-02 0. -1.
         -2   -1    0    0    0  501 -0.00000000000E+00 -0.00000000000E+00 -0.19140272921E+02  0.19140273091E+02  0.25500000000E-02 0.  1.
    5000001    1    1    2    0    0 -0.66209829470E+01  0.12411372615E+03  0.96457200874E+03  0.97559018777E+03  0.77000000000E+02 0.  0.
   -5000001    1    1    2    0    0  0.66209829470E+01 -0.12411372615E+03  0.37843041643E+03  0.40569278341E+03  0.77000000000E+02 0.  0.
<mgrwt>
<rscale>  0 0.32293518E+03</rscale>
<asrwt>0</asrwt>
<pdfrwt beam="1">  1        2 0.20956045E+00 0.32293518E+03</pdfrwt>
<pdfrwt beam="2">  1       -2 0.29446569E-02 0.32293518E+03</pdfrwt>
<totfact> 0.70797035E+03</totfact>
</mgrwt>
</event>
<event>
 4    1  0.2489209E-004  0.1968279E+03  0.7818608E-02  0.1152443E+00
         -2   -1    0    0    0  501 -0.00000000000E+00  0.00000000000E+00  0.17267248999E+02  0.17267249187E+02  0.25500000000E-02 0. -1.
          2   -1    0    0  501    0  0.00000000000E+00 -0.00000000000E+00 -0.56090589645E+03  0.56090589645E+03  0.25500000000E-02 0.  1.
    5000001    1    1    2    0    0 -0.28500284452E+02 -0.52375944082E+02 -0.31344381898E+03  0.32822482141E+03  0.77000000000E+02 0.  0.
   -5000001    1    1    2    0    0  0.28500284452E+02  0.52375944082E+02 -0.23019482846E+03  0.24994832423E+03  0.77000000000E+02 0.  0.
<mgrwt>
<rscale>  0 0.19682786E+03</rscale>
<asrwt>0</asrwt>
<pdfrwt beam="1">  1        2 0.86293201E-01 0.19682786E+03</pdfrwt>
<pdfrwt beam="2">  1       -2 0.26565003E-02 0.19682786E+03</pdfrwt>
<totfact> 0.26853611E+04</totfact>
</mgrwt>
</event>
<event>
 4    1  0.2489209E-004  0.1788396E+03  0.7818608E-02  0.1168931E+00
          2   -1    0    0  501    0  0.00000000000E+00  0.00000000000E+00  0.34280144897E+03  0.34280144898E+03  0.25500000000E-02 0.  1.
         -2   -1    0    0    0  501 -0.00000000000E+00 -0.00000000000E+00 -0.23325163971E+02  0.23325164111E+02  0.25500000000E-02 0. -1.
    5000001    1    1    2    0    0 -0.24707402658E+02 -0.38033722983E+02  0.16617317253E+03  0.18867841185E+03  0.77000000000E+02 0.  0.
   -5000001    1    1    2    0    0  0.24707402658E+02  0.38033722983E+02  0.15330311247E+03  0.17744820124E+03  0.77000000000E+02 0.  0.
<mgrwt>
<rscale>  0 0.17883959E+03</rscale>
<asrwt>0</asrwt>
<pdfrwt beam="1">  1        2 0.52738680E-01 0.17883959E+03</pdfrwt>
<pdfrwt beam="2">  1       -2 0.35884871E-02 0.17883959E+03</pdfrwt>
<totfact> 0.29234422E+04</totfact>
</mgrwt>
</event>
<event>
 4    1  0.2489209E-004  0.1876174E+03  0.7818608E-02  0.1160628E+00
         -2   -1    0    0    0  501 -0.00000000000E+00  0.00000000000E+00  0.49462141251E+02  0.49462141316E+02  0.25500000000E-02 0. -1.
          2   -1    0    0  501    0  0.00000000000E+00 -0.00000000000E+00 -0.17791527485E+03  0.17791527487E+03  0.25500000000E-02 0.  1.
    5000001    1    1    2    0    0 -0.43635967565E+02  0.25128907859E+02 -0.86425264744E+02  0.12622949759E+03  0.77000000000E+02 0.  0.
   -5000001    1    1    2    0    0  0.43635967565E+02 -0.25128907859E+02 -0.42027868853E+02  0.10114791859E+03  0.77000000000E+02 0.  0.
<mgrwt>
<rscale>  0 0.18761738E+03</rscale>
<asrwt>0</asrwt>
<pdfrwt beam="1">  1        2 0.27371580E-01 0.18761738E+03</pdfrwt>
<pdfrwt beam="2">  1       -2 0.76095603E-02 0.18761738E+03</pdfrwt>
<totfact> 0.19046732E+04</totfact>
</mgrwt>
</event>
<event>
 4    1  0.2489209E-004  0.3184081E+03  0.7818608E-02  0.1076384E+00
         -2   -1    0    0    0  501 -0.00000000000E+00  0.00000000000E+00  0.11637999837E+02  0.11638000116E+02  0.25500000000E-02 0. -1.
          2   -1    0    0  501    0  0.00000000000E+00 -0.00000000000E+00 -0.21778589691E+04  0.21778589691E+04  0.25500000000E-02 0.  1.
    5000001    1    1    2    0    0  0.11603378006E+03  0.46296328858E+02 -0.15075420282E+04  0.15146680016E+04  0.77000000000E+02 0.  0.
   -5000001    1    1    2    0    0 -0.11603378006E+03 -0.46296328858E+02 -0.65867894108E+03  0.67482896766E+03  0.77000000000E+02 0.  0.
<mgrwt>
<rscale>  0 0.31840806E+03</rscale>
<asrwt>0</asrwt>
<pdfrwt beam="1">  1        2 0.33505490E+00 0.31840806E+03</pdfrwt>
<pdfrwt beam="2">  1       -2 0.17904633E-02 0.31840806E+03</pdfrwt>
<totfact> 0.54418651E+03</totfact>
</mgrwt>
</event>
<event>
 4    1  0.2489209E-004  0.2012732E+03  0.7818608E-02  0.1148669E+00
         -2   -1    0    0    0  501 -0.00000000000E+00  0.00000000000E+00  0.36448248070E+02  0.36448248160E+02  0.25500000000E-02 0. -1.
          2   -1    0    0  501    0  0.00000000000E+00 -0.00000000000E+00 -0.27786603773E+03  0.27786603774E+03  0.25500000000E-02 0.  1.
    5000001    1    1    2    0    0 -0.12274512436E+02 -0.62592297917E+02 -0.10288503629E+03  0.14346703491E+03  0.77000000000E+02 0.  0.
   -5000001    1    1    2    0    0  0.12274512436E+02  0.62592297917E+02 -0.13853275337E+03  0.17084725099E+03  0.77000000000E+02 0.  0.
<mgrwt>
<rscale>  0 0.20127325E+03</rscale>
<asrwt>0</asrwt>
<pdfrwt beam="1">  1        2 0.42748620E-01 0.20127325E+03</pdfrwt>
<pdfrwt beam="2">  1       -2 0.56074230E-02 0.20127325E+03</pdfrwt>
<totfact> 0.18881448E+04</totfact>
</mgrwt>
</event>
<event>
 4    1  0.2489209E-004  0.2838435E+03  0.7818608E-02  0.1093608E+00
          2   -1    0    0  501    0  0.00000000000E+00  0.00000000000E+00  0.13641328326E+04  0.13641328326E+04  0.25500000000E-02 0.  1.
         -2   -1    0    0    0  501 -0.00000000000E+00 -0.00000000000E+00 -0.14765261374E+02  0.14765261594E+02  0.25500000000E-02 0. -1.
    5000001    1    1    2    0    0  0.99587841672E+02  0.65439333167E+02  0.65734869300E+03  0.67248520335E+03  0.77000000000E+02 0.  0.
   -5000001    1    1    2    0    0 -0.99587841672E+02 -0.65439333167E+02  0.69201887823E+03  0.70641289085E+03  0.77000000000E+02 0.  0.
<mgrwt>
<rscale>  0 0.28384346E+03</rscale>
<asrwt>0</asrwt>
<pdfrwt beam="1">  1        2 0.20986653E+00 0.28384346E+03</pdfrwt>
<pdfrwt beam="2">  1       -2 0.22715793E-02 0.28384346E+03</pdfrwt>
<totfact> 0.10361473E+04</totfact>
</mgrwt>
</event>
<event>
 4    1  0.2489209E-004  0.1813833E+03  0.7818608E-02  0.1166471E+00
         -2   -1    0    0    0  501 -0.00000000000E+00  0.00000000000E+00  0.98492676006E+01  0.98492679307E+01  0.25500000000E-02 0. -1.
          2   -1    0    0  501    0  0.00000000000E+00 -0.00000000000E+00 -0.83508511125E+03  0.83508511126E+03  0.25500000000E-02 0.  1.
    5000001    1    1    2    0    0  0.20242276078E+02 -0.31893602071E+02 -0.27529537563E+03  0.28834613824E+03  0.77000000000E+02 0.  0.
   -5000001    1    1    2    0    0 -0.20242276078E+02  0.31893602071E+02 -0.54994046802E+03  0.55658824095E+03  0.77000000000E+02 0.  0.
<mgrwt>
<rscale>  0 0.18138332E+03</rscale>
<asrwt>0</asrwt>
<pdfrwt beam="1">  1        2 0.12847458E+00 0.18138332E+03</pdfrwt>
<pdfrwt beam="2">  1       -2 0.15152726E-02 0.18138332E+03</pdfrwt>
<totfact> 0.37645763E+04</totfact>
</mgrwt>
</event>
<event>
 4    1  0.2489209E-004  0.1806728E+03  0.7818608E-02  0.1167153E+00
         -2   -1    0    0    0  501 -0.00000000000E+00  0.00000000000E+00  0.16785706365E+02  0.16785706559E+02  0.25500000000E-02 0. -1.
          2   -1    0    0  501    0  0.00000000000E+00 -0.00000000000E+00 -0.48616764325E+03  0.48616764325E+03  0.25500000000E-02 0.  1.
    5000001    1    1    2    0    0 -0.37415327533E+02  0.23043472539E+02 -0.28296840288E+03  0.29653166001E+03  0.77000000000E+02 0.  0.
   -5000001    1    1    2    0    0  0.37415327533E+02 -0.23043472539E+02 -0.18641353400E+03  0.20642168980E+03  0.77000000000E+02 0.  0.
<mgrwt>
<rscale>  0 0.18067282E+03</rscale>
<asrwt>0</asrwt>
<pdfrwt beam="1">  1        2 0.74795012E-01 0.18067282E+03</pdfrwt>
<pdfrwt beam="2">  1       -2 0.25824167E-02 0.18067282E+03</pdfrwt>
<totfact> 0.32618220E+04</totfact>
</mgrwt>
</event>
<event>
 4    1  0.2489209E-004  0.6981329E+03  0.7818608E-02  0.9720431E-01
          2   -1    0    0  501    0  0.00000000000E+00  0.00000000000E+00  0.50722261092E+03  0.50722261092E+03  0.25500000000E-02 0.  1.
         -2   -1    0    0    0  501 -0.00000000000E+00 -0.00000000000E+00 -0.24022466490E+03  0.24022466491E+03  0.25500000000E-02 0. -1.
    5000001    1    1    2    0    0  0.31033794499E+03  0.51175729811E+02 -0.60531427961E+01  0.32387379634E+03  0.77000000000E+02 0.  0.
   -5000001    1    1    2    0    0 -0.31033794499E+03 -0.51175729811E+02  0.27305108882E+03  0.42357347949E+03  0.77000000000E+02 0.  0.
<mgrwt>
<rscale>  0 0.69813289E+03</rscale>
<asrwt>0</asrwt>
<pdfrwt beam="1">  1        2 0.78034248E-01 0.69813289E+03</pdfrwt>
<pdfrwt beam="2">  1       -2 0.36957641E-01 0.69813289E+03</pdfrwt>
<totfact> 0.42090083E+02</totfact>
</mgrwt>
</event>
<event>
 4    1  0.2489209E-004  0.2572490E+03  0.7818608E-02  0.1108807E+00
         -2   -1    0    0    0  501 -0.00000000000E+00  0.00000000000E+00  0.93309497412E+02  0.93309497447E+02  0.25500000000E-02 0. -1.
          2   -1    0    0  501    0  0.00000000000E+00 -0.00000000000E+00 -0.17730516680E+03  0.17730516682E+03  0.25500000000E-02 0.  1.
    5000001    1    1    2    0    0  0.47498970087E+02 -0.57443672406E+02  0.32826720404E+02  0.11208265357E+03  0.77000000000E+02 0.  0.
   -5000001    1    1    2    0    0 -0.47498970087E+02  0.57443672406E+02 -0.11682238980E+03  0.15853201070E+03  0.77000000000E+02 0.  0.
<mgrwt>
<rscale>  0 0.25724895E+03</rscale>
<asrwt>0</asrwt>
<pdfrwt beam="1">  1        2 0.27277718E-01 0.25724895E+03</pdfrwt>
<pdfrwt beam="2">  1       -2 0.14355307E-01 0.25724895E+03</pdfrwt>
<totfact> 0.70951206E+03</totfact>
</mgrwt>
</event>
<event>
 4    1  0.2489209E-004  0.3241911E+03  0.7818608E-02  0.1073736E+00
         -2   -1    0    0    0  501 -0.00000000000E+00  0.00000000000E+00  0.57265757218E+02  0.57265757275E+02  0.25500000000E-02 0. -1.
          2   -1    0    0  501    0  0.00000000000E+00 -0.00000000000E+00 -0.45882498617E+03  0.45882498618E+03  0.25500000000E-02 0.  1.
    5000001    1    1    2    0    0  0.12450366717E+03  0.54181003236E+02 -0.13122073523E+03  0.20392308748E+03  0.77000000000E+02 0.  0.
   -5000001    1    1    2    0    0 -0.12450366717E+03 -0.54181003236E+02 -0.27033849373E+03  0.31216765598E+03  0.77000000000E+02 0.  0.
<mgrwt>
<rscale>  0 0.32419106E+03</rscale>
<asrwt>0</asrwt>
<pdfrwt beam="1">  1        2 0.70588457E-01 0.32419106E+03</pdfrwt>
<pdfrwt beam="2">  1       -2 0.88101168E-02 0.32419106E+03</pdfrwt>
<totfact> 0.55747784E+03</totfact>
</mgrwt>
</event>
<event>
 4    1  0.2489209E-004  0.2327241E+03  0.7818608E-02  0.1124737E+00
         -2   -1    0    0    0  501 -0.00000000000E+00  0.00000000000E+00  0.32908999625E+03  0.32908999626E+03  0.25500000000E-02 0. -1.
          2   -1    0    0  501    0  0.00000000000E+00 -0.00000000000E+00 -0.41144153082E+02  0.41144153161E+02  0.25500000000E-02 0.  1.
    5000001    1    1    2    0    0 -0.68845415544E+02 -0.44899595068E+02  0.97442603104E+02  0.14892859288E+03  0.77000000000E+02 0.  0.
   -5000001    1    1    2    0    0  0.68845415544E+02  0.44899595068E+02  0.19050324006E+03  0.22130555653E+03  0.77000000000E+02 0.  0.
<mgrwt>
<rscale>  0 0.23272412E+03</rscale>
<asrwt>0</asrwt>
<pdfrwt beam="1">  1        2 0.63298699E-02 0.23272412E+03</pdfrwt>
<pdfrwt beam="2">  1       -2 0.50629229E-01 0.23272412E+03</pdfrwt>
<totfact> 0.42546869E+03</totfact>
</mgrwt>
</event>
<event>
 4    1  0.2489209E-004  0.2213123E+03  0.7818608E-02  0.1132908E+00
          2   -1    0    0  501    0  0.00000000000E+00  0.00000000000E+00  0.53413490246E+03  0.53413490247E+03  0.25500000000E-02 0.  1.
         -2   -1    0    0    0  501 -0.00000000000E+00 -0.00000000000E+00 -0.22924507107E+02  0.22924507249E+02  0.25500000000E-02 0. -1.
    5000001    1    1    2    0    0  0.65804169001E+02 -0.27458899167E+02  0.16727060577E+03  0.19746552953E+03  0.77000000000E+02 0.  0.
   -5000001    1    1    2    0    0 -0.65804169001E+02  0.27458899167E+02  0.34393978959E+03  0.35959388018E+03  0.77000000000E+02 0.  0.
<mgrwt>
<rscale>  0 0.22131226E+03</rscale>
<asrwt>0</asrwt>
<pdfrwt beam="1">  1        2 0.82174604E-01 0.22131226E+03</pdfrwt>
<pdfrwt beam="2">  1       -2 0.35268471E-02 0.22131226E+03</pdfrwt>
<totfact> 0.18793590E+04</totfact>
</mgrwt>
</event>
<event>
 4    1  0.2489209E-004  0.4821208E+03  0.7818608E-02  0.1018554E+00
         -2   -1    0    0    0  501 -0.00000000000E+00  0.00000000000E+00  0.60615276773E+02  0.60615276826E+02  0.25500000000E-02 0. -1.
          2   -1    0    0  501    0  0.00000000000E+00 -0.00000000000E+00 -0.95867121899E+03  0.95867121900E+03  0.25500000000E-02 0.  1.
    5000001    1    1    2    0    0 -0.91583136545E+02  0.20739138099E+03 -0.50816683562E+03  0.56174833211E+03  0.77000000000E+02 0.  0.
   -5000001    1    1    2    0    0  0.91583136545E+02 -0.20739138099E+03 -0.38988910660E+03  0.45753816371E+03  0.77000000000E+02 0.  0.
<mgrwt>
<rscale>  0 0.48212082E+03</rscale>
<asrwt>0</asrwt>
<pdfrwt beam="1">  1        2 0.14748787E+00 0.48212082E+03</pdfrwt>
<pdfrwt beam="2">  1       -2 0.93254279E-02 0.48212082E+03</pdfrwt>
<totfact> 0.20694026E+03</totfact>
</mgrwt>
</event>
<event>
 4    1  0.2489209E-004  0.1589241E+03  0.7818608E-02  0.1189917E+00
          2   -1    0    0  501    0  0.00000000000E+00  0.00000000000E+00  0.14957740333E+02  0.14957740550E+02  0.25500000000E-02 0.  1.
         -2   -1    0    0    0  501 -0.00000000000E+00 -0.00000000000E+00 -0.42213723216E+03  0.42213723217E+03  0.25500000000E-02 0. -1.
    5000001    1    1    2    0    0  0.15424740674E+02  0.62606304486E+01 -0.17499403389E+03  0.19190891072E+03  0.77000000000E+02 0.  0.
   -5000001    1    1    2    0    0 -0.15424740674E+02 -0.62606304486E+01 -0.23218545794E+03  0.24518606199E+03  0.77000000000E+02 0.  0.
<mgrwt>
<rscale>  0 0.15892412E+03</rscale>
<asrwt>0</asrwt>
<pdfrwt beam="1">  1        2 0.23011912E-02 0.15892412E+03</pdfrwt>
<pdfrwt beam="2">  1       -2 0.64944181E-01 0.15892412E+03</pdfrwt>
<totfact> 0.96092619E+03</totfact>
</mgrwt>
</event>
<event>
 4    1  0.2489209E-004  0.2568139E+03  0.7818608E-02  0.1109073E+00
          2   -1    0    0  501    0  0.00000000000E+00  0.00000000000E+00  0.98614586195E+02  0.98614586228E+02  0.25500000000E-02 0.  1.
         -2   -1    0    0    0  501 -0.00000000000E+00 -0.00000000000E+00 -0.16719988920E+03  0.16719988922E+03  0.25500000000E-02 0. -1.
    5000001    1    1    2    0    0  0.37664850913E+02 -0.94542165291E+02 -0.19564188334E+02  0.12910700786E+03  0.77000000000E+02 0.  0.
   -5000001    1    1    2    0    0 -0.37664850913E+02  0.94542165291E+02 -0.49021114674E+02  0.13670746759E+03  0.77000000000E+02 0.  0.
<mgrwt>
<rscale>  0 0.25681392E+03</rscale>
<asrwt>0</asrwt>
<pdfrwt beam="1">  1        2 0.15171475E-01 0.25681392E+03</pdfrwt>
<pdfrwt beam="2">  1       -2 0.25723060E-01 0.25681392E+03</pdfrwt>
<totfact> 0.51396802E+03</totfact>
</mgrwt>
</event>
<event>
 4    1  0.2489209E-004  0.1636377E+03  0.7818608E-02  0.1184650E+00
          2   -1    0    0  501    0  0.00000000000E+00  0.00000000000E+00  0.68566915980E+03  0.68566915981E+03  0.25500000000E-02 0.  1.
         -2   -1    0    0    0  501 -0.00000000000E+00 -0.00000000000E+00 -0.97631960537E+01  0.97631963868E+01  0.25500000000E-02 0. -1.
    5000001    1    1    2    0    0  0.89051877334E+01 -0.25746155025E+02  0.35840331567E+03  0.36759230617E+03  0.77000000000E+02 0.  0.
   -5000001    1    1    2    0    0 -0.89051877334E+01  0.25746155025E+02  0.31750264807E+03  0.32784005003E+03  0.77000000000E+02 0.  0.
<mgrwt>
<rscale>  0 0.16363768E+03</rscale>
<asrwt>0</asrwt>
<pdfrwt beam="1">  1        2 0.10548759E+00 0.16363768E+03</pdfrwt>
<pdfrwt beam="2">  1       -2 0.15020298E-02 0.16363768E+03</pdfrwt>
<totfact> 0.48154867E+04</totfact>
</mgrwt>
</event>
<event>
 4    1  0.2489209E-004  0.2406664E+03  0.7818608E-02  0.1119350E+00
         -2   -1    0    0    0  501 -0.00000000000E+00  0.00000000000E+00  0.30167682078E+02  0.30167682186E+02  0.25500000000E-02 0. -1.
          2   -1    0    0  501    0  0.00000000000E+00 -0.00000000000E+00 -0.47998641157E+03  0.47998641157E+03  0.25500000000E-02 0.  1.
    5000001    1    1    2    0    0  0.75713693626E+02  0.50287179541E+02 -0.26098968871E+03  0.28689019056E+03  0.77000000000E+02 0.  0.
   -5000001    1    1    2    0    0 -0.75713693626E+02 -0.50287179541E+02 -0.18882904078E+03  0.22326390319E+03  0.77000000000E+02 0.  0.
<mgrwt>
<rscale>  0 0.24066639E+03</rscale>
<asrwt>0</asrwt>
<pdfrwt beam="1">  1        2 0.73844058E-01 0.24066639E+03</pdfrwt>
<pdfrwt beam="2">  1       -2 0.46411822E-02 0.24066639E+03</pdfrwt>
<totfact> 0.14091913E+04</totfact>
</mgrwt>
</event>
<event>
 4    1  0.2489209E-004  0.2092520E+03  0.7818608E-02  0.1142160E+00
         -2   -1    0    0    0  501 -0.00000000000E+00  0.00000000000E+00  0.49079614038E+01  0.49079620662E+01  0.25500000000E-02 0. -1.
          2   -1    0    0  501    0  0.00000000000E+00 -0.00000000000E+00 -0.22303757956E+04  0.22303757956E+04  0.25500000000E-02 0.  1.
    5000001    1    1    2    0    0 -0.61283171950E+01 -0.70479067301E+02 -0.11508680274E+04  0.11556085287E+04  0.77000000000E+02 0.  0.
   -5000001    1    1    2    0    0  0.61283171950E+01  0.70479067301E+02 -0.10745998068E+04  0.10796752290E+04  0.77000000000E+02 0.  0.
<mgrwt>
<rscale>  0 0.20925199E+03</rscale>
<asrwt>0</asrwt>
<pdfrwt beam="1">  1        2 0.34313393E+00 0.20925199E+03</pdfrwt>
<pdfrwt beam="2">  1       -2 0.75507282E-03 0.20925199E+03</pdfrwt>
<totfact> 0.17840925E+04</totfact>
</mgrwt>
</event>
<event>
 4    1  0.2489209E-004  0.2163823E+03  0.7818608E-02  0.1136609E+00
          2   -1    0    0  501    0  0.00000000000E+00  0.00000000000E+00  0.19018672557E+04  0.19018672557E+04  0.25500000000E-02 0.  1.
         -2   -1    0    0    0  501 -0.00000000000E+00 -0.00000000000E+00 -0.61546480835E+01  0.61546486118E+01  0.25500000000E-02 0. -1.
    5000001    1    1    2    0    0  0.43699923045E+02  0.90462720080E+01  0.40537666632E+03  0.41503103487E+03  0.77000000000E+02 0.  0.
   -5000001    1    1    2    0    0 -0.43699923045E+02 -0.90462720080E+01  0.14903359413E+04  0.14929908694E+04  0.77000000000E+02 0.  0.
<mgrwt>
<rscale>  0 0.21638229E+03</rscale>
<asrwt>0</asrwt>
<pdfrwt beam="1">  1        2 0.29259460E+00 0.21638229E+03</pdfrwt>
<pdfrwt beam="2">  1       -2 0.94687014E-03 0.21638229E+03</pdfrwt>
<totfact> 0.19148687E+04</totfact>
</mgrwt>
</event>
<event>
 4    1  0.2489209E-004  0.2656090E+03  0.7818608E-02  0.1103819E+00
          2   -1    0    0  501    0  0.00000000000E+00  0.00000000000E+00  0.10408277680E+04  0.10408277680E+04  0.25500000000E-02 0.  1.
         -2   -1    0    0    0  501 -0.00000000000E+00 -0.00000000000E+00 -0.16945206493E+02  0.16945206685E+02  0.25500000000E-02 0. -1.
    5000001    1    1    2    0    0 -0.84802943834E+02  0.34449007522E+02  0.74174476006E+03  0.75132720067E+03  0.77000000000E+02 0.  0.
   -5000001    1    1    2    0    0  0.84802943834E+02 -0.34449007522E+02  0.28213780142E+03  0.30644577398E+03  0.77000000000E+02 0.  0.
<mgrwt>
<rscale>  0 0.26560905E+03</rscale>
<asrwt>0</asrwt>
<pdfrwt beam="1">  1        2 0.16012737E+00 0.26560905E+03</pdfrwt>
<pdfrwt beam="2">  1       -2 0.26069545E-02 0.26560905E+03</pdfrwt>
<totfact> 0.12895210E+04</totfact>
</mgrwt>
</event>
<event>
 4    1  0.2489209E-004  0.2134506E+03  0.7818608E-02  0.1138862E+00
          2   -1    0    0  501    0  0.00000000000E+00  0.00000000000E+00  0.26384173994E+04  0.26384173994E+04  0.25500000000E-02 0.  1.
         -2   -1    0    0    0  501 -0.00000000000E+00 -0.00000000000E+00 -0.43170894935E+01  0.43170902466E+01  0.25500000000E-02 0. -1.
    5000001    1    1    2    0    0  0.41041219021E+02 -0.45650062046E+02  0.18264766633E+04  0.18291293862E+04  0.77000000000E+02 0.  0.
   -5000001    1    1    2    0    0 -0.41041219021E+02  0.45650062046E+02  0.80762364659E+03  0.81360510345E+03  0.77000000000E+02 0.  0.
<mgrwt>
<rscale>  0 0.21345056E+03</rscale>
<asrwt>0</asrwt>
<pdfrwt beam="1">  1        2 0.40591094E+00 0.21345056E+03</pdfrwt>
<pdfrwt beam="2">  1       -2 0.66416674E-03 0.21345056E+03</pdfrwt>
<totfact> 0.12928603E+04</totfact>
</mgrwt>
</event>
<event>
 4    1  0.2489209E-004  0.1824140E+03  0.7818608E-02  0.1165487E+00
          2   -1    0    0  501    0  0.00000000000E+00  0.00000000000E+00  0.37612533567E+02  0.37612533654E+02  0.25500000000E-02 0.  1.
         -2   -1    0    0    0  501 -0.00000000000E+00 -0.00000000000E+00 -0.22116883674E+03  0.22116883675E+03  0.25500000000E-02 0. -1.
    5000001    1    1    2    0    0  0.48505797001E+02  0.51943523777E+01 -0.96247832626E+02  0.13256107620E+03  0.77000000000E+02 0.  0.
   -5000001    1    1    2    0    0 -0.48505797001E+02 -0.51943523777E+01 -0.87308470544E+02  0.12622029420E+03  0.77000000000E+02 0.  0.
<mgrwt>
<rscale>  0 0.18241404E+03</rscale>
<asrwt>0</asrwt>
<pdfrwt beam="1">  1        2 0.57865438E-02 0.18241404E+03</pdfrwt>
<pdfrwt beam="2">  1       -2 0.34025974E-01 0.18241404E+03</pdfrwt>
<totfact> 0.10091084E+04</totfact>
</mgrwt>
</event>
<event>
 4    1  0.2489209E-004  0.2135507E+03  0.7818608E-02  0.1138785E+00
         -2   -1    0    0    0  501 -0.00000000000E+00  0.00000000000E+00  0.65001054696E+01  0.65001059698E+01  0.25500000000E-02 0. -1.
          2   -1    0    0  501    0  0.00000000000E+00 -0.00000000000E+00 -0.17539678461E+04  0.17539678461E+04  0.25500000000E-02 0.  1.
    5000001    1    1    2    0    0  0.63061912116E+02  0.24709298988E+02 -0.11189257171E+04  0.11236151986E+04  0.77000000000E+02 0.  0.
   -5000001    1    1    2    0    0 -0.63061912116E+02 -0.24709298988E+02 -0.62854202354E+03  0.63685275345E+03  0.77000000000E+02 0.  0.
<mgrwt>
<rscale>  0 0.21355071E+03</rscale>
<asrwt>0</asrwt>
<pdfrwt beam="1">  1        2 0.26984083E+00 0.21355071E+03</pdfrwt>
<pdfrwt beam="2">  1       -2 0.10000177E-02 0.21355071E+03</pdfrwt>
<totfact> 0.21116689E+04</totfact>
</mgrwt>
</event>
<event>
 4    1  0.2489209E-004  0.1948833E+03  0.7818608E-02  0.1154129E+00
          2   -1    0    0  501    0  0.00000000000E+00  0.00000000000E+00  0.24440868034E+04  0.24440868034E+04  0.25500000000E-02 0.  1.
         -2   -1    0    0    0  501 -0.00000000000E+00 -0.00000000000E+00 -0.38848368992E+01  0.38848377361E+01  0.25500000000E-02 0. -1.
    5000001    1    1    2    0    0 -0.36740483990E+02 -0.32145767022E+02  0.16520800816E+04  0.16545938503E+04  0.77000000000E+02 0.  0.
   -5000001    1    1    2    0    0  0.36740483990E+02  0.32145767022E+02  0.78812188492E+03  0.79337779084E+03  0.77000000000E+02 0.  0.
<mgrwt>
<rscale>  0 0.19488335E+03</rscale>
<asrwt>0</asrwt>
<pdfrwt beam="1">  1        2 0.37601350E+00 0.19488335E+03</pdfrwt>
<pdfrwt beam="2">  1       -2 0.59766705E-03 0.19488335E+03</pdfrwt>
<totfact> 0.19156100E+04</totfact>
</mgrwt>
</event>
<event>
 4    1  0.2489209E-004  0.1869878E+03  0.7818608E-02  0.1161207E+00
          2   -1    0    0  501    0  0.00000000000E+00  0.00000000000E+00  0.30977101155E+04  0.30977101155E+04  0.25500000000E-02 0.  1.
         -2   -1    0    0    0  501 -0.00000000000E+00 -0.00000000000E+00 -0.28217959566E+01  0.28217971088E+01  0.25500000000E-02 0. -1.
    5000001    1    1    2    0    0  0.16145055586E+02 -0.48771518855E+02  0.17654029958E+04  0.17678280633E+04  0.77000000000E+02 0.  0.
   -5000001    1    1    2    0    0 -0.16145055586E+02  0.48771518855E+02  0.13294853238E+04  0.13327038493E+04  0.77000000000E+02 0.  0.
<mgrwt>
<rscale>  0 0.18698778E+03</rscale>
<asrwt>0</asrwt>
<pdfrwt beam="1">  1        2 0.47656988E+00 0.18698778E+03</pdfrwt>
<pdfrwt beam="2">  1       -2 0.43412337E-03 0.18698778E+03</pdfrwt>
<totfact> 0.12927406E+04</totfact>
</mgrwt>
</event>
<event>
 4    1  0.2489209E-004  0.1646419E+03  0.7818608E-02  0.1183554E+00
          2   -1    0    0  501    0  0.00000000000E+00  0.00000000000E+00  0.83836216033E+03  0.83836216033E+03  0.25500000000E-02 0.  1.
         -2   -1    0    0    0  501 -0.00000000000E+00 -0.00000000000E+00 -0.80833069607E+01  0.80833073629E+01  0.25500000000E-02 0. -1.
    5000001    1    1    2    0    0  0.22088223113E+02 -0.12245544845E+02  0.34065584033E+03  0.35016174052E+03  0.77000000000E+02 0.  0.
   -5000001    1    1    2    0    0 -0.22088223113E+02  0.12245544845E+02  0.48962301303E+03  0.49628372718E+03  0.77000000000E+02 0.  0.
<mgrwt>
<rscale>  0 0.16464190E+03</rscale>
<asrwt>0</asrwt>
<pdfrwt beam="1">  1        2 0.12897875E+00 0.16464190E+03</pdfrwt>
<pdfrwt beam="2">  1       -2 0.12435861E-02 0.16464190E+03</pdfrwt>
<totfact> 0.49434790E+04</totfact>
</mgrwt>
</event>
<event>
 4    1  0.2489209E-004  0.2180756E+03  0.7818608E-02  0.1135326E+00
         -2   -1    0    0    0  501 -0.00000000000E+00  0.00000000000E+00  0.41129385934E+02  0.41129386013E+02  0.25500000000E-02 0. -1.
          2   -1    0    0  501    0  0.00000000000E+00 -0.00000000000E+00 -0.28906932186E+03  0.28906932187E+03  0.25500000000E-02 0.  1.
    5000001    1    1    2    0    0 -0.26625774146E+01  0.76866174337E+02 -0.13409843266E+03  0.17270462564E+03  0.77000000000E+02 0.  0.
   -5000001    1    1    2    0    0  0.26625774146E+01 -0.76866174337E+02 -0.11384150327E+03  0.15749408224E+03  0.77000000000E+02 0.  0.
<mgrwt>
<rscale>  0 0.21807562E+03</rscale>
<asrwt>0</asrwt>
<pdfrwt beam="1">  1        2 0.44472202E-01 0.21807562E+03</pdfrwt>
<pdfrwt beam="2">  1       -2 0.63275980E-02 0.21807562E+03</pdfrwt>
<totfact> 0.15131459E+04</totfact>
</mgrwt>
</event>
<event>
 4    1  0.2489209E-004  0.2997588E+03  0.7818608E-02  0.1085361E+00
          2   -1    0    0  501    0  0.00000000000E+00  0.00000000000E+00  0.61910891405E+03  0.61910891405E+03  0.25500000000E-02 0.  1.
         -2   -1    0    0    0  501 -0.00000000000E+00 -0.00000000000E+00 -0.36284149135E+02  0.36284149224E+02  0.25500000000E-02 0. -1.
    5000001    1    1    2    0    0  0.50408802258E+00 -0.12701664168E+03  0.24761014895E+03  0.28874429385E+03  0.77000000000E+02 0.  0.
   -5000001    1    1    2    0    0 -0.50408802258E+00  0.12701664168E+03  0.33521461597E+03  0.36664876943E+03  0.77000000000E+02 0.  0.
<mgrwt>
<rscale>  0 0.29975884E+03</rscale>
<asrwt>0</asrwt>
<pdfrwt beam="1">  1        2 0.95247515E-01 0.29975884E+03</pdfrwt>
<pdfrwt beam="2">  1       -2 0.55821774E-02 0.29975884E+03</pdfrwt>
<totfact> 0.80373290E+03</totfact>
</mgrwt>
</event>
<event>
 4    1  0.2489209E-004  0.2929449E+03  0.7818608E-02  0.1088822E+00
          2   -1    0    0  501    0  0.00000000000E+00  0.00000000000E+00  0.12831538944E+04  0.12831538944E+04  0.25500000000E-02 0.  1.
         -2   -1    0    0    0  501 -0.00000000000E+00 -0.00000000000E+00 -0.16719875761E+02  0.16719875955E+02  0.25500000000E-02 0. -1.
    5000001    1    1    2    0    0  0.10957895782E+03  0.51412661627E+02  0.76442534742E+03  0.77776983841E+03  0.77000000000E+02 0.  0.
   -5000001    1    1    2    0    0 -0.10957895782E+03 -0.51412661627E+02  0.50200867126E+03  0.52210393198E+03  0.77000000000E+02 0.  0.
<mgrwt>
<rscale>  0 0.29294487E+03</rscale>
<asrwt>0</asrwt>
<pdfrwt beam="1">  1        2 0.19740841E+00 0.29294487E+03</pdfrwt>
<pdfrwt beam="2">  1       -2 0.25722870E-02 0.29294487E+03</pdfrwt>
<totfact> 0.95605776E+03</totfact>
</mgrwt>
</event>
<event>
 4    1  0.2489209E-004  0.1885633E+03  0.7818608E-02  0.1159764E+00
          2   -1    0    0  501    0  0.00000000000E+00  0.00000000000E+00  0.11799671610E+03  0.11799671612E+03  0.25500000000E-02 0.  1.
         -2   -1    0    0    0  501 -0.00000000000E+00 -0.00000000000E+00 -0.75332830860E+02  0.75332830903E+02  0.25500000000E-02 0. -1.
    5000001    1    1    2    0    0  0.19378576994E+02  0.50313932280E+02  0.13867418025E+02  0.95017505284E+02  0.77000000000E+02 0.  0.
   -5000001    1    1    2    0    0 -0.19378576994E+02 -0.50313932280E+02  0.28796467212E+02  0.98312041743E+02  0.77000000000E+02 0.  0.
<mgrwt>
<rscale>  0 0.18856327E+03</rscale>
<asrwt>0</asrwt>
<pdfrwt beam="1">  1        2 0.18153341E-01 0.18856327E+03</pdfrwt>
<pdfrwt beam="2">  1       -2 0.11589666E-01 0.18856327E+03</pdfrwt>
<totfact> 0.15602141E+04</totfact>
</mgrwt>
</event>
<event>
 4    1  0.2489209E-004  0.4675289E+03  0.7818608E-02  0.1022620E+00
          2   -1    0    0  501    0  0.00000000000E+00  0.00000000000E+00  0.41157510573E+04  0.41157510573E+04  0.25500000000E-02 0.  1.
         -2   -1    0    0    0  501 -0.00000000000E+00 -0.00000000000E+00 -0.13277242490E+02  0.13277242734E+02  0.25500000000E-02 0. -1.
    5000001    1    1    2    0    0  0.16952406081E+03  0.46503995484E+02  0.87243184808E+03  0.89329018708E+03  0.77000000000E+02 0.  0.
   -5000001    1    1    2    0    0 -0.16952406081E+03 -0.46503995484E+02  0.32300419667E+04  0.32357381129E+04  0.77000000000E+02 0.  0.
<mgrwt>
<rscale>  0 0.46752893E+03</rscale>
<asrwt>0</asrwt>
<pdfrwt beam="1">  1        2 0.63319312E+00 0.46752893E+03</pdfrwt>
<pdfrwt beam="2">  1       -2 0.20426506E-02 0.46752893E+03</pdfrwt>
<totfact> 0.25848392E+02</totfact>
</mgrwt>
</event>
<event>
 4    1  0.2489209E-004  0.2062152E+03  0.7818608E-02  0.1144599E+00
          2   -1    0    0  501    0  0.00000000000E+00  0.00000000000E+00  0.14960263384E+04  0.14960263384E+04  0.25500000000E-02 0.  1.
         -2   -1    0    0    0  501 -0.00000000000E+00 -0.00000000000E+00 -0.71062731803E+01  0.71062736378E+01  0.25500000000E-02 0. -1.
    5000001    1    1    2    0    0  0.65631011708E+02  0.93225708506E+01  0.87234918968E+03  0.87824623470E+03  0.77000000000E+02 0.  0.
   -5000001    1    1    2    0    0 -0.65631011708E+02 -0.93225708506E+01  0.61657087558E+03  0.62488637738E+03  0.77000000000E+02 0.  0.
<mgrwt>
<rscale>  0 0.20621515E+03</rscale>
<asrwt>0</asrwt>
<pdfrwt beam="1">  1        2 0.23015806E+00 0.20621515E+03</pdfrwt>
<pdfrwt beam="2">  1       -2 0.10932721E-02 0.20621515E+03</pdfrwt>
<totfact> 0.25306076E+04</totfact>
</mgrwt>
</event>
<event>
 4    1  0.2489209E-004  0.2116132E+03  0.7818608E-02  0.1140295E+00
         -2   -1    0    0    0  501 -0.00000000000E+00  0.00000000000E+00  0.47310086271E+01  0.47310093143E+01  0.25500000000E-02 0. -1.
          2   -1    0    0  501    0  0.00000000000E+00 -0.00000000000E+00 -0.23663107077E+04  0.23663107077E+04  0.25500000000E-02 0.  1.
    5000001    1    1    2    0    0 -0.41242791784E+02 -0.56739222885E+02 -0.97245357197E+03  0.97801597990E+03  0.77000000000E+02 0.  0.
   -5000001    1    1    2    0    0  0.41242791784E+02  0.56739222885E+02 -0.13891261271E+04  0.13930257371E+04  0.77000000000E+02 0.  0.
<mgrwt>
<rscale>  0 0.21161321E+03</rscale>
<asrwt>0</asrwt>
<pdfrwt beam="1">  1        2 0.36404686E+00 0.21161321E+03</pdfrwt>
<pdfrwt beam="2">  1       -2 0.72784942E-03 0.21161321E+03</pdfrwt>
<totfact> 0.15931564E+04</totfact>
</mgrwt>
</event>
<event>
 4    1  0.2489209E-004  0.3090135E+03  0.7818608E-02  0.1080820E+00
         -2   -1    0    0    0  501 -0.00000000000E+00  0.00000000000E+00  0.29141895569E+03  0.29141895570E+03  0.25500000000E-02 0. -1.
          2   -1    0    0  501    0  0.00000000000E+00 -0.00000000000E+00 -0.81917577629E+02  0.81917577669E+02  0.25500000000E-02 0.  1.
    5000001    1    1    2    0    0  0.11677042161E+03 -0.40155306739E+02  0.42024754986E+02  0.15146900691E+03  0.77000000000E+02 0.  0.
   -5000001    1    1    2    0    0 -0.11677042161E+03  0.40155306739E+02  0.16747662308E+03  0.22186752646E+03  0.77000000000E+02 0.  0.
<mgrwt>
<rscale>  0 0.30901349E+03</rscale>
<asrwt>0</asrwt>
<pdfrwt beam="1">  1        2 0.12602704E-01 0.30901349E+03</pdfrwt>
<pdfrwt beam="2">  1       -2 0.44833686E-01 0.30901349E+03</pdfrwt>
<totfact> 0.22985976E+03</totfact>
</mgrwt>
</event>
<event>
 4    1  0.2489209E-004  0.2737110E+03  0.7818608E-02  0.1099174E+00
          2   -1    0    0  501    0  0.00000000000E+00  0.00000000000E+00  0.37244757608E+03  0.37244757609E+03  0.25500000000E-02 0.  1.
         -2   -1    0    0    0  501 -0.00000000000E+00 -0.00000000000E+00 -0.50287421835E+02  0.50287421900E+02  0.25500000000E-02 0. -1.
    5000001    1    1    2    0    0 -0.49383400387E+02 -0.77816238681E+02  0.59728581241E+02  0.13412900750E+03  0.77000000000E+02 0.  0.
   -5000001    1    1    2    0    0  0.49383400387E+02  0.77816238681E+02  0.26243157301E+03  0.28860599049E+03  0.77000000000E+02 0.  0.
<mgrwt>
<rscale>  0 0.27371100E+03</rscale>
<asrwt>0</asrwt>
<pdfrwt beam="1">  1        2 0.57299627E-01 0.27371100E+03</pdfrwt>
<pdfrwt beam="2">  1       -2 0.77365265E-02 0.27371100E+03</pdfrwt>
<totfact> 0.85423394E+03</totfact>
</mgrwt>
</event>
<event>
 4    1  0.2489209E-004  0.3769189E+03  0.7818608E-02  0.1052078E+00
          2   -1    0    0  501    0  0.00000000000E+00  0.00000000000E+00  0.35732889545E+03  0.35732889546E+03  0.25500000000E-02 0.  1.
         -2   -1    0    0    0  501 -0.00000000000E+00 -0.00000000000E+00 -0.99395719694E+02  0.99395719726E+02  0.25500000000E-02 0. -1.
    5000001    1    1    2    0    0 -0.89484643888E+02  0.10037511514E+03 -0.10070993732E+01  0.15496025129E+03  0.77000000000E+02 0.  0.
   -5000001    1    1    2    0    0  0.89484643888E+02 -0.10037511514E+03  0.25894027513E+03  0.30176436389E+03  0.77000000000E+02 0.  0.
<mgrwt>
<rscale>  0 0.37691889E+03</rscale>
<asrwt>0</asrwt>
<pdfrwt beam="1">  1        2 0.54973676E-01 0.37691889E+03</pdfrwt>
<pdfrwt beam="2">  1       -2 0.15291649E-01 0.37691889E+03</pdfrwt>
<totfact> 0.30107631E+03</totfact>
</mgrwt>
</event>
<event>
 4    1  0.2489209E-004  0.2015350E+03  0.7818608E-02  0.1148450E+00
          2   -1    0    0  501    0  0.00000000000E+00  0.00000000000E+00  0.10494576468E+03  0.10494576471E+03  0.25500000000E-02 0.  1.
         -2   -1    0    0    0  501 -0.00000000000E+00 -0.00000000000E+00 -0.96755540477E+02  0.96755540510E+02  0.25500000000E-02 0. -1.
    5000001    1    1    2    0    0 -0.32623084441E+02  0.11927833236E+02 -0.50891528211E+02  0.98617881176E+02  0.77000000000E+02 0.  0.
   -5000001    1    1    2    0    0  0.32623084441E+02 -0.11927833236E+02  0.59081752409E+02  0.10308342404E+03  0.77000000000E+02 0.  0.
<mgrwt>
<rscale>  0 0.20153495E+03</rscale>
<asrwt>0</asrwt>
<pdfrwt beam="1">  1        2 0.16145502E-01 0.20153495E+03</pdfrwt>
<pdfrwt beam="2">  1       -2 0.14885468E-01 0.20153495E+03</pdfrwt>
<totfact> 0.11970042E+04</totfact>
</mgrwt>
</event>
<event>
 4    1  0.2489209E-004  0.1866103E+03  0.7818608E-02  0.1161555E+00
          2   -1    0    0  501    0  0.00000000000E+00  0.00000000000E+00  0.40516256402E+02  0.40516256483E+02  0.25500000000E-02 0.  1.
         -2   -1    0    0    0  501 -0.00000000000E+00 -0.00000000000E+00 -0.21487310648E+03  0.21487310649E+03  0.25500000000E-02 0. -1.
    5000001    1    1    2    0    0 -0.35349872555E+02 -0.18697955162E+02 -0.13414306265E+03  0.15975790520E+03  0.77000000000E+02 0.  0.
   -5000001    1    1    2    0    0  0.35349872555E+02  0.18697955162E+02 -0.40213787423E+02  0.95631457773E+02  0.77000000000E+02 0.  0.
<mgrwt>
<rscale>  0 0.18661033E+03</rscale>
<asrwt>0</asrwt>
<pdfrwt beam="1">  1        2 0.62332704E-02 0.18661033E+03</pdfrwt>
<pdfrwt beam="2">  1       -2 0.33057400E-01 0.18661033E+03</pdfrwt>
<totfact> 0.96813110E+03</totfact>
</mgrwt>
</event>
<event>
 4    1  0.2489209E-004  0.1731914E+03  0.7818608E-02  0.1174560E+00
         -2   -1    0    0    0  501 -0.00000000000E+00  0.00000000000E+00  0.32863304348E+02  0.32863304447E+02  0.25500000000E-02 0. -1.
          2   -1    0    0  501    0  0.00000000000E+00 -0.00000000000E+00 -0.22818215261E+03  0.22818215262E+03  0.25500000000E-02 0.  1.
    5000001    1    1    2    0    0 -0.32251881957E+02  0.20054746526E+02 -0.11467502682E+03  0.14325410474E+03  0.77000000000E+02 0.  0.
   -5000001    1    1    2    0    0  0.32251881957E+02 -0.20054746526E+02 -0.80643821445E+02  0.11779135234E+03  0.77000000000E+02 0.  0.
<mgrwt>
<rscale>  0 0.17319145E+03</rscale>
<asrwt>0</asrwt>
<pdfrwt beam="1">  1        2 0.35104946E-01 0.17319145E+03</pdfrwt>
<pdfrwt beam="2">  1       -2 0.50558931E-02 0.17319145E+03</pdfrwt>
<totfact> 0.26954029E+04</totfact>
</mgrwt>
</event>
<event>
 4    1  0.2489209E-004  0.3047872E+03  0.7818608E-02  0.1082872E+00
         -2   -1    0    0    0  501 -0.00000000000E+00  0.00000000000E+00  0.63362159126E+03  0.63362159126E+03  0.25500000000E-02 0. -1.
          2   -1    0    0  501    0  0.00000000000E+00 -0.00000000000E+00 -0.36652491716E+02  0.36652491805E+02  0.25500000000E-02 0.  1.
    5000001    1    1    2    0    0  0.95181048576E+02 -0.44865080837E+02  0.12500901258E+03  0.18063377512E+03  0.77000000000E+02 0.  0.
   -5000001    1    1    2    0    0 -0.95181048576E+02  0.44865080837E+02  0.47196008696E+03  0.48964030795E+03  0.77000000000E+02 0.  0.
<mgrwt>
<rscale>  0 0.30478721E+03</rscale>
<asrwt>0</asrwt>
<pdfrwt beam="1">  1        2 0.56388455E-02 0.30478721E+03</pdfrwt>
<pdfrwt beam="2">  1       -2 0.97480235E-01 0.30478721E+03</pdfrwt>
<totfact> 0.12231335E+03</totfact>
</mgrwt>
</event>
<event>
 4    1  0.2489209E-004  0.4609061E+03  0.7818608E-02  0.1024519E+00
          2   -1    0    0  501    0  0.00000000000E+00  0.00000000000E+00  0.13673160303E+04  0.13673160303E+04  0.25500000000E-02 0.  1.
         -2   -1    0    0    0  501 -0.00000000000E+00 -0.00000000000E+00 -0.38841504366E+02  0.38841504450E+02  0.25500000000E-02 0. -1.
    5000001    1    1    2    0    0  0.73319436703E+02  0.17540779432E+03  0.34373809081E+03  0.40028553456E+03  0.77000000000E+02 0.  0.
   -5000001    1    1    2    0    0 -0.73319436703E+02 -0.17540779432E+03  0.98473643514E+03  0.10058720002E+04  0.77000000000E+02 0.  0.
<mgrwt>
<rscale>  0 0.46090611E+03</rscale>
<asrwt>0</asrwt>
<pdfrwt beam="1">  1        2 0.21035630E+00 0.46090611E+03</pdfrwt>
<pdfrwt beam="2">  1       -2 0.59756165E-02 0.46090611E+03</pdfrwt>
<totfact> 0.23946511E+03</totfact>
</mgrwt>
</event>
<event>
 4    1  0.2489209E-004  0.3149272E+03  0.7818608E-02  0.1078008E+00
         -2   -1    0    0    0  501 -0.00000000000E+00  0.00000000000E+00  0.33630997420E+03  0.33630997421E+03  0.25500000000E-02 0. -1.
          2   -1    0    0  501    0  0.00000000000E+00 -0.00000000000E+00 -0.73726001858E+02  0.73726001903E+02  0.25500000000E-02 0.  1.
    5000001    1    1    2    0    0 -0.76843425036E+02  0.62971065250E+01 -0.16708650667E+02  0.11023948716E+03  0.77000000000E+02 0.  0.
   -5000001    1    1    2    0    0  0.76843425036E+02 -0.62971065250E+01  0.27929262301E+03  0.29979648896E+03  0.77000000000E+02 0.  0.
<mgrwt>
<rscale>  0 0.31492723E+03</rscale>
<asrwt>0</asrwt>
<pdfrwt beam="1">  1        2 0.11342462E-01 0.31492723E+03</pdfrwt>
<pdfrwt beam="2">  1       -2 0.51739996E-01 0.31492723E+03</pdfrwt>
<totfact> 0.19680226E+03</totfact>
</mgrwt>
</event>
<event>
 4    1  0.2489209E-004  0.2156907E+03  0.7818608E-02  0.1137137E+00
         -2   -1    0    0    0  501 -0.00000000000E+00  0.00000000000E+00  0.32493240392E+02  0.32493240492E+02  0.25500000000E-02 0. -1.
          2   -1    0    0  501    0  0.00000000000E+00 -0.00000000000E+00 -0.35793968595E+03  0.35793968596E+03  0.25500000000E-02 0.  1.
    5000001    1    1    2    0    0 -0.26459123449E+02 -0.50723815935E+02 -0.25192954622E+03  0.26957464083E+03  0.77000000000E+02 0.  0.
   -5000001    1    1    2    0    0  0.26459123449E+02  0.50723815935E+02 -0.73516899338E+02  0.12085828563E+03  0.77000000000E+02 0.  0.
<mgrwt>
<rscale>  0 0.21569071E+03</rscale>
<asrwt>0</asrwt>
<pdfrwt beam="1">  1        2 0.55067641E-01 0.21569071E+03</pdfrwt>
<pdfrwt beam="2">  1       -2 0.49989603E-02 0.21569071E+03</pdfrwt>
<totfact> 0.17219152E+04</totfact>
</mgrwt>
</event>
<event>
 4    1  0.2489209E-004  0.2562373E+03  0.7818608E-02  0.1109425E+00
          2   -1    0    0  501    0  0.00000000000E+00  0.00000000000E+00  0.13821890693E+04  0.13821890693E+04  0.25500000000E-02 0.  1.
         -2   -1    0    0    0  501 -0.00000000000E+00 -0.00000000000E+00 -0.11875647892E+02  0.11875648165E+02  0.25500000000E-02 0. -1.
    5000001    1    1    2    0    0 -0.51273375809E+02  0.86590496709E+02  0.78817061848E+03  0.79829117308E+03  0.77000000000E+02 0.  0.
   -5000001    1    1    2    0    0  0.51273375809E+02 -0.86590496709E+02  0.58214280292E+03  0.59577354438E+03  0.77000000000E+02 0.  0.
<mgrwt>
<rscale>  0 0.25623732E+03</rscale>
<asrwt>0</asrwt>
<pdfrwt beam="1">  1        2 0.21264433E+00 0.25623732E+03</pdfrwt>
<pdfrwt beam="2">  1       -2 0.18270240E-02 0.25623732E+03</pdfrwt>
<totfact> 0.13918934E+04</totfact>
</mgrwt>
</event>
<event>
 4    1  0.2489209E-004  0.2682522E+03  0.7818608E-02  0.1102284E+00
          2   -1    0    0  501    0  0.00000000000E+00  0.00000000000E+00  0.46431434078E+03  0.46431434079E+03  0.25500000000E-02 0.  1.
         -2   -1    0    0    0  501 -0.00000000000E+00 -0.00000000000E+00 -0.38744904308E+02  0.38744904392E+02  0.25500000000E-02 0. -1.
    5000001    1    1    2    0    0  0.93478773698E+02  0.54452278932E+02  0.17732759984E+03  0.22153421740E+03  0.77000000000E+02 0.  0.
   -5000001    1    1    2    0    0 -0.93478773698E+02 -0.54452278932E+02  0.24824183663E+03  0.28152502778E+03  0.77000000000E+02 0.  0.
<mgrwt>
<rscale>  0 0.26825223E+03</rscale>
<asrwt>0</asrwt>
<pdfrwt beam="1">  1        2 0.71432984E-01 0.26825223E+03</pdfrwt>
<pdfrwt beam="2">  1       -2 0.59607538E-02 0.26825223E+03</pdfrwt>
<totfact> 0.10040111E+04</totfact>
</mgrwt>
</event>
<event>
 4    1  0.2489209E-004  0.3302975E+03  0.7818608E-02  0.1071005E+00
         -2   -1    0    0    0  501 -0.00000000000E+00  0.00000000000E+00  0.55133382947E+02  0.55133383006E+02  0.25500000000E-02 0. -1.
          2   -1    0    0  501    0  0.00000000000E+00 -0.00000000000E+00 -0.49469320473E+03  0.49469320473E+03  0.25500000000E-02 0.  1.
    5000001    1    1    2    0    0  0.75014757644E+02 -0.10849461496E+03 -0.11520107340E+03  0.19130756036E+03  0.77000000000E+02 0.  0.
   -5000001    1    1    2    0    0 -0.75014757644E+02  0.10849461496E+03 -0.32435874838E+03  0.35851902738E+03  0.77000000000E+02 0.  0.
<mgrwt>
<rscale>  0 0.33029750E+03</rscale>
<asrwt>0</asrwt>
<pdfrwt beam="1">  1        2 0.76106644E-01 0.33029750E+03</pdfrwt>
<pdfrwt beam="2">  1       -2 0.84820593E-02 0.33029750E+03</pdfrwt>
<totfact> 0.54439127E+03</totfact>
</mgrwt>
</event>
<event>
 4    1  0.2489209E-004  0.1881019E+03  0.7818608E-02  0.1160185E+00
          2   -1    0    0  501    0  0.00000000000E+00  0.00000000000E+00  0.18593005660E+03  0.18593005661E+03  0.25500000000E-02 0.  1.
         -2   -1    0    0    0  501 -0.00000000000E+00 -0.00000000000E+00 -0.47574784936E+02  0.47574785004E+02  0.25500000000E-02 0. -1.
    5000001    1    1    2    0    0 -0.47712467897E+02  0.14813217850E+02  0.43716709779E+02  0.10166642381E+03  0.77000000000E+02 0.  0.
   -5000001    1    1    2    0    0  0.47712467897E+02 -0.14813217850E+02  0.94638561881E+02  0.13183841781E+03  0.77000000000E+02 0.  0.
<mgrwt>
<rscale>  0 0.18810191E+03</rscale>
<asrwt>0</asrwt>
<pdfrwt beam="1">  1        2 0.28604624E-01 0.18810191E+03</pdfrwt>
<pdfrwt beam="2">  1       -2 0.73191978E-02 0.18810191E+03</pdfrwt>
<totfact> 0.19276898E+04</totfact>
</mgrwt>
</event>
<event>
 4    1  0.2489209E-004  0.3446062E+03  0.7818608E-02  0.1064851E+00
         -2   -1    0    0    0  501 -0.00000000000E+00  0.00000000000E+00  0.22919888865E+02  0.22919889007E+02  0.25500000000E-02 0. -1.
          2   -1    0    0  501    0  0.00000000000E+00 -0.00000000000E+00 -0.12953094924E+04  0.12953094924E+04  0.25500000000E-02 0.  1.
    5000001    1    1    2    0    0 -0.14636306230E+03  0.35547221041E+02 -0.51085501047E+03  0.53813343388E+03  0.77000000000E+02 0.  0.
   -5000001    1    1    2    0    0  0.14636306230E+03 -0.35547221041E+02 -0.76153459307E+03  0.78009594754E+03  0.77000000000E+02 0.  0.
<mgrwt>
<rscale>  0 0.34460615E+03</rscale>
<asrwt>0</asrwt>
<pdfrwt beam="1">  1        2 0.19927833E+00 0.34460615E+03</pdfrwt>
<pdfrwt beam="2">  1       -2 0.35261378E-02 0.34460615E+03</pdfrwt>
<totfact> 0.58883467E+03</totfact>
</mgrwt>
</event>
<event>
 4    1  0.2489209E-004  0.2932992E+03  0.7818608E-02  0.1088639E+00
          2   -1    0    0  501    0  0.00000000000E+00  0.00000000000E+00  0.91674706792E+03  0.91674706793E+03  0.25500000000E-02 0.  1.
         -2   -1    0    0    0  501 -0.00000000000E+00 -0.00000000000E+00 -0.23459142069E+02  0.23459142208E+02  0.25500000000E-02 0. -1.
    5000001    1    1    2    0    0  0.73797260642E+02 -0.93678621853E+02  0.56466048521E+03  0.58223035255E+03  0.77000000000E+02 0.  0.
   -5000001    1    1    2    0    0 -0.73797260642E+02  0.93678621853E+02  0.32862744064E+03  0.35797585758E+03  0.77000000000E+02 0.  0.
<mgrwt>
<rscale>  0 0.29329916E+03</rscale>
<asrwt>0</asrwt>
<pdfrwt beam="1">  1        2 0.14103801E+00 0.29329916E+03</pdfrwt>
<pdfrwt beam="2">  1       -2 0.36090988E-02 0.29329916E+03</pdfrwt>
<totfact> 0.95089837E+03</totfact>
</mgrwt>
</event>
<event>
 4    1  0.2489209E-004  0.2111300E+03  0.7818608E-02  0.1140674E+00
         -2   -1    0    0    0  501 -0.00000000000E+00  0.00000000000E+00  0.84531046820E+01  0.84531050666E+01  0.25500000000E-02 0. -1.
          2   -1    0    0  501    0  0.00000000000E+00 -0.00000000000E+00 -0.13183284241E+04  0.13183284241E+04  0.25500000000E-02 0.  1.
    5000001    1    1    2    0    0  0.10542438638E+02  0.70490776899E+02 -0.58195553775E+03  0.59133860059E+03  0.77000000000E+02 0.  0.
   -5000001    1    1    2    0    0 -0.10542438638E+02 -0.70490776899E+02 -0.72791978165E+03  0.73544292855E+03  0.77000000000E+02 0.  0.
<mgrwt>
<rscale>  0 0.21112999E+03</rscale>
<asrwt>0</asrwt>
<pdfrwt beam="1">  1        2 0.20281959E+00 0.21112999E+03</pdfrwt>
<pdfrwt beam="2">  1       -2 0.13004787E-02 0.21112999E+03</pdfrwt>
<totfact> 0.24555537E+04</totfact>
</mgrwt>
</event>
<event>
 4    1  0.2489209E-004  0.1771772E+03  0.7818608E-02  0.1170563E+00
         -2   -1    0    0    0  501 -0.00000000000E+00  0.00000000000E+00  0.30478781516E+01  0.30478792183E+01  0.25500000000E-02 0. -1.
          2   -1    0    0  501    0  0.00000000000E+00 -0.00000000000E+00 -0.25748848722E+04  0.25748848722E+04  0.25500000000E-02 0.  1.
    5000001    1    1    2    0    0 -0.23440523581E+02  0.23271235917E+02 -0.17045772425E+04  0.17066351644E+04  0.77000000000E+02 0.  0.
   -5000001    1    1    2    0    0  0.23440523581E+02 -0.23271235917E+02 -0.86725975149E+03  0.87129758701E+03  0.77000000000E+02 0.  0.
<mgrwt>
<rscale>  0 0.17717716E+03</rscale>
<asrwt>0</asrwt>
<pdfrwt beam="1">  1        2 0.39613440E+00 0.17717716E+03</pdfrwt>
<pdfrwt beam="2">  1       -2 0.46890647E-03 0.17717716E+03</pdfrwt>
<totfact> 0.22942880E+04</totfact>
</mgrwt>
</event>
<event>
 4    1  0.2489209E-004  0.1923577E+03  0.7818608E-02  0.1156352E+00
          2   -1    0    0  501    0  0.00000000000E+00  0.00000000000E+00  0.15289990595E+04  0.15289990595E+04  0.25500000000E-02 0.  1.
         -2   -1    0    0    0  501 -0.00000000000E+00 -0.00000000000E+00 -0.60499521539E+01  0.60499526913E+01  0.25500000000E-02 0. -1.
    5000001    1    1    2    0    0  0.15812121459E+01 -0.55476631029E+02  0.88541543727E+03  0.89048843528E+03  0.77000000000E+02 0.  0.
   -5000001    1    1    2    0    0 -0.15812121459E+01  0.55476631029E+02  0.63753367006E+03  0.64456057689E+03  0.77000000000E+02 0.  0.
<mgrwt>
<rscale>  0 0.19235770E+03</rscale>
<asrwt>0</asrwt>
<pdfrwt beam="1">  1        2 0.23523106E+00 0.19235770E+03</pdfrwt>
<pdfrwt beam="2">  1       -2 0.93076020E-03 0.19235770E+03</pdfrwt>
<totfact> 0.30546609E+04</totfact>
</mgrwt>
</event>
<event>
 4    1  0.2489209E-004  0.1945550E+03  0.7818608E-02  0.1154416E+00
          2   -1    0    0  501    0  0.00000000000E+00  0.00000000000E+00  0.15503179758E+03  0.15503179760E+03  0.25500000000E-02 0.  1.
         -2   -1    0    0    0  501 -0.00000000000E+00 -0.00000000000E+00 -0.61038550513E+02  0.61038550567E+02  0.25500000000E-02 0. -1.
    5000001    1    1    2    0    0  0.98120032007E+01  0.39436218144E+02  0.95181591895E+02  0.12899622531E+03  0.77000000000E+02 0.  0.
   -5000001    1    1    2    0    0 -0.98120032007E+01 -0.39436218144E+02 -0.11883448275E+01  0.87074122860E+02  0.77000000000E+02 0.  0.
<mgrwt>
<rscale>  0 0.19455504E+03</rscale>
<asrwt>0</asrwt>
<pdfrwt beam="1">  1        2 0.23851046E-01 0.19455504E+03</pdfrwt>
<pdfrwt beam="2">  1       -2 0.93905463E-02 0.19455504E+03</pdfrwt>
<totfact> 0.16025998E+04</totfact>
</mgrwt>
</event>
<event>
 4    1  0.2489209E-004  0.5386130E+03  0.7818608E-02  0.1004164E+00
          2   -1    0    0  501    0  0.00000000000E+00  0.00000000000E+00  0.15610155187E+04  0.15610155187E+04  0.25500000000E-02 0.  1.
         -2   -1    0    0    0  501 -0.00000000000E+00 -0.00000000000E+00 -0.46460781160E+02  0.46460781230E+02  0.25500000000E-02 0. -1.
    5000001    1    1    2    0    0 -0.12163479049E+03  0.88947739714E+02  0.13825247531E+04  0.13928425667E+04  0.77000000000E+02 0.  0.
   -5000001    1    1    2    0    0  0.12163479049E+03 -0.88947739714E+02  0.13202998447E+03  0.21463373327E+03  0.77000000000E+02 0.  0.
<mgrwt>
<rscale>  0 0.53861304E+03</rscale>
<asrwt>0</asrwt>
<pdfrwt beam="1">  1        2 0.24015620E+00 0.53861304E+03</pdfrwt>
<pdfrwt beam="2">  1       -2 0.71478134E-02 0.53861304E+03</pdfrwt>
<totfact> 0.14105148E+03</totfact>
</mgrwt>
</event>
<event>
 4    1  0.2489209E-004  0.4075013E+03  0.7818608E-02  0.1041213E+00
         -2   -1    0    0    0  501 -0.00000000000E+00  0.00000000000E+00  0.25729901483E+02  0.25729901610E+02  0.25500000000E-02 0. -1.
          2   -1    0    0  501    0  0.00000000000E+00 -0.00000000000E+00 -0.16134662051E+04  0.16134662051E+04  0.25500000000E-02 0.  1.
    5000001    1    1    2    0    0  0.47666223431E+02  0.17028993958E+03 -0.52964437345E+03  0.56366913584E+03  0.77000000000E+02 0.  0.
   -5000001    1    1    2    0    0 -0.47666223431E+02 -0.17028993958E+03 -0.10580919301E+04  0.10755269708E+04  0.77000000000E+02 0.  0.
<mgrwt>
<rscale>  0 0.40750130E+03</rscale>
<asrwt>0</asrwt>
<pdfrwt beam="1">  1        2 0.24822549E+00 0.40750130E+03</pdfrwt>
<pdfrwt beam="2">  1       -2 0.39584477E-02 0.40750130E+03</pdfrwt>
<totfact> 0.33119827E+03</totfact>
</mgrwt>
</event>
<event>
 4    1  0.2489209E-004  0.1788583E+03  0.7818608E-02  0.1168913E+00
          2   -1    0    0  501    0  0.00000000000E+00  0.00000000000E+00  0.14777377506E+04  0.14777377506E+04  0.25500000000E-02 0.  1.
         -2   -1    0    0    0  501 -0.00000000000E+00 -0.00000000000E+00 -0.54120386013E+01  0.54120392021E+01  0.25500000000E-02 0. -1.
    5000001    1    1    2    0    0  0.32327921697E+02  0.31800411038E+02  0.70718297976E+03  0.71280651479E+03  0.77000000000E+02 0.  0.
   -5000001    1    1    2    0    0 -0.32327921697E+02 -0.31800411038E+02  0.76514273222E+03  0.77034327500E+03  0.77000000000E+02 0.  0.
<mgrwt>
<rscale>  0 0.17885831E+03</rscale>
<asrwt>0</asrwt>
<pdfrwt beam="1">  1        2 0.22734412E+00 0.17885831E+03</pdfrwt>
<pdfrwt beam="2">  1       -2 0.83262193E-03 0.17885831E+03</pdfrwt>
<totfact> 0.37981436E+04</totfact>
</mgrwt>
</event>
<event>
 4    1  0.2489209E-004  0.1910549E+03  0.7818608E-02  0.1157513E+00
          2   -1    0    0  501    0  0.00000000000E+00  0.00000000000E+00  0.25561449777E+03  0.25561449778E+03  0.25500000000E-02 0.  1.
         -2   -1    0    0    0  501 -0.00000000000E+00 -0.00000000000E+00 -0.35700219955E+02  0.35700220046E+02  0.25500000000E-02 0. -1.
    5000001    1    1    2    0    0 -0.46179746702E+02  0.17482009609E+02  0.67969064500E+02  0.11396044662E+03  0.77000000000E+02 0.  0.
   -5000001    1    1    2    0    0  0.46179746702E+02 -0.17482009609E+02  0.15194521331E+03  0.17735427120E+03  0.77000000000E+02 0.  0.
<mgrwt>
<rscale>  0 0.19105490E+03</rscale>
<asrwt>0</asrwt>
<pdfrwt beam="1">  1        2 0.39325306E-01 0.19105490E+03</pdfrwt>
<pdfrwt beam="2">  1       -2 0.54923417E-02 0.19105490E+03</pdfrwt>
<totfact> 0.21223912E+04</totfact>
</mgrwt>
</event>
<event>
 4    1  0.2489209E-004  0.2094376E+03  0.7818608E-02  0.1142012E+00
          2   -1    0    0  501    0  0.00000000000E+00  0.00000000000E+00  0.32672514980E+03  0.32672514981E+03  0.25500000000E-02 0.  1.
         -2   -1    0    0    0  501 -0.00000000000E+00 -0.00000000000E+00 -0.33563473425E+02  0.33563473521E+02  0.25500000000E-02 0. -1.
    5000001    1    1    2    0    0  0.12991444508E+01  0.68869919044E+02  0.11717094681E+03  0.15621390560E+03  0.77000000000E+02 0.  0.
   -5000001    1    1    2    0    0 -0.12991444508E+01 -0.68869919044E+02  0.17599072956E+03  0.20407471773E+03  0.77000000000E+02 0.  0.
<mgrwt>
<rscale>  0 0.20943764E+03</rscale>
<asrwt>0</asrwt>
<pdfrwt beam="1">  1        2 0.50265411E-01 0.20943764E+03</pdfrwt>
<pdfrwt beam="2">  1       -2 0.51636110E-02 0.20943764E+03</pdfrwt>
<totfact> 0.18045139E+04</totfact>
</mgrwt>
</event>
<event>
 4    1  0.2489209E-004  0.1905238E+03  0.7818608E-02  0.1157990E+00
         -2   -1    0    0    0  501 -0.00000000000E+00  0.00000000000E+00  0.23376512076E+02  0.23376512215E+02  0.25500000000E-02 0. -1.
          2   -1    0    0  501    0  0.00000000000E+00 -0.00000000000E+00 -0.38820286102E+03  0.38820286103E+03  0.25500000000E-02 0.  1.
    5000001    1    1    2    0    0 -0.38774993021E+02  0.40483976948E+02 -0.17844370017E+03  0.20227112153E+03  0.77000000000E+02 0.  0.
   -5000001    1    1    2    0    0  0.38774993021E+02 -0.40483976948E+02 -0.18638264878E+03  0.20930825172E+03  0.77000000000E+02 0.  0.
<mgrwt>
<rscale>  0 0.19052379E+03</rscale>
<asrwt>0</asrwt>
<pdfrwt beam="1">  1        2 0.59723512E-01 0.19052379E+03</pdfrwt>
<pdfrwt beam="2">  1       -2 0.35963868E-02 0.19052379E+03</pdfrwt>
<totfact> 0.25637294E+04</totfact>
</mgrwt>
</event>
<event>
 4    1  0.2489209E-004  0.2039906E+03  0.7818608E-02  0.1146415E+00
          2   -1    0    0  501    0  0.00000000000E+00  0.00000000000E+00  0.15485333993E+04  0.15485333993E+04  0.25500000000E-02 0.  1.
         -2   -1    0    0    0  501 -0.00000000000E+00 -0.00000000000E+00 -0.67179944059E+01  0.67179948898E+01  0.25500000000E-02 0. -1.
    5000001    1    1    2    0    0  0.57168888380E+02  0.31605843458E+02  0.66126111879E+03  0.66892636244E+03  0.77000000000E+02 0.  0.
   -5000001    1    1    2    0    0 -0.57168888380E+02 -0.31605843458E+02  0.88055428607E+03  0.88632503172E+03  0.77000000000E+02 0.  0.
<mgrwt>
<rscale>  0 0.20399058E+03</rscale>
<asrwt>0</asrwt>
<pdfrwt beam="1">  1        2 0.23823590E+00 0.20399058E+03</pdfrwt>
<pdfrwt beam="2">  1       -2 0.10335377E-02 0.20399058E+03</pdfrwt>
<totfact> 0.25733118E+04</totfact>
</mgrwt>
</event>
<event>
 4    1  0.2489209E-004  0.1674497E+03  0.7818608E-02  0.1180534E+00
         -2   -1    0    0    0  501 -0.00000000000E+00  0.00000000000E+00  0.11163911285E+02  0.11163911576E+02  0.25500000000E-02 0. -1.
          2   -1    0    0  501    0  0.00000000000E+00 -0.00000000000E+00 -0.62790256666E+03  0.62790256666E+03  0.25500000000E-02 0.  1.
    5000001    1    1    2    0    0  0.18903662179E+02 -0.43782461465E+01 -0.40965550324E+03  0.41728065953E+03  0.77000000000E+02 0.  0.
   -5000001    1    1    2    0    0 -0.18903662179E+02  0.43782461465E+01 -0.20708315213E+03  0.22178581871E+03  0.77000000000E+02 0.  0.
<mgrwt>
<rscale>  0 0.16744968E+03</rscale>
<asrwt>0</asrwt>
<pdfrwt beam="1">  1        2 0.96600367E-01 0.16744968E+03</pdfrwt>
<pdfrwt beam="2">  1       -2 0.17175253E-02 0.16744968E+03</pdfrwt>
<totfact> 0.44054141E+04</totfact>
</mgrwt>
</event>
<event>
 4    1  0.2489209E-004  0.3365464E+03  0.7818608E-02  0.1068276E+00
         -2   -1    0    0    0  501 -0.00000000000E+00  0.00000000000E+00  0.22830257291E+02  0.22830257433E+02  0.25500000000E-02 0. -1.
          2   -1    0    0  501    0  0.00000000000E+00 -0.00000000000E+00 -0.12402782303E+04  0.12402782303E+04  0.25500000000E-02 0.  1.
    5000001    1    1    2    0    0 -0.80076697967E+02 -0.93757687877E+02 -0.92683709395E+03  0.93816777834E+03  0.77000000000E+02 0.  0.
   -5000001    1    1    2    0    0  0.80076697967E+02  0.93757687877E+02 -0.29061087903E+03  0.32494070937E+03  0.77000000000E+02 0.  0.
<mgrwt>
<rscale>  0 0.33654641E+03</rscale>
<asrwt>0</asrwt>
<pdfrwt beam="1">  1        2 0.19081198E+00 0.33654641E+03</pdfrwt>
<pdfrwt beam="2">  1       -2 0.35123482E-02 0.33654641E+03</pdfrwt>
<totfact> 0.63597431E+03</totfact>
</mgrwt>
</event>
<event>
 4    1  0.2489209E-004  0.5149938E+03  0.7818608E-02  0.1009938E+00
         -2   -1    0    0    0  501 -0.00000000000E+00  0.00000000000E+00  0.53536115466E+02  0.53536115527E+02  0.25500000000E-02 0. -1.
          2   -1    0    0  501    0  0.00000000000E+00 -0.00000000000E+00 -0.12385034634E+04  0.12385034634E+04  0.25500000000E-02 0.  1.
    5000001    1    1    2    0    0  0.19792995998E+03 -0.59684233549E+02 -0.25929636634E+03  0.34044394897E+03  0.77000000000E+02 0.  0.
   -5000001    1    1    2    0    0 -0.19792995998E+03  0.59684233549E+02 -0.92567098155E+03  0.95159562991E+03  0.77000000000E+02 0.  0.
<mgrwt>
<rscale>  0 0.51499384E+03</rscale>
<asrwt>0</asrwt>
<pdfrwt beam="1">  1        2 0.19053897E+00 0.51499384E+03</pdfrwt>
<pdfrwt beam="2">  1       -2 0.82363264E-02 0.51499384E+03</pdfrwt>
<totfact> 0.17081633E+03</totfact>
</mgrwt>
</event>
<event>
 4    1  0.2489209E-004  0.3405016E+03  0.7818608E-02  0.1066582E+00
          2   -1    0    0  501    0  0.00000000000E+00  0.00000000000E+00  0.40796728020E+03  0.40796728021E+03  0.25500000000E-02 0. -1.
         -2   -1    0    0    0  501 -0.00000000000E+00 -0.00000000000E+00 -0.71048186894E+02  0.71048186940E+02  0.25500000000E-02 0.  1.
    5000001    1    1    2    0    0  0.11322127822E+03 -0.50219719199E+02  0.29202742464E+03  0.32642012006E+03  0.77000000000E+02 0.  0.
   -5000001    1    1    2    0    0 -0.11322127822E+03  0.50219719199E+02  0.44891668665E+02  0.15259534709E+03  0.77000000000E+02 0.  0.
<mgrwt>
<rscale>  0 0.34050160E+03</rscale>
<asrwt>0</asrwt>
<pdfrwt beam="1">  1        2 0.62764199E-01 0.34050160E+03</pdfrwt>
<pdfrwt beam="2">  1       -2 0.10930490E-01 0.34050160E+03</pdfrwt>
<totfact> 0.45051883E+03</totfact>
</mgrwt>
</event>
<event>
 4    1  0.2489209E-004  0.4435550E+03  0.7818608E-02  0.1029662E+00
          2   -1    0    0  501    0  0.00000000000E+00  0.00000000000E+00  0.48022854293E+02  0.48022854361E+02  0.25500000000E-02 0.  1.
         -2   -1    0    0    0  501 -0.00000000000E+00 -0.00000000000E+00 -0.10242052417E+04  0.10242052417E+04  0.25500000000E-02 0. -1.
    5000001    1    1    2    0    0 -0.10999009361E+03 -0.12064932989E+03 -0.17661688285E+03  0.25254030333E+03  0.77000000000E+02 0.  0.
   -5000001    1    1    2    0    0  0.10999009361E+03  0.12064932989E+03 -0.79956550455E+03  0.81968779273E+03  0.77000000000E+02 0.  0.
<mgrwt>
<rscale>  0 0.44355500E+03</rscale>
<asrwt>0</asrwt>
<pdfrwt beam="1">  1        2 0.73881322E-02 0.44355500E+03</pdfrwt>
<pdfrwt beam="2">  1       -2 0.15757002E+00 0.44355500E+03</pdfrwt>
<totfact> 0.26281782E+02</totfact>
</mgrwt>
</event>
<event>
 4    1  0.2489209E-004  0.2826377E+03  0.7818608E-02  0.1094257E+00
         -2   -1    0    0    0  501 -0.00000000000E+00  0.00000000000E+00  0.29005253510E+02  0.29005253623E+02  0.25500000000E-02 0. -1.
          2   -1    0    0  501    0  0.00000000000E+00 -0.00000000000E+00 -0.68853092397E+03  0.68853092397E+03  0.25500000000E-02 0.  1.
    5000001    1    1    2    0    0 -0.13861612482E+02  0.11040131086E+03 -0.22628352982E+03  0.26365475457E+03  0.77000000000E+02 0.  0.
   -5000001    1    1    2    0    0  0.13861612482E+02 -0.11040131086E+03 -0.43324214064E+03  0.45388142303E+03  0.77000000000E+02 0.  0.
<mgrwt>
<rscale>  0 0.28263768E+03</rscale>
<asrwt>0</asrwt>
<pdfrwt beam="1">  1        2 0.10592782E+00 0.28263768E+03</pdfrwt>
<pdfrwt beam="2">  1       -2 0.44623472E-02 0.28263768E+03</pdfrwt>
<totfact> 0.99385465E+03</totfact>
</mgrwt>
</event>
<event>
 4    1  0.2489209E-004  0.2600983E+03  0.7818608E-02  0.1107084E+00
         -2   -1    0    0    0  501 -0.00000000000E+00  0.00000000000E+00  0.76850205013E+01  0.76850209244E+01  0.25500000000E-02 0. -1.
          2   -1    0    0  501    0  0.00000000000E+00 -0.00000000000E+00 -0.22007461002E+04  0.22007461002E+04  0.25500000000E-02 0.  1.
    5000001    1    1    2    0    0  0.86058583817E+02  0.14535198451E+02 -0.60388902645E+03  0.61500268951E+03  0.77000000000E+02 0.  0.
   -5000001    1    1    2    0    0 -0.86058583817E+02 -0.14535198451E+02 -0.15891720533E+04  0.15934284316E+04  0.77000000000E+02 0.  0.
<mgrwt>
<rscale>  0 0.26009828E+03</rscale>
<asrwt>0</asrwt>
<pdfrwt beam="1">  1        2 0.33857582E+00 0.26009828E+03</pdfrwt>
<pdfrwt beam="2">  1       -2 0.11823126E-02 0.26009828E+03</pdfrwt>
<totfact> 0.97121608E+03</totfact>
</mgrwt>
</event>
<event>
 4    1  0.2489209E-004  0.1782335E+03  0.7818608E-02  0.1169524E+00
          2   -1    0    0  501    0  0.00000000000E+00  0.00000000000E+00  0.55182104825E+03  0.55182104826E+03  0.25500000000E-02 0.  1.
         -2   -1    0    0    0  501 -0.00000000000E+00 -0.00000000000E+00 -0.14391977536E+02  0.14391977762E+02  0.25500000000E-02 0. -1.
    5000001    1    1    2    0    0  0.31315129095E+02  0.22126113948E+02  0.19471517392E+03  0.21286897656E+03  0.77000000000E+02 0.  0.
   -5000001    1    1    2    0    0 -0.31315129095E+02 -0.22126113948E+02  0.34271389680E+03  0.35334404946E+03  0.77000000000E+02 0.  0.
<mgrwt>
<rscale>  0 0.17823351E+03</rscale>
<asrwt>0</asrwt>
<pdfrwt beam="1">  1        2 0.84895543E-01 0.17823351E+03</pdfrwt>
<pdfrwt beam="2">  1       -2 0.22141505E-02 0.17823351E+03</pdfrwt>
<totfact> 0.35455369E+04</totfact>
</mgrwt>
</event>
<event>
 4    1  0.2489209E-004  0.2501255E+03  0.7818608E-02  0.1113226E+00
         -2   -1    0    0    0  501 -0.00000000000E+00  0.00000000000E+00  0.22115635764E+02  0.22115635911E+02  0.25500000000E-02 0. -1.
          2   -1    0    0  501    0  0.00000000000E+00 -0.00000000000E+00 -0.70722329236E+03  0.70722329237E+03  0.25500000000E-02 0.  1.
    5000001    1    1    2    0    0  0.76701948718E+02  0.58355778527E+02 -0.40253245186E+03  0.42101064194E+03  0.77000000000E+02 0.  0.
   -5000001    1    1    2    0    0 -0.76701948718E+02 -0.58355778527E+02 -0.28257520474E+03  0.30832828634E+03  0.77000000000E+02 0.  0.
<mgrwt>
<rscale>  0 0.25012551E+03</rscale>
<asrwt>0</asrwt>
<pdfrwt beam="1">  1        2 0.10880357E+00 0.25012551E+03</pdfrwt>
<pdfrwt beam="2">  1       -2 0.34024061E-02 0.25012551E+03</pdfrwt>
<totfact> 0.14388592E+04</totfact>
</mgrwt>
</event>
<event>
 4    1  0.2489209E-004  0.1902579E+03  0.7818608E-02  0.1158229E+00
         -2   -1    0    0    0  501 -0.00000000000E+00  0.00000000000E+00  0.51496081334E+01  0.51496087648E+01  0.25500000000E-02 0. -1.
          2   -1    0    0  501    0  0.00000000000E+00 -0.00000000000E+00 -0.17573213540E+04  0.17573213541E+04  0.25500000000E-02 0.  1.
    5000001    1    1    2    0    0 -0.55191364119E+02  0.84907456036E+01 -0.86192299469E+03  0.86715536567E+03  0.77000000000E+02 0.  0.
   -5000001    1    1    2    0    0  0.55191364119E+02 -0.84907456036E+01 -0.89024875122E+03  0.89531559714E+03  0.77000000000E+02 0.  0.
<mgrwt>
<rscale>  0 0.19025790E+03</rscale>
<asrwt>0</asrwt>
<pdfrwt beam="1">  1        2 0.27035665E+00 0.19025790E+03</pdfrwt>
<pdfrwt beam="2">  1       -2 0.79224886E-03 0.19025790E+03</pdfrwt>
<totfact> 0.29253298E+04</totfact>
</mgrwt>
</event>
<event>
 4    1  0.2489209E-004  0.3047021E+03  0.7818608E-02  0.1082913E+00
          2   -1    0    0  501    0  0.00000000000E+00  0.00000000000E+00  0.19191964508E+03  0.19191964510E+03  0.25500000000E-02 0.  1.
         -2   -1    0    0    0  501 -0.00000000000E+00 -0.00000000000E+00 -0.12094039670E+03  0.12094039673E+03  0.25500000000E-02 0. -1.
    5000001    1    1    2    0    0 -0.62900813208E+02 -0.72828993186E+02  0.12744901460E+03  0.17729305083E+03  0.77000000000E+02 0.  0.
   -5000001    1    1    2    0    0  0.62900813208E+02  0.72828993186E+02 -0.56469766221E+02  0.13556699100E+03  0.77000000000E+02 0.  0.
<mgrwt>
<rscale>  0 0.30470207E+03</rscale>
<asrwt>0</asrwt>
<pdfrwt beam="1">  1        2 0.29526099E-01 0.30470207E+03</pdfrwt>
<pdfrwt beam="2">  1       -2 0.18606215E-01 0.30470207E+03</pdfrwt>
<totfact> 0.42410123E+03</totfact>
</mgrwt>
</event>
<event>
 4    1  0.2489209E-004  0.6110877E+03  0.7818608E-02  0.9882666E-01
         -2   -1    0    0    0  501 -0.00000000000E+00  0.00000000000E+00  0.66583421582E+02  0.66583421631E+02  0.25500000000E-02 0. -1.
          2   -1    0    0  501    0  0.00000000000E+00 -0.00000000000E+00 -0.14021066112E+04  0.14021066112E+04  0.25500000000E-02 0.  1.
    5000001    1    1    2    0    0 -0.10399734028E+03 -0.27399725734E+03 -0.76202009681E+03  0.82005705396E+03  0.77000000000E+02 0.  0.
   -5000001    1    1    2    0    0  0.10399734028E+03  0.27399725734E+03 -0.57350309280E+03  0.64863297886E+03  0.77000000000E+02 0.  0.
<mgrwt>
<rscale>  0 0.61108774E+03</rscale>
<asrwt>0</asrwt>
<pdfrwt beam="1">  1        2 0.21570869E+00 0.61108774E+03</pdfrwt>
<pdfrwt beam="2">  1       -2 0.10243604E-01 0.61108774E+03</pdfrwt>
<totfact> 0.96766683E+02</totfact>
</mgrwt>
</event>
<event>
 4    1  0.2489209E-004  0.3109369E+03  0.7818608E-02  0.1079898E+00
          2   -1    0    0  501    0  0.00000000000E+00  0.00000000000E+00  0.16345807493E+03  0.16345807495E+03  0.25500000000E-02 0.  1.
         -2   -1    0    0    0  501 -0.00000000000E+00 -0.00000000000E+00 -0.14786932668E+03  0.14786932670E+03  0.25500000000E-02 0. -1.
    5000001    1    1    2    0    0 -0.53888530512E+02  0.12208733334E+03 -0.13019827664E+02  0.15462149461E+03  0.77000000000E+02 0.  0.
   -5000001    1    1    2    0    0  0.53888530512E+02 -0.12208733334E+03  0.28608575913E+02  0.15670590703E+03  0.77000000000E+02 0.  0.
<mgrwt>
<rscale>  0 0.31093688E+03</rscale>
<asrwt>0</asrwt>
<pdfrwt beam="1">  1        2 0.25147396E-01 0.31093688E+03</pdfrwt>
<pdfrwt beam="2">  1       -2 0.22749127E-01 0.31093688E+03</pdfrwt>
<totfact> 0.35881685E+03</totfact>
</mgrwt>
</event>
<event>
 4    1  0.2489209E-004  0.2082019E+03  0.7818608E-02  0.1142998E+00
         -2   -1    0    0    0  501 -0.00000000000E+00  0.00000000000E+00  0.36339067863E+01  0.36339076810E+01  0.25500000000E-02 0. -1.
          2   -1    0    0  501    0  0.00000000000E+00 -0.00000000000E+00 -0.29821903918E+04  0.29821903918E+04  0.25500000000E-02 0.  1.
    5000001    1    1    2    0    0  0.10732104753E+02  0.45905584848E+02 -0.74610095750E+03  0.75154383743E+03  0.77000000000E+02 0.  0.
   -5000001    1    1    2    0    0 -0.10732104753E+02 -0.45905584848E+02 -0.22324555275E+04  0.22342804621E+04  0.77000000000E+02 0.  0.
<mgrwt>
<rscale>  0 0.20820186E+03</rscale>
<asrwt>0</asrwt>
<pdfrwt beam="1">  1        2 0.45879656E+00 0.20820186E+03</pdfrwt>
<pdfrwt beam="2">  1       -2 0.55906504E-03 0.20820186E+03</pdfrwt>
<totfact> 0.10551127E+04</totfact>
</mgrwt>
</event>
<event>
 4    1  0.2489209E-004  0.1794865E+03  0.7818608E-02  0.1168301E+00
          2   -1    0    0  501    0  0.00000000000E+00  0.00000000000E+00  0.19171936622E+04  0.19171936622E+04  0.25500000000E-02 0.  1.
         -2   -1    0    0    0  501 -0.00000000000E+00 -0.00000000000E+00 -0.42008541698E+01  0.42008549437E+01  0.25500000000E-02 0. -1.
    5000001    1    1    2    0    0  0.32309683139E+01 -0.18286533763E+02  0.50485203573E+03  0.51102780203E+03  0.77000000000E+02 0.  0.
   -5000001    1    1    2    0    0 -0.32309683139E+01  0.18286533763E+02  0.14081407723E+04  0.14103667151E+04  0.77000000000E+02 0.  0.
<mgrwt>
<rscale>  0 0.17948651E+03</rscale>
<asrwt>0</asrwt>
<pdfrwt beam="1">  1        2 0.29495307E+00 0.17948651E+03</pdfrwt>
<pdfrwt beam="2">  1       -2 0.64628487E-03 0.17948651E+03</pdfrwt>
<totfact> 0.32273186E+04</totfact>
</mgrwt>
</event>
<event>
 4    1  0.2489209E-004  0.2221050E+03  0.7818608E-02  0.1132323E+00
         -2   -1    0    0    0  501 -0.00000000000E+00  0.00000000000E+00  0.48844701704E+03  0.48844701704E+03  0.25500000000E-02 0. -1.
          2   -1    0    0  501    0  0.00000000000E+00 -0.00000000000E+00 -0.25248715319E+02  0.25248715448E+02  0.25500000000E-02 0.  1.
    5000001    1    1    2    0    0  0.64931548409E+02 -0.36470468906E+02  0.16387334566E+03  0.19577965803E+03  0.77000000000E+02 0.  0.
   -5000001    1    1    2    0    0 -0.64931548409E+02  0.36470468906E+02  0.29932495606E+03  0.31791607446E+03  0.77000000000E+02 0.  0.
<mgrwt>
<rscale>  0 0.22210502E+03</rscale>
<asrwt>0</asrwt>
<pdfrwt beam="1">  1        2 0.38844181E-02 0.22210502E+03</pdfrwt>
<pdfrwt beam="2">  1       -2 0.75145687E-01 0.22210502E+03</pdfrwt>
<totfact> 0.35529418E+03</totfact>
</mgrwt>
</event>
<event>
 4    1  0.2489209E-004  0.2461776E+03  0.7818608E-02  0.1115745E+00
         -2   -1    0    0    0  501 -0.00000000000E+00  0.00000000000E+00  0.79926049817E+01  0.79926053885E+01  0.25500000000E-02 0. -1.
          2   -1    0    0  501    0  0.00000000000E+00 -0.00000000000E+00 -0.18956082995E+04  0.18956082995E+04  0.25500000000E-02 0.  1.
    5000001    1    1    2    0    0  0.87491421524E+02  0.28668135676E+02 -0.11549013604E+04  0.11611213387E+04  0.77000000000E+02 0.  0.
   -5000001    1    1    2    0    0 -0.87491421524E+02 -0.28668135676E+02 -0.73271433411E+03  0.74247956622E+03  0.77000000000E+02 0.  0.
<mgrwt>
<rscale>  0 0.24617757E+03</rscale>
<asrwt>0</asrwt>
<pdfrwt beam="1">  1        2 0.29163169E+00 0.24617757E+03</pdfrwt>
<pdfrwt beam="2">  1       -2 0.12296331E-02 0.24617757E+03</pdfrwt>
<totfact> 0.13262998E+04</totfact>
</mgrwt>
</event>
<event>
 4    1  0.2489209E-004  0.2924849E+03  0.7818608E-02  0.1089059E+00
          2   -1    0    0  501    0  0.00000000000E+00  0.00000000000E+00  0.75163352764E+03  0.75163352764E+03  0.25500000000E-02 0.  1.
         -2   -1    0    0    0  501 -0.00000000000E+00 -0.00000000000E+00 -0.28453837843E+02  0.28453837957E+02  0.25500000000E-02 0. -1.
    5000001    1    1    2    0    0  0.47845688732E+02  0.11250987550E+03  0.30134776007E+03  0.33419628142E+03  0.77000000000E+02 0.  0.
   -5000001    1    1    2    0    0 -0.47845688732E+02 -0.11250987550E+03  0.42183192973E+03  0.44589108419E+03  0.77000000000E+02 0.  0.
<mgrwt>
<rscale>  0 0.29248493E+03</rscale>
<asrwt>0</asrwt>
<pdfrwt beam="1">  1        2 0.11563592E+00 0.29248493E+03</pdfrwt>
<pdfrwt beam="2">  1       -2 0.43775138E-02 0.29248493E+03</pdfrwt>
<totfact> 0.91975988E+03</totfact>
</mgrwt>
</event>
<event>
 4    1  0.2489209E-004  0.2411960E+03  0.7818608E-02  0.1118999E+00
          2   -1    0    0  501    0  0.00000000000E+00  0.00000000000E+00  0.33600752003E+03  0.33600752004E+03  0.25500000000E-02 0.  1.
         -2   -1    0    0    0  501 -0.00000000000E+00 -0.00000000000E+00 -0.43284371501E+02  0.43284371576E+02  0.25500000000E-02 0. -1.
    5000001    1    1    2    0    0  0.89509998575E+02 -0.24230385467E+02  0.15259705649E+03  0.19445825535E+03  0.77000000000E+02 0.  0.
   -5000001    1    1    2    0    0 -0.89509998575E+02  0.24230385467E+02  0.14012609204E+03  0.18483363627E+03  0.77000000000E+02 0.  0.
<mgrwt>
<rscale>  0 0.24119597E+03</rscale>
<asrwt>0</asrwt>
<pdfrwt beam="1">  1        2 0.51693463E-01 0.24119597E+03</pdfrwt>
<pdfrwt beam="2">  1       -2 0.66591343E-02 0.24119597E+03</pdfrwt>
<totfact> 0.11974328E+04</totfact>
</mgrwt>
</event>
<event>
 4    1  0.2489209E-004  0.2029065E+03  0.7818608E-02  0.1147310E+00
          2   -1    0    0  501    0  0.00000000000E+00  0.00000000000E+00  0.18791803531E+04  0.18791803531E+04  0.25500000000E-02 0.  1.
         -2   -1    0    0    0  501 -0.00000000000E+00 -0.00000000000E+00 -0.54772592369E+01  0.54772598304E+01  0.25500000000E-02 0. -1.
    5000001    1    1    2    0    0  0.32717869044E+02 -0.21449216418E+02  0.14312505005E+04  0.14338540801E+04  0.77000000000E+02 0.  0.
   -5000001    1    1    2    0    0 -0.32717869044E+02  0.21449216418E+02  0.44245259337E+03  0.45080353284E+03  0.77000000000E+02 0.  0.
<mgrwt>
<rscale>  0 0.20290647E+03</rscale>
<asrwt>0</asrwt>
<pdfrwt beam="1">  1        2 0.28910496E+00 0.20290647E+03</pdfrwt>
<pdfrwt beam="2">  1       -2 0.84265446E-03 0.20290647E+03</pdfrwt>
<totfact> 0.23217549E+04</totfact>
</mgrwt>
</event>
<event>
 4    1  0.2489209E-004  0.3864456E+03  0.7818608E-02  0.1048577E+00
         -2   -1    0    0    0  501 -0.00000000000E+00  0.00000000000E+00  0.20989175473E+03  0.20989175475E+03  0.25500000000E-02 0. -1.
          2   -1    0    0  501    0  0.00000000000E+00 -0.00000000000E+00 -0.17787768277E+03  0.17787768278E+03  0.25500000000E-02 0.  1.
    5000001    1    1    2    0    0  0.14595109693E+03  0.44978700612E+02  0.10621076791E+03  0.20133189868E+03  0.77000000000E+02 0.  0.
   -5000001    1    1    2    0    0 -0.14595109693E+03 -0.44978700612E+02 -0.74196695943E+02  0.18643753885E+03  0.77000000000E+02 0.  0.
<mgrwt>
<rscale>  0 0.38644564E+03</rscale>
<asrwt>0</asrwt>
<pdfrwt beam="1">  1        2 0.27365798E-01 0.38644564E+03</pdfrwt>
<pdfrwt beam="2">  1       -2 0.32291039E-01 0.38644564E+03</pdfrwt>
<totfact> 0.17462401E+03</totfact>
</mgrwt>
</event>
<event>
 4    1  0.2489209E-004  0.2863801E+03  0.7818608E-02  0.1092254E+00
          2   -1    0    0  501    0  0.00000000000E+00  0.00000000000E+00  0.19483722652E+03  0.19483722654E+03  0.25500000000E-02 0.  1.
         -2   -1    0    0    0  501 -0.00000000000E+00 -0.00000000000E+00 -0.10523345421E+03  0.10523345424E+03  0.25500000000E-02 0. -1.
    5000001    1    1    2    0    0 -0.39515214114E+02 -0.11405125998E+03  0.42400533309E+02  0.14931827508E+03  0.77000000000E+02 0.  0.
   -5000001    1    1    2    0    0  0.39515214114E+02  0.11405125998E+03  0.47203239006E+02  0.15075240569E+03  0.77000000000E+02 0.  0.
<mgrwt>
<rscale>  0 0.28638013E+03</rscale>
<asrwt>0</asrwt>
<pdfrwt beam="1">  1        2 0.29974958E-01 0.28638013E+03</pdfrwt>
<pdfrwt beam="2">  1       -2 0.16189762E-01 0.28638013E+03</pdfrwt>
<totfact> 0.52617718E+03</totfact>
</mgrwt>
</event>
<event>
 4    1  0.2489209E-004  0.3033830E+03  0.7818608E-02  0.1083562E+00
          2   -1    0    0  501    0  0.00000000000E+00  0.00000000000E+00  0.66943850296E+03  0.66943850297E+03  0.25500000000E-02 0.  1.
         -2   -1    0    0    0  501 -0.00000000000E+00 -0.00000000000E+00 -0.34372560007E+02  0.34372560102E+02  0.25500000000E-02 0. -1.
    5000001    1    1    2    0    0  0.28325721951E+02 -0.65580621919E+02  0.57143121453E+03  0.58100412858E+03  0.77000000000E+02 0.  0.
   -5000001    1    1    2    0    0 -0.28325721951E+02  0.65580621919E+02  0.63634728426E+02  0.12280693448E+03  0.77000000000E+02 0.  0.
<mgrwt>
<rscale>  0 0.30338303E+03</rscale>
<asrwt>0</asrwt>
<pdfrwt beam="1">  1        2 0.10299053E+00 0.30338303E+03</pdfrwt>
<pdfrwt beam="2">  1       -2 0.52880867E-02 0.30338303E+03</pdfrwt>
<totfact> 0.79596948E+03</totfact>
</mgrwt>
</event>
<event>
 4    1  0.2489209E-004  0.2487897E+03  0.7818608E-02  0.1114072E+00
         -2   -1    0    0    0  501 -0.00000000000E+00  0.00000000000E+00  0.16442590571E+02  0.16442590769E+02  0.25500000000E-02 0. -1.
          2   -1    0    0  501    0  0.00000000000E+00 -0.00000000000E+00 -0.94109770115E+03  0.94109770115E+03  0.25500000000E-02 0.  1.
    5000001    1    1    2    0    0 -0.53049947146E+02 -0.71387704959E+02 -0.61793417485E+03  0.62903270643E+03  0.77000000000E+02 0.  0.
   -5000001    1    1    2    0    0  0.53049947146E+02  0.71387704959E+02 -0.30672093573E+03  0.32850758549E+03  0.77000000000E+02 0.  0.
<mgrwt>
<rscale>  0 0.24878974E+03</rscale>
<asrwt>0</asrwt>
<pdfrwt beam="1">  1        2 0.14478422E+00 0.24878974E+03</pdfrwt>
<pdfrwt beam="2">  1       -2 0.25296301E-02 0.24878974E+03</pdfrwt>
<totfact> 0.15485893E+04</totfact>
</mgrwt>
</event>
<event>
 4    1  0.2489209E-004  0.2305079E+03  0.7818608E-02  0.1126283E+00
          2   -1    0    0  501    0  0.00000000000E+00  0.00000000000E+00  0.33014734585E+03  0.33014734586E+03  0.25500000000E-02 0.  1.
         -2   -1    0    0    0  501 -0.00000000000E+00 -0.00000000000E+00 -0.40234968872E+02  0.40234968953E+02  0.25500000000E-02 0. -1.
    5000001    1    1    2    0    0  0.75330664922E+02  0.92129549579E+01  0.20912567901E+03  0.23541906728E+03  0.77000000000E+02 0.  0.
   -5000001    1    1    2    0    0 -0.75330664922E+02 -0.92129549579E+01  0.80786697969E+02  0.13496324754E+03  0.77000000000E+02 0.  0.
<mgrwt>
<rscale>  0 0.23050786E+03</rscale>
<asrwt>0</asrwt>
<pdfrwt beam="1">  1        2 0.50791899E-01 0.23050786E+03</pdfrwt>
<pdfrwt beam="2">  1       -2 0.61899953E-02 0.23050786E+03</pdfrwt>
<totfact> 0.13619378E+04</totfact>
</mgrwt>
</event>
<event>
 4    1  0.2489209E-004  0.2079475E+03  0.7818608E-02  0.1143202E+00
          2   -1    0    0  501    0  0.00000000000E+00  0.00000000000E+00  0.33958189930E+02  0.33958190026E+02  0.25500000000E-02 0.  1.
         -2   -1    0    0    0  501 -0.00000000000E+00 -0.00000000000E+00 -0.31834862913E+03  0.31834862914E+03  0.25500000000E-02 0. -1.
    5000001    1    1    2    0    0  0.64987181223E+02  0.16114010130E+02 -0.10837256329E+03  0.14885095741E+03  0.77000000000E+02 0.  0.
   -5000001    1    1    2    0    0 -0.64987181223E+02 -0.16114010130E+02 -0.17601787591E+03  0.20345586176E+03  0.77000000000E+02 0.  0.
<mgrwt>
<rscale>  0 0.20794752E+03</rscale>
<asrwt>0</asrwt>
<pdfrwt beam="1">  1        2 0.52243371E-02 0.20794752E+03</pdfrwt>
<pdfrwt beam="2">  1       -2 0.48976710E-01 0.20794752E+03</pdfrwt>
<totfact> 0.58019228E+03</totfact>
</mgrwt>
</event>
<event>
 4    1  0.2489209E-004  0.3665530E+03  0.7818608E-02  0.1056019E+00
         -2   -1    0    0    0  501 -0.00000000000E+00  0.00000000000E+00  0.30832794383E+03  0.30832794384E+03  0.25500000000E-02 0. -1.
          2   -1    0    0  501    0  0.00000000000E+00 -0.00000000000E+00 -0.10894336433E+03  0.10894336436E+03  0.25500000000E-02 0.  1.
    5000001    1    1    2    0    0 -0.12359419950E+02 -0.16126196400E+03  0.14382663371E+03  0.22972434973E+03  0.77000000000E+02 0.  0.
   -5000001    1    1    2    0    0  0.12359419950E+02  0.16126196400E+03  0.55557945786E+02  0.18754695848E+03  0.77000000000E+02 0.  0.
<mgrwt>
<rscale>  0 0.36655304E+03</rscale>
<asrwt>0</asrwt>
<pdfrwt beam="1">  1        2 0.16760518E-01 0.36655304E+03</pdfrwt>
<pdfrwt beam="2">  1       -2 0.47435068E-01 0.36655304E+03</pdfrwt>
<totfact> 0.14661210E+03</totfact>
</mgrwt>
</event>
<event>
 4    1  0.2489209E-004  0.1983674E+03  0.7818608E-02  0.1151124E+00
         -2   -1    0    0    0  501 -0.00000000000E+00  0.00000000000E+00  0.31084489421E+01  0.31084499880E+01  0.25500000000E-02 0. -1.
          2   -1    0    0  501    0  0.00000000000E+00 -0.00000000000E+00 -0.31647294258E+04  0.31647294258E+04  0.25500000000E-02 0.  1.
    5000001    1    1    2    0    0 -0.10765448409E+02 -0.60779682613E+02 -0.14224485606E+04  0.14258677962E+04  0.77000000000E+02 0.  0.
   -5000001    1    1    2    0    0  0.10765448409E+02  0.60779682613E+02 -0.17391724163E+04  0.17419700796E+04  0.77000000000E+02 0.  0.
<mgrwt>
<rscale>  0 0.19836735E+03</rscale>
<asrwt>0</asrwt>
<pdfrwt beam="1">  1        2 0.48687887E+00 0.19836735E+03</pdfrwt>
<pdfrwt beam="2">  1       -2 0.47822553E-03 0.19836735E+03</pdfrwt>
<totfact> 0.10267526E+04</totfact>
</mgrwt>
</event>
<event>
 4    1  0.2489209E-004  0.1987995E+03  0.7818608E-02  0.1150756E+00
          2   -1    0    0  501    0  0.00000000000E+00  0.00000000000E+00  0.25331529135E+04  0.25331529135E+04  0.25500000000E-02 0.  1.
         -2   -1    0    0    0  501 -0.00000000000E+00 -0.00000000000E+00 -0.39003989570E+01  0.39003997906E+01  0.25500000000E-02 0. -1.
    5000001    1    1    2    0    0 -0.53541734162E+02  0.32932983900E+02  0.12633945351E+04  0.12672987217E+04  0.77000000000E+02 0.  0.
   -5000001    1    1    2    0    0  0.53541734162E+02 -0.32932983900E+02  0.12658579794E+04  0.12697545916E+04  0.77000000000E+02 0.  0.
<mgrwt>
<rscale>  0 0.19879948E+03</rscale>
<asrwt>0</asrwt>
<pdfrwt beam="1">  1        2 0.38971596E+00 0.19879948E+03</pdfrwt>
<pdfrwt beam="2">  1       -2 0.60006125E-03 0.19879948E+03</pdfrwt>
<totfact> 0.17056510E+04</totfact>
</mgrwt>
</event>
<event>
 4    1  0.2489209E-004  0.3390988E+03  0.7818608E-02  0.1067180E+00
         -2   -1    0    0    0  501 -0.00000000000E+00  0.00000000000E+00  0.13461438582E+03  0.13461438585E+03  0.25500000000E-02 0. -1.
          2   -1    0    0  501    0  0.00000000000E+00 -0.00000000000E+00 -0.21355073623E+03  0.21355073624E+03  0.25500000000E-02 0.  1.
    5000001    1    1    2    0    0  0.79727038808E+02  0.35592116880E+00 -0.17120080183E+03  0.20394911607E+03  0.77000000000E+02 0.  0.
   -5000001    1    1    2    0    0 -0.79727038808E+02 -0.35592116880E+00  0.92264451426E+02  0.14421600603E+03  0.77000000000E+02 0.  0.
<mgrwt>
<rscale>  0 0.33909881E+03</rscale>
<asrwt>0</asrwt>
<pdfrwt beam="1">  1        2 0.32853959E-01 0.33909881E+03</pdfrwt>
<pdfrwt beam="2">  1       -2 0.20709906E-01 0.33909881E+03</pdfrwt>
<totfact> 0.31472162E+03</totfact>
</mgrwt>
</event>
<event>
 4    1  0.2489209E-004  0.2810708E+03  0.7818608E-02  0.1095106E+00
          2   -1    0    0  501    0  0.00000000000E+00  0.00000000000E+00  0.74978532832E+03  0.74978532833E+03  0.25500000000E-02 0.  1.
         -2   -1    0    0    0  501 -0.00000000000E+00 -0.00000000000E+00 -0.26341143504E+02  0.26341143628E+02  0.25500000000E-02 0. -1.
    5000001    1    1    2    0    0 -0.47679095618E+02  0.59128005199E+01  0.65436900969E+02  0.11188943372E+03  0.77000000000E+02 0.  0.
   -5000001    1    1    2    0    0  0.47679095618E+02 -0.59128005199E+01  0.65800728385E+03  0.66423703824E+03  0.77000000000E+02 0.  0.
<mgrwt>
<rscale>  0 0.28107083E+03</rscale>
<asrwt>0</asrwt>
<pdfrwt beam="1">  1        2 0.11535158E+00 0.28107083E+03</pdfrwt>
<pdfrwt beam="2">  1       -2 0.40524839E-02 0.28107083E+03</pdfrwt>
<totfact> 0.10352324E+04</totfact>
</mgrwt>
</event>
<event>
 4    1  0.2489209E-004  0.2938880E+03  0.7818608E-02  0.1088336E+00
          2   -1    0    0  501    0  0.00000000000E+00  0.00000000000E+00  0.45005178167E+03  0.45005178167E+03  0.25500000000E-02 0.  1.
         -2   -1    0    0    0  501 -0.00000000000E+00 -0.00000000000E+00 -0.47977898144E+02  0.47977898212E+02  0.25500000000E-02 0. -1.
    5000001    1    1    2    0    0 -0.21185192667E+02 -0.12255207189E+03  0.17732940831E+03  0.22987505685E+03  0.77000000000E+02 0.  0.
   -5000001    1    1    2    0    0  0.21185192667E+02  0.12255207189E+03  0.22474447522E+03  0.26815462303E+03  0.77000000000E+02 0.  0.
<mgrwt>
<rscale>  0 0.29388800E+03</rscale>
<asrwt>0</asrwt>
<pdfrwt beam="1">  1        2 0.69238735E-01 0.29388800E+03</pdfrwt>
<pdfrwt beam="2">  1       -2 0.73812152E-02 0.29388800E+03</pdfrwt>
<totfact> 0.74949906E+03</totfact>
</mgrwt>
</event>
<event>
 4    1  0.2489209E-004  0.2235113E+03  0.7818608E-02  0.1131292E+00
         -2   -1    0    0    0  501 -0.00000000000E+00  0.00000000000E+00  0.12757662726E+02  0.12757662981E+02  0.25500000000E-02 0. -1.
          2   -1    0    0  501    0  0.00000000000E+00 -0.00000000000E+00 -0.97896658176E+03  0.97896658177E+03  0.25500000000E-02 0.  1.
    5000001    1    1    2    0    0 -0.61660579833E+02  0.51731080042E+02 -0.44287806532E+03  0.45667068276E+03  0.77000000000E+02 0.  0.
   -5000001    1    1    2    0    0  0.61660579833E+02 -0.51731080042E+02 -0.52333085372E+03  0.53505356199E+03  0.77000000000E+02 0.  0.
<mgrwt>
<rscale>  0 0.22351130E+03</rscale>
<asrwt>0</asrwt>
<pdfrwt beam="1">  1        2 0.15061018E+00 0.22351130E+03</pdfrwt>
<pdfrwt beam="2">  1       -2 0.19627181E-02 0.22351130E+03</pdfrwt>
<totfact> 0.21195960E+04</totfact>
</mgrwt>
</event>
<event>
 4    1  0.2489209E-004  0.1597651E+03  0.7818608E-02  0.1188962E+00
         -2   -1    0    0    0  501 -0.00000000000E+00  0.00000000000E+00  0.84843910965E+01  0.84843914797E+01  0.25500000000E-02 0. -1.
          2   -1    0    0  501    0  0.00000000000E+00 -0.00000000000E+00 -0.75211321184E+03  0.75211321184E+03  0.25500000000E-02 0.  1.
    5000001    1    1    2    0    0 -0.62174153088E+01  0.75999452755E+01 -0.28201355581E+03  0.29250138646E+03  0.77000000000E+02 0.  0.
   -5000001    1    1    2    0    0  0.62174153088E+01 -0.75999452755E+01 -0.46161526493E+03  0.46809621686E+03  0.77000000000E+02 0.  0.
<mgrwt>
<rscale>  0 0.15976511E+03</rscale>
<asrwt>0</asrwt>
<pdfrwt beam="1">  1        2 0.11570967E+00 0.15976511E+03</pdfrwt>
<pdfrwt beam="2">  1       -2 0.13052916E-02 0.15976511E+03</pdfrwt>
<totfact> 0.52645329E+04</totfact>
</mgrwt>
</event>
<event>
 4    1  0.2489209E-004  0.2169962E+03  0.7818608E-02  0.1136142E+00
          2   -1    0    0  501    0  0.00000000000E+00  0.00000000000E+00  0.66354044796E+03  0.66354044797E+03  0.25500000000E-02 0.  1.
         -2   -1    0    0    0  501 -0.00000000000E+00 -0.00000000000E+00 -0.17740954219E+02  0.17740954402E+02  0.25500000000E-02 0. -1.
    5000001    1    1    2    0    0  0.72820849799E+02 -0.11185171018E+02  0.38684721117E+03  0.40125770896E+03  0.77000000000E+02 0.  0.
   -5000001    1    1    2    0    0 -0.72820849799E+02  0.11185171018E+02  0.25895228258E+03  0.28002369340E+03  0.77000000000E+02 0.  0.
<mgrwt>
<rscale>  0 0.21699623E+03</rscale>
<asrwt>0</asrwt>
<pdfrwt beam="1">  1        2 0.10208316E+00 0.21699623E+03</pdfrwt>
<pdfrwt beam="2">  1       -2 0.27293773E-02 0.21699623E+03</pdfrwt>
<totfact> 0.21381230E+04</totfact>
</mgrwt>
</event>
<event>
 4    1  0.2489209E-004  0.1952486E+03  0.7818608E-02  0.1153811E+00
         -2   -1    0    0    0  501 -0.00000000000E+00  0.00000000000E+00  0.83830836037E+01  0.83830839916E+01  0.25500000000E-02 0. -1.
          2   -1    0    0  501    0  0.00000000000E+00 -0.00000000000E+00 -0.11368730494E+04  0.11368730494E+04  0.25500000000E-02 0.  1.
    5000001    1    1    2    0    0 -0.59008353245E+02  0.10485538769E+02 -0.58239033663E+03  0.59050777851E+03  0.77000000000E+02 0.  0.
   -5000001    1    1    2    0    0  0.59008353245E+02 -0.10485538769E+02 -0.54609962916E+03  0.55474835488E+03  0.77000000000E+02 0.  0.
<mgrwt>
<rscale>  0 0.19524858E+03</rscale>
<asrwt>0</asrwt>
<pdfrwt beam="1">  1        2 0.17490342E+00 0.19524858E+03</pdfrwt>
<pdfrwt beam="2">  1       -2 0.12897061E-02 0.19524858E+03</pdfrwt>
<totfact> 0.31240662E+04</totfact>
</mgrwt>
</event>
<event>
 4    1  0.2489209E-004  0.2455892E+03  0.7818608E-02  0.1116124E+00
         -2   -1    0    0    0  501 -0.00000000000E+00  0.00000000000E+00  0.27003062990E+03  0.27003062991E+03  0.25500000000E-02 0. -1.
          2   -1    0    0  501    0  0.00000000000E+00 -0.00000000000E+00 -0.55840026882E+02  0.55840026940E+02  0.25500000000E-02 0.  1.
    5000001    1    1    2    0    0 -0.11265789878E+01  0.92913446557E+02  0.13721723366E+03  0.18273408807E+03  0.77000000000E+02 0.  0.
   -5000001    1    1    2    0    0  0.11265789878E+01 -0.92913446557E+02  0.76973369361E+02  0.14313656878E+03  0.77000000000E+02 0.  0.
<mgrwt>
<rscale>  0 0.24558923E+03</rscale>
<asrwt>0</asrwt>
<pdfrwt beam="1">  1        2 0.85907735E-02 0.24558923E+03</pdfrwt>
<pdfrwt beam="2">  1       -2 0.41543173E-01 0.24558923E+03</pdfrwt>
<totfact> 0.42515571E+03</totfact>
</mgrwt>
</event>
<event>
 4    1  0.2489209E-004  0.2062264E+03  0.7818608E-02  0.1144590E+00
          2   -1    0    0  501    0  0.00000000000E+00  0.00000000000E+00  0.66557393033E+03  0.66557393034E+03  0.25500000000E-02 0.  1.
         -2   -1    0    0    0  501 -0.00000000000E+00 -0.00000000000E+00 -0.15974684111E+02  0.15974684315E+02  0.25500000000E-02 0. -1.
    5000001    1    1    2    0    0 -0.21235386926E+02 -0.53281825881E+02  0.20055115425E+03  0.22235030942E+03  0.77000000000E+02 0.  0.
   -5000001    1    1    2    0    0  0.21235386926E+02  0.53281825881E+02  0.44904809197E+03  0.45919830523E+03  0.77000000000E+02 0.  0.
<mgrwt>
<rscale>  0 0.20622641E+03</rscale>
<asrwt>0</asrwt>
<pdfrwt beam="1">  1        2 0.10239599E+00 0.20622641E+03</pdfrwt>
<pdfrwt beam="2">  1       -2 0.24576437E-02 0.20622641E+03</pdfrwt>
<totfact> 0.24783774E+04</totfact>
</mgrwt>
</event>
<event>
 4    1  0.2489209E-004  0.1752453E+03  0.7818608E-02  0.1172486E+00
          2   -1    0    0  501    0  0.00000000000E+00  0.00000000000E+00  0.41626373009E+03  0.41626373010E+03  0.25500000000E-02 0.  1.
         -2   -1    0    0    0  501 -0.00000000000E+00 -0.00000000000E+00 -0.18444388432E+02  0.18444388608E+02  0.25500000000E-02 0. -1.
    5000001    1    1    2    0    0 -0.64453254770E+01 -0.41314716285E+02  0.20022686423E+03  0.21855947740E+03  0.77000000000E+02 0.  0.
   -5000001    1    1    2    0    0  0.64453254770E+01  0.41314716285E+02  0.19759247743E+03  0.21614864131E+03  0.77000000000E+02 0.  0.
<mgrwt>
<rscale>  0 0.17524531E+03</rscale>
<asrwt>0</asrwt>
<pdfrwt beam="1">  1        2 0.64040570E-01 0.17524531E+03</pdfrwt>
<pdfrwt beam="2">  1       -2 0.28375984E-02 0.17524531E+03</pdfrwt>
<totfact> 0.33539572E+04</totfact>
</mgrwt>
</event>
<event>
 4    1  0.2489209E-004  0.2612506E+03  0.7818608E-02  0.1106394E+00
         -2   -1    0    0    0  501 -0.00000000000E+00  0.00000000000E+00  0.15981239063E+03  0.15981239065E+03  0.25500000000E-02 0. -1.
          2   -1    0    0  501    0  0.00000000000E+00 -0.00000000000E+00 -0.10676876813E+03  0.10676876816E+03  0.25500000000E-02 0.  1.
    5000001    1    1    2    0    0 -0.71524795911E+02  0.69925237721E+02  0.60802474524E+02  0.14011165622E+03  0.77000000000E+02 0.  0.
   -5000001    1    1    2    0    0  0.71524795911E+02 -0.69925237721E+02 -0.77588520201E+01  0.12646950259E+03  0.77000000000E+02 0.  0.
<mgrwt>
<rscale>  0 0.26125062E+03</rscale>
<asrwt>0</asrwt>
<pdfrwt beam="1">  1        2 0.16425964E-01 0.26125062E+03</pdfrwt>
<pdfrwt beam="2">  1       -2 0.24586522E-01 0.26125062E+03</pdfrwt>
<totfact> 0.50726550E+03</totfact>
</mgrwt>
</event>
<event>
 4    1  0.2489209E-004  0.2426386E+03  0.7818608E-02  0.1118047E+00
          2   -1    0    0  501    0  0.00000000000E+00  0.00000000000E+00  0.49952896384E+03  0.49952896385E+03  0.25500000000E-02 0.  1.
         -2   -1    0    0    0  501 -0.00000000000E+00 -0.00000000000E+00 -0.29464505858E+02  0.29464505969E+02  0.25500000000E-02 0. -1.
    5000001    1    1    2    0    0 -0.69248225911E+02  0.54492673439E+02  0.16524614729E+03  0.20248470916E+03  0.77000000000E+02 0.  0.
   -5000001    1    1    2    0    0  0.69248225911E+02 -0.54492673439E+02  0.30481831069E+03  0.32650876065E+03  0.77000000000E+02 0.  0.
<mgrwt>
<rscale>  0 0.24263861E+03</rscale>
<asrwt>0</asrwt>
<pdfrwt beam="1">  1        2 0.76850605E-01 0.24263861E+03</pdfrwt>
<pdfrwt beam="2">  1       -2 0.45330012E-02 0.24263861E+03</pdfrwt>
<totfact> 0.13975115E+04</totfact>
</mgrwt>
</event>
<event>
 4    1  0.2489209E-004  0.1803084E+03  0.7818608E-02  0.1167505E+00
         -2   -1    0    0    0  501 -0.00000000000E+00  0.00000000000E+00  0.92522339803E+01  0.92522343317E+01  0.25500000000E-02 0. -1.
          2   -1    0    0  501    0  0.00000000000E+00 -0.00000000000E+00 -0.87846685046E+03  0.87846685046E+03  0.25500000000E-02 0.  1.
    5000001    1    1    2    0    0  0.18738139374E+02  0.42921848873E+02 -0.44602480600E+03  0.45503904288E+03  0.77000000000E+02 0.  0.
   -5000001    1    1    2    0    0 -0.18738139374E+02 -0.42921848873E+02 -0.42318981048E+03  0.43268004192E+03  0.77000000000E+02 0.  0.
<mgrwt>
<rscale>  0 0.18030841E+03</rscale>
<asrwt>0</asrwt>
<pdfrwt beam="1">  1        2 0.13514868E+00 0.18030841E+03</pdfrwt>
<pdfrwt beam="2">  1       -2 0.14234213E-02 0.18030841E+03</pdfrwt>
<totfact> 0.38587862E+04</totfact>
</mgrwt>
</event>
<event>
 4    1  0.2489209E-004  0.2564187E+03  0.7818608E-02  0.1109314E+00
         -2   -1    0    0    0  501 -0.00000000000E+00  0.00000000000E+00  0.33308506162E+03  0.33308506163E+03  0.25500000000E-02 0. -1.
          2   -1    0    0  501    0  0.00000000000E+00 -0.00000000000E+00 -0.49349682167E+02  0.49349682232E+02  0.25500000000E-02 0.  1.
    5000001    1    1    2    0    0  0.89531242318E+02  0.46815619249E+02  0.16774745638E+03  0.21041804742E+03  0.77000000000E+02 0.  0.
   -5000001    1    1    2    0    0 -0.89531242318E+02 -0.46815619249E+02  0.11598792307E+03  0.17201669644E+03  0.77000000000E+02 0.  0.
<mgrwt>
<rscale>  0 0.25641874E+03</rscale>
<asrwt>0</asrwt>
<pdfrwt beam="1">  1        2 0.75922587E-02 0.25641874E+03</pdfrwt>
<pdfrwt beam="2">  1       -2 0.51243856E-01 0.25641874E+03</pdfrwt>
<totfact> 0.33002618E+03</totfact>
</mgrwt>
</event>
<event>
 4    1  0.2489209E-004  0.2715916E+03  0.7818608E-02  0.1100372E+00
         -2   -1    0    0    0  501 -0.00000000000E+00  0.00000000000E+00  0.29808127934E+02  0.29808128043E+02  0.25500000000E-02 0. -1.
          2   -1    0    0  501    0  0.00000000000E+00 -0.00000000000E+00 -0.61863999333E+03  0.61863999333E+03  0.25500000000E-02 0.  1.
    5000001    1    1    2    0    0  0.99458050962E+02  0.38602598882E+02 -0.21417617247E+03  0.25136128857E+03  0.77000000000E+02 0.  0.
   -5000001    1    1    2    0    0 -0.99458050962E+02 -0.38602598882E+02 -0.37465569293E+03  0.39708683280E+03  0.77000000000E+02 0.  0.
<mgrwt>
<rscale>  0 0.27159161E+03</rscale>
<asrwt>0</asrwt>
<pdfrwt beam="1">  1        2 0.95175374E-01 0.27159161E+03</pdfrwt>
<pdfrwt beam="2">  1       -2 0.45858663E-02 0.27159161E+03</pdfrwt>
<totfact> 0.10814617E+04</totfact>
</mgrwt>
</event>
<event>
 4    1  0.2489209E-004  0.2851575E+03  0.7818608E-02  0.1092905E+00
         -2   -1    0    0    0  501 -0.00000000000E+00  0.00000000000E+00  0.11739649349E+02  0.11739649626E+02  0.25500000000E-02 0. -1.
          2   -1    0    0  501    0  0.00000000000E+00 -0.00000000000E+00 -0.17316279517E+04  0.17316279517E+04  0.25500000000E-02 0.  1.
    5000001    1    1    2    0    0  0.45199628345E+02 -0.39009497482E+02 -0.22356238098E+03  0.24387268294E+03  0.77000000000E+02 0.  0.
   -5000001    1    1    2    0    0 -0.45199628345E+02  0.39009497482E+02 -0.14963259214E+04  0.14994949184E+04  0.77000000000E+02 0.  0.
<mgrwt>
<rscale>  0 0.28515754E+03</rscale>
<asrwt>0</asrwt>
<pdfrwt beam="1">  1        2 0.26640410E+00 0.28515754E+03</pdfrwt>
<pdfrwt beam="2">  1       -2 0.18061013E-02 0.28515754E+03</pdfrwt>
<totfact> 0.92419831E+03</totfact>
</mgrwt>
</event>
<event>
 4    1  0.2489209E-004  0.2497511E+03  0.7818608E-02  0.1113462E+00
         -2   -1    0    0    0  501 -0.00000000000E+00  0.00000000000E+00  0.20099285203E+02  0.20099285365E+02  0.25500000000E-02 0. -1.
          2   -1    0    0  501    0  0.00000000000E+00 -0.00000000000E+00 -0.77584387842E+03  0.77584387842E+03  0.25500000000E-02 0.  1.
    5000001    1    1    2    0    0 -0.87748862085E+02  0.29864518648E+02 -0.27347101060E+03  0.29884301215E+03  0.77000000000E+02 0.  0.
   -5000001    1    1    2    0    0  0.87748862085E+02 -0.29864518648E+02 -0.48227358261E+03  0.49710015164E+03  0.77000000000E+02 0.  0.
<mgrwt>
<rscale>  0 0.24975114E+03</rscale>
<asrwt>0</asrwt>
<pdfrwt beam="1">  1        2 0.11936057E+00 0.24975114E+03</pdfrwt>
<pdfrwt beam="2">  1       -2 0.30921983E-02 0.24975114E+03</pdfrwt>
<totfact> 0.14798977E+04</totfact>
</mgrwt>
</event>
<event>
 4    1  0.2489209E-004  0.2047930E+03  0.7818608E-02  0.1145757E+00
         -2   -1    0    0    0  501 -0.00000000000E+00  0.00000000000E+00  0.95278452611E+02  0.95278452645E+02  0.25500000000E-02 0. -1.
          2   -1    0    0  501    0  0.00000000000E+00 -0.00000000000E+00 -0.11004632085E+03  0.11004632088E+03  0.25500000000E-02 0.  1.
    5000001    1    1    2    0    0 -0.64293038835E+02 -0.20553205948E+02 -0.75027961742E+01  0.10267093585E+03  0.77000000000E+02 0.  0.
   -5000001    1    1    2    0    0  0.64293038835E+02  0.20553205948E+02 -0.72650720630E+01  0.10265383768E+03  0.77000000000E+02 0.  0.
<mgrwt>
<rscale>  0 0.20479300E+03</rscale>
<asrwt>0</asrwt>
<pdfrwt beam="1">  1        2 0.16930203E-01 0.20479300E+03</pdfrwt>
<pdfrwt beam="2">  1       -2 0.14658223E-01 0.20479300E+03</pdfrwt>
<totfact> 0.11627617E+04</totfact>
</mgrwt>
</event>
<event>
 4    1  0.2489209E-004  0.1957025E+03  0.7818608E-02  0.1153416E+00
          2   -1    0    0  501    0  0.00000000000E+00  0.00000000000E+00  0.25829378986E+03  0.25829378987E+03  0.25500000000E-02 0.  1.
         -2   -1    0    0    0  501 -0.00000000000E+00 -0.00000000000E+00 -0.37069661781E+02  0.37069661868E+02  0.25500000000E-02 0. -1.
    5000001    1    1    2    0    0 -0.21922217203E+02 -0.55079682582E+02  0.93304449322E+02  0.13471850394E+03  0.77000000000E+02 0.  0.
   -5000001    1    1    2    0    0  0.21922217203E+02  0.55079682582E+02  0.12791967875E+03  0.16064494780E+03  0.77000000000E+02 0.  0.
<mgrwt>
<rscale>  0 0.19570246E+03</rscale>
<asrwt>0</asrwt>
<pdfrwt beam="1">  1        2 0.39737507E-01 0.19570246E+03</pdfrwt>
<pdfrwt beam="2">  1       -2 0.57030247E-02 0.19570246E+03</pdfrwt>
<totfact> 0.19857639E+04</totfact>
</mgrwt>
</event>
<event>
 4    1  0.2489209E-004  0.2674676E+03  0.7818608E-02  0.1102738E+00
          2   -1    0    0  501    0  0.00000000000E+00  0.00000000000E+00  0.16710945178E+03  0.16710945180E+03  0.25500000000E-02 0.  1.
         -2   -1    0    0    0  501 -0.00000000000E+00 -0.00000000000E+00 -0.10702405387E+03  0.10702405390E+03  0.25500000000E-02 0. -1.
    5000001    1    1    2    0    0  0.77661161002E+02 -0.65905277208E+02 -0.10709651481E+02  0.12813453136E+03  0.77000000000E+02 0.  0.
   -5000001    1    1    2    0    0 -0.77661161002E+02  0.65905277208E+02  0.70795049391E+02  0.14599897435E+03  0.77000000000E+02 0.  0.
<mgrwt>
<rscale>  0 0.26746761E+03</rscale>
<asrwt>0</asrwt>
<pdfrwt beam="1">  1        2 0.25709146E-01 0.26746761E+03</pdfrwt>
<pdfrwt beam="2">  1       -2 0.16465239E-01 0.26746761E+03</pdfrwt>
<totfact> 0.60477964E+03</totfact>
</mgrwt>
</event>
<event>
 4    1  0.2489209E-004  0.2659292E+03  0.7818608E-02  0.1103632E+00
         -2   -1    0    0    0  501 -0.00000000000E+00  0.00000000000E+00  0.17067791537E+02  0.17067791727E+02  0.25500000000E-02 0. -1.
          2   -1    0    0  501    0  0.00000000000E+00 -0.00000000000E+00 -0.10358452004E+04  0.10358452004E+04  0.25500000000E-02 0.  1.
    5000001    1    1    2    0    0 -0.55988704309E+02 -0.56913708091E+02 -0.21906420551E+03  0.24554435713E+03  0.77000000000E+02 0.  0.
   -5000001    1    1    2    0    0  0.55988704309E+02  0.56913708091E+02 -0.79971320338E+03  0.80736863504E+03  0.77000000000E+02 0.  0.
<mgrwt>
<rscale>  0 0.26592924E+03</rscale>
<asrwt>0</asrwt>
<pdfrwt beam="1">  1        2 0.15936075E+00 0.26592924E+03</pdfrwt>
<pdfrwt beam="2">  1       -2 0.26258149E-02 0.26592924E+03</pdfrwt>
<totfact> 0.12847156E+04</totfact>
</mgrwt>
</event>
<event>
 4    1  0.2489209E-004  0.2244004E+03  0.7818608E-02  0.1130644E+00
         -2   -1    0    0    0  501 -0.00000000000E+00  0.00000000000E+00  0.49464804160E+02  0.49464804226E+02  0.25500000000E-02 0. -1.
          2   -1    0    0  501    0  0.00000000000E+00 -0.00000000000E+00 -0.25450183822E+03  0.25450183824E+03  0.25500000000E-02 0.  1.
    5000001    1    1    2    0    0 -0.35107568379E+02  0.66187534035E+02 -0.14633957393E+03  0.18154228686E+03  0.77000000000E+02 0.  0.
   -5000001    1    1    2    0    0  0.35107568379E+02 -0.66187534035E+02 -0.58697460132E+02  0.12242435560E+03  0.77000000000E+02 0.  0.
<mgrwt>
<rscale>  0 0.22440039E+03</rscale>
<asrwt>0</asrwt>
<pdfrwt beam="1">  1        2 0.39154128E-01 0.22440039E+03</pdfrwt>
<pdfrwt beam="2">  1       -2 0.76099700E-02 0.22440039E+03</pdfrwt>
<totfact> 0.13071361E+04</totfact>
</mgrwt>
</event>
<event>
 4    1  0.2489209E-004  0.2443461E+03  0.7818608E-02  0.1116931E+00
         -2   -1    0    0    0  501 -0.00000000000E+00  0.00000000000E+00  0.20218688872E+03  0.20218688874E+03  0.25500000000E-02 0. -1.
          2   -1    0    0  501    0  0.00000000000E+00 -0.00000000000E+00 -0.73824022617E+02  0.73824022661E+02  0.25500000000E-02 0.  1.
    5000001    1    1    2    0    0 -0.49954306750E+02 -0.75784057591E+02  0.33069613530E+02  0.12353645408E+03  0.77000000000E+02 0.  0.
   -5000001    1    1    2    0    0  0.49954306750E+02  0.75784057591E+02  0.95293252573E+02  0.15247445732E+03  0.77000000000E+02 0.  0.
<mgrwt>
<rscale>  0 0.24434606E+03</rscale>
<asrwt>0</asrwt>
<pdfrwt beam="1">  1        2 0.11357542E-01 0.24434606E+03</pdfrwt>
<pdfrwt beam="2">  1       -2 0.31105675E-01 0.24434606E+03</pdfrwt>
<totfact> 0.51644695E+03</totfact>
</mgrwt>
</event>
<event>
 4    1  0.2489209E-004  0.3043190E+03  0.7818608E-02  0.1083101E+00
         -2   -1    0    0    0  501 -0.00000000000E+00  0.00000000000E+00  0.18069883622E+03  0.18069883624E+03  0.25500000000E-02 0. -1.
          2   -1    0    0  501    0  0.00000000000E+00 -0.00000000000E+00 -0.12812760952E+03  0.12812760954E+03  0.25500000000E-02 0.  1.
    5000001    1    1    2    0    0  0.11567658476E+03 -0.61987305907E+02  0.26176418046E+02  0.15439463468E+03  0.77000000000E+02 0.  0.
   -5000001    1    1    2    0    0 -0.11567658476E+03  0.61987305907E+02  0.26394808655E+02  0.15443181110E+03  0.77000000000E+02 0.  0.
<mgrwt>
<rscale>  0 0.30431898E+03</rscale>
<asrwt>0</asrwt>
<pdfrwt beam="1">  1        2 0.19711940E-01 0.30431898E+03</pdfrwt>
<pdfrwt beam="2">  1       -2 0.27799821E-01 0.30431898E+03</pdfrwt>
<totfact> 0.33151779E+03</totfact>
</mgrwt>
</event>
<event>
 4    1  0.2489209E-004  0.1931108E+03  0.7818608E-02  0.1155685E+00
         -2   -1    0    0    0  501 -0.00000000000E+00  0.00000000000E+00  0.78445552436E+01  0.78445556580E+01  0.25500000000E-02 0. -1.
          2   -1    0    0  501    0  0.00000000000E+00 -0.00000000000E+00 -0.11884602984E+04  0.11884602984E+04  0.25500000000E-02 0.  1.
    5000001    1    1    2    0    0 -0.54083364665E+02 -0.17038265611E+02 -0.67310445618E+03  0.67986316399E+03  0.77000000000E+02 0.  0.
   -5000001    1    1    2    0    0  0.54083364665E+02  0.17038265611E+02 -0.50751128695E+03  0.51644169004E+03  0.77000000000E+02 0.  0.
<mgrwt>
<rscale>  0 0.19311077E+03</rscale>
<asrwt>0</asrwt>
<pdfrwt beam="1">  1        2 0.18283990E+00 0.19311077E+03</pdfrwt>
<pdfrwt beam="2">  1       -2 0.12068556E-02 0.19311077E+03</pdfrwt>
<totfact> 0.32123653E+04</totfact>
</mgrwt>
</event>
<event>
 4    1  0.2489209E-004  0.1841043E+03  0.7818608E-02  0.1163889E+00
          2   -1    0    0  501    0  0.00000000000E+00  0.00000000000E+00  0.33204047448E+02  0.33204047545E+02  0.25500000000E-02 0.  1.
         -2   -1    0    0    0  501 -0.00000000000E+00 -0.00000000000E+00 -0.25519764895E+03  0.25519764896E+03  0.25500000000E-02 0. -1.
    5000001    1    1    2    0    0  0.49605427105E+02  0.60902154433E+01 -0.10027954698E+03  0.13595137611E+03  0.77000000000E+02 0.  0.
   -5000001    1    1    2    0    0 -0.49605427105E+02 -0.60902154433E+01 -0.12171405452E+03  0.15245032040E+03  0.77000000000E+02 0.  0.
<mgrwt>
<rscale>  0 0.18410426E+03</rscale>
<asrwt>0</asrwt>
<pdfrwt beam="1">  1        2 0.51083152E-02 0.18410426E+03</pdfrwt>
<pdfrwt beam="2">  1       -2 0.39261175E-01 0.18410426E+03</pdfrwt>
<totfact> 0.90938316E+03</totfact>
</mgrwt>
</event>
<event>
 4    1  0.2489209E-004  0.3228049E+03  0.7818608E-02  0.1074366E+00
         -2   -1    0    0    0  501 -0.00000000000E+00  0.00000000000E+00  0.25167373819E+03  0.25167373820E+03  0.25500000000E-02 0. -1.
          2   -1    0    0  501    0  0.00000000000E+00 -0.00000000000E+00 -0.10350999191E+03  0.10350999194E+03  0.25500000000E-02 0.  1.
    5000001    1    1    2    0    0  0.13622079712E+01 -0.14184459155E+03  0.74140614185E+02  0.17761636871E+03  0.77000000000E+02 0.  0.
   -5000001    1    1    2    0    0 -0.13622079712E+01  0.14184459155E+03  0.74023132092E+02  0.17756736143E+03  0.77000000000E+02 0.  0.
<mgrwt>
<rscale>  0 0.32280487E+03</rscale>
<asrwt>0</asrwt>
<pdfrwt beam="1">  1        2 0.15924614E-01 0.32280487E+03</pdfrwt>
<pdfrwt beam="2">  1       -2 0.38719036E-01 0.32280487E+03</pdfrwt>
<totfact> 0.23069380E+03</totfact>
</mgrwt>
</event>
<event>
 4    1  0.2489209E-004  0.3822152E+03  0.7818608E-02  0.1050118E+00
          2   -1    0    0  501    0  0.00000000000E+00  0.00000000000E+00  0.10462145101E+04  0.10462145101E+04  0.25500000000E-02 0.  1.
         -2   -1    0    0    0  501 -0.00000000000E+00 -0.00000000000E+00 -0.34908821491E+02  0.34908821584E+02  0.25500000000E-02 0. -1.
    5000001    1    1    2    0    0 -0.13711311929E+03  0.32893995472E+02  0.21291142101E+03  0.26672513120E+03  0.77000000000E+02 0.  0.
   -5000001    1    1    2    0    0  0.13711311929E+03 -0.32893995472E+02  0.79839426762E+03  0.81439820051E+03  0.77000000000E+02 0.  0.
<mgrwt>
<rscale>  0 0.38221520E+03</rscale>
<asrwt>0</asrwt>
<pdfrwt beam="1">  1        2 0.16095607E+00 0.38221520E+03</pdfrwt>
<pdfrwt beam="2">  1       -2 0.53705881E-02 0.38221520E+03</pdfrwt>
<totfact> 0.43363866E+03</totfact>
</mgrwt>
</event>
<event>
 4    1  0.2489209E-004  0.2366546E+03  0.7818608E-02  0.1122042E+00
         -2   -1    0    0    0  501 -0.00000000000E+00  0.00000000000E+00  0.33920721435E+02  0.33920721531E+02  0.25500000000E-02 0. -1.
          2   -1    0    0  501    0  0.00000000000E+00 -0.00000000000E+00 -0.41276700057E+03  0.41276700057E+03  0.25500000000E-02 0.  1.
    5000001    1    1    2    0    0 -0.51498823734E+01  0.85866339139E+02 -0.23838225849E+03  0.26486723211E+03  0.77000000000E+02 0.  0.
   -5000001    1    1    2    0    0  0.51498823734E+01 -0.85866339139E+02 -0.14046402064E+03  0.18182048999E+03  0.77000000000E+02 0.  0.
<mgrwt>
<rscale>  0 0.23665464E+03</rscale>
<asrwt>0</asrwt>
<pdfrwt beam="1">  1        2 0.63502612E-01 0.23665464E+03</pdfrwt>
<pdfrwt beam="2">  1       -2 0.52185728E-02 0.23665464E+03</pdfrwt>
<totfact> 0.13908624E+04</totfact>
</mgrwt>
</event>
<event>
 4    1  0.2489209E-004  0.2411464E+03  0.7818608E-02  0.1119031E+00
          2   -1    0    0  501    0  0.00000000000E+00  0.00000000000E+00  0.33967761054E+04  0.33967761054E+04  0.25500000000E-02 0.  1.
         -2   -1    0    0    0  501 -0.00000000000E+00 -0.00000000000E+00 -0.42799100157E+01  0.42799107754E+01  0.25500000000E-02 0. -1.
    5000001    1    1    2    0    0 -0.49560011489E+02 -0.49582208617E+02  0.25534823075E+04  0.25556047200E+04  0.77000000000E+02 0.  0.
   -5000001    1    1    2    0    0  0.49560011489E+02  0.49582208617E+02  0.83901388787E+03  0.84545129617E+03  0.77000000000E+02 0.  0.
<mgrwt>
<rscale>  0 0.24114641E+03</rscale>
<asrwt>0</asrwt>
<pdfrwt beam="1">  1        2 0.52258328E+00 0.24114641E+03</pdfrwt>
<pdfrwt beam="2">  1       -2 0.65844481E-03 0.24114641E+03</pdfrwt>
<totfact> 0.46416161E+03</totfact>
</mgrwt>
</event>
<event>
 4    1  0.2489209E-004  0.3047469E+03  0.7818608E-02  0.1082891E+00
         -2   -1    0    0    0  501 -0.00000000000E+00  0.00000000000E+00  0.44512686648E+02  0.44512686721E+02  0.25500000000E-02 0. -1.
          2   -1    0    0  501    0  0.00000000000E+00 -0.00000000000E+00 -0.52159652796E+03  0.52159652797E+03  0.25500000000E-02 0.  1.
    5000001    1    1    2    0    0 -0.74902311251E+02 -0.59391321002E+02 -0.40625457323E+03  0.42439305309E+03  0.77000000000E+02 0.  0.
   -5000001    1    1    2    0    0  0.74902311251E+02  0.59391321002E+02 -0.70829268086E+02  0.14171616160E+03  0.77000000000E+02 0.  0.
<mgrwt>
<rscale>  0 0.30474686E+03</rscale>
<asrwt>0</asrwt>
<pdfrwt beam="1">  1        2 0.80245615E-01 0.30474686E+03</pdfrwt>
<pdfrwt beam="2">  1       -2 0.68481060E-02 0.30474686E+03</pdfrwt>
<totfact> 0.71494117E+03</totfact>
</mgrwt>
</event>
<event>
 4    1  0.2489209E-004  0.2944161E+03  0.7818608E-02  0.1088066E+00
          2   -1    0    0  501    0  0.00000000000E+00  0.00000000000E+00  0.20560781145E+04  0.20560781145E+04  0.25500000000E-02 0.  1.
         -2   -1    0    0    0  501 -0.00000000000E+00 -0.00000000000E+00 -0.10539588344E+02  0.10539588653E+02  0.25500000000E-02 0. -1.
    5000001    1    1    2    0    0  0.67387033858E+02 -0.76595489292E+02  0.15353921441E+04  0.15407030595E+04  0.77000000000E+02 0.  0.
   -5000001    1    1    2    0    0 -0.67387033858E+02  0.76595489292E+02  0.51014638206E+03  0.52591464368E+03  0.77000000000E+02 0.  0.
<mgrwt>
<rscale>  0 0.29441615E+03</rscale>
<asrwt>0</asrwt>
<pdfrwt beam="1">  1        2 0.31631961E+00 0.29441615E+03</pdfrwt>
<pdfrwt beam="2">  1       -2 0.16214757E-02 0.29441615E+03</pdfrwt>
<totfact> 0.73084439E+03</totfact>
</mgrwt>
</event>
<event>
 4    1  0.2489209E-004  0.2486645E+03  0.7818608E-02  0.1114152E+00
         -2   -1    0    0    0  501 -0.00000000000E+00  0.00000000000E+00  0.64599943909E+01  0.64599948941E+01  0.25500000000E-02 0. -1.
          2   -1    0    0  501    0  0.00000000000E+00 -0.00000000000E+00 -0.23929601343E+04  0.23929601343E+04  0.25500000000E-02 0.  1.
    5000001    1    1    2    0    0 -0.82919913639E+02  0.40210574415E+00 -0.69618510078E+03  0.70532160630E+03  0.77000000000E+02 0.  0.
   -5000001    1    1    2    0    0  0.82919913639E+02 -0.40210574415E+00 -0.16903150391E+04  0.16940985229E+04  0.77000000000E+02 0.  0.
<mgrwt>
<rscale>  0 0.24866451E+03</rscale>
<asrwt>0</asrwt>
<pdfrwt beam="1">  1        2 0.36814701E+00 0.24866451E+03</pdfrwt>
<pdfrwt beam="2">  1       -2 0.99384724E-03 0.24866451E+03</pdfrwt>
<totfact> 0.98588487E+03</totfact>
</mgrwt>
</event>
<event>
 4    1  0.2489209E-004  0.1764922E+03  0.7818608E-02  0.1171242E+00
          2   -1    0    0  501    0  0.00000000000E+00  0.00000000000E+00  0.26244538525E+04  0.26244538525E+04  0.25500000000E-02 0.  1.
         -2   -1    0    0    0  501 -0.00000000000E+00 -0.00000000000E+00 -0.29672370926E+01  0.29672381883E+01  0.25500000000E-02 0. -1.
    5000001    1    1    2    0    0 -0.25203531199E+02  0.11297473303E+02  0.18034808663E+04  0.18053351728E+04  0.77000000000E+02 0.  0.
   -5000001    1    1    2    0    0  0.25203531199E+02 -0.11297473303E+02  0.81800574908E+03  0.82208591790E+03  0.77000000000E+02 0.  0.
<mgrwt>
<rscale>  0 0.17649225E+03</rscale>
<asrwt>0</asrwt>
<pdfrwt beam="1">  1        2 0.40376260E+00 0.17649225E+03</pdfrwt>
<pdfrwt beam="2">  1       -2 0.45649757E-03 0.17649225E+03</pdfrwt>
<totfact> 0.22390764E+04</totfact>
</mgrwt>
</event>
<event>
 4    1  0.2489209E-004  0.3060619E+03  0.7818608E-02  0.1082249E+00
         -2   -1    0    0    0  501 -0.00000000000E+00  0.00000000000E+00  0.11117035318E+02  0.11117035610E+02  0.25500000000E-02 0. -1.
          2   -1    0    0  501    0  0.00000000000E+00 -0.00000000000E+00 -0.21065398434E+04  0.21065398434E+04  0.25500000000E-02 0.  1.
    5000001    1    1    2    0    0  0.68841431591E+02  0.10395388779E+03 -0.74265090411E+03  0.75697088376E+03  0.77000000000E+02 0.  0.
   -5000001    1    1    2    0    0 -0.68841431591E+02 -0.10395388779E+03 -0.13527719040E+04  0.13606859952E+04  0.77000000000E+02 0.  0.
<mgrwt>
<rscale>  0 0.30606194E+03</rscale>
<asrwt>0</asrwt>
<pdfrwt beam="1">  1        2 0.32408274E+00 0.30606194E+03</pdfrwt>
<pdfrwt beam="2">  1       -2 0.17103148E-02 0.30606194E+03</pdfrwt>
<totfact> 0.63543334E+03</totfact>
</mgrwt>
</event>
<event>
 4    1  0.2489209E-004  0.1671642E+03  0.7818608E-02  0.1180838E+00
          2   -1    0    0  501    0  0.00000000000E+00  0.00000000000E+00  0.12837353301E+04  0.12837353301E+04  0.25500000000E-02 0.  1.
         -2   -1    0    0    0  501 -0.00000000000E+00 -0.00000000000E+00 -0.54419063966E+01  0.54419069940E+01  0.25500000000E-02 0. -1.
    5000001    1    1    2    0    0  0.28788127753E+02 -0.10745762396E+02  0.55726089105E+03  0.56339411463E+03  0.77000000000E+02 0.  0.
   -5000001    1    1    2    0    0 -0.28788127753E+02  0.10745762396E+02  0.72103253269E+03  0.72578312250E+03  0.77000000000E+02 0.  0.
<mgrwt>
<rscale>  0 0.16716421E+03</rscale>
<asrwt>0</asrwt>
<pdfrwt beam="1">  1        2 0.19749764E+00 0.16716421E+03</pdfrwt>
<pdfrwt beam="2">  1       -2 0.83721684E-03 0.16716421E+03</pdfrwt>
<totfact> 0.47645235E+04</totfact>
</mgrwt>
</event>
<event>
 4    1  0.2489209E-004  0.3701818E+03  0.7818608E-02  0.1054623E+00
         -2   -1    0    0    0  501 -0.00000000000E+00  0.00000000000E+00  0.55120268878E+02  0.55120268937E+02  0.25500000000E-02 0. -1.
          2   -1    0    0  501    0  0.00000000000E+00 -0.00000000000E+00 -0.62152513120E+03  0.62152513121E+03  0.25500000000E-02 0.  1.
    5000001    1    1    2    0    0  0.10418427152E+03 -0.13211701323E+03 -0.27495372796E+03  0.33141789350E+03  0.77000000000E+02 0.  0.
   -5000001    1    1    2    0    0 -0.10418427152E+03  0.13211701323E+03 -0.29145113437E+03  0.34522750664E+03  0.77000000000E+02 0.  0.
<mgrwt>
<rscale>  0 0.37018175E+03</rscale>
<asrwt>0</asrwt>
<pdfrwt beam="1">  1        2 0.95619246E-01 0.37018175E+03</pdfrwt>
<pdfrwt beam="2">  1       -2 0.84800418E-02 0.37018175E+03</pdfrwt>
<totfact> 0.41955597E+03</totfact>
</mgrwt>
</event>
<event>
 4    1  0.2489209E-004  0.3448660E+03  0.7818608E-02  0.1064742E+00
         -2   -1    0    0    0  501 -0.00000000000E+00  0.00000000000E+00  0.66240026702E+02  0.66240026751E+02  0.25500000000E-02 0. -1.
          2   -1    0    0  501    0  0.00000000000E+00 -0.00000000000E+00 -0.44886974051E+03  0.44886974052E+03  0.25500000000E-02 0.  1.
    5000001    1    1    2    0    0 -0.48727532762E+02  0.26152033872E+02  0.23822045338E+02  0.97748612107E+02  0.77000000000E+02 0.  0.
   -5000001    1    1    2    0    0  0.48727532762E+02 -0.26152033872E+02 -0.40645175915E+03  0.41736115516E+03  0.77000000000E+02 0.  0.
<mgrwt>
<rscale>  0 0.34486602E+03</rscale>
<asrwt>0</asrwt>
<pdfrwt beam="1">  1        2 0.69056881E-01 0.34486602E+03</pdfrwt>
<pdfrwt beam="2">  1       -2 0.10190774E-01 0.34486602E+03</pdfrwt>
<totfact> 0.45383041E+03</totfact>
</mgrwt>
</event>
<event>
 4    1  0.2489209E-004  0.7630670E+03  0.7818608E-02  0.9615070E-01
          2   -1    0    0  501    0  0.00000000000E+00  0.00000000000E+00  0.13875494277E+04  0.13875494277E+04  0.25500000000E-02 0.  1.
         -2   -1    0    0    0  501 -0.00000000000E+00 -0.00000000000E+00 -0.10491001263E+03  0.10491001266E+03  0.25500000000E-02 0. -1.
    5000001    1    1    2    0    0  0.12823668859E+03 -0.22415850951E+03  0.11306426241E+03  0.29223999234E+03  0.77000000000E+02 0.  0.
   -5000001    1    1    2    0    0 -0.12823668859E+03  0.22415850951E+03  0.11695751526E+04  0.12002194480E+04  0.77000000000E+02 0.  0.
<mgrwt>
<rscale>  0 0.76306704E+03</rscale>
<asrwt>0</asrwt>
<pdfrwt beam="1">  1        2 0.21346916E+00 0.76306704E+03</pdfrwt>
<pdfrwt beam="2">  1       -2 0.16140001E-01 0.76306704E+03</pdfrwt>
<totfact> 0.45951194E+02</totfact>
</mgrwt>
</event>
<event>
 4    1  0.2489209E-004  0.4901032E+03  0.7818608E-02  0.1016395E+00
         -2   -1    0    0    0  501 -0.00000000000E+00  0.00000000000E+00  0.48763882789E+02  0.48763882855E+02  0.25500000000E-02 0. -1.
          2   -1    0    0  501    0  0.00000000000E+00 -0.00000000000E+00 -0.12314503027E+04  0.12314503027E+04  0.25500000000E-02 0.  1.
    5000001    1    1    2    0    0  0.77275745394E+02 -0.20919573855E+03 -0.76435430026E+03  0.79993805646E+03  0.77000000000E+02 0.  0.
   -5000001    1    1    2    0    0 -0.77275745394E+02  0.20919573855E+03 -0.41833211970E+03  0.48027612914E+03  0.77000000000E+02 0.  0.
<mgrwt>
<rscale>  0 0.49010325E+03</rscale>
<asrwt>0</asrwt>
<pdfrwt beam="1">  1        2 0.18945387E+00 0.49010325E+03</pdfrwt>
<pdfrwt beam="2">  1       -2 0.75021367E-02 0.49010325E+03</pdfrwt>
<totfact> 0.20005793E+03</totfact>
</mgrwt>
</event>
<event>
 4    1  0.2489209E-004  0.2325323E+03  0.7818608E-02  0.1124870E+00
         -2   -1    0    0    0  501 -0.00000000000E+00  0.00000000000E+00  0.18387763764E+02  0.18387763941E+02  0.25500000000E-02 0. -1.
          2   -1    0    0  501    0  0.00000000000E+00 -0.00000000000E+00 -0.73515301857E+03  0.73515301858E+03  0.25500000000E-02 0.  1.
    5000001    1    1    2    0    0  0.44104103276E+02 -0.25934824201E+02 -0.58686187563E+03  0.59409902214E+03  0.77000000000E+02 0.  0.
   -5000001    1    1    2    0    0 -0.44104103276E+02  0.25934824201E+02 -0.12990337918E+03  0.15944176038E+03  0.77000000000E+02 0.  0.
<mgrwt>
<rscale>  0 0.23253232E+03</rscale>
<asrwt>0</asrwt>
<pdfrwt beam="1">  1        2 0.11310044E+00 0.23253232E+03</pdfrwt>
<pdfrwt beam="2">  1       -2 0.28288873E-02 0.23253232E+03</pdfrwt>
<totfact> 0.17993323E+04</totfact>
</mgrwt>
</event>
<event>
 4    1  0.2489209E-004  0.1969338E+03  0.7818608E-02  0.1152352E+00
          2   -1    0    0  501    0  0.00000000000E+00  0.00000000000E+00  0.26069003429E+02  0.26069003554E+02  0.25500000000E-02 0.  1.
         -2   -1    0    0    0  501 -0.00000000000E+00 -0.00000000000E+00 -0.37192580928E+03  0.37192580929E+03  0.25500000000E-02 0. -1.
    5000001    1    1    2    0    0 -0.13808291567E+02  0.52112528795E+02 -0.23220657299E+03  0.25051003396E+03  0.77000000000E+02 0.  0.
   -5000001    1    1    2    0    0  0.13808291567E+02 -0.52112528795E+02 -0.11365023286E+03  0.14748477888E+03  0.77000000000E+02 0.  0.
<mgrwt>
<rscale>  0 0.19693385E+03</rscale>
<asrwt>0</asrwt>
<pdfrwt beam="1">  1        2 0.40106162E-02 0.19693385E+03</pdfrwt>
<pdfrwt beam="2">  1       -2 0.57219351E-01 0.19693385E+03</pdfrwt>
<totfact> 0.60001394E+03</totfact>
</mgrwt>
</event>
<event>
 4    1  0.2489209E-004  0.3209858E+03  0.7818608E-02  0.1075197E+00
          2   -1    0    0  501    0  0.00000000000E+00  0.00000000000E+00  0.78361771663E+03  0.78361771664E+03  0.25500000000E-02 0.  1.
         -2   -1    0    0    0  501 -0.00000000000E+00 -0.00000000000E+00 -0.32870575067E+02  0.32870575166E+02  0.25500000000E-02 0. -1.
    5000001    1    1    2    0    0 -0.53747109408E+02  0.46744863388E+02  0.68435738220E+03  0.69234952199E+03  0.77000000000E+02 0.  0.
   -5000001    1    1    2    0    0  0.53747109408E+02 -0.46744863388E+02  0.66389759367E+02  0.12413876982E+03  0.77000000000E+02 0.  0.
<mgrwt>
<rscale>  0 0.32098576E+03</rscale>
<asrwt>0</asrwt>
<pdfrwt beam="1">  1        2 0.12055656E+00 0.32098576E+03</pdfrwt>
<pdfrwt beam="2">  1       -2 0.50570119E-02 0.32098576E+03</pdfrwt>
<totfact> 0.70266010E+03</totfact>
</mgrwt>
</event>
<event>
 4    1  0.2489209E-004  0.2081407E+03  0.7818608E-02  0.1143047E+00
          2   -1    0    0  501    0  0.00000000000E+00  0.00000000000E+00  0.32300413189E+04  0.32300413189E+04  0.25500000000E-02 0.  1.
         -2   -1    0    0    0  501 -0.00000000000E+00 -0.00000000000E+00 -0.33530954007E+01  0.33530963703E+01  0.25500000000E-02 0. -1.
    5000001    1    1    2    0    0 -0.59790693631E+02  0.17215268141E+02  0.11146971739E+04  0.11190844838E+04  0.77000000000E+02 0.  0.
   -5000001    1    1    2    0    0  0.59790693631E+02 -0.17215268141E+02  0.21119910497E+04  0.21143099315E+04  0.77000000000E+02 0.  0.
<mgrwt>
<rscale>  0 0.20814070E+03</rscale>
<asrwt>0</asrwt>
<pdfrwt beam="1">  1        2 0.49693055E+00 0.20814070E+03</pdfrwt>
<pdfrwt beam="2">  1       -2 0.51585975E-03 0.20814070E+03</pdfrwt>
<totfact> 0.84052556E+03</totfact>
</mgrwt>
</event>
<event>
 4    1  0.2489209E-004  0.1907250E+03  0.7818608E-02  0.1157809E+00
         -2   -1    0    0    0  501 -0.00000000000E+00  0.00000000000E+00  0.38841896254E+01  0.38841904625E+01  0.25500000000E-02 0. -1.
          2   -1    0    0  501    0  0.00000000000E+00 -0.00000000000E+00 -0.23412875424E+04  0.23412875424E+04  0.25500000000E-02 0.  1.
    5000001    1    1    2    0    0  0.34765076427E+02  0.20197213899E+02 -0.68484345047E+03  0.69033042063E+03  0.77000000000E+02 0.  0.
   -5000001    1    1    2    0    0 -0.34765076427E+02 -0.20197213899E+02 -0.16525599023E+04  0.16548413122E+04  0.77000000000E+02 0.  0.
<mgrwt>
<rscale>  0 0.19072499E+03</rscale>
<asrwt>0</asrwt>
<pdfrwt beam="1">  1        2 0.36019696E+00 0.19072499E+03</pdfrwt>
<pdfrwt beam="2">  1       -2 0.59756957E-03 0.19072499E+03</pdfrwt>
<totfact> 0.21730434E+04</totfact>
</mgrwt>
</event>
<event>
 4    1  0.2489209E-004  0.3297181E+03  0.7818608E-02  0.1071262E+00
          2   -1    0    0  501    0  0.00000000000E+00  0.00000000000E+00  0.10313411326E+03  0.10313411329E+03  0.25500000000E-02 0.  1.
         -2   -1    0    0    0  501 -0.00000000000E+00 -0.00000000000E+00 -0.26352585002E+03  0.26352585003E+03  0.25500000000E-02 0. -1.
    5000001    1    1    2    0    0 -0.96266162010E+02  0.10932183612E+03 -0.73997593091E+02  0.18061860808E+03  0.77000000000E+02 0.  0.
   -5000001    1    1    2    0    0  0.96266162010E+02 -0.10932183612E+03 -0.86394143668E+02  0.18604135525E+03  0.77000000000E+02 0.  0.
<mgrwt>
<rscale>  0 0.32971809E+03</rscale>
<asrwt>0</asrwt>
<pdfrwt beam="1">  1        2 0.15866787E-01 0.32971809E+03</pdfrwt>
<pdfrwt beam="2">  1       -2 0.40542438E-01 0.32971809E+03</pdfrwt>
<totfact> 0.21224777E+03</totfact>
</mgrwt>
</event>
<event>
 4    1  0.2489209E-004  0.1765591E+03  0.7818608E-02  0.1171175E+00
         -2   -1    0    0    0  501 -0.00000000000E+00  0.00000000000E+00  0.22816837369E+02  0.22816837512E+02  0.25500000000E-02 0. -1.
          2   -1    0    0  501    0  0.00000000000E+00 -0.00000000000E+00 -0.34155819557E+03  0.34155819558E+03  0.25500000000E-02 0.  1.
    5000001    1    1    2    0    0 -0.21178407679E+02  0.27736981311E+02 -0.21184097234E+03  0.22808652447E+03  0.77000000000E+02 0.  0.
   -5000001    1    1    2    0    0  0.21178407679E+02 -0.27736981311E+02 -0.10690038586E+03  0.13628850862E+03  0.77000000000E+02 0.  0.
<mgrwt>
<rscale>  0 0.17655909E+03</rscale>
<asrwt>0</asrwt>
<pdfrwt beam="1">  1        2 0.52547411E-01 0.17655909E+03</pdfrwt>
<pdfrwt beam="2">  1       -2 0.35102829E-02 0.17655909E+03</pdfrwt>
<totfact> 0.30290932E+04</totfact>
</mgrwt>
</event>
<event>
 4    1  0.2489209E-004  0.4133440E+03  0.7818608E-02  0.1039255E+00
         -2   -1    0    0    0  501 -0.00000000000E+00  0.00000000000E+00  0.37943634926E+02  0.37943635011E+02  0.25500000000E-02 0. -1.
          2   -1    0    0  501    0  0.00000000000E+00 -0.00000000000E+00 -0.11257042872E+04  0.11257042872E+04  0.25500000000E-02 0.  1.
    5000001    1    1    2    0    0  0.20282390276E+02  0.17656597713E+03 -0.34092392595E+03  0.39210335745E+03  0.77000000000E+02 0.  0.
   -5000001    1    1    2    0    0 -0.20282390276E+02 -0.17656597713E+03 -0.74683672636E+03  0.77154456480E+03  0.77000000000E+02 0.  0.
<mgrwt>
<rscale>  0 0.41334399E+03</rscale>
<asrwt>0</asrwt>
<pdfrwt beam="1">  1        2 0.17318525E+00 0.41334399E+03</pdfrwt>
<pdfrwt beam="2">  1       -2 0.58374832E-02 0.41334399E+03</pdfrwt>
<totfact> 0.34174338E+03</totfact>
</mgrwt>
</event>
<event>
 4    1  0.2489209E-004  0.3044418E+03  0.7818608E-02  0.1083041E+00
         -2   -1    0    0    0  501 -0.00000000000E+00  0.00000000000E+00  0.56894518807E+02  0.56894518864E+02  0.25500000000E-02 0. -1.
          2   -1    0    0  501    0  0.00000000000E+00 -0.00000000000E+00 -0.40726603714E+03  0.40726603715E+03  0.25500000000E-02 0.  1.
    5000001    1    1    2    0    0 -0.53800922658E+01  0.13092723150E+03 -0.18806141146E+03  0.24179946199E+03  0.77000000000E+02 0.  0.
   -5000001    1    1    2    0    0  0.53800922658E+01 -0.13092723150E+03 -0.16231010688E+03  0.22236109402E+03  0.77000000000E+02 0.  0.
<mgrwt>
<rscale>  0 0.30444182E+03</rscale>
<asrwt>0</asrwt>
<pdfrwt beam="1">  1        2 0.62656312E-01 0.30444182E+03</pdfrwt>
<pdfrwt beam="2">  1       -2 0.87530031E-02 0.30444182E+03</pdfrwt>
<totfact> 0.64110939E+03</totfact>
</mgrwt>
</event>
<event>
 4    1  0.2489209E-004  0.1739228E+03  0.7818608E-02  0.1173818E+00
          2   -1    0    0  501    0  0.00000000000E+00  0.00000000000E+00  0.95325037655E+03  0.95325037655E+03  0.25500000000E-02 0.  1.
         -2   -1    0    0    0  501 -0.00000000000E+00 -0.00000000000E+00 -0.79331535581E+01  0.79331539679E+01  0.25500000000E-02 0. -1.
    5000001    1    1    2    0    0  0.19705362308E+01 -0.37352193481E+02  0.55723611842E+03  0.56377314679E+03  0.77000000000E+02 0.  0.
   -5000001    1    1    2    0    0 -0.19705362308E+01  0.37352193481E+02  0.38808110457E+03  0.39741038373E+03  0.77000000000E+02 0.  0.
<mgrwt>
<rscale>  0 0.17392276E+03</rscale>
<asrwt>0</asrwt>
<pdfrwt beam="1">  1        2 0.14665392E+00 0.17392276E+03</pdfrwt>
<pdfrwt beam="2">  1       -2 0.12204851E-02 0.17392276E+03</pdfrwt>
<totfact> 0.43106217E+04</totfact>
</mgrwt>
</event>
<event>
 4    1  0.2489209E-004  0.2327841E+03  0.7818608E-02  0.1124695E+00
         -2   -1    0    0    0  501 -0.00000000000E+00  0.00000000000E+00  0.82758361255E+01  0.82758365184E+01  0.25500000000E-02 0. -1.
          2   -1    0    0  501    0  0.00000000000E+00 -0.00000000000E+00 -0.16369475645E+04  0.16369475645E+04  0.25500000000E-02 0.  1.
    5000001    1    1    2    0    0  0.23703788757E+02  0.82403285283E+02 -0.92959162424E+03  0.93670793681E+03  0.77000000000E+02 0.  0.
   -5000001    1    1    2    0    0 -0.23703788757E+02 -0.82403285283E+02 -0.69908010410E+03  0.70851546417E+03  0.77000000000E+02 0.  0.
<mgrwt>
<rscale>  0 0.23278411E+03</rscale>
<asrwt>0</asrwt>
<pdfrwt beam="1">  1        2 0.25183783E+00 0.23278411E+03</pdfrwt>
<pdfrwt beam="2">  1       -2 0.12732069E-02 0.23278411E+03</pdfrwt>
<totfact> 0.17190822E+04</totfact>
</mgrwt>
</event>
<event>
 4    1  0.2489209E-004  0.1813473E+03  0.7818608E-02  0.1166505E+00
         -2   -1    0    0    0  501 -0.00000000000E+00  0.00000000000E+00  0.91682300090E+01  0.91682303636E+01  0.25500000000E-02 0. -1.
          2   -1    0    0  501    0  0.00000000000E+00 -0.00000000000E+00 -0.89676115622E+03  0.89676115622E+03  0.25500000000E-02 0.  1.
    5000001    1    1    2    0    0 -0.18760037766E+02  0.43320652654E+02 -0.48379042295E+03  0.49214915555E+03  0.77000000000E+02 0.  0.
   -5000001    1    1    2    0    0  0.18760037766E+02 -0.43320652654E+02 -0.40380250326E+03  0.41378023104E+03  0.77000000000E+02 0.  0.
<mgrwt>
<rscale>  0 0.18134732E+03</rscale>
<asrwt>0</asrwt>
<pdfrwt beam="1">  1        2 0.13796319E+00 0.18134732E+03</pdfrwt>
<pdfrwt beam="2">  1       -2 0.14104977E-02 0.18134732E+03</pdfrwt>
<totfact> 0.38074976E+04</totfact>
</mgrwt>
</event>
<event>
 4    1  0.2489209E-004  0.3809336E+03  0.7818608E-02  0.1050589E+00
         -2   -1    0    0    0  501 -0.00000000000E+00  0.00000000000E+00  0.73357854129E+02  0.73357854173E+02  0.25500000000E-02 0. -1.
          2   -1    0    0  501    0  0.00000000000E+00 -0.00000000000E+00 -0.49452919191E+03  0.49452919191E+03  0.25500000000E-02 0.  1.
    5000001    1    1    2    0    0 -0.17324485064E+02  0.17196217264E+03 -0.17801044315E+03  0.25978422676E+03  0.77000000000E+02 0.  0.
   -5000001    1    1    2    0    0  0.17324485064E+02 -0.17196217264E+03 -0.24316089463E+03  0.30810281933E+03  0.77000000000E+02 0.  0.
<mgrwt>
<rscale>  0 0.38093359E+03</rscale>
<asrwt>0</asrwt>
<pdfrwt beam="1">  1        2 0.76081412E-01 0.38093359E+03</pdfrwt>
<pdfrwt beam="2">  1       -2 0.11285824E-01 0.38093359E+03</pdfrwt>
<totfact> 0.34608412E+03</totfact>
</mgrwt>
</event>
<event>
 4    1  0.2489209E-004  0.2688233E+03  0.7818608E-02  0.1101955E+00
         -2   -1    0    0    0  501 -0.00000000000E+00  0.00000000000E+00  0.28868639716E+02  0.28868639828E+02  0.25500000000E-02 0. -1.
          2   -1    0    0  501    0  0.00000000000E+00 -0.00000000000E+00 -0.62581718258E+03  0.62581718258E+03  0.25500000000E-02 0.  1.
    5000001    1    1    2    0    0 -0.62589256385E+02  0.61325932924E+02 -0.46110207396E+03  0.47562843447E+03  0.77000000000E+02 0.  0.
   -5000001    1    1    2    0    0  0.62589256385E+02 -0.61325932924E+02 -0.13584646890E+03  0.17905738794E+03  0.77000000000E+02 0.  0.
<mgrwt>
<rscale>  0 0.26882329E+03</rscale>
<asrwt>0</asrwt>
<pdfrwt beam="1">  1        2 0.96279556E-01 0.26882329E+03</pdfrwt>
<pdfrwt beam="2">  1       -2 0.44413297E-02 0.26882329E+03</pdfrwt>
<totfact> 0.11194239E+04</totfact>
</mgrwt>
</event>
<event>
 4    1  0.2489209E-004  0.2396259E+03  0.7818608E-02  0.1120042E+00
          2   -1    0    0  501    0  0.00000000000E+00  0.00000000000E+00  0.45327428891E+03  0.45327428892E+03  0.25500000000E-02 0.  1.
         -2   -1    0    0    0  501 -0.00000000000E+00 -0.00000000000E+00 -0.31669892542E+02  0.31669892645E+02  0.25500000000E-02 0. -1.
    5000001    1    1    2    0    0 -0.34990565206E+02 -0.68761064268E+02  0.31145678698E+03  0.32997992934E+03  0.77000000000E+02 0.  0.
   -5000001    1    1    2    0    0  0.34990565206E+02  0.68761064268E+02  0.11014760939E+03  0.15496425223E+03  0.77000000000E+02 0.  0.
<mgrwt>
<rscale>  0 0.23962594E+03</rscale>
<asrwt>0</asrwt>
<pdfrwt beam="1">  1        2 0.69734499E-01 0.23962594E+03</pdfrwt>
<pdfrwt beam="2">  1       -2 0.48722916E-02 0.23962594E+03</pdfrwt>
<totfact> 0.13943859E+04</totfact>
</mgrwt>
</event>
<event>
 4    1  0.2489209E-004  0.2072047E+03  0.7818608E-02  0.1143799E+00
         -2   -1    0    0    0  501 -0.00000000000E+00  0.00000000000E+00  0.54766395232E+01  0.54766401169E+01  0.25500000000E-02 0. -1.
          2   -1    0    0  501    0  0.00000000000E+00 -0.00000000000E+00 -0.19598599263E+04  0.19598599263E+04  0.25500000000E-02 0.  1.
    5000001    1    1    2    0    0  0.17337254630E+02  0.39853445945E+02 -0.14893438187E+04  0.14919661148E+04  0.77000000000E+02 0.  0.
   -5000001    1    1    2    0    0 -0.17337254630E+02 -0.39853445945E+02 -0.46503946807E+03  0.47337045157E+03  0.77000000000E+02 0.  0.
<mgrwt>
<rscale>  0 0.20720470E+03</rscale>
<asrwt>0</asrwt>
<pdfrwt beam="1">  1        2 0.30151635E+00 0.20720470E+03</pdfrwt>
<pdfrwt beam="2">  1       -2 0.84256154E-03 0.20720470E+03</pdfrwt>
<totfact> 0.21103125E+04</totfact>
</mgrwt>
</event>
<event>
 4    1  0.2489209E-004  0.2691142E+03  0.7818608E-02  0.1101788E+00
          2   -1    0    0  501    0  0.00000000000E+00  0.00000000000E+00  0.24312382763E+04  0.24312382763E+04  0.25500000000E-02 0.  1.
         -2   -1    0    0    0  501 -0.00000000000E+00 -0.00000000000E+00 -0.74470726748E+01  0.74470731114E+01  0.25500000000E-02 0. -1.
    5000001    1    1    2    0    0  0.46541830407E+02 -0.95320751297E+02  0.93637497052E+03  0.94550477155E+03  0.77000000000E+02 0.  0.
   -5000001    1    1    2    0    0 -0.46541830407E+02  0.95320751297E+02  0.14874162331E+04  0.14931805779E+04  0.77000000000E+02 0.  0.
<mgrwt>
<rscale>  0 0.26911417E+03</rscale>
<asrwt>0</asrwt>
<pdfrwt beam="1">  1        2 0.37403703E+00 0.26911417E+03</pdfrwt>
<pdfrwt beam="2">  1       -2 0.11457024E-02 0.26911417E+03</pdfrwt>
<totfact> 0.76481533E+03</totfact>
</mgrwt>
</event>
<event>
 4    1  0.2489209E-004  0.2037379E+03  0.7818608E-02  0.1146623E+00
         -2   -1    0    0    0  501 -0.00000000000E+00  0.00000000000E+00  0.75672300558E+01  0.75672304854E+01  0.25500000000E-02 0. -1.
          2   -1    0    0  501    0  0.00000000000E+00 -0.00000000000E+00 -0.13713448165E+04  0.13713448165E+04  0.25500000000E-02 0.  1.
    5000001    1    1    2    0    0  0.47734349984E+01  0.57824424143E+02 -0.45927876087E+03  0.46928928168E+03  0.77000000000E+02 0.  0.
   -5000001    1    1    2    0    0 -0.47734349984E+01 -0.57824424143E+02 -0.90449882554E+03  0.90962276528E+03  0.77000000000E+02 0.  0.
<mgrwt>
<rscale>  0 0.20373789E+03</rscale>
<asrwt>0</asrwt>
<pdfrwt beam="1">  1        2 0.21097593E+00 0.20373789E+03</pdfrwt>
<pdfrwt beam="2">  1       -2 0.11641904E-02 0.20373789E+03</pdfrwt>
<totfact> 0.26924303E+04</totfact>
</mgrwt>
</event>
<event>
 4    1  0.2489209E-004  0.2435131E+03  0.7818608E-02  0.1117474E+00
         -2   -1    0    0    0  501 -0.00000000000E+00  0.00000000000E+00  0.16923966796E+02  0.16923966989E+02  0.25500000000E-02 0. -1.
          2   -1    0    0  501    0  0.00000000000E+00 -0.00000000000E+00 -0.87595666425E+03  0.87595666426E+03  0.25500000000E-02 0.  1.
    5000001    1    1    2    0    0 -0.57100372196E+02 -0.61124743991E+02 -0.26973333509E+03  0.29271446649E+03  0.77000000000E+02 0.  0.
   -5000001    1    1    2    0    0  0.57100372196E+02  0.61124743991E+02 -0.58929936237E+03  0.60016616476E+03  0.77000000000E+02 0.  0.
<mgrwt>
<rscale>  0 0.24351313E+03</rscale>
<asrwt>0</asrwt>
<pdfrwt beam="1">  1        2 0.13476253E+00 0.24351313E+03</pdfrwt>
<pdfrwt beam="2">  1       -2 0.26036879E-02 0.24351313E+03</pdfrwt>
<totfact> 0.16320797E+04</totfact>
</mgrwt>
</event>
<event>
 4    1  0.2489209E-004  0.4238410E+03  0.7818608E-02  0.1035823E+00
         -2   -1    0    0    0  501 -0.00000000000E+00  0.00000000000E+00  0.15275887995E+03  0.15275887997E+03  0.25500000000E-02 0. -1.
          2   -1    0    0  501    0  0.00000000000E+00 -0.00000000000E+00 -0.29399463529E+03  0.29399463530E+03  0.25500000000E-02 0.  1.
    5000001    1    1    2    0    0 -0.18095745032E+03  0.76687276730E+02 -0.90470993497E+02  0.22965308163E+03  0.77000000000E+02 0.  0.
   -5000001    1    1    2    0    0  0.18095745032E+03 -0.76687276730E+02 -0.50764761841E+02  0.21710043363E+03  0.77000000000E+02 0.  0.
<mgrwt>
<rscale>  0 0.42384097E+03</rscale>
<asrwt>0</asrwt>
<pdfrwt beam="1">  1        2 0.45229944E-01 0.42384097E+03</pdfrwt>
<pdfrwt beam="2">  1       -2 0.23501366E-01 0.42384097E+03</pdfrwt>
<totfact> 0.17852022E+03</totfact>
</mgrwt>
</event>
<event>
 4    1  0.2489209E-004  0.3154541E+03  0.7818608E-02  0.1077761E+00
          2   -1    0    0  501    0  0.00000000000E+00  0.00000000000E+00  0.16228184329E+03  0.16228184331E+03  0.25500000000E-02 0.  1.
         -2   -1    0    0    0  501 -0.00000000000E+00 -0.00000000000E+00 -0.15330010919E+03  0.15330010921E+03  0.25500000000E-02 0. -1.
    5000001    1    1    2    0    0 -0.11892514987E+03 -0.46320074608E+02 -0.47106033917E+02  0.15632248403E+03  0.77000000000E+02 0.  0.
   -5000001    1    1    2    0    0  0.11892514987E+03  0.46320074608E+02  0.56087768011E+02  0.15925946849E+03  0.77000000000E+02 0.  0.
<mgrwt>
<rscale>  0 0.31545411E+03</rscale>
<asrwt>0</asrwt>
<pdfrwt beam="1">  1        2 0.24966437E-01 0.31545411E+03</pdfrwt>
<pdfrwt beam="2">  1       -2 0.23584632E-01 0.31545411E+03</pdfrwt>
<totfact> 0.33972714E+03</totfact>
</mgrwt>
</event>
<event>
 4    1  0.2489209E-004  0.1815733E+03  0.7818608E-02  0.1166289E+00
          2   -1    0    0  501    0  0.00000000000E+00  0.00000000000E+00  0.89919032069E+03  0.89919032069E+03  0.25500000000E-02 0.  1.
         -2   -1    0    0    0  501 -0.00000000000E+00 -0.00000000000E+00 -0.91662618686E+01  0.91662622233E+01  0.25500000000E-02 0. -1.
    5000001    1    1    2    0    0 -0.29771213640E+02  0.27623722418E+02  0.57390500093E+03  0.58046993488E+03  0.77000000000E+02 0.  0.
   -5000001    1    1    2    0    0  0.29771213640E+02 -0.27623722418E+02  0.31611905789E+03  0.32788664804E+03  0.77000000000E+02 0.  0.
<mgrwt>
<rscale>  0 0.18157328E+03</rscale>
<asrwt>0</asrwt>
<pdfrwt beam="1">  1        2 0.13833696E+00 0.18157328E+03</pdfrwt>
<pdfrwt beam="2">  1       -2 0.14101943E-02 0.18157328E+03</pdfrwt>
<totfact> 0.37954865E+04</totfact>
</mgrwt>
</event>
<event>
 4    1  0.2489209E-004  0.2433982E+03  0.7818608E-02  0.1117550E+00
         -2   -1    0    0    0  501 -0.00000000000E+00  0.00000000000E+00  0.31889717025E+02  0.31889717127E+02  0.25500000000E-02 0.  1.
          2   -1    0    0  501    0  0.00000000000E+00 -0.00000000000E+00 -0.46443421903E+03  0.46443421903E+03  0.25500000000E-02 0. -1.
    5000001    1    1    2    0    0 -0.79974327801E+02 -0.15143442375E+02 -0.11940845169E+03  0.16374551991E+03  0.77000000000E+02 0.  0.
   -5000001    1    1    2    0    0  0.79974327801E+02  0.15143442375E+02 -0.31313605031E+03  0.33257841625E+03  0.77000000000E+02 0.  0.
<mgrwt>
<rscale>  0 0.24339824E+03</rscale>
<asrwt>0</asrwt>
<pdfrwt beam="1">  1        2 0.71451413E-01 0.24339824E+03</pdfrwt>
<pdfrwt beam="2">  1       -2 0.49061107E-02 0.24339824E+03</pdfrwt>
<totfact> 0.13444721E+04</totfact>
</mgrwt>
</event>
<event>
 4    1  0.2489209E-004  0.2809640E+03  0.7818608E-02  0.1095164E+00
         -2   -1    0    0    0  501 -0.00000000000E+00  0.00000000000E+00  0.12245528359E+02  0.12245528625E+02  0.25500000000E-02 0. -1.
          2   -1    0    0  501    0  0.00000000000E+00 -0.00000000000E+00 -0.16116248547E+04  0.16116248547E+04  0.25500000000E-02 0.  1.
    5000001    1    1    2    0    0 -0.25280941781E+02  0.11238332734E+03 -0.93363017165E+03  0.94385562227E+03  0.77000000000E+02 0.  0.
   -5000001    1    1    2    0    0  0.25280941781E+02 -0.11238332734E+03 -0.66574915474E+03  0.68001476110E+03  0.77000000000E+02 0.  0.
<mgrwt>
<rscale>  0 0.28096404E+03</rscale>
<asrwt>0</asrwt>
<pdfrwt beam="1">  1        2 0.24794212E+00 0.28096404E+03</pdfrwt>
<pdfrwt beam="2">  1       -2 0.18839287E-02 0.28096404E+03</pdfrwt>
<totfact> 0.10048779E+04</totfact>
</mgrwt>
</event>
<event>
 4    1  0.2489209E-004  0.3828437E+03  0.7818608E-02  0.1049888E+00
          2   -1    0    0  501    0  0.00000000000E+00  0.00000000000E+00  0.11041197021E+03  0.11041197024E+03  0.25500000000E-02 0.  1.
         -2   -1    0    0    0  501 -0.00000000000E+00 -0.00000000000E+00 -0.33186905480E+03  0.33186905481E+03  0.25500000000E-02 0. -1.
    5000001    1    1    2    0    0  0.17279606218E+03 -0.29221618264E+02 -0.10961199101E+03  0.22058143769E+03  0.77000000000E+02 0.  0.
   -5000001    1    1    2    0    0 -0.17279606218E+03  0.29221618264E+02 -0.11184509358E+03  0.22169958736E+03  0.77000000000E+02 0.  0.
<mgrwt>
<rscale>  0 0.38284366E+03</rscale>
<asrwt>0</asrwt>
<pdfrwt beam="1">  1        2 0.16986457E-01 0.38284366E+03</pdfrwt>
<pdfrwt beam="2">  1       -2 0.51056777E-01 0.38284366E+03</pdfrwt>
<totfact> 0.12460882E+03</totfact>
</mgrwt>
</event>
<event>
 4    1  0.2489209E-004  0.1936298E+03  0.7818608E-02  0.1155228E+00
          2   -1    0    0  501    0  0.00000000000E+00  0.00000000000E+00  0.10169715763E+04  0.10169715763E+04  0.25500000000E-02 0.  1.
         -2   -1    0    0    0  501 -0.00000000000E+00 -0.00000000000E+00 -0.92167024832E+01  0.92167028360E+01  0.25500000000E-02 0. -1.
    5000001    1    1    2    0    0 -0.38018539410E+02  0.43867863527E+02  0.45818705492E+03  0.46822449325E+03  0.77000000000E+02 0.  0.
   -5000001    1    1    2    0    0  0.38018539410E+02 -0.43867863527E+02  0.54956781890E+03  0.55796378589E+03  0.77000000000E+02 0.  0.
<mgrwt>
<rscale>  0 0.19362980E+03</rscale>
<asrwt>0</asrwt>
<pdfrwt beam="1">  1        2 0.15645713E+00 0.19362980E+03</pdfrwt>
<pdfrwt beam="2">  1       -2 0.14179546E-02 0.19362980E+03</pdfrwt>
<totfact> 0.31995629E+04</totfact>
</mgrwt>
</event>
<event>
 4    1  0.2489209E-004  0.4281181E+03  0.7818608E-02  0.1034456E+00
         -2   -1    0    0    0  501 -0.00000000000E+00  0.00000000000E+00  0.71286135920E+02  0.71286135965E+02  0.25500000000E-02 0. -1.
          2   -1    0    0  501    0  0.00000000000E+00 -0.00000000000E+00 -0.64277950041E+03  0.64277950041E+03  0.25500000000E-02 0.  1.
    5000001    1    1    2    0    0  0.16139003306E+03 -0.42244023021E+00 -0.89489078167E+02  0.19996053695E+03  0.77000000000E+02 0.  0.
   -5000001    1    1    2    0    0 -0.16139003306E+03  0.42244023021E+00 -0.48200428632E+03  0.51410509943E+03  0.77000000000E+02 0.  0.
<mgrwt>
<rscale>  0 0.42811805E+03</rscale>
<asrwt>0</asrwt>
<pdfrwt beam="1">  1        2 0.98889150E-01 0.42811805E+03</pdfrwt>
<pdfrwt beam="2">  1       -2 0.10967098E-01 0.42811805E+03</pdfrwt>
<totfact> 0.26750944E+03</totfact>
</mgrwt>
</event>
<event>
 4    1  0.2489209E-004  0.1822649E+03  0.7818608E-02  0.1165629E+00
         -2   -1    0    0    0  501 -0.00000000000E+00  0.00000000000E+00  0.22688241239E+02  0.22688241382E+02  0.25500000000E-02 0. -1.
          2   -1    0    0  501    0  0.00000000000E+00 -0.00000000000E+00 -0.36605414012E+03  0.36605414012E+03  0.25500000000E-02 0.  1.
    5000001    1    1    2    0    0 -0.18548551204E+02  0.42105211537E+02 -0.13734305164E+03  0.16403966418E+03  0.77000000000E+02 0.  0.
   -5000001    1    1    2    0    0  0.18548551204E+02 -0.42105211537E+02 -0.20602284724E+03  0.22470271733E+03  0.77000000000E+02 0.  0.
<mgrwt>
<rscale>  0 0.18226491E+03</rscale>
<asrwt>0</asrwt>
<pdfrwt beam="1">  1        2 0.56316017E-01 0.18226491E+03</pdfrwt>
<pdfrwt beam="2">  1       -2 0.34904989E-02 0.18226491E+03</pdfrwt>
<totfact> 0.28442278E+04</totfact>
</mgrwt>
</event>
<event>
 4    1  0.2489209E-004  0.2056514E+03  0.7818608E-02  0.1145057E+00
          2   -1    0    0  501    0  0.00000000000E+00  0.00000000000E+00  0.20320603237E+03  0.20320603238E+03  0.25500000000E-02 0.  1.
         -2   -1    0    0    0  501 -0.00000000000E+00 -0.00000000000E+00 -0.52031533278E+02  0.52031533340E+02  0.25500000000E-02 0. -1.
    5000001    1    1    2    0    0 -0.63798926455E+02  0.18622369790E+02  0.56886863654E+02  0.11654274293E+03  0.77000000000E+02 0.  0.
   -5000001    1    1    2    0    0  0.63798926455E+02 -0.18622369790E+02  0.94287635436E+02  0.13869482279E+03  0.77000000000E+02 0.  0.
<mgrwt>
<rscale>  0 0.20565137E+03</rscale>
<asrwt>0</asrwt>
<pdfrwt beam="1">  1        2 0.31262466E-01 0.20565137E+03</pdfrwt>
<pdfrwt beam="2">  1       -2 0.80048513E-02 0.20565137E+03</pdfrwt>
<totfact> 0.15328006E+04</totfact>
</mgrwt>
</event>
<event>
 4    1  0.2489209E-004  0.1704461E+03  0.7818608E-02  0.1177383E+00
          2   -1    0    0  501    0  0.00000000000E+00  0.00000000000E+00  0.16558358257E+04  0.16558358257E+04  0.25500000000E-02 0.  1.
         -2   -1    0    0    0  501 -0.00000000000E+00 -0.00000000000E+00 -0.43862844301E+01  0.43862851713E+01  0.25500000000E-02 0. -1.
    5000001    1    1    2    0    0  0.27735240751E+02 -0.21523814058E+02  0.72761690731E+03  0.73252159146E+03  0.77000000000E+02 0.  0.
   -5000001    1    1    2    0    0 -0.27735240751E+02  0.21523814058E+02  0.92383263398E+03  0.92770051943E+03  0.77000000000E+02 0.  0.
<mgrwt>
<rscale>  0 0.17044609E+03</rscale>
<asrwt>0</asrwt>
<pdfrwt beam="1">  1        2 0.25474376E+00 0.17044609E+03</pdfrwt>
<pdfrwt beam="2">  1       -2 0.67481361E-03 0.17044609E+03</pdfrwt>
<totfact> 0.41279017E+04</totfact>
</mgrwt>
</event>
<event>
 4    1  0.2489209E-004  0.2444735E+03  0.7818608E-02  0.1116848E+00
          2   -1    0    0  501    0  0.00000000000E+00  0.00000000000E+00  0.14447007703E+04  0.14447007703E+04  0.25500000000E-02 0.  1.
         -2   -1    0    0    0  501 -0.00000000000E+00 -0.00000000000E+00 -0.10342506986E+02  0.10342507300E+02  0.25500000000E-02 0. -1.
    5000001    1    1    2    0    0  0.73872702384E+01 -0.94322388358E+02  0.76387027972E+03  0.77354902168E+03  0.77000000000E+02 0.  0.
   -5000001    1    1    2    0    0 -0.73872702384E+01  0.94322388358E+02  0.67048798361E+03  0.68149425594E+03  0.77000000000E+02 0.  0.
<mgrwt>
<rscale>  0 0.24447354E+03</rscale>
<asrwt>0</asrwt>
<pdfrwt beam="1">  1        2 0.22226150E+00 0.24447354E+03</pdfrwt>
<pdfrwt beam="2">  1       -2 0.15911561E-02 0.24447354E+03</pdfrwt>
<totfact> 0.15740398E+04</totfact>
</mgrwt>
</event>
<event>
 4    1  0.2489209E-004  0.2497186E+03  0.7818608E-02  0.1113483E+00
          2   -1    0    0  501    0  0.00000000000E+00  0.00000000000E+00  0.11436550896E+04  0.11436550896E+04  0.25500000000E-02 0.  1.
         -2   -1    0    0    0  501 -0.00000000000E+00 -0.00000000000E+00 -0.13631593062E+02  0.13631593301E+02  0.25500000000E-02 0. -1.
    5000001    1    1    2    0    0  0.75968315527E+02  0.15271215132E+02  0.28477847664E+03  0.30501176327E+03  0.77000000000E+02 0.  0.
   -5000001    1    1    2    0    0 -0.75968315527E+02 -0.15271215132E+02  0.84524501993E+03  0.85227491967E+03  0.77000000000E+02 0.  0.
<mgrwt>
<rscale>  0 0.24971857E+03</rscale>
<asrwt>0</asrwt>
<pdfrwt beam="1">  1        2 0.17594693E+00 0.24971857E+03</pdfrwt>
<pdfrwt beam="2">  1       -2 0.20971683E-02 0.24971857E+03</pdfrwt>
<totfact> 0.15431569E+04</totfact>
</mgrwt>
</event>
<event>
 4    1  0.2489209E-004  0.2031359E+03  0.7818608E-02  0.1147120E+00
          2   -1    0    0  501    0  0.00000000000E+00  0.00000000000E+00  0.49461080240E+03  0.49461080240E+03  0.25500000000E-02 0.  1.
         -2   -1    0    0    0  501 -0.00000000000E+00 -0.00000000000E+00 -0.20856892442E+02  0.20856892598E+02  0.25500000000E-02 0. -1.
    5000001    1    1    2    0    0  0.63336710864E+02  0.15516578233E+01  0.28589163587E+03  0.30278205701E+03  0.77000000000E+02 0.  0.
   -5000001    1    1    2    0    0 -0.63336710864E+02 -0.15516578233E+01  0.18786227409E+03  0.21268563800E+03  0.77000000000E+02 0.  0.
<mgrwt>
<rscale>  0 0.20313586E+03</rscale>
<asrwt>0</asrwt>
<pdfrwt beam="1">  1        2 0.76093974E-01 0.20313586E+03</pdfrwt>
<pdfrwt beam="2">  1       -2 0.32087525E-02 0.20313586E+03</pdfrwt>
<totfact> 0.23436948E+04</totfact>
</mgrwt>
</event>
<event>
 4    1  0.2489209E-004  0.2579629E+03  0.7818608E-02  0.1108373E+00
          2   -1    0    0  501    0  0.00000000000E+00  0.00000000000E+00  0.16951603135E+03  0.16951603137E+03  0.25500000000E-02 0. -1.
         -2   -1    0    0    0  501 -0.00000000000E+00 -0.00000000000E+00 -0.98139486685E+02  0.98139486718E+02  0.25500000000E-02 0.  1.
    5000001    1    1    2    0    0  0.42212477579E+02 -0.83276983453E+02 -0.10600387317E+02  0.12148381558E+03  0.77000000000E+02 0.  0.
   -5000001    1    1    2    0    0 -0.42212477579E+02  0.83276983453E+02  0.81976931980E+02  0.14617170251E+03  0.77000000000E+02 0.  0.
<mgrwt>
<rscale>  0 0.25796291E+03</rscale>
<asrwt>0</asrwt>
<pdfrwt beam="1">  1        2 0.26079389E-01 0.25796291E+03</pdfrwt>
<pdfrwt beam="2">  1       -2 0.15098383E-01 0.25796291E+03</pdfrwt>
<totfact> 0.68634708E+03</totfact>
</mgrwt>
</event>
<event>
 4    1  0.2489209E-004  0.5540236E+03  0.7818608E-02  0.1000567E+00
          2   -1    0    0  501    0  0.00000000000E+00  0.00000000000E+00  0.83583247159E+03  0.83583247159E+03  0.25500000000E-02 0.  1.
         -2   -1    0    0    0  501 -0.00000000000E+00 -0.00000000000E+00 -0.91807332529E+02  0.91807332565E+02  0.25500000000E-02 0. -1.
    5000001    1    1    2    0    0  0.21108222036E+03 -0.12079829052E+03  0.55280266302E+03  0.60882486397E+03  0.77000000000E+02 0.  0.
   -5000001    1    1    2    0    0 -0.21108222036E+03  0.12079829052E+03  0.19122247604E+03  0.31881494019E+03  0.77000000000E+02 0.  0.
<mgrwt>
<rscale>  0 0.55402364E+03</rscale>
<asrwt>0</asrwt>
<pdfrwt beam="1">  1        2 0.12858961E+00 0.55402364E+03</pdfrwt>
<pdfrwt beam="2">  1       -2 0.14124205E-01 0.55402364E+03</pdfrwt>
<totfact> 0.12655628E+03</totfact>
</mgrwt>
</event>
<event>
 4    1  0.2489209E-004  0.4013397E+03  0.7818608E-02  0.1043317E+00
          2   -1    0    0  501    0  0.00000000000E+00  0.00000000000E+00  0.23958126092E+03  0.23958126094E+03  0.25500000000E-02 0. -1.
         -2   -1    0    0    0  501 -0.00000000000E+00 -0.00000000000E+00 -0.16807816595E+03  0.16807816597E+03  0.25500000000E-02 0.  1.
    5000001    1    1    2    0    0 -0.17622483403E+03  0.12139703650E+02 -0.21137653276E+02  0.19385139907E+03  0.77000000000E+02 0.  0.
   -5000001    1    1    2    0    0  0.17622483403E+03 -0.12139703650E+02  0.92640748246E+02  0.21380802784E+03  0.77000000000E+02 0.  0.
<mgrwt>
<rscale>  0 0.40133965E+03</rscale>
<asrwt>0</asrwt>
<pdfrwt beam="1">  1        2 0.36858655E-01 0.40133965E+03</pdfrwt>
<pdfrwt beam="2">  1       -2 0.25858179E-01 0.40133965E+03</pdfrwt>
<totfact> 0.18829715E+03</totfact>
</mgrwt>
</event>
<event>
 4    1  0.2489209E-004  0.2098811E+03  0.7818608E-02  0.1141660E+00
          2   -1    0    0  501    0  0.00000000000E+00  0.00000000000E+00  0.76463139399E+01  0.76463143651E+01  0.25500000000E-02 0.  1.
         -2   -1    0    0    0  501 -0.00000000000E+00 -0.00000000000E+00 -0.14402389322E+04  0.14402389322E+04  0.25500000000E-02 0. -1.
    5000001    1    1    2    0    0  0.63485154945E+02  0.75568925603E+01 -0.93401759860E+03  0.93936433083E+03  0.77000000000E+02 0.  0.
   -5000001    1    1    2    0    0 -0.63485154945E+02 -0.75568925603E+01 -0.49857501970E+03  0.50852091579E+03  0.77000000000E+02 0.  0.
<mgrwt>
<rscale>  0 0.20988110E+03</rscale>
<asrwt>0</asrwt>
<pdfrwt beam="1">  1        2 0.11763572E-02 0.20988110E+03</pdfrwt>
<pdfrwt beam="2">  1       -2 0.22157500E+00 0.20988110E+03</pdfrwt>
<totfact> 0.12050122E+03</totfact>
</mgrwt>
</event>
<event>
 4    1  0.2489209E-004  0.4085666E+03  0.7818608E-02  0.1040853E+00
         -2   -1    0    0    0  501 -0.00000000000E+00  0.00000000000E+00  0.21726916402E+02  0.21726916552E+02  0.25500000000E-02 0. -1.
          2   -1    0    0  501    0  0.00000000000E+00 -0.00000000000E+00 -0.19207354833E+04  0.19207354833E+04  0.25500000000E-02 0.  1.
    5000001    1    1    2    0    0 -0.13305924966E+03 -0.51761348551E+02 -0.35914949524E+03  0.39408293677E+03  0.77000000000E+02 0.  0.
   -5000001    1    1    2    0    0  0.13305924966E+03  0.51761348551E+02 -0.15398590717E+04  0.15483794631E+04  0.77000000000E+02 0.  0.
<mgrwt>
<rscale>  0 0.40856656E+03</rscale>
<asrwt>0</asrwt>
<pdfrwt beam="1">  1        2 0.29549763E+00 0.40856656E+03</pdfrwt>
<pdfrwt beam="2">  1       -2 0.33426040E-02 0.40856656E+03</pdfrwt>
<totfact> 0.29321414E+03</totfact>
</mgrwt>
</event>
<event>
 4    1  0.2489209E-004  0.2552013E+03  0.7818608E-02  0.1110061E+00
         -2   -1    0    0    0  501 -0.00000000000E+00  0.00000000000E+00  0.25303716788E+02  0.25303716917E+02  0.25500000000E-02 0. -1.
          2   -1    0    0  501    0  0.00000000000E+00 -0.00000000000E+00 -0.64346002912E+03  0.64346002912E+03  0.25500000000E-02 0.  1.
    5000001    1    1    2    0    0 -0.69766861155E+01 -0.72846423094E+02 -0.12382188842E+03  0.16314452353E+03  0.77000000000E+02 0.  0.
   -5000001    1    1    2    0    0  0.69766861155E+01  0.72846423094E+02 -0.49433442391E+03  0.50561922251E+03  0.77000000000E+02 0.  0.
<mgrwt>
<rscale>  0 0.25520134E+03</rscale>
<asrwt>0</asrwt>
<pdfrwt beam="1">  1        2 0.98993838E-01 0.25520134E+03</pdfrwt>
<pdfrwt beam="2">  1       -2 0.38928800E-02 0.25520134E+03</pdfrwt>
<totfact> 0.13182956E+04</totfact>
</mgrwt>
</event>
<event>
 4    1  0.2489209E-004  0.2719505E+03  0.7818608E-02  0.1100168E+00
         -2   -1    0    0    0  501 -0.00000000000E+00  0.00000000000E+00  0.36111182854E+01  0.36111191858E+01  0.25500000000E-02 0. -1.
          2   -1    0    0  501    0  0.00000000000E+00 -0.00000000000E+00 -0.51200931193E+04  0.51200931193E+04  0.25500000000E-02 0.  1.
    5000001    1    1    2    0    0 -0.96455865288E+02  0.56299301752E+02 -0.27338922622E+04  0.27372557876E+04  0.77000000000E+02 0.  0.
   -5000001    1    1    2    0    0  0.96455865288E+02 -0.56299301752E+02 -0.23825897388E+04  0.23864484509E+04  0.77000000000E+02 0.  0.
<mgrwt>
<rscale>  0 0.27195047E+03</rscale>
<asrwt>0</asrwt>
<pdfrwt beam="1">  1        2 0.78770082E+00 0.27195047E+03</pdfrwt>
<pdfrwt beam="2">  1       -2 0.55556083E-03 0.27195047E+03</pdfrwt>
<totfact> 0.17928268E+02</totfact>
</mgrwt>
</event>
<event>
 4    1  0.2489209E-004  0.1794101E+03  0.7818608E-02  0.1168375E+00
          2   -1    0    0  501    0  0.00000000000E+00  0.00000000000E+00  0.28132641472E+03  0.28132641473E+03  0.25500000000E-02 0.  1.
         -2   -1    0    0    0  501 -0.00000000000E+00 -0.00000000000E+00 -0.28603768710E+02  0.28603768824E+02  0.25500000000E-02 0. -1.
    5000001    1    1    2    0    0 -0.88512895311E+01  0.44162939079E+02  0.14268457704E+03  0.16827536670E+03  0.77000000000E+02 0.  0.
   -5000001    1    1    2    0    0  0.88512895311E+01 -0.44162939079E+02  0.11003806897E+03  0.14165481685E+03  0.77000000000E+02 0.  0.
<mgrwt>
<rscale>  0 0.17941010E+03</rscale>
<asrwt>0</asrwt>
<pdfrwt beam="1">  1        2 0.43280987E-01 0.17941010E+03</pdfrwt>
<pdfrwt beam="2">  1       -2 0.44005798E-02 0.17941010E+03</pdfrwt>
<totfact> 0.26624878E+04</totfact>
</mgrwt>
</event>
<event>
 4    1  0.2489209E-004  0.2087009E+03  0.7818608E-02  0.1142599E+00
         -2   -1    0    0    0  501 -0.00000000000E+00  0.00000000000E+00  0.13851721047E+02  0.13851721281E+02  0.25500000000E-02 0. -1.
          2   -1    0    0  501    0  0.00000000000E+00 -0.00000000000E+00 -0.78611322534E+03  0.78611322535E+03  0.25500000000E-02 0.  1.
    5000001    1    1    2    0    0 -0.36371439229E+02 -0.51785197754E+02 -0.26765031792E+03  0.28560511372E+03  0.77000000000E+02 0.  0.
   -5000001    1    1    2    0    0  0.36371439229E+02  0.51785197754E+02 -0.50461118637E+03  0.51435983291E+03  0.77000000000E+02 0.  0.
<mgrwt>
<rscale>  0 0.20870095E+03</rscale>
<asrwt>0</asrwt>
<pdfrwt beam="1">  1        2 0.12094046E+00 0.20870095E+03</pdfrwt>
<pdfrwt beam="2">  1       -2 0.21310346E-02 0.20870095E+03</pdfrwt>
<totfact> 0.24971760E+04</totfact>
</mgrwt>
</event>
<event>
 4    1  0.2489209E-004  0.2117219E+03  0.7818608E-02  0.1140210E+00
          2   -1    0    0  501    0  0.00000000000E+00  0.00000000000E+00  0.16550732611E+04  0.16550732611E+04  0.25500000000E-02 0.  1.
         -2   -1    0    0    0  501 -0.00000000000E+00 -0.00000000000E+00 -0.67710226214E+01  0.67710231016E+01  0.25500000000E-02 0. -1.
    5000001    1    1    2    0    0  0.48128835689E+02 -0.38475103058E+02  0.52210323956E+03  0.53133559182E+03  0.77000000000E+02 0.  0.
   -5000001    1    1    2    0    0 -0.48128835689E+02  0.38475103058E+02  0.11261989989E+04  0.11305086924E+04  0.77000000000E+02 0.  0.
<mgrwt>
<rscale>  0 0.21172188E+03</rscale>
<asrwt>0</asrwt>
<pdfrwt beam="1">  1        2 0.25462699E+00 0.21172188E+03</pdfrwt>
<pdfrwt beam="2">  1       -2 0.10416945E-02 0.21172188E+03</pdfrwt>
<totfact> 0.22409854E+04</totfact>
</mgrwt>
</event>
<event>
 4    1  0.2489209E-004  0.2101181E+03  0.7818608E-02  0.1141473E+00
          2   -1    0    0  501    0  0.00000000000E+00  0.00000000000E+00  0.73005872219E+03  0.73005872219E+03  0.25500000000E-02 0.  1.
         -2   -1    0    0    0  501 -0.00000000000E+00 -0.00000000000E+00 -0.15118508033E+02  0.15118508248E+02  0.25500000000E-02 0. -1.
    5000001    1    1    2    0    0  0.15728303174E+02 -0.50699642570E+02  0.18773660647E+03  0.20974238172E+03  0.77000000000E+02 0.  0.
   -5000001    1    1    2    0    0 -0.15728303174E+02  0.50699642570E+02  0.52720360768E+03  0.53543484873E+03  0.77000000000E+02 0.  0.
<mgrwt>
<rscale>  0 0.21011805E+03</rscale>
<asrwt>0</asrwt>
<pdfrwt beam="1">  1        2 0.11231672E+00 0.21011805E+03</pdfrwt>
<pdfrwt beam="2">  1       -2 0.23259244E-02 0.21011805E+03</pdfrwt>
<totfact> 0.24076505E+04</totfact>
</mgrwt>
</event>
<event>
 4    1  0.2489209E-004  0.2964386E+03  0.7818608E-02  0.1087035E+00
         -2   -1    0    0    0  501 -0.00000000000E+00  0.00000000000E+00  0.27988482536E+02  0.27988482653E+02  0.25500000000E-02 0. -1.
          2   -1    0    0  501    0  0.00000000000E+00 -0.00000000000E+00 -0.78492883459E+03  0.78492883459E+03  0.25500000000E-02 0.  1.
    5000001    1    1    2    0    0 -0.50696678792E+02  0.86985674985E+02 -0.58916759416E+03  0.60264758765E+03  0.77000000000E+02 0.  0.
   -5000001    1    1    2    0    0  0.50696678792E+02 -0.86985674985E+02 -0.16777275789E+03  0.21026972960E+03  0.77000000000E+02 0.  0.
<mgrwt>
<rscale>  0 0.29643864E+03</rscale>
<asrwt>0</asrwt>
<pdfrwt beam="1">  1        2 0.12075827E+00 0.29643864E+03</pdfrwt>
<pdfrwt beam="2">  1       -2 0.43059210E-02 0.29643864E+03</pdfrwt>
<totfact> 0.89334518E+03</totfact>
</mgrwt>
</event>
<event>
 4    1  0.2489209E-004  0.2097333E+03  0.7818608E-02  0.1141777E+00
          2   -1    0    0  501    0  0.00000000000E+00  0.00000000000E+00  0.11023439118E+03  0.11023439121E+03  0.25500000000E-02 0.  1.
         -2   -1    0    0    0  501 -0.00000000000E+00 -0.00000000000E+00 -0.99760272942E+02  0.99760272974E+02  0.25500000000E-02 0. -1.
    5000001    1    1    2    0    0 -0.14878622097E+02  0.67030799187E+02 -0.13588274570E+02  0.10405836171E+03  0.77000000000E+02 0.  0.
   -5000001    1    1    2    0    0  0.14878622097E+02 -0.67030799187E+02  0.24062392809E+02  0.10593630248E+03  0.77000000000E+02 0.  0.
<mgrwt>
<rscale>  0 0.20973329E+03</rscale>
<asrwt>0</asrwt>
<pdfrwt beam="1">  1        2 0.16959137E-01 0.20973329E+03</pdfrwt>
<pdfrwt beam="2">  1       -2 0.15347734E-01 0.20973329E+03</pdfrwt>
<totfact> 0.10775656E+04</totfact>
</mgrwt>
</event>
<event>
 4    1  0.2489209E-004  0.2146661E+03  0.7818608E-02  0.1137923E+00
          2   -1    0    0  501    0  0.00000000000E+00  0.00000000000E+00  0.26731233124E+04  0.26731233124E+04  0.25500000000E-02 0.  1.
         -2   -1    0    0    0  501 -0.00000000000E+00 -0.00000000000E+00 -0.43097091879E+01  0.43097099423E+01  0.25500000000E-02 0. -1.
    5000001    1    1    2    0    0 -0.26660400870E+02  0.34163429449E+02  0.20944617263E+04  0.20963246027E+04  0.77000000000E+02 0.  0.
   -5000001    1    1    2    0    0  0.26660400870E+02 -0.34163429449E+02  0.57435187696E+03  0.58110841971E+03  0.77000000000E+02 0.  0.
<mgrwt>
<rscale>  0 0.21466611E+03</rscale>
<asrwt>0</asrwt>
<pdfrwt beam="1">  1        2 0.41124902E+00 0.21466611E+03</pdfrwt>
<pdfrwt beam="2">  1       -2 0.66303340E-03 0.21466611E+03</pdfrwt>
<totfact> 0.12399356E+04</totfact>
</mgrwt>
</event>
<event>
 4    1  0.2489209E-004  0.3587239E+03  0.7818608E-02  0.1059090E+00
         -2   -1    0    0    0  501 -0.00000000000E+00  0.00000000000E+00  0.55329406087E+03  0.55329406088E+03  0.25500000000E-02 0. -1.
          2   -1    0    0  501    0  0.00000000000E+00 -0.00000000000E+00 -0.58143971833E+02  0.58143971889E+02  0.25500000000E-02 0.  1.
    5000001    1    1    2    0    0 -0.76982654783E+02 -0.14109192263E+03  0.21312704818E+03  0.27782260245E+03  0.77000000000E+02 0.  0.
   -5000001    1    1    2    0    0  0.76982654783E+02  0.14109192263E+03  0.28202304086E+03  0.33361543031E+03  0.77000000000E+02 0.  0.
<mgrwt>
<rscale>  0 0.35872393E+03</rscale>
<asrwt>0</asrwt>
<pdfrwt beam="1">  1        2 0.89452266E-02 0.35872393E+03</pdfrwt>
<pdfrwt beam="2">  1       -2 0.85122161E-01 0.35872393E+03</pdfrwt>
<totfact> 0.91980207E+02</totfact>
</mgrwt>
</event>
<event>
 4    1  0.2489209E-004  0.4225512E+03  0.7818608E-02  0.1036239E+00
         -2   -1    0    0    0  501 -0.00000000000E+00  0.00000000000E+00  0.24302880552E+04  0.24302880552E+04  0.25500000000E-02 0. -1.
          2   -1    0    0  501    0  0.00000000000E+00 -0.00000000000E+00 -0.18367116941E+02  0.18367117118E+02  0.25500000000E-02 0.  1.
    5000001    1    1    2    0    0 -0.15729551348E+03  0.44903471140E+02  0.18394443574E+04  0.18483080761E+04  0.77000000000E+02 0.  0.
   -5000001    1    1    2    0    0  0.15729551348E+03 -0.44903471140E+02  0.57247658087E+03  0.60034709621E+03  0.77000000000E+02 0.  0.
<mgrwt>
<rscale>  0 0.42255123E+03</rscale>
<asrwt>0</asrwt>
<pdfrwt beam="1">  1        2 0.28257114E-02 0.42255123E+03</pdfrwt>
<pdfrwt beam="2">  1       -2 0.37389032E+00 0.42255123E+03</pdfrwt>
<totfact> 0.43764429E+01</totfact>
</mgrwt>
</event>
<event>
 4    1  0.2489209E-004  0.3480413E+03  0.7818608E-02  0.1063422E+00
         -2   -1    0    0    0  501 -0.00000000000E+00  0.00000000000E+00  0.15497229447E+02  0.15497229657E+02  0.25500000000E-02 0.  1.
          2   -1    0    0  501    0  0.00000000000E+00 -0.00000000000E+00 -0.19541030549E+04  0.19541030549E+04  0.25500000000E-02 0. -1.
    5000001    1    1    2    0    0 -0.36012388776E+02 -0.57818517415E+02 -0.17638838361E+04  0.17668772058E+04  0.77000000000E+02 0.  0.
   -5000001    1    1    2    0    0  0.36012388776E+02  0.57818517415E+02 -0.17472198938E+03  0.20272307879E+03  0.77000000000E+02 0.  0.
<mgrwt>
<rscale>  0 0.34804128E+03</rscale>
<asrwt>0</asrwt>
<pdfrwt beam="1">  1        2 0.30063104E+00 0.34804128E+03</pdfrwt>
<pdfrwt beam="2">  1       -2 0.23841907E-02 0.34804128E+03</pdfrwt>
<totfact> 0.46799652E+03</totfact>
</mgrwt>
</event>
<event>
 4    1  0.2489209E-004  0.2816440E+03  0.7818608E-02  0.1094794E+00
          2   -1    0    0  501    0  0.00000000000E+00  0.00000000000E+00  0.38711492231E+03  0.38711492232E+03  0.25500000000E-02 0.  1.
         -2   -1    0    0    0  501 -0.00000000000E+00 -0.00000000000E+00 -0.51227253474E+02  0.51227253537E+02  0.25500000000E-02 0. -1.
    5000001    1    1    2    0    0 -0.94431941147E+02  0.57190832886E+02  0.23237173941E+03  0.26854014254E+03  0.77000000000E+02 0.  0.
   -5000001    1    1    2    0    0  0.94431941147E+02 -0.57190832886E+02  0.10351592942E+03  0.16980203332E+03  0.77000000000E+02 0.  0.
<mgrwt>
<rscale>  0 0.28164399E+03</rscale>
<asrwt>0</asrwt>
<pdfrwt beam="1">  1        2 0.59556143E-01 0.28164399E+03</pdfrwt>
<pdfrwt beam="2">  1       -2 0.78811157E-02 0.28164399E+03</pdfrwt>
<totfact> 0.79677542E+03</totfact>
</mgrwt>
</event>
<event>
 4    1  0.2489209E-004  0.1855524E+03  0.7818608E-02  0.1162535E+00
          2   -1    0    0  501    0  0.00000000000E+00  0.00000000000E+00  0.42581565461E+02  0.42581565537E+02  0.25500000000E-02 0.  1.
         -2   -1    0    0    0  501 -0.00000000000E+00 -0.00000000000E+00 -0.20213962060E+03  0.20213962062E+03  0.25500000000E-02 0. -1.
    5000001    1    1    2    0    0  0.43662351434E+02  0.23172076065E+02 -0.59557745748E+02  0.10917633040E+03  0.77000000000E+02 0.  0.
   -5000001    1    1    2    0    0 -0.43662351434E+02 -0.23172076065E+02 -0.10000030939E+03  0.13554485575E+03  0.77000000000E+02 0.  0.
<mgrwt>
<rscale>  0 0.18555238E+03</rscale>
<asrwt>0</asrwt>
<pdfrwt beam="1">  1        2 0.65510102E-02 0.18555238E+03</pdfrwt>
<pdfrwt beam="2">  1       -2 0.31098403E-01 0.18555238E+03</pdfrwt>
<totfact> 0.10148116E+04</totfact>
</mgrwt>
</event>
<event>
 4    1  0.2489209E-004  0.2257066E+03  0.7818608E-02  0.1129699E+00
         -2   -1    0    0    0  501 -0.00000000000E+00  0.00000000000E+00  0.12856140965E+02  0.12856141218E+02  0.25500000000E-02 0. -1.
          2   -1    0    0  501    0  0.00000000000E+00 -0.00000000000E+00 -0.99064493867E+03  0.99064493867E+03  0.25500000000E-02 0.  1.
    5000001    1    1    2    0    0 -0.62055441494E+02  0.16212131851E+02 -0.25816411296E+03  0.27693215823E+03  0.77000000000E+02 0.  0.
   -5000001    1    1    2    0    0  0.62055441494E+02 -0.16212131851E+02 -0.71962468474E+03  0.72656892166E+03  0.77000000000E+02 0.  0.
<mgrwt>
<rscale>  0 0.22570663E+03</rscale>
<asrwt>0</asrwt>
<pdfrwt beam="1">  1        2 0.15240685E+00 0.22570663E+03</pdfrwt>
<pdfrwt beam="2">  1       -2 0.19778686E-02 0.22570663E+03</pdfrwt>
<totfact> 0.20626722E+04</totfact>
</mgrwt>
</event>
<event>
 4    1  0.2489209E-004  0.1745806E+03  0.7818608E-02  0.1173153E+00
         -2   -1    0    0    0  501 -0.00000000000E+00  0.00000000000E+00  0.21955367770E+02  0.21955367918E+02  0.25500000000E-02 0. -1.
          2   -1    0    0  501    0  0.00000000000E+00 -0.00000000000E+00 -0.34704947672E+03  0.34704947673E+03  0.25500000000E-02 0.  1.
    5000001    1    1    2    0    0 -0.33380500003E+02 -0.23355150127E+02 -0.15080182927E+03  0.17415485216E+03  0.77000000000E+02 0.  0.
   -5000001    1    1    2    0    0  0.33380500003E+02  0.23355150127E+02 -0.17429227968E+03  0.19484999249E+03  0.77000000000E+02 0.  0.
<mgrwt>
<rscale>  0 0.17458063E+03</rscale>
<asrwt>0</asrwt>
<pdfrwt beam="1">  1        2 0.53392223E-01 0.17458063E+03</pdfrwt>
<pdfrwt beam="2">  1       -2 0.33777492E-02 0.17458063E+03</pdfrwt>
<totfact> 0.31497962E+04</totfact>
</mgrwt>
</event>
<event>
 4    1  0.2489209E-004  0.2209951E+03  0.7818608E-02  0.1133143E+00
         -2   -1    0    0    0  501 -0.00000000000E+00  0.00000000000E+00  0.11830566154E+02  0.11830566429E+02  0.25500000000E-02 0. -1.
          2   -1    0    0  501    0  0.00000000000E+00 -0.00000000000E+00 -0.10320473977E+04  0.10320473977E+04  0.25500000000E-02 0.  1.
    5000001    1    1    2    0    0 -0.69935018813E+02  0.33886051493E+02 -0.43669826490E+03  0.45019278749E+03  0.77000000000E+02 0.  0.
   -5000001    1    1    2    0    0  0.69935018813E+02 -0.33886051493E+02 -0.58351856661E+03  0.59368517661E+03  0.77000000000E+02 0.  0.
<mgrwt>
<rscale>  0 0.22099507E+03</rscale>
<asrwt>0</asrwt>
<pdfrwt beam="1">  1        2 0.15877645E+00 0.22099507E+03</pdfrwt>
<pdfrwt beam="2">  1       -2 0.18200879E-02 0.22099507E+03</pdfrwt>
<totfact> 0.21964127E+04</totfact>
</mgrwt>
</event>
<event>
 4    1  0.2489209E-004  0.2636294E+03  0.7818608E-02  0.1104982E+00
          2   -1    0    0  501    0  0.00000000000E+00  0.00000000000E+00  0.64367973297E+03  0.64367973298E+03  0.25500000000E-02 0.  1.
         -2   -1    0    0    0  501 -0.00000000000E+00 -0.00000000000E+00 -0.26993415881E+02  0.26993416002E+02  0.25500000000E-02 0. -1.
    5000001    1    1    2    0    0 -0.28593541822E+02 -0.72496253592E+02  0.12186922971E+03  0.16387314169E+03  0.77000000000E+02 0.  0.
   -5000001    1    1    2    0    0  0.28593541822E+02  0.72496253592E+02  0.49481708739E+03  0.50680000729E+03  0.77000000000E+02 0.  0.
<mgrwt>
<rscale>  0 0.26362940E+03</rscale>
<asrwt>0</asrwt>
<pdfrwt beam="1">  1        2 0.99027642E-01 0.26362940E+03</pdfrwt>
<pdfrwt beam="2">  1       -2 0.41528336E-02 0.26362940E+03</pdfrwt>
<totfact> 0.11974221E+04</totfact>
</mgrwt>
</event>
<event>
 4    1  0.2489209E-004  0.3472920E+03  0.7818608E-02  0.1063732E+00
         -2   -1    0    0    0  501 -0.00000000000E+00  0.00000000000E+00  0.64400058682E+02  0.64400058732E+02  0.25500000000E-02 0. -1.
          2   -1    0    0  501    0  0.00000000000E+00 -0.00000000000E+00 -0.46821284233E+03  0.46821284234E+03  0.25500000000E-02 0.  1.
    5000001    1    1    2    0    0  0.52624375683E+01 -0.15499141700E+03 -0.18168229612E+03  0.25097308484E+03  0.77000000000E+02 0.  0.
   -5000001    1    1    2    0    0 -0.52624375683E+01  0.15499141700E+03 -0.22213048753E+03  0.28163981623E+03  0.77000000000E+02 0.  0.
<mgrwt>
<rscale>  0 0.34729201E+03</rscale>
<asrwt>0</asrwt>
<pdfrwt beam="1">  1        2 0.72032743E-01 0.34729201E+03</pdfrwt>
<pdfrwt beam="2">  1       -2 0.99077017E-02 0.34729201E+03</pdfrwt>
<totfact> 0.45302126E+03</totfact>
</mgrwt>
</event>
<event>
 4    1  0.2489209E-004  0.2796026E+03  0.7818608E-02  0.1095906E+00
          2   -1    0    0  501    0  0.00000000000E+00  0.00000000000E+00  0.16530384613E+04  0.16530384613E+04  0.25500000000E-02 0.  1.
         -2   -1    0    0    0  501 -0.00000000000E+00 -0.00000000000E+00 -0.11823318066E+02  0.11823318341E+02  0.25500000000E-02 0. -1.
    5000001    1    1    2    0    0  0.11407927451E+03  0.24152159669E+02  0.79535083270E+03  0.80753288154E+03  0.77000000000E+02 0.  0.
   -5000001    1    1    2    0    0 -0.11407927451E+03 -0.24152159669E+02  0.84586431055E+03  0.85732889812E+03  0.77000000000E+02 0.  0.
<mgrwt>
<rscale>  0 0.27960257E+03</rscale>
<asrwt>0</asrwt>
<pdfrwt beam="1">  1        2 0.25431359E+00 0.27960257E+03</pdfrwt>
<pdfrwt beam="2">  1       -2 0.18189721E-02 0.27960257E+03</pdfrwt>
<totfact> 0.10059114E+04</totfact>
</mgrwt>
</event>
<event>
 4    1  0.2489209E-004  0.2550696E+03  0.7818608E-02  0.1110142E+00
         -2   -1    0    0    0  501 -0.00000000000E+00  0.00000000000E+00  0.10470690965E+02  0.10470691275E+02  0.25500000000E-02 0. -1.
          2   -1    0    0  501    0  0.00000000000E+00 -0.00000000000E+00 -0.15533954486E+04  0.15533954486E+04  0.25500000000E-02 0.  1.
    5000001    1    1    2    0    0 -0.59528369297E+02 -0.70770396028E+02 -0.51249552073E+03  0.52643397922E+03  0.77000000000E+02 0.  0.
   -5000001    1    1    2    0    0  0.59528369297E+02  0.70770396028E+02 -0.10304292369E+04  0.10374321607E+04  0.77000000000E+02 0.  0.
<mgrwt>
<rscale>  0 0.25506959E+03</rscale>
<asrwt>0</asrwt>
<pdfrwt beam="1">  1        2 0.23898373E+00 0.25506959E+03</pdfrwt>
<pdfrwt beam="2">  1       -2 0.16108768E-02 0.25506959E+03</pdfrwt>
<totfact> 0.13544468E+04</totfact>
</mgrwt>
</event>
<event>
 4    1  0.2489209E-004  0.1831430E+03  0.7818608E-02  0.1164795E+00
         -2   -1    0    0    0  501 -0.00000000000E+00  0.00000000000E+00  0.29629232823E+02  0.29629232933E+02  0.25500000000E-02 0. -1.
          2   -1    0    0  501    0  0.00000000000E+00 -0.00000000000E+00 -0.28300890610E+03  0.28300890611E+03  0.25500000000E-02 0.  1.
    5000001    1    1    2    0    0  0.19924744664E+02  0.44940465874E+02 -0.13744518163E+03  0.16503581089E+03  0.77000000000E+02 0.  0.
   -5000001    1    1    2    0    0 -0.19924744664E+02 -0.44940465874E+02 -0.11593449164E+03  0.14760232815E+03  0.77000000000E+02 0.  0.
<mgrwt>
<rscale>  0 0.18314297E+03</rscale>
<asrwt>0</asrwt>
<pdfrwt beam="1">  1        2 0.43539830E-01 0.18314297E+03</pdfrwt>
<pdfrwt beam="2">  1       -2 0.45583437E-02 0.18314297E+03</pdfrwt>
<totfact> 0.25137341E+04</totfact>
</mgrwt>
</event>
<event>
 4    1  0.2489209E-004  0.2462156E+03  0.7818608E-02  0.1115720E+00
          2   -1    0    0  501    0  0.00000000000E+00  0.00000000000E+00  0.30937759762E+03  0.30937759763E+03  0.25500000000E-02 0.  1.
         -2   -1    0    0    0  501 -0.00000000000E+00 -0.00000000000E+00 -0.48987160222E+02  0.48987160289E+02  0.25500000000E-02 0. -1.
    5000001    1    1    2    0    0  0.49333482164E+02  0.50260670160E+02  0.22526682418E+03  0.24826209840E+03  0.77000000000E+02 0.  0.
   -5000001    1    1    2    0    0 -0.49333482164E+02 -0.50260670160E+02  0.35123613220E+02  0.11010265952E+03  0.77000000000E+02 0.  0.
<mgrwt>
<rscale>  0 0.24621560E+03</rscale>
<asrwt>0</asrwt>
<pdfrwt beam="1">  1        2 0.47596554E-01 0.24621560E+03</pdfrwt>
<pdfrwt beam="2">  1       -2 0.75364862E-02 0.24621560E+03</pdfrwt>
<totfact> 0.10815766E+04</totfact>
</mgrwt>
</event>
<event>
 4    1  0.2489209E-004  0.3141977E+03  0.7818608E-02  0.1078351E+00
         -2   -1    0    0    0  501 -0.00000000000E+00  0.00000000000E+00  0.23528572407E+03  0.23528572409E+03  0.25500000000E-02 0. -1.
          2   -1    0    0  501    0  0.00000000000E+00 -0.00000000000E+00 -0.10489393626E+03  0.10489393629E+03  0.25500000000E-02 0.  1.
    5000001    1    1    2    0    0 -0.53550971175E+02  0.11675210803E+03  0.13813185542E+02  0.15039469851E+03  0.77000000000E+02 0.  0.
   -5000001    1    1    2    0    0  0.53550971175E+02 -0.11675210803E+03  0.11657860227E+03  0.18978496187E+03  0.77000000000E+02 0.  0.
<mgrwt>
<rscale>  0 0.31419768E+03</rscale>
<asrwt>0</asrwt>
<pdfrwt beam="1">  1        2 0.16137529E-01 0.31419768E+03</pdfrwt>
<pdfrwt beam="2">  1       -2 0.36197803E-01 0.31419768E+03</pdfrwt>
<totfact> 0.25782381E+03</totfact>
</mgrwt>
</event>
<event>
 4    1  0.2489209E-004  0.2109752E+03  0.7818608E-02  0.1140796E+00
         -2   -1    0    0    0  501 -0.00000000000E+00  0.00000000000E+00  0.93618326113E+02  0.93618326148E+02  0.25500000000E-02 0. -1.
          2   -1    0    0  501    0  0.00000000000E+00 -0.00000000000E+00 -0.11886169604E+03  0.11886169607E+03  0.25500000000E-02 0.  1.
    5000001    1    1    2    0    0 -0.13583026078E+02 -0.67290412381E+02  0.95840463307E+01  0.10360189255E+03  0.77000000000E+02 0.  0.
   -5000001    1    1    2    0    0  0.13583026078E+02  0.67290412381E+02 -0.34827416256E+02  0.10887812966E+03  0.77000000000E+02 0.  0.
<mgrwt>
<rscale>  0 0.21097519E+03</rscale>
<asrwt>0</asrwt>
<pdfrwt beam="1">  1        2 0.18286415E-01 0.21097519E+03</pdfrwt>
<pdfrwt beam="2">  1       -2 0.14402819E-01 0.21097519E+03</pdfrwt>
<totfact> 0.10966843E+04</totfact>
</mgrwt>
</event>
<event>
 4    1  0.2489209E-004  0.2360791E+03  0.7818608E-02  0.1122433E+00
          2   -1    0    0  501    0  0.00000000000E+00  0.00000000000E+00  0.18891710006E+04  0.18891710007E+04  0.25500000000E-02 0.  1.
         -2   -1    0    0    0  501 -0.00000000000E+00 -0.00000000000E+00 -0.73753697659E+01  0.73753702068E+01  0.25500000000E-02 0. -1.
    5000001    1    1    2    0    0  0.14612124310E+02  0.74601042592E+02  0.56191435926E+03  0.57223734313E+03  0.77000000000E+02 0.  0.
   -5000001    1    1    2    0    0 -0.14612124310E+02 -0.74601042592E+02  0.13198812716E+04  0.13243090277E+04  0.77000000000E+02 0.  0.
<mgrwt>
<rscale>  0 0.23607910E+03</rscale>
<asrwt>0</asrwt>
<pdfrwt beam="1">  1        2 0.29064218E+00 0.23607910E+03</pdfrwt>
<pdfrwt beam="2">  1       -2 0.11346704E-02 0.23607910E+03</pdfrwt>
<totfact> 0.15004682E+04</totfact>
</mgrwt>
</event>
<event>
 4    1  0.2489209E-004  0.3650882E+03  0.7818608E-02  0.1056587E+00
          2   -1    0    0  501    0  0.00000000000E+00  0.00000000000E+00  0.10487761748E+03  0.10487761751E+03  0.25500000000E-02 0.  1.
         -2   -1    0    0    0  501 -0.00000000000E+00 -0.00000000000E+00 -0.31772601540E+03  0.31772601541E+03  0.25500000000E-02 0. -1.
    5000001    1    1    2    0    0  0.85502022639E+02 -0.12991881379E+03 -0.40904520416E+02  0.17830219809E+03  0.77000000000E+02 0.  0.
   -5000001    1    1    2    0    0 -0.85502022639E+02  0.12991881379E+03 -0.17194387751E+03  0.24430143484E+03  0.77000000000E+02 0.  0.
<mgrwt>
<rscale>  0 0.36508819E+03</rscale>
<asrwt>0</asrwt>
<pdfrwt beam="1">  1        2 0.16135018E-01 0.36508819E+03</pdfrwt>
<pdfrwt beam="2">  1       -2 0.48880925E-01 0.36508819E+03</pdfrwt>
<totfact> 0.14444783E+03</totfact>
</mgrwt>
</event>
<event>
 4    1  0.2489209E-004  0.4340424E+03  0.7818608E-02  0.1032591E+00
          2   -1    0    0  501    0  0.00000000000E+00  0.00000000000E+00  0.17722567370E+04  0.17722567370E+04  0.25500000000E-02 0.  1.
         -2   -1    0    0    0  501 -0.00000000000E+00 -0.00000000000E+00 -0.26575275905E+02  0.26575276027E+02  0.25500000000E-02 0. -1.
    5000001    1    1    2    0    0 -0.14820485969E+03  0.13405396547E+03  0.10184293933E+04  0.10407029236E+04  0.77000000000E+02 0.  0.
   -5000001    1    1    2    0    0  0.14820485969E+03 -0.13405396547E+03  0.72725206776E+03  0.75812908938E+03  0.77000000000E+02 0.  0.
<mgrwt>
<rscale>  0 0.43404245E+03</rscale>
<asrwt>0</asrwt>
<pdfrwt beam="1">  1        2 0.27265502E+00 0.43404245E+03</pdfrwt>
<pdfrwt beam="2">  1       -2 0.40885019E-02 0.43404245E+03</pdfrwt>
<totfact> 0.25897170E+03</totfact>
</mgrwt>
</event>
<event>
 4    1  0.2489209E-004  0.2726284E+03  0.7818608E-02  0.1099785E+00
          2   -1    0    0  501    0  0.00000000000E+00  0.00000000000E+00  0.17996600549E+04  0.17996600549E+04  0.25500000000E-02 0.  1.
         -2   -1    0    0    0  501 -0.00000000000E+00 -0.00000000000E+00 -0.10325042331E+02  0.10325042646E+02  0.25500000000E-02 0. -1.
    5000001    1    1    2    0    0 -0.49908182685E+02  0.88383925532E+02  0.57282769647E+03  0.58682460313E+03  0.77000000000E+02 0.  0.
   -5000001    1    1    2    0    0  0.49908182685E+02 -0.88383925532E+02  0.12165073161E+04  0.12231604944E+04  0.77000000000E+02 0.  0.
<mgrwt>
<rscale>  0 0.27262844E+03</rscale>
<asrwt>0</asrwt>
<pdfrwt beam="1">  1        2 0.27687060E+00 0.27262844E+03</pdfrwt>
<pdfrwt beam="2">  1       -2 0.15884691E-02 0.27262844E+03</pdfrwt>
<totfact> 0.10268696E+04</totfact>
</mgrwt>
</event>
<event>
 4    1  0.2489209E-004  0.3124905E+03  0.7818608E-02  0.1079158E+00
         -2   -1    0    0    0  501 -0.00000000000E+00  0.00000000000E+00  0.89736889984E+01  0.89736893607E+01  0.25500000000E-02 0. -1.
          2   -1    0    0  501    0  0.00000000000E+00 -0.00000000000E+00 -0.27204613422E+04  0.27204613422E+04  0.25500000000E-02 0.  1.
    5000001    1    1    2    0    0 -0.72684687743E+02 -0.10743613115E+03 -0.10000906277E+04  0.10114029117E+04  0.77000000000E+02 0.  0.
   -5000001    1    1    2    0    0  0.72684687743E+02  0.10743613115E+03 -0.17113970255E+04  0.17180321199E+04  0.77000000000E+02 0.  0.
<mgrwt>
<rscale>  0 0.31249048E+03</rscale>
<asrwt>0</asrwt>
<pdfrwt beam="1">  1        2 0.41853186E+00 0.31249048E+03</pdfrwt>
<pdfrwt beam="2">  1       -2 0.13805697E-02 0.31249048E+03</pdfrwt>
<totfact> 0.40196038E+03</totfact>
</mgrwt>
</event>
<event>
 4    1  0.2489209E-004  0.2408461E+03  0.7818608E-02  0.1119230E+00
         -2   -1    0    0    0  501 -0.00000000000E+00  0.00000000000E+00  0.87477390275E+02  0.87477390312E+02  0.25500000000E-02 0. -1.
          2   -1    0    0  501    0  0.00000000000E+00 -0.00000000000E+00 -0.16577667947E+03  0.16577667949E+03  0.25500000000E-02 0.  1.
    5000001    1    1    2    0    0 -0.11492647766E+02  0.90067466057E+02 -0.58207434413E+02  0.13251918659E+03  0.77000000000E+02 0.  0.
   -5000001    1    1    2    0    0  0.11492647766E+02 -0.90067466057E+02 -0.20091854783E+02  0.12073488321E+03  0.77000000000E+02 0.  0.
<mgrwt>
<rscale>  0 0.24084610E+03</rscale>
<asrwt>0</asrwt>
<pdfrwt beam="1">  1        2 0.25504105E-01 0.24084610E+03</pdfrwt>
<pdfrwt beam="2">  1       -2 0.13458060E-01 0.24084610E+03</pdfrwt>
<totfact> 0.84711568E+03</totfact>
</mgrwt>
</event>
<event>
 4    1  0.2489209E-004  0.2576764E+03  0.7818608E-02  0.1108547E+00
          2   -1    0    0  501    0  0.00000000000E+00  0.00000000000E+00  0.17265416893E+03  0.17265416895E+03  0.25500000000E-02 0.  1.
         -2   -1    0    0    0  501 -0.00000000000E+00 -0.00000000000E+00 -0.96141812267E+02  0.96141812301E+02  0.25500000000E-02 0. -1.
    5000001    1    1    2    0    0 -0.10140411522E+03  0.42737224801E+01  0.58300616284E+02  0.14010360861E+03  0.77000000000E+02 0.  0.
   -5000001    1    1    2    0    0  0.10140411522E+03 -0.42737224801E+01  0.18211740379E+02  0.12869237264E+03  0.77000000000E+02 0.  0.
<mgrwt>
<rscale>  0 0.25767642E+03</rscale>
<asrwt>0</asrwt>
<pdfrwt beam="1">  1        2 0.26562180E-01 0.25767642E+03</pdfrwt>
<pdfrwt beam="2">  1       -2 0.14791048E-01 0.25767642E+03</pdfrwt>
<totfact> 0.69568503E+03</totfact>
</mgrwt>
</event>
<event>
 4    1  0.2489209E-004  0.4566011E+03  0.7818608E-02  0.1025772E+00
          2   -1    0    0  501    0  0.00000000000E+00  0.00000000000E+00  0.25781048597E+03  0.25781048598E+03  0.25500000000E-02 0.  1.
         -2   -1    0    0    0  501 -0.00000000000E+00 -0.00000000000E+00 -0.20216839982E+03  0.20216839984E+03  0.25500000000E-02 0. -1.
    5000001    1    1    2    0    0  0.13906144913E+03 -0.14633904439E+03 -0.46473641812E+02  0.22100226679E+03  0.77000000000E+02 0.  0.
   -5000001    1    1    2    0    0 -0.13906144913E+03  0.14633904439E+03  0.10211572795E+03  0.23897661902E+03  0.77000000000E+02 0.  0.
<mgrwt>
<rscale>  0 0.45660107E+03</rscale>
<asrwt>0</asrwt>
<pdfrwt beam="1">  1        2 0.39663151E-01 0.45660107E+03</pdfrwt>
<pdfrwt beam="2">  1       -2 0.31102831E-01 0.45660107E+03</pdfrwt>
<totfact> 0.12429886E+03</totfact>
</mgrwt>
</event>
<event>
 4    1  0.2489209E-004  0.1762947E+03  0.7818608E-02  0.1171438E+00
         -2   -1    0    0    0  501 -0.00000000000E+00  0.00000000000E+00  0.75352614086E+02  0.75352614130E+02  0.25500000000E-02 0. -1.
          2   -1    0    0  501    0  0.00000000000E+00 -0.00000000000E+00 -0.10311456370E+03  0.10311456373E+03  0.25500000000E-02 0.  1.
    5000001    1    1    2    0    0  0.29261511990E+02  0.31056988714E+02 -0.93334796959E+01  0.88526190900E+02  0.77000000000E+02 0.  0.
   -5000001    1    1    2    0    0 -0.29261511990E+02 -0.31056988714E+02 -0.18428469917E+02  0.89940986960E+02  0.77000000000E+02 0.  0.
<mgrwt>
<rscale>  0 0.17629466E+03</rscale>
<asrwt>0</asrwt>
<pdfrwt beam="1">  1        2 0.15863779E-01 0.17629466E+03</pdfrwt>
<pdfrwt beam="2">  1       -2 0.11592710E-01 0.17629466E+03</pdfrwt>
<totfact> 0.18137813E+04</totfact>
</mgrwt>
</event>
<event>
 4    1  0.2489209E-004  0.4307680E+03  0.7818608E-02  0.1033618E+00
         -2   -1    0    0    0  501 -0.00000000000E+00  0.00000000000E+00  0.21421662852E+02  0.21421663004E+02  0.25500000000E-02 0. -1.
          2   -1    0    0  501    0  0.00000000000E+00 -0.00000000000E+00 -0.21655775669E+04  0.21655775669E+04  0.25500000000E-02 0.  1.
    5000001    1    1    2    0    0 -0.16747194164E+03  0.95821926123E+02 -0.13607334324E+04  0.13765003330E+04  0.77000000000E+02 0.  0.
   -5000001    1    1    2    0    0  0.16747194164E+03 -0.95821926123E+02 -0.78342247160E+03  0.81049889683E+03  0.77000000000E+02 0.  0.
<mgrwt>
<rscale>  0 0.43076802E+03</rscale>
<asrwt>0</asrwt>
<pdfrwt beam="1">  1        2 0.33316561E+00 0.43076802E+03</pdfrwt>
<pdfrwt beam="2">  1       -2 0.32956421E-02 0.43076802E+03</pdfrwt>
<totfact> 0.22121392E+03</totfact>
</mgrwt>
</event>
<event>
 4    1  0.2489209E-004  0.3601631E+03  0.7818608E-02  0.1058519E+00
         -2   -1    0    0    0  501 -0.00000000000E+00  0.00000000000E+00  0.18479236688E+02  0.18479236864E+02  0.25500000000E-02 0. -1.
          2   -1    0    0  501    0  0.00000000000E+00 -0.00000000000E+00 -0.17549085509E+04  0.17549085509E+04  0.25500000000E-02 0.  1.
    5000001    1    1    2    0    0 -0.50207050828E+02  0.15407077693E+03 -0.79164633849E+03  0.81172130532E+03  0.77000000000E+02 0.  0.
   -5000001    1    1    2    0    0  0.50207050828E+02 -0.15407077693E+03 -0.94478297572E+03  0.96166648245E+03  0.77000000000E+02 0.  0.
<mgrwt>
<rscale>  0 0.36016313E+03</rscale>
<asrwt>0</asrwt>
<pdfrwt beam="1">  1        2 0.26998580E+00 0.36016313E+03</pdfrwt>
<pdfrwt beam="2">  1       -2 0.28429609E-02 0.36016313E+03</pdfrwt>
<totfact> 0.45889003E+03</totfact>
</mgrwt>
</event>
<event>
 4    1  0.2489209E-004  0.2895563E+03  0.7818608E-02  0.1090581E+00
          2   -1    0    0  501    0  0.00000000000E+00  0.00000000000E+00  0.53724951592E+03  0.53724951593E+03  0.25500000000E-02 0.  1.
         -2   -1    0    0    0  501 -0.00000000000E+00 -0.00000000000E+00 -0.39014854473E+02  0.39014854556E+02  0.25500000000E-02 0. -1.
    5000001    1    1    2    0    0 -0.51528687664E+02  0.99548254176E+02  0.15027507989E+03  0.20267377777E+03  0.77000000000E+02 0.  0.
   -5000001    1    1    2    0    0  0.51528687664E+02 -0.99548254176E+02  0.34795958156E+03  0.37359059271E+03  0.77000000000E+02 0.  0.
<mgrwt>
<rscale>  0 0.28955629E+03</rscale>
<asrwt>0</asrwt>
<pdfrwt beam="1">  1        2 0.82653771E-01 0.28955629E+03</pdfrwt>
<pdfrwt beam="2">  1       -2 0.60022854E-02 0.28955629E+03</pdfrwt>
<totfact> 0.84603756E+03</totfact>
</mgrwt>
</event>
<event>
 4    1  0.2489209E-004  0.2888177E+03  0.7818608E-02  0.1090968E+00
          2   -1    0    0  501    0  0.00000000000E+00  0.00000000000E+00  0.19866227319E+04  0.19866227319E+04  0.25500000000E-02 0. -1.
         -2   -1    0    0    0  501 -0.00000000000E+00 -0.00000000000E+00 -0.10497172629E+02  0.10497172939E+02  0.25500000000E-02 0.  1.
    5000001    1    1    2    0    0 -0.50536681241E+02  0.11056577731E+03  0.90446080256E+03  0.91583682533E+03  0.77000000000E+02 0.  0.
   -5000001    1    1    2    0    0  0.50536681241E+02 -0.11056577731E+03  0.10716647568E+04  0.10812830796E+04  0.77000000000E+02 0.  0.
<mgrwt>
<rscale>  0 0.28881774E+03</rscale>
<asrwt>0</asrwt>
<pdfrwt beam="1">  1        2 0.30563464E+00 0.28881774E+03</pdfrwt>
<pdfrwt beam="2">  1       -2 0.16149477E-02 0.28881774E+03</pdfrwt>
<totfact> 0.79984847E+03</totfact>
</mgrwt>
</event>
<event>
 4    1  0.2489209E-004  0.1958338E+03  0.7818608E-02  0.1153302E+00
         -2   -1    0    0    0  501 -0.00000000000E+00  0.00000000000E+00  0.15143799074E+02  0.15143799289E+02  0.25500000000E-02 0. -1.
          2   -1    0    0  501    0  0.00000000000E+00 -0.00000000000E+00 -0.63311202604E+03  0.63311202605E+03  0.25500000000E-02 0.  1.
    5000001    1    1    2    0    0 -0.48875759811E+02 -0.15962878049E+02 -0.41444861419E+03  0.42466493519E+03  0.77000000000E+02 0.  0.
   -5000001    1    1    2    0    0  0.48875759811E+02  0.15962878049E+02 -0.20351961278E+03  0.22359089015E+03  0.77000000000E+02 0.  0.
<mgrwt>
<rscale>  0 0.19583382E+03</rscale>
<asrwt>0</asrwt>
<pdfrwt beam="1">  1        2 0.97401830E-01 0.19583382E+03</pdfrwt>
<pdfrwt beam="2">  1       -2 0.23298157E-02 0.19583382E+03</pdfrwt>
<totfact> 0.28327561E+04</totfact>
</mgrwt>
</event>
<event>
 4    1  0.2489209E-004  0.2524108E+03  0.7818608E-02  0.1111791E+00
          2   -1    0    0  501    0  0.00000000000E+00  0.00000000000E+00  0.10810012942E+04  0.10810012942E+04  0.25500000000E-02 0.  1.
         -2   -1    0    0    0  501 -0.00000000000E+00 -0.00000000000E+00 -0.14734301562E+02  0.14734301783E+02  0.25500000000E-02 0. -1.
    5000001    1    1    2    0    0 -0.28909697091E+02  0.13510499060E+01  0.94863648163E+03  0.95219628764E+03  0.77000000000E+02 0.  0.
   -5000001    1    1    2    0    0  0.28909697091E+02 -0.13510499060E+01  0.11763051105E+03  0.14353930839E+03  0.77000000000E+02 0.  0.
<mgrwt>
<rscale>  0 0.25241077E+03</rscale>
<asrwt>0</asrwt>
<pdfrwt beam="1">  1        2 0.16630790E+00 0.25241077E+03</pdfrwt>
<pdfrwt beam="2">  1       -2 0.22668155E-02 0.25241077E+03</pdfrwt>
<totfact> 0.14975916E+04</totfact>
</mgrwt>
</event>
<event>
 4    1  0.2489209E-004  0.2466674E+03  0.7818608E-02  0.1115429E+00
         -2   -1    0    0    0  501 -0.00000000000E+00  0.00000000000E+00  0.27892888276E+03  0.27892888277E+03  0.25500000000E-02 0. -1.
          2   -1    0    0  501    0  0.00000000000E+00 -0.00000000000E+00 -0.54534335756E+02  0.54534335816E+02  0.25500000000E-02 0.  1.
    5000001    1    1    2    0    0  0.35089147801E+02 -0.85381471935E+02  0.14948932986E+03  0.19182623331E+03  0.77000000000E+02 0.  0.
   -5000001    1    1    2    0    0 -0.35089147801E+02  0.85381471935E+02  0.74905217139E+02  0.14163698528E+03  0.77000000000E+02 0.  0.
<mgrwt>
<rscale>  0 0.24666740E+03</rscale>
<asrwt>0</asrwt>
<pdfrwt beam="1">  1        2 0.83898978E-02 0.24666740E+03</pdfrwt>
<pdfrwt beam="2">  1       -2 0.42912136E-01 0.24666740E+03</pdfrwt>
<totfact> 0.41158011E+03</totfact>
</mgrwt>
</event>
<event>
 4    1  0.2489209E-004  0.2447337E+03  0.7818608E-02  0.1116679E+00
         -2   -1    0    0    0  501 -0.00000000000E+00  0.00000000000E+00  0.14289653224E+04  0.14289653224E+04  0.25500000000E-02 0. -1.
          2   -1    0    0  501    0  0.00000000000E+00 -0.00000000000E+00 -0.10478658654E+02  0.10478658965E+02  0.25500000000E-02 0.  1.
    5000001    1    1    2    0    0 -0.21992386531E+02  0.11367955146E+01  0.12534074619E+04  0.12559634640E+04  0.77000000000E+02 0.  0.
   -5000001    1    1    2    0    0  0.21992386531E+02 -0.11367955146E+01  0.16507920185E+03  0.18348051737E+03  0.77000000000E+02 0.  0.
<mgrwt>
<rscale>  0 0.24473365E+03</rscale>
<asrwt>0</asrwt>
<pdfrwt beam="1">  1        2 0.16121035E-02 0.24473365E+03</pdfrwt>
<pdfrwt beam="2">  1       -2 0.21984052E+00 0.24473365E+03</pdfrwt>
<totfact> 0.80030037E+02</totfact>
</mgrwt>
</event>
<event>
 4    1  0.2489209E-004  0.3361413E+03  0.7818608E-02  0.1068451E+00
          2   -1    0    0  501    0  0.00000000000E+00  0.00000000000E+00  0.51719358438E+03  0.51719358439E+03  0.25500000000E-02 0.  1.
         -2   -1    0    0    0  501 -0.00000000000E+00 -0.00000000000E+00 -0.54617349114E+02  0.54617349173E+02  0.25500000000E-02 0. -1.
    5000001    1    1    2    0    0 -0.89123575467E+02  0.87383619898E+02  0.91633538212E+02  0.17292950603E+03  0.77000000000E+02 0.  0.
   -5000001    1    1    2    0    0  0.89123575467E+02 -0.87383619898E+02  0.37094269705E+03  0.39888142753E+03  0.77000000000E+02 0.  0.
<mgrwt>
<rscale>  0 0.33614130E+03</rscale>
<asrwt>0</asrwt>
<pdfrwt beam="1">  1        2 0.79568246E-01 0.33614130E+03</pdfrwt>
<pdfrwt beam="2">  1       -2 0.84026688E-02 0.33614130E+03</pdfrwt>
<totfact> 0.52567726E+03</totfact>
</mgrwt>
</event>
<event>
 4    1  0.2489209E-004  0.2274195E+03  0.7818608E-02  0.1128469E+00
          2   -1    0    0  501    0  0.00000000000E+00  0.00000000000E+00  0.14261563385E+04  0.14261563385E+04  0.25500000000E-02 0.  1.
         -2   -1    0    0    0  501 -0.00000000000E+00 -0.00000000000E+00 -0.90662620868E+01  0.90662624454E+01  0.25500000000E-02 0. -1.
    5000001    1    1    2    0    0 -0.51893279247E+02 -0.64147926536E+02  0.79622765836E+03  0.80418614316E+03  0.77000000000E+02 0.  0.
   -5000001    1    1    2    0    0  0.51893279247E+02  0.64147926536E+02  0.62086241809E+03  0.63103645783E+03  0.77000000000E+02 0.  0.
<mgrwt>
<rscale>  0 0.22741950E+03</rscale>
<asrwt>0</asrwt>
<pdfrwt beam="1">  1        2 0.21940849E+00 0.22741950E+03</pdfrwt>
<pdfrwt beam="2">  1       -2 0.13948107E-02 0.22741950E+03</pdfrwt>
<totfact> 0.19459568E+04</totfact>
</mgrwt>
</event>
<event>
 4    1  0.2489209E-004  0.2160921E+03  0.7818608E-02  0.1136831E+00
         -2   -1    0    0    0  501 -0.00000000000E+00  0.00000000000E+00  0.21925850964E+03  0.21925850965E+03  0.25500000000E-02 0. -1.
          2   -1    0    0  501    0  0.00000000000E+00 -0.00000000000E+00 -0.53242833198E+02  0.53242833259E+02  0.25500000000E-02 0.  1.
    5000001    1    1    2    0    0  0.67344288112E+02 -0.65265860676E+00  0.39155716186E+02  0.10953469411E+03  0.77000000000E+02 0.  0.
   -5000001    1    1    2    0    0 -0.67344288112E+02  0.65265860676E+00  0.12685996025E+03  0.16296664880E+03  0.77000000000E+02 0.  0.
<mgrwt>
<rscale>  0 0.21609206E+03</rscale>
<asrwt>0</asrwt>
<pdfrwt beam="1">  1        2 0.81912051E-02 0.21609206E+03</pdfrwt>
<pdfrwt beam="2">  1       -2 0.33732078E-01 0.21609206E+03</pdfrwt>
<totfact> 0.66414344E+03</totfact>
</mgrwt>
</event>
<event>
 4    1  0.2489209E-004  0.1901565E+03  0.7818608E-02  0.1158320E+00
          2   -1    0    0  501    0  0.00000000000E+00  0.00000000000E+00  0.26439485995E+03  0.26439485997E+03  0.25500000000E-02 0.  1.
         -2   -1    0    0    0  501 -0.00000000000E+00 -0.00000000000E+00 -0.34190818802E+02  0.34190818897E+02  0.25500000000E-02 0. -1.
    5000001    1    1    2    0    0  0.79063348633E+01 -0.51123329008E+02  0.14784275667E+03  0.17453534198E+03  0.77000000000E+02 0.  0.
   -5000001    1    1    2    0    0 -0.79063348633E+01  0.51123329008E+02  0.82361284481E+02  0.12405033688E+03  0.77000000000E+02 0.  0.
<mgrwt>
<rscale>  0 0.19015653E+03</rscale>
<asrwt>0</asrwt>
<pdfrwt beam="1">  1        2 0.40676132E-01 0.19015653E+03</pdfrwt>
<pdfrwt beam="2">  1       -2 0.52601260E-02 0.19015653E+03</pdfrwt>
<totfact> 0.21847774E+04</totfact>
</mgrwt>
</event>
<event>
 4    1  0.2489209E-004  0.1647437E+03  0.7818608E-02  0.1183443E+00
          2   -1    0    0  501    0  0.00000000000E+00  0.00000000000E+00  0.14851277013E+02  0.14851277232E+02  0.25500000000E-02 0.  1.
         -2   -1    0    0    0  501 -0.00000000000E+00 -0.00000000000E+00 -0.45687148575E+03  0.45687148575E+03  0.25500000000E-02 0. -1.
    5000001    1    1    2    0    0  0.34967017145E+01  0.23525439618E+02 -0.17221065096E+03  0.19013464054E+03  0.77000000000E+02 0.  0.
   -5000001    1    1    2    0    0 -0.34967017145E+01 -0.23525439618E+02 -0.26980955778E+03  0.28158812244E+03  0.77000000000E+02 0.  0.
<mgrwt>
<rscale>  0 0.16474374E+03</rscale>
<asrwt>0</asrwt>
<pdfrwt beam="1">  1        2 0.22848122E-02 0.16474374E+03</pdfrwt>
<pdfrwt beam="2">  1       -2 0.70287910E-01 0.16474374E+03</pdfrwt>
<totfact> 0.82373157E+03</totfact>
</mgrwt>
</event>
<event>
 4    1  0.2489209E-004  0.1930848E+03  0.7818608E-02  0.1155708E+00
         -2   -1    0    0    0  501 -0.00000000000E+00  0.00000000000E+00  0.34661400054E+03  0.34661400055E+03  0.25500000000E-02 0. -1.
          2   -1    0    0  501    0  0.00000000000E+00 -0.00000000000E+00 -0.26889943905E+02  0.26889944026E+02  0.25500000000E-02 0.  1.
    5000001    1    1    2    0    0  0.22665946431E+02  0.53169315776E+02  0.14608698114E+03  0.17496035930E+03  0.77000000000E+02 0.  0.
   -5000001    1    1    2    0    0 -0.22665946431E+02 -0.53169315776E+02  0.17363707549E+03  0.19854358527E+03  0.77000000000E+02 0.  0.
<mgrwt>
<rscale>  0 0.19308476E+03</rscale>
<asrwt>0</asrwt>
<pdfrwt beam="1">  1        2 0.41369148E-02 0.19308476E+03</pdfrwt>
<pdfrwt beam="2">  1       -2 0.53325227E-01 0.19308476E+03</pdfrwt>
<totfact> 0.66335964E+03</totfact>
</mgrwt>
</event>
<event>
 4    1  0.2489209E-004  0.4295756E+03  0.7818608E-02  0.1033994E+00
         -2   -1    0    0    0  501 -0.00000000000E+00  0.00000000000E+00  0.14452746839E+03  0.14452746841E+03  0.25500000000E-02 0. -1.
          2   -1    0    0  501    0  0.00000000000E+00 -0.00000000000E+00 -0.31920433636E+03  0.31920433637E+03  0.25500000000E-02 0.  1.
    5000001    1    1    2    0    0  0.71025983004E+02 -0.16949451063E+03 -0.17391307556E+03  0.26447653440E+03  0.77000000000E+02 0.  0.
   -5000001    1    1    2    0    0 -0.71025983004E+02  0.16949451063E+03 -0.76379240788E+00  0.19925527038E+03  0.77000000000E+02 0.  0.
<mgrwt>
<rscale>  0 0.42957558E+03</rscale>
<asrwt>0</asrwt>
<pdfrwt beam="1">  1        2 0.49108359E-01 0.42957558E+03</pdfrwt>
<pdfrwt beam="2">  1       -2 0.22234995E-01 0.42957558E+03</pdfrwt>
<totfact> 0.17990360E+03</totfact>
</mgrwt>
</event>
<event>
 4    1  0.2489209E-004  0.3329822E+03  0.7818608E-02  0.1069825E+00
         -2   -1    0    0    0  501 -0.00000000000E+00  0.00000000000E+00  0.12766515803E+02  0.12766516058E+02  0.25500000000E-02 0. -1.
          2   -1    0    0  501    0  0.00000000000E+00 -0.00000000000E+00 -0.21712494927E+04  0.21712494927E+04  0.25500000000E-02 0.  1.
    5000001    1    1    2    0    0 -0.95758864542E+02 -0.84206976568E+02 -0.59150394979E+03  0.60997253844E+03  0.77000000000E+02 0.  0.
   -5000001    1    1    2    0    0  0.95758864542E+02  0.84206976568E+02 -0.15669790271E+04  0.15740434703E+04  0.77000000000E+02 0.  0.
<mgrwt>
<rscale>  0 0.33298223E+03</rscale>
<asrwt>0</asrwt>
<pdfrwt beam="1">  1        2 0.33403809E+00 0.33298223E+03</pdfrwt>
<pdfrwt beam="2">  1       -2 0.19640811E-02 0.33298223E+03</pdfrwt>
<totfact> 0.47837949E+03</totfact>
</mgrwt>
</event>
<event>
 4    1  0.2489209E-004  0.2908586E+03  0.7818608E-02  0.1089902E+00
          2   -1    0    0  501    0  0.00000000000E+00  0.00000000000E+00  0.66890238165E+03  0.66890238166E+03  0.25500000000E-02 0.  1.
         -2   -1    0    0    0  501 -0.00000000000E+00 -0.00000000000E+00 -0.31618479224E+02  0.31618479326E+02  0.25500000000E-02 0. -1.
    5000001    1    1    2    0    0  0.11244966948E+03 -0.50153121216E+02  0.29992211184E+03  0.33323045615E+03  0.77000000000E+02 0.  0.
   -5000001    1    1    2    0    0 -0.11244966948E+03  0.50153121216E+02  0.33736179059E+03  0.36729040483E+03  0.77000000000E+02 0.  0.
<mgrwt>
<rscale>  0 0.29085856E+03</rscale>
<asrwt>0</asrwt>
<pdfrwt beam="1">  1        2 0.10290806E+00 0.29085856E+03</pdfrwt>
<pdfrwt beam="2">  1       -2 0.48643812E-02 0.29085856E+03</pdfrwt>
<totfact> 0.90372715E+03</totfact>
</mgrwt>
</event>
<event>
 4    1  0.2489209E-004  0.1656811E+03  0.7818608E-02  0.1182428E+00
          2   -1    0    0  501    0  0.00000000000E+00  0.00000000000E+00  0.95024078859E+03  0.95024078860E+03  0.25500000000E-02 0.  1.
         -2   -1    0    0    0  501 -0.00000000000E+00 -0.00000000000E+00 -0.72219108661E+01  0.72219113163E+01  0.25500000000E-02 0. -1.
    5000001    1    1    2    0    0  0.27061808023E+02 -0.69696285959E+01  0.40011254341E+03  0.40841151376E+03  0.77000000000E+02 0.  0.
   -5000001    1    1    2    0    0 -0.27061808023E+02  0.69696285959E+01  0.54290633432E+03  0.54905118616E+03  0.77000000000E+02 0.  0.
<mgrwt>
<rscale>  0 0.16568107E+03</rscale>
<asrwt>0</asrwt>
<pdfrwt beam="1">  1        2 0.14619073E+00 0.16568107E+03</pdfrwt>
<pdfrwt beam="2">  1       -2 0.11110645E-02 0.16568107E+03</pdfrwt>
<totfact> 0.49360974E+04</totfact>
</mgrwt>
</event>
<event>
 4    1  0.2489209E-004  0.3426541E+03  0.7818608E-02  0.1065671E+00
          2   -1    0    0  501    0  0.00000000000E+00  0.00000000000E+00  0.88012851294E+03  0.88012851294E+03  0.25500000000E-02 0.  1.
         -2   -1    0    0    0  501 -0.00000000000E+00 -0.00000000000E+00 -0.33350771717E+02  0.33350771815E+02  0.25500000000E-02 0. -1.
    5000001    1    1    2    0    0  0.98891302609E+02  0.11332843643E+03  0.34793228017E+03  0.38679283321E+03  0.77000000000E+02 0.  0.
   -5000001    1    1    2    0    0 -0.98891302609E+02 -0.11332843643E+03  0.49884546105E+03  0.52668645155E+03  0.77000000000E+02 0.  0.
<mgrwt>
<rscale>  0 0.34265414E+03</rscale>
<asrwt>0</asrwt>
<pdfrwt beam="1">  1        2 0.13540438E+00 0.34265414E+03</pdfrwt>
<pdfrwt beam="2">  1       -2 0.51308882E-02 0.34265414E+03</pdfrwt>
<totfact> 0.59152904E+03</totfact>
</mgrwt>
</event>
<event>
 4    1  0.2489209E-004  0.2285282E+03  0.7818608E-02  0.1127680E+00
         -2   -1    0    0    0  501 -0.00000000000E+00  0.00000000000E+00  0.52443399418E+01  0.52443405618E+01  0.25500000000E-02 0. -1.
          2   -1    0    0  501    0  0.00000000000E+00 -0.00000000000E+00 -0.24895948103E+04  0.24895948103E+04  0.25500000000E-02 0.  1.
    5000001    1    1    2    0    0 -0.10388727752E+02  0.69104768122E+02 -0.72504093740E+03  0.73245938833E+03  0.77000000000E+02 0.  0.
   -5000001    1    1    2    0    0  0.10388727752E+02 -0.69104768122E+02 -0.17593095329E+04  0.17623797625E+04  0.77000000000E+02 0.  0.
<mgrwt>
<rscale>  0 0.22852818E+03</rscale>
<asrwt>0</asrwt>
<pdfrwt beam="1">  1        2 0.38301364E+00 0.22852818E+03</pdfrwt>
<pdfrwt beam="2">  1       -2 0.80682357E-03 0.22852818E+03</pdfrwt>
<totfact> 0.11802355E+04</totfact>
</mgrwt>
</event>
<event>
 4    1  0.2489209E-004  0.2587340E+03  0.7818608E-02  0.1107906E+00
         -2   -1    0    0    0  501 -0.00000000000E+00  0.00000000000E+00  0.29316426041E+02  0.29316426152E+02  0.25500000000E-02 0. -1.
          2   -1    0    0  501    0  0.00000000000E+00 -0.00000000000E+00 -0.57086816884E+03  0.57086816885E+03  0.25500000000E-02 0.  1.
    5000001    1    1    2    0    0  0.47539748207E+02  0.91191958596E+02 -0.30601799242E+03  0.33189156762E+03  0.77000000000E+02 0.  0.
   -5000001    1    1    2    0    0 -0.47539748207E+02 -0.91191958596E+02 -0.23553375038E+03  0.26829302738E+03  0.77000000000E+02 0.  0.
<mgrwt>
<rscale>  0 0.25873395E+03</rscale>
<asrwt>0</asrwt>
<pdfrwt beam="1">  1        2 0.87825864E-01 0.25873395E+03</pdfrwt>
<pdfrwt beam="2">  1       -2 0.45102198E-02 0.25873395E+03</pdfrwt>
<totfact> 0.12147111E+04</totfact>
</mgrwt>
</event>
<event>
 4    1  0.2489209E-004  0.2072918E+03  0.7818608E-02  0.1143729E+00
         -2   -1    0    0    0  501 -0.00000000000E+00  0.00000000000E+00  0.32887841730E+02  0.32887841829E+02  0.25500000000E-02 0. -1.
          2   -1    0    0  501    0  0.00000000000E+00 -0.00000000000E+00 -0.32663953138E+03  0.32663953139E+03  0.25500000000E-02 0.  1.
    5000001    1    1    2    0    0  0.28476431616E+02  0.51458039095E+02 -0.83040586844E+02  0.12760711582E+03  0.77000000000E+02 0.  0.
   -5000001    1    1    2    0    0 -0.28476431616E+02 -0.51458039095E+02 -0.21071110281E+03  0.23192025740E+03  0.77000000000E+02 0.  0.
<mgrwt>
<rscale>  0 0.20729177E+03</rscale>
<asrwt>0</asrwt>
<pdfrwt beam="1">  1        2 0.50252233E-01 0.20729177E+03</pdfrwt>
<pdfrwt beam="2">  1       -2 0.50596682E-02 0.20729177E+03</pdfrwt>
<totfact> 0.18601652E+04</totfact>
</mgrwt>
</event>
<event>
 4    1  0.2489209E-004  0.3947530E+03  0.7818608E-02  0.1045612E+00
          2   -1    0    0  501    0  0.00000000000E+00  0.00000000000E+00  0.25331285190E+02  0.25331285318E+02  0.25500000000E-02 0.  1.
         -2   -1    0    0    0  501 -0.00000000000E+00 -0.00000000000E+00 -0.15379194631E+04  0.15379194631E+04  0.25500000000E-02 0. -1.
    5000001    1    1    2    0    0  0.14929472321E+03  0.38812810236E+02 -0.11368142470E+04  0.11498134548E+04  0.77000000000E+02 0.  0.
   -5000001    1    1    2    0    0 -0.14929472321E+03 -0.38812810236E+02 -0.37577393089E+03  0.41343729362E+03  0.77000000000E+02 0.  0.
<mgrwt>
<rscale>  0 0.39475297E+03</rscale>
<asrwt>0</asrwt>
<pdfrwt beam="1">  1        2 0.38971220E-02 0.39475297E+03</pdfrwt>
<pdfrwt beam="2">  1       -2 0.23660292E+00 0.39475297E+03</pdfrwt>
<totfact> 0.18819906E+02</totfact>
</mgrwt>
</event>
<event>
 4    1  0.2489209E-004  0.2158880E+03  0.7818608E-02  0.1136986E+00
         -2   -1    0    0    0  501 -0.00000000000E+00  0.00000000000E+00  0.64859001974E+02  0.64859002024E+02  0.25500000000E-02 0. -1.
          2   -1    0    0  501    0  0.00000000000E+00 -0.00000000000E+00 -0.17964987513E+03  0.17964987515E+03  0.25500000000E-02 0.  1.
    5000001    1    1    2    0    0  0.66872813258E+02  0.33262009849E+02 -0.43777356235E+02  0.11586108653E+03  0.77000000000E+02 0.  0.
   -5000001    1    1    2    0    0 -0.66872813258E+02 -0.33262009849E+02 -0.71013516919E+02  0.12864779064E+03  0.77000000000E+02 0.  0.
<mgrwt>
<rscale>  0 0.21588804E+03</rscale>
<asrwt>0</asrwt>
<pdfrwt beam="1">  1        2 0.27638442E-01 0.21588804E+03</pdfrwt>
<pdfrwt beam="2">  1       -2 0.99783081E-02 0.21588804E+03</pdfrwt>
<totfact> 0.12452805E+04</totfact>
</mgrwt>
</event>
<event>
 4    1  0.2489209E-004  0.1892442E+03  0.7818608E-02  0.1159145E+00
          2   -1    0    0  501    0  0.00000000000E+00  0.00000000000E+00  0.17770705668E+03  0.17770705670E+03  0.25500000000E-02 0.  1.
         -2   -1    0    0    0  501 -0.00000000000E+00 -0.00000000000E+00 -0.50382567990E+02  0.50382568055E+02  0.25500000000E-02 0. -1.
    5000001    1    1    2    0    0  0.54603515846E+02 -0.27652610816E+01  0.70807681539E+02  0.11803354767E+03  0.77000000000E+02 0.  0.
   -5000001    1    1    2    0    0 -0.54603515846E+02  0.27652610816E+01  0.56516807150E+02  0.11005607708E+03  0.77000000000E+02 0.  0.
<mgrwt>
<rscale>  0 0.18924416E+03</rscale>
<asrwt>0</asrwt>
<pdfrwt beam="1">  1        2 0.27339547E-01 0.18924416E+03</pdfrwt>
<pdfrwt beam="2">  1       -2 0.77511643E-02 0.18924416E+03</pdfrwt>
<totfact> 0.18547080E+04</totfact>
</mgrwt>
</event>
<event>
 4    1  0.2489209E-004  0.2161500E+03  0.7818608E-02  0.1136786E+00
         -2   -1    0    0    0  501 -0.00000000000E+00  0.00000000000E+00  0.43015056526E+02  0.43015056602E+02  0.25500000000E-02 0. -1.
          2   -1    0    0  501    0  0.00000000000E+00 -0.00000000000E+00 -0.27153771081E+03  0.27153771082E+03  0.25500000000E-02 0.  1.
    5000001    1    1    2    0    0  0.26798632183E+02  0.69239247358E+02 -0.91765093229E+02  0.14093286486E+03  0.77000000000E+02 0.  0.
   -5000001    1    1    2    0    0 -0.26798632183E+02 -0.69239247358E+02 -0.13675756106E+03  0.17361990257E+03  0.77000000000E+02 0.  0.
<mgrwt>
<rscale>  0 0.21615004E+03</rscale>
<asrwt>0</asrwt>
<pdfrwt beam="1">  1        2 0.41775031E-01 0.21615004E+03</pdfrwt>
<pdfrwt beam="2">  1       -2 0.66177012E-02 0.21615004E+03</pdfrwt>
<totfact> 0.15095240E+04</totfact>
</mgrwt>
</event>
<event>
 4    1  0.2489209E-004  0.1735132E+03  0.7818608E-02  0.1174233E+00
          2   -1    0    0  501    0  0.00000000000E+00  0.00000000000E+00  0.42283465203E+03  0.42283465203E+03  0.25500000000E-02 0.  1.
         -2   -1    0    0    0  501 -0.00000000000E+00 -0.00000000000E+00 -0.17800584482E+02  0.17800584665E+02  0.25500000000E-02 0. -1.
    5000001    1    1    2    0    0  0.35724699056E+02  0.17551628988E+02  0.21180969471E+03  0.22885947780E+03  0.77000000000E+02 0.  0.
   -5000001    1    1    2    0    0 -0.35724699056E+02 -0.17551628988E+02  0.19322437283E+03  0.21177575890E+03  0.77000000000E+02 0.  0.
<mgrwt>
<rscale>  0 0.17351316E+03</rscale>
<asrwt>0</asrwt>
<pdfrwt beam="1">  1        2 0.65051482E-01 0.17351316E+03</pdfrwt>
<pdfrwt beam="2">  1       -2 0.27385516E-02 0.17351316E+03</pdfrwt>
<totfact> 0.34717256E+04</totfact>
</mgrwt>
</event>
<event>
 4    1  0.2489209E-004  0.2998698E+03  0.7818608E-02  0.1085306E+00
          2   -1    0    0  501    0  0.00000000000E+00  0.00000000000E+00  0.53462078278E+03  0.53462078279E+03  0.25500000000E-02 0.  1.
         -2   -1    0    0    0  501 -0.00000000000E+00 -0.00000000000E+00 -0.42049382854E+02  0.42049382931E+02  0.25500000000E-02 0. -1.
    5000001    1    1    2    0    0  0.11175884059E+03  0.56948276791E+02  0.19127352547E+03  0.24134561572E+03  0.77000000000E+02 0.  0.
   -5000001    1    1    2    0    0 -0.11175884059E+03 -0.56948276791E+02  0.30129787446E+03  0.33532455000E+03  0.77000000000E+02 0.  0.
<mgrwt>
<rscale>  0 0.29986980E+03</rscale>
<asrwt>0</asrwt>
<pdfrwt beam="1">  1        2 0.82249348E-01 0.29986980E+03</pdfrwt>
<pdfrwt beam="2">  1       -2 0.64691361E-02 0.29986980E+03</pdfrwt>
<totfact> 0.75888776E+03</totfact>
</mgrwt>
</event>
<event>
 4    1  0.2489209E-004  0.2607350E+03  0.7818608E-02  0.1106702E+00
         -2   -1    0    0    0  501 -0.00000000000E+00  0.00000000000E+00  0.43778869559E+02  0.43778869633E+02  0.25500000000E-02 0. -1.
          2   -1    0    0  501    0  0.00000000000E+00 -0.00000000000E+00 -0.38821664782E+03  0.38821664783E+03  0.25500000000E-02 0.  1.
    5000001    1    1    2    0    0  0.76792167337E+02 -0.70859534743E+02 -0.15202344945E+03  0.19989557227E+03  0.77000000000E+02 0.  0.
   -5000001    1    1    2    0    0 -0.76792167337E+02  0.70859534743E+02 -0.19241432881E+03  0.23209994519E+03  0.77000000000E+02 0.  0.
<mgrwt>
<rscale>  0 0.26073501E+03</rscale>
<asrwt>0</asrwt>
<pdfrwt beam="1">  1        2 0.59725636E-01 0.26073501E+03</pdfrwt>
<pdfrwt beam="2">  1       -2 0.67352110E-02 0.26073501E+03</pdfrwt>
<totfact> 0.10105998E+04</totfact>
</mgrwt>
</event>
<event>
 4    1  0.2489209E-004  0.2346893E+03  0.7818608E-02  0.1123382E+00
          2   -1    0    0  501    0  0.00000000000E+00  0.00000000000E+00  0.21269313559E+03  0.21269313561E+03  0.25500000000E-02 0.  1.
         -2   -1    0    0    0  501 -0.00000000000E+00 -0.00000000000E+00 -0.64740080544E+02  0.64740080594E+02  0.25500000000E-02 0. -1.
    5000001    1    1    2    0    0  0.73521117828E+02 -0.48889696923E+02  0.81925284182E+02  0.14295562046E+03  0.77000000000E+02 0.  0.
   -5000001    1    1    2    0    0 -0.73521117828E+02  0.48889696923E+02  0.66027770869E+02  0.13447759575E+03  0.77000000000E+02 0.  0.
<mgrwt>
<rscale>  0 0.23468933E+03</rscale>
<asrwt>0</asrwt>
<pdfrwt beam="1">  1        2 0.32722021E-01 0.23468933E+03</pdfrwt>
<pdfrwt beam="2">  1       -2 0.99600124E-02 0.23468933E+03</pdfrwt>
<totfact> 0.10433951E+04</totfact>
</mgrwt>
</event>
<event>
 4    1  0.2489209E-004  0.1787020E+03  0.7818608E-02  0.1169065E+00
          2   -1    0    0  501    0  0.00000000000E+00  0.00000000000E+00  0.40603110539E+02  0.40603110619E+02  0.25500000000E-02 0.  1.
         -2   -1    0    0    0  501 -0.00000000000E+00 -0.00000000000E+00 -0.19662529097E+03  0.19662529099E+03  0.25500000000E-02 0. -1.
    5000001    1    1    2    0    0  0.37074668044E+02 -0.58975599366E+01 -0.44289073642E+02  0.96435648325E+02  0.77000000000E+02 0.  0.
   -5000001    1    1    2    0    0 -0.37074668044E+02  0.58975599366E+01 -0.11173310679E+03  0.14079275328E+03  0.77000000000E+02 0.  0.
<mgrwt>
<rscale>  0 0.17870197E+03</rscale>
<asrwt>0</asrwt>
<pdfrwt beam="1">  1        2 0.62466325E-02 0.17870197E+03</pdfrwt>
<pdfrwt beam="2">  1       -2 0.30250044E-01 0.17870197E+03</pdfrwt>
<totfact> 0.11311603E+04</totfact>
</mgrwt>
</event>
<event>
 4    1  0.2489209E-004  0.2002263E+03  0.7818608E-02  0.1149548E+00
          2   -1    0    0  501    0  0.00000000000E+00  0.00000000000E+00  0.98628993941E+03  0.98628993941E+03  0.25500000000E-02 0.  1.
         -2   -1    0    0    0  501 -0.00000000000E+00 -0.00000000000E+00 -0.10161959866E+02  0.10161960186E+02  0.25500000000E-02 0. -1.
    5000001    1    1    2    0    0 -0.47415689738E+02 -0.36293118405E+02  0.60243997683E+03  0.61026909127E+03  0.77000000000E+02 0.  0.
   -5000001    1    1    2    0    0  0.47415689738E+02  0.36293118405E+02  0.37368800271E+03  0.38618280833E+03  0.77000000000E+02 0.  0.
<mgrwt>
<rscale>  0 0.20022626E+03</rscale>
<asrwt>0</asrwt>
<pdfrwt beam="1">  1        2 0.15173695E+00 0.20022626E+03</pdfrwt>
<pdfrwt beam="2">  1       -2 0.15633781E-02 0.20022626E+03</pdfrwt>
<totfact> 0.29044674E+04</totfact>
</mgrwt>
</event>
<event>
 4    1  0.2489209E-004  0.1883256E+03  0.7818608E-02  0.1159980E+00
          2   -1    0    0  501    0  0.00000000000E+00  0.00000000000E+00  0.41388505591E+03  0.41388505592E+03  0.25500000000E-02 0.  1.
         -2   -1    0    0    0  501 -0.00000000000E+00 -0.00000000000E+00 -0.21422931215E+02  0.21422931367E+02  0.25500000000E-02 0. -1.
    5000001    1    1    2    0    0 -0.22457141382E+02  0.11791548737E+02  0.30694679220E+03  0.31747235637E+03  0.77000000000E+02 0.  0.
   -5000001    1    1    2    0    0  0.22457141382E+02 -0.11791548737E+02  0.85515332502E+02  0.11783563092E+03  0.77000000000E+02 0.  0.
<mgrwt>
<rscale>  0 0.18832558E+03</rscale>
<asrwt>0</asrwt>
<pdfrwt beam="1">  1        2 0.63674619E-01 0.18832558E+03</pdfrwt>
<pdfrwt beam="2">  1       -2 0.32958358E-02 0.18832558E+03</pdfrwt>
<totfact> 0.27213691E+04</totfact>
</mgrwt>
</event>
<event>
 4    1  0.2489209E-004  0.4321062E+03  0.7818608E-02  0.1033197E+00
          2   -1    0    0  501    0  0.00000000000E+00  0.00000000000E+00  0.16041848012E+04  0.16041848012E+04  0.25500000000E-02 0.  1.
         -2   -1    0    0    0  501 -0.00000000000E+00 -0.00000000000E+00 -0.29098226448E+02  0.29098226560E+02  0.25500000000E-02 0. -1.
    5000001    1    1    2    0    0 -0.13981505620E+03 -0.15810547333E+02  0.24042563760E+03  0.28901852979E+03  0.77000000000E+02 0.  0.
   -5000001    1    1    2    0    0  0.13981505620E+03  0.15810547333E+02  0.13346609372E+04  0.13442644980E+04  0.77000000000E+02 0.  0.
<mgrwt>
<rscale>  0 0.43210616E+03</rscale>
<asrwt>0</asrwt>
<pdfrwt beam="1">  1        2 0.24679768E+00 0.43210616E+03</pdfrwt>
<pdfrwt beam="2">  1       -2 0.44766499E-02 0.43210616E+03</pdfrwt>
<totfact> 0.27753989E+03</totfact>
</mgrwt>
</event>
<event>
 4    1  0.2489209E-004  0.3473023E+03  0.7818608E-02  0.1063728E+00
          2   -1    0    0  501    0  0.00000000000E+00  0.00000000000E+00  0.65553156116E+03  0.65553156116E+03  0.25500000000E-02 0.  1.
         -2   -1    0    0    0  501 -0.00000000000E+00 -0.00000000000E+00 -0.46000415109E+02  0.46000415180E+02  0.25500000000E-02 0. -1.
    5000001    1    1    2    0    0 -0.23747776328E+02  0.15382053482E+03  0.30273540685E+03  0.34900206357E+03  0.77000000000E+02 0.  0.
   -5000001    1    1    2    0    0  0.23747776328E+02 -0.15382053482E+03  0.30679573919E+03  0.35252991277E+03  0.77000000000E+02 0.  0.
<mgrwt>
<rscale>  0 0.34730231E+03</rscale>
<asrwt>0</asrwt>
<pdfrwt beam="1">  1        2 0.10085100E+00 0.34730231E+03</pdfrwt>
<pdfrwt beam="2">  1       -2 0.70769873E-02 0.34730231E+03</pdfrwt>
<totfact> 0.52240858E+03</totfact>
</mgrwt>
</event>
<event>
 4    1  0.2489209E-004  0.2365471E+03  0.7818608E-02  0.1122115E+00
          2   -1    0    0  501    0  0.00000000000E+00  0.00000000000E+00  0.17773453615E+04  0.17773453615E+04  0.25500000000E-02 0.  1.
         -2   -1    0    0    0  501 -0.00000000000E+00 -0.00000000000E+00 -0.78705173533E+01  0.78705177664E+01  0.25500000000E-02 0. -1.
    5000001    1    1    2    0    0  0.89072510472E+02  0.47572250131E+01  0.96136233912E+03  0.96855722102E+03  0.77000000000E+02 0.  0.
   -5000001    1    1    2    0    0 -0.89072510472E+02 -0.47572250131E+01  0.80811250503E+03  0.81665865825E+03  0.77000000000E+02 0.  0.
<mgrwt>
<rscale>  0 0.23654706E+03</rscale>
<asrwt>0</asrwt>
<pdfrwt beam="1">  1        2 0.27343786E+00 0.23654706E+03</pdfrwt>
<pdfrwt beam="2">  1       -2 0.12108483E-02 0.23654706E+03</pdfrwt>
<totfact> 0.15619965E+04</totfact>
</mgrwt>
</event>
<event>
 4    1  0.2489209E-004  0.1839282E+03  0.7818608E-02  0.1164055E+00
         -2   -1    0    0    0  501 -0.00000000000E+00  0.00000000000E+00  0.88075908142E+01  0.88075911834E+01  0.25500000000E-02 0. -1.
          2   -1    0    0  501    0  0.00000000000E+00 -0.00000000000E+00 -0.96023963057E+03  0.96023963057E+03  0.25500000000E-02 0.  1.
    5000001    1    1    2    0    0  0.19952048455E+02 -0.43258053050E+02 -0.56051530002E+03  0.56778142356E+03  0.77000000000E+02 0.  0.
   -5000001    1    1    2    0    0 -0.19952048455E+02  0.43258053050E+02 -0.39091673974E+03  0.40126579819E+03  0.77000000000E+02 0.  0.
<mgrwt>
<rscale>  0 0.18392822E+03</rscale>
<asrwt>0</asrwt>
<pdfrwt beam="1">  1        2 0.14772909E+00 0.18392822E+03</pdfrwt>
<pdfrwt beam="2">  1       -2 0.13550148E-02 0.18392822E+03</pdfrwt>
<totfact> 0.36858548E+04</totfact>
</mgrwt>
</event>
<event>
 4    1  0.2489209E-004  0.2334683E+03  0.7818608E-02  0.1124222E+00
         -2   -1    0    0    0  501 -0.00000000000E+00  0.00000000000E+00  0.53964998234E+01  0.53965004259E+01  0.25500000000E-02 0. -1.
          2   -1    0    0  501    0  0.00000000000E+00 -0.00000000000E+00 -0.25251302404E+04  0.25251302404E+04  0.25500000000E-02 0.  1.
    5000001    1    1    2    0    0  0.60437269003E+02  0.55449939475E+02 -0.92220490238E+03  0.92904157133E+03  0.77000000000E+02 0.  0.
   -5000001    1    1    2    0    0 -0.60437269003E+02 -0.55449939475E+02 -0.15975288382E+04  0.16014851695E+04  0.77000000000E+02 0.  0.
<mgrwt>
<rscale>  0 0.23346833E+03</rscale>
<asrwt>0</asrwt>
<pdfrwt beam="1">  1        2 0.38848063E+00 0.23346833E+03</pdfrwt>
<pdfrwt beam="2">  1       -2 0.83023280E-03 0.23346833E+03</pdfrwt>
<totfact> 0.10833502E+04</totfact>
</mgrwt>
</event>
<event>
 4    1  0.2489209E-004  0.2253664E+03  0.7818608E-02  0.1129944E+00
         -2   -1    0    0    0  501 -0.00000000000E+00  0.00000000000E+00  0.18739046587E+03  0.18739046589E+03  0.25500000000E-02 0. -1.
          2   -1    0    0  501    0  0.00000000000E+00 -0.00000000000E+00 -0.67759581857E+02  0.67759581905E+02  0.25500000000E-02 0.  1.
    5000001    1    1    2    0    0 -0.68525472752E+02 -0.26973935029E+02  0.10133899434E+03  0.14704395724E+03  0.77000000000E+02 0.  0.
   -5000001    1    1    2    0    0  0.68525472752E+02  0.26973935029E+02  0.18291889673E+02  0.10810609055E+03  0.77000000000E+02 0.  0.
<mgrwt>
<rscale>  0 0.22536637E+03</rscale>
<asrwt>0</asrwt>
<pdfrwt beam="1">  1        2 0.10424551E-01 0.22536637E+03</pdfrwt>
<pdfrwt beam="2">  1       -2 0.28829302E-01 0.22536637E+03</pdfrwt>
<totfact> 0.65595215E+03</totfact>
</mgrwt>
</event>
<event>
 4    1  0.2489209E-004  0.1675915E+03  0.7818608E-02  0.1180383E+00
          2   -1    0    0  501    0  0.00000000000E+00  0.00000000000E+00  0.20661060579E+04  0.20661060579E+04  0.25500000000E-02 0.  1.
         -2   -1    0    0    0  501 -0.00000000000E+00 -0.00000000000E+00 -0.33985321009E+01  0.33985330576E+01  0.25500000000E-02 0. -1.
    5000001    1    1    2    0    0 -0.30602776901E+01 -0.30972803704E+02  0.89381953127E+03  0.89766978023E+03  0.77000000000E+02 0.  0.
   -5000001    1    1    2    0    0  0.30602776901E+01  0.30972803704E+02  0.11688879945E+04  0.11718348107E+04  0.77000000000E+02 0.  0.
<mgrwt>
<rscale>  0 0.16759151E+03</rscale>
<asrwt>0</asrwt>
<pdfrwt beam="1">  1        2 0.31786230E+00 0.16759151E+03</pdfrwt>
<pdfrwt beam="2">  1       -2 0.52285145E-03 0.16759151E+03</pdfrwt>
<totfact> 0.36435240E+04</totfact>
</mgrwt>
</event>
<event>
 4    1  0.2489209E-004  0.1807442E+03  0.7818608E-02  0.1167085E+00
          2   -1    0    0  501    0  0.00000000000E+00  0.00000000000E+00  0.87834232502E+03  0.87834232502E+03  0.25500000000E-02 0. -1.
         -2   -1    0    0    0  501 -0.00000000000E+00 -0.00000000000E+00 -0.92983271075E+01  0.92983274571E+01  0.25500000000E-02 0.  1.
    5000001    1    1    2    0    0  0.24387589167E+02  0.29734383226E+02  0.56984091386E+03  0.57630422101E+03  0.77000000000E+02 0.  0.
   -5000001    1    1    2    0    0 -0.24387589167E+02 -0.29734383226E+02  0.29920308405E+03  0.31133643147E+03  0.77000000000E+02 0.  0.
<mgrwt>
<rscale>  0 0.18074418E+03</rscale>
<asrwt>0</asrwt>
<pdfrwt beam="1">  1        2 0.13512957E+00 0.18074418E+03</pdfrwt>
<pdfrwt beam="2">  1       -2 0.14305121E-02 0.18074418E+03</pdfrwt>
<totfact> 0.38325618E+04</totfact>
</mgrwt>
</event>
<event>
 4    1  0.2489209E-004  0.2775571E+03  0.7818608E-02  0.1097031E+00
          2   -1    0    0  501    0  0.00000000000E+00  0.00000000000E+00  0.26562667954E+03  0.26562667955E+03  0.25500000000E-02 0.  1.
         -2   -1    0    0    0  501 -0.00000000000E+00 -0.00000000000E+00 -0.72505830716E+02  0.72505830760E+02  0.25500000000E-02 0. -1.
    5000001    1    1    2    0    0  0.11063897991E+03 -0.86082240363E+01  0.57740677299E+02  0.14689476237E+03  0.77000000000E+02 0.  0.
   -5000001    1    1    2    0    0 -0.11063897991E+03  0.86082240363E+01  0.13538017152E+03  0.19123774794E+03  0.77000000000E+02 0.  0.
<mgrwt>
<rscale>  0 0.27755708E+03</rscale>
<asrwt>0</asrwt>
<pdfrwt beam="1">  1        2 0.40865643E-01 0.27755708E+03</pdfrwt>
<pdfrwt beam="2">  1       -2 0.11154743E-01 0.27755708E+03</pdfrwt>
<totfact> 0.68990122E+03</totfact>
</mgrwt>
</event>
<event>
 4    1  0.2489209E-004  0.2454625E+03  0.7818608E-02  0.1116206E+00
          2   -1    0    0  501    0  0.00000000000E+00  0.00000000000E+00  0.72602714209E+03  0.72602714209E+03  0.25500000000E-02 0.  1.
         -2   -1    0    0    0  501 -0.00000000000E+00 -0.00000000000E+00 -0.20747098697E+02  0.20747098854E+02  0.25500000000E-02 0. -1.
    5000001    1    1    2    0    0 -0.88067687181E+02  0.30501858615E+02  0.41701040418E+03  0.43418078965E+03  0.77000000000E+02 0.  0.
   -5000001    1    1    2    0    0  0.88067687181E+02 -0.30501858615E+02  0.28826963921E+03  0.31259345130E+03  0.77000000000E+02 0.  0.
<mgrwt>
<rscale>  0 0.24546248E+03</rscale>
<asrwt>0</asrwt>
<pdfrwt beam="1">  1        2 0.11169646E+00 0.24546248E+03</pdfrwt>
<pdfrwt beam="2">  1       -2 0.31918622E-02 0.24546248E+03</pdfrwt>
<totfact> 0.15314152E+04</totfact>
</mgrwt>
</event>
<event>
 4    1  0.2489209E-004  0.2702018E+03  0.7818608E-02  0.1101164E+00
         -2   -1    0    0    0  501 -0.00000000000E+00  0.00000000000E+00  0.20525455164E+02  0.20525455322E+02  0.25500000000E-02 0. -1.
          2   -1    0    0  501    0  0.00000000000E+00 -0.00000000000E+00 -0.88924950859E+03  0.88924950860E+03  0.25500000000E-02 0.  1.
    5000001    1    1    2    0    0 -0.10866020183E+03 -0.25604126852E+01 -0.51037439469E+03  0.52747001615E+03  0.77000000000E+02 0.  0.
   -5000001    1    1    2    0    0  0.10866020183E+03  0.25604126852E+01 -0.35834965874E+03  0.38230494777E+03  0.77000000000E+02 0.  0.
<mgrwt>
<rscale>  0 0.27020178E+03</rscale>
<asrwt>0</asrwt>
<pdfrwt beam="1">  1        2 0.13680759E+00 0.27020178E+03</pdfrwt>
<pdfrwt beam="2">  1       -2 0.31577630E-02 0.27020178E+03</pdfrwt>
<totfact> 0.12065536E+04</totfact>
</mgrwt>
</event>
<event>
 4    1  0.2489209E-004  0.3193769E+03  0.7818608E-02  0.1075936E+00
         -2   -1    0    0    0  501 -0.00000000000E+00  0.00000000000E+00  0.47006363295E+02  0.47006363364E+02  0.25500000000E-02 0. -1.
          2   -1    0    0  501    0  0.00000000000E+00 -0.00000000000E+00 -0.54248815150E+03  0.54248815151E+03  0.25500000000E-02 0.  1.
    5000001    1    1    2    0    0 -0.48712032838E+02  0.12905146007E+03 -0.20468059931E+03  0.25855422879E+03  0.77000000000E+02 0.  0.
   -5000001    1    1    2    0    0  0.48712032838E+02 -0.12905146007E+03 -0.29080118890E+03  0.33094028608E+03  0.77000000000E+02 0.  0.
<mgrwt>
<rscale>  0 0.31937686E+03</rscale>
<asrwt>0</asrwt>
<pdfrwt beam="1">  1        2 0.83459711E-01 0.31937686E+03</pdfrwt>
<pdfrwt beam="2">  1       -2 0.72317486E-02 0.31937686E+03</pdfrwt>
<totfact> 0.62901294E+03</totfact>
</mgrwt>
</event>
<event>
 4    1  0.2489209E-004  0.2591661E+03  0.7818608E-02  0.1107645E+00
         -2   -1    0    0    0  501 -0.00000000000E+00  0.00000000000E+00  0.26555736216E+02  0.26555736339E+02  0.25500000000E-02 0. -1.
          2   -1    0    0  501    0  0.00000000000E+00 -0.00000000000E+00 -0.63232148955E+03  0.63232148956E+03  0.25500000000E-02 0.  1.
    5000001    1    1    2    0    0  0.68605607919E+02  0.78199808860E+02 -0.31912638238E+03  0.34437274496E+03  0.77000000000E+02 0.  0.
   -5000001    1    1    2    0    0 -0.68605607919E+02 -0.78199808860E+02 -0.28663937096E+03  0.31450448094E+03  0.77000000000E+02 0.  0.
<mgrwt>
<rscale>  0 0.25916607E+03</rscale>
<asrwt>0</asrwt>
<pdfrwt beam="1">  1        2 0.97280218E-01 0.25916607E+03</pdfrwt>
<pdfrwt beam="2">  1       -2 0.40854983E-02 0.25916607E+03</pdfrwt>
<totfact> 0.12523665E+04</totfact>
</mgrwt>
</event>
<event>
 4    1  0.2489209E-004  0.1845370E+03  0.7818608E-02  0.1163483E+00
         -2   -1    0    0    0  501 -0.00000000000E+00  0.00000000000E+00  0.45081160665E+03  0.45081160665E+03  0.25500000000E-02 0. -1.
          2   -1    0    0  501    0  0.00000000000E+00 -0.00000000000E+00 -0.18884766775E+02  0.18884766947E+02  0.25500000000E-02 0.  1.
    5000001    1    1    2    0    0  0.40162135078E+01  0.39456793087E+02  0.13501328635E+03  0.16040746860E+03  0.77000000000E+02 0.  0.
   -5000001    1    1    2    0    0 -0.40162135078E+01 -0.39456793087E+02  0.29691355352E+03  0.30928890500E+03  0.77000000000E+02 0.  0.
<mgrwt>
<rscale>  0 0.18453696E+03</rscale>
<asrwt>0</asrwt>
<pdfrwt beam="1">  1        2 0.29053491E-02 0.18453696E+03</pdfrwt>
<pdfrwt beam="2">  1       -2 0.69355623E-01 0.18453696E+03</pdfrwt>
<totfact> 0.61699293E+03</totfact>
</mgrwt>
</event>
<event>
 4    1  0.2489209E-004  0.5569318E+03  0.7818608E-02  0.9999021E-01
          2   -1    0    0  501    0  0.00000000000E+00  0.00000000000E+00  0.27313107172E+04  0.27313107172E+04  0.25500000000E-02 0.  1.
         -2   -1    0    0    0  501 -0.00000000000E+00 -0.00000000000E+00 -0.28390494312E+02  0.28390494426E+02  0.25500000000E-02 0. -1.
    5000001    1    1    2    0    0 -0.84309738664E+02 -0.24817876720E+03  0.16189222158E+04  0.16418096642E+04  0.77000000000E+02 0.  0.
   -5000001    1    1    2    0    0  0.84309738664E+02  0.24817876720E+03  0.10839980071E+04  0.11178915474E+04  0.77000000000E+02 0.  0.
<mgrwt>
<rscale>  0 0.55693181E+03</rscale>
<asrwt>0</asrwt>
<pdfrwt beam="1">  1        2 0.42020183E+00 0.55693181E+03</pdfrwt>
<pdfrwt beam="2">  1       -2 0.43677665E-02 0.55693181E+03</pdfrwt>
<totfact> 0.68935354E+02</totfact>
</mgrwt>
</event>
<event>
 4    1  0.2489209E-004  0.2495536E+03  0.7818608E-02  0.1113587E+00
         -2   -1    0    0    0  501 -0.00000000000E+00  0.00000000000E+00  0.48427859872E+02  0.48427859939E+02  0.25500000000E-02 0. -1.
          2   -1    0    0  501    0  0.00000000000E+00 -0.00000000000E+00 -0.32149370204E+03  0.32149370205E+03  0.25500000000E-02 0.  1.
    5000001    1    1    2    0    0  0.25259888492E+02  0.94555243217E+02 -0.14815728344E+03  0.19354156303E+03  0.77000000000E+02 0.  0.
   -5000001    1    1    2    0    0 -0.25259888492E+02 -0.94555243217E+02 -0.12490855873E+03  0.17637999895E+03  0.77000000000E+02 0.  0.
<mgrwt>
<rscale>  0 0.24955362E+03</rscale>
<asrwt>0</asrwt>
<pdfrwt beam="1">  1        2 0.49460568E-01 0.24955362E+03</pdfrwt>
<pdfrwt beam="2">  1       -2 0.74504402E-02 0.24955362E+03</pdfrwt>
<totfact> 0.10572304E+04</totfact>
</mgrwt>
</event>
<event>
 4    1  0.2489209E-004  0.1942338E+03  0.7818608E-02  0.1154697E+00
         -2   -1    0    0    0  501 -0.00000000000E+00  0.00000000000E+00  0.12310398490E+03  0.12310398492E+03  0.25500000000E-02 0. -1.
          2   -1    0    0  501    0  0.00000000000E+00 -0.00000000000E+00 -0.76615629045E+02  0.76615629088E+02  0.25500000000E-02 0.  1.
    5000001    1    1    2    0    0 -0.41818085062E+02 -0.39565624410E+02  0.37361417520E+02  0.10314585010E+03  0.77000000000E+02 0.  0.
   -5000001    1    1    2    0    0  0.41818085062E+02  0.39565624410E+02  0.91269383318E+01  0.96573763914E+02  0.77000000000E+02 0.  0.
<mgrwt>
<rscale>  0 0.19423377E+03</rscale>
<asrwt>0</asrwt>
<pdfrwt beam="1">  1        2 0.11787020E-01 0.19423377E+03</pdfrwt>
<pdfrwt beam="2">  1       -2 0.18939074E-01 0.19423377E+03</pdfrwt>
<totfact> 0.11629560E+04</totfact>
</mgrwt>
</event>
<event>
 4    1  0.2489209E-004  0.1810310E+03  0.7818608E-02  0.1166809E+00
         -2   -1    0    0    0  501 -0.00000000000E+00  0.00000000000E+00  0.81655611956E+01  0.81655615937E+01  0.25500000000E-02 0. -1.
          2   -1    0    0  501    0  0.00000000000E+00 -0.00000000000E+00 -0.10033669286E+04  0.10033669286E+04  0.25500000000E-02 0.  1.
    5000001    1    1    2    0    0  0.26467271902E+02 -0.39324769871E+02 -0.47449450182E+03  0.48303311094E+03  0.77000000000E+02 0.  0.
   -5000001    1    1    2    0    0 -0.26467271902E+02  0.39324769871E+02 -0.52070686555E+03  0.52849937922E+03  0.77000000000E+02 0.  0.
<mgrwt>
<rscale>  0 0.18103098E+03</rscale>
<asrwt>0</asrwt>
<pdfrwt beam="1">  1        2 0.15436405E+00 0.18103098E+03</pdfrwt>
<pdfrwt beam="2">  1       -2 0.12562410E-02 0.18103098E+03</pdfrwt>
<totfact> 0.38658918E+04</totfact>
</mgrwt>
</event>
<event>
 4    1  0.2489209E-004  0.2027935E+03  0.7818608E-02  0.1147403E+00
          2   -1    0    0  501    0  0.00000000000E+00  0.00000000000E+00  0.16706382133E+04  0.16706382133E+04  0.25500000000E-02 0.  1.
         -2   -1    0    0    0  501 -0.00000000000E+00 -0.00000000000E+00 -0.61541149977E+01  0.61541155260E+01  0.25500000000E-02 0. -1.
    5000001    1    1    2    0    0 -0.52102113566E+02  0.38849419841E+02  0.92593243760E+03  0.93139883329E+03  0.77000000000E+02 0.  0.
   -5000001    1    1    2    0    0  0.52102113566E+02 -0.38849419841E+02  0.73855166074E+03  0.74539349558E+03  0.77000000000E+02 0.  0.
<mgrwt>
<rscale>  0 0.20279349E+03</rscale>
<asrwt>0</asrwt>
<pdfrwt beam="1">  1        2 0.25702133E+00 0.20279349E+03</pdfrwt>
<pdfrwt beam="2">  1       -2 0.94678673E-03 0.20279349E+03</pdfrwt>
<totfact> 0.25195266E+04</totfact>
</mgrwt>
</event>
<event>
 4    1  0.2489209E-004  0.2266940E+03  0.7818608E-02  0.1128989E+00
          2   -1    0    0  501    0  0.00000000000E+00  0.00000000000E+00  0.54059140574E+03  0.54059140574E+03  0.25500000000E-02 0.  1.
         -2   -1    0    0    0  501 -0.00000000000E+00 -0.00000000000E+00 -0.23765723690E+02  0.23765723827E+02  0.25500000000E-02 0. -1.
    5000001    1    1    2    0    0 -0.63452064104E+02 -0.53598720183E+02  0.26942277566E+03  0.29226121756E+03  0.77000000000E+02 0.  0.
   -5000001    1    1    2    0    0  0.63452064104E+02  0.53598720183E+02  0.24740290639E+03  0.27209591201E+03  0.77000000000E+02 0.  0.
<mgrwt>
<rscale>  0 0.22669403E+03</rscale>
<asrwt>0</asrwt>
<pdfrwt beam="1">  1        2 0.83167912E-01 0.22669403E+03</pdfrwt>
<pdfrwt beam="2">  1       -2 0.36562650E-02 0.22669403E+03</pdfrwt>
<totfact> 0.17595373E+04</totfact>
</mgrwt>
</event>
<event>
 4    1  0.2489209E-004  0.1943868E+03  0.7818608E-02  0.1154563E+00
          2   -1    0    0  501    0  0.00000000000E+00  0.00000000000E+00  0.24322113295E+03  0.24322113296E+03  0.25500000000E-02 0.  1.
         -2   -1    0    0    0  501 -0.00000000000E+00 -0.00000000000E+00 -0.38839395674E+02  0.38839395758E+02  0.25500000000E-02 0. -1.
    5000001    1    1    2    0    0 -0.21614318015E+02  0.47087873269E+02  0.60308813501E+02  0.11068242651E+03  0.77000000000E+02 0.  0.
   -5000001    1    1    2    0    0  0.21614318015E+02 -0.47087873269E+02  0.14407292377E+03  0.17137810221E+03  0.77000000000E+02 0.  0.
<mgrwt>
<rscale>  0 0.19438685E+03</rscale>
<asrwt>0</asrwt>
<pdfrwt beam="1">  1        2 0.37418635E-01 0.19438685E+03</pdfrwt>
<pdfrwt beam="2">  1       -2 0.59752917E-02 0.19438685E+03</pdfrwt>
<totfact> 0.19719479E+04</totfact>
</mgrwt>
</event>
<event>
 4    1  0.2489209E-004  0.3124990E+03  0.7818608E-02  0.1079154E+00
          2   -1    0    0  501    0  0.00000000000E+00  0.00000000000E+00  0.49942731302E+03  0.49942731303E+03  0.25500000000E-02 0.  1.
         -2   -1    0    0    0  501 -0.00000000000E+00 -0.00000000000E+00 -0.48883802032E+02  0.48883802098E+02  0.25500000000E-02 0. -1.
    5000001    1    1    2    0    0  0.12317190622E+03 -0.54980359347E+02  0.25519002235E+03  0.29873919379E+03  0.77000000000E+02 0.  0.
   -5000001    1    1    2    0    0 -0.12317190622E+03  0.54980359347E+02  0.19535348863E+03  0.24957192133E+03  0.77000000000E+02 0.  0.
<mgrwt>
<rscale>  0 0.31249900E+03</rscale>
<asrwt>0</asrwt>
<pdfrwt beam="1">  1        2 0.76834974E-01 0.31249900E+03</pdfrwt>
<pdfrwt beam="2">  1       -2 0.75205847E-02 0.31249900E+03</pdfrwt>
<totfact> 0.64948557E+03</totfact>
</mgrwt>
</event>
<event>
 4    1  0.2489209E-004  0.2080783E+03  0.7818608E-02  0.1143097E+00
         -2   -1    0    0    0  501 -0.00000000000E+00  0.00000000000E+00  0.15012627817E+02  0.15012628033E+02  0.25500000000E-02 0. -1.
          2   -1    0    0  501    0  0.00000000000E+00 -0.00000000000E+00 -0.72100267346E+03  0.72100267346E+03  0.25500000000E-02 0.  1.
    5000001    1    1    2    0    0 -0.47688693406E+02  0.37543582532E+02 -0.47610865075E+03  0.48609893992E+03  0.77000000000E+02 0.  0.
   -5000001    1    1    2    0    0  0.47688693406E+02 -0.37543582532E+02 -0.22988139488E+03  0.24991636157E+03  0.77000000000E+02 0.  0.
<mgrwt>
<rscale>  0 0.20807830E+03</rscale>
<asrwt>0</asrwt>
<pdfrwt beam="1">  1        2 0.11092346E+00 0.20807830E+03</pdfrwt>
<pdfrwt beam="2">  1       -2 0.23096356E-02 0.20807830E+03</pdfrwt>
<totfact> 0.24683340E+04</totfact>
</mgrwt>
</event>
<event>
 4    1  0.2489209E-004  0.1837157E+03  0.7818608E-02  0.1164255E+00
          2   -1    0    0  501    0  0.00000000000E+00  0.00000000000E+00  0.62215068400E+02  0.62215068452E+02  0.25500000000E-02 0.  1.
         -2   -1    0    0    0  501 -0.00000000000E+00 -0.00000000000E+00 -0.13562419556E+03  0.13562419558E+03  0.25500000000E-02 0. -1.
    5000001    1    1    2    0    0  0.69106163946E+01  0.43538584420E+02 -0.62313044811E+02  0.10842177136E+03  0.77000000000E+02 0.  0.
   -5000001    1    1    2    0    0 -0.69106163946E+01 -0.43538584420E+02 -0.11096082350E+02  0.89417492672E+02  0.77000000000E+02 0.  0.
<mgrwt>
<rscale>  0 0.18371574E+03</rscale>
<asrwt>0</asrwt>
<pdfrwt beam="1">  1        2 0.95715490E-02 0.18371574E+03</pdfrwt>
<pdfrwt beam="2">  1       -2 0.20865261E-01 0.18371574E+03</pdfrwt>
<totfact> 0.12681376E+04</totfact>
</mgrwt>
</event>
<event>
 4    1  0.2489209E-004  0.2200472E+03  0.7818608E-02  0.1133848E+00
          2   -1    0    0  501    0  0.00000000000E+00  0.00000000000E+00  0.49472551745E+02  0.49472551811E+02  0.25500000000E-02 0.  1.
         -2   -1    0    0    0  501 -0.00000000000E+00 -0.00000000000E+00 -0.24468503016E+03  0.24468503017E+03  0.25500000000E-02 0. -1.
    5000001    1    1    2    0    0 -0.21261017074E+02  0.64079351604E+02 -0.43834599924E+02  0.11139419329E+03  0.77000000000E+02 0.  0.
   -5000001    1    1    2    0    0  0.21261017074E+02 -0.64079351604E+02 -0.15137787849E+03  0.18276338869E+03  0.77000000000E+02 0.  0.
<mgrwt>
<rscale>  0 0.22004720E+03</rscale>
<asrwt>0</asrwt>
<pdfrwt beam="1">  1        2 0.76111620E-02 0.22004720E+03</pdfrwt>
<pdfrwt beam="2">  1       -2 0.37643850E-01 0.22004720E+03</pdfrwt>
<totfact> 0.59469344E+03</totfact>
</mgrwt>
</event>
<event>
 4    1  0.2489209E-004  0.3199145E+03  0.7818608E-02  0.1075689E+00
          2   -1    0    0  501    0  0.00000000000E+00  0.00000000000E+00  0.74883759359E+03  0.74883759360E+03  0.25500000000E-02 0.  1.
         -2   -1    0    0    0  501 -0.00000000000E+00 -0.00000000000E+00 -0.34168054988E+02  0.34168055083E+02  0.25500000000E-02 0. -1.
    5000001    1    1    2    0    0 -0.36210149558E+02 -0.13475468728E+03  0.39083339658E+03  0.42207788921E+03  0.77000000000E+02 0.  0.
   -5000001    1    1    2    0    0  0.36210149558E+02  0.13475468728E+03  0.32383614203E+03  0.36092775948E+03  0.77000000000E+02 0.  0.
<mgrwt>
<rscale>  0 0.31991451E+03</rscale>
<asrwt>0</asrwt>
<pdfrwt beam="1">  1        2 0.11520578E+00 0.31991451E+03</pdfrwt>
<pdfrwt beam="2">  1       -2 0.52566240E-02 0.31991451E+03</pdfrwt>
<totfact> 0.70122653E+03</totfact>
</mgrwt>
</event>
<event>
 4    1  0.2489209E-004  0.2120920E+03  0.7818608E-02  0.1139920E+00
          2   -1    0    0  501    0  0.00000000000E+00  0.00000000000E+00  0.16179041990E+03  0.16179041992E+03  0.25500000000E-02 0.  1.
         -2   -1    0    0    0  501 -0.00000000000E+00 -0.00000000000E+00 -0.69508128153E+02  0.69508128200E+02  0.25500000000E-02 0. -1.
    5000001    1    1    2    0    0  0.62765078922E+02 -0.24420290679E+02  0.15665106516E+02  0.10349010238E+03  0.77000000000E+02 0.  0.
   -5000001    1    1    2    0    0 -0.62765078922E+02  0.24420290679E+02  0.76617185231E+02  0.12780844574E+03  0.77000000000E+02 0.  0.
<mgrwt>
<rscale>  0 0.21209195E+03</rscale>
<asrwt>0</asrwt>
<pdfrwt beam="1">  1        2 0.24890833E-01 0.21209195E+03</pdfrwt>
<pdfrwt beam="2">  1       -2 0.10693558E-01 0.21209195E+03</pdfrwt>
<totfact> 0.12514210E+04</totfact>
</mgrwt>
</event>
<event>
 4    1  0.2489209E-004  0.3094889E+03  0.7818608E-02  0.1080591E+00
         -2   -1    0    0    0  501 -0.00000000000E+00  0.00000000000E+00  0.50390106755E+02  0.50390106820E+02  0.25500000000E-02 0. -1.
          2   -1    0    0  501    0  0.00000000000E+00 -0.00000000000E+00 -0.47520914863E+03  0.47520914864E+03  0.25500000000E-02 0.  1.
    5000001    1    1    2    0    0 -0.86130476639E+02  0.96540256606E+02 -0.27313014522E+03  0.31187747014E+03  0.77000000000E+02 0.  0.
   -5000001    1    1    2    0    0  0.86130476639E+02 -0.96540256606E+02 -0.15168889666E+03  0.21372178532E+03  0.77000000000E+02 0.  0.
<mgrwt>
<rscale>  0 0.30948887E+03</rscale>
<asrwt>0</asrwt>
<pdfrwt beam="1">  1        2 0.73109097E-01 0.30948887E+03</pdfrwt>
<pdfrwt beam="2">  1       -2 0.77523245E-02 0.30948887E+03</pdfrwt>
<totfact> 0.65466430E+03</totfact>
</mgrwt>
</event>
<event>
 4    1  0.2489209E-004  0.2296719E+03  0.7818608E-02  0.1126871E+00
         -2   -1    0    0    0  501 -0.00000000000E+00  0.00000000000E+00  0.89573346173E+02  0.89573346209E+02  0.25500000000E-02 0. -1.
          2   -1    0    0  501    0  0.00000000000E+00 -0.00000000000E+00 -0.14722338759E+03  0.14722338761E+03  0.25500000000E-02 0.  1.
    5000001    1    1    2    0    0 -0.94945966738E+01  0.64981148505E+02 -0.84782015876E+02  0.13202154083E+03  0.77000000000E+02 0.  0.
   -5000001    1    1    2    0    0  0.94945966738E+01 -0.64981148505E+02  0.27131974464E+02  0.10477519299E+03  0.77000000000E+02 0.  0.
<mgrwt>
<rscale>  0 0.22967187E+03</rscale>
<asrwt>0</asrwt>
<pdfrwt beam="1">  1        2 0.22649752E-01 0.22967187E+03</pdfrwt>
<pdfrwt beam="2">  1       -2 0.13780515E-01 0.22967187E+03</pdfrwt>
<totfact> 0.92854353E+03</totfact>
</mgrwt>
</event>
<event>
 4    1  0.2489209E-004  0.1773785E+03  0.7818608E-02  0.1170365E+00
          2   -1    0    0  501    0  0.00000000000E+00  0.00000000000E+00  0.23793839244E+02  0.23793839380E+02  0.25500000000E-02 0.  1.
         -2   -1    0    0    0  501 -0.00000000000E+00 -0.00000000000E+00 -0.33058051731E+03  0.33058051732E+03  0.25500000000E-02 0. -1.
    5000001    1    1    2    0    0  0.27863017525E+02  0.32374075143E+02 -0.17456965014E+03  0.19551979756E+03  0.77000000000E+02 0.  0.
   -5000001    1    1    2    0    0 -0.27863017525E+02 -0.32374075143E+02 -0.13221702793E+03  0.15885455915E+03  0.77000000000E+02 0.  0.
<mgrwt>
<rscale>  0 0.17737846E+03</rscale>
<asrwt>0</asrwt>
<pdfrwt beam="1">  1        2 0.36605909E-02 0.17737846E+03</pdfrwt>
<pdfrwt beam="2">  1       -2 0.50858538E-01 0.17737846E+03</pdfrwt>
<totfact> 0.85325155E+03</totfact>
</mgrwt>
</event>
<event>
 4    1  0.2489209E-004  0.1777219E+03  0.7818608E-02  0.1170026E+00
         -2   -1    0    0    0  501 -0.00000000000E+00  0.00000000000E+00  0.80311725257E+02  0.80311725298E+02  0.25500000000E-02 0. -1.
          2   -1    0    0  501    0  0.00000000000E+00 -0.00000000000E+00 -0.98320198794E+02  0.98320198827E+02  0.25500000000E-02 0.  1.
    5000001    1    1    2    0    0 -0.38536786232E+01  0.42905537715E+02 -0.19619034702E+02  0.90386074858E+02  0.77000000000E+02 0.  0.
   -5000001    1    1    2    0    0  0.38536786232E+01 -0.42905537715E+02  0.16105611656E+01  0.88245849267E+02  0.77000000000E+02 0.  0.
<mgrwt>
<rscale>  0 0.17772186E+03</rscale>
<asrwt>0</asrwt>
<pdfrwt beam="1">  1        2 0.15126184E-01 0.17772186E+03</pdfrwt>
<pdfrwt beam="2">  1       -2 0.12355650E-01 0.17772186E+03</pdfrwt>
<totfact> 0.17327097E+04</totfact>
</mgrwt>
</event>
<event>
 4    1  0.2489209E-004  0.3539166E+03  0.7818608E-02  0.1061019E+00
          2   -1    0    0  501    0  0.00000000000E+00  0.00000000000E+00  0.28385079015E+03  0.28385079016E+03  0.25500000000E-02 0.  1.
         -2   -1    0    0    0  501 -0.00000000000E+00 -0.00000000000E+00 -0.11031934874E+03  0.11031934876E+03  0.25500000000E-02 0. -1.
    5000001    1    1    2    0    0 -0.42264089772E+02 -0.13518855753E+03  0.55084024979E+01  0.16131193963E+03  0.77000000000E+02 0.  0.
   -5000001    1    1    2    0    0  0.42264089772E+02  0.13518855753E+03  0.16802303892E+03  0.23285819929E+03  0.77000000000E+02 0.  0.
<mgrwt>
<rscale>  0 0.35391657E+03</rscale>
<asrwt>0</asrwt>
<pdfrwt beam="1">  1        2 0.43669352E-01 0.35391657E+03</pdfrwt>
<pdfrwt beam="2">  1       -2 0.16972208E-01 0.35391657E+03</pdfrwt>
<totfact> 0.32433947E+03</totfact>
</mgrwt>
</event>
<event>
 4    1  0.2489209E-004  0.2075093E+03  0.7818608E-02  0.1143554E+00
         -2   -1    0    0    0  501 -0.00000000000E+00  0.00000000000E+00  0.32807073064E+01  0.32807082974E+01  0.25500000000E-02 0. -1.
          2   -1    0    0  501    0  0.00000000000E+00 -0.00000000000E+00 -0.32813110967E+04  0.32813110967E+04  0.25500000000E-02 0.  1.
    5000001    1    1    2    0    0  0.44588125494E+02 -0.53343264506E+02 -0.16144011818E+04  0.16177310594E+04  0.77000000000E+02 0.  0.
   -5000001    1    1    2    0    0 -0.44588125494E+02  0.53343264506E+02 -0.16636292075E+04  0.16668607455E+04  0.77000000000E+02 0.  0.
<mgrwt>
<rscale>  0 0.20750926E+03</rscale>
<asrwt>0</asrwt>
<pdfrwt beam="1">  1        2 0.50481447E+00 0.20750926E+03</pdfrwt>
<pdfrwt beam="2">  1       -2 0.50472690E-03 0.20750926E+03</pdfrwt>
<totfact> 0.80606860E+03</totfact>
</mgrwt>
</event>
<event>
 4    1  0.2489209E-004  0.6189552E+03  0.7818608E-02  0.9866842E-01
          2   -1    0    0  501    0  0.00000000000E+00  0.00000000000E+00  0.15351345839E+04  0.15351345839E+04  0.25500000000E-02 0.  1.
         -2   -1    0    0    0  501 -0.00000000000E+00 -0.00000000000E+00 -0.62389563986E+02  0.62389564039E+02  0.25500000000E-02 0. -1.
    5000001    1    1    2    0    0 -0.13702802192E+03 -0.69198772979E+02  0.71885059494E+02  0.18617628944E+03  0.77000000000E+02 0.  0.
   -5000001    1    1    2    0    0  0.13702802192E+03  0.69198772979E+02  0.14008599604E+04  0.14113478585E+04  0.77000000000E+02 0.  0.
<mgrwt>
<rscale>  0 0.61895518E+03</rscale>
<asrwt>0</asrwt>
<pdfrwt beam="1">  1        2 0.23617456E+00 0.61895518E+03</pdfrwt>
<pdfrwt beam="2">  1       -2 0.95983942E-02 0.61895518E+03</pdfrwt>
<totfact> 0.90671749E+02</totfact>
</mgrwt>
</event>
<event>
 4    1  0.2489209E-004  0.2041019E+03  0.7818608E-02  0.1146324E+00
         -2   -1    0    0    0  501 -0.00000000000E+00  0.00000000000E+00  0.33242277726E+02  0.33242277824E+02  0.25500000000E-02 0. -1.
          2   -1    0    0  501    0  0.00000000000E+00 -0.00000000000E+00 -0.31328757859E+03  0.31328757860E+03  0.25500000000E-02 0.  1.
    5000001    1    1    2    0    0  0.24174292643E+02 -0.62398528895E+02 -0.13539785888E+03  0.16952744033E+03  0.77000000000E+02 0.  0.
   -5000001    1    1    2    0    0 -0.24174292643E+02  0.62398528895E+02 -0.14464744198E+03  0.17700241610E+03  0.77000000000E+02 0.  0.
<mgrwt>
<rscale>  0 0.20410186E+03</rscale>
<asrwt>0</asrwt>
<pdfrwt beam="1">  1        2 0.48198087E-01 0.20410186E+03</pdfrwt>
<pdfrwt beam="2">  1       -2 0.51141968E-02 0.20410186E+03</pdfrwt>
<totfact> 0.19117451E+04</totfact>
</mgrwt>
</event>
<event>
 4    1  0.2489209E-004  0.2331046E+03  0.7818608E-02  0.1124473E+00
         -2   -1    0    0    0  501 -0.00000000000E+00  0.00000000000E+00  0.24980645612E+02  0.24980645743E+02  0.25500000000E-02 0. -1.
          2   -1    0    0  501    0  0.00000000000E+00 -0.00000000000E+00 -0.54379859630E+03  0.54379859631E+03  0.25500000000E-02 0.  1.
    5000001    1    1    2    0    0  0.21086769794E+02  0.65126565861E+02 -0.39236905670E+03  0.40567055365E+03  0.77000000000E+02 0.  0.
   -5000001    1    1    2    0    0 -0.21086769794E+02 -0.65126565861E+02 -0.12644889399E+03  0.16310868840E+03  0.77000000000E+02 0.  0.
<mgrwt>
<rscale>  0 0.23310461E+03</rscale>
<asrwt>0</asrwt>
<pdfrwt beam="1">  1        2 0.83661313E-01 0.23310461E+03</pdfrwt>
<pdfrwt beam="2">  1       -2 0.38431767E-02 0.23310461E+03</pdfrwt>
<totfact> 0.16248493E+04</totfact>
</mgrwt>
</event>
<event>
 4    1  0.2489209E-004  0.2271423E+03  0.7818608E-02  0.1128667E+00
         -2   -1    0    0    0  501 -0.00000000000E+00  0.00000000000E+00  0.61854425936E+02  0.61854425989E+02  0.25500000000E-02 0. -1.
          2   -1    0    0  501    0  0.00000000000E+00 -0.00000000000E+00 -0.20852836907E+03  0.20852836909E+03  0.25500000000E-02 0.  1.
    5000001    1    1    2    0    0 -0.52788063299E+01 -0.81305396971E+02 -0.94992803969E+02  0.14693898795E+03  0.77000000000E+02 0.  0.
   -5000001    1    1    2    0    0  0.52788063299E+01  0.81305396971E+02 -0.51681139167E+02  0.12344380713E+03  0.77000000000E+02 0.  0.
<mgrwt>
<rscale>  0 0.22714227E+03</rscale>
<asrwt>0</asrwt>
<pdfrwt beam="1">  1        2 0.32081287E-01 0.22714227E+03</pdfrwt>
<pdfrwt beam="2">  1       -2 0.95160656E-02 0.22714227E+03</pdfrwt>
<totfact> 0.11437244E+04</totfact>
</mgrwt>
</event>
<event>
 4    1  0.2489209E-004  0.3075358E+03  0.7818608E-02  0.1081533E+00
          2   -1    0    0  501    0  0.00000000000E+00  0.00000000000E+00  0.82943805091E+03  0.82943805092E+03  0.25500000000E-02 0.  1.
         -2   -1    0    0    0  501 -0.00000000000E+00 -0.00000000000E+00 -0.28506729471E+02  0.28506729585E+02  0.25500000000E-02 0. -1.
    5000001    1    1    2    0    0  0.53964042210E+02  0.38156518695E+02  0.72276847126E+03  0.72985704136E+03  0.77000000000E+02 0.  0.
   -5000001    1    1    2    0    0 -0.53964042210E+02 -0.38156518695E+02  0.78162850182E+02  0.12808773914E+03  0.77000000000E+02 0.  0.
<mgrwt>
<rscale>  0 0.30753579E+03</rscale>
<asrwt>0</asrwt>
<pdfrwt beam="1">  1        2 0.12760585E+00 0.30753579E+03</pdfrwt>
<pdfrwt beam="2">  1       -2 0.43856509E-02 0.30753579E+03</pdfrwt>
<totfact> 0.81035135E+03</totfact>
</mgrwt>
</event>
<event>
 4    1  0.2489209E-004  0.2562868E+03  0.7818608E-02  0.1109395E+00
         -2   -1    0    0    0  501 -0.00000000000E+00  0.00000000000E+00  0.58660736500E+02  0.58660736556E+02  0.25500000000E-02 0. -1.
          2   -1    0    0  501    0  0.00000000000E+00 -0.00000000000E+00 -0.27992714553E+03  0.27992714554E+03  0.25500000000E-02 0.  1.
    5000001    1    1    2    0    0  0.97076236372E+02 -0.83242967153E+01 -0.68883801295E+02  0.14201080123E+03  0.77000000000E+02 0.  0.
   -5000001    1    1    2    0    0 -0.97076236372E+02  0.83242967153E+01 -0.15238260773E+03  0.19657708087E+03  0.77000000000E+02 0.  0.
<mgrwt>
<rscale>  0 0.25628681E+03</rscale>
<asrwt>0</asrwt>
<pdfrwt beam="1">  1        2 0.43065714E-01 0.25628681E+03</pdfrwt>
<pdfrwt beam="2">  1       -2 0.90247288E-02 0.25628681E+03</pdfrwt>
<totfact> 0.91018766E+03</totfact>
</mgrwt>
</event>
<event>
 4    1  0.2489209E-004  0.3294118E+03  0.7818608E-02  0.1071397E+00
          2   -1    0    0  501    0  0.00000000000E+00  0.00000000000E+00  0.32018277532E+03  0.32018277533E+03  0.25500000000E-02 0.  1.
         -2   -1    0    0    0  501 -0.00000000000E+00 -0.00000000000E+00 -0.84726714289E+02  0.84726714328E+02  0.25500000000E-02 0. -1.
    5000001    1    1    2    0    0 -0.56954599016E+02  0.13291661686E+03  0.96854196435E+02  0.19031654882E+03  0.77000000000E+02 0.  0.
   -5000001    1    1    2    0    0  0.56954599016E+02 -0.13291661686E+03  0.13860186459E+03  0.21459294084E+03  0.77000000000E+02 0.  0.
<mgrwt>
<rscale>  0 0.32941181E+03</rscale>
<asrwt>0</asrwt>
<pdfrwt beam="1">  1        2 0.49258887E-01 0.32941181E+03</pdfrwt>
<pdfrwt beam="2">  1       -2 0.13034879E-01 0.32941181E+03</pdfrwt>
<totfact> 0.44045846E+03</totfact>
</mgrwt>
</event>
<event>
 4    1  0.2489209E-004  0.2218445E+03  0.7818608E-02  0.1132515E+00
          2   -1    0    0  501    0  0.00000000000E+00  0.00000000000E+00  0.96892773156E+03  0.96892773157E+03  0.25500000000E-02 0.  1.
         -2   -1    0    0    0  501 -0.00000000000E+00 -0.00000000000E+00 -0.12698309114E+02  0.12698309370E+02  0.25500000000E-02 0. -1.
    5000001    1    1    2    0    0 -0.43015068738E+02  0.65956810068E+02  0.41972242502E+03  0.43393145887E+03  0.77000000000E+02 0.  0.
   -5000001    1    1    2    0    0  0.43015068738E+02 -0.65956810068E+02  0.53650699743E+03  0.54769458207E+03  0.77000000000E+02 0.  0.
<mgrwt>
<rscale>  0 0.22184449E+03</rscale>
<asrwt>0</asrwt>
<pdfrwt beam="1">  1        2 0.14906579E+00 0.22184449E+03</pdfrwt>
<pdfrwt beam="2">  1       -2 0.19535863E-02 0.22184449E+03</pdfrwt>
<totfact> 0.21638447E+04</totfact>
</mgrwt>
</event>
<event>
 4    1  0.2489209E-004  0.5544578E+03  0.7818608E-02  0.1000467E+00
          2   -1    0    0  501    0  0.00000000000E+00  0.00000000000E+00  0.25780063317E+04  0.25780063317E+04  0.25500000000E-02 0.  1.
         -2   -1    0    0    0  501 -0.00000000000E+00 -0.00000000000E+00 -0.29812132075E+02  0.29812132184E+02  0.25500000000E-02 0. -1.
    5000001    1    1    2    0    0 -0.24200423582E+03 -0.11052260154E+03  0.13308443053E+04  0.13593589888E+04  0.77000000000E+02 0.  0.
   -5000001    1    1    2    0    0  0.24200423582E+03  0.11052260154E+03  0.12173498944E+04  0.12484594751E+04  0.77000000000E+02 0.  0.
<mgrwt>
<rscale>  0 0.55445781E+03</rscale>
<asrwt>0</asrwt>
<pdfrwt beam="1">  1        2 0.39661659E+00 0.55445781E+03</pdfrwt>
<pdfrwt beam="2">  1       -2 0.45864792E-02 0.55445781E+03</pdfrwt>
<totfact> 0.78291160E+02</totfact>
</mgrwt>
</event>
<event>
 4    1  0.2489209E-004  0.3507455E+03  0.7818608E-02  0.1062309E+00
          2   -1    0    0  501    0  0.00000000000E+00  0.00000000000E+00  0.11411970582E+03  0.11411970585E+03  0.25500000000E-02 0.  1.
         -2   -1    0    0    0  501 -0.00000000000E+00 -0.00000000000E+00 -0.26950299989E+03  0.26950299991E+03  0.25500000000E-02 0. -1.
    5000001    1    1    2    0    0  0.10449400136E+03  0.82877819761E+02 -0.16945383759E+03  0.22897889074E+03  0.77000000000E+02 0.  0.
   -5000001    1    1    2    0    0 -0.10449400136E+03 -0.82877819761E+02  0.14070543518E+02  0.15464381502E+03  0.77000000000E+02 0.  0.
<mgrwt>
<rscale>  0 0.35074551E+03</rscale>
<asrwt>0</asrwt>
<pdfrwt beam="1">  1        2 0.17556878E-01 0.35074551E+03</pdfrwt>
<pdfrwt beam="2">  1       -2 0.41462000E-01 0.35074551E+03</pdfrwt>
<totfact> 0.18060585E+03</totfact>
</mgrwt>
</event>
<event>
 4    1  0.2489209E-004  0.2310241E+03  0.7818608E-02  0.1125921E+00
         -2   -1    0    0    0  501 -0.00000000000E+00  0.00000000000E+00  0.94205832913E+02  0.94205832948E+02  0.25500000000E-02 0. -1.
          2   -1    0    0  501    0  0.00000000000E+00 -0.00000000000E+00 -0.14163703057E+03  0.14163703059E+03  0.25500000000E-02 0.  1.
    5000001    1    1    2    0    0 -0.74683585703E+02 -0.25324528010E+02  0.11575173139E+02  0.11082397902E+03  0.77000000000E+02 0.  0.
   -5000001    1    1    2    0    0  0.74683585703E+02  0.25324528010E+02 -0.59006370795E+02  0.12501888452E+03  0.77000000000E+02 0.  0.
<mgrwt>
<rscale>  0 0.23102411E+03</rscale>
<asrwt>0</asrwt>
<pdfrwt beam="1">  1        2 0.21790312E-01 0.23102411E+03</pdfrwt>
<pdfrwt beam="2">  1       -2 0.14493205E-01 0.23102411E+03</pdfrwt>
<totfact> 0.89338170E+03</totfact>
</mgrwt>
</event>
<event>
 4    1  0.2489209E-004  0.2404322E+03  0.7818608E-02  0.1119505E+00
          2   -1    0    0  501    0  0.00000000000E+00  0.00000000000E+00  0.26918304744E+03  0.26918304746E+03  0.25500000000E-02 0.  1.
         -2   -1    0    0    0  501 -0.00000000000E+00 -0.00000000000E+00 -0.53688041154E+02  0.53688041215E+02  0.25500000000E-02 0. -1.
    5000001    1    1    2    0    0 -0.74496862405E+01 -0.80807056631E+02  0.48635971236E+02  0.12198252303E+03  0.77000000000E+02 0.  0.
   -5000001    1    1    2    0    0  0.74496862405E+01  0.80807056631E+02  0.16685903505E+03  0.20088856564E+03  0.77000000000E+02 0.  0.
<mgrwt>
<rscale>  0 0.24043220E+03</rscale>
<asrwt>0</asrwt>
<pdfrwt beam="1">  1        2 0.41412777E-01 0.24043220E+03</pdfrwt>
<pdfrwt beam="2">  1       -2 0.82596986E-02 0.24043220E+03</pdfrwt>
<totfact> 0.10874444E+04</totfact>
</mgrwt>
</event>
<event>
 4    1  0.2489209E-004  0.1886204E+03  0.7818608E-02  0.1159712E+00
         -2   -1    0    0    0  501 -0.00000000000E+00  0.00000000000E+00  0.90457588877E+01  0.90457592471E+01  0.25500000000E-02 0. -1.
          2   -1    0    0  501    0  0.00000000000E+00 -0.00000000000E+00 -0.98326906345E+03  0.98326906345E+03  0.25500000000E-02 0.  1.
    5000001    1    1    2    0    0  0.34100320333E+02  0.33240890521E+02 -0.34815727226E+03  0.35973639637E+03  0.77000000000E+02 0.  0.
   -5000001    1    1    2    0    0 -0.34100320333E+02 -0.33240890521E+02 -0.62606603230E+03  0.63257842632E+03  0.77000000000E+02 0.  0.
<mgrwt>
<rscale>  0 0.18862041E+03</rscale>
<asrwt>0</asrwt>
<pdfrwt beam="1">  1        2 0.15127208E+00 0.18862041E+03</pdfrwt>
<pdfrwt beam="2">  1       -2 0.13916560E-02 0.18862041E+03</pdfrwt>
<totfact> 0.34392132E+04</totfact>
</mgrwt>
</event>
<event>
 4    1  0.2489209E-004  0.2021066E+03  0.7818608E-02  0.1147974E+00
          2   -1    0    0  501    0  0.00000000000E+00  0.00000000000E+00  0.10520177540E+03  0.10520177543E+03  0.25500000000E-02 0.  1.
         -2   -1    0    0    0  501 -0.00000000000E+00 -0.00000000000E+00 -0.97068409114E+02  0.97068409147E+02  0.25500000000E-02 0. -1.
    5000001    1    1    2    0    0 -0.58742615050E+02 -0.15194644557E+02 -0.20472480862E+02  0.10014836254E+03  0.77000000000E+02 0.  0.
   -5000001    1    1    2    0    0  0.58742615050E+02  0.15194644557E+02  0.28605847147E+02  0.10212182204E+03  0.77000000000E+02 0.  0.
<mgrwt>
<rscale>  0 0.20210660E+03</rscale>
<asrwt>0</asrwt>
<pdfrwt beam="1">  1        2 0.16184888E-01 0.20210660E+03</pdfrwt>
<pdfrwt beam="2">  1       -2 0.14933601E-01 0.20210660E+03</pdfrwt>
<totfact> 0.11875054E+04</totfact>
</mgrwt>
</event>
<event>
 4    1  0.2489209E-004  0.5657106E+03  0.7818608E-02  0.9979216E-01
          2   -1    0    0  501    0  0.00000000000E+00  0.00000000000E+00  0.81273727539E+03  0.81273727539E+03  0.25500000000E-02 0.  1.
         -2   -1    0    0    0  501 -0.00000000000E+00 -0.00000000000E+00 -0.98441554398E+02  0.98441554431E+02  0.25500000000E-02 0. -1.
    5000001    1    1    2    0    0  0.82974055728E+02 -0.25427715461E+03  0.43826852214E+03  0.51918191685E+03  0.77000000000E+02 0.  0.
   -5000001    1    1    2    0    0 -0.82974055728E+02  0.25427715461E+03  0.27602719885E+03  0.39199691297E+03  0.77000000000E+02 0.  0.
<mgrwt>
<rscale>  0 0.56571060E+03</rscale>
<asrwt>0</asrwt>
<pdfrwt beam="1">  1        2 0.12503651E+00 0.56571060E+03</pdfrwt>
<pdfrwt beam="2">  1       -2 0.15144854E-01 0.56571060E+03</pdfrwt>
<totfact> 0.11682249E+03</totfact>
</mgrwt>
</event>
<event>
 4    1  0.2489209E-004  0.1794644E+03  0.7818608E-02  0.1168322E+00
         -2   -1    0    0    0  501 -0.00000000000E+00  0.00000000000E+00  0.21010723073E+04  0.21010723073E+04  0.25500000000E-02 0. -1.
          2   -1    0    0  501    0  0.00000000000E+00 -0.00000000000E+00 -0.38322654419E+01  0.38322662903E+01  0.25500000000E-02 0.  1.
    5000001    1    1    2    0    0 -0.20235050658E+02  0.40878062032E+02  0.11249875337E+04  0.11285417246E+04  0.77000000000E+02 0.  0.
   -5000001    1    1    2    0    0  0.20235050658E+02 -0.40878062032E+02  0.97225250822E+03  0.97636284903E+03  0.77000000000E+02 0.  0.
<mgrwt>
<rscale>  0 0.17946440E+03</rscale>
<asrwt>0</asrwt>
<pdfrwt beam="1">  1        2 0.58957957E-03 0.17946440E+03</pdfrwt>
<pdfrwt beam="2">  1       -2 0.32324178E+00 0.17946440E+03</pdfrwt>
<totfact> 0.80384628E+02</totfact>
</mgrwt>
</event>
<event>
 4    1  0.2489209E-004  0.1887337E+03  0.7818608E-02  0.1159608E+00
         -2   -1    0    0    0  501 -0.00000000000E+00  0.00000000000E+00  0.13709587085E+03  0.13709587087E+03  0.25500000000E-02 0. -1.
          2   -1    0    0  501    0  0.00000000000E+00 -0.00000000000E+00 -0.64955319964E+02  0.64955320014E+02  0.25500000000E-02 0.  1.
    5000001    1    1    2    0    0  0.24375725672E+02  0.37825460513E+02  0.30531142439E+01  0.89237116558E+02  0.77000000000E+02 0.  0.
   -5000001    1    1    2    0    0 -0.24375725672E+02 -0.37825460513E+02  0.69087436639E+02  0.11281407433E+03  0.77000000000E+02 0.  0.
<mgrwt>
<rscale>  0 0.18873374E+03</rscale>
<asrwt>0</asrwt>
<pdfrwt beam="1">  1        2 0.99931262E-02 0.18873374E+03</pdfrwt>
<pdfrwt beam="2">  1       -2 0.21091672E-01 0.18873374E+03</pdfrwt>
<totfact> 0.11826828E+04</totfact>
</mgrwt>
</event>
<event>
 4    1  0.2489209E-004  0.1877773E+03  0.7818608E-02  0.1160481E+00
          2   -1    0    0  501    0  0.00000000000E+00  0.00000000000E+00  0.17359261058E+04  0.17359261058E+04  0.25500000000E-02 0.  1.
         -2   -1    0    0    0  501 -0.00000000000E+00 -0.00000000000E+00 -0.50780255316E+01  0.50780261718E+01  0.25500000000E-02 0. -1.
    5000001    1    1    2    0    0 -0.39899319716E+01  0.37895865171E+02  0.12165319569E+04  0.12195618141E+04  0.77000000000E+02 0.  0.
   -5000001    1    1    2    0    0  0.39899319716E+01 -0.37895865171E+02  0.51431612333E+03  0.52144231788E+03  0.77000000000E+02 0.  0.
<mgrwt>
<rscale>  0 0.18777729E+03</rscale>
<asrwt>0</asrwt>
<pdfrwt beam="1">  1        2 0.26706626E+00 0.18777729E+03</pdfrwt>
<pdfrwt beam="2">  1       -2 0.78123268E-03 0.18777729E+03</pdfrwt>
<totfact> 0.30597645E+04</totfact>
</mgrwt>
</event>
<event>
 4    1  0.2489209E-004  0.2537676E+03  0.7818608E-02  0.1110947E+00
         -2   -1    0    0    0  501 -0.00000000000E+00  0.00000000000E+00  0.12440191309E+02  0.12440191570E+02  0.25500000000E-02 0. -1.
          2   -1    0    0  501    0  0.00000000000E+00 -0.00000000000E+00 -0.12941523763E+04  0.12941523763E+04  0.25500000000E-02 0.  1.
    5000001    1    1    2    0    0  0.59760329169E+02  0.65975653871E+02 -0.88488955170E+03  0.89268281184E+03  0.77000000000E+02 0.  0.
   -5000001    1    1    2    0    0 -0.59760329169E+02 -0.65975653871E+02 -0.39682263326E+03  0.41390975600E+03  0.77000000000E+02 0.  0.
<mgrwt>
<rscale>  0 0.25376764E+03</rscale>
<asrwt>0</asrwt>
<pdfrwt beam="1">  1        2 0.19910026E+00 0.25376764E+03</pdfrwt>
<pdfrwt beam="2">  1       -2 0.19138766E-02 0.25376764E+03</pdfrwt>
<totfact> 0.14525544E+04</totfact>
</mgrwt>
</event>
<event>
 4    1  0.2489209E-004  0.3283768E+03  0.7818608E-02  0.1071857E+00
         -2   -1    0    0    0  501 -0.00000000000E+00  0.00000000000E+00  0.95050513079E+02  0.95050513114E+02  0.25500000000E-02 0. -1.
          2   -1    0    0  501    0  0.00000000000E+00 -0.00000000000E+00 -0.28361587114E+03  0.28361587115E+03  0.25500000000E-02 0.  1.
    5000001    1    1    2    0    0 -0.13377389208E+03  0.30032622898E+02 -0.14875489710E+03  0.21645884609E+03  0.77000000000E+02 0.  0.
   -5000001    1    1    2    0    0  0.13377389208E+03 -0.30032622898E+02 -0.39810460965E+02  0.16220753818E+03  0.77000000000E+02 0.  0.
<mgrwt>
<rscale>  0 0.32837682E+03</rscale>
<asrwt>0</asrwt>
<pdfrwt beam="1">  1        2 0.43633211E-01 0.32837682E+03</pdfrwt>
<pdfrwt beam="2">  1       -2 0.14623156E-01 0.32837682E+03</pdfrwt>
<totfact> 0.41564524E+03</totfact>
</mgrwt>
</event>
<event>
 4    1  0.2489209E-004  0.1675234E+03  0.7818608E-02  0.1180455E+00
         -2   -1    0    0    0  501 -0.00000000000E+00  0.00000000000E+00  0.18801082282E+03  0.18801082284E+03  0.25500000000E-02 0. -1.
          2   -1    0    0  501    0  0.00000000000E+00 -0.00000000000E+00 -0.37317111668E+02  0.37317111755E+02  0.25500000000E-02 0.  1.
    5000001    1    1    2    0    0  0.30319096370E+02  0.63088394111E+01  0.60130985866E+02  0.10248797257E+03  0.77000000000E+02 0.  0.
   -5000001    1    1    2    0    0 -0.30319096370E+02 -0.63088394111E+01  0.90562725285E+02  0.12283996203E+03  0.77000000000E+02 0.  0.
<mgrwt>
<rscale>  0 0.16752338E+03</rscale>
<asrwt>0</asrwt>
<pdfrwt beam="1">  1        2 0.57410940E-02 0.16752338E+03</pdfrwt>
<pdfrwt beam="2">  1       -2 0.28924743E-01 0.16752338E+03</pdfrwt>
<totfact> 0.13604666E+04</totfact>
</mgrwt>
</event>
<event>
 4    1  0.2489209E-004  0.1639929E+03  0.7818608E-02  0.1184261E+00
         -2   -1    0    0    0  501 -0.00000000000E+00  0.00000000000E+00  0.17120408328E+03  0.17120408330E+03  0.25500000000E-02 0. -1.
          2   -1    0    0  501    0  0.00000000000E+00 -0.00000000000E+00 -0.39271376478E+02  0.39271376561E+02  0.25500000000E-02 0.  1.
    5000001    1    1    2    0    0 -0.26901298457E+02  0.70495829288E+01  0.71853919086E+02  0.10892824320E+03  0.77000000000E+02 0.  0.
   -5000001    1    1    2    0    0  0.26901298457E+02 -0.70495829288E+01  0.60078787713E+02  0.10154721666E+03  0.77000000000E+02 0.  0.
<mgrwt>
<rscale>  0 0.16399293E+03</rscale>
<asrwt>0</asrwt>
<pdfrwt beam="1">  1        2 0.60417503E-02 0.16399293E+03</pdfrwt>
<pdfrwt beam="2">  1       -2 0.26339090E-01 0.16399293E+03</pdfrwt>
<totfact> 0.15015745E+04</totfact>
</mgrwt>
</event>
<event>
 4    1  0.2489209E-004  0.2173544E+03  0.7818608E-02  0.1135871E+00
         -2   -1    0    0    0  501 -0.00000000000E+00  0.00000000000E+00  0.51557640431E+01  0.51557646737E+01  0.25500000000E-02 0. -1.
          2   -1    0    0  501    0  0.00000000000E+00 -0.00000000000E+00 -0.22907831879E+04  0.22907831879E+04  0.25500000000E-02 0.  1.
    5000001    1    1    2    0    0  0.58531924964E+02 -0.26443954738E+02 -0.70011108096E+03  0.70725511286E+03  0.77000000000E+02 0.  0.
   -5000001    1    1    2    0    0 -0.58531924964E+02  0.26443954738E+02 -0.15855163429E+04  0.15886838398E+04  0.77000000000E+02 0.  0.
<mgrwt>
<rscale>  0 0.21735444E+03</rscale>
<asrwt>0</asrwt>
<pdfrwt beam="1">  1        2 0.35242737E+00 0.21735444E+03</pdfrwt>
<pdfrwt beam="2">  1       -2 0.79319635E-03 0.21735444E+03</pdfrwt>
<totfact> 0.15455276E+04</totfact>
</mgrwt>
</event>
<event>
 4    1  0.2489209E-004  0.2129172E+03  0.7818608E-02  0.1139276E+00
          2   -1    0    0  501    0  0.00000000000E+00  0.00000000000E+00  0.36916956397E+02  0.36916956485E+02  0.25500000000E-02 0.  1.
         -2   -1    0    0    0  501 -0.00000000000E+00 -0.00000000000E+00 -0.30699815592E+03  0.30699815593E+03  0.25500000000E-02 0. -1.
    5000001    1    1    2    0    0 -0.34535803833E+02 -0.50748055620E+02 -0.69700675897E+02  0.12064522832E+03  0.77000000000E+02 0.  0.
   -5000001    1    1    2    0    0  0.34535803833E+02  0.50748055620E+02 -0.20038052363E+03  0.22326988410E+03  0.77000000000E+02 0.  0.
<mgrwt>
<rscale>  0 0.21291724E+03</rscale>
<asrwt>0</asrwt>
<pdfrwt beam="1">  1        2 0.56795320E-02 0.21291724E+03</pdfrwt>
<pdfrwt beam="2">  1       -2 0.47230484E-01 0.21291724E+03</pdfrwt>
<totfact> 0.55952054E+03</totfact>
</mgrwt>
</event>
<event>
 4    1  0.2489209E-004  0.2992697E+03  0.7818608E-02  0.1085606E+00
          2   -1    0    0  501    0  0.00000000000E+00  0.00000000000E+00  0.26468045902E+03  0.26468045903E+03  0.25500000000E-02 0.  1.
         -2   -1    0    0    0  501 -0.00000000000E+00 -0.00000000000E+00 -0.84594808594E+02  0.84594808632E+02  0.25500000000E-02 0. -1.
    5000001    1    1    2    0    0  0.95669559877E+02  0.71430381842E+02  0.35218957841E+02  0.14637055417E+03  0.77000000000E+02 0.  0.
   -5000001    1    1    2    0    0 -0.95669559877E+02 -0.71430381842E+02  0.14486669258E+03  0.20290471349E+03  0.77000000000E+02 0.  0.
<mgrwt>
<rscale>  0 0.29926973E+03</rscale>
<asrwt>0</asrwt>
<pdfrwt beam="1">  1        2 0.40720070E-01 0.29926973E+03</pdfrwt>
<pdfrwt beam="2">  1       -2 0.13014586E-01 0.29926973E+03</pdfrwt>
<totfact> 0.54101080E+03</totfact>
</mgrwt>
</event>
<event>
 4    1  0.2489209E-004  0.2787633E+03  0.7818608E-02  0.1096366E+00
         -2   -1    0    0    0  501 -0.00000000000E+00  0.00000000000E+00  0.69043957561E+02  0.69043957608E+02  0.25500000000E-02 0. -1.
          2   -1    0    0  501    0  0.00000000000E+00 -0.00000000000E+00 -0.28137509867E+03  0.28137509868E+03  0.25500000000E-02 0.  1.
    5000001    1    1    2    0    0 -0.47395482164E+02  0.90005451491E+02 -0.35603399343E+02  0.13245344492E+03  0.77000000000E+02 0.  0.
   -5000001    1    1    2    0    0  0.47395482164E+02 -0.90005451491E+02 -0.17672774177E+03  0.21796561136E+03  0.77000000000E+02 0.  0.
<mgrwt>
<rscale>  0 0.27876334E+03</rscale>
<asrwt>0</asrwt>
<pdfrwt beam="1">  1        2 0.43288476E-01 0.27876334E+03</pdfrwt>
<pdfrwt beam="2">  1       -2 0.10622147E-01 0.27876334E+03</pdfrwt>
<totfact> 0.70137085E+03</totfact>
</mgrwt>
</event>
<event>
 4    1  0.2489209E-004  0.6610365E+03  0.7818608E-02  0.9786288E-01
          2   -1    0    0  501    0  0.00000000000E+00  0.00000000000E+00  0.23865804474E+03  0.23865804476E+03  0.25500000000E-02 0. -1.
         -2   -1    0    0    0  501 -0.00000000000E+00 -0.00000000000E+00 -0.45773575361E+03  0.45773575362E+03  0.25500000000E-02 0.  1.
    5000001    1    1    2    0    0  0.31833822093E+03 -0.41012795929E+02 -0.12754232745E+03  0.35386059066E+03  0.77000000000E+02 0.  0.
   -5000001    1    1    2    0    0 -0.31833822093E+03  0.41012795929E+02 -0.91535381418E+02  0.34253320771E+03  0.77000000000E+02 0.  0.
<mgrwt>
<rscale>  0 0.66103652E+03</rscale>
<asrwt>0</asrwt>
<pdfrwt beam="1">  1        2 0.36716622E-01 0.66103652E+03</pdfrwt>
<pdfrwt beam="2">  1       -2 0.70420885E-01 0.66103652E+03</pdfrwt>
<totfact> 0.26275320E+02</totfact>
</mgrwt>
</event>
<event>
 4    1  0.2489209E-004  0.1601941E+03  0.7818608E-02  0.1188478E+00
         -2   -1    0    0    0  501 -0.00000000000E+00  0.00000000000E+00  0.18900761998E+03  0.18900762000E+03  0.25500000000E-02 0. -1.
          2   -1    0    0  501    0  0.00000000000E+00 -0.00000000000E+00 -0.33943256220E+02  0.33943256315E+02  0.25500000000E-02 0.  1.
    5000001    1    1    2    0    0 -0.14900628105E+02 -0.33713418391E+01  0.55388865198E+02  0.96074559857E+02  0.77000000000E+02 0.  0.
   -5000001    1    1    2    0    0  0.14900628105E+02  0.33713418391E+01  0.99675498561E+02  0.12687631646E+03  0.77000000000E+02 0.  0.
<mgrwt>
<rscale>  0 0.16019406E+03</rscale>
<asrwt>0</asrwt>
<pdfrwt beam="1">  1        2 0.52220393E-02 0.16019406E+03</pdfrwt>
<pdfrwt beam="2">  1       -2 0.29078096E-01 0.16019406E+03</pdfrwt>
<totfact> 0.15186060E+04</totfact>
</mgrwt>
</event>
<event>
 4    1  0.2489209E-004  0.3091894E+03  0.7818608E-02  0.1080735E+00
          2   -1    0    0  501    0  0.00000000000E+00  0.00000000000E+00  0.27128999212E+03  0.27128999213E+03  0.25500000000E-02 0.  1.
         -2   -1    0    0    0  501 -0.00000000000E+00 -0.00000000000E+00 -0.88095847360E+02  0.88095847397E+02  0.25500000000E-02 0. -1.
    5000001    1    1    2    0    0 -0.11471636366E+02  0.11556191458E+03  0.16943422563E+03  0.21936980503E+03  0.77000000000E+02 0.  0.
   -5000001    1    1    2    0    0  0.11471636366E+02 -0.11556191458E+03  0.13759919130E+02  0.14001603450E+03  0.77000000000E+02 0.  0.
<mgrwt>
<rscale>  0 0.30918940E+03</rscale>
<asrwt>0</asrwt>
<pdfrwt beam="1">  1        2 0.41736922E-01 0.30918940E+03</pdfrwt>
<pdfrwt beam="2">  1       -2 0.13553207E-01 0.30918940E+03</pdfrwt>
<totfact> 0.49344983E+03</totfact>
</mgrwt>
</event>
<event>
 4    1  0.2489209E-004  0.1939204E+03  0.7818608E-02  0.1154972E+00
          2   -1    0    0  501    0  0.00000000000E+00  0.00000000000E+00  0.10678008822E+02  0.10678009126E+02  0.25500000000E-02 0.  1.
         -2   -1    0    0    0  501 -0.00000000000E+00 -0.00000000000E+00 -0.88043425924E+03  0.88043425924E+03  0.25500000000E-02 0. -1.
    5000001    1    1    2    0    0  0.10950748464E+02 -0.52489066170E+02 -0.54718128510E+03  0.55516788427E+03  0.77000000000E+02 0.  0.
   -5000001    1    1    2    0    0 -0.10950748464E+02  0.52489066170E+02 -0.32257496532E+03  0.33594438410E+03  0.77000000000E+02 0.  0.
<mgrwt>
<rscale>  0 0.19392045E+03</rscale>
<asrwt>0</asrwt>
<pdfrwt beam="1">  1        2 0.16427713E-02 0.19392045E+03</pdfrwt>
<pdfrwt beam="2">  1       -2 0.13545137E+00 0.19392045E+03</pdfrwt>
<totfact> 0.28999783E+03</totfact>
</mgrwt>
</event>
<event>
 4    1  0.2489209E-004  0.2110050E+03  0.7818608E-02  0.1140773E+00
          2   -1    0    0  501    0  0.00000000000E+00  0.00000000000E+00  0.19399672133E+04  0.19399672133E+04  0.25500000000E-02 0.  1.
         -2   -1    0    0    0  501 -0.00000000000E+00 -0.00000000000E+00 -0.57376133693E+01  0.57376139360E+01  0.25500000000E-02 0. -1.
    5000001    1    1    2    0    0 -0.22844182686E+02 -0.66213238931E+02  0.11256894547E+04  0.11304918390E+04  0.77000000000E+02 0.  0.
   -5000001    1    1    2    0    0  0.22844182686E+02  0.66213238931E+02  0.80854014530E+03  0.81521298828E+03  0.77000000000E+02 0.  0.
<mgrwt>
<rscale>  0 0.21100505E+03</rscale>
<asrwt>0</asrwt>
<pdfrwt beam="1">  1        2 0.29845673E+00 0.21100505E+03</pdfrwt>
<pdfrwt beam="2">  1       -2 0.88270908E-03 0.21100505E+03</pdfrwt>
<totfact> 0.20224131E+04</totfact>
</mgrwt>
</event>
<event>
 4    1  0.2489209E-004  0.2143646E+03  0.7818608E-02  0.1138156E+00
         -2   -1    0    0    0  501 -0.00000000000E+00  0.00000000000E+00  0.66880269475E+02  0.66880269524E+02  0.25500000000E-02 0. -1.
          2   -1    0    0  501    0  0.00000000000E+00 -0.00000000000E+00 -0.17177039073E+03  0.17177039075E+03  0.25500000000E-02 0.  1.
    5000001    1    1    2    0    0 -0.16217645208E+02  0.52381473998E+02  0.37979384459E+01  0.94605788252E+02  0.77000000000E+02 0.  0.
   -5000001    1    1    2    0    0  0.16217645208E+02 -0.52381473998E+02 -0.10868805970E+03  0.14404487202E+03  0.77000000000E+02 0.  0.
<mgrwt>
<rscale>  0 0.21436464E+03</rscale>
<asrwt>0</asrwt>
<pdfrwt beam="1">  1        2 0.26426214E-01 0.21436464E+03</pdfrwt>
<pdfrwt beam="2">  1       -2 0.10289272E-01 0.21436464E+03</pdfrwt>
<totfact> 0.12458048E+04</totfact>
</mgrwt>
</event>
<event>
 4    1  0.2489209E-004  0.3473795E+03  0.7818608E-02  0.1063696E+00
          2   -1    0    0  501    0  0.00000000000E+00  0.00000000000E+00  0.38740986735E+03  0.38740986736E+03  0.25500000000E-02 0.  1.
         -2   -1    0    0    0  501 -0.00000000000E+00 -0.00000000000E+00 -0.77871331593E+02  0.77871331635E+02  0.25500000000E-02 0. -1.
    5000001    1    1    2    0    0 -0.51897152055E+02 -0.12953922968E+03  0.24723075179E+03  0.29415263223E+03  0.77000000000E+02 0.  0.
   -5000001    1    1    2    0    0  0.51897152055E+02  0.12953922968E+03  0.62307783967E+02  0.17112856676E+03  0.77000000000E+02 0.  0.
<mgrwt>
<rscale>  0 0.34737946E+03</rscale>
<asrwt>0</asrwt>
<pdfrwt beam="1">  1        2 0.59601519E-01 0.34737946E+03</pdfrwt>
<pdfrwt beam="2">  1       -2 0.11980205E-01 0.34737946E+03</pdfrwt>
<totfact> 0.41124358E+03</totfact>
</mgrwt>
</event>
<event>
 4    1  0.2489209E-004  0.3002367E+03  0.7818608E-02  0.1085122E+00
         -2   -1    0    0    0  501 -0.00000000000E+00  0.00000000000E+00  0.11510332437E+03  0.11510332440E+03  0.25500000000E-02 0. -1.
          2   -1    0    0  501    0  0.00000000000E+00 -0.00000000000E+00 -0.19578508900E+03  0.19578508902E+03  0.25500000000E-02 0.  1.
    5000001    1    1    2    0    0 -0.92651933891E+02  0.56972428584E+02  0.31221619451E+02  0.13687230543E+03  0.77000000000E+02 0.  0.
   -5000001    1    1    2    0    0  0.92651933891E+02 -0.56972428584E+02 -0.11190338408E+03  0.17401610799E+03  0.77000000000E+02 0.  0.
<mgrwt>
<rscale>  0 0.30023667E+03</rscale>
<asrwt>0</asrwt>
<pdfrwt beam="1">  1        2 0.30120783E-01 0.30023667E+03</pdfrwt>
<pdfrwt beam="2">  1       -2 0.17708204E-01 0.30023667E+03</pdfrwt>
<totfact> 0.45093670E+03</totfact>
</mgrwt>
</event>
<event>
 4    1  0.2489209E-004  0.1835300E+03  0.7818608E-02  0.1164430E+00
         -2   -1    0    0    0  501 -0.00000000000E+00  0.00000000000E+00  0.69007413519E+01  0.69007418230E+01  0.25500000000E-02 0. -1.
          2   -1    0    0  501    0  0.00000000000E+00 -0.00000000000E+00 -0.12202774338E+04  0.12202774338E+04  0.25500000000E-02 0.  1.
    5000001    1    1    2    0    0 -0.29953019261E+02 -0.39593287777E+02 -0.57193935841E+03  0.57923090517E+03  0.77000000000E+02 0.  0.
   -5000001    1    1    2    0    0  0.29953019261E+02  0.39593287777E+02 -0.64143733405E+03  0.64794727047E+03  0.77000000000E+02 0.  0.
<mgrwt>
<rscale>  0 0.18353004E+03</rscale>
<asrwt>0</asrwt>
<pdfrwt beam="1">  1        2 0.18773482E+00 0.18353004E+03</pdfrwt>
<pdfrwt beam="2">  1       -2 0.10616535E-02 0.18353004E+03</pdfrwt>
<totfact> 0.36969637E+04</totfact>
</mgrwt>
</event>
<event>
 4    1  0.2489209E-004  0.1980992E+03  0.7818608E-02  0.1151353E+00
         -2   -1    0    0    0  501 -0.00000000000E+00  0.00000000000E+00  0.22344460373E+02  0.22344460519E+02  0.25500000000E-02 0. -1.
          2   -1    0    0  501    0  0.00000000000E+00 -0.00000000000E+00 -0.43907202043E+03  0.43907202044E+03  0.25500000000E-02 0.  1.
    5000001    1    1    2    0    0 -0.38317172882E+02  0.17875364461E+02 -0.31495177001E+03  0.32697301391E+03  0.77000000000E+02 0.  0.
   -5000001    1    1    2    0    0  0.38317172882E+02 -0.17875364461E+02 -0.10177579005E+03  0.13444346705E+03  0.77000000000E+02 0.  0.
<mgrwt>
<rscale>  0 0.19809924E+03</rscale>
<asrwt>0</asrwt>
<pdfrwt beam="1">  1        2 0.67549535E-01 0.19809924E+03</pdfrwt>
<pdfrwt beam="2">  1       -2 0.34376096E-02 0.19809924E+03</pdfrwt>
<totfact> 0.24070566E+04</totfact>
</mgrwt>
</event>
<event>
 4    1  0.2489209E-004  0.4638275E+03  0.7818608E-02  0.1023677E+00
         -2   -1    0    0    0  501 -0.00000000000E+00  0.00000000000E+00  0.32305671825E+02  0.32305671926E+02  0.25500000000E-02 0. -1.
          2   -1    0    0  501    0  0.00000000000E+00 -0.00000000000E+00 -0.16648468293E+04  0.16648468293E+04  0.25500000000E-02 0.  1.
    5000001    1    1    2    0    0  0.28630760933E+00 -0.16737549948E+03 -0.13316642344E+04  0.13443486426E+04  0.77000000000E+02 0.  0.
   -5000001    1    1    2    0    0 -0.28630760933E+00  0.16737549948E+03 -0.30087692312E+03  0.35280385863E+03  0.77000000000E+02 0.  0.
<mgrwt>
<rscale>  0 0.46382753E+03</rscale>
<asrwt>0</asrwt>
<pdfrwt beam="1">  1        2 0.25613021E+00 0.46382753E+03</pdfrwt>
<pdfrwt beam="2">  1       -2 0.49701047E-02 0.46382753E+03</pdfrwt>
<totfact> 0.21898598E+03</totfact>
</mgrwt>
</event>
<event>
 4    1  0.2489209E-004  0.1785959E+03  0.7818608E-02  0.1169169E+00
         -2   -1    0    0    0  501 -0.00000000000E+00  0.00000000000E+00  0.29433581863E+02  0.29433581974E+02  0.25500000000E-02 0. -1.
          2   -1    0    0  501    0  0.00000000000E+00 -0.00000000000E+00 -0.27091925468E+03  0.27091925470E+03  0.25500000000E-02 0.  1.
    5000001    1    1    2    0    0 -0.19511621865E+02 -0.32730820281E+02 -0.16169995262E+03  0.18310621142E+03  0.77000000000E+02 0.  0.
   -5000001    1    1    2    0    0  0.19511621865E+02  0.32730820281E+02 -0.79785720203E+02  0.11724662525E+03  0.77000000000E+02 0.  0.
<mgrwt>
<rscale>  0 0.17859590E+03</rscale>
<asrwt>0</asrwt>
<pdfrwt beam="1">  1        2 0.41679884E-01 0.17859590E+03</pdfrwt>
<pdfrwt beam="2">  1       -2 0.45282436E-02 0.17859590E+03</pdfrwt>
<totfact> 0.26542594E+04</totfact>
</mgrwt>
</event>
<event>
 4    1  0.2489209E-004  0.3781929E+03  0.7818608E-02  0.1051604E+00
          2   -1    0    0  501    0  0.00000000000E+00  0.00000000000E+00  0.54599088880E+02  0.54599088940E+02  0.25500000000E-02 0.  1.
         -2   -1    0    0    0  501 -0.00000000000E+00 -0.00000000000E+00 -0.65490968723E+03  0.65490968724E+03  0.25500000000E-02 0. -1.
    5000001    1    1    2    0    0 -0.36762812172E+02  0.16523345103E+03 -0.23585098383E+03  0.30034693984E+03  0.77000000000E+02 0.  0.
   -5000001    1    1    2    0    0  0.36762812172E+02 -0.16523345103E+03 -0.36445961452E+03  0.40916183634E+03  0.77000000000E+02 0.  0.
<mgrwt>
<rscale>  0 0.37819293E+03</rscale>
<asrwt>0</asrwt>
<pdfrwt beam="1">  1        2 0.83998603E-02 0.37819293E+03</pdfrwt>
<pdfrwt beam="2">  1       -2 0.10075533E+00 0.37819293E+03</pdfrwt>
<totfact> 0.67724435E+02</totfact>
</mgrwt>
</event>
<event>
 4    1  0.2489209E-004  0.3373196E+03  0.7818608E-02  0.1067943E+00
         -2   -1    0    0    0  501 -0.00000000000E+00  0.00000000000E+00  0.16606987816E+02  0.16606988012E+02  0.25500000000E-02 0. -1.
          2   -1    0    0  501    0  0.00000000000E+00 -0.00000000000E+00 -0.17129015874E+04  0.17129015874E+04  0.25500000000E-02 0.  1.
    5000001    1    1    2    0    0 -0.10262379176E+03  0.69997899117E+02 -0.12797410465E+04  0.12880595851E+04  0.77000000000E+02 0.  0.
   -5000001    1    1    2    0    0  0.10262379176E+03 -0.69997899117E+02 -0.41655355309E+03  0.44144899038E+03  0.77000000000E+02 0.  0.
<mgrwt>
<rscale>  0 0.33731965E+03</rscale>
<asrwt>0</asrwt>
<pdfrwt beam="1">  1        2 0.26352318E+00 0.33731965E+03</pdfrwt>
<pdfrwt beam="2">  1       -2 0.25549226E-02 0.33731965E+03</pdfrwt>
<totfact> 0.56667318E+03</totfact>
</mgrwt>
</event>
<event>
 4    1  0.2489209E-004  0.2049992E+03  0.7818608E-02  0.1145588E+00
          2   -1    0    0  501    0  0.00000000000E+00  0.00000000000E+00  0.82634084372E+03  0.82634084373E+03  0.25500000000E-02 0.  1.
         -2   -1    0    0    0  501 -0.00000000000E+00 -0.00000000000E+00 -0.12714080907E+02  0.12714081163E+02  0.25500000000E-02 0. -1.
    5000001    1    1    2    0    0 -0.46374357072E+02 -0.46684442714E+02  0.34246830425E+03  0.35713240906E+03  0.77000000000E+02 0.  0.
   -5000001    1    1    2    0    0  0.46374357072E+02  0.46684442714E+02  0.47115845857E+03  0.48192251583E+03  0.77000000000E+02 0.  0.
<mgrwt>
<rscale>  0 0.20499917E+03</rscale>
<asrwt>0</asrwt>
<pdfrwt beam="1">  1        2 0.12712933E+00 0.20499917E+03</pdfrwt>
<pdfrwt beam="2">  1       -2 0.19560130E-02 0.20499917E+03</pdfrwt>
<totfact> 0.26545968E+04</totfact>
</mgrwt>
</event>
<event>
 4    1  0.2489209E-004  0.3522764E+03  0.7818608E-02  0.1061685E+00
         -2   -1    0    0    0  501 -0.00000000000E+00  0.00000000000E+00  0.45862243196E+03  0.45862243197E+03  0.25500000000E-02 0. -1.
          2   -1    0    0  501    0  0.00000000000E+00 -0.00000000000E+00 -0.67647516633E+02  0.67647516681E+02  0.25500000000E-02 0.  1.
    5000001    1    1    2    0    0 -0.10133210844E+03 -0.99787591613E+02  0.91235211299E+02  0.18568420348E+03  0.77000000000E+02 0.  0.
   -5000001    1    1    2    0    0  0.10133210844E+03  0.99787591613E+02  0.29973970403E+03  0.34058574517E+03  0.77000000000E+02 0.  0.
<mgrwt>
<rscale>  0 0.35227642E+03</rscale>
<asrwt>0</asrwt>
<pdfrwt beam="1">  1        2 0.10407310E-01 0.35227642E+03</pdfrwt>
<pdfrwt beam="2">  1       -2 0.70557298E-01 0.35227642E+03</pdfrwt>
<totfact> 0.11492547E+03</totfact>
</mgrwt>
</event>
<event>
 4    1  0.2489209E-004  0.3275813E+03  0.7818608E-02  0.1072212E+00
         -2   -1    0    0    0  501 -0.00000000000E+00  0.00000000000E+00  0.80167148113E+03  0.80167148113E+03  0.25500000000E-02 0. -1.
          2   -1    0    0  501    0  0.00000000000E+00 -0.00000000000E+00 -0.33464295793E+02  0.33464295890E+02  0.25500000000E-02 0.  1.
    5000001    1    1    2    0    0  0.22223139442E+02  0.76898918306E+02  0.77209796709E+02  0.13526885921E+03  0.77000000000E+02 0.  0.
   -5000001    1    1    2    0    0 -0.22223139442E+02 -0.76898918306E+02  0.69099738862E+03  0.69986691781E+03  0.77000000000E+02 0.  0.
<mgrwt>
<rscale>  0 0.32758127E+03</rscale>
<asrwt>0</asrwt>
<pdfrwt beam="1">  1        2 0.51483529E-02 0.32758127E+03</pdfrwt>
<pdfrwt beam="2">  1       -2 0.12333408E+00 0.32758127E+03</pdfrwt>
<totfact> 0.78862245E+02</totfact>
</mgrwt>
</event>
<event>
 4    1  0.2489209E-004  0.1800507E+03  0.7818608E-02  0.1167754E+00
         -2   -1    0    0    0  501 -0.00000000000E+00  0.00000000000E+00  0.57868460210E+01  0.57868465828E+01  0.25500000000E-02 0. -1.
          2   -1    0    0  501    0  0.00000000000E+00 -0.00000000000E+00 -0.14005144492E+04  0.14005144492E+04  0.25500000000E-02 0.  1.
    5000001    1    1    2    0    0 -0.22753899013E+02  0.39136613113E+02 -0.78508869776E+03  0.79015357858E+03  0.77000000000E+02 0.  0.
   -5000001    1    1    2    0    0  0.22753899013E+02 -0.39136613113E+02 -0.60963890547E+03  0.61614771725E+03  0.77000000000E+02 0.  0.
<mgrwt>
<rscale>  0 0.18005068E+03</rscale>
<asrwt>0</asrwt>
<pdfrwt beam="1">  1        2 0.21546349E+00 0.18005068E+03</pdfrwt>
<pdfrwt beam="2">  1       -2 0.89028516E-03 0.18005068E+03</pdfrwt>
<totfact> 0.37936413E+04</totfact>
</mgrwt>
</event>
<event>
 4    1  0.2489209E-004  0.2046069E+03  0.7818608E-02  0.1145909E+00
         -2   -1    0    0    0  501 -0.00000000000E+00  0.00000000000E+00  0.80966772271E+02  0.80966772311E+02  0.25500000000E-02 0. -1.
          2   -1    0    0  501    0  0.00000000000E+00 -0.00000000000E+00 -0.12926289786E+03  0.12926289789E+03  0.25500000000E-02 0.  1.
    5000001    1    1    2    0    0  0.82748073015E+01 -0.63842544374E+02 -0.37879504774E+01  0.10043750035E+03  0.77000000000E+02 0.  0.
   -5000001    1    1    2    0    0 -0.82748073015E+01  0.63842544374E+02 -0.44508175116E+02  0.10979216985E+03  0.77000000000E+02 0.  0.
<mgrwt>
<rscale>  0 0.20460694E+03</rscale>
<asrwt>0</asrwt>
<pdfrwt beam="1">  1        2 0.19886600E-01 0.20460694E+03</pdfrwt>
<pdfrwt beam="2">  1       -2 0.12456427E-01 0.20460694E+03</pdfrwt>
<totfact> 0.12588844E+04</totfact>
</mgrwt>
</event>
<event>
 4    1  0.2489209E-004  0.2043124E+03  0.7818608E-02  0.1146151E+00
         -2   -1    0    0    0  501 -0.00000000000E+00  0.00000000000E+00  0.46180708597E+01  0.46180715637E+01  0.25500000000E-02 0. -1.
          2   -1    0    0  501    0  0.00000000000E+00 -0.00000000000E+00 -0.22597937203E+04  0.22597937203E+04  0.25500000000E-02 0.  1.
    5000001    1    1    2    0    0  0.55207312548E+02  0.28114939164E+02 -0.84101103258E+03  0.84679800076E+03  0.77000000000E+02 0.  0.
   -5000001    1    1    2    0    0 -0.55207312548E+02 -0.28114939164E+02 -0.14141646168E+04  0.14176137911E+04  0.77000000000E+02 0.  0.
<mgrwt>
<rscale>  0 0.20431239E+03</rscale>
<asrwt>0</asrwt>
<pdfrwt beam="1">  1        2 0.34765969E+00 0.20431239E+03</pdfrwt>
<pdfrwt beam="2">  1       -2 0.71047430E-03 0.20431239E+03</pdfrwt>
<totfact> 0.18773734E+04</totfact>
</mgrwt>
</event>
<event>
 4    1  0.2489209E-004  0.2455388E+03  0.7818608E-02  0.1116157E+00
          2   -1    0    0  501    0  0.00000000000E+00  0.00000000000E+00  0.48518927219E+03  0.48518927220E+03  0.25500000000E-02 0.  1.
         -2   -1    0    0    0  501 -0.00000000000E+00 -0.00000000000E+00 -0.31064828267E+02  0.31064828372E+02  0.25500000000E-02 0. -1.
    5000001    1    1    2    0    0  0.11571953946E+02 -0.74334881512E+02  0.10296384323E+03  0.14896354500E+03  0.77000000000E+02 0.  0.
   -5000001    1    1    2    0    0 -0.11571953946E+02  0.74334881512E+02  0.35116060070E+03  0.36729055557E+03  0.77000000000E+02 0.  0.
<mgrwt>
<rscale>  0 0.24553877E+03</rscale>
<asrwt>0</asrwt>
<pdfrwt beam="1">  1        2 0.74644500E-01 0.24553877E+03</pdfrwt>
<pdfrwt beam="2">  1       -2 0.47792046E-02 0.24553877E+03</pdfrwt>
<totfact> 0.13334269E+04</totfact>
</mgrwt>
</event>
<event>
 4    1  0.2489209E-004  0.4701728E+03  0.7818608E-02  0.1021871E+00
         -2   -1    0    0    0  501 -0.00000000000E+00  0.00000000000E+00  0.11702973947E+02  0.11702974225E+02  0.25500000000E-02 0. -1.
          2   -1    0    0  501    0  0.00000000000E+00 -0.00000000000E+00 -0.47223571624E+04  0.47223571624E+04  0.25500000000E-02 0.  1.
    5000001    1    1    2    0    0 -0.17827889662E+03 -0.97211914613E+02 -0.32616895249E+04  0.32689112986E+04  0.77000000000E+02 0.  0.
   -5000001    1    1    2    0    0  0.17827889662E+03  0.97211914613E+02 -0.14489646635E+04  0.14651488380E+04  0.77000000000E+02 0.  0.
<mgrwt>
<rscale>  0 0.47017283E+03</rscale>
<asrwt>0</asrwt>
<pdfrwt beam="1">  1        2 0.72651497E+00 0.47017283E+03</pdfrwt>
<pdfrwt beam="2">  1       -2 0.18004613E-02 0.47017283E+03</pdfrwt>
<totfact> 0.86781923E+01</totfact>
</mgrwt>
</event>
<event>
 4    1  0.2489209E-004  0.3696598E+03  0.7818608E-02  0.1054823E+00
         -2   -1    0    0    0  501 -0.00000000000E+00  0.00000000000E+00  0.19529172668E+03  0.19529172669E+03  0.25500000000E-02 0. -1.
          2   -1    0    0  501    0  0.00000000000E+00 -0.00000000000E+00 -0.17492853115E+03  0.17492853116E+03  0.25500000000E-02 0.  1.
    5000001    1    1    2    0    0 -0.12101902673E+03  0.96206440877E+02 -0.55734680108E+02  0.18148454112E+03  0.77000000000E+02 0.  0.
   -5000001    1    1    2    0    0  0.12101902673E+03 -0.96206440877E+02  0.76097875638E+02  0.18873571674E+03  0.77000000000E+02 0.  0.
<mgrwt>
<rscale>  0 0.36965982E+03</rscale>
<asrwt>0</asrwt>
<pdfrwt beam="1">  1        2 0.26912082E-01 0.36965982E+03</pdfrwt>
<pdfrwt beam="2">  1       -2 0.30044881E-01 0.36965982E+03</pdfrwt>
<totfact> 0.20305518E+03</totfact>
</mgrwt>
</event>
<event>
 4    1  0.2489209E-004  0.5720539E+03  0.7818608E-02  0.9965144E-01
          2   -1    0    0  501    0  0.00000000000E+00  0.00000000000E+00  0.21106492952E+04  0.21106492952E+04  0.25500000000E-02 0.  1.
         -2   -1    0    0    0  501 -0.00000000000E+00 -0.00000000000E+00 -0.38761260035E+02  0.38761260119E+02  0.25500000000E-02 0. -1.
    5000001    1    1    2    0    0 -0.24874501867E+03 -0.11407255435E+03  0.11545119418E+04  0.11889968275E+04  0.77000000000E+02 0.  0.
   -5000001    1    1    2    0    0  0.24874501867E+03  0.11407255435E+03  0.91737609331E+03  0.96041372779E+03  0.77000000000E+02 0.  0.
<mgrwt>
<rscale>  0 0.57205394E+03</rscale>
<asrwt>0</asrwt>
<pdfrwt beam="1">  1        2 0.32471522E+00 0.57205394E+03</pdfrwt>
<pdfrwt beam="2">  1       -2 0.59632718E-02 0.57205394E+03</pdfrwt>
<totfact> 0.94344973E+02</totfact>
</mgrwt>
</event>
<event>
 4    1  0.2489209E-004  0.2196260E+03  0.7818608E-02  0.1134162E+00
          2   -1    0    0  501    0  0.00000000000E+00  0.00000000000E+00  0.10180562405E+03  0.10180562408E+03  0.25500000000E-02 0.  1.
         -2   -1    0    0    0  501 -0.00000000000E+00 -0.00000000000E+00 -0.11845013540E+03  0.11845013543E+03  0.25500000000E-02 0. -1.
    5000001    1    1    2    0    0 -0.68463438175E+02  0.72736430549E+01 -0.45708398259E+02  0.11295311382E+03  0.77000000000E+02 0.  0.
   -5000001    1    1    2    0    0  0.68463438175E+02 -0.72736430549E+01  0.29063886906E+02  0.10730264569E+03  0.77000000000E+02 0.  0.
<mgrwt>
<rscale>  0 0.21962595E+03</rscale>
<asrwt>0</asrwt>
<pdfrwt beam="1">  1        2 0.15662404E-01 0.21962595E+03</pdfrwt>
<pdfrwt beam="2">  1       -2 0.18223098E-01 0.21962595E+03</pdfrwt>
<totfact> 0.89073422E+03</totfact>
</mgrwt>
</event>
<event>
 4    1  0.2489209E-004  0.3085513E+03  0.7818608E-02  0.1081042E+00
         -2   -1    0    0    0  501 -0.00000000000E+00  0.00000000000E+00  0.18097209877E+02  0.18097210057E+02  0.25500000000E-02 0. -1.
          2   -1    0    0  501    0  0.00000000000E+00 -0.00000000000E+00 -0.13151738857E+04  0.13151738858E+04  0.25500000000E-02 0.  1.
    5000001    1    1    2    0    0  0.10200511345E+03 -0.85990562924E+02 -0.61173109017E+03  0.63082750952E+03  0.77000000000E+02 0.  0.
   -5000001    1    1    2    0    0 -0.10200511345E+03  0.85990562924E+02 -0.68534558570E+03  0.70244358629E+03  0.77000000000E+02 0.  0.
<mgrwt>
<rscale>  0 0.30855131E+03</rscale>
<asrwt>0</asrwt>
<pdfrwt beam="1">  1        2 0.20233437E+00 0.30855131E+03</pdfrwt>
<pdfrwt beam="2">  1       -2 0.27841872E-02 0.30855131E+03</pdfrwt>
<totfact> 0.81656062E+03</totfact>
</mgrwt>
</event>
<event>
 4    1  0.2489209E-004  0.2718101E+03  0.7818608E-02  0.1100248E+00
          2   -1    0    0  501    0  0.00000000000E+00  0.00000000000E+00  0.21824150189E+04  0.21824150189E+04  0.25500000000E-02 0.  1.
         -2   -1    0    0    0  501 -0.00000000000E+00 -0.00000000000E+00 -0.84631863425E+01  0.84631867266E+01  0.25500000000E-02 0. -1.
    5000001    1    1    2    0    0 -0.95557801810E+02  0.30991961422E+02  0.14858920524E+04  0.14912732770E+04  0.77000000000E+02 0.  0.
   -5000001    1    1    2    0    0  0.95557801810E+02 -0.30991961422E+02  0.68805978011E+03  0.69960492863E+03  0.77000000000E+02 0.  0.
<mgrwt>
<rscale>  0 0.27181012E+03</rscale>
<asrwt>0</asrwt>
<pdfrwt beam="1">  1        2 0.33575568E+00 0.27181012E+03</pdfrwt>
<pdfrwt beam="2">  1       -2 0.13020305E-02 0.27181012E+03</pdfrwt>
<totfact> 0.86332507E+03</totfact>
</mgrwt>
</event>
<event>
 4    1  0.2489209E-004  0.1983307E+03  0.7818608E-02  0.1151155E+00
          2   -1    0    0  501    0  0.00000000000E+00  0.00000000000E+00  0.14177087763E+03  0.14177087766E+03  0.25500000000E-02 0.  1.
         -2   -1    0    0    0  501 -0.00000000000E+00 -0.00000000000E+00 -0.69363822441E+02  0.69363822488E+02  0.25500000000E-02 0. -1.
    5000001    1    1    2    0    0  0.15530321654E+01  0.47642316532E+02 -0.68100142194E+01  0.90816179875E+02  0.77000000000E+02 0.  0.
   -5000001    1    1    2    0    0 -0.15530321654E+01 -0.47642316532E+02  0.79217069411E+02  0.12031852027E+03  0.77000000000E+02 0.  0.
<mgrwt>
<rscale>  0 0.19833073E+03</rscale>
<asrwt>0</asrwt>
<pdfrwt beam="1">  1        2 0.21810904E-01 0.19833073E+03</pdfrwt>
<pdfrwt beam="2">  1       -2 0.10671357E-01 0.19833073E+03</pdfrwt>
<totfact> 0.14493316E+04</totfact>
</mgrwt>
</event>
<event>
 4    1  0.2489209E-004  0.3056176E+03  0.7818608E-02  0.1082466E+00
          2   -1    0    0  501    0  0.00000000000E+00  0.00000000000E+00  0.38213175352E+03  0.38213175353E+03  0.25500000000E-02 0.  1.
         -2   -1    0    0    0  501 -0.00000000000E+00 -0.00000000000E+00 -0.61105950320E+02  0.61105950373E+02  0.25500000000E-02 0. -1.
    5000001    1    1    2    0    0 -0.11768869568E+03 -0.47434765087E+02  0.21322170437E+03  0.25979449810E+03  0.77000000000E+02 0.  0.
   -5000001    1    1    2    0    0  0.11768869568E+03  0.47434765087E+02  0.10780409883E+03  0.18344320580E+03  0.77000000000E+02 0.  0.
<mgrwt>
<rscale>  0 0.30561756E+03</rscale>
<asrwt>0</asrwt>
<pdfrwt beam="1">  1        2 0.58789499E-01 0.30561756E+03</pdfrwt>
<pdfrwt beam="2">  1       -2 0.94009157E-02 0.30561756E+03</pdfrwt>
<totfact> 0.61389617E+03</totfact>
</mgrwt>
</event>
<event>
 4    1  0.2489209E-004  0.1995633E+03  0.7818608E-02  0.1150108E+00
          2   -1    0    0  501    0  0.00000000000E+00  0.00000000000E+00  0.80695588920E+02  0.80695588960E+02  0.25500000000E-02 0.  1.
         -2   -1    0    0    0  501 -0.00000000000E+00 -0.00000000000E+00 -0.12338187508E+03  0.12338187511E+03  0.25500000000E-02 0. -1.
    5000001    1    1    2    0    0  0.45601575056E+02  0.41005041879E+02 -0.46504195269E+01  0.98547163881E+02  0.77000000000E+02 0.  0.
   -5000001    1    1    2    0    0 -0.45601575056E+02 -0.41005041879E+02 -0.38035866635E+02  0.10553030019E+03  0.77000000000E+02 0.  0.
<mgrwt>
<rscale>  0 0.19956325E+03</rscale>
<asrwt>0</asrwt>
<pdfrwt beam="1">  1        2 0.12414706E-01 0.19956325E+03</pdfrwt>
<pdfrwt beam="2">  1       -2 0.18981827E-01 0.19956325E+03</pdfrwt>
<totfact> 0.10900350E+04</totfact>
</mgrwt>
</event>
<event>
 4    1  0.2489209E-004  0.2267138E+03  0.7818608E-02  0.1128974E+00
          2   -1    0    0  501    0  0.00000000000E+00  0.00000000000E+00  0.34209403334E+03  0.34209403335E+03  0.25500000000E-02 0.  1.
         -2   -1    0    0    0  501 -0.00000000000E+00 -0.00000000000E+00 -0.37562146870E+02  0.37562146957E+02  0.25500000000E-02 0. -1.
    5000001    1    1    2    0    0 -0.59052209865E+02 -0.57847016565E+02  0.13661527596E+03  0.17727429154E+03  0.77000000000E+02 0.  0.
   -5000001    1    1    2    0    0  0.59052209865E+02  0.57847016565E+02  0.16791661051E+03  0.20238188877E+03  0.77000000000E+02 0.  0.
<mgrwt>
<rscale>  0 0.22671380E+03</rscale>
<asrwt>0</asrwt>
<pdfrwt beam="1">  1        2 0.52629851E-01 0.22671380E+03</pdfrwt>
<pdfrwt beam="2">  1       -2 0.57787918E-02 0.22671380E+03</pdfrwt>
<totfact> 0.14548336E+04</totfact>
</mgrwt>
</event>
<event>
 4    1  0.2489209E-004  0.2420027E+03  0.7818608E-02  0.1118466E+00
          2   -1    0    0  501    0  0.00000000000E+00  0.00000000000E+00  0.25364731046E+04  0.25364731046E+04  0.25500000000E-02 0.  1.
         -2   -1    0    0    0  501 -0.00000000000E+00 -0.00000000000E+00 -0.57723155205E+01  0.57723160837E+01  0.25500000000E-02 0. -1.
    5000001    1    1    2    0    0 -0.35488301725E+02 -0.84619245250E+02  0.10856905557E+04  0.10922787276E+04  0.77000000000E+02 0.  0.
   -5000001    1    1    2    0    0  0.35488301725E+02  0.84619245250E+02  0.14450102335E+04  0.14499666931E+04  0.77000000000E+02 0.  0.
<mgrwt>
<rscale>  0 0.24200268E+03</rscale>
<asrwt>0</asrwt>
<pdfrwt beam="1">  1        2 0.39022612E+00 0.24200268E+03</pdfrwt>
<pdfrwt beam="2">  1       -2 0.88804975E-03 0.24200268E+03</pdfrwt>
<totfact> 0.96932327E+03</totfact>
</mgrwt>
</event>
<event>
 4    1  0.2489209E-004  0.4407530E+03  0.7818608E-02  0.1030516E+00
          2   -1    0    0  501    0  0.00000000000E+00  0.00000000000E+00  0.82610672171E+03  0.82610672171E+03  0.25500000000E-02 0.  1.
         -2   -1    0    0    0  501 -0.00000000000E+00 -0.00000000000E+00 -0.58788762499E+02  0.58788762554E+02  0.25500000000E-02 0. -1.
    5000001    1    1    2    0    0 -0.11294332438E+03  0.42881242854E+02  0.47457468101E+02  0.15091788095E+03  0.77000000000E+02 0.  0.
   -5000001    1    1    2    0    0  0.11294332438E+03 -0.42881242854E+02  0.71986049111E+03  0.73397760332E+03  0.77000000000E+02 0.  0.
<mgrwt>
<rscale>  0 0.44075296E+03</rscale>
<asrwt>0</asrwt>
<pdfrwt beam="1">  1        2 0.12709334E+00 0.44075296E+03</pdfrwt>
<pdfrwt beam="2">  1       -2 0.90444253E-02 0.44075296E+03</pdfrwt>
<totfact> 0.26618290E+03</totfact>
</mgrwt>
</event>
<event>
 4    1  0.2489209E-004  0.1984557E+03  0.7818608E-02  0.1151049E+00
         -2   -1    0    0    0  501 -0.00000000000E+00  0.00000000000E+00  0.57006820703E+01  0.57006826406E+01  0.25500000000E-02 0. -1.
          2   -1    0    0  501    0  0.00000000000E+00 -0.00000000000E+00 -0.17271908313E+04  0.17271908313E+04  0.25500000000E-02 0.  1.
    5000001    1    1    2    0    0 -0.54651515550E+02  0.94010670669E+01 -0.60737031592E+03  0.61473804899E+03  0.77000000000E+02 0.  0.
   -5000001    1    1    2    0    0  0.54651515550E+02 -0.94010670669E+01 -0.11141198333E+04  0.11181534650E+04  0.77000000000E+02 0.  0.
<mgrwt>
<rscale>  0 0.19845570E+03</rscale>
<asrwt>0</asrwt>
<pdfrwt beam="1">  1        2 0.26572125E+00 0.19845570E+03</pdfrwt>
<pdfrwt beam="2">  1       -2 0.87702943E-03 0.19845570E+03</pdfrwt>
<totfact> 0.26259451E+04</totfact>
</mgrwt>
</event>
<event>
 4    1  0.2489209E-004  0.2275492E+03  0.7818608E-02  0.1128377E+00
          2   -1    0    0  501    0  0.00000000000E+00  0.00000000000E+00  0.27522111604E+03  0.27522111605E+03  0.25500000000E-02 0.  1.
         -2   -1    0    0    0  501 -0.00000000000E+00 -0.00000000000E+00 -0.47033671565E+02  0.47033671634E+02  0.25500000000E-02 0. -1.
    5000001    1    1    2    0    0  0.24191418415E+02  0.44109789652E+02  0.19253244465E+02  0.93971196069E+02  0.77000000000E+02 0.  0.
   -5000001    1    1    2    0    0 -0.24191418415E+02 -0.44109789652E+02  0.20893420001E+03  0.22828359162E+03  0.77000000000E+02 0.  0.
<mgrwt>
<rscale>  0 0.22754920E+03</rscale>
<asrwt>0</asrwt>
<pdfrwt beam="1">  1        2 0.42341710E-01 0.22754920E+03</pdfrwt>
<pdfrwt beam="2">  1       -2 0.72359495E-02 0.22754920E+03</pdfrwt>
<totfact> 0.13005249E+04</totfact>
</mgrwt>
</event>
<event>
 4    1  0.2489209E-004  0.2189047E+03  0.7818608E-02  0.1134702E+00
          2   -1    0    0  501    0  0.00000000000E+00  0.00000000000E+00  0.52126775434E+02  0.52126775497E+02  0.25500000000E-02 0.  1.
         -2   -1    0    0    0  501 -0.00000000000E+00 -0.00000000000E+00 -0.22982075113E+03  0.22982075115E+03  0.25500000000E-02 0. -1.
    5000001    1    1    2    0    0  0.50710467780E+02  0.56213004481E+02 -0.65829688102E+02  0.12646739205E+03  0.77000000000E+02 0.  0.
   -5000001    1    1    2    0    0 -0.50710467780E+02 -0.56213004481E+02 -0.11186428760E+03  0.15548013460E+03  0.77000000000E+02 0.  0.
<mgrwt>
<rscale>  0 0.21890468E+03</rscale>
<asrwt>0</asrwt>
<pdfrwt beam="1">  1        2 0.80195041E-02 0.21890468E+03</pdfrwt>
<pdfrwt beam="2">  1       -2 0.35357038E-01 0.21890468E+03</pdfrwt>
<totfact> 0.62564019E+03</totfact>
</mgrwt>
</event>
<event>
 4    1  0.2489209E-004  0.2502781E+03  0.7818608E-02  0.1113129E+00
         -2   -1    0    0    0  501 -0.00000000000E+00  0.00000000000E+00  0.64427273363E+02  0.64427273414E+02  0.25500000000E-02 0. -1.
          2   -1    0    0  501    0  0.00000000000E+00 -0.00000000000E+00 -0.24306144188E+03  0.24306144190E+03  0.25500000000E-02 0.  1.
    5000001    1    1    2    0    0  0.93999145549E+01  0.95633635025E+02 -0.11669655975E+03  0.16965033923E+03  0.77000000000E+02 0.  0.
   -5000001    1    1    2    0    0 -0.93999145549E+01 -0.95633635025E+02 -0.61937608770E+02  0.13783837609E+03  0.77000000000E+02 0.  0.
<mgrwt>
<rscale>  0 0.25027813E+03</rscale>
<asrwt>0</asrwt>
<pdfrwt beam="1">  1        2 0.37394067E-01 0.25027813E+03</pdfrwt>
<pdfrwt beam="2">  1       -2 0.99118884E-02 0.25027813E+03</pdfrwt>
<totfact> 0.91272700E+03</totfact>
</mgrwt>
</event>
<event>
 4    1  0.2489209E-004  0.2356226E+03  0.7818608E-02  0.1122744E+00
         -2   -1    0    0    0  501 -0.00000000000E+00  0.00000000000E+00  0.95742534396E+02  0.95742534430E+02  0.25500000000E-02 0. -1.
          2   -1    0    0  501    0  0.00000000000E+00 -0.00000000000E+00 -0.14496689634E+03  0.14496689636E+03  0.25500000000E-02 0.  1.
    5000001    1    1    2    0    0 -0.52187704095E+02  0.67884985973E+02 -0.50020197144E+02  0.12555057906E+03  0.77000000000E+02 0.  0.
   -5000001    1    1    2    0    0  0.52187704095E+02 -0.67884985973E+02  0.79583519926E+00  0.11515885174E+03  0.77000000000E+02 0.  0.
<mgrwt>
<rscale>  0 0.23562256E+03</rscale>
<asrwt>0</asrwt>
<pdfrwt beam="1">  1        2 0.22302599E-01 0.23562256E+03</pdfrwt>
<pdfrwt beam="2">  1       -2 0.14729621E-01 0.23562256E+03</pdfrwt>
<totfact> 0.84826548E+03</totfact>
</mgrwt>
</event>
<event>
 4    1  0.2489209E-004  0.5305780E+03  0.7818608E-02  0.1006092E+00
         -2   -1    0    0    0  501 -0.00000000000E+00  0.00000000000E+00  0.27295953896E+03  0.27295953897E+03  0.25500000000E-02 0. -1.
          2   -1    0    0  501    0  0.00000000000E+00 -0.00000000000E+00 -0.25783405223E+03  0.25783405224E+03  0.25500000000E-02 0.  1.
    5000001    1    1    2    0    0 -0.19782887101E+03 -0.13029869650E+03  0.98897432385E+02  0.26799946762E+03  0.77000000000E+02 0.  0.
   -5000001    1    1    2    0    0  0.19782887101E+03  0.13029869650E+03 -0.83771945655E+02  0.26279412359E+03  0.77000000000E+02 0.  0.
<mgrwt>
<rscale>  0 0.53057804E+03</rscale>
<asrwt>0</asrwt>
<pdfrwt beam="1">  1        2 0.39666777E-01 0.53057804E+03</pdfrwt>
<pdfrwt beam="2">  1       -2 0.41993775E-01 0.53057804E+03</pdfrwt>
<totfact> 0.70253445E+02</totfact>
</mgrwt>
</event>
<event>
 4    1  0.2489209E-004  0.3098308E+03  0.7818608E-02  0.1080427E+00
          2   -1    0    0  501    0  0.00000000000E+00  0.00000000000E+00  0.87184947848E+02  0.87184947885E+02  0.25500000000E-02 0.  1.
         -2   -1    0    0    0  501 -0.00000000000E+00 -0.00000000000E+00 -0.27526296973E+03  0.27526296975E+03  0.25500000000E-02 0. -1.
    5000001    1    1    2    0    0  0.65340577558E+02  0.23486856239E+01  0.43358836656E+02  0.10992677616E+03  0.77000000000E+02 0.  0.
   -5000001    1    1    2    0    0 -0.65340577558E+02 -0.23486856239E+01 -0.23143685854E+03  0.25252114148E+03  0.77000000000E+02 0.  0.
<mgrwt>
<rscale>  0 0.30983084E+03</rscale>
<asrwt>0</asrwt>
<pdfrwt beam="1">  1        2 0.13413069E-01 0.30983084E+03</pdfrwt>
<pdfrwt beam="2">  1       -2 0.42348149E-01 0.30983084E+03</pdfrwt>
<totfact> 0.23820351E+03</totfact>
</mgrwt>
</event>
<event>
 4    1  0.2489209E-004  0.5012143E+03  0.7818608E-02  0.1013462E+00
          2   -1    0    0  501    0  0.00000000000E+00  0.00000000000E+00  0.30438414750E+03  0.30438414751E+03  0.25500000000E-02 0.  1.
         -2   -1    0    0    0  501 -0.00000000000E+00 -0.00000000000E+00 -0.20633118555E+03  0.20633118557E+03  0.25500000000E-02 0. -1.
    5000001    1    1    2    0    0  0.12811842991E+03  0.19699166053E+03  0.75749330875E+01  0.24739932501E+03  0.77000000000E+02 0.  0.
   -5000001    1    1    2    0    0 -0.12811842991E+03 -0.19699166053E+03  0.90478028861E+02  0.26331600808E+03  0.77000000000E+02 0.  0.
<mgrwt>
<rscale>  0 0.50121429E+03</rscale>
<asrwt>0</asrwt>
<pdfrwt beam="1">  1        2 0.46828330E-01 0.50121429E+03</pdfrwt>
<pdfrwt beam="2">  1       -2 0.31743260E-01 0.50121429E+03</pdfrwt>
<totfact> 0.99775412E+02</totfact>
</mgrwt>
</event>
<event>
 4    1  0.2489209E-004  0.1746356E+03  0.7818608E-02  0.1173098E+00
          2   -1    0    0  501    0  0.00000000000E+00  0.00000000000E+00  0.41772507241E+03  0.41772507242E+03  0.25500000000E-02 0.  1.
         -2   -1    0    0    0  501 -0.00000000000E+00 -0.00000000000E+00 -0.18252191144E+02  0.18252191322E+02  0.25500000000E-02 0. -1.
    5000001    1    1    2    0    0  0.11074019525E+02 -0.38119682710E+02  0.17242816375E+03  0.19296687740E+03  0.77000000000E+02 0.  0.
   -5000001    1    1    2    0    0 -0.11074019525E+02  0.38119682710E+02  0.22704471751E+03  0.24301038634E+03  0.77000000000E+02 0.  0.
<mgrwt>
<rscale>  0 0.17463560E+03</rscale>
<asrwt>0</asrwt>
<pdfrwt beam="1">  1        2 0.64265394E-01 0.17463560E+03</pdfrwt>
<pdfrwt beam="2">  1       -2 0.28080295E-02 0.17463560E+03</pdfrwt>
<totfact> 0.33922013E+04</totfact>
</mgrwt>
</event>
<event>
 4    1  0.2489209E-004  0.1976797E+03  0.7818608E-02  0.1151712E+00
         -2   -1    0    0    0  501 -0.00000000000E+00  0.00000000000E+00  0.16091201753E+02  0.16091201955E+02  0.25500000000E-02 0. -1.
          2   -1    0    0  501    0  0.00000000000E+00 -0.00000000000E+00 -0.60712138908E+03  0.60712138908E+03  0.25500000000E-02 0.  1.
    5000001    1    1    2    0    0  0.44984543596E+02  0.29460358213E+02 -0.39262409397E+03  0.40370063294E+03  0.77000000000E+02 0.  0.
   -5000001    1    1    2    0    0 -0.44984543596E+02 -0.29460358213E+02 -0.19840609336E+03  0.21951195810E+03  0.77000000000E+02 0.  0.
<mgrwt>
<rscale>  0 0.19767967E+03</rscale>
<asrwt>0</asrwt>
<pdfrwt beam="1">  1        2 0.93403273E-01 0.19767967E+03</pdfrwt>
<pdfrwt beam="2">  1       -2 0.24755700E-02 0.19767967E+03</pdfrwt>
<totfact> 0.27221718E+04</totfact>
</mgrwt>
</event>
<event>
 4    1  0.2489209E-004  0.1753697E+03  0.7818608E-02  0.1172361E+00
         -2   -1    0    0    0  501 -0.00000000000E+00  0.00000000000E+00  0.11224569776E+03  0.11224569779E+03  0.25500000000E-02 0. -1.
          2   -1    0    0  501    0  0.00000000000E+00 -0.00000000000E+00 -0.68498246732E+02  0.68498246780E+02  0.25500000000E-02 0.  1.
    5000001    1    1    2    0    0 -0.23431520754E+02 -0.25905555931E+02  0.45812654103E+02  0.96166175285E+02  0.77000000000E+02 0.  0.
   -5000001    1    1    2    0    0  0.23431520754E+02  0.25905555931E+02 -0.20652030768E+01  0.84577769282E+02  0.77000000000E+02 0.  0.
<mgrwt>
<rscale>  0 0.17536971E+03</rscale>
<asrwt>0</asrwt>
<pdfrwt beam="1">  1        2 0.10538192E-01 0.17536971E+03</pdfrwt>
<pdfrwt beam="2">  1       -2 0.17268569E-01 0.17536971E+03</pdfrwt>
<totfact> 0.15444343E+04</totfact>
</mgrwt>
</event>
<event>
 4    1  0.2489209E-004  0.1884238E+03  0.7818608E-02  0.1159891E+00
          2   -1    0    0  501    0  0.00000000000E+00  0.00000000000E+00  0.26023219985E+02  0.26023220110E+02  0.25500000000E-02 0.  1.
         -2   -1    0    0    0  501 -0.00000000000E+00 -0.00000000000E+00 -0.34107550005E+03  0.34107550006E+03  0.25500000000E-02 0. -1.
    5000001    1    1    2    0    0 -0.90093770785E+01  0.44995151467E+02 -0.21403075084E+03  0.23204287284E+03  0.77000000000E+02 0.  0.
   -5000001    1    1    2    0    0  0.90093770785E+01 -0.44995151467E+02 -0.10102152922E+03  0.13505584733E+03  0.77000000000E+02 0.  0.
<mgrwt>
<rscale>  0 0.18842381E+03</rscale>
<asrwt>0</asrwt>
<pdfrwt beam="1">  1        2 0.40035726E-02 0.18842381E+03</pdfrwt>
<pdfrwt beam="2">  1       -2 0.52473151E-01 0.18842381E+03</pdfrwt>
<totfact> 0.71449149E+03</totfact>
</mgrwt>
</event>
<event>
 4    1  0.2489209E-004  0.2662340E+03  0.7818608E-02  0.1103455E+00
          2   -1    0    0  501    0  0.00000000000E+00  0.00000000000E+00  0.91753326777E+03  0.91753326778E+03  0.25500000000E-02 0.  1.
         -2   -1    0    0    0  501 -0.00000000000E+00 -0.00000000000E+00 -0.19312796959E+02  0.19312797127E+02  0.25500000000E-02 0. -1.
    5000001    1    1    2    0    0 -0.94664446207E+02  0.46943630301E+02  0.53715770466E+03  0.55284035804E+03  0.77000000000E+02 0.  0.
   -5000001    1    1    2    0    0  0.94664446207E+02 -0.46943630301E+02  0.36106276616E+03  0.38400570687E+03  0.77000000000E+02 0.  0.
<mgrwt>
<rscale>  0 0.26623399E+03</rscale>
<asrwt>0</asrwt>
<pdfrwt beam="1">  1        2 0.14115893E+00 0.26623399E+03</pdfrwt>
<pdfrwt beam="2">  1       -2 0.29712003E-02 0.26623399E+03</pdfrwt>
<totfact> 0.12661014E+04</totfact>
</mgrwt>
</event>
<event>
 4    1  0.2489209E-004  0.2023127E+03  0.7818608E-02  0.1147802E+00
          2   -1    0    0  501    0  0.00000000000E+00  0.00000000000E+00  0.59726330275E+01  0.59726335718E+01  0.25500000000E-02 0.  1.
         -2   -1    0    0    0  501 -0.00000000000E+00 -0.00000000000E+00 -0.17132494386E+04  0.17132494386E+04  0.25500000000E-02 0. -1.
    5000001    1    1    2    0    0  0.11568085558E+02 -0.54166637816E+02 -0.11523669814E+04  0.11562640291E+04  0.77000000000E+02 0.  0.
   -5000001    1    1    2    0    0 -0.11568085558E+02  0.54166637816E+02 -0.55490982414E+03  0.56295804301E+03  0.77000000000E+02 0.  0.
<mgrwt>
<rscale>  0 0.20231273E+03</rscale>
<asrwt>0</asrwt>
<pdfrwt beam="1">  1        2 0.91886803E-03 0.20231273E+03</pdfrwt>
<pdfrwt beam="2">  1       -2 0.26357645E+00 0.20231273E+03</pdfrwt>
<totfact> 0.96158116E+02</totfact>
</mgrwt>
</event>
<event>
 4    1  0.2489209E-004  0.5943150E+03  0.7818608E-02  0.9917271E-01
         -2   -1    0    0    0  501 -0.00000000000E+00  0.00000000000E+00  0.40975760993E+03  0.40975760994E+03  0.25500000000E-02 0. -1.
          2   -1    0    0  501    0  0.00000000000E+00 -0.00000000000E+00 -0.21549956594E+03  0.21549956596E+03  0.25500000000E-02 0.  1.
    5000001    1    1    2    0    0  0.18486857981E+03  0.20229763442E+03  0.74079072898E+01  0.28475358080E+03  0.77000000000E+02 0.  0.
   -5000001    1    1    2    0    0 -0.18486857981E+03 -0.20229763442E+03  0.18685013670E+03  0.34050359510E+03  0.77000000000E+02 0.  0.
<mgrwt>
<rscale>  0 0.59431502E+03</rscale>
<asrwt>0</asrwt>
<pdfrwt beam="1">  1        2 0.33153779E-01 0.59431502E+03</pdfrwt>
<pdfrwt beam="2">  1       -2 0.63039632E-01 0.59431502E+03</pdfrwt>
<totfact> 0.37430910E+02</totfact>
</mgrwt>
</event>
<event>
 4    1  0.2489209E-004  0.2632107E+03  0.7818608E-02  0.1105229E+00
          2   -1    0    0  501    0  0.00000000000E+00  0.00000000000E+00  0.29750138112E+03  0.29750138113E+03  0.25500000000E-02 0.  1.
         -2   -1    0    0    0  501 -0.00000000000E+00 -0.00000000000E+00 -0.58218110072E+02  0.58218110127E+02  0.25500000000E-02 0. -1.
    5000001    1    1    2    0    0  0.84992461133E+02  0.30040309679E+02  0.19686244960E+03  0.22980418342E+03  0.77000000000E+02 0.  0.
   -5000001    1    1    2    0    0 -0.84992461133E+02 -0.30040309679E+02  0.42420821446E+02  0.12591530784E+03  0.77000000000E+02 0.  0.
<mgrwt>
<rscale>  0 0.26321070E+03</rscale>
<asrwt>0</asrwt>
<pdfrwt beam="1">  1        2 0.45769443E-01 0.26321070E+03</pdfrwt>
<pdfrwt beam="2">  1       -2 0.89566323E-02 0.26321070E+03</pdfrwt>
<totfact> 0.86378675E+03</totfact>
</mgrwt>
</event>
<event>
 4    1  0.2489209E-004  0.4064044E+03  0.7818608E-02  0.1041584E+00
         -2   -1    0    0    0  501 -0.00000000000E+00  0.00000000000E+00  0.12229894873E+02  0.12229895139E+02  0.25500000000E-02 0. -1.
          2   -1    0    0  501    0  0.00000000000E+00 -0.00000000000E+00 -0.33762459426E+04  0.33762459426E+04  0.25500000000E-02 0.  1.
    5000001    1    1    2    0    0  0.76827767593E+02 -0.17009559243E+03 -0.14905826560E+04  0.15041943593E+04  0.77000000000E+02 0.  0.
   -5000001    1    1    2    0    0 -0.76827767593E+02  0.17009559243E+03 -0.18734333918E+04  0.18842814784E+04  0.77000000000E+02 0.  0.
<mgrwt>
<rscale>  0 0.40640440E+03</rscale>
<asrwt>0</asrwt>
<pdfrwt beam="1">  1        2 0.51942171E+00 0.40640440E+03</pdfrwt>
<pdfrwt beam="2">  1       -2 0.18815250E-02 0.40640440E+03</pdfrwt>
<totfact> 0.10098854E+03</totfact>
</mgrwt>
</event>
<event>
 4    1  0.2489209E-004  0.1694723E+03  0.7818608E-02  0.1178399E+00
          2   -1    0    0  501    0  0.00000000000E+00  0.00000000000E+00  0.41416705508E+03  0.41416705509E+03  0.25500000000E-02 0.  1.
         -2   -1    0    0    0  501 -0.00000000000E+00 -0.00000000000E+00 -0.17336511281E+02  0.17336511468E+02  0.25500000000E-02 0. -1.
    5000001    1    1    2    0    0 -0.13501928611E+02  0.20070778393E+02  0.26412760529E+03  0.27618387009E+03  0.77000000000E+02 0.  0.
   -5000001    1    1    2    0    0  0.13501928611E+02 -0.20070778393E+02  0.13270293851E+03  0.15531969647E+03  0.77000000000E+02 0.  0.
<mgrwt>
<rscale>  0 0.16947226E+03</rscale>
<asrwt>0</asrwt>
<pdfrwt beam="1">  1        2 0.63718010E-01 0.16947226E+03</pdfrwt>
<pdfrwt beam="2">  1       -2 0.26671556E-02 0.16947226E+03</pdfrwt>
<totfact> 0.36829637E+04</totfact>
</mgrwt>
</event>
<event>
 4    1  0.2489209E-004  0.1802936E+03  0.7818608E-02  0.1167519E+00
          2   -1    0    0  501    0  0.00000000000E+00  0.00000000000E+00  0.59827546572E+03  0.59827546572E+03  0.25500000000E-02 0.  1.
         -2   -1    0    0    0  501 -0.00000000000E+00 -0.00000000000E+00 -0.13583111348E+02  0.13583111587E+02  0.25500000000E-02 0. -1.
    5000001    1    1    2    0    0 -0.70775202661E+01 -0.46314174360E+02  0.28714564421E+03  0.30095965682E+03  0.77000000000E+02 0.  0.
   -5000001    1    1    2    0    0  0.70775202661E+01  0.46314174360E+02  0.29754671016E+03  0.31089892049E+03  0.77000000000E+02 0.  0.
<mgrwt>
<rscale>  0 0.18029356E+03</rscale>
<asrwt>0</asrwt>
<pdfrwt beam="1">  1        2 0.92042380E-01 0.18029356E+03</pdfrwt>
<pdfrwt beam="2">  1       -2 0.20897094E-02 0.18029356E+03</pdfrwt>
<totfact> 0.35233335E+04</totfact>
</mgrwt>
</event>
<event>
 4    1  0.2489209E-004  0.1627860E+03  0.7818608E-02  0.1185587E+00
          2   -1    0    0  501    0  0.00000000000E+00  0.00000000000E+00  0.15525755799E+03  0.15525755801E+03  0.25500000000E-02 0.  1.
         -2   -1    0    0    0  501 -0.00000000000E+00 -0.00000000000E+00 -0.42669848699E+02  0.42669848775E+02  0.25500000000E-02 0. -1.
    5000001    1    1    2    0    0 -0.19258074123E+02 -0.17738569498E+02  0.60193432418E+02  0.10118191327E+03  0.77000000000E+02 0.  0.
   -5000001    1    1    2    0    0  0.19258074123E+02  0.17738569498E+02  0.52394276876E+02  0.96745493518E+02  0.77000000000E+02 0.  0.
<mgrwt>
<rscale>  0 0.16278595E+03</rscale>
<asrwt>0</asrwt>
<pdfrwt beam="1">  1        2 0.23885779E-01 0.16278595E+03</pdfrwt>
<pdfrwt beam="2">  1       -2 0.65645920E-02 0.16278595E+03</pdfrwt>
<totfact> 0.27455209E+04</totfact>
</mgrwt>
</event>
<event>
 4    1  0.2489209E-004  0.4598659E+03  0.7818608E-02  0.1024820E+00
         -2   -1    0    0    0  501 -0.00000000000E+00  0.00000000000E+00  0.66707420684E+02  0.66707420733E+02  0.25500000000E-02 0. -1.
          2   -1    0    0  501    0  0.00000000000E+00 -0.00000000000E+00 -0.79255287547E+03  0.79255287548E+03  0.25500000000E-02 0.  1.
    5000001    1    1    2    0    0  0.20190426468E+03  0.26596056411E+02 -0.50108421038E+03  0.54633970037E+03  0.77000000000E+02 0.  0.
   -5000001    1    1    2    0    0 -0.20190426468E+03 -0.26596056411E+02 -0.22476124441E+03  0.31292059584E+03  0.77000000000E+02 0.  0.
<mgrwt>
<rscale>  0 0.45986589E+03</rscale>
<asrwt>0</asrwt>
<pdfrwt beam="1">  1        2 0.12193121E+00 0.45986589E+03</pdfrwt>
<pdfrwt beam="2">  1       -2 0.10262681E-01 0.45986589E+03</pdfrwt>
<totfact> 0.22942291E+03</totfact>
</mgrwt>
</event>
<event>
 4    1  0.2489209E-004  0.3659724E+03  0.7818608E-02  0.1056244E+00
         -2   -1    0    0    0  501 -0.00000000000E+00  0.00000000000E+00  0.33774784542E+02  0.33774784638E+02  0.25500000000E-02 0. -1.
          2   -1    0    0  501    0  0.00000000000E+00 -0.00000000000E+00 -0.99138907123E+03  0.99138907124E+03  0.25500000000E-02 0.  1.
    5000001    1    1    2    0    0 -0.27621159547E+02  0.15897616996E+03 -0.36964631801E+03  0.41061387153E+03  0.77000000000E+02 0.  0.
   -5000001    1    1    2    0    0  0.27621159547E+02 -0.15897616996E+03 -0.58796796868E+03  0.61454998435E+03  0.77000000000E+02 0.  0.
<mgrwt>
<rscale>  0 0.36597242E+03</rscale>
<asrwt>0</asrwt>
<pdfrwt beam="1">  1        2 0.15252137E+00 0.36597242E+03</pdfrwt>
<pdfrwt beam="2">  1       -2 0.51961215E-02 0.36597242E+03</pdfrwt>
<totfact> 0.49286385E+03</totfact>
</mgrwt>
</event>
<event>
 4    1  0.2489209E-004  0.2361265E+03  0.7818608E-02  0.1122400E+00
          2   -1    0    0  501    0  0.00000000000E+00  0.00000000000E+00  0.14220742285E+04  0.14220742285E+04  0.25500000000E-02 0.  1.
         -2   -1    0    0    0  501 -0.00000000000E+00 -0.00000000000E+00 -0.98018283607E+01  0.98018286924E+01  0.25500000000E-02 0. -1.
    5000001    1    1    2    0    0  0.82049605218E+02 -0.18878046859E+02  0.52206448402E+03  0.53438641809E+03  0.77000000000E+02 0.  0.
   -5000001    1    1    2    0    0 -0.82049605218E+02  0.18878046859E+02  0.89020791615E+03  0.89748963913E+03  0.77000000000E+02 0.  0.
<mgrwt>
<rscale>  0 0.23612647E+03</rscale>
<asrwt>0</asrwt>
<pdfrwt beam="1">  1        2 0.21878061E+00 0.23612647E+03</pdfrwt>
<pdfrwt beam="2">  1       -2 0.15079739E-02 0.23612647E+03</pdfrwt>
<totfact> 0.17484642E+04</totfact>
</mgrwt>
</event>
<event>
 4    1  0.2489209E-004  0.1598971E+03  0.7818608E-02  0.1188813E+00
          2   -1    0    0  501    0  0.00000000000E+00  0.00000000000E+00  0.14759540553E+04  0.14759540553E+04  0.25500000000E-02 0.  1.
         -2   -1    0    0    0  501 -0.00000000000E+00 -0.00000000000E+00 -0.43306001305E+01  0.43306008813E+01  0.25500000000E-02 0. -1.
    5000001    1    1    2    0    0  0.19744771077E+02 -0.74003811009E+01  0.77524767720E+03  0.77934753649E+03  0.77000000000E+02 0.  0.
   -5000001    1    1    2    0    0 -0.19744771077E+02  0.74003811009E+01  0.69637577801E+03  0.70093711973E+03  0.77000000000E+02 0.  0.
<mgrwt>
<rscale>  0 0.15989706E+03</rscale>
<asrwt>0</asrwt>
<pdfrwt beam="1">  1        2 0.22706974E+00 0.15989706E+03</pdfrwt>
<pdfrwt beam="2">  1       -2 0.66624656E-03 0.15989706E+03</pdfrwt>
<totfact> 0.51936728E+04</totfact>
</mgrwt>
</event>
<event>
 4    1  0.2489209E-004  0.1809721E+03  0.7818608E-02  0.1166866E+00
         -2   -1    0    0    0  501 -0.00000000000E+00  0.00000000000E+00  0.54195185471E+01  0.54195191471E+01  0.25500000000E-02 0. -1.
          2   -1    0    0  501    0  0.00000000000E+00 -0.00000000000E+00 -0.15107848560E+04  0.15107848560E+04  0.25500000000E-02 0.  1.
    5000001    1    1    2    0    0  0.12925520870E+02 -0.36054725513E+02 -0.51694421940E+03  0.52404898463E+03  0.77000000000E+02 0.  0.
   -5000001    1    1    2    0    0 -0.12925520870E+02  0.36054725513E+02 -0.98842111804E+03  0.99215539051E+03  0.77000000000E+02 0.  0.
<mgrwt>
<rscale>  0 0.18097212E+03</rscale>
<asrwt>0</asrwt>
<pdfrwt beam="1">  1        2 0.23242810E+00 0.18097212E+03</pdfrwt>
<pdfrwt beam="2">  1       -2 0.83377333E-03 0.18097212E+03</pdfrwt>
<totfact> 0.36443374E+04</totfact>
</mgrwt>
</event>
<event>
 4    1  0.2489209E-004  0.2416167E+03  0.7818608E-02  0.1118720E+00
         -2   -1    0    0    0  501 -0.00000000000E+00  0.00000000000E+00  0.39824519820E+02  0.39824519902E+02  0.25500000000E-02 0. -1.
          2   -1    0    0  501    0  0.00000000000E+00 -0.00000000000E+00 -0.36647429622E+03  0.36647429623E+03  0.25500000000E-02 0.  1.
    5000001    1    1    2    0    0  0.27613637777E+02 -0.40291427107E+01 -0.13986268691E+02  0.83086477204E+02  0.77000000000E+02 0.  0.
   -5000001    1    1    2    0    0 -0.27613637777E+02  0.40291427107E+01 -0.31266350771E+03  0.32321233893E+03  0.77000000000E+02 0.  0.
<mgrwt>
<rscale>  0 0.24161675E+03</rscale>
<asrwt>0</asrwt>
<pdfrwt beam="1">  1        2 0.56380659E-01 0.24161675E+03</pdfrwt>
<pdfrwt beam="2">  1       -2 0.61268495E-02 0.24161675E+03</pdfrwt>
<totfact> 0.12396726E+04</totfact>
</mgrwt>
</event>
<event>
 4    1  0.2489209E-004  0.2414763E+03  0.7818608E-02  0.1118813E+00
          2   -1    0    0  501    0  0.00000000000E+00  0.00000000000E+00  0.21322297531E+03  0.21322297533E+03  0.25500000000E-02 0.  1.
         -2   -1    0    0    0  501 -0.00000000000E+00 -0.00000000000E+00 -0.68368330874E+02  0.68368330921E+02  0.25500000000E-02 0. -1.
    5000001    1    1    2    0    0 -0.32265471967E+02 -0.83897391094E+02  0.44614199293E+02  0.12648818005E+03  0.77000000000E+02 0.  0.
   -5000001    1    1    2    0    0  0.32265471967E+02  0.83897391094E+02  0.10024044515E+03  0.15510312620E+03  0.77000000000E+02 0.  0.
<mgrwt>
<rscale>  0 0.24147628E+03</rscale>
<asrwt>0</asrwt>
<pdfrwt beam="1">  1        2 0.32803534E-01 0.24147628E+03</pdfrwt>
<pdfrwt beam="2">  1       -2 0.10518205E-01 0.24147628E+03</pdfrwt>
<totfact> 0.95558037E+03</totfact>
</mgrwt>
</event>
<event>
 4    1  0.2489209E-004  0.2047613E+03  0.7818608E-02  0.1145783E+00
          2   -1    0    0  501    0  0.00000000000E+00  0.00000000000E+00  0.95526162814E+03  0.95526162814E+03  0.25500000000E-02 0.  1.
         -2   -1    0    0    0  501 -0.00000000000E+00 -0.00000000000E+00 -0.10972693004E+02  0.10972693301E+02  0.25500000000E-02 0. -1.
    5000001    1    1    2    0    0 -0.54813006896E+02  0.16314062167E+02  0.30317473946E+03  0.31798512071E+03  0.77000000000E+02 0.  0.
   -5000001    1    1    2    0    0  0.54813006896E+02 -0.16314062167E+02  0.64111419567E+03  0.64824920073E+03  0.77000000000E+02 0.  0.
<mgrwt>
<rscale>  0 0.20476125E+03</rscale>
<asrwt>0</asrwt>
<pdfrwt beam="1">  1        2 0.14696342E+00 0.20476125E+03</pdfrwt>
<pdfrwt beam="2">  1       -2 0.16881056E-02 0.20476125E+03</pdfrwt>
<totfact> 0.27180801E+04</totfact>
</mgrwt>
</event>
<event>
 4    1  0.2489209E-004  0.3920007E+03  0.7818608E-02  0.1046585E+00
         -2   -1    0    0    0  501 -0.00000000000E+00  0.00000000000E+00  0.26912499933E+03  0.26912499934E+03  0.25500000000E-02 0. -1.
          2   -1    0    0  501    0  0.00000000000E+00 -0.00000000000E+00 -0.14274457839E+03  0.14274457842E+03  0.25500000000E-02 0.  1.
    5000001    1    1    2    0    0 -0.16804790130E+03  0.35437506179E+02  0.57260444625E+01  0.18830215496E+03  0.77000000000E+02 0.  0.
   -5000001    1    1    2    0    0  0.16804790130E+03 -0.35437506179E+02  0.12065437647E+03  0.22356742280E+03  0.77000000000E+02 0.  0.
<mgrwt>
<rscale>  0 0.39200069E+03</rscale>
<asrwt>0</asrwt>
<pdfrwt beam="1">  1        2 0.21960704E-01 0.39200069E+03</pdfrwt>
<pdfrwt beam="2">  1       -2 0.41403846E-01 0.39200069E+03</pdfrwt>
<totfact> 0.13992856E+03</totfact>
</mgrwt>
</event>
<event>
 4    1  0.2489209E-004  0.2090794E+03  0.7818608E-02  0.1142297E+00
          2   -1    0    0  501    0  0.00000000000E+00  0.00000000000E+00  0.16420958404E+03  0.16420958406E+03  0.25500000000E-02 0.  1.
         -2   -1    0    0    0  501 -0.00000000000E+00 -0.00000000000E+00 -0.66552470151E+02  0.66552470200E+02  0.25500000000E-02 0. -1.
    5000001    1    1    2    0    0  0.45592650696E+02  0.44526268085E+02  0.15020659968E+02  0.10107372840E+03  0.77000000000E+02 0.  0.
   -5000001    1    1    2    0    0 -0.45592650696E+02 -0.44526268085E+02  0.82636453917E+02  0.12968832585E+03  0.77000000000E+02 0.  0.
<mgrwt>
<rscale>  0 0.20907944E+03</rscale>
<asrwt>0</asrwt>
<pdfrwt beam="1">  1        2 0.25263013E-01 0.20907944E+03</pdfrwt>
<pdfrwt beam="2">  1       -2 0.10238842E-01 0.20907944E+03</pdfrwt>
<totfact> 0.13177146E+04</totfact>
</mgrwt>
</event>
<event>
 4    1  0.2489209E-004  0.4040540E+03  0.7818608E-02  0.1042385E+00
          2   -1    0    0  501    0  0.00000000000E+00  0.00000000000E+00  0.17565890917E+03  0.17565890919E+03  0.25500000000E-02 0. -1.
         -2   -1    0    0    0  501 -0.00000000000E+00 -0.00000000000E+00 -0.23235315896E+03  0.23235315897E+03  0.25500000000E-02 0.  1.
    5000001    1    1    2    0    0  0.16411192409E+03 -0.73373003189E+02 -0.79534729567E+02  0.21111867381E+03  0.77000000000E+02 0.  0.
   -5000001    1    1    2    0    0 -0.16411192409E+03  0.73373003189E+02  0.22840479780E+02  0.19689339436E+03  0.77000000000E+02 0.  0.
<mgrwt>
<rscale>  0 0.40405397E+03</rscale>
<asrwt>0</asrwt>
<pdfrwt beam="1">  1        2 0.27024448E-01 0.40405397E+03</pdfrwt>
<pdfrwt beam="2">  1       -2 0.35746640E-01 0.40405397E+03</pdfrwt>
<totfact> 0.14650944E+03</totfact>
</mgrwt>
</event>
<event>
 4    1  0.2489209E-004  0.3091917E+03  0.7818608E-02  0.1080734E+00
          2   -1    0    0  501    0  0.00000000000E+00  0.00000000000E+00  0.26666580309E+03  0.26666580310E+03  0.25500000000E-02 0.  1.
         -2   -1    0    0    0  501 -0.00000000000E+00 -0.00000000000E+00 -0.89624853241E+02  0.89624853278E+02  0.25500000000E-02 0. -1.
    5000001    1    1    2    0    0 -0.74433557745E+02 -0.11079610462E+03  0.10285538267E+03  0.18526834878E+03  0.77000000000E+02 0.  0.
   -5000001    1    1    2    0    0  0.74433557745E+02  0.11079610462E+03  0.74185567183E+02  0.17102230760E+03  0.77000000000E+02 0.  0.
<mgrwt>
<rscale>  0 0.30919174E+03</rscale>
<asrwt>0</asrwt>
<pdfrwt beam="1">  1        2 0.41025507E-01 0.30919174E+03</pdfrwt>
<pdfrwt beam="2">  1       -2 0.13788439E-01 0.30919174E+03</pdfrwt>
<totfact> 0.48870981E+03</totfact>
</mgrwt>
</event>
<event>
 4    1  0.2489209E-004  0.2205521E+03  0.7818608E-02  0.1133472E+00
          2   -1    0    0  501    0  0.00000000000E+00  0.00000000000E+00  0.13242169544E+04  0.13242169544E+04  0.25500000000E-02 0.  1.
         -2   -1    0    0    0  501 -0.00000000000E+00 -0.00000000000E+00 -0.91833962863E+01  0.91833966403E+01  0.25500000000E-02 0. -1.
    5000001    1    1    2    0    0  0.22441291934E+01  0.75166531891E+02  0.51232265854E+03  0.52350601724E+03  0.77000000000E+02 0.  0.
   -5000001    1    1    2    0    0 -0.22441291934E+01 -0.75166531891E+02  0.80271089957E+03  0.80989433380E+03  0.77000000000E+02 0.  0.
<mgrwt>
<rscale>  0 0.22055212E+03</rscale>
<asrwt>0</asrwt>
<pdfrwt beam="1">  1        2 0.20372567E+00 0.22055212E+03</pdfrwt>
<pdfrwt beam="2">  1       -2 0.14128303E-02 0.22055212E+03</pdfrwt>
<totfact> 0.21658904E+04</totfact>
</mgrwt>
</event>
<event>
 4    1  0.2489209E-004  0.2039833E+03  0.7818608E-02  0.1146421E+00
         -2   -1    0    0    0  501 -0.00000000000E+00  0.00000000000E+00  0.80237352356E+01  0.80237356408E+01  0.25500000000E-02 0. -1.
          2   -1    0    0  501    0  0.00000000000E+00 -0.00000000000E+00 -0.12964400433E+04  0.12964400433E+04  0.25500000000E-02 0.  1.
    5000001    1    1    2    0    0  0.35082650216E+01  0.50921070253E+02 -0.92060257411E+03  0.92522611441E+03  0.77000000000E+02 0.  0.
   -5000001    1    1    2    0    0 -0.35082650216E+01 -0.50921070253E+02 -0.36781373396E+03  0.37923766454E+03  0.77000000000E+02 0.  0.
<mgrwt>
<rscale>  0 0.20398325E+03</rscale>
<asrwt>0</asrwt>
<pdfrwt beam="1">  1        2 0.19945215E+00 0.20398325E+03</pdfrwt>
<pdfrwt beam="2">  1       -2 0.12344219E-02 0.20398325E+03</pdfrwt>
<totfact> 0.27171575E+04</totfact>
</mgrwt>
</event>
<event>
 4    1  0.2489209E-004  0.1972265E+03  0.7818608E-02  0.1152100E+00
         -2   -1    0    0    0  501 -0.00000000000E+00  0.00000000000E+00  0.91081955655E+01  0.91081959225E+01  0.25500000000E-02 0. -1.
          2   -1    0    0  501    0  0.00000000000E+00 -0.00000000000E+00 -0.10676733201E+04  0.10676733201E+04  0.25500000000E-02 0.  1.
    5000001    1    1    2    0    0  0.46249357326E+02 -0.36864976459E+02 -0.62345867882E+03  0.63097365535E+03  0.77000000000E+02 0.  0.
   -5000001    1    1    2    0    0 -0.46249357326E+02  0.36864976459E+02 -0.43510644569E+03  0.44580786065E+03  0.77000000000E+02 0.  0.
<mgrwt>
<rscale>  0 0.19722655E+03</rscale>
<asrwt>0</asrwt>
<pdfrwt beam="1">  1        2 0.16425733E+00 0.19722655E+03</pdfrwt>
<pdfrwt beam="2">  1       -2 0.14012617E-02 0.19722655E+03</pdfrwt>
<totfact> 0.30405825E+04</totfact>
</mgrwt>
</event>
<event>
 4    1  0.2489209E-004  0.2307336E+03  0.7818608E-02  0.1126125E+00
         -2   -1    0    0    0  501 -0.00000000000E+00  0.00000000000E+00  0.38345702030E+02  0.38345702115E+02  0.25500000000E-02 0. -1.
          2   -1    0    0  501    0  0.00000000000E+00 -0.00000000000E+00 -0.34709224683E+03  0.34709224684E+03  0.25500000000E-02 0.  1.
    5000001    1    1    2    0    0 -0.40202092813E+02 -0.54934253354E+02 -0.24191894721E+03  0.26284550115E+03  0.77000000000E+02 0.  0.
   -5000001    1    1    2    0    0  0.40202092813E+02  0.54934253354E+02 -0.66827597593E+02  0.12259244780E+03  0.77000000000E+02 0.  0.
<mgrwt>
<rscale>  0 0.23073358E+03</rscale>
<asrwt>0</asrwt>
<pdfrwt beam="1">  1        2 0.53398805E-01 0.23073358E+03</pdfrwt>
<pdfrwt beam="2">  1       -2 0.58993390E-02 0.23073358E+03</pdfrwt>
<totfact> 0.13893171E+04</totfact>
</mgrwt>
</event>
<event>
 4    1  0.2489209E-004  0.4246026E+03  0.7818608E-02  0.1035579E+00
          2   -1    0    0  501    0  0.00000000000E+00  0.00000000000E+00  0.41174994185E+03  0.41174994186E+03  0.25500000000E-02 0.  1.
         -2   -1    0    0    0  501 -0.00000000000E+00 -0.00000000000E+00 -0.10946411729E+03  0.10946411732E+03  0.25500000000E-02 0. -1.
    5000001    1    1    2    0    0 -0.55591941124E+02 -0.11662072678E+03  0.33507641679E+03  0.36728199374E+03  0.77000000000E+02 0.  0.
   -5000001    1    1    2    0    0  0.55591941124E+02  0.11662072678E+03 -0.32790592227E+02  0.15393206544E+03  0.77000000000E+02 0.  0.
<mgrwt>
<rscale>  0 0.42460261E+03</rscale>
<asrwt>0</asrwt>
<pdfrwt beam="1">  1        2 0.63346146E-01 0.42460261E+03</pdfrwt>
<pdfrwt beam="2">  1       -2 0.16840633E-01 0.42460261E+03</pdfrwt>
<totfact> 0.21940891E+03</totfact>
</mgrwt>
</event>
<event>
 4    1  0.2489209E-004  0.2098106E+03  0.7818608E-02  0.1141716E+00
         -2   -1    0    0    0  501 -0.00000000000E+00  0.00000000000E+00  0.10328256384E+02  0.10328256698E+02  0.25500000000E-02 0. -1.
          2   -1    0    0  501    0  0.00000000000E+00 -0.00000000000E+00 -0.10655354126E+04  0.10655354126E+04  0.25500000000E-02 0.  1.
    5000001    1    1    2    0    0  0.47842915009E+02 -0.52333031026E+02 -0.56328958820E+03  0.57293267565E+03  0.77000000000E+02 0.  0.
   -5000001    1    1    2    0    0 -0.47842915009E+02  0.52333031026E+02 -0.49191756804E+03  0.50293099368E+03  0.77000000000E+02 0.  0.
<mgrwt>
<rscale>  0 0.20981061E+03</rscale>
<asrwt>0</asrwt>
<pdfrwt beam="1">  1        2 0.16392844E+00 0.20981061E+03</pdfrwt>
<pdfrwt beam="2">  1       -2 0.15889634E-02 0.20981061E+03</pdfrwt>
<totfact> 0.25501000E+04</totfact>
</mgrwt>
</event>
<event>
 4    1  0.2489209E-004  0.2298666E+03  0.7818608E-02  0.1126734E+00
         -2   -1    0    0    0  501 -0.00000000000E+00  0.00000000000E+00  0.51150321746E+01  0.51150328102E+01  0.25500000000E-02 0. -1.
          2   -1    0    0  501    0  0.00000000000E+00 -0.00000000000E+00 -0.25825178456E+04  0.25825178456E+04  0.25500000000E-02 0.  1.
    5000001    1    1    2    0    0 -0.58779218441E+02 -0.53014949073E+02 -0.93004612965E+03  0.93657908616E+03  0.77000000000E+02 0.  0.
   -5000001    1    1    2    0    0  0.58779218441E+02  0.53014949073E+02 -0.16473566838E+04  0.16510537923E+04  0.77000000000E+02 0.  0.
<mgrwt>
<rscale>  0 0.22986659E+03</rscale>
<asrwt>0</asrwt>
<pdfrwt beam="1">  1        2 0.39730940E+00 0.22986659E+03</pdfrwt>
<pdfrwt beam="2">  1       -2 0.78693014E-03 0.22986659E+03</pdfrwt>
<totfact> 0.10883941E+04</totfact>
</mgrwt>
</event>
<event>
 4    1  0.2489209E-004  0.1695666E+03  0.7818608E-02  0.1178301E+00
          2   -1    0    0  501    0  0.00000000000E+00  0.00000000000E+00  0.13333758825E+04  0.13333758825E+04  0.25500000000E-02 0.  1.
         -2   -1    0    0    0  501 -0.00000000000E+00 -0.00000000000E+00 -0.53909845830E+01  0.53909851861E+01  0.25500000000E-02 0. -1.
    5000001    1    1    2    0    0 -0.20782193246E+02  0.47558412949E+01  0.44002786271E+03  0.44722258165E+03  0.77000000000E+02 0.  0.
   -5000001    1    1    2    0    0  0.20782193246E+02 -0.47558412949E+01  0.88795703522E+03  0.89154428605E+03  0.77000000000E+02 0.  0.
<mgrwt>
<rscale>  0 0.16956662E+03</rscale>
<asrwt>0</asrwt>
<pdfrwt beam="1">  1        2 0.20513518E+00 0.16956662E+03</pdfrwt>
<pdfrwt beam="2">  1       -2 0.82938055E-03 0.16956662E+03</pdfrwt>
<totfact> 0.45435717E+04</totfact>
</mgrwt>
</event>
<event>
 4    1  0.2489209E-004  0.3006560E+03  0.7818608E-02  0.1084913E+00
          2   -1    0    0  501    0  0.00000000000E+00  0.00000000000E+00  0.44732400684E+03  0.44732400685E+03  0.25500000000E-02 0.  1.
         -2   -1    0    0    0  501 -0.00000000000E+00 -0.00000000000E+00 -0.50519320886E+02  0.50519320950E+02  0.25500000000E-02 0. -1.
    5000001    1    1    2    0    0  0.84794267476E+02  0.56682084888E+02  0.32948284100E+03  0.35339902243E+03  0.77000000000E+02 0.  0.
   -5000001    1    1    2    0    0 -0.84794267476E+02 -0.56682084888E+02  0.67321844956E+02  0.14444430536E+03  0.77000000000E+02 0.  0.
<mgrwt>
<rscale>  0 0.30065598E+03</rscale>
<asrwt>0</asrwt>
<pdfrwt beam="1">  1        2 0.68819075E-01 0.30065598E+03</pdfrwt>
<pdfrwt beam="2">  1       -2 0.77722036E-02 0.30065598E+03</pdfrwt>
<totfact> 0.69668120E+03</totfact>
</mgrwt>
</event>
<event>
 4    1  0.2489209E-004  0.1855890E+03  0.7818608E-02  0.1162501E+00
         -2   -1    0    0    0  501 -0.00000000000E+00  0.00000000000E+00  0.13865632442E+03  0.13865632445E+03  0.25500000000E-02 0. -1.
          2   -1    0    0  501    0  0.00000000000E+00 -0.00000000000E+00 -0.62101906317E+02  0.62101906369E+02  0.25500000000E-02 0.  1.
    5000001    1    1    2    0    0  0.25269246988E+02  0.45096076939E+02  0.34920153594E+02  0.99098981456E+02  0.77000000000E+02 0.  0.
   -5000001    1    1    2    0    0 -0.25269246988E+02 -0.45096076939E+02  0.41634264512E+02  0.10165924936E+03  0.77000000000E+02 0.  0.
<mgrwt>
<rscale>  0 0.18558903E+03</rscale>
<asrwt>0</asrwt>
<pdfrwt beam="1">  1        2 0.95541395E-02 0.18558903E+03</pdfrwt>
<pdfrwt beam="2">  1       -2 0.21331742E-01 0.18558903E+03</pdfrwt>
<totfact> 0.12247201E+04</totfact>
</mgrwt>
</event>
<event>
 4    1  0.2489209E-004  0.1896933E+03  0.7818608E-02  0.1158738E+00
         -2   -1    0    0    0  501 -0.00000000000E+00  0.00000000000E+00  0.24578454904E+03  0.24578454905E+03  0.25500000000E-02 0. -1.
          2   -1    0    0  501    0  0.00000000000E+00 -0.00000000000E+00 -0.36600711069E+02  0.36600711158E+02  0.25500000000E-02 0.  1.
    5000001    1    1    2    0    0 -0.21279692806E+02  0.50266213388E+02  0.90677166630E+02  0.13088493451E+03  0.77000000000E+02 0.  0.
   -5000001    1    1    2    0    0  0.21279692806E+02 -0.50266213388E+02  0.11850667134E+03  0.15150032570E+03  0.77000000000E+02 0.  0.
<mgrwt>
<rscale>  0 0.18969332E+03</rscale>
<asrwt>0</asrwt>
<pdfrwt beam="1">  1        2 0.56308784E-02 0.18969332E+03</pdfrwt>
<pdfrwt beam="2">  1       -2 0.37813009E-01 0.18969332E+03</pdfrwt>
<totfact> 0.86144468E+03</totfact>
</mgrwt>
</event>
<event>
 4    1  0.2489209E-004  0.4979295E+03  0.7818608E-02  0.1014321E+00
         -2   -1    0    0    0  501 -0.00000000000E+00  0.00000000000E+00  0.14582063050E+03  0.14582063053E+03  0.25500000000E-02 0. -1.
          2   -1    0    0  501    0  0.00000000000E+00 -0.00000000000E+00 -0.42506631097E+03  0.42506631097E+03  0.25500000000E-02 0.  1.
    5000001    1    1    2    0    0 -0.16826704615E+03 -0.14980981028E+03 -0.22307244827E+03  0.32626231050E+03  0.77000000000E+02 0.  0.
   -5000001    1    1    2    0    0  0.16826704615E+03  0.14980981028E+03 -0.56173232192E+02  0.24462463100E+03  0.77000000000E+02 0.  0.
<mgrwt>
<rscale>  0 0.49792946E+03</rscale>
<asrwt>0</asrwt>
<pdfrwt beam="1">  1        2 0.65394816E-01 0.49792946E+03</pdfrwt>
<pdfrwt beam="2">  1       -2 0.22433943E-01 0.49792946E+03</pdfrwt>
<totfact> 0.12919769E+03</totfact>
</mgrwt>
</event>
<event>
 4    1  0.2489209E-004  0.3924942E+03  0.7818608E-02  0.1046410E+00
         -2   -1    0    0    0  501 -0.00000000000E+00  0.00000000000E+00  0.83764255214E+02  0.83764255253E+02  0.25500000000E-02 0. -1.
          2   -1    0    0  501    0  0.00000000000E+00 -0.00000000000E+00 -0.45977753947E+03  0.45977753948E+03  0.25500000000E-02 0.  1.
    5000001    1    1    2    0    0  0.16920020288E+03  0.30706763824E+01 -0.10101722099E+03  0.21159304489E+03  0.77000000000E+02 0.  0.
   -5000001    1    1    2    0    0 -0.16920020288E+03 -0.30706763824E+01 -0.27499606327E+03  0.33194874984E+03  0.77000000000E+02 0.  0.
<mgrwt>
<rscale>  0 0.39249419E+03</rscale>
<asrwt>0</asrwt>
<pdfrwt beam="1">  1        2 0.70735005E-01 0.39249419E+03</pdfrwt>
<pdfrwt beam="2">  1       -2 0.12886809E-01 0.39249419E+03</pdfrwt>
<totfact> 0.30275289E+03</totfact>
</mgrwt>
</event>
<event>
 4    1  0.2489209E-004  0.2058952E+03  0.7818608E-02  0.1144858E+00
         -2   -1    0    0    0  501 -0.00000000000E+00  0.00000000000E+00  0.20913804756E+03  0.20913804758E+03  0.25500000000E-02 0. -1.
          2   -1    0    0  501    0  0.00000000000E+00 -0.00000000000E+00 -0.50675641280E+02  0.50675641344E+02  0.25500000000E-02 0.  1.
    5000001    1    1    2    0    0  0.23454420735E+02 -0.60460306470E+02  0.10640242842E+03  0.14647878783E+03  0.77000000000E+02 0.  0.
   -5000001    1    1    2    0    0 -0.23454420735E+02  0.60460306470E+02  0.52059977863E+02  0.11333490109E+03  0.77000000000E+02 0.  0.
<mgrwt>
<rscale>  0 0.20589516E+03</rscale>
<asrwt>0</asrwt>
<pdfrwt beam="1">  1        2 0.77962525E-02 0.20589516E+03</pdfrwt>
<pdfrwt beam="2">  1       -2 0.32175084E-01 0.20589516E+03</pdfrwt>
<totfact> 0.76900323E+03</totfact>
</mgrwt>
</event>
<event>
 4    1  0.2489209E-004  0.1938125E+03  0.7818608E-02  0.1155067E+00
          2   -1    0    0  501    0  0.00000000000E+00  0.00000000000E+00  0.18284058654E+03  0.18284058655E+03  0.25500000000E-02 0.  1.
         -2   -1    0    0    0  501 -0.00000000000E+00 -0.00000000000E+00 -0.51360692718E+02  0.51360692781E+02  0.25500000000E-02 0. -1.
    5000001    1    1    2    0    0  0.38931226411E+02  0.28983231872E+02  0.25550248223E+02  0.94538263702E+02  0.77000000000E+02 0.  0.
   -5000001    1    1    2    0    0 -0.38931226411E+02 -0.28983231872E+02  0.10592964559E+03  0.13966301563E+03  0.77000000000E+02 0.  0.
<mgrwt>
<rscale>  0 0.19381248E+03</rscale>
<asrwt>0</asrwt>
<pdfrwt beam="1">  1        2 0.28129321E-01 0.19381248E+03</pdfrwt>
<pdfrwt beam="2">  1       -2 0.79016451E-02 0.19381248E+03</pdfrwt>
<totfact> 0.17479974E+04</totfact>
</mgrwt>
</event>
<event>
 4    1  0.2489209E-004  0.2154102E+03  0.7818608E-02  0.1137352E+00
          2   -1    0    0  501    0  0.00000000000E+00  0.00000000000E+00  0.17168658642E+04  0.17168658642E+04  0.25500000000E-02 0.  1.
         -2   -1    0    0    0  501 -0.00000000000E+00 -0.00000000000E+00 -0.67567245226E+01  0.67567250038E+01  0.25500000000E-02 0. -1.
    5000001    1    1    2    0    0  0.24724031968E+01 -0.72675245666E+02  0.69834076524E+03  0.70632614882E+03  0.77000000000E+02 0.  0.
   -5000001    1    1    2    0    0 -0.24724031968E+01  0.72675245666E+02  0.10117683744E+04  0.10172964403E+04  0.77000000000E+02 0.  0.
<mgrwt>
<rscale>  0 0.21541021E+03</rscale>
<asrwt>0</asrwt>
<pdfrwt beam="1">  1        2 0.26413294E+00 0.21541021E+03</pdfrwt>
<pdfrwt beam="2">  1       -2 0.10394972E-02 0.21541021E+03</pdfrwt>
<totfact> 0.20884190E+04</totfact>
</mgrwt>
</event>
<event>
 4    1  0.2489209E-004  0.1818886E+03  0.7818608E-02  0.1165988E+00
          2   -1    0    0  501    0  0.00000000000E+00  0.00000000000E+00  0.18517671170E+03  0.18517671172E+03  0.25500000000E-02 0.  1.
         -2   -1    0    0    0  501 -0.00000000000E+00 -0.00000000000E+00 -0.44664731300E+02  0.44664731373E+02  0.25500000000E-02 0. -1.
    5000001    1    1    2    0    0 -0.44580978016E+02 -0.46159486015E+00  0.94037630716E+02  0.12945946339E+03  0.77000000000E+02 0.  0.
   -5000001    1    1    2    0    0  0.44580978016E+02  0.46159486015E+00  0.46474349689E+02  0.10038197971E+03  0.77000000000E+02 0.  0.
<mgrwt>
<rscale>  0 0.18188863E+03</rscale>
<asrwt>0</asrwt>
<pdfrwt beam="1">  1        2 0.28488725E-01 0.18188863E+03</pdfrwt>
<pdfrwt beam="2">  1       -2 0.68714970E-02 0.18188863E+03</pdfrwt>
<totfact> 0.21281385E+04</totfact>
</mgrwt>
</event>
<event>
 4    1  0.2489209E-004  0.1861012E+03  0.7818608E-02  0.1162026E+00
         -2   -1    0    0    0  501 -0.00000000000E+00  0.00000000000E+00  0.86418172461E+01  0.86418176223E+01  0.25500000000E-02 0. -1.
          2   -1    0    0  501    0  0.00000000000E+00 -0.00000000000E+00 -0.10019204519E+04  0.10019204519E+04  0.25500000000E-02 0.  1.
    5000001    1    1    2    0    0  0.46459136348E+02  0.10783494687E+02 -0.38085062746E+03  0.39147277752E+03  0.77000000000E+02 0.  0.
   -5000001    1    1    2    0    0 -0.46459136348E+02 -0.10783494687E+02 -0.61242800721E+03  0.61908949202E+03  0.77000000000E+02 0.  0.
<mgrwt>
<rscale>  0 0.18610119E+03</rscale>
<asrwt>0</asrwt>
<pdfrwt beam="1">  1        2 0.15414152E+00 0.18610119E+03</pdfrwt>
<pdfrwt beam="2">  1       -2 0.13295112E-02 0.18610119E+03</pdfrwt>
<totfact> 0.35763080E+04</totfact>
</mgrwt>
</event>
<event>
 4    1  0.2489209E-004  0.2193113E+03  0.7818608E-02  0.1134398E+00
          2   -1    0    0  501    0  0.00000000000E+00  0.00000000000E+00  0.42756062997E+03  0.42756062998E+03  0.25500000000E-02 0. -1.
         -2   -1    0    0    0  501 -0.00000000000E+00 -0.00000000000E+00 -0.28123161676E+02  0.28123161792E+02  0.25500000000E-02 0.  1.
    5000001    1    1    2    0    0 -0.71358534211E+02 -0.31609608533E+02  0.20395101145E+03  0.23155177138E+03  0.77000000000E+02 0.  0.
   -5000001    1    1    2    0    0  0.71358534211E+02  0.31609608533E+02  0.19548645684E+03  0.22413202039E+03  0.77000000000E+02 0.  0.
<mgrwt>
<rscale>  0 0.21931126E+03</rscale>
<asrwt>0</asrwt>
<pdfrwt beam="1">  1        2 0.65778552E-01 0.21931126E+03</pdfrwt>
<pdfrwt beam="2">  1       -2 0.43266407E-02 0.21931126E+03</pdfrwt>
<totfact> 0.17689783E+04</totfact>
</mgrwt>
</event>
<event>
 4    1  0.2489209E-004  0.2610740E+03  0.7818608E-02  0.1106500E+00
          2   -1    0    0  501    0  0.00000000000E+00  0.00000000000E+00  0.32290239223E+03  0.32290239224E+03  0.25500000000E-02 0.  1.
         -2   -1    0    0    0  501 -0.00000000000E+00 -0.00000000000E+00 -0.52771065688E+02  0.52771065749E+02  0.25500000000E-02 0. -1.
    5000001    1    1    2    0    0 -0.56605888534E+02 -0.35170899233E+02  0.17548959481E+02  0.10333530253E+03  0.77000000000E+02 0.  0.
   -5000001    1    1    2    0    0  0.56605888534E+02  0.35170899233E+02  0.25258236706E+03  0.27233815546E+03  0.77000000000E+02 0.  0.
<mgrwt>
<rscale>  0 0.26107396E+03</rscale>
<asrwt>0</asrwt>
<pdfrwt beam="1">  1        2 0.49677291E-01 0.26107396E+03</pdfrwt>
<pdfrwt beam="2">  1       -2 0.81186254E-02 0.26107396E+03</pdfrwt>
<totfact> 0.92240736E+03</totfact>
</mgrwt>
</event>
<event>
 4    1  0.2489209E-004  0.2179951E+03  0.7818608E-02  0.1135387E+00
          2   -1    0    0  501    0  0.00000000000E+00  0.00000000000E+00  0.27005437705E+04  0.27005437705E+04  0.25500000000E-02 0.  1.
         -2   -1    0    0    0  501 -0.00000000000E+00 -0.00000000000E+00 -0.43992856560E+01  0.43992863950E+01  0.25500000000E-02 0. -1.
    5000001    1    1    2    0    0  0.33425525440E+02  0.69248461274E+02  0.12707324124E+04  0.12753832675E+04  0.77000000000E+02 0.  0.
   -5000001    1    1    2    0    0 -0.33425525440E+02 -0.69248461274E+02  0.14254120725E+04  0.14295597895E+04  0.77000000000E+02 0.  0.
<mgrwt>
<rscale>  0 0.21799509E+03</rscale>
<asrwt>0</asrwt>
<pdfrwt beam="1">  1        2 0.41546753E+00 0.21799509E+03</pdfrwt>
<pdfrwt beam="2">  1       -2 0.67681444E-03 0.21799509E+03</pdfrwt>
<totfact> 0.11623885E+04</totfact>
</mgrwt>
</event>
<event>
 4    1  0.2489209E-004  0.2951734E+03  0.7818608E-02  0.1087679E+00
         -2   -1    0    0    0  501 -0.00000000000E+00  0.00000000000E+00  0.21779696415E+03  0.21779696417E+03  0.25500000000E-02 0. -1.
          2   -1    0    0  501    0  0.00000000000E+00 -0.00000000000E+00 -0.10000981100E+03  0.10000981103E+03  0.25500000000E-02 0.  1.
    5000001    1    1    2    0    0  0.88531032672E+02 -0.88235310922E+02  0.42578458533E+02  0.15285659610E+03  0.77000000000E+02 0.  0.
   -5000001    1    1    2    0    0 -0.88531032672E+02  0.88235310922E+02  0.75208694620E+02  0.16495017910E+03  0.77000000000E+02 0.  0.
<mgrwt>
<rscale>  0 0.29517339E+03</rscale>
<asrwt>0</asrwt>
<pdfrwt beam="1">  1        2 0.15386125E-01 0.29517339E+03</pdfrwt>
<pdfrwt beam="2">  1       -2 0.33507225E-01 0.29517339E+03</pdfrwt>
<totfact> 0.31461450E+03</totfact>
</mgrwt>
</event>
<event>
 4    1  0.2489209E-004  0.2223260E+03  0.7818608E-02  0.1132161E+00
          2   -1    0    0  501    0  0.00000000000E+00  0.00000000000E+00  0.17503414288E+03  0.17503414290E+03  0.25500000000E-02 0.  1.
         -2   -1    0    0    0  501 -0.00000000000E+00 -0.00000000000E+00 -0.70598855204E+02  0.70598855250E+02  0.25500000000E-02 0. -1.
    5000001    1    1    2    0    0  0.35086550111E+01 -0.79865389260E+02  0.45459259170E+02  0.11994305026E+03  0.77000000000E+02 0.  0.
   -5000001    1    1    2    0    0 -0.35086550111E+01  0.79865389260E+02  0.58976028505E+02  0.12568994789E+03  0.77000000000E+02 0.  0.
<mgrwt>
<rscale>  0 0.22232598E+03</rscale>
<asrwt>0</asrwt>
<pdfrwt beam="1">  1        2 0.26928330E-01 0.22232598E+03</pdfrwt>
<pdfrwt beam="2">  1       -2 0.10861362E-01 0.22232598E+03</pdfrwt>
<totfact> 0.11219759E+04</totfact>
</mgrwt>
</event>
<event>
 4    1  0.2489209E-004  0.2836260E+03  0.7818608E-02  0.1093725E+00
         -2   -1    0    0    0  501 -0.00000000000E+00  0.00000000000E+00  0.21027584416E+03  0.21027584417E+03  0.25500000000E-02 0. -1.
          2   -1    0    0  501    0  0.00000000000E+00 -0.00000000000E+00 -0.95640668902E+02  0.95640668936E+02  0.25500000000E-02 0.  1.
    5000001    1    1    2    0    0  0.38224603677E+02 -0.34438853165E+02 -0.58523159948E+02  0.10954960148E+03  0.77000000000E+02 0.  0.
   -5000001    1    1    2    0    0 -0.38224603677E+02  0.34438853165E+02  0.17315833520E+03  0.19636691163E+03  0.77000000000E+02 0.  0.
<mgrwt>
<rscale>  0 0.28362597E+03</rscale>
<asrwt>0</asrwt>
<pdfrwt beam="1">  1        2 0.14713949E-01 0.28362597E+03</pdfrwt>
<pdfrwt beam="2">  1       -2 0.32350130E-01 0.28362597E+03</pdfrwt>
<totfact> 0.35361472E+03</totfact>
</mgrwt>
</event>
<event>
 4    1  0.2489209E-004  0.2970000E+03  0.7818608E-02  0.1086750E+00
          2   -1    0    0  501    0  0.00000000000E+00  0.00000000000E+00  0.52027775875E+03  0.52027775876E+03  0.25500000000E-02 0.  1.
         -2   -1    0    0    0  501 -0.00000000000E+00 -0.00000000000E+00 -0.42385521713E+02  0.42385521790E+02  0.25500000000E-02 0. -1.
    5000001    1    1    2    0    0  0.38090590553E+02  0.12090759607E+03  0.22506267923E+03  0.26953988473E+03  0.77000000000E+02 0.  0.
   -5000001    1    1    2    0    0 -0.38090590553E+02 -0.12090759607E+03  0.25282955781E+03  0.29312339582E+03  0.77000000000E+02 0.  0.
<mgrwt>
<rscale>  0 0.29699996E+03</rscale>
<asrwt>0</asrwt>
<pdfrwt beam="1">  1        2 0.80042733E-01 0.29699996E+03</pdfrwt>
<pdfrwt beam="2">  1       -2 0.65208495E-02 0.29699996E+03</pdfrwt>
<totfact> 0.77284133E+03</totfact>
</mgrwt>
</event>
<event>
 4    1  0.2489209E-004  0.2133167E+03  0.7818608E-02  0.1138966E+00
         -2   -1    0    0    0  501 -0.00000000000E+00  0.00000000000E+00  0.44964982119E+02  0.44964982192E+02  0.25500000000E-02 0. -1.
          2   -1    0    0  501    0  0.00000000000E+00 -0.00000000000E+00 -0.25299693674E+03  0.25299693676E+03  0.25500000000E-02 0.  1.
    5000001    1    1    2    0    0 -0.31634417790E+02 -0.59928788592E+02 -0.14485448567E+03  0.17749371288E+03  0.77000000000E+02 0.  0.
   -5000001    1    1    2    0    0  0.31634417790E+02  0.59928788592E+02 -0.63177468951E+02  0.12046820607E+03  0.77000000000E+02 0.  0.
<mgrwt>
<rscale>  0 0.21331669E+03</rscale>
<asrwt>0</asrwt>
<pdfrwt beam="1">  1        2 0.38922605E-01 0.21331669E+03</pdfrwt>
<pdfrwt beam="2">  1       -2 0.69176898E-02 0.21331669E+03</pdfrwt>
<totfact> 0.15197744E+04</totfact>
</mgrwt>
</event>
<event>
 4    1  0.2489209E-004  0.4660513E+03  0.7818608E-02  0.1023041E+00
          2   -1    0    0  501    0  0.00000000000E+00  0.00000000000E+00  0.25762251531E+04  0.25762251531E+04  0.25500000000E-02 0.  1.
         -2   -1    0    0    0  501 -0.00000000000E+00 -0.00000000000E+00 -0.21077719908E+02  0.21077720062E+02  0.25500000000E-02 0. -1.
    5000001    1    1    2    0    0  0.69656468893E+02 -0.19694451383E+03  0.16609695301E+04  0.16758245568E+04  0.77000000000E+02 0.  0.
   -5000001    1    1    2    0    0 -0.69656468893E+02  0.19694451383E+03  0.89417790314E+03  0.92147831643E+03  0.77000000000E+02 0.  0.
<mgrwt>
<rscale>  0 0.46605130E+03</rscale>
<asrwt>0</asrwt>
<pdfrwt beam="1">  1        2 0.39634250E+00 0.46605130E+03</pdfrwt>
<pdfrwt beam="2">  1       -2 0.32427248E-02 0.46605130E+03</pdfrwt>
<totfact> 0.13437443E+03</totfact>
</mgrwt>
</event>
<event>
 4    1  0.2489209E-004  0.4326851E+03  0.7818608E-02  0.1033015E+00
          2   -1    0    0  501    0  0.00000000000E+00  0.00000000000E+00  0.39242607775E+03  0.39242607776E+03  0.25500000000E-02 0.  1.
         -2   -1    0    0    0  501 -0.00000000000E+00 -0.00000000000E+00 -0.11926859846E+03  0.11926859849E+03  0.25500000000E-02 0. -1.
    5000001    1    1    2    0    0 -0.19113153967E+03 -0.40876810331E+02  0.19771975471E+03  0.28848618768E+03  0.77000000000E+02 0.  0.
   -5000001    1    1    2    0    0  0.19113153967E+03  0.40876810331E+02  0.75437724583E+02  0.22320848857E+03  0.77000000000E+02 0.  0.
<mgrwt>
<rscale>  0 0.43268514E+03</rscale>
<asrwt>0</asrwt>
<pdfrwt beam="1">  1        2 0.60373242E-01 0.43268514E+03</pdfrwt>
<pdfrwt beam="2">  1       -2 0.18349016E-01 0.43268514E+03</pdfrwt>
<totfact> 0.20000862E+03</totfact>
</mgrwt>
</event>
<event>
 4    1  0.2489209E-004  0.2980145E+03  0.7818608E-02  0.1086237E+00
          2   -1    0    0  501    0  0.00000000000E+00  0.00000000000E+00  0.15558623538E+04  0.15558623538E+04  0.25500000000E-02 0.  1.
         -2   -1    0    0    0  501 -0.00000000000E+00 -0.00000000000E+00 -0.14270643423E+02  0.14270643651E+02  0.25500000000E-02 0. -1.
    5000001    1    1    2    0    0  0.66848659408E+02 -0.93055759994E+02  0.47527975126E+03  0.49492217539E+03  0.77000000000E+02 0.  0.
   -5000001    1    1    2    0    0 -0.66848659408E+02  0.93055759994E+02  0.10663119591E+04  0.10752108221E+04  0.77000000000E+02 0.  0.
<mgrwt>
<rscale>  0 0.29801448E+03</rscale>
<asrwt>0</asrwt>
<pdfrwt beam="1">  1        2 0.23936349E+00 0.29801448E+03</pdfrwt>
<pdfrwt beam="2">  1       -2 0.21954831E-02 0.29801448E+03</pdfrwt>
<totfact> 0.85935664E+03</totfact>
</mgrwt>
</event>
<event>
 4    1  0.2489209E-004  0.1608311E+03  0.7818608E-02  0.1187762E+00
          2   -1    0    0  501    0  0.00000000000E+00  0.00000000000E+00  0.10990403605E+04  0.10990403605E+04  0.25500000000E-02 0.  1.
         -2   -1    0    0    0  501 -0.00000000000E+00 -0.00000000000E+00 -0.58839157106E+01  0.58839162632E+01  0.25500000000E-02 0. -1.
    5000001    1    1    2    0    0 -0.22508582711E+02 -0.36495141208E+01  0.57548645201E+03  0.58106248519E+03  0.77000000000E+02 0.  0.
   -5000001    1    1    2    0    0  0.22508582711E+02  0.36495141208E+01  0.51766999282E+03  0.52386179162E+03  0.77000000000E+02 0.  0.
<mgrwt>
<rscale>  0 0.16083111E+03</rscale>
<asrwt>0</asrwt>
<pdfrwt beam="1">  1        2 0.16908310E+00 0.16083111E+03</pdfrwt>
<pdfrwt beam="2">  1       -2 0.90521801E-03 0.16083111E+03</pdfrwt>
<totfact> 0.53879846E+04</totfact>
</mgrwt>
</event>
<event>
 4    1  0.2489209E-004  0.2120653E+03  0.7818608E-02  0.1139941E+00
         -2   -1    0    0    0  501 -0.00000000000E+00  0.00000000000E+00  0.16182471222E+02  0.16182471423E+02  0.25500000000E-02 0. -1.
          2   -1    0    0  501    0  0.00000000000E+00 -0.00000000000E+00 -0.69475961071E+03  0.69475961072E+03  0.25500000000E-02 0.  1.
    5000001    1    1    2    0    0 -0.32472767918E+02  0.53871899123E+02 -0.46279708355E+03  0.47335695063E+03  0.77000000000E+02 0.  0.
   -5000001    1    1    2    0    0  0.32472767918E+02 -0.53871899123E+02 -0.21578005594E+03  0.23758513151E+03  0.77000000000E+02 0.  0.
<mgrwt>
<rscale>  0 0.21206534E+03</rscale>
<asrwt>0</asrwt>
<pdfrwt beam="1">  1        2 0.10688607E+00 0.21206534E+03</pdfrwt>
<pdfrwt beam="2">  1       -2 0.24896115E-02 0.21206534E+03</pdfrwt>
<totfact> 0.23145512E+04</totfact>
</mgrwt>
</event>
<event>
 4    1  0.2489209E-004  0.2611912E+03  0.7818608E-02  0.1106430E+00
          2   -1    0    0  501    0  0.00000000000E+00  0.00000000000E+00  0.12641348781E+04  0.12641348782E+04  0.25500000000E-02 0.  1.
         -2   -1    0    0    0  501 -0.00000000000E+00 -0.00000000000E+00 -0.13491608944E+02  0.13491609185E+02  0.25500000000E-02 0. -1.
    5000001    1    1    2    0    0  0.19169589205E+02 -0.76503311567E+02  0.96793822025E+03  0.97419383495E+03  0.77000000000E+02 0.  0.
   -5000001    1    1    2    0    0 -0.19169589205E+02  0.76503311567E+02  0.28270504895E+03  0.30343265239E+03  0.77000000000E+02 0.  0.
<mgrwt>
<rscale>  0 0.26119122E+03</rscale>
<asrwt>0</asrwt>
<pdfrwt beam="1">  1        2 0.19448228E+00 0.26119122E+03</pdfrwt>
<pdfrwt beam="2">  1       -2 0.20756322E-02 0.26119122E+03</pdfrwt>
<totfact> 0.13410241E+04</totfact>
</mgrwt>
</event>
<event>
 4    1  0.2489209E-004  0.1956941E+03  0.7818608E-02  0.1153424E+00
          2   -1    0    0  501    0  0.00000000000E+00  0.00000000000E+00  0.18322570496E+03  0.18322570498E+03  0.25500000000E-02 0.  1.
         -2   -1    0    0    0  501 -0.00000000000E+00 -0.00000000000E+00 -0.52252723976E+02  0.52252724038E+02  0.25500000000E-02 0. -1.
    5000001    1    1    2    0    0 -0.23881330193E+02  0.49631547495E+02  0.95240683231E+02  0.13428848119E+03  0.77000000000E+02 0.  0.
   -5000001    1    1    2    0    0  0.23881330193E+02 -0.49631547495E+02  0.35732297757E+02  0.10118994783E+03  0.77000000000E+02 0.  0.
<mgrwt>
<rscale>  0 0.19569407E+03</rscale>
<asrwt>0</asrwt>
<pdfrwt beam="1">  1        2 0.28188570E-01 0.19569407E+03</pdfrwt>
<pdfrwt beam="2">  1       -2 0.80388805E-02 0.19569407E+03</pdfrwt>
<totfact> 0.16991239E+04</totfact>
</mgrwt>
</event>
<event>
 4    1  0.2489209E-004  0.2352035E+03  0.7818608E-02  0.1123030E+00
          2   -1    0    0  501    0  0.00000000000E+00  0.00000000000E+00  0.15859879901E+03  0.15859879903E+03  0.25500000000E-02 0.  1.
         -2   -1    0    0    0  501 -0.00000000000E+00 -0.00000000000E+00 -0.87202266292E+02  0.87202266329E+02  0.25500000000E-02 0. -1.
    5000001    1    1    2    0    0  0.61638618938E+02 -0.63817213411E+02  0.30049287777E+02  0.12125970381E+03  0.77000000000E+02 0.  0.
   -5000001    1    1    2    0    0 -0.61638618938E+02  0.63817213411E+02  0.41347244940E+02  0.12454136155E+03  0.77000000000E+02 0.  0.
<mgrwt>
<rscale>  0 0.23520353E+03</rscale>
<asrwt>0</asrwt>
<pdfrwt beam="1">  1        2 0.24399815E-01 0.23520353E+03</pdfrwt>
<pdfrwt beam="2">  1       -2 0.13415733E-01 0.23520353E+03</pdfrwt>
<totfact> 0.89351889E+03</totfact>
</mgrwt>
</event>
<event>
 4    1  0.2489209E-004  0.3571231E+03  0.7818608E-02  0.1059729E+00
         -2   -1    0    0    0  501 -0.00000000000E+00  0.00000000000E+00  0.29570410196E+03  0.29570410197E+03  0.25500000000E-02 0. -1.
          2   -1    0    0  501    0  0.00000000000E+00 -0.00000000000E+00 -0.10782475923E+03  0.10782475926E+03  0.25500000000E-02 0.  1.
    5000001    1    1    2    0    0 -0.58895551820E+02  0.14481117234E+03  0.13793877217E+03  0.22225000906E+03  0.77000000000E+02 0.  0.
   -5000001    1    1    2    0    0  0.58895551820E+02 -0.14481117234E+03  0.49940570551E+02  0.18127885217E+03  0.77000000000E+02 0.  0.
<mgrwt>
<rscale>  0 0.35712308E+03</rscale>
<asrwt>0</asrwt>
<pdfrwt beam="1">  1        2 0.16588425E-01 0.35712308E+03</pdfrwt>
<pdfrwt beam="2">  1       -2 0.45492938E-01 0.35712308E+03</pdfrwt>
<totfact> 0.16114634E+03</totfact>
</mgrwt>
</event>
<event>
 4    1  0.2489209E-004  0.1819354E+03  0.7818608E-02  0.1165943E+00
          2   -1    0    0  501    0  0.00000000000E+00  0.00000000000E+00  0.18782995448E+03  0.18782995450E+03  0.25500000000E-02 0.  1.
         -2   -1    0    0    0  501 -0.00000000000E+00 -0.00000000000E+00 -0.44056452713E+02  0.44056452787E+02  0.25500000000E-02 0. -1.
    5000001    1    1    2    0    0  0.45960848825E+02 -0.12316598980E+02  0.60343538644E+02  0.10878621646E+03  0.77000000000E+02 0.  0.
   -5000001    1    1    2    0    0 -0.45960848825E+02  0.12316598980E+02  0.83429963127E+02  0.12310019083E+03  0.77000000000E+02 0.  0.
<mgrwt>
<rscale>  0 0.18193539E+03</rscale>
<asrwt>0</asrwt>
<pdfrwt beam="1">  1        2 0.28896916E-01 0.18193539E+03</pdfrwt>
<pdfrwt beam="2">  1       -2 0.67779159E-02 0.18193539E+03</pdfrwt>
<totfact> 0.21399294E+04</totfact>
</mgrwt>
</event>
<event>
 4    1  0.2489209E-004  0.1802336E+03  0.7818608E-02  0.1167577E+00
         -2   -1    0    0    0  501 -0.00000000000E+00  0.00000000000E+00  0.16710230569E+02  0.16710230764E+02  0.25500000000E-02 0. -1.
          2   -1    0    0  501    0  0.00000000000E+00 -0.00000000000E+00 -0.48599174463E+03  0.48599174463E+03  0.25500000000E-02 0.  1.
    5000001    1    1    2    0    0  0.27416693137E+02 -0.13981324384E+02 -0.33305069604E+03  0.34321847070E+03  0.77000000000E+02 0.  0.
   -5000001    1    1    2    0    0 -0.27416693137E+02  0.13981324384E+02 -0.13623081802E+03  0.15948350470E+03  0.77000000000E+02 0.  0.
<mgrwt>
<rscale>  0 0.18023356E+03</rscale>
<asrwt>0</asrwt>
<pdfrwt beam="1">  1        2 0.74767950E-01 0.18023356E+03</pdfrwt>
<pdfrwt beam="2">  1       -2 0.25708051E-02 0.18023356E+03</pdfrwt>
<totfact> 0.32841258E+04</totfact>
</mgrwt>
</event>
<event>
 4    1  0.2489209E-004  0.3888751E+03  0.7818608E-02  0.1047701E+00
         -2   -1    0    0    0  501 -0.00000000000E+00  0.00000000000E+00  0.25900628708E+02  0.25900628834E+02  0.25500000000E-02 0. -1.
          2   -1    0    0  501    0  0.00000000000E+00 -0.00000000000E+00 -0.14596542333E+04  0.14596542333E+04  0.25500000000E-02 0.  1.
    5000001    1    1    2    0    0 -0.10252038853E+03  0.95102953641E+02 -0.11409281597E+04  0.11520421292E+04  0.77000000000E+02 0.  0.
   -5000001    1    1    2    0    0  0.10252038853E+03 -0.95102953641E+02 -0.29282544490E+03  0.33351273294E+03  0.77000000000E+02 0.  0.
<mgrwt>
<rscale>  0 0.38887511E+03</rscale>
<asrwt>0</asrwt>
<pdfrwt beam="1">  1        2 0.22456213E+00 0.38887511E+03</pdfrwt>
<pdfrwt beam="2">  1       -2 0.39847133E-02 0.38887511E+03</pdfrwt>
<totfact> 0.39730331E+03</totfact>
</mgrwt>
</event>
<event>
 4    1  0.2489209E-004  0.2282580E+03  0.7818608E-02  0.1127872E+00
         -2   -1    0    0    0  501 -0.00000000000E+00  0.00000000000E+00  0.94466352292E+02  0.94466352326E+02  0.25500000000E-02 0. -1.
          2   -1    0    0  501    0  0.00000000000E+00 -0.00000000000E+00 -0.13788437481E+03  0.13788437483E+03  0.25500000000E-02 0.  1.
    5000001    1    1    2    0    0  0.81464424991E+02  0.64478794271E+01 -0.88727126506E+00  0.11228452671E+03  0.77000000000E+02 0.  0.
   -5000001    1    1    2    0    0 -0.81464424991E+02 -0.64478794271E+01 -0.42530751253E+02  0.12006620045E+03  0.77000000000E+02 0.  0.
<mgrwt>
<rscale>  0 0.22825805E+03</rscale>
<asrwt>0</asrwt>
<pdfrwt beam="1">  1        2 0.21212981E-01 0.22825805E+03</pdfrwt>
<pdfrwt beam="2">  1       -2 0.14533285E-01 0.22825805E+03</pdfrwt>
<totfact> 0.91618642E+03</totfact>
</mgrwt>
</event>
<event>
 4    1  0.2489209E-004  0.2918094E+03  0.7818608E-02  0.1089408E+00
          2   -1    0    0  501    0  0.00000000000E+00  0.00000000000E+00  0.25690819775E+03  0.25690819776E+03  0.25500000000E-02 0.  1.
         -2   -1    0    0    0  501 -0.00000000000E+00 -0.00000000000E+00 -0.82863011301E+02  0.82863011341E+02  0.25500000000E-02 0. -1.
    5000001    1    1    2    0    0 -0.81885335979E+02 -0.56919187605E+02  0.13476593651E+01  0.12599927917E+03  0.77000000000E+02 0.  0.
   -5000001    1    1    2    0    0  0.81885335979E+02  0.56919187605E+02  0.17269752709E+03  0.21377192993E+03  0.77000000000E+02 0.  0.
<mgrwt>
<rscale>  0 0.29180944E+03</rscale>
<asrwt>0</asrwt>
<pdfrwt beam="1">  1        2 0.39524338E-01 0.29180944E+03</pdfrwt>
<pdfrwt beam="2">  1       -2 0.12748156E-01 0.29180944E+03</pdfrwt>
<totfact> 0.57740854E+03</totfact>
</mgrwt>
</event>
<event>
 4    1  0.2489209E-004  0.2730477E+03  0.7818608E-02  0.1099548E+00
         -2   -1    0    0    0  501 -0.00000000000E+00  0.00000000000E+00  0.24619287209E+02  0.24619287341E+02  0.25500000000E-02 0. -1.
          2   -1    0    0  501    0  0.00000000000E+00 -0.00000000000E+00 -0.75707952937E+03  0.75707952937E+03  0.25500000000E-02 0.  1.
    5000001    1    1    2    0    0  0.10566460683E+03  0.37675630565E+02 -0.33418441558E+03  0.36082223586E+03  0.77000000000E+02 0.  0.
   -5000001    1    1    2    0    0 -0.10566460683E+03 -0.37675630565E+02 -0.39827582658E+03  0.42087658086E+03  0.77000000000E+02 0.  0.
<mgrwt>
<rscale>  0 0.27304768E+03</rscale>
<asrwt>0</asrwt>
<pdfrwt beam="1">  1        2 0.11647376E+00 0.27304768E+03</pdfrwt>
<pdfrwt beam="2">  1       -2 0.37875832E-02 0.27304768E+03</pdfrwt>
<totfact> 0.11310810E+04</totfact>
</mgrwt>
</event>
<event>
 4    1  0.2489209E-004  0.2228356E+03  0.7818608E-02  0.1131786E+00
         -2   -1    0    0    0  501 -0.00000000000E+00  0.00000000000E+00  0.57517815155E+02  0.57517815212E+02  0.25500000000E-02 0. -1.
          2   -1    0    0  501    0  0.00000000000E+00 -0.00000000000E+00 -0.21582756485E+03  0.21582756486E+03  0.25500000000E-02 0.  1.
    5000001    1    1    2    0    0 -0.51239398328E+02 -0.44213679127E+02 -0.25620897097E+02  0.10566813962E+03  0.77000000000E+02 0.  0.
   -5000001    1    1    2    0    0  0.51239398328E+02  0.44213679127E+02 -0.13268885260E+03  0.16767724046E+03  0.77000000000E+02 0.  0.
<mgrwt>
<rscale>  0 0.22283563E+03</rscale>
<asrwt>0</asrwt>
<pdfrwt beam="1">  1        2 0.33204240E-01 0.22283563E+03</pdfrwt>
<pdfrwt beam="2">  1       -2 0.88488947E-02 0.22283563E+03</pdfrwt>
<totfact> 0.12338734E+04</totfact>
</mgrwt>
</event>
<event>
 4    1  0.2489209E-004  0.1664553E+03  0.7818608E-02  0.1181596E+00
          2   -1    0    0  501    0  0.00000000000E+00  0.00000000000E+00  0.88258892305E+02  0.88258892342E+02  0.25500000000E-02 0.  1.
         -2   -1    0    0    0  501 -0.00000000000E+00 -0.00000000000E+00 -0.78483223844E+02  0.78483223885E+02  0.25500000000E-02 0. -1.
    5000001    1    1    2    0    0 -0.13967683278E+02  0.26446559511E+02 -0.52946063124E+01  0.82774087383E+02  0.77000000000E+02 0.  0.
   -5000001    1    1    2    0    0  0.13967683278E+02 -0.26446559511E+02  0.15070274774E+02  0.83968028844E+02  0.77000000000E+02 0.  0.
<mgrwt>
<rscale>  0 0.16645531E+03</rscale>
<asrwt>0</asrwt>
<pdfrwt beam="1">  1        2 0.13578291E-01 0.16645531E+03</pdfrwt>
<pdfrwt beam="2">  1       -2 0.12074342E-01 0.16645531E+03</pdfrwt>
<totfact> 0.20314428E+04</totfact>
</mgrwt>
</event>
<event>
 4    1  0.2489209E-004  0.5484533E+03  0.7818608E-02  0.1001853E+00
         -2   -1    0    0    0  501 -0.00000000000E+00  0.00000000000E+00  0.73963337492E+03  0.73963337492E+03  0.25500000000E-02 0. -1.
          2   -1    0    0  501    0  0.00000000000E+00 -0.00000000000E+00 -0.10167232525E+03  0.10167232528E+03  0.25500000000E-02 0.  1.
    5000001    1    1    2    0    0  0.21588241855E+01  0.17105866407E+03  0.12167242483E+02  0.18799672568E+03  0.77000000000E+02 0.  0.
   -5000001    1    1    2    0    0 -0.21588241855E+01 -0.17105866407E+03  0.62579380719E+03  0.65330897452E+03  0.77000000000E+02 0.  0.
<mgrwt>
<rscale>  0 0.54845326E+03</rscale>
<asrwt>0</asrwt>
<pdfrwt beam="1">  1        2 0.15641896E-01 0.54845326E+03</pdfrwt>
<pdfrwt beam="2">  1       -2 0.11378975E+00 0.54845326E+03</pdfrwt>
<totfact> 0.23369074E+02</totfact>
</mgrwt>
</event>
<event>
 4    1  0.2489209E-004  0.2010866E+03  0.7818608E-02  0.1148826E+00
         -2   -1    0    0    0  501 -0.00000000000E+00  0.00000000000E+00  0.49804788396E+01  0.49804794924E+01  0.25500000000E-02 0. -1.
          2   -1    0    0  501    0  0.00000000000E+00 -0.00000000000E+00 -0.20297146659E+04  0.20297146659E+04  0.25500000000E-02 0.  1.
    5000001    1    1    2    0    0 -0.55044604049E+02 -0.60012982171E+00 -0.66927923211E+03  0.67593931615E+03  0.77000000000E+02 0.  0.
   -5000001    1    1    2    0    0  0.55044604049E+02  0.60012982171E+00 -0.13554549550E+04  0.13587558293E+04  0.77000000000E+02 0.  0.
<mgrwt>
<rscale>  0 0.20108656E+03</rscale>
<asrwt>0</asrwt>
<pdfrwt beam="1">  1        2 0.31226313E+00 0.20108656E+03</pdfrwt>
<pdfrwt beam="2">  1       -2 0.76622919E-03 0.20108656E+03</pdfrwt>
<totfact> 0.22223245E+04</totfact>
</mgrwt>
</event>
<event>
 4    1  0.2489209E-004  0.2505003E+03  0.7818608E-02  0.1112989E+00
          2   -1    0    0  501    0  0.00000000000E+00  0.00000000000E+00  0.41798806664E+03  0.41798806665E+03  0.25500000000E-02 0.  1.
         -2   -1    0    0    0  501 -0.00000000000E+00 -0.00000000000E+00 -0.37531214047E+02  0.37531214134E+02  0.25500000000E-02 0. -1.
    5000001    1    1    2    0    0  0.83702446765E+02 -0.37976195320E+02  0.25605258517E+03  0.28273701098E+03  0.77000000000E+02 0.  0.
   -5000001    1    1    2    0    0 -0.83702446765E+02  0.37976195320E+02  0.12440426743E+03  0.17278226981E+03  0.77000000000E+02 0.  0.
<mgrwt>
<rscale>  0 0.25050030E+03</rscale>
<asrwt>0</asrwt>
<pdfrwt beam="1">  1        2 0.64305852E-01 0.25050030E+03</pdfrwt>
<pdfrwt beam="2">  1       -2 0.57740333E-02 0.25050030E+03</pdfrwt>
<totfact> 0.11793712E+04</totfact>
</mgrwt>
</event>
<event>
 4    1  0.2489209E-004  0.2432904E+03  0.7818608E-02  0.1117620E+00
          2   -1    0    0  501    0  0.00000000000E+00  0.00000000000E+00  0.22286025678E+03  0.22286025679E+03  0.25500000000E-02 0.  1.
         -2   -1    0    0    0  501 -0.00000000000E+00 -0.00000000000E+00 -0.66398341765E+02  0.66398341814E+02  0.25500000000E-02 0. -1.
    5000001    1    1    2    0    0 -0.36115180111E+02 -0.68993127382E+02  0.15270865741E+02  0.11057376362E+03  0.77000000000E+02 0.  0.
   -5000001    1    1    2    0    0  0.36115180111E+02  0.68993127382E+02  0.14119104927E+03  0.17868483499E+03  0.77000000000E+02 0.  0.
<mgrwt>
<rscale>  0 0.24329037E+03</rscale>
<asrwt>0</asrwt>
<pdfrwt beam="1">  1        2 0.34286194E-01 0.24329037E+03</pdfrwt>
<pdfrwt beam="2">  1       -2 0.10215129E-01 0.24329037E+03</pdfrwt>
<totfact> 0.95449409E+03</totfact>
</mgrwt>
</event>
<event>
 4    1  0.2489209E-004  0.2236569E+03  0.7818608E-02  0.1131186E+00
          2   -1    0    0  501    0  0.00000000000E+00  0.00000000000E+00  0.38877251177E+03  0.38877251177E+03  0.25500000000E-02 0.  1.
         -2   -1    0    0    0  501 -0.00000000000E+00 -0.00000000000E+00 -0.32166891351E+02  0.32166891452E+02  0.25500000000E-02 0. -1.
    5000001    1    1    2    0    0  0.56091097153E+02 -0.53771867191E+01  0.28806963141E+03  0.30346043870E+03  0.77000000000E+02 0.  0.
   -5000001    1    1    2    0    0 -0.56091097153E+02  0.53771867191E+01  0.68535989008E+02  0.11747896453E+03  0.77000000000E+02 0.  0.
<mgrwt>
<rscale>  0 0.22365691E+03</rscale>
<asrwt>0</asrwt>
<pdfrwt beam="1">  1        2 0.59811154E-01 0.22365691E+03</pdfrwt>
<pdfrwt beam="2">  1       -2 0.49487526E-02 0.22365691E+03</pdfrwt>
<totfact> 0.16032183E+04</totfact>
</mgrwt>
</event>
<event>
 4    1  0.2489209E-004  0.2025816E+03  0.7818608E-02  0.1147579E+00
         -2   -1    0    0    0  501 -0.00000000000E+00  0.00000000000E+00  0.72184404476E+01  0.72184408980E+01  0.25500000000E-02 0. -1.
          2   -1    0    0  501    0  0.00000000000E+00 -0.00000000000E+00 -0.14213356470E+04  0.14213356470E+04  0.25500000000E-02 0.  1.
    5000001    1    1    2    0    0 -0.13577497935E+02  0.52995879007E+02 -0.96499403274E+03  0.96960579353E+03  0.77000000000E+02 0.  0.
   -5000001    1    1    2    0    0  0.13577497935E+02 -0.52995879007E+02 -0.44912317386E+03  0.45894829440E+03  0.77000000000E+02 0.  0.
<mgrwt>
<rscale>  0 0.20258161E+03</rscale>
<asrwt>0</asrwt>
<pdfrwt beam="1">  1        2 0.21866680E+00 0.20258161E+03</pdfrwt>
<pdfrwt beam="2">  1       -2 0.11105305E-02 0.20258161E+03</pdfrwt>
<totfact> 0.27087075E+04</totfact>
</mgrwt>
</event>
<event>
 4    1  0.2489209E-004  0.8130335E+03  0.7818608E-02  0.9541341E-01
          2   -1    0    0  501    0  0.00000000000E+00  0.00000000000E+00  0.15032178100E+04  0.15032178100E+04  0.25500000000E-02 0.  1.
         -2   -1    0    0    0  501 -0.00000000000E+00 -0.00000000000E+00 -0.10993473483E+03  0.10993473486E+03  0.25500000000E-02 0. -1.
    5000001    1    1    2    0    0  0.28119745772E+03 -0.35997376842E+02  0.12541711268E+04  0.12881156923E+04  0.77000000000E+02 0.  0.
   -5000001    1    1    2    0    0 -0.28119745772E+03  0.35997376842E+02  0.13911194837E+03  0.32503685260E+03  0.77000000000E+02 0.  0.
<mgrwt>
<rscale>  0 0.81303346E+03</rscale>
<asrwt>0</asrwt>
<pdfrwt beam="1">  1        2 0.23126426E+00 0.81303346E+03</pdfrwt>
<pdfrwt beam="2">  1       -2 0.16913038E-01 0.81303346E+03</pdfrwt>
<totfact> 0.36417050E+02</totfact>
</mgrwt>
</event>
<event>
 4    1  0.2489209E-004  0.2615781E+03  0.7818608E-02  0.1106199E+00
         -2   -1    0    0    0  501 -0.00000000000E+00  0.00000000000E+00  0.47227506577E+02  0.47227506646E+02  0.25500000000E-02 0.  1.
          2   -1    0    0  501    0  0.00000000000E+00 -0.00000000000E+00 -0.36219940953E+03  0.36219940954E+03  0.25500000000E-02 0. -1.
    5000001    1    1    2    0    0 -0.32155448364E+02  0.83708258780E+02 -0.69837485972E+02  0.13728554146E+03  0.77000000000E+02 0.  0.
   -5000001    1    1    2    0    0  0.32155448364E+02 -0.83708258780E+02 -0.24513441698E+03  0.27214137472E+03  0.77000000000E+02 0.  0.
<mgrwt>
<rscale>  0 0.26157810E+03</rscale>
<asrwt>0</asrwt>
<pdfrwt beam="1">  1        2 0.55722984E-01 0.26157810E+03</pdfrwt>
<pdfrwt beam="2">  1       -2 0.72657705E-02 0.26157810E+03</pdfrwt>
<totfact> 0.96885789E+03</totfact>
</mgrwt>
</event>
<event>
 4    1  0.2489209E-004  0.2844776E+03  0.7818608E-02  0.1093268E+00
         -2   -1    0    0    0  501 -0.00000000000E+00  0.00000000000E+00  0.26703673252E+02  0.26703673374E+02  0.25500000000E-02 0. -1.
          2   -1    0    0  501    0  0.00000000000E+00 -0.00000000000E+00 -0.75764401674E+03  0.75764401675E+03  0.25500000000E-02 0.  1.
    5000001    1    1    2    0    0  0.59763272724E+02 -0.81321416275E+02 -0.54240229551E+03  0.55705840958E+03  0.77000000000E+02 0.  0.
   -5000001    1    1    2    0    0 -0.59763272724E+02  0.81321416275E+02 -0.18853804798E+03  0.22728928054E+03  0.77000000000E+02 0.  0.
<mgrwt>
<rscale>  0 0.28447761E+03</rscale>
<asrwt>0</asrwt>
<pdfrwt beam="1">  1        2 0.11656060E+00 0.28447761E+03</pdfrwt>
<pdfrwt beam="2">  1       -2 0.41082580E-02 0.28447761E+03</pdfrwt>
<totfact> 0.10014297E+04</totfact>
</mgrwt>
</event>
<event>
 4    1  0.2489209E-004  0.3236043E+03  0.7818608E-02  0.1074002E+00
          2   -1    0    0  501    0  0.00000000000E+00  0.00000000000E+00  0.35358829995E+03  0.35358829996E+03  0.25500000000E-02 0.  1.
         -2   -1    0    0    0  501 -0.00000000000E+00 -0.00000000000E+00 -0.74040740057E+02  0.74040740101E+02  0.25500000000E-02 0. -1.
    5000001    1    1    2    0    0  0.12755615501E+03  0.62709104025E+02  0.13062466096E+03  0.20783360281E+03  0.77000000000E+02 0.  0.
   -5000001    1    1    2    0    0 -0.12755615501E+03 -0.62709104025E+02  0.14892289894E+03  0.21979543725E+03  0.77000000000E+02 0.  0.
<mgrwt>
<rscale>  0 0.32360432E+03</rscale>
<asrwt>0</asrwt>
<pdfrwt beam="1">  1        2 0.54398201E-01 0.32360432E+03</pdfrwt>
<pdfrwt beam="2">  1       -2 0.11390883E-01 0.32360432E+03</pdfrwt>
<totfact> 0.49211025E+03</totfact>
</mgrwt>
</event>
<event>
 4    1  0.2489209E-004  0.2434749E+03  0.7818608E-02  0.1117499E+00
         -2   -1    0    0    0  501 -0.00000000000E+00  0.00000000000E+00  0.36719469585E+01  0.36719478439E+01  0.25500000000E-02 0. -1.
          2   -1    0    0  501    0  0.00000000000E+00 -0.00000000000E+00 -0.40360057409E+04  0.40360057409E+04  0.25500000000E-02 0.  1.
    5000001    1    1    2    0    0  0.17402095865E+02 -0.63171947454E+02 -0.31411660514E+04  0.31427928169E+04  0.77000000000E+02 0.  0.
   -5000001    1    1    2    0    0 -0.17402095865E+02  0.63171947454E+02 -0.89116774263E+03  0.89688487187E+03  0.77000000000E+02 0.  0.
<mgrwt>
<rscale>  0 0.24347485E+03</rscale>
<asrwt>0</asrwt>
<pdfrwt beam="1">  1        2 0.62092041E+00 0.24347485E+03</pdfrwt>
<pdfrwt beam="2">  1       -2 0.56491821E-03 0.24347485E+03</pdfrwt>
<totfact> 0.20567769E+03</totfact>
</mgrwt>
</event>
<event>
 4    1  0.2489209E-004  0.2267725E+03  0.7818608E-02  0.1128932E+00
         -2   -1    0    0    0  501 -0.00000000000E+00  0.00000000000E+00  0.10026594072E+02  0.10026594396E+02  0.25500000000E-02 0. -1.
          2   -1    0    0  501    0  0.00000000000E+00 -0.00000000000E+00 -0.12822346647E+04  0.12822346647E+04  0.25500000000E-02 0.  1.
    5000001    1    1    2    0    0  0.63555987783E+02  0.37791147956E+02 -0.41837155051E+03  0.43177689693E+03  0.77000000000E+02 0.  0.
   -5000001    1    1    2    0    0 -0.63555987783E+02 -0.37791147956E+02 -0.85383652008E+03  0.86048436213E+03  0.77000000000E+02 0.  0.
<mgrwt>
<rscale>  0 0.22677254E+03</rscale>
<asrwt>0</asrwt>
<pdfrwt beam="1">  1        2 0.19726674E+00 0.22677254E+03</pdfrwt>
<pdfrwt beam="2">  1       -2 0.15425540E-02 0.22677254E+03</pdfrwt>
<totfact> 0.20125412E+04</totfact>
</mgrwt>
</event>
<event>
 4    1  0.2489209E-004  0.1809288E+03  0.7818608E-02  0.1166907E+00
         -2   -1    0    0    0  501 -0.00000000000E+00  0.00000000000E+00  0.60558657313E+01  0.60558662682E+01  0.25500000000E-02 0. -1.
          2   -1    0    0  501    0  0.00000000000E+00 -0.00000000000E+00 -0.13513851826E+04  0.13513851826E+04  0.25500000000E-02 0.  1.
    5000001    1    1    2    0    0  0.37485886866E+02  0.28361150471E+02 -0.62218976491E+03  0.62869599182E+03  0.77000000000E+02 0.  0.
   -5000001    1    1    2    0    0 -0.37485886866E+02 -0.28361150471E+02 -0.72313955192E+03  0.72874505701E+03  0.77000000000E+02 0.  0.
<mgrwt>
<rscale>  0 0.18092880E+03</rscale>
<asrwt>0</asrwt>
<pdfrwt beam="1">  1        2 0.20790517E+00 0.18092880E+03</pdfrwt>
<pdfrwt beam="2">  1       -2 0.93167276E-03 0.18092880E+03</pdfrwt>
<totfact> 0.37777422E+04</totfact>
</mgrwt>
</event>
<event>
 4    1  0.2489209E-004  0.2153555E+03  0.7818608E-02  0.1137394E+00
         -2   -1    0    0    0  501 -0.00000000000E+00  0.00000000000E+00  0.20233840488E+02  0.20233840648E+02  0.25500000000E-02 0. -1.
          2   -1    0    0  501    0  0.00000000000E+00 -0.00000000000E+00 -0.57302515866E+03  0.57302515867E+03  0.25500000000E-02 0.  1.
    5000001    1    1    2    0    0  0.72073146054E+02 -0.14493413851E+02 -0.23189901400E+03  0.25516808210E+03  0.77000000000E+02 0.  0.
   -5000001    1    1    2    0    0 -0.72073146054E+02  0.14493413851E+02 -0.32089230418E+03  0.33809091722E+03  0.77000000000E+02 0.  0.
<mgrwt>
<rscale>  0 0.21535552E+03</rscale>
<asrwt>0</asrwt>
<pdfrwt beam="1">  1        2 0.88157705E-01 0.21535552E+03</pdfrwt>
<pdfrwt beam="2">  1       -2 0.31128990E-02 0.21535552E+03</pdfrwt>
<totfact> 0.20860538E+04</totfact>
</mgrwt>
</event>
<event>
 4    1  0.2489209E-004  0.2552504E+03  0.7818608E-02  0.1110031E+00
         -2   -1    0    0    0  501 -0.00000000000E+00  0.00000000000E+00  0.21046902169E+02  0.21046902323E+02  0.25500000000E-02 0. -1.
          2   -1    0    0  501    0  0.00000000000E+00 -0.00000000000E+00 -0.77389991516E+03  0.77389991516E+03  0.25500000000E-02 0.  1.
    5000001    1    1    2    0    0  0.79615510894E+02 -0.62941939554E+02 -0.35252913751E+03  0.37484144664E+03  0.77000000000E+02 0.  0.
   -5000001    1    1    2    0    0 -0.79615510894E+02  0.62941939554E+02 -0.40032387548E+03  0.42010537084E+03  0.77000000000E+02 0.  0.
<mgrwt>
<rscale>  0 0.25525043E+03</rscale>
<asrwt>0</asrwt>
<pdfrwt beam="1">  1        2 0.11906150E+00 0.25525043E+03</pdfrwt>
<pdfrwt beam="2">  1       -2 0.32379856E-02 0.25525043E+03</pdfrwt>
<totfact> 0.13874739E+04</totfact>
</mgrwt>
</event>
<event>
 4    1  0.2489209E-004  0.3615705E+03  0.7818608E-02  0.1057964E+00
          2   -1    0    0  501    0  0.00000000000E+00  0.00000000000E+00  0.24104727313E+03  0.24104727315E+03  0.25500000000E-02 0.  1.
         -2   -1    0    0    0  501 -0.00000000000E+00 -0.00000000000E+00 -0.13558876859E+03  0.13558876861E+03  0.25500000000E-02 0. -1.
    5000001    1    1    2    0    0  0.15591771554E+03  0.28918985813E+02  0.10962935837E+02  0.17662340649E+03  0.77000000000E+02 0.  0.
   -5000001    1    1    2    0    0 -0.15591771554E+03 -0.28918985813E+02  0.94495568709E+02  0.20001263526E+03  0.77000000000E+02 0.  0.
<mgrwt>
<rscale>  0 0.36157048E+03</rscale>
<asrwt>0</asrwt>
<pdfrwt beam="1">  1        2 0.37084195E-01 0.36157048E+03</pdfrwt>
<pdfrwt beam="2">  1       -2 0.20859811E-01 0.36157048E+03</pdfrwt>
<totfact> 0.27253798E+03</totfact>
</mgrwt>
</event>
<event>
 4    1  0.2489209E-004  0.1704060E+03  0.7818608E-02  0.1177425E+00
          2   -1    0    0  501    0  0.00000000000E+00  0.00000000000E+00  0.49509820666E+03  0.49509820667E+03  0.25500000000E-02 0.  1.
         -2   -1    0    0    0  501 -0.00000000000E+00 -0.00000000000E+00 -0.14662852084E+02  0.14662852306E+02  0.25500000000E-02 0. -1.
    5000001    1    1    2    0    0  0.23855103082E+02 -0.14744444954E+02  0.17044007825E+03  0.18911711946E+03  0.77000000000E+02 0.  0.
   -5000001    1    1    2    0    0 -0.23855103082E+02  0.14744444954E+02  0.30999527633E+03  0.32064393951E+03  0.77000000000E+02 0.  0.
<mgrwt>
<rscale>  0 0.17040601E+03</rscale>
<asrwt>0</asrwt>
<pdfrwt beam="1">  1        2 0.76168952E-01 0.17040601E+03</pdfrwt>
<pdfrwt beam="2">  1       -2 0.22558235E-02 0.17040601E+03</pdfrwt>
<totfact> 0.38779340E+04</totfact>
</mgrwt>
</event>
<event>
 4    1  0.2489209E-004  0.3082367E+03  0.7818608E-02  0.1081194E+00
          2   -1    0    0  501    0  0.00000000000E+00  0.00000000000E+00  0.13155085618E+04  0.13155085618E+04  0.25500000000E-02 0.  1.
         -2   -1    0    0    0  501 -0.00000000000E+00 -0.00000000000E+00 -0.18055726355E+02  0.18055726535E+02  0.25500000000E-02 0. -1.
    5000001    1    1    2    0    0  0.13322078463E+03 -0.76694702909E+01  0.66649350981E+03  0.68406812296E+03  0.77000000000E+02 0.  0.
   -5000001    1    1    2    0    0 -0.13322078463E+03  0.76694702909E+01  0.63095932562E+03  0.64949616536E+03  0.77000000000E+02 0.  0.
<mgrwt>
<rscale>  0 0.30823668E+03</rscale>
<asrwt>0</asrwt>
<pdfrwt beam="1">  1        2 0.20238602E+00 0.30823668E+03</pdfrwt>
<pdfrwt beam="2">  1       -2 0.27778028E-02 0.30823668E+03</pdfrwt>
<totfact> 0.81899249E+03</totfact>
</mgrwt>
</event>
<event>
 4    1  0.2489209E-004  0.2243760E+03  0.7818608E-02  0.1130662E+00
          2   -1    0    0  501    0  0.00000000000E+00  0.00000000000E+00  0.70347768782E+03  0.70347768782E+03  0.25500000000E-02 0.  1.
         -2   -1    0    0    0  501 -0.00000000000E+00 -0.00000000000E+00 -0.17891325957E+02  0.17891326139E+02  0.25500000000E-02 0. -1.
    5000001    1    1    2    0    0 -0.17929495938E+01  0.72001956980E+02  0.46604358290E+03  0.47782121933E+03  0.77000000000E+02 0.  0.
   -5000001    1    1    2    0    0  0.17929495938E+01 -0.72001956980E+02  0.21954277896E+03  0.24354779463E+03  0.77000000000E+02 0.  0.
<mgrwt>
<rscale>  0 0.22437601E+03</rscale>
<asrwt>0</asrwt>
<pdfrwt beam="1">  1        2 0.10822734E+00 0.22437601E+03</pdfrwt>
<pdfrwt beam="2">  1       -2 0.27525117E-02 0.22437601E+03</pdfrwt>
<totfact> 0.19729454E+04</totfact>
</mgrwt>
</event>
<event>
 4    1  0.2489209E-004  0.5336449E+03  0.7818608E-02  0.1005352E+00
         -2   -1    0    0    0  501 -0.00000000000E+00  0.00000000000E+00  0.63358811007E+02  0.63358811058E+02  0.25500000000E-02 0. -1.
          2   -1    0    0  501    0  0.00000000000E+00 -0.00000000000E+00 -0.11236671112E+04  0.11236671112E+04  0.25500000000E-02 0.  1.
    5000001    1    1    2    0    0  0.16012346904E+03 -0.84634136333E+02 -0.93092905104E+03  0.95150426192E+03  0.77000000000E+02 0.  0.
   -5000001    1    1    2    0    0 -0.16012346904E+03  0.84634136333E+02 -0.12937924910E+03  0.23552166030E+03  0.77000000000E+02 0.  0.
<mgrwt>
<rscale>  0 0.53364487E+03</rscale>
<asrwt>0</asrwt>
<pdfrwt beam="1">  1        2 0.17287185E+00 0.53364487E+03</pdfrwt>
<pdfrwt beam="2">  1       -2 0.97475102E-02 0.53364487E+03</pdfrwt>
<totfact> 0.15225116E+03</totfact>
</mgrwt>
</event>
<event>
 4    1  0.2489209E-004  0.2999400E+03  0.7818608E-02  0.1085271E+00
         -2   -1    0    0    0  501 -0.00000000000E+00  0.00000000000E+00  0.15662878255E+03  0.15662878257E+03  0.25500000000E-02 0. -1.
          2   -1    0    0  501    0  0.00000000000E+00 -0.00000000000E+00 -0.14359433177E+03  0.14359433179E+03  0.25500000000E-02 0.  1.
    5000001    1    1    2    0    0  0.93904306868E+02  0.82764467039E+02  0.36445771856E+02  0.15141093137E+03  0.77000000000E+02 0.  0.
   -5000001    1    1    2    0    0 -0.93904306868E+02 -0.82764467039E+02 -0.23411321075E+02  0.14881218299E+03  0.77000000000E+02 0.  0.
<mgrwt>
<rscale>  0 0.29994003E+03</rscale>
<asrwt>0</asrwt>
<pdfrwt beam="1">  1        2 0.22091436E-01 0.29994003E+03</pdfrwt>
<pdfrwt beam="2">  1       -2 0.24096736E-01 0.29994003E+03</pdfrwt>
<totfact> 0.37510278E+03</totfact>
</mgrwt>
</event>
<event>
 4    1  0.2489209E-004  0.5284078E+03  0.7818608E-02  0.1006619E+00
          2   -1    0    0  501    0  0.00000000000E+00  0.00000000000E+00  0.34842008642E+03  0.34842008643E+03  0.25500000000E-02 0.  1.
         -2   -1    0    0    0  501 -0.00000000000E+00 -0.00000000000E+00 -0.20034349037E+03  0.20034349039E+03  0.25500000000E-02 0. -1.
    5000001    1    1    2    0    0  0.15740302296E+03  0.55425120151E+02  0.27115815134E+03  0.32757197472E+03  0.77000000000E+02 0.  0.
   -5000001    1    1    2    0    0 -0.15740302296E+03 -0.55425120151E+02 -0.12308155530E+03  0.22119160209E+03  0.77000000000E+02 0.  0.
<mgrwt>
<rscale>  0 0.52840778E+03</rscale>
<asrwt>0</asrwt>
<pdfrwt beam="1">  1        2 0.53603090E-01 0.52840778E+03</pdfrwt>
<pdfrwt beam="2">  1       -2 0.30822075E-01 0.52840778E+03</pdfrwt>
<totfact> 0.90796691E+02</totfact>
</mgrwt>
</event>
<event>
 4    1  0.2489209E-004  0.2308614E+03  0.7818608E-02  0.1126035E+00
          2   -1    0    0  501    0  0.00000000000E+00  0.00000000000E+00  0.31403445261E+04  0.31403445261E+04  0.25500000000E-02 0.  1.
         -2   -1    0    0    0  501 -0.00000000000E+00 -0.00000000000E+00 -0.42429245547E+01  0.42429253210E+01  0.25500000000E-02 0. -1.
    5000001    1    1    2    0    0  0.35361653519E+02  0.77358768332E+02  0.13955296563E+04  0.14002381395E+04  0.77000000000E+02 0.  0.
   -5000001    1    1    2    0    0 -0.35361653519E+02 -0.77358768332E+02  0.17405719452E+04  0.17443493120E+04  0.77000000000E+02 0.  0.
<mgrwt>
<rscale>  0 0.23086140E+03</rscale>
<asrwt>0</asrwt>
<pdfrwt beam="1">  1        2 0.48313058E+00 0.23086140E+03</pdfrwt>
<pdfrwt beam="2">  1       -2 0.65275681E-03 0.23086140E+03</pdfrwt>
<totfact> 0.67981507E+03</totfact>
</mgrwt>
</event>
<event>
 4    1  0.2489209E-004  0.1825450E+03  0.7818608E-02  0.1165363E+00
         -2   -1    0    0    0  501 -0.00000000000E+00  0.00000000000E+00  0.31277487220E+04  0.31277487220E+04  0.25500000000E-02 0. -1.
          2   -1    0    0  501    0  0.00000000000E+00 -0.00000000000E+00 -0.26634697805E+01  0.26634710012E+01  0.25500000000E-02 0.  1.
    5000001    1    1    2    0    0  0.48995250240E+02  0.40898515115E+00  0.15457028010E+04  0.15483949273E+04  0.77000000000E+02 0.  0.
   -5000001    1    1    2    0    0 -0.48995250240E+02 -0.40898515115E+00  0.15793824512E+04  0.15820172657E+04  0.77000000000E+02 0.  0.
<mgrwt>
<rscale>  0 0.18254497E+03</rscale>
<asrwt>0</asrwt>
<pdfrwt beam="1">  1        2 0.40976300E-03 0.18254497E+03</pdfrwt>
<pdfrwt beam="2">  1       -2 0.48119408E+00 0.18254497E+03</pdfrwt>
<totfact> 0.13568143E+02</totfact>
</mgrwt>
</event>
<event>
 4    1  0.2489209E-004  0.1875072E+03  0.7818608E-02  0.1160729E+00
         -2   -1    0    0    0  501 -0.00000000000E+00  0.00000000000E+00  0.11117530857E+02  0.11117531150E+02  0.25500000000E-02 0. -1.
          2   -1    0    0  501    0  0.00000000000E+00 -0.00000000000E+00 -0.79061981926E+03  0.79061981926E+03  0.25500000000E-02 0.  1.
    5000001    1    1    2    0    0 -0.27782362197E+02  0.42536035194E+02 -0.31825928402E+03  0.33135954159E+03  0.77000000000E+02 0.  0.
   -5000001    1    1    2    0    0  0.27782362197E+02 -0.42536035194E+02 -0.46124300438E+03  0.47037780882E+03  0.77000000000E+02 0.  0.
<mgrwt>
<rscale>  0 0.18750723E+03</rscale>
<asrwt>0</asrwt>
<pdfrwt beam="1">  1        2 0.12163377E+00 0.18750723E+03</pdfrwt>
<pdfrwt beam="2">  1       -2 0.17103900E-02 0.18750723E+03</pdfrwt>
<totfact> 0.33923660E+04</totfact>
</mgrwt>
</event>
<event>
 4    1  0.2489209E-004  0.1683896E+03  0.7818608E-02  0.1179538E+00
          2   -1    0    0  501    0  0.00000000000E+00  0.00000000000E+00  0.16038358989E+04  0.16038358989E+04  0.25500000000E-02 0.  1.
         -2   -1    0    0    0  501 -0.00000000000E+00 -0.00000000000E+00 -0.44198824828E+01  0.44198832184E+01  0.25500000000E-02 0. -1.
    5000001    1    1    2    0    0  0.13167160532E+02  0.31077577793E+02  0.75638396118E+03  0.76104197433E+03  0.77000000000E+02 0.  0.
   -5000001    1    1    2    0    0 -0.13167160532E+02 -0.31077577793E+02  0.84303205527E+03  0.84721380783E+03  0.77000000000E+02 0.  0.
<mgrwt>
<rscale>  0 0.16838963E+03</rscale>
<asrwt>0</asrwt>
<pdfrwt beam="1">  1        2 0.24674414E+00 0.16838963E+03</pdfrwt>
<pdfrwt beam="2">  1       -2 0.67998155E-03 0.16838963E+03</pdfrwt>
<totfact> 0.43414371E+04</totfact>
</mgrwt>
</event>
<event>
 4    1  0.2489209E-004  0.4062014E+03  0.7818608E-02  0.1041653E+00
         -2   -1    0    0    0  501 -0.00000000000E+00  0.00000000000E+00  0.21158638846E+02  0.21158639000E+02  0.25500000000E-02 0. -1.
          2   -1    0    0  501    0  0.00000000000E+00 -0.00000000000E+00 -0.19495528524E+04  0.19495528524E+04  0.25500000000E-02 0.  1.
    5000001    1    1    2    0    0 -0.42739171277E+02 -0.10157803438E+03 -0.17027852631E+04  0.17080841274E+04  0.77000000000E+02 0.  0.
   -5000001    1    1    2    0    0  0.42739171277E+02  0.10157803438E+03 -0.22560895043E+03  0.26262736404E+03  0.77000000000E+02 0.  0.
<mgrwt>
<rscale>  0 0.40620135E+03</rscale>
<asrwt>0</asrwt>
<pdfrwt beam="1">  1        2 0.29993107E+00 0.40620135E+03</pdfrwt>
<pdfrwt beam="2">  1       -2 0.32551768E-02 0.40620135E+03</pdfrwt>
<totfact> 0.29460564E+03</totfact>
</mgrwt>
</event>
<event>
 4    1  0.2489209E-004  0.4233592E+03  0.7818608E-02  0.1035979E+00
         -2   -1    0    0    0  501 -0.00000000000E+00  0.00000000000E+00  0.19809630850E+03  0.19809630852E+03  0.25500000000E-02 0. -1.
          2   -1    0    0  501    0  0.00000000000E+00 -0.00000000000E+00 -0.22619432647E+03  0.22619432648E+03  0.25500000000E-02 0.  1.
    5000001    1    1    2    0    0  0.19473072424E+03  0.22314299432E+02 -0.35573646758E+02  0.21357075471E+03  0.77000000000E+02 0.  0.
   -5000001    1    1    2    0    0 -0.19473072424E+03 -0.22314299432E+02  0.74756287886E+01  0.21071988029E+03  0.77000000000E+02 0.  0.
<mgrwt>
<rscale>  0 0.42335924E+03</rscale>
<asrwt>0</asrwt>
<pdfrwt beam="1">  1        2 0.34799127E-01 0.42335924E+03</pdfrwt>
<pdfrwt beam="2">  1       -2 0.30476355E-01 0.42335924E+03</pdfrwt>
<totfact> 0.14896155E+03</totfact>
</mgrwt>
</event>
<event>
 4    1  0.2489209E-004  0.2313351E+03  0.7818608E-02  0.1125704E+00
          2   -1    0    0  501    0  0.00000000000E+00  0.00000000000E+00  0.15130675568E+03  0.15130675571E+03  0.25500000000E-02 0.  1.
         -2   -1    0    0    0  501 -0.00000000000E+00 -0.00000000000E+00 -0.88422873966E+02  0.88422874003E+02  0.25500000000E-02 0. -1.
    5000001    1    1    2    0    0  0.54191063403E+02  0.64744122531E+02  0.12860713007E+02  0.11499074178E+03  0.77000000000E+02 0.  0.
   -5000001    1    1    2    0    0 -0.54191063403E+02 -0.64744122531E+02  0.50023168711E+02  0.12473888793E+03  0.77000000000E+02 0.  0.
<mgrwt>
<rscale>  0 0.23133507E+03</rscale>
<asrwt>0</asrwt>
<pdfrwt beam="1">  1        2 0.23277962E-01 0.23133507E+03</pdfrwt>
<pdfrwt beam="2">  1       -2 0.13603519E-01 0.23133507E+03</pdfrwt>
<totfact> 0.91998545E+03</totfact>
</mgrwt>
</event>
<event>
 4    1  0.2489209E-004  0.2512992E+03  0.7818608E-02  0.1112486E+00
         -2   -1    0    0    0  501 -0.00000000000E+00  0.00000000000E+00  0.60393059781E+02  0.60393059835E+02  0.25500000000E-02 0. -1.
          2   -1    0    0  501    0  0.00000000000E+00 -0.00000000000E+00 -0.26141792046E+03  0.26141792047E+03  0.25500000000E-02 0.  1.
    5000001    1    1    2    0    0 -0.31437296105E+02  0.68397669677E+02 -0.18342778825E+03  0.21270001953E+03  0.77000000000E+02 0.  0.
   -5000001    1    1    2    0    0  0.31437296105E+02 -0.68397669677E+02 -0.17597072423E+02  0.10911096078E+03  0.77000000000E+02 0.  0.
<mgrwt>
<rscale>  0 0.25129925E+03</rscale>
<asrwt>0</asrwt>
<pdfrwt beam="1">  1        2 0.40218141E-01 0.25129925E+03</pdfrwt>
<pdfrwt beam="2">  1       -2 0.92912401E-02 0.25129925E+03</pdfrwt>
<totfact> 0.93487077E+03</totfact>
</mgrwt>
</event>
<event>
 4    1  0.2489209E-004  0.2651324E+03  0.7818608E-02  0.1104098E+00
         -2   -1    0    0    0  501 -0.00000000000E+00  0.00000000000E+00  0.16514447029E+03  0.16514447030E+03  0.25500000000E-02 0. -1.
          2   -1    0    0  501    0  0.00000000000E+00 -0.00000000000E+00 -0.10641471327E+03  0.10641471330E+03  0.25500000000E-02 0.  1.
    5000001    1    1    2    0    0  0.56801928614E+02  0.88885245299E+02  0.52670678533E+02  0.14081990734E+03  0.77000000000E+02 0.  0.
   -5000001    1    1    2    0    0 -0.56801928614E+02 -0.88885245299E+02  0.60590784831E+01  0.13073927626E+03  0.77000000000E+02 0.  0.
<mgrwt>
<rscale>  0 0.26513243E+03</rscale>
<asrwt>0</asrwt>
<pdfrwt beam="1">  1        2 0.16371495E-01 0.26513243E+03</pdfrwt>
<pdfrwt beam="2">  1       -2 0.25406841E-01 0.26513243E+03</pdfrwt>
<totfact> 0.48087425E+03</totfact>
</mgrwt>
</event>
<event>
 4    1  0.2489209E-004  0.2150123E+03  0.7818608E-02  0.1137657E+00
         -2   -1    0    0    0  501 -0.00000000000E+00  0.00000000000E+00  0.29978548075E+02  0.29978548183E+02  0.25500000000E-02 0. -1.
          2   -1    0    0  501    0  0.00000000000E+00 -0.00000000000E+00 -0.38552797706E+03  0.38552797707E+03  0.25500000000E-02 0.  1.
    5000001    1    1    2    0    0 -0.67505627621E+02  0.70124169416E+01 -0.23956524107E+03  0.26062748988E+03  0.77000000000E+02 0.  0.
   -5000001    1    1    2    0    0  0.67505627621E+02 -0.70124169416E+01 -0.11598418792E+03  0.15487903538E+03  0.77000000000E+02 0.  0.
<mgrwt>
<rscale>  0 0.21501227E+03</rscale>
<asrwt>0</asrwt>
<pdfrwt beam="1">  1        2 0.59311993E-01 0.21501227E+03</pdfrwt>
<pdfrwt beam="2">  1       -2 0.46120846E-02 0.21501227E+03</pdfrwt>
<totfact> 0.17949746E+04</totfact>
</mgrwt>
</event>
<event>
 4    1  0.2489209E-004  0.3604342E+03  0.7818608E-02  0.1058412E+00
          2   -1    0    0  501    0  0.00000000000E+00  0.00000000000E+00  0.17789721521E+03  0.17789721523E+03  0.25500000000E-02 0.  1.
         -2   -1    0    0    0  501 -0.00000000000E+00 -0.00000000000E+00 -0.18256719050E+03  0.18256719052E+03  0.25500000000E-02 0. -1.
    5000001    1    1    2    0    0 -0.15840254154E+03 -0.34444945103E+02  0.14139869936E+02  0.18001876383E+03  0.77000000000E+02 0.  0.
   -5000001    1    1    2    0    0  0.15840254154E+03  0.34444945103E+02 -0.18809845221E+02  0.18044564192E+03  0.77000000000E+02 0.  0.
<mgrwt>
<rscale>  0 0.36043415E+03</rscale>
<asrwt>0</asrwt>
<pdfrwt beam="1">  1        2 0.27368802E-01 0.36043415E+03</pdfrwt>
<pdfrwt beam="2">  1       -2 0.28087260E-01 0.36043415E+03</pdfrwt>
<totfact> 0.22515986E+03</totfact>
</mgrwt>
</event>
<event>
 4    1  0.2489209E-004  0.2226964E+03  0.7818608E-02  0.1131889E+00
         -2   -1    0    0    0  501 -0.00000000000E+00  0.00000000000E+00  0.50722244860E+01  0.50722251269E+01  0.25500000000E-02 0. -1.
          2   -1    0    0  501    0  0.00000000000E+00 -0.00000000000E+00 -0.24443746090E+04  0.24443746090E+04  0.25500000000E-02 0.  1.
    5000001    1    1    2    0    0 -0.37687265853E+02  0.70858552519E+02 -0.11612908692E+04  0.11666047948E+04  0.77000000000E+02 0.  0.
   -5000001    1    1    2    0    0  0.37687265853E+02 -0.70858552519E+02 -0.12780115154E+04  0.12828420394E+04  0.77000000000E+02 0.  0.
<mgrwt>
<rscale>  0 0.22269636E+03</rscale>
<asrwt>0</asrwt>
<pdfrwt beam="1">  1        2 0.37605669E+00 0.22269636E+03</pdfrwt>
<pdfrwt beam="2">  1       -2 0.78034423E-03 0.22269636E+03</pdfrwt>
<totfact> 0.13098275E+04</totfact>
</mgrwt>
</event>
<event>
 4    1  0.2489209E-004  0.3092757E+03  0.7818608E-02  0.1080694E+00
          2   -1    0    0  501    0  0.00000000000E+00  0.00000000000E+00  0.52791918761E+03  0.52791918762E+03  0.25500000000E-02 0.  1.
         -2   -1    0    0    0  501 -0.00000000000E+00 -0.00000000000E+00 -0.45296449365E+02  0.45296449437E+02  0.25500000000E-02 0. -1.
    5000001    1    1    2    0    0 -0.11448635896E+03 -0.69804130811E+02  0.24507416579E+03  0.28977593034E+03  0.77000000000E+02 0.  0.
   -5000001    1    1    2    0    0  0.11448635896E+03  0.69804130811E+02  0.23754857246E+03  0.28343970671E+03  0.77000000000E+02 0.  0.
<mgrwt>
<rscale>  0 0.30927570E+03</rscale>
<asrwt>0</asrwt>
<pdfrwt beam="1">  1        2 0.81218336E-01 0.30927570E+03</pdfrwt>
<pdfrwt beam="2">  1       -2 0.69686846E-02 0.30927570E+03</pdfrwt>
<totfact> 0.68669469E+03</totfact>
</mgrwt>
</event>
<event>
 4    1  0.2489209E-004  0.1986399E+03  0.7818608E-02  0.1150892E+00
          2   -1    0    0  501    0  0.00000000000E+00  0.00000000000E+00  0.20933999688E+03  0.20933999689E+03  0.25500000000E-02 0.  1.
         -2   -1    0    0    0  501 -0.00000000000E+00 -0.00000000000E+00 -0.47121675087E+02  0.47121675156E+02  0.25500000000E-02 0. -1.
    5000001    1    1    2    0    0 -0.29883969629E+02 -0.52596414281E+02  0.10255898998E+03  0.14179838103E+03  0.77000000000E+02 0.  0.
   -5000001    1    1    2    0    0  0.29883969629E+02  0.52596414281E+02  0.59659331809E+02  0.11466329102E+03  0.77000000000E+02 0.  0.
<mgrwt>
<rscale>  0 0.19863989E+03</rscale>
<asrwt>0</asrwt>
<pdfrwt beam="1">  1        2 0.32206153E-01 0.19863989E+03</pdfrwt>
<pdfrwt beam="2">  1       -2 0.72494885E-02 0.19863989E+03</pdfrwt>
<totfact> 0.17262739E+04</totfact>
</mgrwt>
</event>
<event>
 4    1  0.2489209E-004  0.8471314E+03  0.7818608E-02  0.9494195E-01
          2   -1    0    0  501    0  0.00000000000E+00  0.00000000000E+00  0.38302580043E+03  0.38302580043E+03  0.25500000000E-02 0.  1.
         -2   -1    0    0    0  501 -0.00000000000E+00 -0.00000000000E+00 -0.46839641233E+03  0.46839641234E+03  0.25500000000E-02 0. -1.
    5000001    1    1    2    0    0  0.98488926139E+02 -0.31562891221E+03 -0.29726103453E+03  0.45123696817E+03  0.77000000000E+02 0.  0.
   -5000001    1    1    2    0    0 -0.98488926139E+02  0.31562891221E+03  0.21189042263E+03  0.40018524460E+03  0.77000000000E+02 0.  0.
<mgrwt>
<rscale>  0 0.84713142E+03</rscale>
<asrwt>0</asrwt>
<pdfrwt beam="1">  1        2 0.58927046E-01 0.84713142E+03</pdfrwt>
<pdfrwt beam="2">  1       -2 0.72060986E-01 0.84713142E+03</pdfrwt>
<totfact> 0.14655591E+02</totfact>
</mgrwt>
</event>
<event>
 4    1  0.2489209E-004  0.2121273E+03  0.7818608E-02  0.1139892E+00
         -2   -1    0    0    0  501 -0.00000000000E+00  0.00000000000E+00  0.59256641485E+03  0.59256641485E+03  0.25500000000E-02 0. -1.
          2   -1    0    0  501    0  0.00000000000E+00 -0.00000000000E+00 -0.18984370450E+02  0.18984370621E+02  0.25500000000E-02 0.  1.
    5000001    1    1    2    0    0  0.49312415464E+02 -0.53363780941E+02  0.26831027189E+03  0.28844203826E+03  0.77000000000E+02 0.  0.
   -5000001    1    1    2    0    0 -0.49312415464E+02  0.53363780941E+02  0.30527177251E+03  0.32310874721E+03  0.77000000000E+02 0.  0.
<mgrwt>
<rscale>  0 0.21212732E+03</rscale>
<asrwt>0</asrwt>
<pdfrwt beam="1">  1        2 0.29206723E-02 0.21212732E+03</pdfrwt>
<pdfrwt beam="2">  1       -2 0.91164066E-01 0.21212732E+03</pdfrwt>
<totfact> 0.33923614E+03</totfact>
</mgrwt>
</event>
<event>
 4    1  0.2489209E-004  0.1814379E+03  0.7818608E-02  0.1166419E+00
         -2   -1    0    0    0  501 -0.00000000000E+00  0.00000000000E+00  0.49718675900E+02  0.49718675965E+02  0.25500000000E-02 0. -1.
          2   -1    0    0  501    0  0.00000000000E+00 -0.00000000000E+00 -0.16552991535E+03  0.16552991537E+03  0.25500000000E-02 0.  1.
    5000001    1    1    2    0    0 -0.18957561965E+02 -0.44043374618E+02 -0.56349639221E+02  0.10678712396E+03  0.77000000000E+02 0.  0.
   -5000001    1    1    2    0    0  0.18957561965E+02  0.44043374618E+02 -0.59461600232E+02  0.10846146738E+03  0.77000000000E+02 0.  0.
<mgrwt>
<rscale>  0 0.18143790E+03</rscale>
<asrwt>0</asrwt>
<pdfrwt beam="1">  1        2 0.25466141E-01 0.18143790E+03</pdfrwt>
<pdfrwt beam="2">  1       -2 0.76490271E-02 0.18143790E+03</pdfrwt>
<totfact> 0.20405544E+04</totfact>
</mgrwt>
</event>
<event>
 4    1  0.2489209E-004  0.2299838E+03  0.7818608E-02  0.1126651E+00
         -2   -1    0    0    0  501 -0.00000000000E+00  0.00000000000E+00  0.70278485116E+02  0.70278485163E+02  0.25500000000E-02 0. -1.
          2   -1    0    0  501    0  0.00000000000E+00 -0.00000000000E+00 -0.18815343747E+03  0.18815343749E+03  0.25500000000E-02 0.  1.
    5000001    1    1    2    0    0 -0.57124846692E+02 -0.22290075639E+02 -0.12573875893E+03  0.15968509974E+03  0.77000000000E+02 0.  0.
   -5000001    1    1    2    0    0  0.57124846692E+02  0.22290075639E+02  0.78638065730E+01  0.98746822913E+02  0.77000000000E+02 0.  0.
<mgrwt>
<rscale>  0 0.22998381E+03</rscale>
<asrwt>0</asrwt>
<pdfrwt beam="1">  1        2 0.28946683E-01 0.22998381E+03</pdfrwt>
<pdfrwt beam="2">  1       -2 0.10812075E-01 0.22998381E+03</pdfrwt>
<totfact> 0.10457568E+04</totfact>
</mgrwt>
</event>
<event>
 4    1  0.2489209E-004  0.3929119E+03  0.7818608E-02  0.1046262E+00
          2   -1    0    0  501    0  0.00000000000E+00  0.00000000000E+00  0.59946632291E+03  0.59946632292E+03  0.25500000000E-02 0.  1.
         -2   -1    0    0    0  501 -0.00000000000E+00 -0.00000000000E+00 -0.64382171137E+02  0.64382171188E+02  0.25500000000E-02 0. -1.
    5000001    1    1    2    0    0 -0.62755899128E+01 -0.17781742200E+03  0.32117131691E+03  0.37515121405E+03  0.77000000000E+02 0.  0.
   -5000001    1    1    2    0    0  0.62755899128E+01  0.17781742200E+03  0.21391283486E+03  0.28869728006E+03  0.77000000000E+02 0.  0.
<mgrwt>
<rscale>  0 0.39291192E+03</rscale>
<asrwt>0</asrwt>
<pdfrwt beam="1">  1        2 0.92225591E-01 0.39291192E+03</pdfrwt>
<pdfrwt beam="2">  1       -2 0.99049491E-02 0.39291192E+03</pdfrwt>
<totfact> 0.34224968E+03</totfact>
</mgrwt>
</event>
<event>
 4    1  0.2489209E-004  0.2481421E+03  0.7818608E-02  0.1114485E+00
         -2   -1    0    0    0  501 -0.00000000000E+00  0.00000000000E+00  0.74350073367E+02  0.74350073410E+02  0.25500000000E-02 0. -1.
          2   -1    0    0  501    0  0.00000000000E+00 -0.00000000000E+00 -0.20704253468E+03  0.20704253470E+03  0.25500000000E-02 0.  1.
    5000001    1    1    2    0    0  0.74824694464E+02 -0.61966182860E+02 -0.60554517372E+02  0.13796518508E+03  0.77000000000E+02 0.  0.
   -5000001    1    1    2    0    0 -0.74824694464E+02  0.61966182860E+02 -0.72137943943E+02  0.14342742303E+03  0.77000000000E+02 0.  0.
<mgrwt>
<rscale>  0 0.24814212E+03</rscale>
<asrwt>0</asrwt>
<pdfrwt beam="1">  1        2 0.31852697E-01 0.24814212E+03</pdfrwt>
<pdfrwt beam="2">  1       -2 0.11438473E-01 0.24814212E+03</pdfrwt>
<totfact> 0.86396627E+03</totfact>
</mgrwt>
</event>
<event>
 4    1  0.2489209E-004  0.3644353E+03  0.7818608E-02  0.1056841E+00
         -2   -1    0    0    0  501 -0.00000000000E+00  0.00000000000E+00  0.29744210888E+03  0.29744210889E+03  0.25500000000E-02 0. -1.
          2   -1    0    0  501    0  0.00000000000E+00 -0.00000000000E+00 -0.11162935506E+03  0.11162935509E+03  0.25500000000E-02 0.  1.
    5000001    1    1    2    0    0  0.11027387679E+02 -0.16475782080E+03  0.89826605933E+02  0.20313680594E+03  0.77000000000E+02 0.  0.
   -5000001    1    1    2    0    0 -0.11027387679E+02  0.16475782080E+03  0.95986147890E+02  0.20593465804E+03  0.77000000000E+02 0.  0.
<mgrwt>
<rscale>  0 0.36443529E+03</rscale>
<asrwt>0</asrwt>
<pdfrwt beam="1">  1        2 0.17173747E-01 0.36443529E+03</pdfrwt>
<pdfrwt beam="2">  1       -2 0.45760324E-01 0.36443529E+03</pdfrwt>
<totfact> 0.15295644E+03</totfact>
</mgrwt>
</event>
<event>
 4    1  0.2489209E-004  0.4001036E+03  0.7818608E-02  0.1043744E+00
          2   -1    0    0  501    0  0.00000000000E+00  0.00000000000E+00  0.17663786975E+03  0.17663786977E+03  0.25500000000E-02 0.  1.
         -2   -1    0    0    0  501 -0.00000000000E+00 -0.00000000000E+00 -0.22656927289E+03  0.22656927291E+03  0.25500000000E-02 0. -1.
    5000001    1    1    2    0    0  0.18226245435E+03 -0.14168956536E+02 -0.51077151652E+02  0.20483709873E+03  0.77000000000E+02 0.  0.
   -5000001    1    1    2    0    0 -0.18226245435E+03  0.14168956536E+02  0.11457485128E+01  0.19837004395E+03  0.77000000000E+02 0.  0.
<mgrwt>
<rscale>  0 0.40010356E+03</rscale>
<asrwt>0</asrwt>
<pdfrwt beam="1">  1        2 0.27175057E-01 0.40010356E+03</pdfrwt>
<pdfrwt beam="2">  1       -2 0.34856811E-01 0.40010356E+03</pdfrwt>
<totfact> 0.15266076E+03</totfact>
</mgrwt>
</event>
<event>
 4    1  0.2489209E-004  0.2989240E+03  0.7818608E-02  0.1085780E+00
          2   -1    0    0  501    0  0.00000000000E+00  0.00000000000E+00  0.43860957850E+03  0.43860957851E+03  0.25500000000E-02 0.  1.
         -2   -1    0    0    0  501 -0.00000000000E+00 -0.00000000000E+00 -0.50931151654E+02  0.50931151717E+02  0.25500000000E-02 0. -1.
    5000001    1    1    2    0    0  0.43613517488E+02  0.10584887824E+03  0.28797022801E+03  0.31931485426E+03  0.77000000000E+02 0.  0.
   -5000001    1    1    2    0    0 -0.43613517488E+02 -0.10584887824E+03  0.99708198837E+02  0.17022587596E+03  0.77000000000E+02 0.  0.
<mgrwt>
<rscale>  0 0.29892401E+03</rscale>
<asrwt>0</asrwt>
<pdfrwt beam="1">  1        2 0.67478398E-01 0.29892401E+03</pdfrwt>
<pdfrwt beam="2">  1       -2 0.78355616E-02 0.29892401E+03</pdfrwt>
<totfact> 0.70285316E+03</totfact>
</mgrwt>
</event>
<event>
 4    1  0.2489209E-004  0.1937914E+03  0.7818608E-02  0.1155086E+00
         -2   -1    0    0    0  501 -0.00000000000E+00  0.00000000000E+00  0.65715149386E+01  0.65715154334E+01  0.25500000000E-02 0. -1.
          2   -1    0    0  501    0  0.00000000000E+00 -0.00000000000E+00 -0.14287074644E+04  0.14287074644E+04  0.25500000000E-02 0.  1.
    5000001    1    1    2    0    0  0.10722513546E+02  0.30431141204E+02 -0.10753158772E+04  0.10785519285E+04  0.77000000000E+02 0.  0.
   -5000001    1    1    2    0    0 -0.10722513546E+02 -0.30431141204E+02 -0.34682007228E+03  0.35672705138E+03  0.77000000000E+02 0.  0.
<mgrwt>
<rscale>  0 0.19379136E+03</rscale>
<asrwt>0</asrwt>
<pdfrwt beam="1">  1        2 0.21980090E+00 0.19379136E+03</pdfrwt>
<pdfrwt beam="2">  1       -2 0.10110035E-02 0.19379136E+03</pdfrwt>
<totfact> 0.30660174E+04</totfact>
</mgrwt>
</event>
<event>
 4    1  0.2489209E-004  0.2953413E+03  0.7818608E-02  0.1087593E+00
         -2   -1    0    0    0  501 -0.00000000000E+00  0.00000000000E+00  0.69308915646E+02  0.69308915692E+02  0.25500000000E-02 0. -1.
          2   -1    0    0  501    0  0.00000000000E+00 -0.00000000000E+00 -0.31462929624E+03  0.31462929625E+03  0.25500000000E-02 0.  1.
    5000001    1    1    2    0    0  0.28814175526E+02 -0.70479584038E+02 -0.25317722380E+03  0.27536400478E+03  0.77000000000E+02 0.  0.
   -5000001    1    1    2    0    0 -0.28814175526E+02  0.70479584038E+02  0.78568431990E+01  0.10857420717E+03  0.77000000000E+02 0.  0.
<mgrwt>
<rscale>  0 0.29534126E+03</rscale>
<asrwt>0</asrwt>
<pdfrwt beam="1">  1        2 0.48404506E-01 0.29534126E+03</pdfrwt>
<pdfrwt beam="2">  1       -2 0.10662910E-01 0.29534126E+03</pdfrwt>
<totfact> 0.61925596E+03</totfact>
</mgrwt>
</event>
<event>
 4    1  0.2489209E-004  0.1923356E+03  0.7818608E-02  0.1156371E+00
          2   -1    0    0  501    0  0.00000000000E+00  0.00000000000E+00  0.86974248818E+02  0.86974248855E+02  0.25500000000E-02 0.  1.
         -2   -1    0    0    0  501 -0.00000000000E+00 -0.00000000000E+00 -0.10633318486E+03  0.10633318490E+03  0.25500000000E-02 0. -1.
    5000001    1    1    2    0    0 -0.46885060840E+02 -0.27437109244E+02 -0.28966137124E+02  0.98585196625E+02  0.77000000000E+02 0.  0.
   -5000001    1    1    2    0    0  0.46885060840E+02  0.27437109244E+02  0.96072010765E+01  0.94722237126E+02  0.77000000000E+02 0.  0.
<mgrwt>
<rscale>  0 0.19233563E+03</rscale>
<asrwt>0</asrwt>
<pdfrwt beam="1">  1        2 0.13380654E-01 0.19233563E+03</pdfrwt>
<pdfrwt beam="2">  1       -2 0.16358951E-01 0.19233563E+03</pdfrwt>
<totfact> 0.12747730E+04</totfact>
</mgrwt>
</event>
<event>
 4    1  0.2489209E-004  0.2097276E+03  0.7818608E-02  0.1141782E+00
          2   -1    0    0  501    0  0.00000000000E+00  0.00000000000E+00  0.25980042059E+03  0.25980042060E+03  0.25500000000E-02 0.  1.
         -2   -1    0    0    0  501 -0.00000000000E+00 -0.00000000000E+00 -0.42326394764E+02  0.42326394840E+02  0.25500000000E-02 0. -1.
    5000001    1    1    2    0    0 -0.66705868898E+02  0.84266624772E+01  0.14242085255E+03  0.17530938602E+03  0.77000000000E+02 0.  0.
   -5000001    1    1    2    0    0  0.66705868898E+02 -0.84266624772E+01  0.75053173272E+02  0.12681742942E+03  0.77000000000E+02 0.  0.
<mgrwt>
<rscale>  0 0.20972759E+03</rscale>
<asrwt>0</asrwt>
<pdfrwt beam="1">  1        2 0.39969295E-01 0.20972759E+03</pdfrwt>
<pdfrwt beam="2">  1       -2 0.65117531E-02 0.20972759E+03</pdfrwt>
<totfact> 0.16192639E+04</totfact>
</mgrwt>
</event>
<event>
 4    1  0.2489209E-004  0.3183340E+03  0.7818608E-02  0.1076419E+00
          2   -1    0    0  501    0  0.00000000000E+00  0.00000000000E+00  0.61054666296E+03  0.61054666296E+03  0.25500000000E-02 0.  1.
         -2   -1    0    0    0  501 -0.00000000000E+00 -0.00000000000E+00 -0.41494178442E+02  0.41494178521E+02  0.25500000000E-02 0. -1.
    5000001    1    1    2    0    0  0.22759654885E+02 -0.11431576548E+03  0.12827721862E+03  0.18965795776E+03  0.77000000000E+02 0.  0.
   -5000001    1    1    2    0    0 -0.22759654885E+02  0.11431576548E+03  0.44077526590E+03  0.46238288372E+03  0.77000000000E+02 0.  0.
<mgrwt>
<rscale>  0 0.31833399E+03</rscale>
<asrwt>0</asrwt>
<pdfrwt beam="1">  1        2 0.93930254E-01 0.31833399E+03</pdfrwt>
<pdfrwt beam="2">  1       -2 0.63837199E-02 0.31833399E+03</pdfrwt>
<totfact> 0.66572459E+03</totfact>
</mgrwt>
</event>
<event>
 4    1  0.2489209E-004  0.2797015E+03  0.7818608E-02  0.1095852E+00
          2   -1    0    0  501    0  0.00000000000E+00  0.00000000000E+00  0.40010946073E+02  0.40010946154E+02  0.25500000000E-02 0.  1.
         -2   -1    0    0    0  501 -0.00000000000E+00 -0.00000000000E+00 -0.48882192515E+03  0.48882192515E+03  0.25500000000E-02 0. -1.
    5000001    1    1    2    0    0  0.96768734932E+02 -0.17752028865E+02 -0.10557797059E+03  0.16356965019E+03  0.77000000000E+02 0.  0.
   -5000001    1    1    2    0    0 -0.96768734932E+02  0.17752028865E+02 -0.34323300848E+03  0.36526322112E+03  0.77000000000E+02 0.  0.
<mgrwt>
<rscale>  0 0.27970147E+03</rscale>
<asrwt>0</asrwt>
<pdfrwt beam="1">  1        2 0.61555305E-02 0.27970147E+03</pdfrwt>
<pdfrwt beam="2">  1       -2 0.75203369E-01 0.27970147E+03</pdfrwt>
<totfact> 0.19474947E+03</totfact>
</mgrwt>
</event>
<event>
 4    1  0.2489209E-004  0.2487392E+03  0.7818608E-02  0.1114104E+00
         -2   -1    0    0    0  501 -0.00000000000E+00  0.00000000000E+00  0.83644206554E+01  0.83644210441E+01  0.25500000000E-02 0. -1.
          2   -1    0    0  501    0  0.00000000000E+00 -0.00000000000E+00 -0.18492374122E+04  0.18492374122E+04  0.25500000000E-02 0.  1.
    5000001    1    1    2    0    0 -0.70643070381E+02  0.18615389668E+02 -0.14045278010E+04  0.14085326833E+04  0.77000000000E+02 0.  0.
   -5000001    1    1    2    0    0  0.70643070381E+02 -0.18615389668E+02 -0.43634519047E+03  0.44906914987E+03  0.77000000000E+02 0.  0.
<mgrwt>
<rscale>  0 0.24873922E+03</rscale>
<asrwt>0</asrwt>
<pdfrwt beam="1">  1        2 0.28449774E+00 0.24873922E+03</pdfrwt>
<pdfrwt beam="2">  1       -2 0.12868355E-02 0.24873922E+03</pdfrwt>
<totfact> 0.13130095E+04</totfact>
</mgrwt>
</event>
<event>
 4    1  0.2489209E-004  0.2334176E+03  0.7818608E-02  0.1124257E+00
         -2   -1    0    0    0  501 -0.00000000000E+00  0.00000000000E+00  0.39271617301E+02  0.39271617383E+02  0.25500000000E-02 0. -1.
          2   -1    0    0  501    0  0.00000000000E+00 -0.00000000000E+00 -0.34683953490E+03  0.34683953490E+03  0.25500000000E-02 0.  1.
    5000001    1    1    2    0    0 -0.64182215629E+02 -0.57928889623E+02 -0.17814213647E+03  0.21245878151E+03  0.77000000000E+02 0.  0.
   -5000001    1    1    2    0    0  0.64182215629E+02  0.57928889623E+02 -0.12942578113E+03  0.17365237078E+03  0.77000000000E+02 0.  0.
<mgrwt>
<rscale>  0 0.23341765E+03</rscale>
<asrwt>0</asrwt>
<pdfrwt beam="1">  1        2 0.53359926E-01 0.23341765E+03</pdfrwt>
<pdfrwt beam="2">  1       -2 0.60417875E-02 0.23341765E+03</pdfrwt>
<totfact> 0.13414671E+04</totfact>
</mgrwt>
</event>
<event>
 4    1  0.2489209E-004  0.2879074E+03  0.7818608E-02  0.1091447E+00
         -2   -1    0    0    0  501 -0.00000000000E+00  0.00000000000E+00  0.88437561755E+02  0.88437561792E+02  0.25500000000E-02 0. -1.
          2   -1    0    0  501    0  0.00000000000E+00 -0.00000000000E+00 -0.23431967439E+03  0.23431967440E+03  0.25500000000E-02 0.  1.
    5000001    1    1    2    0    0 -0.89443259411E+02 -0.80036569279E+02 -0.50867229273E+02  0.15140153265E+03  0.77000000000E+02 0.  0.
   -5000001    1    1    2    0    0  0.89443259411E+02  0.80036569279E+02 -0.95014883363E+02  0.17135570354E+03  0.77000000000E+02 0.  0.
<mgrwt>
<rscale>  0 0.28790735E+03</rscale>
<asrwt>0</asrwt>
<pdfrwt beam="1">  1        2 0.36049180E-01 0.28790735E+03</pdfrwt>
<pdfrwt beam="2">  1       -2 0.13605779E-01 0.28790735E+03</pdfrwt>
<totfact> 0.57341315E+03</totfact>
</mgrwt>
</event>
<event>
 4    1  0.2489209E-004  0.2317424E+03  0.7818608E-02  0.1125419E+00
         -2   -1    0    0    0  501 -0.00000000000E+00  0.00000000000E+00  0.40937464025E+01  0.40937471967E+01  0.25500000000E-02 0. -1.
          2   -1    0    0  501    0  0.00000000000E+00 -0.00000000000E+00 -0.32796685950E+04  0.32796685950E+04  0.25500000000E-02 0.  1.
    5000001    1    1    2    0    0  0.83588726000E+02  0.22451538693E+02 -0.16031186298E+04  0.16072988172E+04  0.77000000000E+02 0.  0.
   -5000001    1    1    2    0    0 -0.83588726000E+02 -0.22451538693E+02 -0.16724562188E+04  0.16764635250E+04  0.77000000000E+02 0.  0.
<mgrwt>
<rscale>  0 0.23174238E+03</rscale>
<asrwt>0</asrwt>
<pdfrwt beam="1">  1        2 0.50456230E+00 0.23174238E+03</pdfrwt>
<pdfrwt beam="2">  1       -2 0.62980982E-03 0.23174238E+03</pdfrwt>
<totfact> 0.58747437E+03</totfact>
</mgrwt>
</event>
<event>
 4    1  0.2489209E-004  0.1833492E+03  0.7818608E-02  0.1164600E+00
         -2   -1    0    0    0  501 -0.00000000000E+00  0.00000000000E+00  0.71345771475E+01  0.71345776032E+01  0.25500000000E-02 0. -1.
          2   -1    0    0  501    0  0.00000000000E+00 -0.00000000000E+00 -0.11779580636E+04  0.11779580636E+04  0.25500000000E-02 0.  1.
    5000001    1    1    2    0    0  0.28446755931E+02  0.63823109454E+01 -0.32483388373E+03  0.33510595912E+03  0.77000000000E+02 0.  0.
   -5000001    1    1    2    0    0 -0.28446755931E+02 -0.63823109454E+01 -0.84598960276E+03  0.84998668212E+03  0.77000000000E+02 0.  0.
<mgrwt>
<rscale>  0 0.18334921E+03</rscale>
<asrwt>0</asrwt>
<pdfrwt beam="1">  1        2 0.18122416E+00 0.18334921E+03</pdfrwt>
<pdfrwt beam="2">  1       -2 0.10976282E-02 0.18334921E+03</pdfrwt>
<totfact> 0.37210776E+04</totfact>
</mgrwt>
</event>
<event>
 4    1  0.2489209E-004  0.1970314E+03  0.7818608E-02  0.1152268E+00
         -2   -1    0    0    0  501 -0.00000000000E+00  0.00000000000E+00  0.11514665532E+02  0.11514665814E+02  0.25500000000E-02 0. -1.
          2   -1    0    0  501    0  0.00000000000E+00 -0.00000000000E+00 -0.84286812454E+03  0.84286812454E+03  0.25500000000E-02 0.  1.
    5000001    1    1    2    0    0  0.65754539499E+01 -0.60969242169E+02 -0.39840790263E+03  0.41038803828E+03  0.77000000000E+02 0.  0.
   -5000001    1    1    2    0    0 -0.65754539499E+01  0.60969242169E+02 -0.43294555638E+03  0.44399475208E+03  0.77000000000E+02 0.  0.
<mgrwt>
<rscale>  0 0.19703142E+03</rscale>
<asrwt>0</asrwt>
<pdfrwt beam="1">  1        2 0.12967197E+00 0.19703142E+03</pdfrwt>
<pdfrwt beam="2">  1       -2 0.17714877E-02 0.19703142E+03</pdfrwt>
<totfact> 0.29827819E+04</totfact>
</mgrwt>
</event>
<event>
 4    1  0.2489209E-004  0.3705452E+03  0.7818608E-02  0.1054485E+00
          2   -1    0    0  501    0  0.00000000000E+00  0.00000000000E+00  0.45358720784E+03  0.45358720785E+03  0.25500000000E-02 0.  1.
         -2   -1    0    0    0  501 -0.00000000000E+00 -0.00000000000E+00 -0.75676597516E+02  0.75676597559E+02  0.25500000000E-02 0. -1.
    5000001    1    1    2    0    0  0.13825838650E+03 -0.80660397956E+02  0.11370675727E+03  0.21090212869E+03  0.77000000000E+02 0.  0.
   -5000001    1    1    2    0    0 -0.13825838650E+03  0.80660397956E+02  0.26420385306E+03  0.31836167672E+03  0.77000000000E+02 0.  0.
<mgrwt>
<rscale>  0 0.37054520E+03</rscale>
<asrwt>0</asrwt>
<pdfrwt beam="1">  1        2 0.69782646E-01 0.37054520E+03</pdfrwt>
<pdfrwt beam="2">  1       -2 0.11642554E-01 0.37054520E+03</pdfrwt>
<totfact> 0.36242026E+03</totfact>
</mgrwt>
</event>
<event>
 4    1  0.2489209E-004  0.4375483E+03  0.7818608E-02  0.1031502E+00
          2   -1    0    0  501    0  0.00000000000E+00  0.00000000000E+00  0.31465883322E+04  0.31465883322E+04  0.25500000000E-02 0.  1.
         -2   -1    0    0    0  501 -0.00000000000E+00 -0.00000000000E+00 -0.15210798800E+02  0.15210799014E+02  0.25500000000E-02 0. -1.
    5000001    1    1    2    0    0 -0.19170532886E+03 -0.30843833199E+02  0.20357148668E+04  0.20464032580E+04  0.77000000000E+02 0.  0.
   -5000001    1    1    2    0    0  0.19170532886E+03  0.30843833199E+02  0.10956626666E+04  0.11153958733E+04  0.77000000000E+02 0.  0.
<mgrwt>
<rscale>  0 0.43754827E+03</rscale>
<asrwt>0</asrwt>
<pdfrwt beam="1">  1        2 0.48409087E+00 0.43754827E+03</pdfrwt>
<pdfrwt beam="2">  1       -2 0.23401212E-02 0.43754827E+03</pdfrwt>
<totfact> 0.10161050E+03</totfact>
</mgrwt>
</event>
<event>
 4    1  0.2489209E-004  0.2566518E+03  0.7818608E-02  0.1109172E+00
         -2   -1    0    0    0  501 -0.00000000000E+00  0.00000000000E+00  0.28432899336E+02  0.28432899450E+02  0.25500000000E-02 0. -1.
          2   -1    0    0  501    0  0.00000000000E+00 -0.00000000000E+00 -0.57917200981E+03  0.57917200981E+03  0.25500000000E-02 0.  1.
    5000001    1    1    2    0    0  0.10165978155E+03  0.15752837761E+01 -0.24177651789E+03  0.27335339271E+03  0.77000000000E+02 0.  0.
   -5000001    1    1    2    0    0 -0.10165978155E+03 -0.15752837761E+01 -0.30896259259E+03  0.33425151656E+03  0.77000000000E+02 0.  0.
<mgrwt>
<rscale>  0 0.25665182E+03</rscale>
<asrwt>0</asrwt>
<pdfrwt beam="1">  1        2 0.89103378E-01 0.25665182E+03</pdfrwt>
<pdfrwt beam="2">  1       -2 0.43742926E-02 0.25665182E+03</pdfrwt>
<totfact> 0.12507841E+04</totfact>
</mgrwt>
</event>
<event>
 4    1  0.2489209E-004  0.1928778E+03  0.7818608E-02  0.1155891E+00
          2   -1    0    0  501    0  0.00000000000E+00  0.00000000000E+00  0.62272573640E+03  0.62272573641E+03  0.25500000000E-02 0.  1.
         -2   -1    0    0    0  501 -0.00000000000E+00 -0.00000000000E+00 -0.14935084115E+02  0.14935084333E+02  0.25500000000E-02 0. -1.
    5000001    1    1    2    0    0  0.30347920546E+02  0.48108609262E+02  0.26533686731E+03  0.28207815888E+03  0.77000000000E+02 0.  0.
   -5000001    1    1    2    0    0 -0.30347920546E+02 -0.48108609262E+02  0.34245378498E+03  0.35558266186E+03  0.77000000000E+02 0.  0.
<mgrwt>
<rscale>  0 0.19287780E+03</rscale>
<asrwt>0</asrwt>
<pdfrwt beam="1">  1        2 0.95803953E-01 0.19287780E+03</pdfrwt>
<pdfrwt beam="2">  1       -2 0.22977054E-02 0.19287780E+03</pdfrwt>
<totfact> 0.29439054E+04</totfact>
</mgrwt>
</event>
<event>
 4    1  0.2489209E-004  0.2126080E+03  0.7818608E-02  0.1139517E+00
         -2   -1    0    0    0  501 -0.00000000000E+00  0.00000000000E+00  0.16622753905E+02  0.16622754100E+02  0.25500000000E-02 0. -1.
          2   -1    0    0  501    0  0.00000000000E+00 -0.00000000000E+00 -0.67982347560E+03  0.67982347560E+03  0.25500000000E-02 0.  1.
    5000001    1    1    2    0    0  0.66701326030E+02  0.97670832243E+01 -0.23739391246E+03  0.25851369883E+03  0.77000000000E+02 0.  0.
   -5000001    1    1    2    0    0 -0.66701326030E+02 -0.97670832243E+01 -0.42580680923E+03  0.43793253087E+03  0.77000000000E+02 0.  0.
<mgrwt>
<rscale>  0 0.21260798E+03</rscale>
<asrwt>0</asrwt>
<pdfrwt beam="1">  1        2 0.10458821E+00 0.21260798E+03</pdfrwt>
<pdfrwt beam="2">  1       -2 0.25573473E-02 0.21260798E+03</pdfrwt>
<totfact> 0.22838398E+04</totfact>
</mgrwt>
</event>
<event>
 4    1  0.2489209E-004  0.2573196E+03  0.7818608E-02  0.1108764E+00
          2   -1    0    0  501    0  0.00000000000E+00  0.00000000000E+00  0.12858198611E+04  0.12858198612E+04  0.25500000000E-02 0.  1.
         -2   -1    0    0    0  501 -0.00000000000E+00 -0.00000000000E+00 -0.12873763001E+02  0.12873763253E+02  0.25500000000E-02 0. -1.
    5000001    1    1    2    0    0  0.49683242677E+02 -0.84748685969E+02  0.47899544164E+03  0.49499131051E+03  0.77000000000E+02 0.  0.
   -5000001    1    1    2    0    0 -0.49683242677E+02  0.84748685969E+02  0.79395065651E+03  0.80370231389E+03  0.77000000000E+02 0.  0.
<mgrwt>
<rscale>  0 0.25731957E+03</rscale>
<asrwt>0</asrwt>
<pdfrwt beam="1">  1        2 0.19781838E+00 0.25731957E+03</pdfrwt>
<pdfrwt beam="2">  1       -2 0.19805795E-02 0.25731957E+03</pdfrwt>
<totfact> 0.13966990E+04</totfact>
</mgrwt>
</event>
<event>
 4    1  0.2489209E-004  0.2269991E+03  0.7818608E-02  0.1128770E+00
         -2   -1    0    0    0  501 -0.00000000000E+00  0.00000000000E+00  0.12512739010E+03  0.12512739013E+03  0.25500000000E-02 0. -1.
          2   -1    0    0  501    0  0.00000000000E+00 -0.00000000000E+00 -0.10295222285E+03  0.10295222288E+03  0.25500000000E-02 0.  1.
    5000001    1    1    2    0    0  0.13436027393E+02  0.72363205620E+02 -0.28293152949E+02  0.11021099248E+03  0.77000000000E+02 0.  0.
   -5000001    1    1    2    0    0 -0.13436027393E+02 -0.72363205620E+02  0.50468320203E+02  0.11786862052E+03  0.77000000000E+02 0.  0.
<mgrwt>
<rscale>  0 0.22699906E+03</rscale>
<asrwt>0</asrwt>
<pdfrwt beam="1">  1        2 0.15838804E-01 0.22699906E+03</pdfrwt>
<pdfrwt beam="2">  1       -2 0.19250368E-01 0.22699906E+03</pdfrwt>
<totfact> 0.80273338E+03</totfact>
</mgrwt>
</event>
<event>
 4    1  0.2489209E-004  0.2536374E+03  0.7818608E-02  0.1111027E+00
          2   -1    0    0  501    0  0.00000000000E+00  0.00000000000E+00  0.82733735686E+03  0.82733735686E+03  0.25500000000E-02 0.  1.
         -2   -1    0    0    0  501 -0.00000000000E+00 -0.00000000000E+00 -0.19439452308E+02  0.19439452475E+02  0.25500000000E-02 0. -1.
    5000001    1    1    2    0    0  0.20191591328E+01  0.10008958580E+03  0.44230329867E+03  0.45998174986E+03  0.77000000000E+02 0.  0.
   -5000001    1    1    2    0    0 -0.20191591328E+01 -0.10008958580E+03  0.36559460588E+03  0.38679505948E+03  0.77000000000E+02 0.  0.
<mgrwt>
<rscale>  0 0.25363742E+03</rscale>
<asrwt>0</asrwt>
<pdfrwt beam="1">  1        2 0.12728265E+00 0.25363742E+03</pdfrwt>
<pdfrwt beam="2">  1       -2 0.29906854E-02 0.25363742E+03</pdfrwt>
<totfact> 0.14342352E+04</totfact>
</mgrwt>
</event>
<event>
 4    1  0.2489209E-004  0.2578987E+03  0.7818608E-02  0.1108412E+00
         -2   -1    0    0    0  501 -0.00000000000E+00  0.00000000000E+00  0.23484420683E+02  0.23484420822E+02  0.25500000000E-02 0. -1.
          2   -1    0    0  501    0  0.00000000000E+00 -0.00000000000E+00 -0.70804090815E+03  0.70804090816E+03  0.25500000000E-02 0.  1.
    5000001    1    1    2    0    0 -0.55574366871E+02  0.18475027159E+02 -0.10044254779E+03  0.13945444521E+03  0.77000000000E+02 0.  0.
   -5000001    1    1    2    0    0  0.55574366871E+02 -0.18475027159E+02 -0.58411393968E+03  0.59207088377E+03  0.77000000000E+02 0.  0.
<mgrwt>
<rscale>  0 0.25789867E+03</rscale>
<asrwt>0</asrwt>
<pdfrwt beam="1">  1        2 0.10892935E+00 0.25789867E+03</pdfrwt>
<pdfrwt beam="2">  1       -2 0.36129884E-02 0.25789867E+03</pdfrwt>
<totfact> 0.13152830E+04</totfact>
</mgrwt>
</event>
<event>
 4    1  0.2489209E-004  0.2342891E+03  0.7818608E-02  0.1123657E+00
         -2   -1    0    0    0  501 -0.00000000000E+00  0.00000000000E+00  0.33681596738E+02  0.33681596834E+02  0.25500000000E-02 0. -1.
          2   -1    0    0  501    0  0.00000000000E+00 -0.00000000000E+00 -0.40742859427E+03  0.40742859428E+03  0.25500000000E-02 0.  1.
    5000001    1    1    2    0    0 -0.60829729170E+02 -0.41379746061E+02 -0.27874961686E+03  0.29840054999E+03  0.77000000000E+02 0.  0.
   -5000001    1    1    2    0    0  0.60829729170E+02  0.41379746061E+02 -0.94997380676E+02  0.14270964113E+03  0.77000000000E+02 0.  0.
<mgrwt>
<rscale>  0 0.23428910E+03</rscale>
<asrwt>0</asrwt>
<pdfrwt beam="1">  1        2 0.62681319E-01 0.23428910E+03</pdfrwt>
<pdfrwt beam="2">  1       -2 0.51817844E-02 0.23428910E+03</pdfrwt>
<totfact> 0.14251328E+04</totfact>
</mgrwt>
</event>
<event>
 4    1  0.2489209E-004  0.2454956E+03  0.7818608E-02  0.1116185E+00
          2   -1    0    0  501    0  0.00000000000E+00  0.00000000000E+00  0.33726133073E+03  0.33726133074E+03  0.25500000000E-02 0.  1.
         -2   -1    0    0    0  501 -0.00000000000E+00 -0.00000000000E+00 -0.44674637303E+02  0.44674637376E+02  0.25500000000E-02 0. -1.
    5000001    1    1    2    0    0 -0.87237287616E+02 -0.20265645963E+02  0.94297242193E+02  0.15113573582E+03  0.77000000000E+02 0.  0.
   -5000001    1    1    2    0    0  0.87237287616E+02  0.20265645963E+02  0.19828945123E+03  0.23080023229E+03  0.77000000000E+02 0.  0.
<mgrwt>
<rscale>  0 0.24549564E+03</rscale>
<asrwt>0</asrwt>
<pdfrwt beam="1">  1        2 0.51886359E-01 0.24549564E+03</pdfrwt>
<pdfrwt beam="2">  1       -2 0.68730210E-02 0.24549564E+03</pdfrwt>
<totfact> 0.11368923E+04</totfact>
</mgrwt>
</event>
<event>
 4    1  0.2489209E-004  0.1956913E+03  0.7818608E-02  0.1153426E+00
         -2   -1    0    0    0  501 -0.00000000000E+00  0.00000000000E+00  0.11341444678E+03  0.11341444681E+03  0.25500000000E-02 0. -1.
          2   -1    0    0  501    0  0.00000000000E+00 -0.00000000000E+00 -0.84414075209E+02  0.84414075248E+02  0.25500000000E-02 0.  1.
    5000001    1    1    2    0    0  0.41243330494E+02 -0.44023215905E+02  0.16917914952E+02  0.99268684363E+02  0.77000000000E+02 0.  0.
   -5000001    1    1    2    0    0 -0.41243330494E+02  0.44023215905E+02  0.12082456623E+02  0.98559837697E+02  0.77000000000E+02 0.  0.
<mgrwt>
<rscale>  0 0.19569135E+03</rscale>
<asrwt>0</asrwt>
<pdfrwt beam="1">  1        2 0.12986781E-01 0.19569135E+03</pdfrwt>
<pdfrwt beam="2">  1       -2 0.17448376E-01 0.19569135E+03</pdfrwt>
<totfact> 0.11880813E+04</totfact>
</mgrwt>
</event>
<event>
 4    1  0.2489209E-004  0.2934529E+03  0.7818608E-02  0.1088560E+00
         -2   -1    0    0    0  501 -0.00000000000E+00  0.00000000000E+00  0.77169884978E+01  0.77169889191E+01  0.25500000000E-02 0. -1.
          2   -1    0    0  501    0  0.00000000000E+00 -0.00000000000E+00 -0.27897730351E+04  0.27897730351E+04  0.25500000000E-02 0.  1.
    5000001    1    1    2    0    0  0.10947880123E+02  0.10245659872E+03 -0.71812719893E+03  0.72955663560E+03  0.77000000000E+02 0.  0.
   -5000001    1    1    2    0    0 -0.10947880123E+02 -0.10245659872E+03 -0.20639288477E+04  0.20679333884E+04  0.77000000000E+02 0.  0.
<mgrwt>
<rscale>  0 0.29345287E+03</rscale>
<asrwt>0</asrwt>
<pdfrwt beam="1">  1        2 0.42919505E+00 0.29345287E+03</pdfrwt>
<pdfrwt beam="2">  1       -2 0.11872313E-02 0.29345287E+03</pdfrwt>
<totfact> 0.45814657E+03</totfact>
</mgrwt>
</event>
<event>
 4    1  0.2489209E-004  0.3300476E+03  0.7818608E-02  0.1071116E+00
         -2   -1    0    0    0  501 -0.00000000000E+00  0.00000000000E+00  0.25872499914E+03  0.25872499915E+03  0.25500000000E-02 0. -1.
          2   -1    0    0  501    0  0.00000000000E+00 -0.00000000000E+00 -0.10525794783E+03  0.10525794786E+03  0.25500000000E-02 0.  1.
    5000001    1    1    2    0    0  0.60465964912E+02 -0.11847840377E+03  0.10467041794E+02  0.15405136817E+03  0.77000000000E+02 0.  0.
   -5000001    1    1    2    0    0 -0.60465964912E+02  0.11847840377E+03  0.14300000951E+03  0.20993157884E+03  0.77000000000E+02 0.  0.
<mgrwt>
<rscale>  0 0.33004765E+03</rscale>
<asrwt>0</asrwt>
<pdfrwt beam="1">  1        2 0.16193530E-01 0.33004765E+03</pdfrwt>
<pdfrwt beam="2">  1       -2 0.39803846E-01 0.33004765E+03</pdfrwt>
<totfact> 0.21463845E+03</totfact>
</mgrwt>
</event>
<event>
 4    1  0.2489209E-004  0.2129398E+03  0.7818608E-02  0.1139259E+00
         -2   -1    0    0    0  501 -0.00000000000E+00  0.00000000000E+00  0.39950949262E+02  0.39950949344E+02  0.25500000000E-02 0. -1.
          2   -1    0    0  501    0  0.00000000000E+00 -0.00000000000E+00 -0.28374393390E+03  0.28374393392E+03  0.25500000000E-02 0.  1.
    5000001    1    1    2    0    0  0.94229554515E+01  0.46829948490E+02 -0.20687404870E+03  0.22584886139E+03  0.77000000000E+02 0.  0.
   -5000001    1    1    2    0    0 -0.94229554515E+01 -0.46829948490E+02 -0.36918935944E+02  0.97846021872E+02  0.77000000000E+02 0.  0.
<mgrwt>
<rscale>  0 0.21293980E+03</rscale>
<asrwt>0</asrwt>
<pdfrwt beam="1">  1        2 0.43652912E-01 0.21293980E+03</pdfrwt>
<pdfrwt beam="2">  1       -2 0.61463001E-02 0.21293980E+03</pdfrwt>
<totfact> 0.16113785E+04</totfact>
</mgrwt>
</event>
<event>
 4    1  0.2489209E-004  0.2542085E+03  0.7818608E-02  0.1110674E+00
          2   -1    0    0  501    0  0.00000000000E+00  0.00000000000E+00  0.66269973818E+02  0.66269973867E+02  0.25500000000E-02 0.  1.
         -2   -1    0    0    0  501 -0.00000000000E+00 -0.00000000000E+00 -0.24378297859E+03  0.24378297860E+03  0.25500000000E-02 0. -1.
    5000001    1    1    2    0    0 -0.33811905424E+01  0.98733751655E+02 -0.11510568964E+03  0.17011203941E+03  0.77000000000E+02 0.  0.
   -5000001    1    1    2    0    0  0.33811905424E+01 -0.98733751655E+02 -0.62407315130E+02  0.13994091306E+03  0.77000000000E+02 0.  0.
<mgrwt>
<rscale>  0 0.25420851E+03</rscale>
<asrwt>0</asrwt>
<pdfrwt beam="1">  1        2 0.10195381E-01 0.25420851E+03</pdfrwt>
<pdfrwt beam="2">  1       -2 0.37505073E-01 0.25420851E+03</pdfrwt>
<totfact> 0.41758439E+03</totfact>
</mgrwt>
</event>
<event>
 4    1  0.2489209E-004  0.4189418E+03  0.7818608E-02  0.1037411E+00
          2   -1    0    0  501    0  0.00000000000E+00  0.00000000000E+00  0.82471507299E+03  0.82471507300E+03  0.25500000000E-02 0. -1.
         -2   -1    0    0    0  501 -0.00000000000E+00 -0.00000000000E+00 -0.53203902955E+02  0.53203903016E+02  0.25500000000E-02 0.  1.
    5000001    1    1    2    0    0  0.17221988897E+03  0.66708599632E+02  0.25590956666E+03  0.32485140254E+03  0.77000000000E+02 0.  0.
   -5000001    1    1    2    0    0 -0.17221988897E+03 -0.66708599632E+02  0.51560160338E+03  0.55306757347E+03  0.77000000000E+02 0.  0.
<mgrwt>
<rscale>  0 0.41894181E+03</rscale>
<asrwt>0</asrwt>
<pdfrwt beam="1">  1        2 0.12687923E+00 0.41894181E+03</pdfrwt>
<pdfrwt beam="2">  1       -2 0.81852164E-02 0.41894181E+03</pdfrwt>
<totfact> 0.31256450E+03</totfact>
</mgrwt>
</event>
<event>
 4    1  0.2489209E-004  0.2072761E+03  0.7818608E-02  0.1143741E+00
         -2   -1    0    0    0  501 -0.00000000000E+00  0.00000000000E+00  0.31022581070E+02  0.31022581175E+02  0.25500000000E-02 0. -1.
          2   -1    0    0  501    0  0.00000000000E+00 -0.00000000000E+00 -0.34622659498E+03  0.34622659498E+03  0.25500000000E-02 0.  1.
    5000001    1    1    2    0    0 -0.81386848748E+01 -0.64041715804E+02 -0.11140532868E+03  0.15002575383E+03  0.77000000000E+02 0.  0.
   -5000001    1    1    2    0    0  0.81386848748E+01  0.64041715804E+02 -0.20379868523E+03  0.22722342233E+03  0.77000000000E+02 0.  0.
<mgrwt>
<rscale>  0 0.20727607E+03</rscale>
<asrwt>0</asrwt>
<pdfrwt beam="1">  1        2 0.53265627E-01 0.20727607E+03</pdfrwt>
<pdfrwt beam="2">  1       -2 0.47727050E-02 0.20727607E+03</pdfrwt>
<totfact> 0.19088571E+04</totfact>
</mgrwt>
</event>
<event>
 4    1  0.2489209E-004  0.2175661E+03  0.7818608E-02  0.1135711E+00
          2   -1    0    0  501    0  0.00000000000E+00  0.00000000000E+00  0.48946419085E+03  0.48946419086E+03  0.25500000000E-02 0.  1.
         -2   -1    0    0    0  501 -0.00000000000E+00 -0.00000000000E+00 -0.24176961924E+02  0.24176962059E+02  0.25500000000E-02 0. -1.
    5000001    1    1    2    0    0  0.10557577284E+02  0.75641772818E+02  0.25262273078E+03  0.27491886865E+03  0.77000000000E+02 0.  0.
   -5000001    1    1    2    0    0 -0.10557577284E+02 -0.75641772818E+02  0.21266449815E+03  0.23872228427E+03  0.77000000000E+02 0.  0.
<mgrwt>
<rscale>  0 0.21756615E+03</rscale>
<asrwt>0</asrwt>
<pdfrwt beam="1">  1        2 0.75302185E-01 0.21756615E+03</pdfrwt>
<pdfrwt beam="2">  1       -2 0.37195325E-02 0.21756615E+03</pdfrwt>
<totfact> 0.19117533E+04</totfact>
</mgrwt>
</event>
<event>
 4    1  0.2489209E-004  0.2904856E+03  0.7818608E-02  0.1090096E+00
          2   -1    0    0  501    0  0.00000000000E+00  0.00000000000E+00  0.19396137936E+03  0.19396137938E+03  0.25500000000E-02 0.  1.
         -2   -1    0    0    0  501 -0.00000000000E+00 -0.00000000000E+00 -0.10876120909E+03  0.10876120912E+03  0.25500000000E-02 0. -1.
    5000001    1    1    2    0    0 -0.11435386688E+03 -0.22327394477E+02  0.84169737623E+02  0.16306092158E+03  0.77000000000E+02 0.  0.
   -5000001    1    1    2    0    0  0.11435386688E+03  0.22327394477E+02  0.10304326518E+01  0.13966166692E+03  0.77000000000E+02 0.  0.
<mgrwt>
<rscale>  0 0.29048562E+03</rscale>
<asrwt>0</asrwt>
<pdfrwt beam="1">  1        2 0.29840212E-01 0.29048562E+03</pdfrwt>
<pdfrwt beam="2">  1       -2 0.16732494E-01 0.29048562E+03</pdfrwt>
<totfact> 0.50065724E+03</totfact>
</mgrwt>
</event>
<event>
 4    1  0.2489209E-004  0.4152530E+03  0.7818608E-02  0.1038622E+00
         -2   -1    0    0    0  501 -0.00000000000E+00  0.00000000000E+00  0.58748223562E+03  0.58748223563E+03  0.25500000000E-02 0. -1.
          2   -1    0    0  501    0  0.00000000000E+00 -0.00000000000E+00 -0.73378840027E+02  0.73378840071E+02  0.25500000000E-02 0.  1.
    5000001    1    1    2    0    0  0.89468328793E+02  0.15549649634E+03  0.14456281816E+03  0.24292210814E+03  0.77000000000E+02 0.  0.
   -5000001    1    1    2    0    0 -0.89468328793E+02 -0.15549649634E+03  0.36954057743E+03  0.41793896755E+03  0.77000000000E+02 0.  0.
<mgrwt>
<rscale>  0 0.41525301E+03</rscale>
<asrwt>0</asrwt>
<pdfrwt beam="1">  1        2 0.11289053E-01 0.41525301E+03</pdfrwt>
<pdfrwt beam="2">  1       -2 0.90381880E-01 0.41525301E+03</pdfrwt>
<totfact> 0.60021147E+02</totfact>
</mgrwt>
</event>
<event>
 4    1  0.2489209E-004  0.2228402E+03  0.7818608E-02  0.1131783E+00
         -2   -1    0    0    0  501 -0.00000000000E+00  0.00000000000E+00  0.11135478321E+02  0.11135478613E+02  0.25500000000E-02 0. -1.
          2   -1    0    0  501    0  0.00000000000E+00 -0.00000000000E+00 -0.11148546431E+04  0.11148546431E+04  0.25500000000E-02 0.  1.
    5000001    1    1    2    0    0 -0.24847267063E+02  0.76080753835E+02 -0.50672946055E+03  0.51875756763E+03  0.77000000000E+02 0.  0.
   -5000001    1    1    2    0    0  0.24847267063E+02 -0.76080753835E+02 -0.59698970420E+03  0.60723255406E+03  0.77000000000E+02 0.  0.
<mgrwt>
<rscale>  0 0.22284021E+03</rscale>
<asrwt>0</asrwt>
<pdfrwt beam="1">  1        2 0.17151601E+00 0.22284021E+03</pdfrwt>
<pdfrwt beam="2">  1       -2 0.17131514E-02 0.22284021E+03</pdfrwt>
<totfact> 0.21454469E+04</totfact>
</mgrwt>
</event>
<event>
 4    1  0.2489209E-004  0.1738789E+03  0.7818608E-02  0.1173862E+00
         -2   -1    0    0    0  501 -0.00000000000E+00  0.00000000000E+00  0.10161086656E+02  0.10161086976E+02  0.25500000000E-02 0. -1.
          2   -1    0    0  501    0  0.00000000000E+00 -0.00000000000E+00 -0.74386397011E+03  0.74386397012E+03  0.25500000000E-02 0.  1.
    5000001    1    1    2    0    0 -0.18407002847E+02  0.33610276197E+02 -0.42187505806E+03  0.43055317098E+03  0.77000000000E+02 0.  0.
   -5000001    1    1    2    0    0  0.18407002847E+02 -0.33610276197E+02 -0.31182782539E+03  0.32347188612E+03  0.77000000000E+02 0.  0.
<mgrwt>
<rscale>  0 0.17387888E+03</rscale>
<asrwt>0</asrwt>
<pdfrwt beam="1">  1        2 0.11444057E+00 0.17387888E+03</pdfrwt>
<pdfrwt beam="2">  1       -2 0.15632447E-02 0.17387888E+03</pdfrwt>
<totfact> 0.41428105E+04</totfact>
</mgrwt>
</event>
<event>
 4    1  0.2489209E-004  0.1562064E+03  0.7818608E-02  0.1193048E+00
         -2   -1    0    0    0  501 -0.00000000000E+00  0.00000000000E+00  0.95573003836E+02  0.95573003870E+02  0.25500000000E-02 0. -1.
          2   -1    0    0  501    0  0.00000000000E+00 -0.00000000000E+00 -0.63826670257E+02  0.63826670308E+02  0.25500000000E-02 0.  1.
    5000001    1    1    2    0    0 -0.65016487896E+01 -0.11076015585E+02  0.13341100597E+02  0.79195546108E+02  0.77000000000E+02 0.  0.
   -5000001    1    1    2    0    0  0.65016487896E+01  0.11076015585E+02  0.18405232983E+02  0.80204128069E+02  0.77000000000E+02 0.  0.
<mgrwt>
<rscale>  0 0.15620636E+03</rscale>
<asrwt>0</asrwt>
<pdfrwt beam="1">  1        2 0.98194877E-02 0.15620636E+03</pdfrwt>
<pdfrwt beam="2">  1       -2 0.14703539E-01 0.15620636E+03</pdfrwt>
<totfact> 0.21741922E+04</totfact>
</mgrwt>
</event>
<event>
 4    1  0.2489209E-004  0.2229149E+03  0.7818608E-02  0.1131728E+00
         -2   -1    0    0    0  501 -0.00000000000E+00  0.00000000000E+00  0.13429344153E+02  0.13429344396E+02  0.25500000000E-02 0. -1.
          2   -1    0    0  501    0  0.00000000000E+00 -0.00000000000E+00 -0.92504638679E+03  0.92504638679E+03  0.25500000000E-02 0.  1.
    5000001    1    1    2    0    0  0.38691792651E+02 -0.54908404153E+02 -0.26839044609E+03  0.28718359844E+03  0.77000000000E+02 0.  0.
   -5000001    1    1    2    0    0 -0.38691792651E+02  0.54908404153E+02 -0.64322659655E+03  0.65129213275E+03  0.77000000000E+02 0.  0.
<mgrwt>
<rscale>  0 0.22291493E+03</rscale>
<asrwt>0</asrwt>
<pdfrwt beam="1">  1        2 0.14231478E+00 0.22291493E+03</pdfrwt>
<pdfrwt beam="2">  1       -2 0.20660537E-02 0.22291493E+03</pdfrwt>
<totfact> 0.21239355E+04</totfact>
</mgrwt>
</event>
<event>
 4    1  0.2489209E-004  0.2691257E+03  0.7818608E-02  0.1101781E+00
         -2   -1    0    0    0  501 -0.00000000000E+00  0.00000000000E+00  0.18635184095E+03  0.18635184097E+03  0.25500000000E-02 0. -1.
          2   -1    0    0  501    0  0.00000000000E+00 -0.00000000000E+00 -0.97166514836E+02  0.97166514870E+02  0.25500000000E-02 0.  1.
    5000001    1    1    2    0    0  0.55774574565E+02 -0.84191229859E+02  0.91459976089E+02  0.15650205615E+03  0.77000000000E+02 0.  0.
   -5000001    1    1    2    0    0 -0.55774574565E+02  0.84191229859E+02 -0.22746499763E+01  0.12701629969E+03  0.77000000000E+02 0.  0.
<mgrwt>
<rscale>  0 0.26912569E+03</rscale>
<asrwt>0</asrwt>
<pdfrwt beam="1">  1        2 0.14948695E-01 0.26912569E+03</pdfrwt>
<pdfrwt beam="2">  1       -2 0.28669513E-01 0.26912569E+03</pdfrwt>
<totfact> 0.43168768E+03</totfact>
</mgrwt>
</event>
<event>
 4    1  0.2489209E-004  0.2112167E+03  0.7818608E-02  0.1140606E+00
         -2   -1    0    0    0  501 -0.00000000000E+00  0.00000000000E+00  0.85407438665E+02  0.85407438703E+02  0.25500000000E-02 0. -1.
          2   -1    0    0  501    0  0.00000000000E+00 -0.00000000000E+00 -0.13058728090E+03  0.13058728093E+03  0.25500000000E-02 0.  1.
    5000001    1    1    2    0    0  0.12605257869E+02  0.67340027623E+02 -0.46144718805E+02  0.11292434157E+03  0.77000000000E+02 0.  0.
   -5000001    1    1    2    0    0 -0.12605257869E+02 -0.67340027623E+02  0.96487656479E+00  0.10307037806E+03  0.77000000000E+02 0.  0.
<mgrwt>
<rscale>  0 0.21121672E+03</rscale>
<asrwt>0</asrwt>
<pdfrwt beam="1">  1        2 0.20090351E-01 0.21121672E+03</pdfrwt>
<pdfrwt beam="2">  1       -2 0.13139606E-01 0.21121672E+03</pdfrwt>
<totfact> 0.11436828E+04</totfact>
</mgrwt>
</event>
<event>
 4    1  0.2489209E-004  0.2577729E+03  0.7818608E-02  0.1108489E+00
         -2   -1    0    0    0  501 -0.00000000000E+00  0.00000000000E+00  0.27656714789E+03  0.27656714790E+03  0.25500000000E-02 0. -1.
          2   -1    0    0  501    0  0.00000000000E+00 -0.00000000000E+00 -0.60063939524E+02  0.60063939578E+02  0.25500000000E-02 0.  1.
    5000001    1    1    2    0    0 -0.79242366406E+02  0.39700231488E+02  0.38813278722E+02  0.12365650658E+03  0.77000000000E+02 0.  0.
   -5000001    1    1    2    0    0  0.79242366406E+02 -0.39700231488E+02  0.17768992965E+03  0.21297458090E+03  0.77000000000E+02 0.  0.
<mgrwt>
<rscale>  0 0.25777286E+03</rscale>
<asrwt>0</asrwt>
<pdfrwt beam="1">  1        2 0.92406059E-02 0.25777286E+03</pdfrwt>
<pdfrwt beam="2">  1       -2 0.42548793E-01 0.25777286E+03</pdfrwt>
<totfact> 0.37117438E+03</totfact>
</mgrwt>
</event>
<event>
 4    1  0.2489209E-004  0.2935836E+03  0.7818608E-02  0.1088493E+00
          2   -1    0    0  501    0  0.00000000000E+00  0.00000000000E+00  0.98785214648E+03  0.98785214649E+03  0.25500000000E-02 0.  1.
         -2   -1    0    0    0  501 -0.00000000000E+00 -0.00000000000E+00 -0.21812805026E+02  0.21812805175E+02  0.25500000000E-02 0. -1.
    5000001    1    1    2    0    0 -0.24007514746E+02 -0.11583903945E+03  0.62160251877E+03  0.63742743521E+03  0.77000000000E+02 0.  0.
   -5000001    1    1    2    0    0  0.24007514746E+02  0.11583903945E+03  0.34443682269E+03  0.37223751645E+03  0.77000000000E+02 0.  0.
<mgrwt>
<rscale>  0 0.29358356E+03</rscale>
<asrwt>0</asrwt>
<pdfrwt beam="1">  1        2 0.15197722E+00 0.29358356E+03</pdfrwt>
<pdfrwt beam="2">  1       -2 0.33558170E-02 0.29358356E+03</pdfrwt>
<totfact> 0.95667462E+03</totfact>
</mgrwt>
</event>
<event>
 4    1  0.2489209E-004  0.2121871E+03  0.7818608E-02  0.1139846E+00
          2   -1    0    0  501    0  0.00000000000E+00  0.00000000000E+00  0.23563094490E+02  0.23563094628E+02  0.25500000000E-02 0.  1.
         -2   -1    0    0    0  501 -0.00000000000E+00 -0.00000000000E+00 -0.47768929883E+03  0.47768929883E+03  0.25500000000E-02 0. -1.
    5000001    1    1    2    0    0 -0.34416277574E+02  0.56519028338E+02 -0.29979617799E+03  0.31652113525E+03  0.77000000000E+02 0.  0.
   -5000001    1    1    2    0    0  0.34416277574E+02 -0.56519028338E+02 -0.15433002635E+03  0.18473125821E+03  0.77000000000E+02 0.  0.
<mgrwt>
<rscale>  0 0.21218707E+03</rscale>
<asrwt>0</asrwt>
<pdfrwt beam="1">  1        2 0.36250918E-02 0.21218707E+03</pdfrwt>
<pdfrwt beam="2">  1       -2 0.73490654E-01 0.21218707E+03</pdfrwt>
<totfact> 0.40801803E+03</totfact>
</mgrwt>
</event>
<event>
 4    1  0.2489209E-004  0.2113873E+03  0.7818608E-02  0.1140472E+00
         -2   -1    0    0    0  501 -0.00000000000E+00  0.00000000000E+00  0.14875523945E+03  0.14875523947E+03  0.25500000000E-02 0. -1.
          2   -1    0    0  501    0  0.00000000000E+00 -0.00000000000E+00 -0.75097538243E+02  0.75097538287E+02  0.25500000000E-02 0.  1.
    5000001    1    1    2    0    0 -0.69787956299E+02  0.90274560860E+01  0.18785969415E+02  0.10598946389E+03  0.77000000000E+02 0.  0.
   -5000001    1    1    2    0    0  0.69787956299E+02 -0.90274560860E+01  0.54871731794E+02  0.11786331388E+03  0.77000000000E+02 0.  0.
<mgrwt>
<rscale>  0 0.21138734E+03</rscale>
<asrwt>0</asrwt>
<pdfrwt beam="1">  1        2 0.11553468E-01 0.21138734E+03</pdfrwt>
<pdfrwt beam="2">  1       -2 0.22885421E-01 0.21138734E+03</pdfrwt>
<totfact> 0.86641704E+03</totfact>
</mgrwt>
</event>
<event>
 4    1  0.2489209E-004  0.2378855E+03  0.7818608E-02  0.1121210E+00
         -2   -1    0    0    0  501 -0.00000000000E+00  0.00000000000E+00  0.28731268931E+03  0.28731268932E+03  0.25500000000E-02 0. -1.
          2   -1    0    0  501    0  0.00000000000E+00 -0.00000000000E+00 -0.49240345384E+02  0.49240345450E+02  0.25500000000E-02 0.  1.
    5000001    1    1    2    0    0 -0.17461236506E+02  0.88216559110E+02  0.13524870899E+03  0.17974501207E+03  0.77000000000E+02 0.  0.
   -5000001    1    1    2    0    0  0.17461236506E+02 -0.88216559110E+02  0.10282363494E+03  0.15680802270E+03  0.77000000000E+02 0.  0.
<mgrwt>
<rscale>  0 0.23788549E+03</rscale>
<asrwt>0</asrwt>
<pdfrwt beam="1">  1        2 0.75754378E-02 0.23788549E+03</pdfrwt>
<pdfrwt beam="2">  1       -2 0.44201952E-01 0.23788549E+03</pdfrwt>
<totfact> 0.44172626E+03</totfact>
</mgrwt>
</event>
<event>
 4    1  0.2489209E-004  0.2157823E+03  0.7818608E-02  0.1137067E+00
         -2   -1    0    0    0  501 -0.00000000000E+00  0.00000000000E+00  0.10261155349E+03  0.10261155353E+03  0.25500000000E-02 0. -1.
          2   -1    0    0  501    0  0.00000000000E+00 -0.00000000000E+00 -0.11344235154E+03  0.11344235157E+03  0.25500000000E-02 0.  1.
    5000001    1    1    2    0    0 -0.18846985263E+02 -0.37173682625E+02  0.57706842176E+02  0.10486262998E+03  0.77000000000E+02 0.  0.
   -5000001    1    1    2    0    0  0.18846985263E+02  0.37173682625E+02 -0.68537640222E+02  0.11119127511E+03  0.77000000000E+02 0.  0.
<mgrwt>
<rscale>  0 0.21578226E+03</rscale>
<asrwt>0</asrwt>
<pdfrwt beam="1">  1        2 0.17452669E-01 0.21578226E+03</pdfrwt>
<pdfrwt beam="2">  1       -2 0.15786393E-01 0.21578226E+03</pdfrwt>
<totfact> 0.99656567E+03</totfact>
</mgrwt>
</event>
<event>
 4    1  0.2489209E-004  0.3098867E+03  0.7818608E-02  0.1080400E+00
         -2   -1    0    0    0  501 -0.00000000000E+00  0.00000000000E+00  0.76025828651E+02  0.76025828693E+02  0.25500000000E-02 0. -1.
          2   -1    0    0  501    0  0.00000000000E+00 -0.00000000000E+00 -0.31578009142E+03  0.31578009143E+03  0.25500000000E-02 0.  1.
    5000001    1    1    2    0    0  0.52056905596E+02 -0.12347434184E+03 -0.13387714781E+03  0.20446986384E+03  0.77000000000E+02 0.  0.
   -5000001    1    1    2    0    0 -0.52056905596E+02  0.12347434184E+03 -0.10587711496E+03  0.18733605629E+03  0.77000000000E+02 0.  0.
<mgrwt>
<rscale>  0 0.30988671E+03</rscale>
<asrwt>0</asrwt>
<pdfrwt beam="1">  1        2 0.48581552E-01 0.30988671E+03</pdfrwt>
<pdfrwt beam="2">  1       -2 0.11696282E-01 0.30988671E+03</pdfrwt>
<totfact> 0.53232798E+03</totfact>
</mgrwt>
</event>
<event>
 4    1  0.2489209E-004  0.2438719E+03  0.7818608E-02  0.1117240E+00
         -2   -1    0    0    0  501 -0.00000000000E+00  0.00000000000E+00  0.48012971939E+03  0.48012971939E+03  0.25500000000E-02 0. -1.
          2   -1    0    0  501    0  0.00000000000E+00 -0.00000000000E+00 -0.30967409110E+02  0.30967409215E+02  0.25500000000E-02 0.  1.
    5000001    1    1    2    0    0 -0.29935719960E+02 -0.89318289006E+02  0.20762369225E+03  0.24064600903E+03  0.77000000000E+02 0.  0.
   -5000001    1    1    2    0    0  0.29935719960E+02  0.89318289006E+02  0.24153861803E+03  0.27045111957E+03  0.77000000000E+02 0.  0.
<mgrwt>
<rscale>  0 0.24387188E+03</rscale>
<asrwt>0</asrwt>
<pdfrwt beam="1">  1        2 0.47642163E-02 0.24387188E+03</pdfrwt>
<pdfrwt beam="2">  1       -2 0.73866118E-01 0.24387188E+03</pdfrwt>
<totfact> 0.28219252E+03</totfact>
</mgrwt>
</event>
<event>
 4    1  0.2489209E-004  0.2193916E+03  0.7818608E-02  0.1134337E+00
          2   -1    0    0  501    0  0.00000000000E+00  0.00000000000E+00  0.70948998018E+03  0.70948998018E+03  0.25500000000E-02 0.  1.
         -2   -1    0    0    0  501 -0.00000000000E+00 -0.00000000000E+00 -0.16960307301E+02  0.16960307493E+02  0.25500000000E-02 0. -1.
    5000001    1    1    2    0    0 -0.50111584808E+02  0.58848687935E+02  0.30853611978E+03  0.32725811864E+03  0.77000000000E+02 0.  0.
   -5000001    1    1    2    0    0  0.50111584808E+02 -0.58848687935E+02  0.38399355310E+03  0.39919216904E+03  0.77000000000E+02 0.  0.
<mgrwt>
<rscale>  0 0.21939160E+03</rscale>
<asrwt>0</asrwt>
<pdfrwt beam="1">  1        2 0.10915231E+00 0.21939160E+03</pdfrwt>
<pdfrwt beam="2">  1       -2 0.26092781E-02 0.21939160E+03</pdfrwt>
<totfact> 0.21102985E+04</totfact>
</mgrwt>
</event>
<event>
 4    1  0.2489209E-004  0.3380384E+03  0.7818608E-02  0.1067634E+00
          2   -1    0    0  501    0  0.00000000000E+00  0.00000000000E+00  0.84503618722E+03  0.84503618723E+03  0.25500000000E-02 0.  1.
         -2   -1    0    0    0  501 -0.00000000000E+00 -0.00000000000E+00 -0.33806224435E+02  0.33806224532E+02  0.25500000000E-02 0. -1.
    5000001    1    1    2    0    0  0.11650946433E+03  0.39971130259E+02  0.18096892328E+03  0.23205796200E+03  0.77000000000E+02 0.  0.
   -5000001    1    1    2    0    0 -0.11650946433E+03 -0.39971130259E+02  0.63026103951E+03  0.64678444976E+03  0.77000000000E+02 0.  0.
<mgrwt>
<rscale>  0 0.33803836E+03</rscale>
<asrwt>0</asrwt>
<pdfrwt beam="1">  1        2 0.13000556E+00 0.33803836E+03</pdfrwt>
<pdfrwt beam="2">  1       -2 0.52009580E-02 0.33803836E+03</pdfrwt>
<totfact> 0.61132276E+03</totfact>
</mgrwt>
</event>
<event>
 4    1  0.2489209E-004  0.3749647E+03  0.7818608E-02  0.1052811E+00
          2   -1    0    0  501    0  0.00000000000E+00  0.00000000000E+00  0.37933662264E+03  0.37933662265E+03  0.25500000000E-02 0.  1.
         -2   -1    0    0    0  501 -0.00000000000E+00 -0.00000000000E+00 -0.92660777814E+02  0.92660777849E+02  0.25500000000E-02 0. -1.
    5000001    1    1    2    0    0 -0.16437087911E+03 -0.46885819679E+02  0.14602609352E+03  0.23763140780E+03  0.77000000000E+02 0.  0.
   -5000001    1    1    2    0    0  0.16437087911E+03  0.46885819679E+02  0.14064975131E+03  0.23436599269E+03  0.77000000000E+02 0.  0.
<mgrwt>
<rscale>  0 0.37496467E+03</rscale>
<asrwt>0</asrwt>
<pdfrwt beam="1">  1        2 0.58359481E-01 0.37496467E+03</pdfrwt>
<pdfrwt beam="2">  1       -2 0.14255504E-01 0.37496467E+03</pdfrwt>
<totfact> 0.31687618E+03</totfact>
</mgrwt>
</event>
<event>
 4    1  0.2489209E-004  0.2074353E+03  0.7818608E-02  0.1143613E+00
          2   -1    0    0  501    0  0.00000000000E+00  0.00000000000E+00  0.31702414898E+03  0.31702414899E+03  0.25500000000E-02 0.  1.
         -2   -1    0    0    0  501 -0.00000000000E+00 -0.00000000000E+00 -0.33932272391E+02  0.33932272487E+02  0.25500000000E-02 0. -1.
    5000001    1    1    2    0    0  0.39890451778E+02  0.10275901506E+02  0.23622354699E+03  0.25184798281E+03  0.77000000000E+02 0.  0.
   -5000001    1    1    2    0    0 -0.39890451778E+02 -0.10275901506E+02  0.46868329600E+02  0.99108438663E+02  0.77000000000E+02 0.  0.
<mgrwt>
<rscale>  0 0.20743529E+03</rscale>
<asrwt>0</asrwt>
<pdfrwt beam="1">  1        2 0.48772948E-01 0.20743529E+03</pdfrwt>
<pdfrwt beam="2">  1       -2 0.52203494E-02 0.20743529E+03</pdfrwt>
<totfact> 0.18318666E+04</totfact>
</mgrwt>
</event>
<event>
 4    1  0.2489209E-004  0.2142527E+03  0.7818608E-02  0.1138242E+00
         -2   -1    0    0    0  501 -0.00000000000E+00  0.00000000000E+00  0.54564926757E+02  0.54564926816E+02  0.25500000000E-02 0. -1.
          2   -1    0    0  501    0  0.00000000000E+00 -0.00000000000E+00 -0.21031918144E+03  0.21031918146E+03  0.25500000000E-02 0.  1.
    5000001    1    1    2    0    0 -0.56249919060E+02  0.11167471717E+02 -0.13662863902E+03  0.16698847511E+03  0.77000000000E+02 0.  0.
   -5000001    1    1    2    0    0  0.56249919060E+02 -0.11167471717E+02 -0.19125615671E+02  0.97895633169E+02  0.77000000000E+02 0.  0.
<mgrwt>
<rscale>  0 0.21425266E+03</rscale>
<asrwt>0</asrwt>
<pdfrwt beam="1">  1        2 0.32356797E-01 0.21425266E+03</pdfrwt>
<pdfrwt beam="2">  1       -2 0.83946042E-02 0.21425266E+03</pdfrwt>
<totfact> 0.13747670E+04</totfact>
</mgrwt>
</event>
<event>
 4    1  0.2489209E-004  0.4555627E+03  0.7818608E-02  0.1026076E+00
          2   -1    0    0  501    0  0.00000000000E+00  0.00000000000E+00  0.50632223547E+03  0.50632223547E+03  0.25500000000E-02 0.  1.
         -2   -1    0    0    0  501 -0.00000000000E+00 -0.00000000000E+00 -0.10247295402E+03  0.10247295405E+03  0.25500000000E-02 0. -1.
    5000001    1    1    2    0    0  0.13848545329E+02  0.21392242507E+03  0.20308119697E+03  0.30516480583E+03  0.77000000000E+02 0.  0.
   -5000001    1    1    2    0    0 -0.13848545329E+02 -0.21392242507E+03  0.20076808448E+03  0.30363038369E+03  0.77000000000E+02 0.  0.
<mgrwt>
<rscale>  0 0.45556266E+03</rscale>
<asrwt>0</asrwt>
<pdfrwt beam="1">  1        2 0.77895729E-01 0.45556266E+03</pdfrwt>
<pdfrwt beam="2">  1       -2 0.15765070E-01 0.45556266E+03</pdfrwt>
<totfact> 0.19447761E+03</totfact>
</mgrwt>
</event>
<event>
 4    1  0.2489209E-004  0.3857668E+03  0.7818608E-02  0.1048823E+00
          2   -1    0    0  501    0  0.00000000000E+00  0.00000000000E+00  0.16477286191E+03  0.16477286193E+03  0.25500000000E-02 0.  1.
         -2   -1    0    0    0  501 -0.00000000000E+00 -0.00000000000E+00 -0.22578964929E+03  0.22578964930E+03  0.25500000000E-02 0. -1.
    5000001    1    1    2    0    0  0.17522748652E+03 -0.22323687559E+02 -0.39098424168E+02  0.19662325862E+03  0.77000000000E+02 0.  0.
   -5000001    1    1    2    0    0 -0.17522748652E+03  0.22323687559E+02 -0.21918363213E+02  0.19393925261E+03  0.77000000000E+02 0.  0.
<mgrwt>
<rscale>  0 0.38576680E+03</rscale>
<asrwt>0</asrwt>
<pdfrwt beam="1">  1        2 0.25349671E-01 0.38576680E+03</pdfrwt>
<pdfrwt beam="2">  1       -2 0.34736869E-01 0.38576680E+03</pdfrwt>
<totfact> 0.16608442E+03</totfact>
</mgrwt>
</event>
<event>
 4    1  0.2489209E-004  0.1972211E+03  0.7818608E-02  0.1152105E+00
         -2   -1    0    0    0  501 -0.00000000000E+00  0.00000000000E+00  0.15779185319E+02  0.15779185525E+02  0.25500000000E-02 0. -1.
          2   -1    0    0  501    0  0.00000000000E+00 -0.00000000000E+00 -0.61625713738E+03  0.61625713738E+03  0.25500000000E-02 0.  1.
    5000001    1    1    2    0    0  0.53462226789E+02  0.21218532133E+02 -0.37093170598E+03  0.38318111423E+03  0.77000000000E+02 0.  0.
   -5000001    1    1    2    0    0 -0.53462226789E+02 -0.21218532133E+02 -0.22954624608E+03  0.24885520868E+03  0.77000000000E+02 0.  0.
<mgrwt>
<rscale>  0 0.19722105E+03</rscale>
<asrwt>0</asrwt>
<pdfrwt beam="1">  1        2 0.94808772E-01 0.19722105E+03</pdfrwt>
<pdfrwt beam="2">  1       -2 0.24275675E-02 0.19722105E+03</pdfrwt>
<totfact> 0.27532271E+04</totfact>
</mgrwt>
</event>
<event>
 4    1  0.2489209E-004  0.1942206E+03  0.7818608E-02  0.1154709E+00
          2   -1    0    0  501    0  0.00000000000E+00  0.00000000000E+00  0.10315984817E+03  0.10315984820E+03  0.25500000000E-02 0.  1.
         -2   -1    0    0    0  501 -0.00000000000E+00 -0.00000000000E+00 -0.91415497795E+02  0.91415497831E+02  0.25500000000E-02 0. -1.
    5000001    1    1    2    0    0  0.47034760258E+02 -0.29602922302E+02  0.26226944514E+02  0.98516264139E+02  0.77000000000E+02 0.  0.
   -5000001    1    1    2    0    0 -0.47034760258E+02  0.29602922302E+02 -0.14482594138E+02  0.96059081894E+02  0.77000000000E+02 0.  0.
<mgrwt>
<rscale>  0 0.19422058E+03</rscale>
<asrwt>0</asrwt>
<pdfrwt beam="1">  1        2 0.15870746E-01 0.19422058E+03</pdfrwt>
<pdfrwt beam="2">  1       -2 0.14063923E-01 0.19422058E+03</pdfrwt>
<totfact> 0.13369249E+04</totfact>
</mgrwt>
</event>
<event>
 4    1  0.2489209E-004  0.3174607E+03  0.7818608E-02  0.1076824E+00
         -2   -1    0    0    0  501 -0.00000000000E+00  0.00000000000E+00  0.27874686275E+03  0.27874686276E+03  0.25500000000E-02 0. -1.
          2   -1    0    0  501    0  0.00000000000E+00 -0.00000000000E+00 -0.90387801656E+02  0.90387801692E+02  0.25500000000E-02 0.  1.
    5000001    1    1    2    0    0 -0.56463610899E+02  0.79972843625E+02 -0.20237100054E+02  0.12618373624E+03  0.77000000000E+02 0.  0.
   -5000001    1    1    2    0    0  0.56463610899E+02 -0.79972843625E+02  0.20859616114E+03  0.24295092821E+03  0.77000000000E+02 0.  0.
<mgrwt>
<rscale>  0 0.31746065E+03</rscale>
<asrwt>0</asrwt>
<pdfrwt beam="1">  1        2 0.13905816E-01 0.31746065E+03</pdfrwt>
<pdfrwt beam="2">  1       -2 0.42884132E-01 0.31746065E+03</pdfrwt>
<totfact> 0.22270441E+03</totfact>
</mgrwt>
</event>
<event>
 4    1  0.2489209E-004  0.2246957E+03  0.7818608E-02  0.1130430E+00
         -2   -1    0    0    0  501 -0.00000000000E+00  0.00000000000E+00  0.13005434364E+02  0.13005434614E+02  0.25500000000E-02 0. -1.
          2   -1    0    0  501    0  0.00000000000E+00 -0.00000000000E+00 -0.97051997329E+03  0.97051997329E+03  0.25500000000E-02 0.  1.
    5000001    1    1    2    0    0 -0.44137345310E+02 -0.67684746553E+02 -0.53476142536E+03  0.54628574228E+03  0.77000000000E+02 0.  0.
   -5000001    1    1    2    0    0  0.44137345310E+02  0.67684746553E+02 -0.42275311356E+03  0.43723966562E+03  0.77000000000E+02 0.  0.
<mgrwt>
<rscale>  0 0.22469565E+03</rscale>
<asrwt>0</asrwt>
<pdfrwt beam="1">  1        2 0.14931071E+00 0.22469565E+03</pdfrwt>
<pdfrwt beam="2">  1       -2 0.20008368E-02 0.22469565E+03</pdfrwt>
<totfact> 0.20861363E+04</totfact>
</mgrwt>
</event>
<event>
 4    1  0.2489209E-004  0.2323907E+03  0.7818608E-02  0.1124968E+00
         -2   -1    0    0    0  501 -0.00000000000E+00  0.00000000000E+00  0.50478177111E+02  0.50478177176E+02  0.25500000000E-02 0. -1.
          2   -1    0    0  501    0  0.00000000000E+00 -0.00000000000E+00 -0.26746927577E+03  0.26746927578E+03  0.25500000000E-02 0.  1.
    5000001    1    1    2    0    0  0.14918380769E+01  0.86782586270E+02 -0.11703078114E+03  0.16479880641E+03  0.77000000000E+02 0.  0.
   -5000001    1    1    2    0    0 -0.14918380769E+01 -0.86782586270E+02 -0.99960317517E+02  0.15314864655E+03  0.77000000000E+02 0.  0.
<mgrwt>
<rscale>  0 0.23239072E+03</rscale>
<asrwt>0</asrwt>
<pdfrwt beam="1">  1        2 0.41149118E-01 0.23239072E+03</pdfrwt>
<pdfrwt beam="2">  1       -2 0.77658736E-02 0.23239072E+03</pdfrwt>
<totfact> 0.12032254E+04</totfact>
</mgrwt>
</event>
<event>
 4    1  0.2489209E-004  0.1731849E+03  0.7818608E-02  0.1174567E+00
          2   -1    0    0  501    0  0.00000000000E+00  0.00000000000E+00  0.11017719637E+04  0.11017719637E+04  0.25500000000E-02 0.  1.
         -2   -1    0    0    0  501 -0.00000000000E+00 -0.00000000000E+00 -0.68056283989E+01  0.68056288766E+01  0.25500000000E-02 0. -1.
    5000001    1    1    2    0    0  0.35617755576E+02 -0.88692801232E+01  0.45211671724E+03  0.46009326734E+03  0.77000000000E+02 0.  0.
   -5000001    1    1    2    0    0 -0.35617755576E+02  0.88692801232E+01  0.64284961805E+03  0.64848432523E+03  0.77000000000E+02 0.  0.
<mgrwt>
<rscale>  0 0.17318488E+03</rscale>
<asrwt>0</asrwt>
<pdfrwt beam="1">  1        2 0.16950350E+00 0.17318488E+03</pdfrwt>
<pdfrwt beam="2">  1       -2 0.10470191E-02 0.17318488E+03</pdfrwt>
<totfact> 0.43830857E+04</totfact>
</mgrwt>
</event>
<event>
 4    1  0.2489209E-004  0.2655311E+03  0.7818608E-02  0.1103865E+00
          2   -1    0    0  501    0  0.00000000000E+00  0.00000000000E+00  0.14879160541E+02  0.14879160760E+02  0.25500000000E-02 0.  1.
         -2   -1    0    0    0  501 -0.00000000000E+00 -0.00000000000E+00 -0.11846562168E+04  0.11846562168E+04  0.25500000000E-02 0. -1.
    5000001    1    1    2    0    0 -0.31065087741E+02  0.97118331705E+02 -0.74781172921E+03  0.75864905745E+03  0.77000000000E+02 0.  0.
   -5000001    1    1    2    0    0  0.31065087741E+02 -0.97118331705E+02 -0.42196532706E+03  0.44088632012E+03  0.77000000000E+02 0.  0.
<mgrwt>
<rscale>  0 0.26553109E+03</rscale>
<asrwt>0</asrwt>
<pdfrwt beam="1">  1        2 0.22891026E-02 0.26553109E+03</pdfrwt>
<pdfrwt beam="2">  1       -2 0.18225473E+00 0.26553109E+03</pdfrwt>
<totfact> 0.85323632E+02</totfact>
</mgrwt>
</event>
<event>
 4    1  0.2489209E-004  0.2494635E+03  0.7818608E-02  0.1113644E+00
         -2   -1    0    0    0  501 -0.00000000000E+00  0.00000000000E+00  0.31975189628E+02  0.31975189730E+02  0.25500000000E-02 0. -1.
          2   -1    0    0  501    0  0.00000000000E+00 -0.00000000000E+00 -0.48656499207E+03  0.48656499208E+03  0.25500000000E-02 0.  1.
    5000001    1    1    2    0    0 -0.86657956315E+02 -0.21809228447E+02 -0.31156920407E+03  0.33315103596E+03  0.77000000000E+02 0.  0.
   -5000001    1    1    2    0    0  0.86657956315E+02  0.21809228447E+02 -0.14302059837E+03  0.18538914584E+03  0.77000000000E+02 0.  0.
<mgrwt>
<rscale>  0 0.24946349E+03</rscale>
<asrwt>0</asrwt>
<pdfrwt beam="1">  1        2 0.74856147E-01 0.24946349E+03</pdfrwt>
<pdfrwt beam="2">  1       -2 0.49192603E-02 0.24946349E+03</pdfrwt>
<totfact> 0.12733179E+04</totfact>
</mgrwt>
</event>
<event>
 4    1  0.2489209E-004  0.2990400E+03  0.7818608E-02  0.1085722E+00
         -2   -1    0    0    0  501 -0.00000000000E+00  0.00000000000E+00  0.10286826282E+02  0.10286826598E+02  0.25500000000E-02 0. -1.
          2   -1    0    0  501    0  0.00000000000E+00 -0.00000000000E+00 -0.21732869584E+04  0.21732869584E+04  0.25500000000E-02 0.  1.
    5000001    1    1    2    0    0 -0.26834589644E+02  0.11642737911E+03 -0.74278136522E+03  0.75625960247E+03  0.77000000000E+02 0.  0.
   -5000001    1    1    2    0    0  0.26834589644E+02 -0.11642737911E+03 -0.14202187669E+04  0.14273141825E+04  0.77000000000E+02 0.  0.
<mgrwt>
<rscale>  0 0.29903997E+03</rscale>
<asrwt>0</asrwt>
<pdfrwt beam="1">  1        2 0.33435147E+00 0.29903997E+03</pdfrwt>
<pdfrwt beam="2">  1       -2 0.15825904E-02 0.29903997E+03</pdfrwt>
<totfact> 0.65633752E+03</totfact>
</mgrwt>
</event>
<event>
 4    1  0.2489209E-004  0.2567633E+03  0.7818608E-02  0.1109104E+00
         -2   -1    0    0    0  501 -0.00000000000E+00  0.00000000000E+00  0.31814250678E+02  0.31814250780E+02  0.25500000000E-02 0. -1.
          2   -1    0    0  501    0  0.00000000000E+00 -0.00000000000E+00 -0.51806482351E+03  0.51806482351E+03  0.25500000000E-02 0.  1.
    5000001    1    1    2    0    0 -0.16261836581E+02 -0.22621419841E+02 -0.31372207444E+02  0.87689174728E+02  0.77000000000E+02 0.  0.
   -5000001    1    1    2    0    0  0.16261836581E+02  0.22621419841E+02 -0.45487836539E+03  0.46218989957E+03  0.77000000000E+02 0.  0.
<mgrwt>
<rscale>  0 0.25676327E+03</rscale>
<asrwt>0</asrwt>
<pdfrwt beam="1">  1        2 0.79702274E-01 0.25676327E+03</pdfrwt>
<pdfrwt beam="2">  1       -2 0.48945005E-02 0.25676327E+03</pdfrwt>
<totfact> 0.11978401E+04</totfact>
</mgrwt>
</event>
<event>
 4    1  0.2489209E-004  0.2909645E+03  0.7818608E-02  0.1089847E+00
         -2   -1    0    0    0  501 -0.00000000000E+00  0.00000000000E+00  0.64962555471E+02  0.64962555522E+02  0.25500000000E-02 0. -1.
          2   -1    0    0  501    0  0.00000000000E+00 -0.00000000000E+00 -0.32580443020E+03  0.32580443021E+03  0.25500000000E-02 0.  1.
    5000001    1    1    2    0    0  0.99149475690E+02 -0.34281584176E+02 -0.43071426882E+02  0.13707659668E+03  0.77000000000E+02 0.  0.
   -5000001    1    1    2    0    0 -0.99149475690E+02  0.34281584176E+02 -0.21777044785E+03  0.25369038906E+03  0.77000000000E+02 0.  0.
<mgrwt>
<rscale>  0 0.29096452E+03</rscale>
<asrwt>0</asrwt>
<pdfrwt beam="1">  1        2 0.50123758E-01 0.29096452E+03</pdfrwt>
<pdfrwt beam="2">  1       -2 0.99942395E-02 0.29096452E+03</pdfrwt>
<totfact> 0.66100900E+03</totfact>
</mgrwt>
</event>
<event>
 4    1  0.2489209E-004  0.1832166E+03  0.7818608E-02  0.1164726E+00
          2   -1    0    0  501    0  0.00000000000E+00  0.00000000000E+00  0.22743392228E+03  0.22743392229E+03  0.25500000000E-02 0.  1.
         -2   -1    0    0    0  501 -0.00000000000E+00 -0.00000000000E+00 -0.36898991141E+02  0.36898991229E+02  0.25500000000E-02 0. -1.
    5000001    1    1    2    0    0  0.19271380348E+02 -0.27512137573E+02  0.42557712872E+02  0.94172515838E+02  0.77000000000E+02 0.  0.
   -5000001    1    1    2    0    0 -0.19271380348E+02  0.27512137573E+02  0.14797721826E+03  0.17016039768E+03  0.77000000000E+02 0.  0.
<mgrwt>
<rscale>  0 0.18321662E+03</rscale>
<asrwt>0</asrwt>
<pdfrwt beam="1">  1        2 0.34989834E-01 0.18321662E+03</pdfrwt>
<pdfrwt beam="2">  1       -2 0.56767679E-02 0.18321662E+03</pdfrwt>
<totfact> 0.22808632E+04</totfact>
</mgrwt>
</event>
<event>
 4    1  0.2489209E-004  0.2878650E+03  0.7818608E-02  0.1091469E+00
         -2   -1    0    0    0  501 -0.00000000000E+00  0.00000000000E+00  0.52265503654E+03  0.52265503655E+03  0.25500000000E-02 0. -1.
          2   -1    0    0  501    0  0.00000000000E+00 -0.00000000000E+00 -0.39637161599E+02  0.39637161681E+02  0.25500000000E-02 0.  1.
    5000001    1    1    2    0    0  0.69533268929E+02 -0.97673622123E+02  0.28118345286E+03  0.31522713416E+03  0.77000000000E+02 0.  0.
   -5000001    1    1    2    0    0 -0.69533268929E+02  0.97673622123E+02  0.20183442208E+03  0.24706506407E+03  0.77000000000E+02 0.  0.
<mgrwt>
<rscale>  0 0.28786498E+03</rscale>
<asrwt>0</asrwt>
<pdfrwt beam="1">  1        2 0.60980252E-02 0.28786498E+03</pdfrwt>
<pdfrwt beam="2">  1       -2 0.80408462E-01 0.28786498E+03</pdfrwt>
<totfact> 0.17034640E+03</totfact>
</mgrwt>
</event>
<event>
 4    1  0.2489209E-004  0.3969821E+03  0.7818608E-02  0.1044830E+00
         -2   -1    0    0    0  501 -0.00000000000E+00  0.00000000000E+00  0.11029752247E+02  0.11029752542E+02  0.25500000000E-02 0. -1.
          2   -1    0    0  501    0  0.00000000000E+00 -0.00000000000E+00 -0.35720374481E+04  0.35720374481E+04  0.25500000000E-02 0.  1.
    5000001    1    1    2    0    0  0.72909998363E+02 -0.28157367674E+02 -0.28753781932E+03  0.30775916356E+03  0.77000000000E+02 0.  0.
   -5000001    1    1    2    0    0 -0.72909998363E+02  0.28157367674E+02 -0.32734698766E+04  0.32753080371E+04  0.77000000000E+02 0.  0.
<mgrwt>
<rscale>  0 0.39698206E+03</rscale>
<asrwt>0</asrwt>
<pdfrwt beam="1">  1        2 0.54954330E+00 0.39698206E+03</pdfrwt>
<pdfrwt beam="2">  1       -2 0.16968878E-02 0.39698206E+03</pdfrwt>
<totfact> 0.87305617E+02</totfact>
</mgrwt>
</event>
<event>
 4    1  0.2489209E-004  0.1808561E+03  0.7818608E-02  0.1166977E+00
         -2   -1    0    0    0  501 -0.00000000000E+00  0.00000000000E+00  0.36030016657E+02  0.36030016747E+02  0.25500000000E-02 0. -1.
          2   -1    0    0  501    0  0.00000000000E+00 -0.00000000000E+00 -0.22695601142E+03  0.22695601143E+03  0.25500000000E-02 0.  1.
    5000001    1    1    2    0    0  0.45665785965E+02  0.11403785463E+02 -0.10379327220E+03  0.13754073464E+03  0.77000000000E+02 0.  0.
   -5000001    1    1    2    0    0 -0.45665785965E+02 -0.11403785463E+02 -0.87132722561E+02  0.12544529354E+03  0.77000000000E+02 0.  0.
<mgrwt>
<rscale>  0 0.18085606E+03</rscale>
<asrwt>0</asrwt>
<pdfrwt beam="1">  1        2 0.34916309E-01 0.18085606E+03</pdfrwt>
<pdfrwt beam="2">  1       -2 0.55430796E-02 0.18085606E+03</pdfrwt>
<totfact> 0.23676960E+04</totfact>
</mgrwt>
</event>
<event>
 4    1  0.2489209E-004  0.2066074E+03  0.7818608E-02  0.1144281E+00
          2   -1    0    0  501    0  0.00000000000E+00  0.00000000000E+00  0.38645471424E+03  0.38645471425E+03  0.25500000000E-02 0.  1.
         -2   -1    0    0    0  501 -0.00000000000E+00 -0.00000000000E+00 -0.27614242787E+02  0.27614242905E+02  0.25500000000E-02 0. -1.
    5000001    1    1    2    0    0 -0.16869746030E+02 -0.13898459354E+02  0.31030261123E+03  0.32045977289E+03  0.77000000000E+02 0.  0.
   -5000001    1    1    2    0    0  0.16869746030E+02  0.13898459354E+02  0.48537860219E+02  0.93609184262E+02  0.77000000000E+02 0.  0.
<mgrwt>
<rscale>  0 0.20660740E+03</rscale>
<asrwt>0</asrwt>
<pdfrwt beam="1">  1        2 0.59454570E-01 0.20660740E+03</pdfrwt>
<pdfrwt beam="2">  1       -2 0.42483452E-02 0.20660740E+03</pdfrwt>
<totfact> 0.20204214E+04</totfact>
</mgrwt>
</event>
<event>
 4    1  0.2489209E-004  0.1738816E+03  0.7818608E-02  0.1173859E+00
          2   -1    0    0  501    0  0.00000000000E+00  0.00000000000E+00  0.39775501320E+03  0.39775501320E+03  0.25500000000E-02 0.  1.
         -2   -1    0    0    0  501 -0.00000000000E+00 -0.00000000000E+00 -0.19003417003E+02  0.19003417174E+02  0.25500000000E-02 0. -1.
    5000001    1    1    2    0    0 -0.38350552467E+02 -0.12604426365E+02  0.18875088467E+03  0.20781129157E+03  0.77000000000E+02 0.  0.
   -5000001    1    1    2    0    0  0.38350552467E+02  0.12604426365E+02  0.19000071152E+03  0.20894713881E+03  0.77000000000E+02 0.  0.
<mgrwt>
<rscale>  0 0.17388162E+03</rscale>
<asrwt>0</asrwt>
<pdfrwt beam="1">  1        2 0.61193082E-01 0.17388162E+03</pdfrwt>
<pdfrwt beam="2">  1       -2 0.29236025E-02 0.17388162E+03</pdfrwt>
<totfact> 0.33683506E+04</totfact>
</mgrwt>
</event>
<event>
 4    1  0.2489209E-004  0.2344563E+03  0.7818608E-02  0.1123542E+00
         -2   -1    0    0    0  501 -0.00000000000E+00  0.00000000000E+00  0.23907667683E+02  0.23907667819E+02  0.25500000000E-02 0. -1.
          2   -1    0    0  501    0  0.00000000000E+00 -0.00000000000E+00 -0.57481319995E+03  0.57481319996E+03  0.25500000000E-02 0.  1.
    5000001    1    1    2    0    0 -0.57143357212E+02 -0.67384160034E+02 -0.26848043838E+03  0.29294493355E+03  0.77000000000E+02 0.  0.
   -5000001    1    1    2    0    0  0.57143357212E+02  0.67384160034E+02 -0.28242509389E+03  0.30577593423E+03  0.77000000000E+02 0.  0.
<mgrwt>
<rscale>  0 0.23445633E+03</rscale>
<asrwt>0</asrwt>
<pdfrwt beam="1">  1        2 0.88432790E-01 0.23445633E+03</pdfrwt>
<pdfrwt beam="2">  1       -2 0.36781032E-02 0.23445633E+03</pdfrwt>
<totfact> 0.16295584E+04</totfact>
</mgrwt>
</event>
<event>
 4    1  0.2489209E-004  0.5510254E+03  0.7818608E-02  0.1001257E+00
          2   -1    0    0  501    0  0.00000000000E+00  0.00000000000E+00  0.53001522019E+03  0.53001522020E+03  0.25500000000E-02 0.  1.
         -2   -1    0    0    0  501 -0.00000000000E+00 -0.00000000000E+00 -0.14321712058E+03  0.14321712060E+03  0.25500000000E-02 0. -1.
    5000001    1    1    2    0    0  0.14546412078E+03  0.21638114608E+03  0.24800654586E+03  0.36799029552E+03  0.77000000000E+02 0.  0.
   -5000001    1    1    2    0    0 -0.14546412078E+03 -0.21638114608E+03  0.13879155376E+03  0.30524204528E+03  0.77000000000E+02 0.  0.
<mgrwt>
<rscale>  0 0.55102542E+03</rscale>
<asrwt>0</asrwt>
<pdfrwt beam="1">  1        2 0.81540802E-01 0.55102542E+03</pdfrwt>
<pdfrwt beam="2">  1       -2 0.22033403E-01 0.55102542E+03</pdfrwt>
<totfact> 0.10371061E+03</totfact>
</mgrwt>
</event>
<event>
 4    1  0.2489209E-004  0.2510622E+03  0.7818608E-02  0.1112635E+00
          2   -1    0    0  501    0  0.00000000000E+00  0.00000000000E+00  0.19401502226E+04  0.19401502226E+04  0.25500000000E-02 0.  1.
         -2   -1    0    0    0  501 -0.00000000000E+00 -0.00000000000E+00 -0.81220777366E+01  0.81220781369E+01  0.25500000000E-02 0. -1.
    5000001    1    1    2    0    0  0.56666144532E+02 -0.25407266344E+02  0.36629839661E+03  0.37942073807E+03  0.77000000000E+02 0.  0.
   -5000001    1    1    2    0    0 -0.56666144532E+02  0.25407266344E+02  0.15657297483E+04  0.15688515627E+04  0.77000000000E+02 0.  0.
<mgrwt>
<rscale>  0 0.25106215E+03</rscale>
<asrwt>0</asrwt>
<pdfrwt beam="1">  1        2 0.29848471E+00 0.25106215E+03</pdfrwt>
<pdfrwt beam="2">  1       -2 0.12495502E-02 0.25106215E+03</pdfrwt>
<totfact> 0.12284947E+04</totfact>
</mgrwt>
</event>
<event>
 4    1  0.2489209E-004  0.4111613E+03  0.7818608E-02  0.1039982E+00
         -2   -1    0    0    0  501 -0.00000000000E+00  0.00000000000E+00  0.12195379347E+03  0.12195379350E+03  0.25500000000E-02 0. -1.
          2   -1    0    0  501    0  0.00000000000E+00 -0.00000000000E+00 -0.34655257110E+03  0.34655257111E+03  0.25500000000E-02 0.  1.
    5000001    1    1    2    0    0  0.25906089315E+02  0.13459506550E+03 -0.26324142597E+03  0.30661377247E+03  0.77000000000E+02 0.  0.
   -5000001    1    1    2    0    0 -0.25906089315E+02 -0.13459506550E+03  0.38642648342E+02  0.16189259214E+03  0.77000000000E+02 0.  0.
<mgrwt>
<rscale>  0 0.41116129E+03</rscale>
<asrwt>0</asrwt>
<pdfrwt beam="1">  1        2 0.53315780E-01 0.41116129E+03</pdfrwt>
<pdfrwt beam="2">  1       -2 0.18762122E-01 0.41116129E+03</pdfrwt>
<totfact> 0.22061794E+03</totfact>
</mgrwt>
</event>
<event>
 4    1  0.2489209E-004  0.2383174E+03  0.7818608E-02  0.1120919E+00
          2   -1    0    0  501    0  0.00000000000E+00  0.00000000000E+00  0.34104708965E+03  0.34104708965E+03  0.25500000000E-02 0.  1.
         -2   -1    0    0    0  501 -0.00000000000E+00 -0.00000000000E+00 -0.41632933774E+02  0.41632933852E+02  0.25500000000E-02 0. -1.
    5000001    1    1    2    0    0  0.76487916975E+02 -0.28917991618E+02  0.21359807562E+03  0.24132921413E+03  0.77000000000E+02 0.  0.
   -5000001    1    1    2    0    0 -0.76487916975E+02  0.28917991618E+02  0.85816080248E+02  0.14135080938E+03  0.77000000000E+02 0.  0.
<mgrwt>
<rscale>  0 0.23831736E+03</rscale>
<asrwt>0</asrwt>
<pdfrwt beam="1">  1        2 0.52468782E-01 0.23831736E+03</pdfrwt>
<pdfrwt beam="2">  1       -2 0.64050669E-02 0.23831736E+03</pdfrwt>
<totfact> 0.12503406E+04</totfact>
</mgrwt>
</event>
<event>
 4    1  0.2489209E-004  0.2010311E+03  0.7818608E-02  0.1148872E+00
         -2   -1    0    0    0  501 -0.00000000000E+00  0.00000000000E+00  0.35817896711E+02  0.35817896802E+02  0.25500000000E-02 0. -1.
          2   -1    0    0  501    0  0.00000000000E+00 -0.00000000000E+00 -0.28207613685E+03  0.28207613686E+03  0.25500000000E-02 0.  1.
    5000001    1    1    2    0    0  0.32954721886E+02  0.53209649298E+02 -0.97774056894E+02  0.13930558738E+03  0.77000000000E+02 0.  0.
   -5000001    1    1    2    0    0 -0.32954721886E+02 -0.53209649298E+02 -0.14848418324E+03  0.17858844628E+03  0.77000000000E+02 0.  0.
<mgrwt>
<rscale>  0 0.20103108E+03</rscale>
<asrwt>0</asrwt>
<pdfrwt beam="1">  1        2 0.43396327E-01 0.20103108E+03</pdfrwt>
<pdfrwt beam="2">  1       -2 0.55104458E-02 0.20103108E+03</pdfrwt>
<totfact> 0.19077969E+04</totfact>
</mgrwt>
</event>
<event>
 4    1  0.2489209E-004  0.3091016E+03  0.7818608E-02  0.1080777E+00
          2   -1    0    0  501    0  0.00000000000E+00  0.00000000000E+00  0.23004160984E+04  0.23004160984E+04  0.25500000000E-02 0.  1.
         -2   -1    0    0    0  501 -0.00000000000E+00 -0.00000000000E+00 -0.10383318207E+02  0.10383318520E+02  0.25500000000E-02 0. -1.
    5000001    1    1    2    0    0  0.29138233045E+02 -0.12602924387E+03  0.14066228616E+04  0.14146551812E+04  0.77000000000E+02 0.  0.
   -5000001    1    1    2    0    0 -0.29138233045E+02  0.12602924387E+03  0.88340991859E+03  0.89614423571E+03  0.77000000000E+02 0.  0.
<mgrwt>
<rscale>  0 0.30910162E+03</rscale>
<asrwt>0</asrwt>
<pdfrwt beam="1">  1        2 0.35391046E+00 0.30910162E+03</pdfrwt>
<pdfrwt beam="2">  1       -2 0.15974323E-02 0.30910162E+03</pdfrwt>
<totfact> 0.55339194E+03</totfact>
</mgrwt>
</event>
<event>
 4    1  0.2489209E-004  0.2777216E+03  0.7818608E-02  0.1096940E+00
         -2   -1    0    0    0  501 -0.00000000000E+00  0.00000000000E+00  0.33034254847E+02  0.33034254945E+02  0.25500000000E-02 0.  1.
          2   -1    0    0  501    0  0.00000000000E+00 -0.00000000000E+00 -0.58370691369E+03  0.58370691369E+03  0.25500000000E-02 0. -1.
    5000001    1    1    2    0    0  0.10582601001E+03  0.42190010237E+02 -0.23237927541E+03  0.27001531253E+03  0.77000000000E+02 0.  0.
   -5000001    1    1    2    0    0 -0.10582601001E+03 -0.42190010237E+02 -0.31829338343E+03  0.34672585611E+03  0.77000000000E+02 0.  0.
<mgrwt>
<rscale>  0 0.27772161E+03</rscale>
<asrwt>0</asrwt>
<pdfrwt beam="1">  1        2 0.89801056E-01 0.27772161E+03</pdfrwt>
<pdfrwt beam="2">  1       -2 0.50821935E-02 0.27772161E+03</pdfrwt>
<totfact> 0.99084231E+03</totfact>
</mgrwt>
</event>
<event>
 4    1  0.2489209E-004  0.2562803E+03  0.7818608E-02  0.1109399E+00
         -2   -1    0    0    0  501 -0.00000000000E+00  0.00000000000E+00  0.54360231481E+02  0.54360231541E+02  0.25500000000E-02 0. -1.
          2   -1    0    0  501    0  0.00000000000E+00 -0.00000000000E+00 -0.30205720275E+03  0.30205720276E+03  0.25500000000E-02 0.  1.
    5000001    1    1    2    0    0  0.23461838847E+02 -0.62590997533E+02 -0.23177874695E+03  0.25321626803E+03  0.77000000000E+02 0.  0.
   -5000001    1    1    2    0    0 -0.23461838847E+02  0.62590997533E+02 -0.15918224311E+02  0.10320116627E+03  0.77000000000E+02 0.  0.
<mgrwt>
<rscale>  0 0.25628031E+03</rscale>
<asrwt>0</asrwt>
<pdfrwt beam="1">  1        2 0.46470338E-01 0.25628031E+03</pdfrwt>
<pdfrwt beam="2">  1       -2 0.83631127E-02 0.25628031E+03</pdfrwt>
<totfact> 0.94526870E+03</totfact>
</mgrwt>
</event>
<event>
 4    1  0.2489209E-004  0.1792934E+03  0.7818608E-02  0.1168489E+00
          2   -1    0    0  501    0  0.00000000000E+00  0.00000000000E+00  0.54546586705E+01  0.54546592666E+01  0.25500000000E-02 0.  1.
         -2   -1    0    0    0  501 -0.00000000000E+00 -0.00000000000E+00 -0.14733335991E+04  0.14733335991E+04  0.25500000000E-02 0. -1.
    5000001    1    1    2    0    0  0.20605564412E+02  0.29476053975E+02 -0.96927198642E+03  0.97299055016E+03  0.77000000000E+02 0.  0.
   -5000001    1    1    2    0    0 -0.20605564412E+02 -0.29476053975E+02 -0.49860695403E+03  0.50579770823E+03  0.77000000000E+02 0.  0.
<mgrwt>
<rscale>  0 0.17929342E+03</rscale>
<asrwt>0</asrwt>
<pdfrwt beam="1">  1        2 0.83917948E-03 0.17929342E+03</pdfrwt>
<pdfrwt beam="2">  1       -2 0.22666639E+00 0.17929342E+03</pdfrwt>
<totfact> 0.17851628E+03</totfact>
</mgrwt>
</event>
<event>
 4    1  0.2489209E-004  0.1993159E+03  0.7818608E-02  0.1150318E+00
         -2   -1    0    0    0  501 -0.00000000000E+00  0.00000000000E+00  0.99729768332E+01  0.99729771592E+01  0.25500000000E-02 0. -1.
          2   -1    0    0  501    0  0.00000000000E+00 -0.00000000000E+00 -0.99586140275E+03  0.99586140276E+03  0.25500000000E-02 0.  1.
    5000001    1    1    2    0    0  0.60236550826E+02  0.96941863537E+01 -0.57742995711E+03  0.58572756011E+03  0.77000000000E+02 0.  0.
   -5000001    1    1    2    0    0 -0.60236550826E+02 -0.96941863537E+01 -0.40845846881E+03  0.42010681980E+03  0.77000000000E+02 0.  0.
<mgrwt>
<rscale>  0 0.19931586E+03</rscale>
<asrwt>0</asrwt>
<pdfrwt beam="1">  1        2 0.15320937E+00 0.19931586E+03</pdfrwt>
<pdfrwt beam="2">  1       -2 0.15343049E-02 0.19931586E+03</pdfrwt>
<totfact> 0.29441621E+04</totfact>
</mgrwt>
</event>
<event>
 4    1  0.2489209E-004  0.2181452E+03  0.7818608E-02  0.1135273E+00
          2   -1    0    0  501    0  0.00000000000E+00  0.00000000000E+00  0.11103733396E+04  0.11103733396E+04  0.25500000000E-02 0.  1.
         -2   -1    0    0    0  501 -0.00000000000E+00 -0.00000000000E+00 -0.10714261049E+02  0.10714261352E+02  0.25500000000E-02 0. -1.
    5000001    1    1    2    0    0  0.71855784582E+02  0.11774821499E+02  0.41720980630E+03  0.43045896747E+03  0.77000000000E+02 0.  0.
   -5000001    1    1    2    0    0 -0.71855784582E+02 -0.11774821499E+02  0.68244927227E+03  0.69062863351E+03  0.77000000000E+02 0.  0.
<mgrwt>
<rscale>  0 0.21814518E+03</rscale>
<asrwt>0</asrwt>
<pdfrwt beam="1">  1        2 0.17082668E+00 0.21814518E+03</pdfrwt>
<pdfrwt beam="2">  1       -2 0.16483478E-02 0.21814518E+03</pdfrwt>
<totfact> 0.22806673E+04</totfact>
</mgrwt>
</event>
<event>
 4    1  0.2489209E-004  0.1705088E+03  0.7818608E-02  0.1177318E+00
         -2   -1    0    0    0  501 -0.00000000000E+00  0.00000000000E+00  0.24737936034E+02  0.24737936165E+02  0.25500000000E-02 0. -1.
          2   -1    0    0  501    0  0.00000000000E+00 -0.00000000000E+00 -0.29381226241E+03  0.29381226242E+03  0.25500000000E-02 0.  1.
    5000001    1    1    2    0    0 -0.15211416065E+02 -0.25915324967E+02 -0.17356123878E+03  0.19223812019E+03  0.77000000000E+02 0.  0.
   -5000001    1    1    2    0    0  0.15211416065E+02  0.25915324967E+02 -0.95513087598E+02  0.12631207840E+03  0.77000000000E+02 0.  0.
<mgrwt>
<rscale>  0 0.17050876E+03</rscale>
<asrwt>0</asrwt>
<pdfrwt beam="1">  1        2 0.45201884E-01 0.17050876E+03</pdfrwt>
<pdfrwt beam="2">  1       -2 0.38058365E-02 0.17050876E+03</pdfrwt>
<totfact> 0.31438204E+04</totfact>
</mgrwt>
</event>
<event>
 4    1  0.2489209E-004  0.2078397E+03  0.7818608E-02  0.1143288E+00
          2   -1    0    0  501    0  0.00000000000E+00  0.00000000000E+00  0.70898504480E+03  0.70898504480E+03  0.25500000000E-02 0.  1.
         -2   -1    0    0    0  501 -0.00000000000E+00 -0.00000000000E+00 -0.15232103903E+02  0.15232104116E+02  0.25500000000E-02 0. -1.
    5000001    1    1    2    0    0  0.53309799023E+02 -0.27625843759E+01  0.19023798077E+03  0.21205908580E+03  0.77000000000E+02 0.  0.
   -5000001    1    1    2    0    0 -0.53309799023E+02  0.27625843759E+01  0.50351496013E+03  0.51215806312E+03  0.77000000000E+02 0.  0.
<mgrwt>
<rscale>  0 0.20783969E+03</rscale>
<asrwt>0</asrwt>
<pdfrwt beam="1">  1        2 0.10907463E+00 0.20783969E+03</pdfrwt>
<pdfrwt beam="2">  1       -2 0.23434005E-02 0.20783969E+03</pdfrwt>
<totfact> 0.24657932E+04</totfact>
</mgrwt>
</event>
<event>
 4    1  0.2489209E-004  0.2226787E+03  0.7818608E-02  0.1131902E+00
          2   -1    0    0  501    0  0.00000000000E+00  0.00000000000E+00  0.22728164478E+02  0.22728164622E+02  0.25500000000E-02 0.  1.
         -2   -1    0    0    0  501 -0.00000000000E+00 -0.00000000000E+00 -0.54542222891E+03  0.54542222892E+03  0.25500000000E-02 0. -1.
    5000001    1    1    2    0    0 -0.27223759666E+02 -0.60275657699E+02 -0.14461615740E+03  0.17668367492E+03  0.77000000000E+02 0.  0.
   -5000001    1    1    2    0    0  0.27223759666E+02  0.60275657699E+02 -0.37807790703E+03  0.39146671862E+03  0.77000000000E+02 0.  0.
<mgrwt>
<rscale>  0 0.22267866E+03</rscale>
<asrwt>0</asrwt>
<pdfrwt beam="1">  1        2 0.34966411E-02 0.22267866E+03</pdfrwt>
<pdfrwt beam="2">  1       -2 0.83911102E-01 0.22267866E+03</pdfrwt>
<totfact> 0.32114196E+03</totfact>
</mgrwt>
</event>
<event>
 4    1  0.2489209E-004  0.3524872E+03  0.7818608E-02  0.1061599E+00
         -2   -1    0    0    0  501 -0.00000000000E+00  0.00000000000E+00  0.20627859929E+02  0.20627860086E+02  0.25500000000E-02 0. -1.
          2   -1    0    0  501    0  0.00000000000E+00 -0.00000000000E+00 -0.15058181140E+04  0.15058181140E+04  0.25500000000E-02 0.  1.
    5000001    1    1    2    0    0  0.98840142704E+02  0.12273022974E+03 -0.81769181930E+03  0.83629001815E+03  0.77000000000E+02 0.  0.
   -5000001    1    1    2    0    0 -0.98840142704E+02 -0.12273022974E+03 -0.66749843477E+03  0.69015595594E+03  0.77000000000E+02 0.  0.
<mgrwt>
<rscale>  0 0.35248719E+03</rscale>
<asrwt>0</asrwt>
<pdfrwt beam="1">  1        2 0.23166424E+00 0.35248719E+03</pdfrwt>
<pdfrwt beam="2">  1       -2 0.31735181E-02 0.35248719E+03</pdfrwt>
<totfact> 0.52881690E+03</totfact>
</mgrwt>
</event>
<event>
 4    1  0.2489209E-004  0.1836004E+03  0.7818608E-02  0.1164363E+00
          2   -1    0    0  501    0  0.00000000000E+00  0.00000000000E+00  0.22812777873E+02  0.22812778015E+02  0.25500000000E-02 0.  1.
         -2   -1    0    0    0  501 -0.00000000000E+00 -0.00000000000E+00 -0.36941039308E+03  0.36941039308E+03  0.25500000000E-02 0. -1.
    5000001    1    1    2    0    0  0.40054191770E+02 -0.12618494131E+02 -0.23120411251E+03  0.24728102700E+03  0.77000000000E+02 0.  0.
   -5000001    1    1    2    0    0 -0.40054191770E+02  0.12618494131E+02 -0.11539350269E+03  0.14494214410E+03  0.77000000000E+02 0.  0.
<mgrwt>
<rscale>  0 0.18360041E+03</rscale>
<asrwt>0</asrwt>
<pdfrwt beam="1">  1        2 0.35096584E-02 0.18360041E+03</pdfrwt>
<pdfrwt beam="2">  1       -2 0.56832364E-01 0.18360041E+03</pdfrwt>
<totfact> 0.72367757E+03</totfact>
</mgrwt>
</event>
<event>
 4    1  0.2489209E-004  0.3645039E+03  0.7818608E-02  0.1056815E+00
         -2   -1    0    0    0  501 -0.00000000000E+00  0.00000000000E+00  0.14582110502E+03  0.14582110504E+03  0.25500000000E-02 0. -1.
          2   -1    0    0  501    0  0.00000000000E+00 -0.00000000000E+00 -0.22778440484E+03  0.22778440485E+03  0.25500000000E-02 0.  1.
    5000001    1    1    2    0    0 -0.10631109488E+03 -0.11953128608E+03  0.12415894436E+01  0.17753962597E+03  0.77000000000E+02 0.  0.
   -5000001    1    1    2    0    0  0.10631109488E+03  0.11953128608E+03 -0.83204889259E+02  0.19606588393E+03  0.77000000000E+02 0.  0.
<mgrwt>
<rscale>  0 0.36450390E+03</rscale>
<asrwt>0</asrwt>
<pdfrwt beam="1">  1        2 0.35043755E-01 0.36450390E+03</pdfrwt>
<pdfrwt beam="2">  1       -2 0.22434016E-01 0.36450390E+03</pdfrwt>
<totfact> 0.25550706E+03</totfact>
</mgrwt>
</event>
<event>
 4    1  0.2489209E-004  0.2567900E+03  0.7818608E-02  0.1109087E+00
         -2   -1    0    0    0  501 -0.00000000000E+00  0.00000000000E+00  0.10423745154E+03  0.10423745157E+03  0.25500000000E-02 0. -1.
          2   -1    0    0  501    0  0.00000000000E+00 -0.00000000000E+00 -0.15815119335E+03  0.15815119337E+03  0.25500000000E-02 0.  1.
    5000001    1    1    2    0    0 -0.18139726963E+02 -0.93391176812E+02  0.12687425639E+02  0.12304849601E+03  0.77000000000E+02 0.  0.
   -5000001    1    1    2    0    0  0.18139726963E+02  0.93391176812E+02 -0.66601167449E+02  0.13934014894E+03  0.77000000000E+02 0.  0.
<mgrwt>
<rscale>  0 0.25679001E+03</rscale>
<asrwt>0</asrwt>
<pdfrwt beam="1">  1        2 0.24330953E-01 0.25679001E+03</pdfrwt>
<pdfrwt beam="2">  1       -2 0.16036531E-01 0.25679001E+03</pdfrwt>
<totfact> 0.67095362E+03</totfact>
</mgrwt>
</event>
<event>
 4    1  0.2489209E-004  0.3903524E+03  0.7818608E-02  0.1047172E+00
          2   -1    0    0  501    0  0.00000000000E+00  0.00000000000E+00  0.53899284262E+03  0.53899284263E+03  0.25500000000E-02 0.  1.
         -2   -1    0    0    0  501 -0.00000000000E+00 -0.00000000000E+00 -0.70675807961E+02  0.70675808007E+02  0.25500000000E-02 0. -1.
    5000001    1    1    2    0    0  0.12565795169E+03  0.52938009606E+02  0.52202962303E+02  0.16506514761E+03  0.77000000000E+02 0.  0.
   -5000001    1    1    2    0    0 -0.12565795169E+03 -0.52938009606E+02  0.41611407236E+03  0.44460350302E+03  0.77000000000E+02 0.  0.
<mgrwt>
<rscale>  0 0.39035243E+03</rscale>
<asrwt>0</asrwt>
<pdfrwt beam="1">  1        2 0.82921975E-01 0.39035243E+03</pdfrwt>
<pdfrwt beam="2">  1       -2 0.10873201E-01 0.39035243E+03</pdfrwt>
<totfact> 0.33332050E+03</totfact>
</mgrwt>
</event>
<event>
 4    1  0.2489209E-004  0.4434992E+03  0.7818608E-02  0.1029679E+00
          2   -1    0    0  501    0  0.00000000000E+00  0.00000000000E+00  0.87044468336E+03  0.87044468336E+03  0.25500000000E-02 0.  1.
         -2   -1    0    0    0  501 -0.00000000000E+00 -0.00000000000E+00 -0.56491679488E+02  0.56491679546E+02  0.25500000000E-02 0. -1.
    5000001    1    1    2    0    0  0.18769004574E+03 -0.58518151095E+02  0.54860671058E+03  0.58783522366E+03  0.77000000000E+02 0.  0.
   -5000001    1    1    2    0    0 -0.18769004574E+03  0.58518151095E+02  0.26534629328E+03  0.33910113924E+03  0.77000000000E+02 0.  0.
<mgrwt>
<rscale>  0 0.44349919E+03</rscale>
<asrwt>0</asrwt>
<pdfrwt beam="1">  1        2 0.13391456E+00 0.44349919E+03</pdfrwt>
<pdfrwt beam="2">  1       -2 0.86910281E-02 0.44349919E+03</pdfrwt>
<totfact> 0.26458945E+03</totfact>
</mgrwt>
</event>
<event>
 4    1  0.2489209E-004  0.3539684E+03  0.7818608E-02  0.1060998E+00
          2   -1    0    0  501    0  0.00000000000E+00  0.00000000000E+00  0.28698278504E+03  0.28698278506E+03  0.25500000000E-02 0.  1.
         -2   -1    0    0    0  501 -0.00000000000E+00 -0.00000000000E+00 -0.10914733971E+03  0.10914733974E+03  0.25500000000E-02 0. -1.
    5000001    1    1    2    0    0 -0.94018944276E+02 -0.10303079486E+03  0.26698576733E+01  0.15934564541E+03  0.77000000000E+02 0.  0.
   -5000001    1    1    2    0    0  0.94018944276E+02  0.10303079486E+03  0.17516558766E+03  0.23678447938E+03  0.77000000000E+02 0.  0.
<mgrwt>
<rscale>  0 0.35396840E+03</rscale>
<asrwt>0</asrwt>
<pdfrwt beam="1">  1        2 0.44151197E-01 0.35396840E+03</pdfrwt>
<pdfrwt beam="2">  1       -2 0.16791899E-01 0.35396840E+03</pdfrwt>
<totfact> 0.32632031E+03</totfact>
</mgrwt>
</event>
<event>
 4    1  0.2489209E-004  0.1698804E+03  0.7818608E-02  0.1177973E+00
         -2   -1    0    0    0  501 -0.00000000000E+00  0.00000000000E+00  0.19286046997E+03  0.19286046999E+03  0.25500000000E-02 0. -1.
          2   -1    0    0  501    0  0.00000000000E+00 -0.00000000000E+00 -0.37409612934E+02  0.37409613020E+02  0.25500000000E-02 0.  1.
    5000001    1    1    2    0    0  0.20036110709E+02 -0.29552743339E+02  0.73224656613E+02  0.11209665788E+03  0.77000000000E+02 0.  0.
   -5000001    1    1    2    0    0 -0.20036110709E+02  0.29552743339E+02  0.82226200428E+02  0.11817342513E+03  0.77000000000E+02 0.  0.
<mgrwt>
<rscale>  0 0.16988038E+03</rscale>
<asrwt>0</asrwt>
<pdfrwt beam="1">  1        2 0.57553250E-02 0.16988038E+03</pdfrwt>
<pdfrwt beam="2">  1       -2 0.29670842E-01 0.16988038E+03</pdfrwt>
<totfact> 0.12969667E+04</totfact>
</mgrwt>
</event>
<event>
 4    1  0.2489209E-004  0.3635798E+03  0.7818608E-02  0.1057175E+00
          2   -1    0    0  501    0  0.00000000000E+00  0.00000000000E+00  0.91133689038E+03  0.91133689038E+03  0.25500000000E-02 0.  1.
         -2   -1    0    0    0  501 -0.00000000000E+00 -0.00000000000E+00 -0.36262735563E+02  0.36262735653E+02  0.25500000000E-02 0. -1.
    5000001    1    1    2    0    0  0.34476042172E+02 -0.91746890146E+02  0.78244164539E+03  0.79230676999E+03  0.77000000000E+02 0.  0.
   -5000001    1    1    2    0    0 -0.34476042172E+02  0.91746890146E+02  0.92632509425E+02  0.15529285604E+03  0.77000000000E+02 0.  0.
<mgrwt>
<rscale>  0 0.36357981E+03</rscale>
<asrwt>0</asrwt>
<pdfrwt beam="1">  1        2 0.14020567E+00 0.36357981E+03</pdfrwt>
<pdfrwt beam="2">  1       -2 0.55788828E-02 0.36357981E+03</pdfrwt>
<totfact> 0.49673045E+03</totfact>
</mgrwt>
</event>
<event>
 4    1  0.2489209E-004  0.2141829E+03  0.7818608E-02  0.1138296E+00
         -2   -1    0    0    0  501 -0.00000000000E+00  0.00000000000E+00  0.26611747032E+02  0.26611747154E+02  0.25500000000E-02 0. -1.
          2   -1    0    0  501    0  0.00000000000E+00 -0.00000000000E+00 -0.43095913262E+03  0.43095913263E+03  0.25500000000E-02 0.  1.
    5000001    1    1    2    0    0  0.72762330692E+02  0.91214138960E+01 -0.22936661830E+03  0.25281535267E+03  0.77000000000E+02 0.  0.
   -5000001    1    1    2    0    0 -0.72762330692E+02 -0.91214138960E+01 -0.17498076729E+03  0.20475552711E+03  0.77000000000E+02 0.  0.
<mgrwt>
<rscale>  0 0.21418287E+03</rscale>
<asrwt>0</asrwt>
<pdfrwt beam="1">  1        2 0.66301400E-01 0.21418287E+03</pdfrwt>
<pdfrwt beam="2">  1       -2 0.40941153E-02 0.21418287E+03</pdfrwt>
<totfact> 0.19025609E+04</totfact>
</mgrwt>
</event>
<event>
 4    1  0.2489209E-004  0.1646365E+03  0.7818608E-02  0.1183559E+00
          2   -1    0    0  501    0  0.00000000000E+00  0.00000000000E+00  0.65576206219E+03  0.65576206220E+03  0.25500000000E-02 0.  1.
         -2   -1    0    0    0  501 -0.00000000000E+00 -0.00000000000E+00 -0.10333462465E+02  0.10333462779E+02  0.25500000000E-02 0. -1.
    5000001    1    1    2    0    0 -0.72770739162E+01 -0.24531483839E+02  0.26657401686E+03  0.27864934231E+03  0.77000000000E+02 0.  0.
   -5000001    1    1    2    0    0  0.72770739162E+01  0.24531483839E+02  0.37885458287E+03  0.38744618267E+03  0.77000000000E+02 0.  0.
<mgrwt>
<rscale>  0 0.16463648E+03</rscale>
<asrwt>0</asrwt>
<pdfrwt beam="1">  1        2 0.10088648E+00 0.16463648E+03</pdfrwt>
<pdfrwt beam="2">  1       -2 0.15897633E-02 0.16463648E+03</pdfrwt>
<totfact> 0.46776745E+04</totfact>
</mgrwt>
</event>
<event>
 4    1  0.2489209E-004  0.2344167E+03  0.7818608E-02  0.1123569E+00
          2   -1    0    0  501    0  0.00000000000E+00  0.00000000000E+00  0.68179982332E+03  0.68179982333E+03  0.25500000000E-02 0.  1.
         -2   -1    0    0    0  501 -0.00000000000E+00 -0.00000000000E+00 -0.20149304810E+02  0.20149304972E+02  0.25500000000E-02 0. -1.
    5000001    1    1    2    0    0  0.82427643975E+02 -0.31257958609E+02  0.34914191313E+03  0.36823966648E+03  0.77000000000E+02 0.  0.
   -5000001    1    1    2    0    0 -0.82427643975E+02  0.31257958609E+02  0.31250860538E+03  0.33370946182E+03  0.77000000000E+02 0.  0.
<mgrwt>
<rscale>  0 0.23441666E+03</rscale>
<asrwt>0</asrwt>
<pdfrwt beam="1">  1        2 0.10489226E+00 0.23441666E+03</pdfrwt>
<pdfrwt beam="2">  1       -2 0.30998936E-02 0.23441666E+03</pdfrwt>
<totfact> 0.17220037E+04</totfact>
</mgrwt>
</event>
<event>
 4    1  0.2489209E-004  0.2245962E+03  0.7818608E-02  0.1130502E+00
         -2   -1    0    0    0  501 -0.00000000000E+00  0.00000000000E+00  0.70833171739E+02  0.70833171785E+02  0.25500000000E-02 0. -1.
          2   -1    0    0  501    0  0.00000000000E+00 -0.00000000000E+00 -0.17803610273E+03  0.17803610275E+03  0.25500000000E-02 0.  1.
    5000001    1    1    2    0    0  0.79952244939E+02  0.15436091150E+02 -0.61532326654E+02  0.12785093509E+03  0.77000000000E+02 0.  0.
   -5000001    1    1    2    0    0 -0.79952244939E+02 -0.15436091150E+02 -0.45670604340E+02  0.12101833944E+03  0.77000000000E+02 0.  0.
<mgrwt>
<rscale>  0 0.22459619E+03</rscale>
<asrwt>0</asrwt>
<pdfrwt beam="1">  1        2 0.27390170E-01 0.22459619E+03</pdfrwt>
<pdfrwt beam="2">  1       -2 0.10897411E-01 0.22459619E+03</pdfrwt>
<totfact> 0.10959577E+04</totfact>
</mgrwt>
</event>
<event>
 4    1  0.2489209E-004  0.3834259E+03  0.7818608E-02  0.1049675E+00
         -2   -1    0    0    0  501 -0.00000000000E+00  0.00000000000E+00  0.46323736160E+02  0.46323736231E+02  0.25500000000E-02 0. -1.
          2   -1    0    0  501    0  0.00000000000E+00 -0.00000000000E+00 -0.79341289171E+03  0.79341289171E+03  0.25500000000E-02 0.  1.
    5000001    1    1    2    0    0 -0.17336449850E+03  0.27332995511E+02 -0.36315434190E+03  0.41062442453E+03  0.77000000000E+02 0.  0.
   -5000001    1    1    2    0    0  0.17336449850E+03 -0.27332995511E+02 -0.38393481366E+03  0.42911220342E+03  0.77000000000E+02 0.  0.
<mgrwt>
<rscale>  0 0.38342587E+03</rscale>
<asrwt>0</asrwt>
<pdfrwt beam="1">  1        2 0.12206351E+00 0.38342587E+03</pdfrwt>
<pdfrwt beam="2">  1       -2 0.71267292E-02 0.38342587E+03</pdfrwt>
<totfact> 0.40834632E+03</totfact>
</mgrwt>
</event>
<event>
 4    1  0.2489209E-004  0.2605625E+03  0.7818608E-02  0.1106806E+00
         -2   -1    0    0    0  501 -0.00000000000E+00  0.00000000000E+00  0.58215114274E+01  0.58215119859E+01  0.25500000000E-02 0. -1.
          2   -1    0    0  501    0  0.00000000000E+00 -0.00000000000E+00 -0.29156007649E+04  0.29156007649E+04  0.25500000000E-02 0.  1.
    5000001    1    1    2    0    0  0.22246906147E+01 -0.10482041924E+03 -0.13740898439E+04  0.13802333747E+04  0.77000000000E+02 0.  0.
   -5000001    1    1    2    0    0 -0.22246906147E+01  0.10482041924E+03 -0.15356894096E+04  0.15411889022E+04  0.77000000000E+02 0.  0.
<mgrwt>
<rscale>  0 0.26056250E+03</rscale>
<asrwt>0</asrwt>
<pdfrwt beam="1">  1        2 0.44855280E+00 0.26056250E+03</pdfrwt>
<pdfrwt beam="2">  1       -2 0.89561952E-03 0.26056250E+03</pdfrwt>
<totfact> 0.58492098E+03</totfact>
</mgrwt>
</event>
<event>
 4    1  0.2489209E-004  0.2475633E+03  0.7818608E-02  0.1114855E+00
          2   -1    0    0  501    0  0.00000000000E+00  0.00000000000E+00  0.76448639472E+03  0.76448639472E+03  0.25500000000E-02 0.  1.
         -2   -1    0    0    0  501 -0.00000000000E+00 -0.00000000000E+00 -0.20042076113E+02  0.20042076275E+02  0.25500000000E-02 0. -1.
    5000001    1    1    2    0    0  0.17407865686E+02  0.85003913811E+02  0.23539629589E+03  0.26242925765E+03  0.77000000000E+02 0.  0.
   -5000001    1    1    2    0    0 -0.17407865686E+02 -0.85003913811E+02  0.50904802271E+03  0.52209921335E+03  0.77000000000E+02 0.  0.
<mgrwt>
<rscale>  0 0.24756328E+03</rscale>
<asrwt>0</asrwt>
<pdfrwt beam="1">  1        2 0.11761330E+00 0.24756328E+03</pdfrwt>
<pdfrwt beam="2">  1       -2 0.30833962E-02 0.24756328E+03</pdfrwt>
<totfact> 0.15132462E+04</totfact>
</mgrwt>
</event>
<event>
 4    1  0.2489209E-004  0.2315641E+03  0.7818608E-02  0.1125544E+00
         -2   -1    0    0    0  501 -0.00000000000E+00  0.00000000000E+00  0.15433522429E+03  0.15433522431E+03  0.25500000000E-02 0. -1.
          2   -1    0    0  501    0  0.00000000000E+00 -0.00000000000E+00 -0.86859494013E+02  0.86859494050E+02  0.25500000000E-02 0.  1.
    5000001    1    1    2    0    0 -0.67430578123E+02 -0.42066565047E+01  0.89944152543E+02  0.13632141945E+03  0.77000000000E+02 0.  0.
   -5000001    1    1    2    0    0  0.67430578123E+02  0.42066565047E+01 -0.22468422265E+02  0.10487329891E+03  0.77000000000E+02 0.  0.
<mgrwt>
<rscale>  0 0.23156407E+03</rscale>
<asrwt>0</asrwt>
<pdfrwt beam="1">  1        2 0.13362999E-01 0.23156407E+03</pdfrwt>
<pdfrwt beam="2">  1       -2 0.23743880E-01 0.23156407E+03</pdfrwt>
<totfact> 0.68508198E+03</totfact>
</mgrwt>
</event>
<event>
 4    1  0.2489209E-004  0.2256758E+03  0.7818608E-02  0.1129721E+00
         -2   -1    0    0    0  501 -0.00000000000E+00  0.00000000000E+00  0.14929836620E+02  0.14929836838E+02  0.25500000000E-02 0. -1.
          2   -1    0    0  501    0  0.00000000000E+00 -0.00000000000E+00 -0.85281533391E+03  0.85281533391E+03  0.25500000000E-02 0.  1.
    5000001    1    1    2    0    0  0.18595594361E+02  0.59238271762E+02 -0.62772914703E+03  0.63547450853E+03  0.77000000000E+02 0.  0.
   -5000001    1    1    2    0    0 -0.18595594361E+02 -0.59238271762E+02 -0.21015635026E+03  0.23227066222E+03  0.77000000000E+02 0.  0.
<mgrwt>
<rscale>  0 0.22567582E+03</rscale>
<asrwt>0</asrwt>
<pdfrwt beam="1">  1        2 0.13120232E+00 0.22567582E+03</pdfrwt>
<pdfrwt beam="2">  1       -2 0.22968986E-02 0.22567582E+03</pdfrwt>
<totfact> 0.20256709E+04</totfact>
</mgrwt>
</event>
<event>
 4    1  0.2489209E-004  0.2252548E+03  0.7818608E-02  0.1130025E+00
          2   -1    0    0  501    0  0.00000000000E+00  0.00000000000E+00  0.31309482142E+03  0.31309482143E+03  0.25500000000E-02 0.  1.
         -2   -1    0    0    0  501 -0.00000000000E+00 -0.00000000000E+00 -0.40514647789E+02  0.40514647869E+02  0.25500000000E-02 0. -1.
    5000001    1    1    2    0    0 -0.82191531734E+02 -0.44390239486E+00  0.13545720550E+03  0.17616270735E+03  0.77000000000E+02 0.  0.
   -5000001    1    1    2    0    0  0.82191531734E+02  0.44390239486E+00  0.13712296812E+03  0.17744676195E+03  0.77000000000E+02 0.  0.
<mgrwt>
<rscale>  0 0.22525476E+03</rscale>
<asrwt>0</asrwt>
<pdfrwt beam="1">  1        2 0.48168436E-01 0.22525476E+03</pdfrwt>
<pdfrwt beam="2">  1       -2 0.62330225E-02 0.22525476E+03</pdfrwt>
<totfact> 0.14244530E+04</totfact>
</mgrwt>
</event>
<event>
 4    1  0.2489209E-004  0.2357617E+03  0.7818608E-02  0.1122649E+00
         -2   -1    0    0    0  501 -0.00000000000E+00  0.00000000000E+00  0.75859412986E+01  0.75859417272E+01  0.25500000000E-02 0. -1.
          2   -1    0    0  501    0  0.00000000000E+00 -0.00000000000E+00 -0.18317950979E+04  0.18317950979E+04  0.25500000000E-02 0.  1.
    5000001    1    1    2    0    0  0.65333020849E+02  0.55284429840E+02 -0.11098043519E+04  0.11157595938E+04  0.77000000000E+02 0.  0.
   -5000001    1    1    2    0    0 -0.65333020849E+02 -0.55284429840E+02 -0.71440480476E+03  0.72362144582E+03  0.77000000000E+02 0.  0.
<mgrwt>
<rscale>  0 0.23576166E+03</rscale>
<asrwt>0</asrwt>
<pdfrwt beam="1">  1        2 0.28181428E+00 0.23576166E+03</pdfrwt>
<pdfrwt beam="2">  1       -2 0.11670694E-02 0.23576166E+03</pdfrwt>
<totfact> 0.15431966E+04</totfact>
</mgrwt>
</event>
<event>
 4    1  0.2489209E-004  0.3702235E+03  0.7818608E-02  0.1054608E+00
          2   -1    0    0  501    0  0.00000000000E+00  0.00000000000E+00  0.31187179490E+03  0.31187179491E+03  0.25500000000E-02 0.  1.
         -2   -1    0    0    0  501 -0.00000000000E+00 -0.00000000000E+00 -0.10987324636E+03  0.10987324639E+03  0.25500000000E-02 0. -1.
    5000001    1    1    2    0    0 -0.88398854204E+02  0.41953852447E+02  0.25703920579E+03  0.28560923737E+03  0.77000000000E+02 0.  0.
   -5000001    1    1    2    0    0  0.88398854204E+02 -0.41953852447E+02 -0.55040657258E+02  0.13613580393E+03  0.77000000000E+02 0.  0.
<mgrwt>
<rscale>  0 0.37022354E+03</rscale>
<asrwt>0</asrwt>
<pdfrwt beam="1">  1        2 0.47980277E-01 0.37022354E+03</pdfrwt>
<pdfrwt beam="2">  1       -2 0.16903576E-01 0.37022354E+03</pdfrwt>
<totfact> 0.29506622E+03</totfact>
</mgrwt>
</event>
<event>
 4    1  0.2489209E-004  0.2270314E+03  0.7818608E-02  0.1128747E+00
         -2   -1    0    0    0  501 -0.00000000000E+00  0.00000000000E+00  0.12817555061E+02  0.12817555314E+02  0.25500000000E-02 0. -1.
          2   -1    0    0  501    0  0.00000000000E+00 -0.00000000000E+00 -0.10053255510E+04  0.10053255510E+04  0.25500000000E-02 0.  1.
    5000001    1    1    2    0    0 -0.16101961498E+02  0.80923375304E+02 -0.44152178865E+03  0.45571740771E+03  0.77000000000E+02 0.  0.
   -5000001    1    1    2    0    0  0.16101961498E+02 -0.80923375304E+02 -0.55098620730E+03  0.56242569862E+03  0.77000000000E+02 0.  0.
<mgrwt>
<rscale>  0 0.22703141E+03</rscale>
<asrwt>0</asrwt>
<pdfrwt beam="1">  1        2 0.15466541E+00 0.22703141E+03</pdfrwt>
<pdfrwt beam="2">  1       -2 0.19719324E-02 0.22703141E+03</pdfrwt>
<totfact> 0.20301678E+04</totfact>
</mgrwt>
</event>
<event>
 4    1  0.2489209E-004  0.2101397E+03  0.7818608E-02  0.1141455E+00
         -2   -1    0    0    0  501 -0.00000000000E+00  0.00000000000E+00  0.32206652037E+03  0.32206652038E+03  0.25500000000E-02 0. -1.
          2   -1    0    0  501    0  0.00000000000E+00 -0.00000000000E+00 -0.34277618677E+02  0.34277618772E+02  0.25500000000E-02 0.  1.
    5000001    1    1    2    0    0  0.17921898511E+02  0.65111313547E+02  0.10412576899E+03  0.14605428226E+03  0.77000000000E+02 0.  0.
   -5000001    1    1    2    0    0 -0.17921898511E+02 -0.65111313547E+02  0.18366313270E+03  0.21028985689E+03  0.77000000000E+02 0.  0.
<mgrwt>
<rscale>  0 0.21013970E+03</rscale>
<asrwt>0</asrwt>
<pdfrwt beam="1">  1        2 0.52734800E-02 0.21013970E+03</pdfrwt>
<pdfrwt beam="2">  1       -2 0.49548694E-01 0.21013970E+03</pdfrwt>
<totfact> 0.56041367E+03</totfact>
</mgrwt>
</event>
<event>
 4    1  0.2489209E-004  0.2482520E+03  0.7818608E-02  0.1114415E+00
          2   -1    0    0  501    0  0.00000000000E+00  0.00000000000E+00  0.44825170765E+03  0.44825170766E+03  0.25500000000E-02 0.  1.
         -2   -1    0    0    0  501 -0.00000000000E+00 -0.00000000000E+00 -0.34371888725E+02  0.34371888819E+02  0.25500000000E-02 0. -1.
    5000001    1    1    2    0    0  0.11368697414E+02  0.95790691761E+02  0.23252176602E+03  0.26324983491E+03  0.77000000000E+02 0.  0.
   -5000001    1    1    2    0    0 -0.11368697414E+02 -0.95790691761E+02  0.18135805291E+03  0.21937376156E+03  0.77000000000E+02 0.  0.
<mgrwt>
<rscale>  0 0.24825195E+03</rscale>
<asrwt>0</asrwt>
<pdfrwt beam="1">  1        2 0.68961796E-01 0.24825195E+03</pdfrwt>
<pdfrwt beam="2">  1       -2 0.52879833E-02 0.24825195E+03</pdfrwt>
<totfact> 0.12488219E+04</totfact>
</mgrwt>
</event>
<event>
 4    1  0.2489209E-004  0.2389447E+03  0.7818608E-02  0.1120498E+00
          2   -1    0    0  501    0  0.00000000000E+00  0.00000000000E+00  0.10804160213E+04  0.10804160213E+04  0.25500000000E-02 0.  1.
         -2   -1    0    0    0  501 -0.00000000000E+00 -0.00000000000E+00 -0.13211248470E+02  0.13211248716E+02  0.25500000000E-02 0. -1.
    5000001    1    1    2    0    0 -0.62737037359E+02 -0.29771331803E+02  0.80523992609E+03  0.81188829689E+03  0.77000000000E+02 0.  0.
   -5000001    1    1    2    0    0  0.62737037359E+02  0.29771331803E+02  0.26196484675E+03  0.28173897314E+03  0.77000000000E+02 0.  0.
<mgrwt>
<rscale>  0 0.23894472E+03</rscale>
<asrwt>0</asrwt>
<pdfrwt beam="1">  1        2 0.16621789E+00 0.23894472E+03</pdfrwt>
<pdfrwt beam="2">  1       -2 0.20324993E-02 0.23894472E+03</pdfrwt>
<totfact> 0.17556775E+04</totfact>
</mgrwt>
</event>
<event>
 4    1  0.2489209E-004  0.1856968E+03  0.7818608E-02  0.1162401E+00
          2   -1    0    0  501    0  0.00000000000E+00  0.00000000000E+00  0.76808666522E+02  0.76808666564E+02  0.25500000000E-02 0.  1.
         -2   -1    0    0    0  501 -0.00000000000E+00 -0.00000000000E+00 -0.11223768383E+03  0.11223768385E+03  0.25500000000E-02 0. -1.
    5000001    1    1    2    0    0 -0.11912121213E+02 -0.43438906730E+02  0.84985195207E+01  0.89610613678E+02  0.77000000000E+02 0.  0.
   -5000001    1    1    2    0    0  0.11912121213E+02  0.43438906730E+02 -0.43927536825E+02  0.99435736741E+02  0.77000000000E+02 0.  0.
<mgrwt>
<rscale>  0 0.18569682E+03</rscale>
<asrwt>0</asrwt>
<pdfrwt beam="1">  1        2 0.11816718E-01 0.18569682E+03</pdfrwt>
<pdfrwt beam="2">  1       -2 0.17267336E-01 0.18569682E+03</pdfrwt>
<totfact> 0.13495196E+04</totfact>
</mgrwt>
</event>
<event>
 4    1  0.2489209E-004  0.2389625E+03  0.7818608E-02  0.1120486E+00
         -2   -1    0    0    0  501 -0.00000000000E+00  0.00000000000E+00  0.51350545866E+02  0.51350545930E+02  0.25500000000E-02 0. -1.
          2   -1    0    0  501    0  0.00000000000E+00 -0.00000000000E+00 -0.27800614072E+03  0.27800614073E+03  0.25500000000E-02 0.  1.
    5000001    1    1    2    0    0  0.18419814910E+02 -0.25105966977E+02 -0.23170868649E+03  0.24614531187E+03  0.77000000000E+02 0.  0.
   -5000001    1    1    2    0    0 -0.18419814910E+02  0.25105966977E+02  0.50530916417E+01  0.83211374789E+02  0.77000000000E+02 0.  0.
<mgrwt>
<rscale>  0 0.23896248E+03</rscale>
<asrwt>0</asrwt>
<pdfrwt beam="1">  1        2 0.42770174E-01 0.23896248E+03</pdfrwt>
<pdfrwt beam="2">  1       -2 0.79000842E-02 0.23896248E+03</pdfrwt>
<totfact> 0.11256339E+04</totfact>
</mgrwt>
</event>
<event>
 4    1  0.2489209E-004  0.1682140E+03  0.7818608E-02  0.1179723E+00
         -2   -1    0    0    0  501 -0.00000000000E+00  0.00000000000E+00  0.60592956128E+02  0.60592956181E+02  0.25500000000E-02 0. -1.
          2   -1    0    0  501    0  0.00000000000E+00 -0.00000000000E+00 -0.11674602126E+03  0.11674602128E+03  0.25500000000E-02 0.  1.
    5000001    1    1    2    0    0  0.17615119467E+02 -0.18959892766E+02 -0.51058535901E+02  0.95946568755E+02  0.77000000000E+02 0.  0.
   -5000001    1    1    2    0    0 -0.17615119467E+02  0.18959892766E+02 -0.50945292276E+01  0.81392408710E+02  0.77000000000E+02 0.  0.
<mgrwt>
<rscale>  0 0.16821399E+03</rscale>
<asrwt>0</asrwt>
<pdfrwt beam="1">  1        2 0.17960926E-01 0.16821399E+03</pdfrwt>
<pdfrwt beam="2">  1       -2 0.93219933E-02 0.16821399E+03</pdfrwt>
<totfact> 0.22089539E+04</totfact>
</mgrwt>
</event>
<event>
 4    1  0.2489209E-004  0.2284356E+03  0.7818608E-02  0.1127746E+00
         -2   -1    0    0    0  501 -0.00000000000E+00  0.00000000000E+00  0.11009363788E+02  0.11009364084E+02  0.25500000000E-02 0. -1.
          2   -1    0    0  501    0  0.00000000000E+00 -0.00000000000E+00 -0.11849647108E+04  0.11849647108E+04  0.25500000000E-02 0.  1.
    5000001    1    1    2    0    0  0.26092417528E+02  0.59765684391E+02 -0.86716026877E+03  0.87301127313E+03  0.77000000000E+02 0.  0.
   -5000001    1    1    2    0    0 -0.26092417528E+02 -0.59765684391E+02 -0.30679507823E+03  0.32296280175E+03  0.77000000000E+02 0.  0.
<mgrwt>
<rscale>  0 0.22843562E+03</rscale>
<asrwt>0</asrwt>
<pdfrwt beam="1">  1        2 0.18230216E+00 0.22843562E+03</pdfrwt>
<pdfrwt beam="2">  1       -2 0.16937492E-02 0.22843562E+03</pdfrwt>
<totfact> 0.19910174E+04</totfact>
</mgrwt>
</event>
<event>
 4    1  0.2489209E-004  0.2367943E+03  0.7818608E-02  0.1121947E+00
         -2   -1    0    0    0  501 -0.00000000000E+00  0.00000000000E+00  0.53685436432E+02  0.53685436492E+02  0.25500000000E-02 0.  1.
          2   -1    0    0  501    0  0.00000000000E+00 -0.00000000000E+00 -0.26111159663E+03  0.26111159665E+03  0.25500000000E-02 0. -1.
    5000001    1    1    2    0    0 -0.40389347938E+02  0.55310210812E+02 -0.26214326647E+02  0.10633301354E+03  0.77000000000E+02 0.  0.
   -5000001    1    1    2    0    0  0.40389347938E+02 -0.55310210812E+02 -0.18121183355E+03  0.20846401960E+03  0.77000000000E+02 0.  0.
<mgrwt>
<rscale>  0 0.23679434E+03</rscale>
<asrwt>0</asrwt>
<pdfrwt beam="1">  1        2 0.40171014E-01 0.23679434E+03</pdfrwt>
<pdfrwt beam="2">  1       -2 0.82592981E-02 0.23679434E+03</pdfrwt>
<totfact> 0.11228012E+04</totfact>
</mgrwt>
</event>
<event>
 4    1  0.2489209E-004  0.1689867E+03  0.7818608E-02  0.1178909E+00
         -2   -1    0    0    0  501 -0.00000000000E+00  0.00000000000E+00  0.27151578914E+03  0.27151578915E+03  0.25500000000E-02 0. -1.
          2   -1    0    0  501    0  0.00000000000E+00 -0.00000000000E+00 -0.26293582451E+02  0.26293582575E+02  0.25500000000E-02 0.  1.
    5000001    1    1    2    0    0 -0.34271164738E+02  0.86986953998E+00  0.11220690715E+03  0.14033766215E+03  0.77000000000E+02 0.  0.
   -5000001    1    1    2    0    0  0.34271164738E+02 -0.86986953998E+00  0.13301529954E+03  0.15747170957E+03  0.77000000000E+02 0.  0.
<mgrwt>
<rscale>  0 0.16898666E+03</rscale>
<asrwt>0</asrwt>
<pdfrwt beam="1">  1        2 0.40451667E-02 0.16898666E+03</pdfrwt>
<pdfrwt beam="2">  1       -2 0.41771658E-01 0.16898666E+03</pdfrwt>
<totfact> 0.10923637E+04</totfact>
</mgrwt>
</event>
<event>
 4    1  0.2489209E-004  0.1995800E+03  0.7818608E-02  0.1150094E+00
         -2   -1    0    0    0  501 -0.00000000000E+00  0.00000000000E+00  0.12469938766E+03  0.12469938769E+03  0.25500000000E-02 0. -1.
          2   -1    0    0  501    0  0.00000000000E+00 -0.00000000000E+00 -0.79856414147E+02  0.79856414188E+02  0.25500000000E-02 0.  1.
    5000001    1    1    2    0    0  0.25889224068E+02 -0.56334046216E+02  0.84707728170E+01  0.99219608334E+02  0.77000000000E+02 0.  0.
   -5000001    1    1    2    0    0 -0.25889224068E+02  0.56334046216E+02  0.36372200695E+02  0.10533619354E+03  0.77000000000E+02 0.  0.
<mgrwt>
<rscale>  0 0.19958002E+03</rscale>
<asrwt>0</asrwt>
<pdfrwt beam="1">  1        2 0.12285602E-01 0.19958002E+03</pdfrwt>
<pdfrwt beam="2">  1       -2 0.19184521E-01 0.19958002E+03</pdfrwt>
<totfact> 0.10842164E+04</totfact>
</mgrwt>
</event>
<event>
 4    1  0.2489209E-004  0.2151072E+03  0.7818608E-02  0.1137584E+00
         -2   -1    0    0    0  501 -0.00000000000E+00  0.00000000000E+00  0.20818016889E+02  0.20818017045E+02  0.25500000000E-02 0. -1.
          2   -1    0    0  501    0  0.00000000000E+00 -0.00000000000E+00 -0.55566172064E+03  0.55566172065E+03  0.25500000000E-02 0.  1.
    5000001    1    1    2    0    0  0.38612955912E+02 -0.63868140890E+02 -0.28963088045E+03  0.30884485862E+03  0.77000000000E+02 0.  0.
   -5000001    1    1    2    0    0 -0.38612955912E+02  0.63868140890E+02 -0.24521282330E+03  0.26763487907E+03  0.77000000000E+02 0.  0.
<mgrwt>
<rscale>  0 0.21510718E+03</rscale>
<asrwt>0</asrwt>
<pdfrwt beam="1">  1        2 0.85486408E-01 0.21510718E+03</pdfrwt>
<pdfrwt beam="2">  1       -2 0.32027723E-02 0.21510718E+03</pdfrwt>
<totfact> 0.20708211E+04</totfact>
</mgrwt>
</event>
<event>
 4    1  0.2489209E-004  0.2424274E+03  0.7818608E-02  0.1118186E+00
          2   -1    0    0  501    0  0.00000000000E+00  0.00000000000E+00  0.12557300211E+04  0.12557300211E+04  0.25500000000E-02 0.  1.
         -2   -1    0    0    0  501 -0.00000000000E+00 -0.00000000000E+00 -0.11700568960E+02  0.11700569238E+02  0.25500000000E-02 0. -1.
    5000001    1    1    2    0    0 -0.63609924117E+02 -0.68638172346E+02  0.63517323881E+03  0.64663085640E+03  0.77000000000E+02 0.  0.
   -5000001    1    1    2    0    0  0.63609924117E+02  0.68638172346E+02  0.60885621335E+03  0.62079973396E+03  0.77000000000E+02 0.  0.
<mgrwt>
<rscale>  0 0.24242736E+03</rscale>
<asrwt>0</asrwt>
<pdfrwt beam="1">  1        2 0.19318914E+00 0.24242736E+03</pdfrwt>
<pdfrwt beam="2">  1       -2 0.18000884E-02 0.24242736E+03</pdfrwt>
<totfact> 0.16662933E+04</totfact>
</mgrwt>
</event>
<event>
 4    1  0.2489209E-004  0.1976510E+03  0.7818608E-02  0.1151736E+00
          2   -1    0    0  501    0  0.00000000000E+00  0.00000000000E+00  0.21072133785E+04  0.21072133785E+04  0.25500000000E-02 0.  1.
         -2   -1    0    0    0  501 -0.00000000000E+00 -0.00000000000E+00 -0.46347829212E+01  0.46347836227E+01  0.25500000000E-02 0. -1.
    5000001    1    1    2    0    0 -0.54156916176E+02 -0.12286919380E+01  0.73021417985E+03  0.73625826292E+03  0.77000000000E+02 0.  0.
   -5000001    1    1    2    0    0  0.54156916176E+02  0.12286919380E+01  0.13723644157E+04  0.13755898992E+04  0.77000000000E+02 0.  0.
<mgrwt>
<rscale>  0 0.19765098E+03</rscale>
<asrwt>0</asrwt>
<pdfrwt beam="1">  1        2 0.32418725E+00 0.19765098E+03</pdfrwt>
<pdfrwt beam="2">  1       -2 0.71304232E-03 0.19765098E+03</pdfrwt>
<totfact> 0.22436394E+04</totfact>
</mgrwt>
</event>
<event>
 4    1  0.2489209E-004  0.2594978E+03  0.7818608E-02  0.1107445E+00
         -2   -1    0    0    0  501 -0.00000000000E+00  0.00000000000E+00  0.28116640394E+02  0.28116640510E+02  0.25500000000E-02 0. -1.
          2   -1    0    0  501    0  0.00000000000E+00 -0.00000000000E+00 -0.59874771127E+03  0.59874771127E+03  0.25500000000E-02 0.  1.
    5000001    1    1    2    0    0  0.14798597089E+02  0.97080661189E+02 -0.19949516105E+03  0.23531037490E+03  0.77000000000E+02 0.  0.
   -5000001    1    1    2    0    0 -0.14798597089E+02 -0.97080661189E+02 -0.37113590983E+03  0.39155397689E+03  0.77000000000E+02 0.  0.
<mgrwt>
<rscale>  0 0.25949778E+03</rscale>
<asrwt>0</asrwt>
<pdfrwt beam="1">  1        2 0.92115022E-01 0.25949778E+03</pdfrwt>
<pdfrwt beam="2">  1       -2 0.43256375E-02 0.25949778E+03</pdfrwt>
<totfact> 0.12247738E+04</totfact>
</mgrwt>
</event>
<event>
 4    1  0.2489209E-004  0.2118265E+03  0.7818608E-02  0.1140128E+00
         -2   -1    0    0    0  501 -0.00000000000E+00  0.00000000000E+00  0.13663099842E+02  0.13663100080E+02  0.25500000000E-02 0. -1.
          2   -1    0    0  501    0  0.00000000000E+00 -0.00000000000E+00 -0.82101541404E+03  0.82101541404E+03  0.25500000000E-02 0.  1.
    5000001    1    1    2    0    0 -0.16730384416E+01 -0.63683177389E+02 -0.26546627542E+03  0.28365417241E+03  0.77000000000E+02 0.  0.
   -5000001    1    1    2    0    0  0.16730384416E+01  0.63683177389E+02 -0.54188603877E+03  0.55102434171E+03  0.77000000000E+02 0.  0.
<mgrwt>
<rscale>  0 0.21182649E+03</rscale>
<asrwt>0</asrwt>
<pdfrwt beam="1">  1        2 0.12631003E+00 0.21182649E+03</pdfrwt>
<pdfrwt beam="2">  1       -2 0.21020160E-02 0.21182649E+03</pdfrwt>
<totfact> 0.24139541E+04</totfact>
</mgrwt>
</event>
<event>
 4    1  0.2489209E-004  0.2736735E+03  0.7818608E-02  0.1099195E+00
         -2   -1    0    0    0  501 -0.00000000000E+00  0.00000000000E+00  0.95109394453E+01  0.95109397872E+01  0.25500000000E-02 0. -1.
          2   -1    0    0  501    0  0.00000000000E+00 -0.00000000000E+00 -0.19687114001E+04  0.19687114001E+04  0.25500000000E-02 0.  1.
    5000001    1    1    2    0    0  0.10167997241E+02  0.92083587651E+02 -0.51044846770E+03  0.52447060304E+03  0.77000000000E+02 0.  0.
   -5000001    1    1    2    0    0 -0.10167997241E+02 -0.92083587651E+02 -0.14487519930E+04  0.14537517369E+04  0.77000000000E+02 0.  0.
<mgrwt>
<rscale>  0 0.27367349E+03</rscale>
<asrwt>0</asrwt>
<pdfrwt beam="1">  1        2 0.30287835E+00 0.27367349E+03</pdfrwt>
<pdfrwt beam="2">  1       -2 0.14632231E-02 0.27367349E+03</pdfrwt>
<totfact> 0.94402872E+03</totfact>
</mgrwt>
</event>
<event>
 4    1  0.2489209E-004  0.3030363E+03  0.7818608E-02  0.1083733E+00
          2   -1    0    0  501    0  0.00000000000E+00  0.00000000000E+00  0.27444778106E+02  0.27444778224E+02  0.25500000000E-02 0.  1.
         -2   -1    0    0    0  501 -0.00000000000E+00 -0.00000000000E+00 -0.83650729400E+03  0.83650729401E+03  0.25500000000E-02 0. -1.
    5000001    1    1    2    0    0  0.11220336478E+03 -0.66413621401E+02 -0.38933977582E+03  0.41774971599E+03  0.77000000000E+02 0.  0.
   -5000001    1    1    2    0    0 -0.11220336478E+03  0.66413621401E+02 -0.41972274008E+03  0.44620235624E+03  0.77000000000E+02 0.  0.
<mgrwt>
<rscale>  0 0.30303635E+03</rscale>
<asrwt>0</asrwt>
<pdfrwt beam="1">  1        2 0.42222742E-02 0.30303635E+03</pdfrwt>
<pdfrwt beam="2">  1       -2 0.12869341E+00 0.30303635E+03</pdfrwt>
<totfact> 0.92402602E+02</totfact>
</mgrwt>
</event>
<event>
 4    1  0.2489209E-004  0.2345455E+03  0.7818608E-02  0.1123481E+00
         -2   -1    0    0    0  501 -0.00000000000E+00  0.00000000000E+00  0.44905573138E+02  0.44905573211E+02  0.25500000000E-02 0.  1.
          2   -1    0    0  501    0  0.00000000000E+00 -0.00000000000E+00 -0.30626264641E+03  0.30626264642E+03  0.25500000000E-02 0. -1.
    5000001    1    1    2    0    0  0.52611039570E+02  0.47020341980E+02 -0.21053943987E+03  0.23502061566E+03  0.77000000000E+02 0.  0.
   -5000001    1    1    2    0    0 -0.52611039570E+02 -0.47020341980E+02 -0.50817633410E+02  0.11614760398E+03  0.77000000000E+02 0.  0.
<mgrwt>
<rscale>  0 0.23454552E+03</rscale>
<asrwt>0</asrwt>
<pdfrwt beam="1">  1        2 0.47117329E-01 0.23454552E+03</pdfrwt>
<pdfrwt beam="2">  1       -2 0.69085499E-02 0.23454552E+03</pdfrwt>
<totfact> 0.12479494E+04</totfact>
</mgrwt>
</event>
<event>
 4    1  0.2489209E-004  0.2975111E+03  0.7818608E-02  0.1086491E+00
          2   -1    0    0  501    0  0.00000000000E+00  0.00000000000E+00  0.23742888562E+03  0.23742888563E+03  0.25500000000E-02 0.  1.
         -2   -1    0    0    0  501 -0.00000000000E+00 -0.00000000000E+00 -0.93199357656E+02  0.93199357690E+02  0.25500000000E-02 0. -1.
    5000001    1    1    2    0    0  0.27679857774E+01  0.76581711571E+02  0.18504743150E+03  0.21457859213E+03  0.77000000000E+02 0.  0.
   -5000001    1    1    2    0    0 -0.27679857774E+01 -0.76581711571E+02 -0.40817903544E+02  0.11604965119E+03  0.77000000000E+02 0.  0.
<mgrwt>
<rscale>  0 0.29751114E+03</rscale>
<asrwt>0</asrwt>
<pdfrwt beam="1">  1        2 0.36527520E-01 0.29751114E+03</pdfrwt>
<pdfrwt beam="2">  1       -2 0.14338363E-01 0.29751114E+03</pdfrwt>
<totfact> 0.51913974E+03</totfact>
</mgrwt>
</event>
<event>
 4    1  0.2489209E-004  0.2157142E+03  0.7818608E-02  0.1137119E+00
          2   -1    0    0  501    0  0.00000000000E+00  0.00000000000E+00  0.19590092230E+02  0.19590092396E+02  0.25500000000E-02 0.  1.
         -2   -1    0    0    0  501 -0.00000000000E+00 -0.00000000000E+00 -0.59382832168E+03  0.59382832169E+03  0.25500000000E-02 0. -1.
    5000001    1    1    2    0    0  0.74213019963E+02 -0.53017818566E+01 -0.32402876654E+03  0.34126137017E+03  0.77000000000E+02 0.  0.
   -5000001    1    1    2    0    0 -0.74213019963E+02  0.53017818566E+01 -0.25020946291E+03  0.27215704391E+03  0.77000000000E+02 0.  0.
<mgrwt>
<rscale>  0 0.21571418E+03</rscale>
<asrwt>0</asrwt>
<pdfrwt beam="1">  1        2 0.30138608E-02 0.21571418E+03</pdfrwt>
<pdfrwt beam="2">  1       -2 0.91358190E-01 0.21571418E+03</pdfrwt>
<totfact> 0.32382633E+03</totfact>
</mgrwt>
</event>
<event>
 4    1  0.2489209E-004  0.2611214E+03  0.7818608E-02  0.1106471E+00
          2   -1    0    0  501    0  0.00000000000E+00  0.00000000000E+00  0.18326935018E+04  0.18326935018E+04  0.25500000000E-02 0.  1.
         -2   -1    0    0    0  501 -0.00000000000E+00 -0.00000000000E+00 -0.93011167787E+01  0.93011171283E+01  0.25500000000E-02 0. -1.
    5000001    1    1    2    0    0  0.76028100874E+02  0.66203021863E+02  0.69381661721E+03  0.70531809174E+03  0.77000000000E+02 0.  0.
   -5000001    1    1    2    0    0 -0.76028100874E+02 -0.66203021863E+02  0.11295757678E+04  0.11366765272E+04  0.77000000000E+02 0.  0.
<mgrwt>
<rscale>  0 0.26112140E+03</rscale>
<asrwt>0</asrwt>
<pdfrwt beam="1">  1        2 0.28195278E+00 0.26112140E+03</pdfrwt>
<pdfrwt beam="2">  1       -2 0.14309414E-02 0.26112140E+03</pdfrwt>
<totfact> 0.11486376E+04</totfact>
</mgrwt>
</event>
<event>
 4    1  0.2489209E-004  0.2958145E+03  0.7818608E-02  0.1087352E+00
          2   -1    0    0  501    0  0.00000000000E+00  0.00000000000E+00  0.12063318544E+03  0.12063318547E+03  0.25500000000E-02 0.  1.
         -2   -1    0    0    0  501 -0.00000000000E+00 -0.00000000000E+00 -0.18134777474E+03  0.18134777476E+03  0.25500000000E-02 0. -1.
    5000001    1    1    2    0    0 -0.68068130414E+02 -0.40766198893E+02  0.69937374939E+02  0.13082579930E+03  0.77000000000E+02 0.  0.
   -5000001    1    1    2    0    0  0.68068130414E+02  0.40766198893E+02 -0.13065196424E+03  0.17115516092E+03  0.77000000000E+02 0.  0.
<mgrwt>
<rscale>  0 0.29581453E+03</rscale>
<asrwt>0</asrwt>
<pdfrwt beam="1">  1        2 0.18558952E-01 0.29581453E+03</pdfrwt>
<pdfrwt beam="2">  1       -2 0.27899658E-01 0.29581453E+03</pdfrwt>
<totfact> 0.35285753E+03</totfact>
</mgrwt>
</event>
<event>
 4    1  0.2489209E-004  0.2500991E+03  0.7818608E-02  0.1113242E+00
          2   -1    0    0  501    0  0.00000000000E+00  0.00000000000E+00  0.16270226023E+04  0.16270226023E+04  0.25500000000E-02 0.  1.
         -2   -1    0    0    0  501 -0.00000000000E+00 -0.00000000000E+00 -0.96110430454E+01  0.96110433837E+01  0.25500000000E-02 0. -1.
    5000001    1    1    2    0    0  0.72855138546E+02  0.24748828228E+02  0.40594709586E+03  0.42028849657E+03  0.77000000000E+02 0.  0.
   -5000001    1    1    2    0    0 -0.72855138546E+02 -0.24748828228E+02  0.12114644634E+04  0.12163451492E+04  0.77000000000E+02 0.  0.
<mgrwt>
<rscale>  0 0.25009906E+03</rscale>
<asrwt>0</asrwt>
<pdfrwt beam="1">  1        2 0.25031096E+00 0.25009906E+03</pdfrwt>
<pdfrwt beam="2">  1       -2 0.14786233E-02 0.25009906E+03</pdfrwt>
<totfact> 0.14025879E+04</totfact>
</mgrwt>
</event>
<event>
 4    1  0.2489209E-004  0.1776026E+03  0.7818608E-02  0.1170144E+00
         -2   -1    0    0    0  501 -0.00000000000E+00  0.00000000000E+00  0.38936188803E+01  0.38936197153E+01  0.25500000000E-02 0. -1.
          2   -1    0    0  501    0  0.00000000000E+00 -0.00000000000E+00 -0.20252798049E+04  0.20252798049E+04  0.25500000000E-02 0.  1.
    5000001    1    1    2    0    0 -0.12868027546E+02 -0.32785131930E+02 -0.70492484604E+03  0.70999189402E+03  0.77000000000E+02 0.  0.
   -5000001    1    1    2    0    0  0.12868027546E+02  0.32785131930E+02 -0.13164613400E+04  0.13191815306E+04  0.77000000000E+02 0.  0.
<mgrwt>
<rscale>  0 0.17760257E+03</rscale>
<asrwt>0</asrwt>
<pdfrwt beam="1">  1        2 0.31158067E+00 0.17760257E+03</pdfrwt>
<pdfrwt beam="2">  1       -2 0.59901997E-03 0.17760257E+03</pdfrwt>
<totfact> 0.31609593E+04</totfact>
</mgrwt>
</event>
<event>
 4    1  0.2489209E-004  0.3165834E+03  0.7818608E-02  0.1077233E+00
          2   -1    0    0  501    0  0.00000000000E+00  0.00000000000E+00  0.23519659376E+03  0.23519659378E+03  0.25500000000E-02 0.  1.
         -2   -1    0    0    0  501 -0.00000000000E+00 -0.00000000000E+00 -0.10653327419E+03  0.10653327422E+03  0.25500000000E-02 0. -1.
    5000001    1    1    2    0    0 -0.13147986922E+03 -0.38949097874E+02  0.83739662385E+02  0.17817216194E+03  0.77000000000E+02 0.  0.
   -5000001    1    1    2    0    0  0.13147986922E+03  0.38949097874E+02  0.44923657186E+02  0.16355770605E+03  0.77000000000E+02 0.  0.
<mgrwt>
<rscale>  0 0.31658341E+03</rscale>
<asrwt>0</asrwt>
<pdfrwt beam="1">  1        2 0.36184091E-01 0.31658341E+03</pdfrwt>
<pdfrwt beam="2">  1       -2 0.16389735E-01 0.31658341E+03</pdfrwt>
<totfact> 0.42079520E+03</totfact>
</mgrwt>
</event>
<event>
 4    1  0.2489209E-004  0.1713986E+03  0.7818608E-02  0.1176397E+00
         -2   -1    0    0    0  501 -0.00000000000E+00  0.00000000000E+00  0.42492402120E+01  0.42492409771E+01  0.25500000000E-02 0. -1.
          2   -1    0    0  501    0  0.00000000000E+00 -0.00000000000E+00 -0.17283949721E+04  0.17283949721E+04  0.25500000000E-02 0.  1.
    5000001    1    1    2    0    0 -0.25442776417E+02  0.21691016921E+02 -0.10364414923E+04  0.10398354687E+04  0.77000000000E+02 0.  0.
   -5000001    1    1    2    0    0  0.25442776417E+02 -0.21691016921E+02 -0.68770423963E+03  0.69280874438E+03  0.77000000000E+02 0.  0.
<mgrwt>
<rscale>  0 0.17139855E+03</rscale>
<asrwt>0</asrwt>
<pdfrwt beam="1">  1        2 0.26590636E+00 0.17139855E+03</pdfrwt>
<pdfrwt beam="2">  1       -2 0.65373070E-03 0.17139855E+03</pdfrwt>
<totfact> 0.39630773E+04</totfact>
</mgrwt>
</event>
<event>
 4    1  0.2489209E-004  0.4902272E+03  0.7818608E-02  0.1016362E+00
          2   -1    0    0  501    0  0.00000000000E+00  0.00000000000E+00  0.72925864020E+03  0.72925864020E+03  0.25500000000E-02 0.  1.
         -2   -1    0    0    0  501 -0.00000000000E+00 -0.00000000000E+00 -0.82385955683E+02  0.82385955722E+02  0.25500000000E-02 0. -1.
    5000001    1    1    2    0    0  0.10651432536E+02 -0.21571059469E+03  0.46688822501E+03  0.52015202425E+03  0.77000000000E+02 0.  0.
   -5000001    1    1    2    0    0 -0.10651432536E+02  0.21571059469E+03  0.17998445951E+03  0.29149257167E+03  0.77000000000E+02 0.  0.
<mgrwt>
<rscale>  0 0.49022717E+03</rscale>
<asrwt>0</asrwt>
<pdfrwt beam="1">  1        2 0.11219364E+00 0.49022717E+03</pdfrwt>
<pdfrwt beam="2">  1       -2 0.12674762E-01 0.49022717E+03</pdfrwt>
<totfact> 0.18086758E+03</totfact>
</mgrwt>
</event>
<event>
 4    1  0.2489209E-004  0.3870738E+03  0.7818608E-02  0.1048350E+00
         -2   -1    0    0    0  501 -0.00000000000E+00  0.00000000000E+00  0.16007860742E+03  0.16007860744E+03  0.25500000000E-02 0. -1.
          2   -1    0    0  501    0  0.00000000000E+00 -0.00000000000E+00 -0.23398834745E+03  0.23398834746E+03  0.25500000000E-02 0.  1.
    5000001    1    1    2    0    0  0.30423463117E+02  0.17161458489E+03 -0.71484836570E+02  0.20350979022E+03  0.77000000000E+02 0.  0.
   -5000001    1    1    2    0    0 -0.30423463117E+02 -0.17161458489E+03 -0.24249034558E+01  0.19055716468E+03  0.77000000000E+02 0.  0.
<mgrwt>
<rscale>  0 0.38707379E+03</rscale>
<asrwt>0</asrwt>
<pdfrwt beam="1">  1        2 0.35998207E-01 0.38707379E+03</pdfrwt>
<pdfrwt beam="2">  1       -2 0.24627478E-01 0.38707379E+03</pdfrwt>
<totfact> 0.21068321E+03</totfact>
</mgrwt>
</event>
<event>
 4    1  0.2489209E-004  0.2331518E+03  0.7818608E-02  0.1124441E+00
         -2   -1    0    0    0  501 -0.00000000000E+00  0.00000000000E+00  0.71442213834E+03  0.71442213835E+03  0.25500000000E-02 0. -1.
          2   -1    0    0  501    0  0.00000000000E+00 -0.00000000000E+00 -0.19022279597E+02  0.19022279768E+02  0.25500000000E-02 0.  1.
    5000001    1    1    2    0    0 -0.75558908016E+02  0.34344533481E+02  0.43511880883E+03  0.44960657620E+03  0.77000000000E+02 0.  0.
   -5000001    1    1    2    0    0  0.75558908016E+02 -0.34344533481E+02  0.26028104992E+03  0.28383784192E+03  0.77000000000E+02 0.  0.
<mgrwt>
<rscale>  0 0.23315178E+03</rscale>
<asrwt>0</asrwt>
<pdfrwt beam="1">  1        2 0.29265048E-02 0.23315178E+03</pdfrwt>
<pdfrwt beam="2">  1       -2 0.10991109E+00 0.23315178E+03</pdfrwt>
<totfact> 0.22036874E+03</totfact>
</mgrwt>
</event>
<event>
 4    1  0.2489209E-004  0.1705853E+03  0.7818608E-02  0.1177239E+00
         -2   -1    0    0    0  501 -0.00000000000E+00  0.00000000000E+00  0.58950104539E+01  0.58950110054E+01  0.25500000000E-02 0. -1.
          2   -1    0    0  501    0  0.00000000000E+00 -0.00000000000E+00 -0.12340667690E+04  0.12340667690E+04  0.25500000000E-02 0.  1.
    5000001    1    1    2    0    0  0.34597433517E+02  0.72885091594E+01 -0.54296527916E+03  0.54953653122E+03  0.77000000000E+02 0.  0.
   -5000001    1    1    2    0    0 -0.34597433517E+02 -0.72885091594E+01 -0.68520647939E+03  0.69042524879E+03  0.77000000000E+02 0.  0.
<mgrwt>
<rscale>  0 0.17058531E+03</rscale>
<asrwt>0</asrwt>
<pdfrwt beam="1">  1        2 0.18985622E+00 0.17058531E+03</pdfrwt>
<pdfrwt beam="2">  1       -2 0.90692571E-03 0.17058531E+03</pdfrwt>
<totfact> 0.45310751E+04</totfact>
</mgrwt>
</event>
<event>
 4    1  0.2489209E-004  0.3705372E+03  0.7818608E-02  0.1054488E+00
          2   -1    0    0  501    0  0.00000000000E+00  0.00000000000E+00  0.49457067823E+03  0.49457067824E+03  0.25500000000E-02 0.  1.
         -2   -1    0    0    0  501 -0.00000000000E+00 -0.00000000000E+00 -0.69402531587E+02  0.69402531634E+02  0.25500000000E-02 0. -1.
    5000001    1    1    2    0    0  0.16400170774E+03  0.25443539462E+02  0.16816956017E+03  0.24850338993E+03  0.77000000000E+02 0.  0.
   -5000001    1    1    2    0    0 -0.16400170774E+03 -0.25443539462E+02  0.25699858648E+03  0.31546981994E+03  0.77000000000E+02 0.  0.
<mgrwt>
<rscale>  0 0.37053722E+03</rscale>
<asrwt>0</asrwt>
<pdfrwt beam="1">  1        2 0.76087795E-01 0.37053722E+03</pdfrwt>
<pdfrwt beam="2">  1       -2 0.10677313E-01 0.37053722E+03</pdfrwt>
<totfact> 0.37828077E+03</totfact>
</mgrwt>
</event>
<event>
 4    1  0.2489209E-004  0.1981804E+03  0.7818608E-02  0.1151283E+00
          2   -1    0    0  501    0  0.00000000000E+00  0.00000000000E+00  0.26447114473E+03  0.26447114474E+03  0.25500000000E-02 0.  1.
         -2   -1    0    0    0  501 -0.00000000000E+00 -0.00000000000E+00 -0.37126422094E+02  0.37126422182E+02  0.25500000000E-02 0. -1.
    5000001    1    1    2    0    0  0.61396259406E+01  0.53787076939E+02  0.66541624523E+02  0.11527155957E+03  0.77000000000E+02 0.  0.
   -5000001    1    1    2    0    0 -0.61396259406E+01 -0.53787076939E+02  0.16080309811E+03  0.18632600735E+03  0.77000000000E+02 0.  0.
<mgrwt>
<rscale>  0 0.19818040E+03</rscale>
<asrwt>0</asrwt>
<pdfrwt beam="1">  1        2 0.40687869E-01 0.19818040E+03</pdfrwt>
<pdfrwt beam="2">  1       -2 0.57117572E-02 0.19818040E+03</pdfrwt>
<totfact> 0.19334213E+04</totfact>
</mgrwt>
</event>
<event>
 4    1  0.2489209E-004  0.3036298E+03  0.7818608E-02  0.1083440E+00
         -2   -1    0    0    0  501 -0.00000000000E+00  0.00000000000E+00  0.48963754190E+02  0.48963754257E+02  0.25500000000E-02 0. -1.
          2   -1    0    0  501    0  0.00000000000E+00 -0.00000000000E+00 -0.47071070678E+03  0.47071070679E+03  0.25500000000E-02 0.  1.
    5000001    1    1    2    0    0 -0.12047514529E+03  0.50881314754E+02 -0.21763233303E+03  0.26532244760E+03  0.77000000000E+02 0.  0.
   -5000001    1    1    2    0    0  0.12047514529E+03 -0.50881314754E+02 -0.20411461956E+03  0.25435201344E+03  0.77000000000E+02 0.  0.
<mgrwt>
<rscale>  0 0.30362980E+03</rscale>
<asrwt>0</asrwt>
<pdfrwt beam="1">  1        2 0.72417029E-01 0.30362980E+03</pdfrwt>
<pdfrwt beam="2">  1       -2 0.75328856E-02 0.30362980E+03</pdfrwt>
<totfact> 0.69159166E+03</totfact>
</mgrwt>
</event>
<event>
 4    1  0.2489209E-004  0.2369264E+03  0.7818608E-02  0.1121857E+00
          2   -1    0    0  501    0  0.00000000000E+00  0.00000000000E+00  0.20858877755E+03  0.20858877757E+03  0.25500000000E-02 0.  1.
         -2   -1    0    0    0  501 -0.00000000000E+00 -0.00000000000E+00 -0.67278434738E+02  0.67278434786E+02  0.25500000000E-02 0. -1.
    5000001    1    1    2    0    0  0.57033735466E+02 -0.56409472552E+02  0.11823244141E+03  0.16230460800E+03  0.77000000000E+02 0.  0.
   -5000001    1    1    2    0    0 -0.57033735466E+02  0.56409472552E+02  0.23077901400E+02  0.11356260435E+03  0.77000000000E+02 0.  0.
<mgrwt>
<rscale>  0 0.23692637E+03</rscale>
<asrwt>0</asrwt>
<pdfrwt beam="1">  1        2 0.32090581E-01 0.23692637E+03</pdfrwt>
<pdfrwt beam="2">  1       -2 0.10350529E-01 0.23692637E+03</pdfrwt>
<totfact> 0.10031150E+04</totfact>
</mgrwt>
</event>
<event>
 4    1  0.2489209E-004  0.1789887E+03  0.7818608E-02  0.1168785E+00
         -2   -1    0    0    0  501 -0.00000000000E+00  0.00000000000E+00  0.10208035028E+03  0.10208035031E+03  0.25500000000E-02 0. -1.
          2   -1    0    0  501    0  0.00000000000E+00 -0.00000000000E+00 -0.78460153613E+02  0.78460153654E+02  0.25500000000E-02 0.  1.
    5000001    1    1    2    0    0 -0.42075039349E+02 -0.16468917438E+02  0.55347623427E+01  0.89449246906E+02  0.77000000000E+02 0.  0.
   -5000001    1    1    2    0    0  0.42075039349E+02  0.16468917438E+02  0.18085434321E+02  0.91091257058E+02  0.77000000000E+02 0.  0.
<mgrwt>
<rscale>  0 0.17898871E+03</rscale>
<asrwt>0</asrwt>
<pdfrwt beam="1">  1        2 0.12070793E-01 0.17898871E+03</pdfrwt>
<pdfrwt beam="2">  1       -2 0.15704669E-01 0.17898871E+03</pdfrwt>
<totfact> 0.15349761E+04</totfact>
</mgrwt>
</event>
<event>
 4    1  0.2489209E-004  0.2992222E+03  0.7818608E-02  0.1085630E+00
          2   -1    0    0  501    0  0.00000000000E+00  0.00000000000E+00  0.16025077423E+04  0.16025077423E+04  0.25500000000E-02 0.  1.
         -2   -1    0    0    0  501 -0.00000000000E+00 -0.00000000000E+00 -0.13967787890E+02  0.13967788123E+02  0.25500000000E-02 0. -1.
    5000001    1    1    2    0    0  0.42984121317E+02  0.11979877138E+03  0.88055539234E+03  0.89303201470E+03  0.77000000000E+02 0.  0.
   -5000001    1    1    2    0    0 -0.42984121317E+02 -0.11979877138E+03  0.70798456206E+03  0.72344351571E+03  0.77000000000E+02 0.  0.
<mgrwt>
<rscale>  0 0.29922225E+03</rscale>
<asrwt>0</asrwt>
<pdfrwt beam="1">  1        2 0.24653978E+00 0.29922225E+03</pdfrwt>
<pdfrwt beam="2">  1       -2 0.21488893E-02 0.29922225E+03</pdfrwt>
<totfact> 0.83775430E+03</totfact>
</mgrwt>
</event>
<event>
 4    1  0.2489209E-004  0.2355903E+03  0.7818608E-02  0.1122766E+00
         -2   -1    0    0    0  501 -0.00000000000E+00  0.00000000000E+00  0.17965089162E+04  0.17965089162E+04  0.25500000000E-02 0. -1.
          2   -1    0    0  501    0  0.00000000000E+00 -0.00000000000E+00 -0.77236997892E+01  0.77237002101E+01  0.25500000000E-02 0.  1.
    5000001    1    1    2    0    0 -0.23560658824E+02 -0.67136768256E+02  0.13056855608E+04  0.13098878708E+04  0.77000000000E+02 0.  0.
   -5000001    1    1    2    0    0  0.23560658824E+02  0.67136768256E+02  0.48309965555E+03  0.49434474559E+03  0.77000000000E+02 0.  0.
<mgrwt>
<rscale>  0 0.23559029E+03</rscale>
<asrwt>0</asrwt>
<pdfrwt beam="1">  1        2 0.11882623E-02 0.23559029E+03</pdfrwt>
<pdfrwt beam="2">  1       -2 0.27638581E+00 0.23559029E+03</pdfrwt>
<totfact> 0.56799899E+02</totfact>
</mgrwt>
</event>
<event>
 4    1  0.2489209E-004  0.1805596E+03  0.7818608E-02  0.1167263E+00
         -2   -1    0    0    0  501 -0.00000000000E+00  0.00000000000E+00  0.26984825670E+01  0.26984837718E+01  0.25500000000E-02 0. -1.
          2   -1    0    0  501    0  0.00000000000E+00 -0.00000000000E+00 -0.30203776821E+04  0.30203776821E+04  0.25500000000E-02 0.  1.
    5000001    1    1    2    0    0 -0.14555447123E+02  0.17169227993E+02 -0.22021611567E+04  0.22036218831E+04  0.77000000000E+02 0.  0.
   -5000001    1    1    2    0    0  0.14555447123E+02 -0.17169227993E+02 -0.81551804280E+03  0.81945428278E+03  0.77000000000E+02 0.  0.
<mgrwt>
<rscale>  0 0.18055956E+03</rscale>
<asrwt>0</asrwt>
<pdfrwt beam="1">  1        2 0.46467079E+00 0.18055956E+03</pdfrwt>
<pdfrwt beam="2">  1       -2 0.41515367E-03 0.18055956E+03</pdfrwt>
<totfact> 0.15300314E+04</totfact>
</mgrwt>
</event>
<event>
 4    1  0.2489209E-004  0.2929616E+03  0.7818608E-02  0.1088813E+00
          2   -1    0    0  501    0  0.00000000000E+00  0.00000000000E+00  0.56629532090E+02  0.56629532147E+02  0.25500000000E-02 0.  1.
         -2   -1    0    0    0  501 -0.00000000000E+00 -0.00000000000E+00 -0.37889467375E+03  0.37889467375E+03  0.25500000000E-02 0. -1.
    5000001    1    1    2    0    0 -0.19571741424E+02  0.12142141955E+03 -0.13134755914E+03  0.19572275157E+03  0.77000000000E+02 0.  0.
   -5000001    1    1    2    0    0  0.19571741424E+02 -0.12142141955E+03 -0.19091758252E+03  0.23980145434E+03  0.77000000000E+02 0.  0.
<mgrwt>
<rscale>  0 0.29296162E+03</rscale>
<asrwt>0</asrwt>
<pdfrwt beam="1">  1        2 0.87122359E-02 0.29296162E+03</pdfrwt>
<pdfrwt beam="2">  1       -2 0.58291487E-01 0.29296162E+03</pdfrwt>
<totfact> 0.21412869E+03</totfact>
</mgrwt>
</event>
<event>
 4    1  0.2489209E-004  0.2728395E+03  0.7818608E-02  0.1099665E+00
         -2   -1    0    0    0  501 -0.00000000000E+00  0.00000000000E+00  0.73887437124E+01  0.73887441525E+01  0.25500000000E-02 0. -1.
          2   -1    0    0  501    0  0.00000000000E+00 -0.00000000000E+00 -0.25187440541E+04  0.25187440541E+04  0.25500000000E-02 0.  1.
    5000001    1    1    2    0    0 -0.40815425553E+01  0.97278355902E+02 -0.73179554739E+03  0.74224892098E+03  0.77000000000E+02 0.  0.
   -5000001    1    1    2    0    0  0.40815425553E+01 -0.97278355902E+02 -0.17795597630E+04  0.17838838773E+04  0.77000000000E+02 0.  0.
<mgrwt>
<rscale>  0 0.27283955E+03</rscale>
<asrwt>0</asrwt>
<pdfrwt beam="1">  1        2 0.38749840E+00 0.27283955E+03</pdfrwt>
<pdfrwt beam="2">  1       -2 0.11367318E-02 0.27283955E+03</pdfrwt>
<totfact> 0.69297930E+03</totfact>
</mgrwt>
</event>
<event>
 4    1  0.2489209E-004  0.4028444E+03  0.7818608E-02  0.1042799E+00
          2   -1    0    0  501    0  0.00000000000E+00  0.00000000000E+00  0.71745853658E+03  0.71745853658E+03  0.25500000000E-02 0.  1.
         -2   -1    0    0    0  501 -0.00000000000E+00 -0.00000000000E+00 -0.56548082055E+02  0.56548082113E+02  0.25500000000E-02 0. -1.
    5000001    1    1    2    0    0 -0.32045890801E+02 -0.17789924646E+03  0.41566511595E+03  0.45976251438E+03  0.77000000000E+02 0.  0.
   -5000001    1    1    2    0    0  0.32045890801E+02  0.17789924646E+03  0.24524533857E+03  0.31424410432E+03  0.77000000000E+02 0.  0.
<mgrwt>
<rscale>  0 0.40284441E+03</rscale>
<asrwt>0</asrwt>
<pdfrwt beam="1">  1        2 0.11037823E+00 0.40284441E+03</pdfrwt>
<pdfrwt beam="2">  1       -2 0.86997052E-02 0.40284441E+03</pdfrwt>
<totfact> 0.33887847E+03</totfact>
</mgrwt>
</event>
<event>
 4    1  0.2489209E-004  0.1898773E+03  0.7818608E-02  0.1158572E+00
         -2   -1    0    0    0  501 -0.00000000000E+00  0.00000000000E+00  0.18909045142E+02  0.18909045314E+02  0.25500000000E-02 0. -1.
          2   -1    0    0  501    0  0.00000000000E+00 -0.00000000000E+00 -0.47666864114E+03  0.47666864115E+03  0.25500000000E-02 0.  1.
    5000001    1    1    2    0    0  0.55055124973E+02 -0.69040160107E+01 -0.22269424858E+03  0.24207532004E+03  0.77000000000E+02 0.  0.
   -5000001    1    1    2    0    0 -0.55055124973E+02  0.69040160107E+01 -0.23506534742E+03  0.25350236642E+03  0.77000000000E+02 0.  0.
<mgrwt>
<rscale>  0 0.18987732E+03</rscale>
<asrwt>0</asrwt>
<pdfrwt beam="1">  1        2 0.73333628E-01 0.18987732E+03</pdfrwt>
<pdfrwt beam="2">  1       -2 0.29090842E-02 0.18987732E+03</pdfrwt>
<totfact> 0.28084482E+04</totfact>
</mgrwt>
</event>
<event>
 4    1  0.2489209E-004  0.3873729E+03  0.7818608E-02  0.1048242E+00
          2   -1    0    0  501    0  0.00000000000E+00  0.00000000000E+00  0.78017771690E+02  0.78017771732E+02  0.25500000000E-02 0.  1.
         -2   -1    0    0    0  501 -0.00000000000E+00 -0.00000000000E+00 -0.48084474198E+03  0.48084474198E+03  0.25500000000E-02 0. -1.
    5000001    1    1    2    0    0 -0.24160508235E+02 -0.17600049671E+03 -0.20870308718E+03  0.28468558727E+03  0.77000000000E+02 0.  0.
   -5000001    1    1    2    0    0  0.24160508235E+02  0.17600049671E+03 -0.19412388310E+03  0.27417692644E+03  0.77000000000E+02 0.  0.
<mgrwt>
<rscale>  0 0.38737287E+03</rscale>
<asrwt>0</asrwt>
<pdfrwt beam="1">  1        2 0.12002734E-01 0.38737287E+03</pdfrwt>
<pdfrwt beam="2">  1       -2 0.73976112E-01 0.38737287E+03</pdfrwt>
<totfact> 0.86999735E+02</totfact>
</mgrwt>
</event>
<event>
 4    1  0.2489209E-004  0.2019593E+03  0.7818608E-02  0.1148096E+00
          2   -1    0    0  501    0  0.00000000000E+00  0.00000000000E+00  0.98547451115E+02  0.98547451148E+02  0.25500000000E-02 0.  1.
         -2   -1    0    0    0  501 -0.00000000000E+00 -0.00000000000E+00 -0.10347185912E+03  0.10347185915E+03  0.25500000000E-02 0. -1.
    5000001    1    1    2    0    0 -0.33873412498E+02  0.32622823742E+02 -0.47821368360E+02  0.10211532684E+03  0.77000000000E+02 0.  0.
   -5000001    1    1    2    0    0  0.33873412498E+02 -0.32622823742E+02  0.42896960358E+02  0.99903983459E+02  0.77000000000E+02 0.  0.
<mgrwt>
<rscale>  0 0.20195928E+03</rscale>
<asrwt>0</asrwt>
<pdfrwt beam="1">  1        2 0.15161146E-01 0.20195928E+03</pdfrwt>
<pdfrwt beam="2">  1       -2 0.15918748E-01 0.20195928E+03</pdfrwt>
<totfact> 0.11538442E+04</totfact>
</mgrwt>
</event>
<event>
 4    1  0.2489209E-004  0.2290856E+03  0.7818608E-02  0.1127285E+00
         -2   -1    0    0    0  501 -0.00000000000E+00  0.00000000000E+00  0.27001115870E+01  0.27001127912E+01  0.25500000000E-02 0. -1.
          2   -1    0    0  501    0  0.00000000000E+00 -0.00000000000E+00 -0.48590775005E+04  0.48590775005E+04  0.25500000000E-02 0.  1.
    5000001    1    1    2    0    0  0.24245502934E+02  0.35780685065E+02 -0.39765545072E+04  0.39775347705E+04  0.77000000000E+02 0.  0.
   -5000001    1    1    2    0    0 -0.24245502934E+02 -0.35780685065E+02 -0.87982288178E+03  0.88424284285E+03  0.77000000000E+02 0.  0.
<mgrwt>
<rscale>  0 0.22908561E+03</rscale>
<asrwt>0</asrwt>
<pdfrwt beam="1">  1        2 0.74754339E+00 0.22908561E+03</pdfrwt>
<pdfrwt beam="2">  1       -2 0.41540576E-03 0.22908561E+03</pdfrwt>
<totfact> 0.56687435E+02</totfact>
</mgrwt>
</event>
<event>
 4    1  0.2489209E-004  0.3824729E+03  0.7818608E-02  0.1050024E+00
          2   -1    0    0  501    0  0.00000000000E+00  0.00000000000E+00  0.85066022095E+02  0.85066022133E+02  0.25500000000E-02 0.  1.
         -2   -1    0    0    0  501 -0.00000000000E+00 -0.00000000000E+00 -0.42991770189E+03  0.42991770190E+03  0.25500000000E-02 0. -1.
    5000001    1    1    2    0    0  0.12490646447E+03  0.12263994995E+03 -0.17181390432E+03  0.25708208788E+03  0.77000000000E+02 0.  0.
   -5000001    1    1    2    0    0 -0.12490646447E+03 -0.12263994995E+03 -0.17303777547E+03  0.25790163615E+03  0.77000000000E+02 0.  0.
<mgrwt>
<rscale>  0 0.38247295E+03</rscale>
<asrwt>0</asrwt>
<pdfrwt beam="1">  1        2 0.13087081E-01 0.38247295E+03</pdfrwt>
<pdfrwt beam="2">  1       -2 0.66141184E-01 0.38247295E+03</pdfrwt>
<totfact> 0.99615339E+02</totfact>
</mgrwt>
</event>
<event>
 4    1  0.2489209E-004  0.2170294E+03  0.7818608E-02  0.1136117E+00
         -2   -1    0    0    0  501 -0.00000000000E+00  0.00000000000E+00  0.95372554317E+01  0.95372557726E+01  0.25500000000E-02 0. -1.
          2   -1    0    0  501    0  0.00000000000E+00 -0.00000000000E+00 -0.12346786000E+04  0.12346786000E+04  0.25500000000E-02 0.  1.
    5000001    1    1    2    0    0 -0.68820219594E+02 -0.33136118865E+02 -0.63261168985E+03  0.64184170566E+03  0.77000000000E+02 0.  0.
   -5000001    1    1    2    0    0  0.68820219594E+02  0.33136118865E+02 -0.59252965473E+03  0.60237415012E+03  0.77000000000E+02 0.  0.
<mgrwt>
<rscale>  0 0.21702945E+03</rscale>
<asrwt>0</asrwt>
<pdfrwt beam="1">  1        2 0.18995043E+00 0.21702945E+03</pdfrwt>
<pdfrwt beam="2">  1       -2 0.14672711E-02 0.21702945E+03</pdfrwt>
<totfact> 0.22953410E+04</totfact>
</mgrwt>
</event>
<event>
 4    1  0.2489209E-004  0.2759172E+03  0.7818608E-02  0.1097940E+00
         -2   -1    0    0    0  501 -0.00000000000E+00  0.00000000000E+00  0.10360398756E+02  0.10360399070E+02  0.25500000000E-02 0. -1.
          2   -1    0    0  501    0  0.00000000000E+00 -0.00000000000E+00 -0.18370510838E+04  0.18370510838E+04  0.25500000000E-02 0.  1.
    5000001    1    1    2    0    0  0.89107378111E+01 -0.10448519835E+03 -0.60600502011E+03  0.61981258645E+03  0.77000000000E+02 0.  0.
   -5000001    1    1    2    0    0 -0.89107378111E+01  0.10448519835E+03 -0.12206856649E+04  0.12275988964E+04  0.77000000000E+02 0.  0.
<mgrwt>
<rscale>  0 0.27591725E+03</rscale>
<asrwt>0</asrwt>
<pdfrwt beam="1">  1        2 0.28262298E+00 0.27591725E+03</pdfrwt>
<pdfrwt beam="2">  1       -2 0.15939090E-02 0.27591725E+03</pdfrwt>
<totfact> 0.97676013E+03</totfact>
</mgrwt>
</event>
<event>
 4    1  0.2489209E-004  0.1658594E+03  0.7818608E-02  0.1182236E+00
         -2   -1    0    0    0  501 -0.00000000000E+00  0.00000000000E+00  0.30566498824E+03  0.30566498826E+03  0.25500000000E-02 0. -1.
          2   -1    0    0  501    0  0.00000000000E+00 -0.00000000000E+00 -0.22499577180E+02  0.22499577324E+02  0.25500000000E-02 0.  1.
    5000001    1    1    2    0    0 -0.27807428256E+02 -0.11275031554E+02  0.12788138751E+03  0.15225974082E+03  0.77000000000E+02 0.  0.
   -5000001    1    1    2    0    0  0.27807428256E+02  0.11275031554E+02  0.15528402356E+03  0.17590482476E+03  0.77000000000E+02 0.  0.
<mgrwt>
<rscale>  0 0.16585937E+03</rscale>
<asrwt>0</asrwt>
<pdfrwt beam="1">  1        2 0.34614736E-02 0.16585937E+03</pdfrwt>
<pdfrwt beam="2">  1       -2 0.47025381E-01 0.16585937E+03</pdfrwt>
<totfact> 0.10675962E+04</totfact>
</mgrwt>
</event>
<event>
 4    1  0.2489209E-004  0.2735272E+03  0.7818608E-02  0.1099278E+00
         -2   -1    0    0    0  501 -0.00000000000E+00  0.00000000000E+00  0.13982169229E+02  0.13982169462E+02  0.25500000000E-02 0.  1.
          2   -1    0    0  501    0  0.00000000000E+00 -0.00000000000E+00 -0.13377243291E+04  0.13377243291E+04  0.25500000000E-02 0. -1.
    5000001    1    1    2    0    0  0.85406177224E+01 -0.27315293996E+02 -0.12151657642E+03  0.14667769354E+03  0.77000000000E+02 0.  0.
   -5000001    1    1    2    0    0 -0.85406177224E+01  0.27315293996E+02 -0.12022255834E+04  0.12050288050E+04  0.77000000000E+02 0.  0.
<mgrwt>
<rscale>  0 0.27352724E+03</rscale>
<asrwt>0</asrwt>
<pdfrwt beam="1">  1        2 0.20580364E+00 0.27352724E+03</pdfrwt>
<pdfrwt beam="2">  1       -2 0.21511040E-02 0.27352724E+03</pdfrwt>
<totfact> 0.11599793E+04</totfact>
</mgrwt>
</event>
<event>
 4    1  0.2489209E-004  0.1605530E+03  0.7818608E-02  0.1188074E+00
         -2   -1    0    0    0  501 -0.00000000000E+00  0.00000000000E+00  0.84451633514E+02  0.84451633552E+02  0.25500000000E-02 0. -1.
          2   -1    0    0  501    0  0.00000000000E+00 -0.00000000000E+00 -0.76307774328E+02  0.76307774370E+02  0.25500000000E-02 0.  1.
    5000001    1    1    2    0    0  0.42121756800E+01  0.21268678233E+02  0.10804940794E+02  0.80720789412E+02  0.77000000000E+02 0.  0.
   -5000001    1    1    2    0    0 -0.42121756800E+01 -0.21268678233E+02 -0.26610816082E+01  0.80038618511E+02  0.77000000000E+02 0.  0.
<mgrwt>
<rscale>  0 0.16055300E+03</rscale>
<asrwt>0</asrwt>
<pdfrwt beam="1">  1        2 0.11739658E-01 0.16055300E+03</pdfrwt>
<pdfrwt beam="2">  1       -2 0.12992559E-01 0.16055300E+03</pdfrwt>
<totfact> 0.21428412E+04</totfact>
</mgrwt>
</event>
<event>
 4    1  0.2489209E-004  0.7656120E+03  0.7818608E-02  0.9611171E-01
         -2   -1    0    0    0  501 -0.00000000000E+00  0.00000000000E+00  0.81823723043E+02  0.81823723083E+02  0.25500000000E-02 0. -1.
          2   -1    0    0  501    0  0.00000000000E+00 -0.00000000000E+00 -0.17909283832E+04  0.17909283832E+04  0.25500000000E-02 0.  1.
    5000001    1    1    2    0    0  0.12557934729E+03  0.34434198837E+03 -0.66086546583E+03  0.75961420560E+03  0.77000000000E+02 0.  0.
   -5000001    1    1    2    0    0 -0.12557934729E+03 -0.34434198837E+03 -0.10482391943E+04  0.11131379006E+04  0.77000000000E+02 0.  0.
<mgrwt>
<rscale>  0 0.76561199E+03</rscale>
<asrwt>0</asrwt>
<pdfrwt beam="1">  1        2 0.27552742E+00 0.76561199E+03</pdfrwt>
<pdfrwt beam="2">  1       -2 0.12588266E-01 0.76561199E+03</pdfrwt>
<totfact> 0.41754442E+02</totfact>
</mgrwt>
</event>
<event>
 4    1  0.2489209E-004  0.2839517E+03  0.7818608E-02  0.1093550E+00
         -2   -1    0    0    0  501 -0.00000000000E+00  0.00000000000E+00  0.12993064224E+02  0.12993064474E+02  0.25500000000E-02 0. -1.
          2   -1    0    0  501    0  0.00000000000E+00 -0.00000000000E+00 -0.15513772284E+04  0.15513772284E+04  0.25500000000E-02 0.  1.
    5000001    1    1    2    0    0 -0.11044598042E+03  0.44984803642E+02 -0.75547738549E+03  0.76869826795E+03  0.77000000000E+02 0.  0.
   -5000001    1    1    2    0    0  0.11044598042E+03 -0.44984803642E+02 -0.78290677864E+03  0.79567202489E+03  0.77000000000E+02 0.  0.
<mgrwt>
<rscale>  0 0.28395172E+03</rscale>
<asrwt>0</asrwt>
<pdfrwt beam="1">  1        2 0.23867327E+00 0.28395172E+03</pdfrwt>
<pdfrwt beam="2">  1       -2 0.19989342E-02 0.28395172E+03</pdfrwt>
<totfact> 0.99161574E+03</totfact>
</mgrwt>
</event>
<event>
 4    1  0.2489209E-004  0.2355799E+03  0.7818608E-02  0.1122773E+00
          2   -1    0    0  501    0  0.00000000000E+00  0.00000000000E+00  0.77956922052E+02  0.77956922094E+02  0.25500000000E-02 0.  1.
         -2   -1    0    0    0  501 -0.00000000000E+00 -0.00000000000E+00 -0.17797620477E+03  0.17797620479E+03  0.25500000000E-02 0. -1.
    5000001    1    1    2    0    0  0.14534850208E+02  0.70441480839E+02 -0.10721036132E+03  0.15032074264E+03  0.77000000000E+02 0.  0.
   -5000001    1    1    2    0    0 -0.14534850208E+02 -0.70441480839E+02  0.71910786055E+01  0.10561238424E+03  0.77000000000E+02 0.  0.
<mgrwt>
<rscale>  0 0.23557994E+03</rscale>
<asrwt>0</asrwt>
<pdfrwt beam="1">  1        2 0.11993373E-01 0.23557994E+03</pdfrwt>
<pdfrwt beam="2">  1       -2 0.27380954E-01 0.23557994E+03</pdfrwt>
<totfact> 0.60739616E+03</totfact>
</mgrwt>
</event>
<event>
 4    1  0.2489209E-004  0.1705132E+03  0.7818608E-02  0.1177314E+00
          2   -1    0    0  501    0  0.00000000000E+00  0.00000000000E+00  0.10972850409E+02  0.10972850705E+02  0.25500000000E-02 0.  1.
         -2   -1    0    0    0  501 -0.00000000000E+00 -0.00000000000E+00 -0.66242443722E+03  0.66242443723E+03  0.25500000000E-02 0. -1.
    5000001    1    1    2    0    0  0.32210508851E+02 -0.16934448661E+02 -0.31023192191E+03  0.32170971046E+03  0.77000000000E+02 0.  0.
   -5000001    1    1    2    0    0 -0.32210508851E+02  0.16934448661E+02 -0.34121966490E+03  0.35168757747E+03  0.77000000000E+02 0.  0.
<mgrwt>
<rscale>  0 0.17051316E+03</rscale>
<asrwt>0</asrwt>
<pdfrwt beam="1">  1        2 0.16881314E-02 0.17051316E+03</pdfrwt>
<pdfrwt beam="2">  1       -2 0.10191142E+00 0.17051316E+03</pdfrwt>
<totfact> 0.54794655E+03</totfact>
</mgrwt>
</event>
<event>
 4    1  0.2489209E-004  0.2457815E+03  0.7818608E-02  0.1116000E+00
          2   -1    0    0  501    0  0.00000000000E+00  0.00000000000E+00  0.10209417187E+04  0.10209417187E+04  0.25500000000E-02 0.  1.
         -2   -1    0    0    0  501 -0.00000000000E+00 -0.00000000000E+00 -0.14792357843E+02  0.14792358063E+02  0.25500000000E-02 0. -1.
    5000001    1    1    2    0    0 -0.88040963185E+02 -0.29156911721E+02  0.40230714070E+03  0.41997782341E+03  0.77000000000E+02 0.  0.
   -5000001    1    1    2    0    0  0.88040963185E+02  0.29156911721E+02  0.60384222013E+03  0.61575625332E+03  0.77000000000E+02 0.  0.
<mgrwt>
<rscale>  0 0.24578149E+03</rscale>
<asrwt>0</asrwt>
<pdfrwt beam="1">  1        2 0.15706791E+00 0.24578149E+03</pdfrwt>
<pdfrwt beam="2">  1       -2 0.22757481E-02 0.24578149E+03</pdfrwt>
<totfact> 0.16153451E+04</totfact>
</mgrwt>
</event>
<event>
 4    1  0.2489209E-004  0.4319943E+03  0.7818608E-02  0.1033232E+00
          2   -1    0    0  501    0  0.00000000000E+00  0.00000000000E+00  0.16882220936E+03  0.16882220937E+03  0.25500000000E-02 0.  1.
         -2   -1    0    0    0  501 -0.00000000000E+00 -0.00000000000E+00 -0.27635446728E+03  0.27635446730E+03  0.25500000000E-02 0. -1.
    5000001    1    1    2    0    0  0.12103586190E+03  0.74655283146E+02  0.93790829827E+02  0.18694601073E+03  0.77000000000E+02 0.  0.
   -5000001    1    1    2    0    0 -0.12103586190E+03 -0.74655283146E+02 -0.20132308776E+03  0.25823066594E+03  0.77000000000E+02 0.  0.
<mgrwt>
<rscale>  0 0.43199431E+03</rscale>
<asrwt>0</asrwt>
<pdfrwt beam="1">  1        2 0.25972648E-01 0.43199431E+03</pdfrwt>
<pdfrwt beam="2">  1       -2 0.42516072E-01 0.43199431E+03</pdfrwt>
<totfact> 0.10988849E+03</totfact>
</mgrwt>
</event>
<event>
 4    1  0.2489209E-004  0.2091351E+03  0.7818608E-02  0.1142253E+00
         -2   -1    0    0    0  501 -0.00000000000E+00  0.00000000000E+00  0.68177374009E+02  0.68177374057E+02  0.25500000000E-02 0. -1.
          2   -1    0    0  501    0  0.00000000000E+00 -0.00000000000E+00 -0.16038126517E+03  0.16038126519E+03  0.25500000000E-02 0.  1.
    5000001    1    1    2    0    0 -0.53444582436E+02 -0.42653117926E+01 -0.96550400538E+02  0.13463096271E+03  0.77000000000E+02 0.  0.
   -5000001    1    1    2    0    0  0.53444582436E+02  0.42653117926E+01  0.43465093735E+01  0.93927676540E+02  0.77000000000E+02 0.  0.
<mgrwt>
<rscale>  0 0.20913511E+03</rscale>
<asrwt>0</asrwt>
<pdfrwt beam="1">  1        2 0.24674041E-01 0.20913511E+03</pdfrwt>
<pdfrwt beam="2">  1       -2 0.10488827E-01 0.20913511E+03</pdfrwt>
<totfact> 0.13019542E+04</totfact>
</mgrwt>
</event>
<event>
 4    1  0.2489209E-004  0.2486901E+03  0.7818608E-02  0.1114135E+00
         -2   -1    0    0    0  501 -0.00000000000E+00  0.00000000000E+00  0.13295417814E+02  0.13295418059E+02  0.25500000000E-02 0. -1.
          2   -1    0    0  501    0  0.00000000000E+00 -0.00000000000E+00 -0.11629340688E+04  0.11629340688E+04  0.25500000000E-02 0.  1.
    5000001    1    1    2    0    0  0.83266972434E+02  0.55554473770E+01 -0.33511908425E+03  0.35383336801E+03  0.77000000000E+02 0.  0.
   -5000001    1    1    2    0    0 -0.83266972434E+02 -0.55554473770E+01 -0.81451956674E+03  0.82239611884E+03  0.77000000000E+02 0.  0.
<mgrwt>
<rscale>  0 0.24869012E+03</rscale>
<asrwt>0</asrwt>
<pdfrwt beam="1">  1        2 0.17891285E+00 0.24869012E+03</pdfrwt>
<pdfrwt beam="2">  1       -2 0.20454498E-02 0.24869012E+03</pdfrwt>
<totfact> 0.15602804E+04</totfact>
</mgrwt>
</event>
<event>
 4    1  0.2489209E-004  0.7529108E+03  0.7818608E-02  0.9630795E-01
         -2   -1    0    0    0  501 -0.00000000000E+00  0.00000000000E+00  0.33636957850E+03  0.33636957851E+03  0.25500000000E-02 0. -1.
          2   -1    0    0  501    0  0.00000000000E+00 -0.00000000000E+00 -0.42131830551E+03  0.42131830552E+03  0.25500000000E-02 0.  1.
    5000001    1    1    2    0    0  0.18481534254E+03 -0.14669859152E+03  0.24236296039E+03  0.34690919873E+03  0.77000000000E+02 0.  0.
   -5000001    1    1    2    0    0 -0.18481534254E+03  0.14669859152E+03 -0.32731168740E+03  0.41077868530E+03  0.77000000000E+02 0.  0.
<mgrwt>
<rscale>  0 0.75291078E+03</rscale>
<asrwt>0</asrwt>
<pdfrwt beam="1">  1        2 0.64818201E-01 0.75291078E+03</pdfrwt>
<pdfrwt beam="2">  1       -2 0.51749166E-01 0.75291078E+03</pdfrwt>
<totfact> 0.26665114E+02</totfact>
</mgrwt>
</event>
<event>
 4    1  0.2489209E-004  0.2090482E+03  0.7818608E-02  0.1142322E+00
          2   -1    0    0  501    0  0.00000000000E+00  0.00000000000E+00  0.18478832503E+02  0.18478832679E+02  0.25500000000E-02 0.  1.
         -2   -1    0    0    0  501 -0.00000000000E+00 -0.00000000000E+00 -0.59123235917E+03  0.59123235918E+03  0.25500000000E-02 0. -1.
    5000001    1    1    2    0    0  0.29319339971E+02  0.35570979356E+02 -0.13009005346E+03  0.15804221043E+03  0.77000000000E+02 0.  0.
   -5000001    1    1    2    0    0 -0.29319339971E+02 -0.35570979356E+02 -0.44266347321E+03  0.45166898143E+03  0.77000000000E+02 0.  0.
<mgrwt>
<rscale>  0 0.20904816E+03</rscale>
<asrwt>0</asrwt>
<pdfrwt beam="1">  1        2 0.28428978E-02 0.20904816E+03</pdfrwt>
<pdfrwt beam="2">  1       -2 0.90958810E-01 0.20904816E+03</pdfrwt>
<totfact> 0.35340088E+03</totfact>
</mgrwt>
</event>
<event>
 4    1  0.2489209E-004  0.5949373E+03  0.7818608E-02  0.9915965E-01
         -2   -1    0    0    0  501 -0.00000000000E+00  0.00000000000E+00  0.10171272827E+03  0.10171272830E+03  0.25500000000E-02 0. -1.
          2   -1    0    0  501    0  0.00000000000E+00 -0.00000000000E+00 -0.86997575172E+03  0.86997575172E+03  0.25500000000E-02 0.  1.
    5000001    1    1    2    0    0  0.27308332438E+01  0.28674411466E+03 -0.41375451162E+03  0.50926558948E+03  0.77000000000E+02 0.  0.
   -5000001    1    1    2    0    0 -0.27308332438E+01 -0.28674411466E+03 -0.35450851183E+03  0.46242289054E+03  0.77000000000E+02 0.  0.
<mgrwt>
<rscale>  0 0.59493733E+03</rscale>
<asrwt>0</asrwt>
<pdfrwt beam="1">  1        2 0.13384242E+00 0.59493733E+03</pdfrwt>
<pdfrwt beam="2">  1       -2 0.15648113E-01 0.59493733E+03</pdfrwt>
<totfact> 0.10085229E+03</totfact>
</mgrwt>
</event>
<event>
 4    1  0.2489209E-004  0.2012158E+03  0.7818608E-02  0.1148717E+00
          2   -1    0    0  501    0  0.00000000000E+00  0.00000000000E+00  0.27245408691E+03  0.27245408692E+03  0.25500000000E-02 0.  1.
         -2   -1    0    0    0  501 -0.00000000000E+00 -0.00000000000E+00 -0.37151042047E+02  0.37151042134E+02  0.25500000000E-02 0. -1.
    5000001    1    1    2    0    0 -0.33439246187E+02  0.53505937669E+02  0.95254216148E+02  0.13778038411E+03  0.77000000000E+02 0.  0.
   -5000001    1    1    2    0    0  0.33439246187E+02 -0.53505937669E+02  0.14004882871E+03  0.17182474495E+03  0.77000000000E+02 0.  0.
<mgrwt>
<rscale>  0 0.20121584E+03</rscale>
<asrwt>0</asrwt>
<pdfrwt beam="1">  1        2 0.41916013E-01 0.20121584E+03</pdfrwt>
<pdfrwt beam="2">  1       -2 0.57155450E-02 0.20121584E+03</pdfrwt>
<totfact> 0.18730200E+04</totfact>
</mgrwt>
</event>
<event>
 4    1  0.2489209E-004  0.1683936E+03  0.7818608E-02  0.1179534E+00
         -2   -1    0    0    0  501 -0.00000000000E+00  0.00000000000E+00  0.25663070533E+02  0.25663070660E+02  0.25500000000E-02 0. -1.
          2   -1    0    0  501    0  0.00000000000E+00 -0.00000000000E+00 -0.27623735726E+03  0.27623735727E+03  0.25500000000E-02 0.  1.
    5000001    1    1    2    0    0  0.14599232697E+02  0.30545409181E+02 -0.13198069989E+03  0.15650579785E+03  0.77000000000E+02 0.  0.
   -5000001    1    1    2    0    0 -0.14599232697E+02 -0.30545409181E+02 -0.11859358683E+03  0.14539463008E+03  0.77000000000E+02 0.  0.
<mgrwt>
<rscale>  0 0.16839357E+03</rscale>
<asrwt>0</asrwt>
<pdfrwt beam="1">  1        2 0.42498053E-01 0.16839357E+03</pdfrwt>
<pdfrwt beam="2">  1       -2 0.39481649E-02 0.16839357E+03</pdfrwt>
<totfact> 0.31749285E+04</totfact>
</mgrwt>
</event>
<event>
 4    1  0.2489209E-004  0.3658060E+03  0.7818608E-02  0.1056308E+00
          2   -1    0    0  501    0  0.00000000000E+00  0.00000000000E+00  0.19547304091E+04  0.19547304091E+04  0.25500000000E-02 0.  1.
         -2   -1    0    0    0  501 -0.00000000000E+00 -0.00000000000E+00 -0.17114125272E+02  0.17114125462E+02  0.25500000000E-02 0. -1.
    5000001    1    1    2    0    0 -0.14681414123E+03 -0.76603428104E+02  0.10232550353E+04  0.10394240447E+04  0.77000000000E+02 0.  0.
   -5000001    1    1    2    0    0  0.14681414123E+03  0.76603428104E+02  0.91436124853E+03  0.93242048995E+03  0.77000000000E+02 0.  0.
<mgrwt>
<rscale>  0 0.36580597E+03</rscale>
<asrwt>0</asrwt>
<pdfrwt beam="1">  1        2 0.30072769E+00 0.36580597E+03</pdfrwt>
<pdfrwt beam="2">  1       -2 0.26329430E-02 0.36580597E+03</pdfrwt>
<totfact> 0.40313998E+03</totfact>
</mgrwt>
</event>
<event>
 4    1  0.2489209E-004  0.6722539E+03  0.7818608E-02  0.9765895E-01
         -2   -1    0    0    0  501 -0.00000000000E+00  0.00000000000E+00  0.20708099799E+03  0.20708099800E+03  0.25500000000E-02 0. -1.
          2   -1    0    0  501    0  0.00000000000E+00 -0.00000000000E+00 -0.54559006588E+03  0.54559006588E+03  0.25500000000E-02 0.  1.
    5000001    1    1    2    0    0 -0.22209851608E+03 -0.18577938154E+03 -0.33982942850E+03  0.45305051586E+03  0.77000000000E+02 0.  0.
   -5000001    1    1    2    0    0  0.22209851608E+03  0.18577938154E+03  0.13203606061E+01  0.29962054803E+03  0.77000000000E+02 0.  0.
<mgrwt>
<rscale>  0 0.67225393E+03</rscale>
<asrwt>0</asrwt>
<pdfrwt beam="1">  1        2 0.83936933E-01 0.67225393E+03</pdfrwt>
<pdfrwt beam="2">  1       -2 0.31858615E-01 0.67225393E+03</pdfrwt>
<totfact> 0.51243136E+02</totfact>
</mgrwt>
</event>
<event>
 4    1  0.2489209E-004  0.2256625E+03  0.7818608E-02  0.1129730E+00
          2   -1    0    0  501    0  0.00000000000E+00  0.00000000000E+00  0.56758076687E+03  0.56758076688E+03  0.25500000000E-02 0.  1.
         -2   -1    0    0    0  501 -0.00000000000E+00 -0.00000000000E+00 -0.22430098424E+02  0.22430098569E+02  0.25500000000E-02 0. -1.
    5000001    1    1    2    0    0  0.14489880266E+02 -0.80298520030E+02  0.24119136975E+03  0.26600767995E+03  0.77000000000E+02 0.  0.
   -5000001    1    1    2    0    0 -0.14489880266E+02  0.80298520030E+02  0.30395929869E+03  0.32400318550E+03  0.77000000000E+02 0.  0.
<mgrwt>
<rscale>  0 0.22566251E+03</rscale>
<asrwt>0</asrwt>
<pdfrwt beam="1">  1        2 0.87320113E-01 0.22566251E+03</pdfrwt>
<pdfrwt beam="2">  1       -2 0.34507846E-02 0.22566251E+03</pdfrwt>
<totfact> 0.18145134E+04</totfact>
</mgrwt>
</event>
<event>
 4    1  0.2489209E-004  0.2519216E+03  0.7818608E-02  0.1112096E+00
          2   -1    0    0  501    0  0.00000000000E+00  0.00000000000E+00  0.85015398893E+03  0.85015398893E+03  0.25500000000E-02 0.  1.
         -2   -1    0    0    0  501 -0.00000000000E+00 -0.00000000000E+00 -0.18662648597E+02  0.18662648771E+02  0.25500000000E-02 0. -1.
    5000001    1    1    2    0    0  0.10980668922E+02  0.98966025546E+02  0.43202290212E+03  0.44998626341E+03  0.77000000000E+02 0.  0.
   -5000001    1    1    2    0    0 -0.10980668922E+02 -0.98966025546E+02  0.39946843822E+03  0.41883037430E+03  0.77000000000E+02 0.  0.
<mgrwt>
<rscale>  0 0.25192162E+03</rscale>
<asrwt>0</asrwt>
<pdfrwt beam="1">  1        2 0.13079294E+00 0.25192162E+03</pdfrwt>
<pdfrwt beam="2">  1       -2 0.28711764E-02 0.25192162E+03</pdfrwt>
<totfact> 0.14706204E+04</totfact>
</mgrwt>
</event>
<event>
 4    1  0.2489209E-004  0.3290635E+03  0.7818608E-02  0.1071552E+00
         -2   -1    0    0    0  501 -0.00000000000E+00  0.00000000000E+00  0.10277863218E+02  0.10277863534E+02  0.25500000000E-02 0. -1.
          2   -1    0    0  501    0  0.00000000000E+00 -0.00000000000E+00 -0.26338833654E+04  0.26338833654E+04  0.25500000000E-02 0.  1.
    5000001    1    1    2    0    0  0.76444206383E+02  0.93656828805E+02 -0.66265394427E+03  0.67797829473E+03  0.77000000000E+02 0.  0.
   -5000001    1    1    2    0    0 -0.76444206383E+02 -0.93656828805E+02 -0.19609515579E+04  0.19661829342E+04  0.77000000000E+02 0.  0.
<mgrwt>
<rscale>  0 0.32906348E+03</rscale>
<asrwt>0</asrwt>
<pdfrwt beam="1">  1        2 0.40521229E+00 0.32906348E+03</pdfrwt>
<pdfrwt beam="2">  1       -2 0.15812118E-02 0.32906348E+03</pdfrwt>
<totfact> 0.36813925E+03</totfact>
</mgrwt>
</event>
<event>
 4    1  0.2489209E-004  0.2300168E+03  0.7818608E-02  0.1126628E+00
          2   -1    0    0  501    0  0.00000000000E+00  0.00000000000E+00  0.16223370621E+04  0.16223370621E+04  0.25500000000E-02 0.  1.
         -2   -1    0    0    0  501 -0.00000000000E+00 -0.00000000000E+00 -0.81530122308E+01  0.81530126295E+01  0.25500000000E-02 0. -1.
    5000001    1    1    2    0    0 -0.37770404956E+02 -0.34707079207E+02  0.12913377626E+04  0.12946479838E+04  0.77000000000E+02 0.  0.
   -5000001    1    1    2    0    0  0.37770404956E+02  0.34707079207E+02  0.32284628723E+03  0.33584209090E+03  0.77000000000E+02 0.  0.
<mgrwt>
<rscale>  0 0.23001682E+03</rscale>
<asrwt>0</asrwt>
<pdfrwt beam="1">  1        2 0.24958998E+00 0.23001682E+03</pdfrwt>
<pdfrwt beam="2">  1       -2 0.12543113E-02 0.23001682E+03</pdfrwt>
<totfact> 0.17873956E+04</totfact>
</mgrwt>
</event>
<event>
 4    1  0.2489209E-004  0.1957112E+03  0.7818608E-02  0.1153409E+00
         -2   -1    0    0    0  501 -0.00000000000E+00  0.00000000000E+00  0.12276186952E+02  0.12276187217E+02  0.25500000000E-02 0. -1.
          2   -1    0    0  501    0  0.00000000000E+00 -0.00000000000E+00 -0.78002371905E+03  0.78002371905E+03  0.25500000000E-02 0.  1.
    5000001    1    1    2    0    0 -0.44452776516E+02 -0.21805072291E+02 -0.52383103036E+03  0.53177011846E+03  0.77000000000E+02 0.  0.
   -5000001    1    1    2    0    0  0.44452776516E+02  0.21805072291E+02 -0.24391650174E+03  0.26052978781E+03  0.77000000000E+02 0.  0.
<mgrwt>
<rscale>  0 0.19571119E+03</rscale>
<asrwt>0</asrwt>
<pdfrwt beam="1">  1        2 0.12000361E+00 0.19571119E+03</pdfrwt>
<pdfrwt beam="2">  1       -2 0.18886448E-02 0.19571119E+03</pdfrwt>
<totfact> 0.29955622E+04</totfact>
</mgrwt>
</event>
<event>
 4    1  0.2489209E-004  0.1925626E+03  0.7818608E-02  0.1156170E+00
         -2   -1    0    0    0  501 -0.00000000000E+00  0.00000000000E+00  0.13681167963E+03  0.13681167965E+03  0.25500000000E-02 0. -1.
          2   -1    0    0  501    0  0.00000000000E+00 -0.00000000000E+00 -0.67757992479E+02  0.67757992527E+02  0.25500000000E-02 0.  1.
    5000001    1    1    2    0    0 -0.14184649091E+02 -0.55584607361E+02  0.26997462192E+02  0.99743249446E+02  0.77000000000E+02 0.  0.
   -5000001    1    1    2    0    0  0.14184649091E+02  0.55584607361E+02  0.42056224958E+02  0.10482642273E+03  0.77000000000E+02 0.  0.
<mgrwt>
<rscale>  0 0.19256256E+03</rscale>
<asrwt>0</asrwt>
<pdfrwt beam="1">  1        2 0.10424307E-01 0.19256256E+03</pdfrwt>
<pdfrwt beam="2">  1       -2 0.21047951E-01 0.19256256E+03</pdfrwt>
<totfact> 0.11283626E+04</totfact>
</mgrwt>
</event>
<event>
 4    1  0.2489209E-004  0.2367950E+03  0.7818608E-02  0.1121947E+00
         -2   -1    0    0    0  501 -0.00000000000E+00  0.00000000000E+00  0.29277997505E+02  0.29277997616E+02  0.25500000000E-02 0. -1.
          2   -1    0    0  501    0  0.00000000000E+00 -0.00000000000E+00 -0.47878842049E+03  0.47878842050E+03  0.25500000000E-02 0.  1.
    5000001    1    1    2    0    0  0.16809445004E+02  0.84645728672E+02 -0.27909894824E+03  0.30211368677E+03  0.77000000000E+02 0.  0.
   -5000001    1    1    2    0    0 -0.16809445004E+02 -0.84645728672E+02 -0.17041147475E+03  0.20595273135E+03  0.77000000000E+02 0.  0.
<mgrwt>
<rscale>  0 0.23679498E+03</rscale>
<asrwt>0</asrwt>
<pdfrwt beam="1">  1        2 0.73659751E-01 0.23679498E+03</pdfrwt>
<pdfrwt beam="2">  1       -2 0.45043077E-02 0.23679498E+03</pdfrwt>
<totfact> 0.14771749E+04</totfact>
</mgrwt>
</event>
<event>
 4    1  0.2489209E-004  0.2361576E+03  0.7818608E-02  0.1122379E+00
          2   -1    0    0  501    0  0.00000000000E+00  0.00000000000E+00  0.53208693859E+02  0.53208693920E+02  0.25500000000E-02 0.  1.
         -2   -1    0    0    0  501 -0.00000000000E+00 -0.00000000000E+00 -0.26203615030E+03  0.26203615031E+03  0.25500000000E-02 0. -1.
    5000001    1    1    2    0    0 -0.57667228674E+02  0.45718882203E+01 -0.19560931620E+03  0.21803306173E+03  0.77000000000E+02 0.  0.
   -5000001    1    1    2    0    0  0.57667228674E+02 -0.45718882203E+01 -0.13218140240E+02  0.97211782497E+02  0.77000000000E+02 0.  0.
<mgrwt>
<rscale>  0 0.23615759E+03</rscale>
<asrwt>0</asrwt>
<pdfrwt beam="1">  1        2 0.81859530E-02 0.23615759E+03</pdfrwt>
<pdfrwt beam="2">  1       -2 0.40313253E-01 0.23615759E+03</pdfrwt>
<totfact> 0.47785282E+03</totfact>
</mgrwt>
</event>
<event>
 4    1  0.2489209E-004  0.2059263E+03  0.7818608E-02  0.1144833E+00
         -2   -1    0    0    0  501 -0.00000000000E+00  0.00000000000E+00  0.47373178794E+03  0.47373178795E+03  0.25500000000E-02 0. -1.
          2   -1    0    0  501    0  0.00000000000E+00 -0.00000000000E+00 -0.22378504534E+02  0.22378504679E+02  0.25500000000E-02 0.  1.
    5000001    1    1    2    0    0  0.24710676635E+02  0.61864131561E+02  0.18877466766E+03  0.21448231504E+03  0.77000000000E+02 0.  0.
   -5000001    1    1    2    0    0 -0.24710676635E+02 -0.61864131561E+02  0.26257861575E+03  0.28162797759E+03  0.77000000000E+02 0.  0.
<mgrwt>
<rscale>  0 0.20592629E+03</rscale>
<asrwt>0</asrwt>
<pdfrwt beam="1">  1        2 0.34428469E-02 0.20592629E+03</pdfrwt>
<pdfrwt beam="2">  1       -2 0.72881812E-01 0.20592629E+03</pdfrwt>
<totfact> 0.44445499E+03</totfact>
</mgrwt>
</event>
<event>
 4    1  0.2489209E-004  0.2255880E+03  0.7818608E-02  0.1129784E+00
          2   -1    0    0  501    0  0.00000000000E+00  0.00000000000E+00  0.10279620881E+04  0.10279620881E+04  0.25500000000E-02 0.  1.
         -2   -1    0    0    0  501 -0.00000000000E+00 -0.00000000000E+00 -0.12376419433E+02  0.12376419696E+02  0.25500000000E-02 0. -1.
    5000001    1    1    2    0    0 -0.44274682260E+02  0.50800130906E+02  0.72666958221E+03  0.73383825363E+03  0.77000000000E+02 0.  0.
   -5000001    1    1    2    0    0  0.44274682260E+02 -0.50800130906E+02  0.28891608648E+03  0.30650025419E+03  0.77000000000E+02 0.  0.
<mgrwt>
<rscale>  0 0.22558803E+03</rscale>
<asrwt>0</asrwt>
<pdfrwt beam="1">  1        2 0.15814803E+00 0.22558803E+03</pdfrwt>
<pdfrwt beam="2">  1       -2 0.19040644E-02 0.22558803E+03</pdfrwt>
<totfact> 0.20700894E+04</totfact>
</mgrwt>
</event>
<event>
 4    1  0.2489209E-004  0.2369888E+03  0.7818608E-02  0.1121815E+00
         -2   -1    0    0    0  501 -0.00000000000E+00  0.00000000000E+00  0.12991923172E+02  0.12991923422E+02  0.25500000000E-02 0. -1.
          2   -1    0    0  501    0  0.00000000000E+00 -0.00000000000E+00 -0.10807420873E+04  0.10807420873E+04  0.25500000000E-02 0.  1.
    5000001    1    1    2    0    0 -0.85032870867E+01  0.88928716881E+02 -0.58675725141E+03  0.59849285264E+03  0.77000000000E+02 0.  0.
   -5000001    1    1    2    0    0  0.85032870867E+01 -0.88928716881E+02 -0.48099291270E+03  0.49524115807E+03  0.77000000000E+02 0.  0.
<mgrwt>
<rscale>  0 0.23698876E+03</rscale>
<asrwt>0</asrwt>
<pdfrwt beam="1">  1        2 0.16626794E+00 0.23698876E+03</pdfrwt>
<pdfrwt beam="2">  1       -2 0.19987583E-02 0.23698876E+03</pdfrwt>
<totfact> 0.17978874E+04</totfact>
</mgrwt>
</event>
<event>
 4    1  0.2489209E-004  0.1921797E+03  0.7818608E-02  0.1156510E+00
          2   -1    0    0  501    0  0.00000000000E+00  0.00000000000E+00  0.17152169130E+04  0.17152169130E+04  0.25500000000E-02 0.  1.
         -2   -1    0    0    0  501 -0.00000000000E+00 -0.00000000000E+00 -0.53831451325E+01  0.53831457365E+01  0.25500000000E-02 0. -1.
    5000001    1    1    2    0    0 -0.44142894140E+02 -0.95385248935E+01  0.11733097208E+04  0.11767005904E+04  0.77000000000E+02 0.  0.
   -5000001    1    1    2    0    0  0.44142894140E+02  0.95385248935E+01  0.53652404706E+03  0.54389946832E+03  0.77000000000E+02 0.  0.
<mgrwt>
<rscale>  0 0.19217973E+03</rscale>
<asrwt>0</asrwt>
<pdfrwt beam="1">  1        2 0.26387977E+00 0.19217973E+03</pdfrwt>
<pdfrwt beam="2">  1       -2 0.82817546E-03 0.19217973E+03</pdfrwt>
<totfact> 0.28879149E+04</totfact>
</mgrwt>
</event>
<event>
 4    1  0.2489209E-004  0.2558944E+03  0.7818608E-02  0.1109635E+00
         -2   -1    0    0    0  501 -0.00000000000E+00  0.00000000000E+00  0.10687060944E+02  0.10687061248E+02  0.25500000000E-02 0. -1.
          2   -1    0    0  501    0  0.00000000000E+00 -0.00000000000E+00 -0.15318045747E+04  0.15318045747E+04  0.25500000000E-02 0.  1.
    5000001    1    1    2    0    0 -0.49722816334E+02  0.89248849047E+02 -0.74884927536E+03  0.75969859335E+03  0.77000000000E+02 0.  0.
   -5000001    1    1    2    0    0  0.49722816334E+02 -0.89248849047E+02 -0.77226823843E+03  0.78279304265E+03  0.77000000000E+02 0.  0.
<mgrwt>
<rscale>  0 0.25589442E+03</rscale>
<asrwt>0</asrwt>
<pdfrwt beam="1">  1        2 0.23566207E+00 0.25589442E+03</pdfrwt>
<pdfrwt beam="2">  1       -2 0.16441645E-02 0.25589442E+03</pdfrwt>
<totfact> 0.13498402E+04</totfact>
</mgrwt>
</event>
<event>
 4    1  0.2489209E-004  0.2420234E+03  0.7818608E-02  0.1118452E+00
          2   -1    0    0  501    0  0.00000000000E+00  0.00000000000E+00  0.77839880634E+03  0.77839880634E+03  0.25500000000E-02 0.  1.
         -2   -1    0    0    0  501 -0.00000000000E+00 -0.00000000000E+00 -0.18812766719E+02  0.18812766892E+02  0.25500000000E-02 0. -1.
    5000001    1    1    2    0    0  0.82461241230E+02  0.26617792118E+02  0.26538016615E+03  0.28959281025E+03  0.77000000000E+02 0.  0.
   -5000001    1    1    2    0    0 -0.82461241230E+02 -0.26617792118E+02  0.49420587347E+03  0.50761876298E+03  0.77000000000E+02 0.  0.
<mgrwt>
<rscale>  0 0.24202343E+03</rscale>
<asrwt>0</asrwt>
<pdfrwt beam="1">  1        2 0.11975363E+00 0.24202343E+03</pdfrwt>
<pdfrwt beam="2">  1       -2 0.28942726E-02 0.24202343E+03</pdfrwt>
<totfact> 0.16235887E+04</totfact>
</mgrwt>
</event>
<event>
 4    1  0.2489209E-004  0.2037276E+03  0.7818608E-02  0.1146632E+00
          2   -1    0    0  501    0  0.00000000000E+00  0.00000000000E+00  0.12846545510E+04  0.12846545510E+04  0.25500000000E-02 0.  1.
         -2   -1    0    0    0  501 -0.00000000000E+00 -0.00000000000E+00 -0.80770624202E+01  0.80770628227E+01  0.25500000000E-02 0. -1.
    5000001    1    1    2    0    0  0.37250917128E+02  0.53318528365E+02  0.54487151841E+03  0.55411593360E+03  0.77000000000E+02 0.  0.
   -5000001    1    1    2    0    0 -0.37250917128E+02 -0.53318528365E+02  0.73170597016E+03  0.73861568021E+03  0.77000000000E+02 0.  0.
<mgrwt>
<rscale>  0 0.20372761E+03</rscale>
<asrwt>0</asrwt>
<pdfrwt beam="1">  1        2 0.19763919E+00 0.20372761E+03</pdfrwt>
<pdfrwt beam="2">  1       -2 0.12426249E-02 0.20372761E+03</pdfrwt>
<totfact> 0.27314325E+04</totfact>
</mgrwt>
</event>
<event>
 4    1  0.2489209E-004  0.1858472E+03  0.7818608E-02  0.1162261E+00
         -2   -1    0    0    0  501 -0.00000000000E+00  0.00000000000E+00  0.90879251374E+01  0.90879254952E+01  0.25500000000E-02 0. -1.
          2   -1    0    0  501    0  0.00000000000E+00 -0.00000000000E+00 -0.95013932284E+03  0.95013932285E+03  0.25500000000E-02 0.  1.
    5000001    1    1    2    0    0  0.38431458788E+02  0.19277375375E+02 -0.62164043624E+03  0.62786497449E+03  0.77000000000E+02 0.  0.
   -5000001    1    1    2    0    0 -0.38431458788E+02 -0.19277375375E+02 -0.31941096146E+03  0.33136227385E+03  0.77000000000E+02 0.  0.
<mgrwt>
<rscale>  0 0.18584720E+03</rscale>
<asrwt>0</asrwt>
<pdfrwt beam="1">  1        2 0.14617520E+00 0.18584720E+03</pdfrwt>
<pdfrwt beam="2">  1       -2 0.13981431E-02 0.18584720E+03</pdfrwt>
<totfact> 0.35762043E+04</totfact>
</mgrwt>
</event>
<event>
 4    1  0.2489209E-004  0.2692782E+03  0.7818608E-02  0.1101693E+00
          2   -1    0    0  501    0  0.00000000000E+00  0.00000000000E+00  0.64253896247E+02  0.64253896297E+02  0.25500000000E-02 0.  1.
         -2   -1    0    0    0  501 -0.00000000000E+00 -0.00000000000E+00 -0.28212584006E+03  0.28212584007E+03  0.25500000000E-02 0. -1.
    5000001    1    1    2    0    0  0.66129674724E+02 -0.37884823877E+02 -0.61079165088E+01  0.10851129159E+03  0.77000000000E+02 0.  0.
   -5000001    1    1    2    0    0 -0.66129674724E+02  0.37884823877E+02 -0.21176402730E+03  0.23786844477E+03  0.77000000000E+02 0.  0.
<mgrwt>
<rscale>  0 0.26927818E+03</rscale>
<asrwt>0</asrwt>
<pdfrwt beam="1">  1        2 0.98852150E-02 0.26927818E+03</pdfrwt>
<pdfrwt beam="2">  1       -2 0.43403975E-01 0.26927818E+03</pdfrwt>
<totfact> 0.32882676E+03</totfact>
</mgrwt>
</event>
<event>
 4    1  0.2489209E-004  0.2083182E+03  0.7818608E-02  0.1142905E+00
          2   -1    0    0  501    0  0.00000000000E+00  0.00000000000E+00  0.63065717587E+03  0.63065717588E+03  0.25500000000E-02 0.  1.
         -2   -1    0    0    0  501 -0.00000000000E+00 -0.00000000000E+00 -0.17202876975E+02  0.17202877164E+02  0.25500000000E-02 0. -1.
    5000001    1    1    2    0    0  0.54023655603E+02 -0.43241102261E+02  0.27102769503E+03  0.29012645478E+03  0.77000000000E+02 0.  0.
   -5000001    1    1    2    0    0 -0.54023655603E+02  0.43241102261E+02  0.34242660387E+03  0.35773359826E+03  0.77000000000E+02 0.  0.
<mgrwt>
<rscale>  0 0.20831820E+03</rscale>
<asrwt>0</asrwt>
<pdfrwt beam="1">  1        2 0.97024176E-01 0.20831820E+03</pdfrwt>
<pdfrwt beam="2">  1       -2 0.26465966E-02 0.20831820E+03</pdfrwt>
<totfact> 0.23691942E+04</totfact>
</mgrwt>
</event>
<event>
 4    1  0.2489209E-004  0.5039978E+03  0.7818608E-02  0.1012741E+00
         -2   -1    0    0    0  501 -0.00000000000E+00  0.00000000000E+00  0.13837666658E+03  0.13837666660E+03  0.25500000000E-02 0. -1.
          2   -1    0    0  501    0  0.00000000000E+00 -0.00000000000E+00 -0.45891723722E+03  0.45891723722E+03  0.25500000000E-02 0.  1.
    5000001    1    1    2    0    0  0.14473413440E+03 -0.18413191047E+03 -0.98440727090E+02  0.26546582994E+03  0.77000000000E+02 0.  0.
   -5000001    1    1    2    0    0 -0.14473413440E+03  0.18413191047E+03 -0.22209984355E+03  0.33182807389E+03  0.77000000000E+02 0.  0.
<mgrwt>
<rscale>  0 0.50399777E+03</rscale>
<asrwt>0</asrwt>
<pdfrwt beam="1">  1        2 0.70602651E-01 0.50399777E+03</pdfrwt>
<pdfrwt beam="2">  1       -2 0.21288718E-01 0.50399777E+03</pdfrwt>
<totfact> 0.12995772E+03</totfact>
</mgrwt>
</event>
<event>
 4    1  0.2489209E-004  0.3852529E+03  0.7818608E-02  0.1049009E+00
          2   -1    0    0  501    0  0.00000000000E+00  0.00000000000E+00  0.10219157517E+04  0.10219157517E+04  0.25500000000E-02 0.  1.
         -2   -1    0    0    0  501 -0.00000000000E+00 -0.00000000000E+00 -0.36309209170E+02  0.36309209259E+02  0.25500000000E-02 0. -1.
    5000001    1    1    2    0    0  0.13595655348E+03  0.11218582360E+03  0.46450831991E+03  0.50275920948E+03  0.77000000000E+02 0.  0.
   -5000001    1    1    2    0    0 -0.13595655348E+03 -0.11218582360E+03  0.52109822260E+03  0.55546575147E+03  0.77000000000E+02 0.  0.
<mgrwt>
<rscale>  0 0.38525292E+03</rscale>
<asrwt>0</asrwt>
<pdfrwt beam="1">  1        2 0.15721784E+00 0.38525292E+03</pdfrwt>
<pdfrwt beam="2">  1       -2 0.55860311E-02 0.38525292E+03</pdfrwt>
<totfact> 0.42238381E+03</totfact>
</mgrwt>
</event>
<event>
 4    1  0.2489209E-004  0.3012392E+03  0.7818608E-02  0.1084623E+00
          2   -1    0    0  501    0  0.00000000000E+00  0.00000000000E+00  0.10663790356E+04  0.10663790356E+04  0.25500000000E-02 0.  1.
         -2   -1    0    0    0  501 -0.00000000000E+00 -0.00000000000E+00 -0.21274104696E+02  0.21274104849E+02  0.25500000000E-02 0. -1.
    5000001    1    1    2    0    0  0.58054500532E+02 -0.83995638704E+02  0.80985404164E+03  0.81988911514E+03  0.77000000000E+02 0.  0.
   -5000001    1    1    2    0    0 -0.58054500532E+02  0.83995638704E+02  0.23525088923E+03  0.26776402528E+03  0.77000000000E+02 0.  0.
<mgrwt>
<rscale>  0 0.30123917E+03</rscale>
<asrwt>0</asrwt>
<pdfrwt beam="1">  1        2 0.16405832E+00 0.30123917E+03</pdfrwt>
<pdfrwt beam="2">  1       -2 0.32729391E-02 0.30123917E+03</pdfrwt>
<totfact> 0.89044722E+03</totfact>
</mgrwt>
</event>
<event>
 4    1  0.2489209E-004  0.2413833E+03  0.7818608E-02  0.1118875E+00
         -2   -1    0    0    0  501 -0.00000000000E+00  0.00000000000E+00  0.11666910752E+03  0.11666910755E+03  0.25500000000E-02 0. -1.
          2   -1    0    0  501    0  0.00000000000E+00 -0.00000000000E+00 -0.12485288769E+03  0.12485288771E+03  0.25500000000E-02 0.  1.
    5000001    1    1    2    0    0 -0.44409446896E+02  0.79707230395E+02 -0.21766507579E+02  0.12135988795E+03  0.77000000000E+02 0.  0.
   -5000001    1    1    2    0    0  0.44409446896E+02 -0.79707230395E+02  0.13582727414E+02  0.12016210732E+03  0.77000000000E+02 0.  0.
<mgrwt>
<rscale>  0 0.24138331E+03</rscale>
<asrwt>0</asrwt>
<pdfrwt beam="1">  1        2 0.19208137E-01 0.24138331E+03</pdfrwt>
<pdfrwt beam="2">  1       -2 0.17949094E-01 0.24138331E+03</pdfrwt>
<totfact> 0.72445638E+03</totfact>
</mgrwt>
</event>
<event>
 4    1  0.2489209E-004  0.1840491E+03  0.7818608E-02  0.1163941E+00
          2   -1    0    0  501    0  0.00000000000E+00  0.00000000000E+00  0.54503031337E+03  0.54503031338E+03  0.25500000000E-02 0.  1.
         -2   -1    0    0    0  501 -0.00000000000E+00 -0.00000000000E+00 -0.15537696386E+02  0.15537696595E+02  0.25500000000E-02 0. -1.
    5000001    1    1    2    0    0 -0.16518960173E+02  0.43379995805E+02  0.20499864142E+03  0.22384848238E+03  0.77000000000E+02 0.  0.
   -5000001    1    1    2    0    0  0.16518960173E+02 -0.43379995805E+02  0.32449397556E+03  0.33671952759E+03  0.77000000000E+02 0.  0.
<mgrwt>
<rscale>  0 0.18404908E+03</rscale>
<asrwt>0</asrwt>
<pdfrwt beam="1">  1        2 0.83850806E-01 0.18404908E+03</pdfrwt>
<pdfrwt beam="2">  1       -2 0.23904152E-02 0.18404908E+03</pdfrwt>
<totfact> 0.32223570E+04</totfact>
</mgrwt>
</event>
<event>
 4    1  0.2489209E-004  0.2381058E+03  0.7818608E-02  0.1121061E+00
          2   -1    0    0  501    0  0.00000000000E+00  0.00000000000E+00  0.48428196796E+03  0.48428196797E+03  0.25500000000E-02 0.  1.
         -2   -1    0    0    0  501 -0.00000000000E+00 -0.00000000000E+00 -0.29267236076E+02  0.29267236187E+02  0.25500000000E-02 0. -1.
    5000001    1    1    2    0    0 -0.88514244061E+02  0.10802134036E+02  0.19058006748E+03  0.22405628673E+03  0.77000000000E+02 0.  0.
   -5000001    1    1    2    0    0  0.88514244061E+02 -0.10802134036E+02  0.26443466441E+03  0.28949291743E+03  0.77000000000E+02 0.  0.
<mgrwt>
<rscale>  0 0.23810581E+03</rscale>
<asrwt>0</asrwt>
<pdfrwt beam="1">  1        2 0.74504918E-01 0.23810581E+03</pdfrwt>
<pdfrwt beam="2">  1       -2 0.45026517E-02 0.23810581E+03</pdfrwt>
<totfact> 0.14598522E+04</totfact>
</mgrwt>
</event>
<event>
 4    1  0.2489209E-004  0.2497708E+03  0.7818608E-02  0.1113450E+00
         -2   -1    0    0    0  501 -0.00000000000E+00  0.00000000000E+00  0.13028121832E+02  0.13028122082E+02  0.25500000000E-02 0. -1.
          2   -1    0    0  501    0  0.00000000000E+00 -0.00000000000E+00 -0.11971303560E+04  0.11971303560E+04  0.25500000000E-02 0.  1.
    5000001    1    1    2    0    0 -0.77392635209E+02  0.59437819957E+02 -0.65037059337E+03  0.66214302318E+03  0.77000000000E+02 0.  0.
   -5000001    1    1    2    0    0  0.77392635209E+02 -0.59437819957E+02 -0.53373164084E+03  0.54801545494E+03  0.77000000000E+02 0.  0.
<mgrwt>
<rscale>  0 0.24977078E+03</rscale>
<asrwt>0</asrwt>
<pdfrwt beam="1">  1        2 0.18417381E+00 0.24977078E+03</pdfrwt>
<pdfrwt beam="2">  1       -2 0.20043274E-02 0.24977078E+03</pdfrwt>
<totfact> 0.15372553E+04</totfact>
</mgrwt>
</event>
<event>
 4    1  0.2489209E-004  0.2836938E+03  0.7818608E-02  0.1093688E+00
          2   -1    0    0  501    0  0.00000000000E+00  0.00000000000E+00  0.37676924287E+03  0.37676924288E+03  0.25500000000E-02 0.  1.
         -2   -1    0    0    0  501 -0.00000000000E+00 -0.00000000000E+00 -0.53402824453E+02  0.53402824514E+02  0.25500000000E-02 0. -1.
    5000001    1    1    2    0    0 -0.31749003398E+02  0.27547271695E+02 -0.73356488273E+01  0.88032171042E+02  0.77000000000E+02 0.  0.
   -5000001    1    1    2    0    0  0.31749003398E+02 -0.27547271695E+02  0.33070206724E+03  0.34213989635E+03  0.77000000000E+02 0.  0.
<mgrwt>
<rscale>  0 0.28369379E+03</rscale>
<asrwt>0</asrwt>
<pdfrwt beam="1">  1        2 0.57964500E-01 0.28369379E+03</pdfrwt>
<pdfrwt beam="2">  1       -2 0.82158190E-02 0.28369379E+03</pdfrwt>
<totfact> 0.76903510E+03</totfact>
</mgrwt>
</event>
<event>
 4    1  0.2489209E-004  0.1750311E+03  0.7818608E-02  0.1172700E+00
         -2   -1    0    0    0  501 -0.00000000000E+00  0.00000000000E+00  0.27705709412E+02  0.27705709530E+02  0.25500000000E-02 0. -1.
          2   -1    0    0  501    0  0.00000000000E+00 -0.00000000000E+00 -0.27644017210E+03  0.27644017211E+03  0.25500000000E-02 0.  1.
    5000001    1    1    2    0    0 -0.27441459102E+02  0.17104643554E+02 -0.16982538196E+03  0.18924920837E+03  0.77000000000E+02 0.  0.
   -5000001    1    1    2    0    0  0.27441459102E+02 -0.17104643554E+02 -0.78909080727E+02  0.11489667328E+03  0.77000000000E+02 0.  0.
<mgrwt>
<rscale>  0 0.17503110E+03</rscale>
<asrwt>0</asrwt>
<pdfrwt beam="1">  1        2 0.42529255E-01 0.17503110E+03</pdfrwt>
<pdfrwt beam="2">  1       -2 0.42624170E-02 0.17503110E+03</pdfrwt>
<totfact> 0.28393959E+04</totfact>
</mgrwt>
</event>
<event>
 4    1  0.2489209E-004  0.2808935E+03  0.7818608E-02  0.1095202E+00
         -2   -1    0    0    0  501 -0.00000000000E+00  0.00000000000E+00  0.22746610766E+02  0.22746610909E+02  0.25500000000E-02 0. -1.
          2   -1    0    0  501    0  0.00000000000E+00 -0.00000000000E+00 -0.86717462547E+03  0.86717462547E+03  0.25500000000E-02 0.  1.
    5000001    1    1    2    0    0  0.92419711514E+02 -0.16662355599E+02 -0.19870011415E+03  0.23287286774E+03  0.77000000000E+02 0.  0.
   -5000001    1    1    2    0    0 -0.92419711514E+02  0.16662355599E+02 -0.64572790056E+03  0.65704836864E+03  0.77000000000E+02 0.  0.
<mgrwt>
<rscale>  0 0.28089346E+03</rscale>
<asrwt>0</asrwt>
<pdfrwt beam="1">  1        2 0.13341146E+00 0.28089346E+03</pdfrwt>
<pdfrwt beam="2">  1       -2 0.34994793E-02 0.28089346E+03</pdfrwt>
<totfact> 0.10713052E+04</totfact>
</mgrwt>
</event>
<event>
 4    1  0.2489209E-004  0.2910090E+03  0.7818608E-02  0.1089824E+00
          2   -1    0    0  501    0  0.00000000000E+00  0.00000000000E+00  0.19809024462E+03  0.19809024464E+03  0.25500000000E-02 0.  1.
         -2   -1    0    0    0  501 -0.00000000000E+00 -0.00000000000E+00 -0.10687832528E+03  0.10687832531E+03  0.25500000000E-02 0. -1.
    5000001    1    1    2    0    0 -0.35830039931E+02 -0.92465034556E+02 -0.31467770865E+02  0.12943258856E+03  0.77000000000E+02 0.  0.
   -5000001    1    1    2    0    0  0.35830039931E+02  0.92465034556E+02  0.12267969020E+03  0.17553598140E+03  0.77000000000E+02 0.  0.
<mgrwt>
<rscale>  0 0.29100896E+03</rscale>
<asrwt>0</asrwt>
<pdfrwt beam="1">  1        2 0.30475422E-01 0.29100896E+03</pdfrwt>
<pdfrwt beam="2">  1       -2 0.16442819E-01 0.29100896E+03</pdfrwt>
<totfact> 0.50373150E+03</totfact>
</mgrwt>
</event>
<event>
 4    1  0.2489209E-004  0.2823060E+03  0.7818608E-02  0.1094436E+00
         -2   -1    0    0    0  501 -0.00000000000E+00  0.00000000000E+00  0.40637179177E+02  0.40637179257E+02  0.25500000000E-02 0. -1.
          2   -1    0    0  501    0  0.00000000000E+00 -0.00000000000E+00 -0.49029411625E+03  0.49029411626E+03  0.25500000000E-02 0.  1.
    5000001    1    1    2    0    0  0.93803831549E+02  0.27260769427E+02 -0.35032675786E+03  0.37175280179E+03  0.77000000000E+02 0.  0.
   -5000001    1    1    2    0    0 -0.93803831549E+02 -0.27260769427E+02 -0.99330179215E+02  0.15917849373E+03  0.77000000000E+02 0.  0.
<mgrwt>
<rscale>  0 0.28230600E+03</rscale>
<asrwt>0</asrwt>
<pdfrwt beam="1">  1        2 0.75429860E-01 0.28230600E+03</pdfrwt>
<pdfrwt beam="2">  1       -2 0.62518741E-02 0.28230600E+03</pdfrwt>
<totfact> 0.88009370E+03</totfact>
</mgrwt>
</event>
<event>
 4    1  0.2489209E-004  0.2274828E+03  0.7818608E-02  0.1128424E+00
         -2   -1    0    0    0  501 -0.00000000000E+00  0.00000000000E+00  0.10457620167E+02  0.10457620477E+02  0.25500000000E-02 0. -1.
          2   -1    0    0  501    0  0.00000000000E+00 -0.00000000000E+00 -0.12370981899E+04  0.12370981899E+04  0.25500000000E-02 0.  1.
    5000001    1    1    2    0    0 -0.96273618646E-01  0.80429913478E+02 -0.48598306434E+03  0.49857548985E+03  0.77000000000E+02 0.  0.
   -5000001    1    1    2    0    0  0.96273618646E-01 -0.80429913478E+02 -0.74065750541E+03  0.74898032055E+03  0.77000000000E+02 0.  0.
<mgrwt>
<rscale>  0 0.22748277E+03</rscale>
<asrwt>0</asrwt>
<pdfrwt beam="1">  1        2 0.19032268E+00 0.22748277E+03</pdfrwt>
<pdfrwt beam="2">  1       -2 0.16088656E-02 0.22748277E+03</pdfrwt>
<totfact> 0.20055404E+04</totfact>
</mgrwt>
</event>
<event>
 4    1  0.2489209E-004  0.4538376E+03  0.7818608E-02  0.1026584E+00
          2   -1    0    0  501    0  0.00000000000E+00  0.00000000000E+00  0.15991424585E+03  0.15991424587E+03  0.25500000000E-02 0.  1.
         -2   -1    0    0    0  501 -0.00000000000E+00 -0.00000000000E+00 -0.32199846814E+03  0.32199846815E+03  0.25500000000E-02 0. -1.
    5000001    1    1    2    0    0  0.20335798265E+02  0.19739070584E+03  0.24779213289E+01  0.21286562789E+03  0.77000000000E+02 0.  0.
   -5000001    1    1    2    0    0 -0.20335798265E+02 -0.19739070584E+03 -0.16456214362E+03  0.26904708613E+03  0.77000000000E+02 0.  0.
<mgrwt>
<rscale>  0 0.45383760E+03</rscale>
<asrwt>0</asrwt>
<pdfrwt beam="1">  1        2 0.24602192E-01 0.45383760E+03</pdfrwt>
<pdfrwt beam="2">  1       -2 0.49538226E-01 0.45383760E+03</pdfrwt>
<totfact> 0.86328842E+02</totfact>
</mgrwt>
</event>
<event>
 4    1  0.2489209E-004  0.2185797E+03  0.7818608E-02  0.1134946E+00
          2   -1    0    0  501    0  0.00000000000E+00  0.00000000000E+00  0.11978187945E+04  0.11978187945E+04  0.25500000000E-02 0.  1.
         -2   -1    0    0    0  501 -0.00000000000E+00 -0.00000000000E+00 -0.99716801744E+01  0.99716805004E+01  0.25500000000E-02 0. -1.
    5000001    1    1    2    0    0  0.40473569722E+02  0.60784477542E+02  0.44957830169E+03  0.46193344966E+03  0.77000000000E+02 0.  0.
   -5000001    1    1    2    0    0 -0.40473569722E+02 -0.60784477542E+02  0.73826881260E+03  0.74585702531E+03  0.77000000000E+02 0.  0.
<mgrwt>
<rscale>  0 0.21857965E+03</rscale>
<asrwt>0</asrwt>
<pdfrwt beam="1">  1        2 0.18427977E+00 0.21857965E+03</pdfrwt>
<pdfrwt beam="2">  1       -2 0.15341051E-02 0.21857965E+03</pdfrwt>
<totfact> 0.22570381E+04</totfact>
</mgrwt>
</event>
<event>
 4    1  0.2489209E-004  0.1785882E+03  0.7818608E-02  0.1169176E+00
         -2   -1    0    0    0  501 -0.00000000000E+00  0.00000000000E+00  0.34215753586E+02  0.34215753681E+02  0.25500000000E-02 0. -1.
          2   -1    0    0  501    0  0.00000000000E+00 -0.00000000000E+00 -0.23303400868E+03  0.23303400869E+03  0.25500000000E-02 0.  1.
    5000001    1    1    2    0    0  0.21862311989E+02  0.79819296317E+01 -0.41398204443E+02  0.90468133712E+02  0.77000000000E+02 0.  0.
   -5000001    1    1    2    0    0 -0.21862311989E+02 -0.79819296317E+01 -0.15742005065E+03  0.17678162866E+03  0.77000000000E+02 0.  0.
<mgrwt>
<rscale>  0 0.17858818E+03</rscale>
<asrwt>0</asrwt>
<pdfrwt beam="1">  1        2 0.35851385E-01 0.17858818E+03</pdfrwt>
<pdfrwt beam="2">  1       -2 0.52639622E-02 0.17858818E+03</pdfrwt>
<totfact> 0.24859548E+04</totfact>
</mgrwt>
</event>
<event>
 4    1  0.2489209E-004  0.2024736E+03  0.7818608E-02  0.1147669E+00
         -2   -1    0    0    0  501 -0.00000000000E+00  0.00000000000E+00  0.43190183597E+01  0.43190191125E+01  0.25500000000E-02 0. -1.
          2   -1    0    0  501    0  0.00000000000E+00 -0.00000000000E+00 -0.23729678231E+04  0.23729678231E+04  0.25500000000E-02 0.  1.
    5000001    1    1    2    0    0  0.35123018413E+02  0.55409771757E+02 -0.12313234001E+04  0.12354716447E+04  0.77000000000E+02 0.  0.
   -5000001    1    1    2    0    0 -0.35123018413E+02 -0.55409771757E+02 -0.11373254046E+04  0.11418151975E+04  0.77000000000E+02 0.  0.
<mgrwt>
<rscale>  0 0.20247363E+03</rscale>
<asrwt>0</asrwt>
<pdfrwt beam="1">  1        2 0.36507093E+00 0.20247363E+03</pdfrwt>
<pdfrwt beam="2">  1       -2 0.66446632E-03 0.20247363E+03</pdfrwt>
<totfact> 0.17989132E+04</totfact>
</mgrwt>
</event>
<event>
 4    1  0.2489209E-004  0.2362550E+03  0.7818608E-02  0.1122313E+00
         -2   -1    0    0    0  501 -0.00000000000E+00  0.00000000000E+00  0.10068752922E+03  0.10068752925E+03  0.25500000000E-02 0. -1.
          2   -1    0    0  501    0  0.00000000000E+00 -0.00000000000E+00 -0.13858821935E+03  0.13858821938E+03  0.25500000000E-02 0.  1.
    5000001    1    1    2    0    0 -0.48764960484E+02  0.47423938015E+02 -0.77988507919E+02  0.12898937412E+03  0.77000000000E+02 0.  0.
   -5000001    1    1    2    0    0  0.48764960484E+02 -0.47423938015E+02  0.40087817779E+02  0.11028637451E+03  0.77000000000E+02 0.  0.
<mgrwt>
<rscale>  0 0.23625499E+03</rscale>
<asrwt>0</asrwt>
<pdfrwt beam="1">  1        2 0.21321264E-01 0.23625499E+03</pdfrwt>
<pdfrwt beam="2">  1       -2 0.15490389E-01 0.23625499E+03</pdfrwt>
<totfact> 0.82150590E+03</totfact>
</mgrwt>
</event>
<event>
 4    1  0.2489209E-004  0.1914387E+03  0.7818608E-02  0.1157170E+00
          2   -1    0    0  501    0  0.00000000000E+00  0.00000000000E+00  0.90098003753E+02  0.90098003789E+02  0.25500000000E-02 0.  1.
         -2   -1    0    0    0  501 -0.00000000000E+00 -0.00000000000E+00 -0.10169142550E+03  0.10169142553E+03  0.25500000000E-02 0. -1.
    5000001    1    1    2    0    0 -0.31117950359E+02 -0.20956993047E+02 -0.48602874042E+02  0.98482291593E+02  0.77000000000E+02 0.  0.
   -5000001    1    1    2    0    0  0.31117950359E+02  0.20956993047E+02  0.37009452294E+02  0.93307137729E+02  0.77000000000E+02 0.  0.
<mgrwt>
<rscale>  0 0.19143870E+03</rscale>
<asrwt>0</asrwt>
<pdfrwt beam="1">  1        2 0.13861231E-01 0.19143870E+03</pdfrwt>
<pdfrwt beam="2">  1       -2 0.15644835E-01 0.19143870E+03</pdfrwt>
<totfact> 0.13155198E+04</totfact>
</mgrwt>
</event>
<event>
 4    1  0.2489209E-004  0.3098957E+03  0.7818608E-02  0.1080396E+00
         -2   -1    0    0    0  501 -0.00000000000E+00  0.00000000000E+00  0.60288199574E+02  0.60288199628E+02  0.25500000000E-02 0. -1.
          2   -1    0    0  501    0  0.00000000000E+00 -0.00000000000E+00 -0.39823445509E+03  0.39823445510E+03  0.25500000000E-02 0.  1.
    5000001    1    1    2    0    0 -0.11216189954E+03 -0.58160917864E+02 -0.10089764860E+03  0.17908746346E+03  0.77000000000E+02 0.  0.
   -5000001    1    1    2    0    0  0.11216189954E+03  0.58160917864E+02 -0.23704860693E+03  0.27943519127E+03  0.77000000000E+02 0.  0.
<mgrwt>
<rscale>  0 0.30989571E+03</rscale>
<asrwt>0</asrwt>
<pdfrwt beam="1">  1        2 0.61266838E-01 0.30989571E+03</pdfrwt>
<pdfrwt beam="2">  1       -2 0.92751079E-02 0.30989571E+03</pdfrwt>
<totfact> 0.59982275E+03</totfact>
</mgrwt>
</event>
<event>
 4    1  0.2489209E-004  0.3089724E+03  0.7818608E-02  0.1080839E+00
         -2   -1    0    0    0  501 -0.00000000000E+00  0.00000000000E+00  0.74139412988E+02  0.74139413032E+02  0.25500000000E-02 0. -1.
          2   -1    0    0  501    0  0.00000000000E+00 -0.00000000000E+00 -0.32190684784E+03  0.32190684785E+03  0.25500000000E-02 0.  1.
    5000001    1    1    2    0    0 -0.10279360345E+03 -0.65677259596E+02 -0.53012329770E+02  0.15368583034E+03  0.77000000000E+02 0.  0.
   -5000001    1    1    2    0    0  0.10279360345E+03  0.65677259596E+02 -0.19475510508E+03  0.24236043055E+03  0.77000000000E+02 0.  0.
<mgrwt>
<rscale>  0 0.30897239E+03</rscale>
<asrwt>0</asrwt>
<pdfrwt beam="1">  1        2 0.49524130E-01 0.30897239E+03</pdfrwt>
<pdfrwt beam="2">  1       -2 0.11406064E-01 0.30897239E+03</pdfrwt>
<totfact> 0.54291964E+03</totfact>
</mgrwt>
</event>
<event>
 4    1  0.2489209E-004  0.1756995E+03  0.7818608E-02  0.1172031E+00
          2   -1    0    0  501    0  0.00000000000E+00  0.00000000000E+00  0.18931584356E+03  0.18931584357E+03  0.25500000000E-02 0.  1.
         -2   -1    0    0    0  501 -0.00000000000E+00 -0.00000000000E+00 -0.40765643892E+02  0.40765643972E+02  0.25500000000E-02 0. -1.
    5000001    1    1    2    0    0 -0.23836602222E+02 -0.33215997135E+02  0.88445510960E+02  0.12418975191E+03  0.77000000000E+02 0.  0.
   -5000001    1    1    2    0    0  0.23836602222E+02  0.33215997135E+02  0.60104688705E+02  0.10589173563E+03  0.77000000000E+02 0.  0.
<mgrwt>
<rscale>  0 0.17569954E+03</rscale>
<asrwt>0</asrwt>
<pdfrwt beam="1">  1        2 0.29125515E-01 0.17569954E+03</pdfrwt>
<pdfrwt beam="2">  1       -2 0.62716375E-02 0.17569954E+03</pdfrwt>
<totfact> 0.23823486E+04</totfact>
</mgrwt>
</event>
<event>
 4    1  0.2489209E-004  0.1808450E+03  0.7818608E-02  0.1166988E+00
         -2   -1    0    0    0  501 -0.00000000000E+00  0.00000000000E+00  0.46136159637E+01  0.46136166685E+01  0.25500000000E-02 0. -1.
          2   -1    0    0  501    0  0.00000000000E+00 -0.00000000000E+00 -0.17721946656E+04  0.17721946656E+04  0.25500000000E-02 0.  1.
    5000001    1    1    2    0    0 -0.19209831535E+02  0.43145832004E+02 -0.84370512577E+03  0.84852691160E+03  0.77000000000E+02 0.  0.
   -5000001    1    1    2    0    0  0.19209831535E+02 -0.43145832004E+02 -0.92387592387E+03  0.92828137068E+03  0.77000000000E+02 0.  0.
<mgrwt>
<rscale>  0 0.18084497E+03</rscale>
<asrwt>0</asrwt>
<pdfrwt beam="1">  1        2 0.27264479E+00 0.18084497E+03</pdfrwt>
<pdfrwt beam="2">  1       -2 0.70978854E-03 0.18084497E+03</pdfrwt>
<totfact> 0.33551010E+04</totfact>
</mgrwt>
</event>
<event>
 4    1  0.2489209E-004  0.1753555E+03  0.7818608E-02  0.1172375E+00
         -2   -1    0    0    0  501 -0.00000000000E+00  0.00000000000E+00  0.38811226311E+03  0.38811226312E+03  0.25500000000E-02 0. -1.
          2   -1    0    0  501    0  0.00000000000E+00 -0.00000000000E+00 -0.19807122815E+02  0.19807122979E+02  0.25500000000E-02 0.  1.
    5000001    1    1    2    0    0  0.30951616587E+02  0.27836158012E+02  0.17239801541E+03  0.19334665753E+03  0.77000000000E+02 0.  0.
   -5000001    1    1    2    0    0 -0.30951616587E+02 -0.27836158012E+02  0.19590712489E+03  0.21457272857E+03  0.77000000000E+02 0.  0.
<mgrwt>
<rscale>  0 0.17535549E+03</rscale>
<asrwt>0</asrwt>
<pdfrwt beam="1">  1        2 0.30472500E-02 0.17535549E+03</pdfrwt>
<pdfrwt beam="2">  1       -2 0.59709573E-01 0.17535549E+03</pdfrwt>
<totfact> 0.78823201E+03</totfact>
</mgrwt>
</event>
<event>
 4    1  0.2489209E-004  0.1695462E+03  0.7818608E-02  0.1178322E+00
          2   -1    0    0  501    0  0.00000000000E+00  0.00000000000E+00  0.93790801122E+03  0.93790801123E+03  0.25500000000E-02 0.  1.
         -2   -1    0    0    0  501 -0.00000000000E+00 -0.00000000000E+00 -0.76622433953E+01  0.76622438197E+01  0.25500000000E-02 0. -1.
    5000001    1    1    2    0    0  0.20576193606E+02 -0.16968295214E+02  0.33478449084E+03  0.34455907780E+03  0.77000000000E+02 0.  0.
   -5000001    1    1    2    0    0 -0.20576193606E+02  0.16968295214E+02  0.59546127699E+03  0.60101117725E+03  0.77000000000E+02 0.  0.
<mgrwt>
<rscale>  0 0.16954621E+03</rscale>
<asrwt>0</asrwt>
<pdfrwt beam="1">  1        2 0.14429358E+00 0.16954621E+03</pdfrwt>
<pdfrwt beam="2">  1       -2 0.11788064E-02 0.16954621E+03</pdfrwt>
<totfact> 0.46225100E+04</totfact>
</mgrwt>
</event>
<event>
 4    1  0.2489209E-004  0.2210968E+03  0.7818608E-02  0.1133068E+00
          2   -1    0    0  501    0  0.00000000000E+00  0.00000000000E+00  0.22231728249E+03  0.22231728250E+03  0.25500000000E-02 0.  1.
         -2   -1    0    0    0  501 -0.00000000000E+00 -0.00000000000E+00 -0.54970773161E+02  0.54970773220E+02  0.25500000000E-02 0. -1.
    5000001    1    1    2    0    0  0.35659744945E+02  0.63333624144E+02  0.12351465325E+03  0.16268876705E+03  0.77000000000E+02 0.  0.
   -5000001    1    1    2    0    0 -0.35659744945E+02 -0.63333624144E+02  0.43831856074E+02  0.11459928867E+03  0.77000000000E+02 0.  0.
<mgrwt>
<rscale>  0 0.22109684E+03</rscale>
<asrwt>0</asrwt>
<pdfrwt beam="1">  1        2 0.34202658E-01 0.22109684E+03</pdfrwt>
<pdfrwt beam="2">  1       -2 0.84570423E-02 0.22109684E+03</pdfrwt>
<totfact> 0.12820834E+04</totfact>
</mgrwt>
</event>
<event>
 4    1  0.2489209E-004  0.2905416E+03  0.7818608E-02  0.1090067E+00
          2   -1    0    0  501    0  0.00000000000E+00  0.00000000000E+00  0.26911513156E+04  0.26911513156E+04  0.25500000000E-02 0.  1.
         -2   -1    0    0    0  501 -0.00000000000E+00 -0.00000000000E+00 -0.78418515376E+01  0.78418519522E+01  0.25500000000E-02 0. -1.
    5000001    1    1    2    0    0  0.42357979661E+02  0.94436429608E+02  0.72111932253E+03  0.73256707201E+03  0.77000000000E+02 0.  0.
   -5000001    1    1    2    0    0 -0.42357979661E+02 -0.94436429608E+02  0.19621901415E+04  0.19664260955E+04  0.77000000000E+02 0.  0.
<mgrwt>
<rscale>  0 0.29054163E+03</rscale>
<asrwt>0</asrwt>
<pdfrwt beam="1">  1        2 0.41402313E+00 0.29054163E+03</pdfrwt>
<pdfrwt beam="2">  1       -2 0.12064392E-02 0.29054163E+03</pdfrwt>
<totfact> 0.50922919E+03</totfact>
</mgrwt>
</event>
<event>
 4    1  0.2489209E-004  0.5531729E+03  0.7818608E-02  0.1000762E+00
         -2   -1    0    0    0  501 -0.00000000000E+00  0.00000000000E+00  0.88344357062E+02  0.88344357099E+02  0.25500000000E-02 0. -1.
          2   -1    0    0  501    0  0.00000000000E+00 -0.00000000000E+00 -0.86593030456E+03  0.86593030456E+03  0.25500000000E-02 0.  1.
    5000001    1    1    2    0    0 -0.14574098240E+03  0.88613394173E+02 -0.37456746117E+02  0.19085275845E+03  0.77000000000E+02 0.  0.
   -5000001    1    1    2    0    0  0.14574098240E+03 -0.88613394173E+02 -0.74012920138E+03  0.76342190322E+03  0.77000000000E+02 0.  0.
<mgrwt>
<rscale>  0 0.55317287E+03</rscale>
<asrwt>0</asrwt>
<pdfrwt beam="1">  1        2 0.13322004E+00 0.55317287E+03</pdfrwt>
<pdfrwt beam="2">  1       -2 0.13591440E-01 0.55317287E+03</pdfrwt>
<totfact> 0.12866968E+03</totfact>
</mgrwt>
</event>
<event>
 4    1  0.2489209E-004  0.3023628E+03  0.7818608E-02  0.1084065E+00
          2   -1    0    0  501    0  0.00000000000E+00  0.00000000000E+00  0.80948622313E+03  0.80948622313E+03  0.25500000000E-02 0.  1.
         -2   -1    0    0    0  501 -0.00000000000E+00 -0.00000000000E+00 -0.28234961185E+02  0.28234961300E+02  0.25500000000E-02 0. -1.
    5000001    1    1    2    0    0  0.11203089245E+03  0.46591132346E+02  0.26052152685E+03  0.29752667179E+03  0.77000000000E+02 0.  0.
   -5000001    1    1    2    0    0 -0.11203089245E+03 -0.46591132346E+02  0.52072973510E+03  0.54019451264E+03  0.77000000000E+02 0.  0.
<mgrwt>
<rscale>  0 0.30236278E+03</rscale>
<asrwt>0</asrwt>
<pdfrwt beam="1">  1        2 0.12453635E+00 0.30236278E+03</pdfrwt>
<pdfrwt beam="2">  1       -2 0.43438399E-02 0.30236278E+03</pdfrwt>
<totfact> 0.84806506E+03</totfact>
</mgrwt>
</event>
<event>
 4    1  0.2489209E-004  0.1954043E+03  0.7818608E-02  0.1153675E+00
          2   -1    0    0  501    0  0.00000000000E+00  0.00000000000E+00  0.47565516221E+02  0.47565516289E+02  0.25500000000E-02 0.  1.
         -2   -1    0    0    0  501 -0.00000000000E+00 -0.00000000000E+00 -0.20068544787E+03  0.20068544788E+03  0.25500000000E-02 0. -1.
    5000001    1    1    2    0    0 -0.58626108971E+02 -0.41806270695E+01 -0.92740538639E+02  0.13410557708E+03  0.77000000000E+02 0.  0.
   -5000001    1    1    2    0    0  0.58626108971E+02  0.41806270695E+01 -0.60379393009E+02  0.11414538710E+03  0.77000000000E+02 0.  0.
<mgrwt>
<rscale>  0 0.19540427E+03</rscale>
<asrwt>0</asrwt>
<pdfrwt beam="1">  1        2 0.73177718E-02 0.19540427E+03</pdfrwt>
<pdfrwt beam="2">  1       -2 0.30874684E-01 0.19540427E+03</pdfrwt>
<totfact> 0.89563883E+03</totfact>
</mgrwt>
</event>
<event>
 4    1  0.2489209E-004  0.2155858E+03  0.7818608E-02  0.1137217E+00
          2   -1    0    0  501    0  0.00000000000E+00  0.00000000000E+00  0.15822632344E+03  0.15822632346E+03  0.25500000000E-02 0.  1.
         -2   -1    0    0    0  501 -0.00000000000E+00 -0.00000000000E+00 -0.73434714584E+02  0.73434714628E+02  0.25500000000E-02 0. -1.
    5000001    1    1    2    0    0  0.13627950902E+02 -0.23930840761E+02 -0.33068227145E+02  0.88209488332E+02  0.77000000000E+02 0.  0.
   -5000001    1    1    2    0    0 -0.13627950902E+02  0.23930840761E+02  0.11785983600E+03  0.14345154975E+03  0.77000000000E+02 0.  0.
<mgrwt>
<rscale>  0 0.21558576E+03</rscale>
<asrwt>0</asrwt>
<pdfrwt beam="1">  1        2 0.24342511E-01 0.21558576E+03</pdfrwt>
<pdfrwt beam="2">  1       -2 0.11297649E-01 0.21558576E+03</pdfrwt>
<totfact> 0.11763569E+04</totfact>
</mgrwt>
</event>
<event>
 4    1  0.2489209E-004  0.1860280E+03  0.7818608E-02  0.1162093E+00
          2   -1    0    0  501    0  0.00000000000E+00  0.00000000000E+00  0.15975136245E+04  0.15975136245E+04  0.25500000000E-02 0.  1.
         -2   -1    0    0    0  501 -0.00000000000E+00 -0.00000000000E+00 -0.54156684529E+01  0.54156690533E+01  0.25500000000E-02 0. -1.
    5000001    1    1    2    0    0  0.22873924560E+02  0.41769312721E+02  0.97978934772E+03  0.98396344333E+03  0.77000000000E+02 0.  0.
   -5000001    1    1    2    0    0 -0.22873924560E+02 -0.41769312721E+02  0.61230860832E+03  0.61896585022E+03  0.77000000000E+02 0.  0.
<mgrwt>
<rscale>  0 0.18602800E+03</rscale>
<asrwt>0</asrwt>
<pdfrwt beam="1">  1        2 0.24577154E+00 0.18602800E+03</pdfrwt>
<pdfrwt beam="2">  1       -2 0.83317910E-03 0.18602800E+03</pdfrwt>
<totfact> 0.32910100E+04</totfact>
</mgrwt>
</event>
<event>
 4    1  0.2489209E-004  0.2803075E+03  0.7818608E-02  0.1095521E+00
         -2   -1    0    0    0  501 -0.00000000000E+00  0.00000000000E+00  0.50509134694E+02  0.50509134758E+02  0.25500000000E-02 0. -1.
          2   -1    0    0  501    0  0.00000000000E+00 -0.00000000000E+00 -0.38890138733E+03  0.38890138734E+03  0.25500000000E-02 0.  1.
    5000001    1    1    2    0    0 -0.11461293859E+03  0.10096062821E+02 -0.13499450447E+03  0.19336642008E+03  0.77000000000E+02 0.  0.
   -5000001    1    1    2    0    0  0.11461293859E+03 -0.10096062821E+02 -0.20339774817E+03  0.24604410202E+03  0.77000000000E+02 0.  0.
<mgrwt>
<rscale>  0 0.28030749E+03</rscale>
<asrwt>0</asrwt>
<pdfrwt beam="1">  1        2 0.59830981E-01 0.28030749E+03</pdfrwt>
<pdfrwt beam="2">  1       -2 0.77706364E-02 0.28030749E+03</pdfrwt>
<totfact> 0.81032699E+03</totfact>
</mgrwt>
</event>
<event>
 4    1  0.2489209E-004  0.2397952E+03  0.7818608E-02  0.1119929E+00
          2   -1    0    0  501    0  0.00000000000E+00  0.00000000000E+00  0.39482156722E+03  0.39482156722E+03  0.25500000000E-02 0.  1.
         -2   -1    0    0    0  501 -0.00000000000E+00 -0.00000000000E+00 -0.36409948211E+02  0.36409948300E+02  0.25500000000E-02 0. -1.
    5000001    1    1    2    0    0 -0.66858837854E+02  0.59522519272E+02  0.14176772226E+03  0.18449965196E+03  0.77000000000E+02 0.  0.
   -5000001    1    1    2    0    0  0.66858837854E+02 -0.59522519272E+02  0.21664389674E+03  0.24673186356E+03  0.77000000000E+02 0.  0.
<mgrwt>
<rscale>  0 0.23979519E+03</rscale>
<asrwt>0</asrwt>
<pdfrwt beam="1">  1        2 0.60741779E-01 0.23979519E+03</pdfrwt>
<pdfrwt beam="2">  1       -2 0.56015305E-02 0.23979519E+03</pdfrwt>
<totfact> 0.13113213E+04</totfact>
</mgrwt>
</event>
<event>
 4    1  0.2489209E-004  0.1803621E+03  0.7818608E-02  0.1167453E+00
         -2   -1    0    0    0  501 -0.00000000000E+00  0.00000000000E+00  0.47820994443E+01  0.47821001241E+01  0.25500000000E-02 0. -1.
          2   -1    0    0  501    0  0.00000000000E+00 -0.00000000000E+00 -0.17006386567E+04  0.17006386567E+04  0.25500000000E-02 0.  1.
    5000001    1    1    2    0    0 -0.45945326339E+02 -0.94754593211E+01 -0.83191959109E+03  0.83679146948E+03  0.77000000000E+02 0.  0.
   -5000001    1    1    2    0    0  0.45945326339E+02  0.94754593211E+01 -0.86393696618E+03  0.86862928737E+03  0.77000000000E+02 0.  0.
<mgrwt>
<rscale>  0 0.18036212E+03</rscale>
<asrwt>0</asrwt>
<pdfrwt beam="1">  1        2 0.26163623E+00 0.18036212E+03</pdfrwt>
<pdfrwt beam="2">  1       -2 0.73570902E-03 0.18036212E+03</pdfrwt>
<totfact> 0.34703537E+04</totfact>
</mgrwt>
</event>
<event>
 4    1  0.2489209E-004  0.3534329E+03  0.7818608E-02  0.1061215E+00
         -2   -1    0    0    0  501 -0.00000000000E+00  0.00000000000E+00  0.15115777869E+03  0.15115777871E+03  0.25500000000E-02 0. -1.
          2   -1    0    0  501    0  0.00000000000E+00 -0.00000000000E+00 -0.20659668045E+03  0.20659668046E+03  0.25500000000E-02 0.  1.
    5000001    1    1    2    0    0 -0.73863356386E+02  0.12707215399E+03  0.33823379312E+02  0.16934033402E+03  0.77000000000E+02 0.  0.
   -5000001    1    1    2    0    0  0.73863356386E+02 -0.12707215399E+03 -0.89262281073E+02  0.18841412516E+03  0.77000000000E+02 0.  0.
<mgrwt>
<rscale>  0 0.35343285E+03</rscale>
<asrwt>0</asrwt>
<pdfrwt beam="1">  1        2 0.31784104E-01 0.35343285E+03</pdfrwt>
<pdfrwt beam="2">  1       -2 0.23255043E-01 0.35343285E+03</pdfrwt>
<totfact> 0.26693538E+03</totfact>
</mgrwt>
</event>
<event>
 4    1  0.2489209E-004  0.4104623E+03  0.7818608E-02  0.1040216E+00
         -2   -1    0    0    0  501 -0.00000000000E+00  0.00000000000E+00  0.89693372874E+03  0.89693372874E+03  0.25500000000E-02 0. -1.
          2   -1    0    0  501    0  0.00000000000E+00 -0.00000000000E+00 -0.46959793846E+02  0.46959793916E+02  0.25500000000E-02 0.  1.
    5000001    1    1    2    0    0 -0.64189432164E+02 -0.16845012717E+03  0.56477259331E+03  0.59782339424E+03  0.77000000000E+02 0.  0.
   -5000001    1    1    2    0    0  0.64189432164E+02  0.16845012717E+03  0.28520134159E+03  0.34607012842E+03  0.77000000000E+02 0.  0.
<mgrwt>
<rscale>  0 0.41046229E+03</rscale>
<asrwt>0</asrwt>
<pdfrwt beam="1">  1        2 0.72245840E-02 0.41046229E+03</pdfrwt>
<pdfrwt beam="2">  1       -2 0.13798980E+00 0.41046229E+03</pdfrwt>
<totfact> 0.38226353E+02</totfact>
</mgrwt>
</event>
<event>
 4    1  0.2489209E-004  0.1990969E+03  0.7818608E-02  0.1150503E+00
         -2   -1    0    0    0  501 -0.00000000000E+00  0.00000000000E+00  0.50590326298E+02  0.50590326363E+02  0.25500000000E-02 0. -1.
          2   -1    0    0  501    0  0.00000000000E+00 -0.00000000000E+00 -0.19588520171E+03  0.19588520173E+03  0.25500000000E-02 0.  1.
    5000001    1    1    2    0    0  0.30506681877E+02  0.40848329783E+02 -0.26631456785E+02  0.96111800398E+02  0.77000000000E+02 0.  0.
   -5000001    1    1    2    0    0 -0.30506681877E+02 -0.40848329783E+02 -0.11866341863E+03  0.15036372769E+03  0.77000000000E+02 0.  0.
<mgrwt>
<rscale>  0 0.19909692E+03</rscale>
<asrwt>0</asrwt>
<pdfrwt beam="1">  1        2 0.30136185E-01 0.19909692E+03</pdfrwt>
<pdfrwt beam="2">  1       -2 0.77831272E-02 0.19909692E+03</pdfrwt>
<totfact> 0.16627519E+04</totfact>
</mgrwt>
</event>
<event>
 4    1  0.2489209E-004  0.2012906E+03  0.7818608E-02  0.1148655E+00
         -2   -1    0    0    0  501 -0.00000000000E+00  0.00000000000E+00  0.12799508210E+02  0.12799508464E+02  0.25500000000E-02 0. -1.
          2   -1    0    0  501    0  0.00000000000E+00 -0.00000000000E+00 -0.79139612190E+03  0.79139612190E+03  0.25500000000E-02 0.  1.
    5000001    1    1    2    0    0 -0.48357763790E+02 -0.42181269012E+02 -0.42564108696E+03  0.43728373818E+03  0.77000000000E+02 0.  0.
   -5000001    1    1    2    0    0  0.48357763790E+02  0.42181269012E+02 -0.35295552673E+03  0.36691189218E+03  0.77000000000E+02 0.  0.
<mgrwt>
<rscale>  0 0.20129065E+03</rscale>
<asrwt>0</asrwt>
<pdfrwt beam="1">  1        2 0.12175321E+00 0.20129065E+03</pdfrwt>
<pdfrwt beam="2">  1       -2 0.19691558E-02 0.20129065E+03</pdfrwt>
<totfact> 0.27732095E+04</totfact>
</mgrwt>
</event>
<event>
 4    1  0.2489209E-004  0.1709910E+03  0.7818608E-02  0.1176818E+00
          2   -1    0    0  501    0  0.00000000000E+00  0.00000000000E+00  0.61144833026E+03  0.61144833026E+03  0.25500000000E-02 0.  1.
         -2   -1    0    0    0  501 -0.00000000000E+00 -0.00000000000E+00 -0.11954375130E+02  0.11954375402E+02  0.25500000000E-02 0. -1.
    5000001    1    1    2    0    0 -0.36385706432E+02 -0.75102835393E+01  0.29829409381E+03  0.31030419010E+03  0.77000000000E+02 0.  0.
   -5000001    1    1    2    0    0  0.36385706432E+02  0.75102835393E+01  0.30119986131E+03  0.31309851556E+03  0.77000000000E+02 0.  0.
<mgrwt>
<rscale>  0 0.17099103E+03</rscale>
<asrwt>0</asrwt>
<pdfrwt beam="1">  1        2 0.94069003E-01 0.17099103E+03</pdfrwt>
<pdfrwt beam="2">  1       -2 0.18391341E-02 0.17099103E+03</pdfrwt>
<totfact> 0.41205208E+04</totfact>
</mgrwt>
</event>
<event>
 4    1  0.2489209E-004  0.1994095E+03  0.7818608E-02  0.1150238E+00
         -2   -1    0    0    0  501 -0.00000000000E+00  0.00000000000E+00  0.54754232998E+01  0.54754238936E+01  0.25500000000E-02 0. -1.
          2   -1    0    0  501    0  0.00000000000E+00 -0.00000000000E+00 -0.18155735922E+04  0.18155735922E+04  0.25500000000E-02 0.  1.
    5000001    1    1    2    0    0 -0.49698856835E+02  0.24911588393E+02 -0.62783412768E+03  0.63497657869E+03  0.77000000000E+02 0.  0.
   -5000001    1    1    2    0    0  0.49698856835E+02 -0.24911588393E+02 -0.11822640412E+04  0.11860724374E+04  0.77000000000E+02 0.  0.
<mgrwt>
<rscale>  0 0.19940947E+03</rscale>
<asrwt>0</asrwt>
<pdfrwt beam="1">  1        2 0.27931853E+00 0.19940947E+03</pdfrwt>
<pdfrwt beam="2">  1       -2 0.84237431E-03 0.19940947E+03</pdfrwt>
<totfact> 0.25043258E+04</totfact>
</mgrwt>
</event>
<event>
 4    1  0.2489209E-004  0.1960901E+03  0.7818608E-02  0.1153080E+00
          2   -1    0    0  501    0  0.00000000000E+00  0.00000000000E+00  0.12121172804E+04  0.12121172804E+04  0.25500000000E-02 0.  1.
         -2   -1    0    0    0  501 -0.00000000000E+00 -0.00000000000E+00 -0.79306136119E+01  0.79306140218E+01  0.25500000000E-02 0. -1.
    5000001    1    1    2    0    0 -0.47069022688E+02  0.31323122271E+02  0.46475992019E+03  0.47447593648E+03  0.77000000000E+02 0.  0.
   -5000001    1    1    2    0    0  0.47069022688E+02 -0.31323122271E+02  0.73942674663E+03  0.74557195797E+03  0.77000000000E+02 0.  0.
<mgrwt>
<rscale>  0 0.19609012E+03</rscale>
<asrwt>0</asrwt>
<pdfrwt beam="1">  1        2 0.18647952E+00 0.19609012E+03</pdfrwt>
<pdfrwt beam="2">  1       -2 0.12200949E-02 0.19609012E+03</pdfrwt>
<totfact> 0.30698618E+04</totfact>
</mgrwt>
</event>
<event>
 4    1  0.2489209E-004  0.6644441E+03  0.7818608E-02  0.9780047E-01
          2   -1    0    0  501    0  0.00000000000E+00  0.00000000000E+00  0.14207423094E+04  0.14207423094E+04  0.25500000000E-02 0.  1.
         -2   -1    0    0    0  501 -0.00000000000E+00 -0.00000000000E+00 -0.77685787251E+02  0.77685787293E+02  0.25500000000E-02 0. -1.
    5000001    1    1    2    0    0 -0.31714743817E+03  0.18476701721E+02  0.53775714732E+03  0.62931362256E+03  0.77000000000E+02 0.  0.
   -5000001    1    1    2    0    0  0.31714743817E+03 -0.18476701721E+02  0.80529937479E+03  0.86911447409E+03  0.77000000000E+02 0.  0.
<mgrwt>
<rscale>  0 0.66444408E+03</rscale>
<asrwt>0</asrwt>
<pdfrwt beam="1">  1        2 0.21857574E+00 0.66444408E+03</pdfrwt>
<pdfrwt beam="2">  1       -2 0.11951660E-01 0.66444408E+03</pdfrwt>
<totfact> 0.73205666E+02</totfact>
</mgrwt>
</event>
<event>
 4    1  0.2489209E-004  0.2216097E+03  0.7818608E-02  0.1132689E+00
          2   -1    0    0  501    0  0.00000000000E+00  0.00000000000E+00  0.41874692973E+03  0.41874692974E+03  0.25500000000E-02 0.  1.
         -2   -1    0    0    0  501 -0.00000000000E+00 -0.00000000000E+00 -0.29320140727E+02  0.29320140838E+02  0.25500000000E-02 0. -1.
    5000001    1    1    2    0    0  0.76319000780E+02 -0.54050505111E+01  0.14973341320E+03  0.18494025921E+03  0.77000000000E+02 0.  0.
   -5000001    1    1    2    0    0 -0.76319000780E+02  0.54050505111E+01  0.23969337581E+03  0.26312681136E+03  0.77000000000E+02 0.  0.
<mgrwt>
<rscale>  0 0.22160974E+03</rscale>
<asrwt>0</asrwt>
<pdfrwt beam="1">  1        2 0.64422606E-01 0.22160974E+03</pdfrwt>
<pdfrwt beam="2">  1       -2 0.45107908E-02 0.22160974E+03</pdfrwt>
<totfact> 0.17005737E+04</totfact>
</mgrwt>
</event>
<event>
 4    1  0.2489209E-004  0.2433575E+03  0.7818608E-02  0.1117576E+00
         -2   -1    0    0    0  501 -0.00000000000E+00  0.00000000000E+00  0.25176342495E+03  0.25176342496E+03  0.25500000000E-02 0. -1.
          2   -1    0    0  501    0  0.00000000000E+00 -0.00000000000E+00 -0.58808048982E+02  0.58808049037E+02  0.25500000000E-02 0.  1.
    5000001    1    1    2    0    0 -0.83144405847E+02 -0.82533746513E+01  0.15204134651E+03  0.18980695842E+03  0.77000000000E+02 0.  0.
   -5000001    1    1    2    0    0  0.83144405847E+02  0.82533746513E+01  0.40914029462E+02  0.12076451558E+03  0.77000000000E+02 0.  0.
<mgrwt>
<rscale>  0 0.24335748E+03</rscale>
<asrwt>0</asrwt>
<pdfrwt beam="1">  1        2 0.90473922E-02 0.24335748E+03</pdfrwt>
<pdfrwt beam="2">  1       -2 0.38732835E-01 0.24335748E+03</pdfrwt>
<totfact> 0.45516933E+03</totfact>
</mgrwt>
</event>
<event>
 4    1  0.2489209E-004  0.1637261E+03  0.7818608E-02  0.1184553E+00
         -2   -1    0    0    0  501 -0.00000000000E+00  0.00000000000E+00  0.22595419503E+02  0.22595419646E+02  0.25500000000E-02 0. -1.
          2   -1    0    0  501    0  0.00000000000E+00 -0.00000000000E+00 -0.29658922945E+03  0.29658922946E+03  0.25500000000E-02 0.  1.
    5000001    1    1    2    0    0  0.86905257887E+01  0.26208589546E+02 -0.13078820807E+03  0.15426266812E+03  0.77000000000E+02 0.  0.
   -5000001    1    1    2    0    0 -0.86905257887E+01 -0.26208589546E+02 -0.14320560188E+03  0.16492198099E+03  0.77000000000E+02 0.  0.
<mgrwt>
<rscale>  0 0.16372609E+03</rscale>
<asrwt>0</asrwt>
<pdfrwt beam="1">  1        2 0.45629109E-01 0.16372609E+03</pdfrwt>
<pdfrwt beam="2">  1       -2 0.34762186E-02 0.16372609E+03</pdfrwt>
<totfact> 0.35474663E+04</totfact>
</mgrwt>
</event>
<event>
 4    1  0.2489209E-004  0.2847341E+03  0.7818608E-02  0.1093131E+00
         -2   -1    0    0    0  501 -0.00000000000E+00  0.00000000000E+00  0.60010875770E+02  0.60010875825E+02  0.25500000000E-02 0. -1.
          2   -1    0    0  501    0  0.00000000000E+00 -0.00000000000E+00 -0.33774517827E+03  0.33774517828E+03  0.25500000000E-02 0.  1.
    5000001    1    1    2    0    0 -0.74140157712E+02 -0.79692226529E+02 -0.20859900609E+03  0.24756849415E+03  0.77000000000E+02 0.  0.
   -5000001    1    1    2    0    0  0.74140157712E+02  0.79692226529E+02 -0.69135296408E+02  0.15018755995E+03  0.77000000000E+02 0.  0.
<mgrwt>
<rscale>  0 0.28473415E+03</rscale>
<asrwt>0</asrwt>
<pdfrwt beam="1">  1        2 0.51960796E-01 0.28473415E+03</pdfrwt>
<pdfrwt beam="2">  1       -2 0.92324426E-02 0.28473415E+03</pdfrwt>
<totfact> 0.72051929E+03</totfact>
</mgrwt>
</event>
<event>
 4    1  0.2489209E-004  0.3250766E+03  0.7818608E-02  0.1073336E+00
         -2   -1    0    0    0  501 -0.00000000000E+00  0.00000000000E+00  0.20410641280E+02  0.20410641439E+02  0.25500000000E-02 0. -1.
          2   -1    0    0  501    0  0.00000000000E+00 -0.00000000000E+00 -0.12943594650E+04  0.12943594650E+04  0.25500000000E-02 0.  1.
    5000001    1    1    2    0    0 -0.31052648073E+02 -0.38363741606E+02 -0.93540525377E+02  0.13082382623E+03  0.77000000000E+02 0.  0.
   -5000001    1    1    2    0    0  0.31052648073E+02  0.38363741606E+02 -0.11804082983E+04  0.11839462802E+04  0.77000000000E+02 0.  0.
<mgrwt>
<rscale>  0 0.32507665E+03</rscale>
<asrwt>0</asrwt>
<pdfrwt beam="1">  1        2 0.19913216E+00 0.32507665E+03</pdfrwt>
<pdfrwt beam="2">  1       -2 0.31400997E-02 0.32507665E+03</pdfrwt>
<totfact> 0.70125298E+03</totfact>
</mgrwt>
</event>
<event>
 4    1  0.2489209E-004  0.4009789E+03  0.7818608E-02  0.1043441E+00
         -2   -1    0    0    0  501 -0.00000000000E+00  0.00000000000E+00  0.15138661326E+02  0.15138661541E+02  0.25500000000E-02 0. -1.
          2   -1    0    0  501    0  0.00000000000E+00 -0.00000000000E+00 -0.26551896941E+04  0.26551896941E+04  0.25500000000E-02 0.  1.
    5000001    1    1    2    0    0 -0.17798991024E+03  0.50843095184E+02 -0.13116299024E+04  0.13268637569E+04  0.77000000000E+02 0.  0.
   -5000001    1    1    2    0    0  0.17798991024E+03 -0.50843095184E+02 -0.13284211303E+04  0.13434645987E+04  0.77000000000E+02 0.  0.
<mgrwt>
<rscale>  0 0.40097889E+03</rscale>
<asrwt>0</asrwt>
<pdfrwt beam="1">  1        2 0.40849035E+00 0.40097889E+03</pdfrwt>
<pdfrwt beam="2">  1       -2 0.23290269E-02 0.40097889E+03</pdfrwt>
<totfact> 0.20058321E+03</totfact>
</mgrwt>
</event>
<event>
 4    1  0.2489209E-004  0.2251331E+03  0.7818608E-02  0.1130113E+00
          2   -1    0    0  501    0  0.00000000000E+00  0.00000000000E+00  0.18133522226E+04  0.18133522226E+04  0.25500000000E-02 0.  1.
         -2   -1    0    0    0  501 -0.00000000000E+00 -0.00000000000E+00 -0.69877387170E+01  0.69877391822E+01  0.25500000000E-02 0. -1.
    5000001    1    1    2    0    0  0.57919623097E+02  0.45670601994E+02  0.61145559419E+03  0.62068303529E+03  0.77000000000E+02 0.  0.
   -5000001    1    1    2    0    0 -0.57919623097E+02 -0.45670601994E+02  0.11949088897E+04  0.11996569265E+04  0.77000000000E+02 0.  0.
<mgrwt>
<rscale>  0 0.22513313E+03</rscale>
<asrwt>0</asrwt>
<pdfrwt beam="1">  1        2 0.27897728E+00 0.22513313E+03</pdfrwt>
<pdfrwt beam="2">  1       -2 0.10750367E-02 0.22513313E+03</pdfrwt>
<totfact> 0.17746708E+04</totfact>
</mgrwt>
</event>
<event>
 4    1  0.2489209E-004  0.2041889E+03  0.7818608E-02  0.1146252E+00
         -2   -1    0    0    0  501 -0.00000000000E+00  0.00000000000E+00  0.42100175180E+01  0.42100182902E+01  0.25500000000E-02 0. -1.
          2   -1    0    0  501    0  0.00000000000E+00 -0.00000000000E+00 -0.24758267079E+04  0.24758267079E+04  0.25500000000E-02 0.  1.
    5000001    1    1    2    0    0 -0.35142038566E+02 -0.35700375448E+02 -0.69470046119E+03  0.70074760825E+03  0.77000000000E+02 0.  0.
   -5000001    1    1    2    0    0  0.35142038566E+02  0.35700375448E+02 -0.17769162292E+04  0.17792891180E+04  0.77000000000E+02 0.  0.
<mgrwt>
<rscale>  0 0.20418888E+03</rscale>
<asrwt>0</asrwt>
<pdfrwt beam="1">  1        2 0.38089525E+00 0.20418888E+03</pdfrwt>
<pdfrwt beam="2">  1       -2 0.64769704E-03 0.20418888E+03</pdfrwt>
<totfact> 0.16434050E+04</totfact>
</mgrwt>
</event>
<event>
 4    1  0.2489209E-004  0.3258741E+03  0.7818608E-02  0.1072977E+00
          2   -1    0    0  501    0  0.00000000000E+00  0.00000000000E+00  0.41630956063E+03  0.41630956064E+03  0.25500000000E-02 0.  1.
         -2   -1    0    0    0  501 -0.00000000000E+00 -0.00000000000E+00 -0.63771016717E+02  0.63771016768E+02  0.25500000000E-02 0. -1.
    5000001    1    1    2    0    0  0.71461742930E+02  0.95861481026E+02  0.59121111250E+02  0.15401464230E+03  0.77000000000E+02 0.  0.
   -5000001    1    1    2    0    0 -0.71461742930E+02 -0.95861481026E+02  0.29341743266E+03  0.32606593510E+03  0.77000000000E+02 0.  0.
<mgrwt>
<rscale>  0 0.32587411E+03</rscale>
<asrwt>0</asrwt>
<pdfrwt beam="1">  1        2 0.64047625E-01 0.32587411E+03</pdfrwt>
<pdfrwt beam="2">  1       -2 0.98109256E-02 0.32587411E+03</pdfrwt>
<totfact> 0.52331193E+03</totfact>
</mgrwt>
</event>
<event>
 4    1  0.2489209E-004  0.3052162E+03  0.7818608E-02  0.1082662E+00
          2   -1    0    0  501    0  0.00000000000E+00  0.00000000000E+00  0.25099719356E+04  0.25099719356E+04  0.25500000000E-02 0.  1.
         -2   -1    0    0    0  501 -0.00000000000E+00 -0.00000000000E+00 -0.92786818997E+01  0.92786822501E+01  0.25500000000E-02 0. -1.
    5000001    1    1    2    0    0 -0.21741681805E+02  0.12905614091E+03  0.11246138849E+04  0.11348187425E+04  0.77000000000E+02 0.  0.
   -5000001    1    1    2    0    0  0.21741681805E+02 -0.12905614091E+03  0.13760793689E+04  0.13844318754E+04  0.77000000000E+02 0.  0.
<mgrwt>
<rscale>  0 0.30521620E+03</rscale>
<asrwt>0</asrwt>
<pdfrwt beam="1">  1        2 0.38614968E+00 0.30521620E+03</pdfrwt>
<pdfrwt beam="2">  1       -2 0.14274890E-02 0.30521620E+03</pdfrwt>
<totfact> 0.50199328E+03</totfact>
</mgrwt>
</event>
<event>
 4    1  0.2489209E-004  0.4324851E+03  0.7818608E-02  0.1033078E+00
         -2   -1    0    0    0  501 -0.00000000000E+00  0.00000000000E+00  0.15814812639E+03  0.15814812641E+03  0.25500000000E-02 0. -1.
          2   -1    0    0  501    0  0.00000000000E+00 -0.00000000000E+00 -0.29567744066E+03  0.29567744067E+03  0.25500000000E-02 0.  1.
    5000001    1    1    2    0    0 -0.61320144227E+02 -0.15040207594E+03 -0.19490822807E+03  0.26513989120E+03  0.77000000000E+02 0.  0.
   -5000001    1    1    2    0    0  0.61320144227E+02  0.15040207594E+03  0.57378913799E+02  0.18868567589E+03  0.77000000000E+02 0.  0.
<mgrwt>
<rscale>  0 0.43248507E+03</rscale>
<asrwt>0</asrwt>
<pdfrwt beam="1">  1        2 0.45488837E-01 0.43248507E+03</pdfrwt>
<pdfrwt beam="2">  1       -2 0.24330481E-01 0.43248507E+03</pdfrwt>
<totfact> 0.16686820E+03</totfact>
</mgrwt>
</event>
<event>
 4    1  0.2489209E-004  0.4529520E+03  0.7818608E-02  0.1026845E+00
          2   -1    0    0  501    0  0.00000000000E+00  0.00000000000E+00  0.26276968467E+04  0.26276968467E+04  0.25500000000E-02 0.  1.
         -2   -1    0    0    0  501 -0.00000000000E+00 -0.00000000000E+00 -0.19519515865E+02  0.19519516031E+02  0.25500000000E-02 0. -1.
    5000001    1    1    2    0    0 -0.21875090826E+02  0.11358003866E+03  0.23492895789E+04  0.23533953068E+04  0.77000000000E+02 0.  0.
   -5000001    1    1    2    0    0  0.21875090826E+02 -0.11358003866E+03  0.25888775197E+03  0.29382105592E+03  0.77000000000E+02 0.  0.
<mgrwt>
<rscale>  0 0.45295196E+03</rscale>
<asrwt>0</asrwt>
<pdfrwt beam="1">  1        2 0.40426104E+00 0.45295196E+03</pdfrwt>
<pdfrwt beam="2">  1       -2 0.30030025E-02 0.45295196E+03</pdfrwt>
<totfact> 0.14131056E+03</totfact>
</mgrwt>
</event>
<event>
 4    1  0.2489209E-004  0.2055477E+03  0.7818608E-02  0.1145141E+00
          2   -1    0    0  501    0  0.00000000000E+00  0.00000000000E+00  0.65477091667E+02  0.65477091717E+02  0.25500000000E-02 0.  1.
         -2   -1    0    0    0  501 -0.00000000000E+00 -0.00000000000E+00 -0.16131537912E+03  0.16131537914E+03  0.25500000000E-02 0. -1.
    5000001    1    1    2    0    0 -0.45058851887E+02  0.13911990350E+02 -0.10208058129E+03  0.13628385336E+03  0.77000000000E+02 0.  0.
   -5000001    1    1    2    0    0  0.45058851887E+02 -0.13911990350E+02  0.62422938427E+01  0.90508617497E+02  0.77000000000E+02 0.  0.
<mgrwt>
<rscale>  0 0.20554768E+03</rscale>
<asrwt>0</asrwt>
<pdfrwt beam="1">  1        2 0.10073399E-01 0.20554768E+03</pdfrwt>
<pdfrwt beam="2">  1       -2 0.24817751E-01 0.20554768E+03</pdfrwt>
<totfact> 0.88831688E+03</totfact>
</mgrwt>
</event>
<event>
 4    1  0.2489209E-004  0.2491774E+03  0.7818608E-02  0.1113826E+00
          2   -1    0    0  501    0  0.00000000000E+00  0.00000000000E+00  0.85738950473E+03  0.85738950473E+03  0.25500000000E-02 0.  1.
         -2   -1    0    0    0  501 -0.00000000000E+00 -0.00000000000E+00 -0.18104196983E+02  0.18104197163E+02  0.25500000000E-02 0. -1.
    5000001    1    1    2    0    0 -0.58868354905E+02  0.71057682736E+02  0.30424716475E+03  0.32712385230E+03  0.77000000000E+02 0.  0.
   -5000001    1    1    2    0    0  0.58868354905E+02 -0.71057682736E+02  0.53503814300E+03  0.54836984960E+03  0.77000000000E+02 0.  0.
<mgrwt>
<rscale>  0 0.24917744E+03</rscale>
<asrwt>0</asrwt>
<pdfrwt beam="1">  1        2 0.13190606E+00 0.24917744E+03</pdfrwt>
<pdfrwt beam="2">  1       -2 0.27852614E-02 0.24917744E+03</pdfrwt>
<totfact> 0.15207566E+04</totfact>
</mgrwt>
</event>
<event>
 4    1  0.2489209E-004  0.4205747E+03  0.7818608E-02  0.1036879E+00
         -2   -1    0    0    0  501 -0.00000000000E+00  0.00000000000E+00  0.36380992004E+02  0.36380992094E+02  0.25500000000E-02 0. -1.
          2   -1    0    0  501    0  0.00000000000E+00 -0.00000000000E+00 -0.12154908346E+04  0.12154908346E+04  0.25500000000E-02 0.  1.
    5000001    1    1    2    0    0 -0.12228813121E+03 -0.15062775002E+03 -0.66536449791E+03  0.69733924398E+03  0.77000000000E+02 0.  0.
   -5000001    1    1    2    0    0  0.12228813121E+03  0.15062775002E+03 -0.51374534467E+03  0.55453258271E+03  0.77000000000E+02 0.  0.
<mgrwt>
<rscale>  0 0.42057467E+03</rscale>
<asrwt>0</asrwt>
<pdfrwt beam="1">  1        2 0.18699856E+00 0.42057467E+03</pdfrwt>
<pdfrwt beam="2">  1       -2 0.55970766E-02 0.42057467E+03</pdfrwt>
<totfact> 0.32325621E+03</totfact>
</mgrwt>
</event>
<event>
 4    1  0.2489209E-004  0.2485367E+03  0.7818608E-02  0.1114233E+00
          2   -1    0    0  501    0  0.00000000000E+00  0.00000000000E+00  0.46609584700E+03  0.46609584701E+03  0.25500000000E-02 0.  1.
         -2   -1    0    0    0  501 -0.00000000000E+00 -0.00000000000E+00 -0.33131857815E+02  0.33131857913E+02  0.25500000000E-02 0. -1.
    5000001    1    1    2    0    0 -0.73135016221E+02 -0.62196838955E+02  0.18189765460E+03  0.21961997660E+03  0.77000000000E+02 0.  0.
   -5000001    1    1    2    0    0  0.73135016221E+02  0.62196838955E+02  0.25106633459E+03  0.27960772832E+03  0.77000000000E+02 0.  0.
<mgrwt>
<rscale>  0 0.24853669E+03</rscale>
<asrwt>0</asrwt>
<pdfrwt beam="1">  1        2 0.71707052E-01 0.24853669E+03</pdfrwt>
<pdfrwt beam="2">  1       -2 0.50972090E-02 0.24853669E+03</pdfrwt>
<totfact> 0.12650717E+04</totfact>
</mgrwt>
</event>
<event>
 4    1  0.2489209E-004  0.2401687E+03  0.7818608E-02  0.1119680E+00
         -2   -1    0    0    0  501 -0.00000000000E+00  0.00000000000E+00  0.11162426592E+02  0.11162426883E+02  0.25500000000E-02 0. -1.
          2   -1    0    0  501    0  0.00000000000E+00 -0.00000000000E+00 -0.12918561456E+04  0.12918561456E+04  0.25500000000E-02 0.  1.
    5000001    1    1    2    0    0  0.35858902801E+02 -0.81995784749E+02 -0.75946934857E+03  0.76859082810E+03  0.77000000000E+02 0.  0.
   -5000001    1    1    2    0    0 -0.35858902801E+02  0.81995784749E+02 -0.52122437040E+03  0.53442774435E+03  0.77000000000E+02 0.  0.
<mgrwt>
<rscale>  0 0.24016869E+03</rscale>
<asrwt>0</asrwt>
<pdfrwt beam="1">  1        2 0.19874698E+00 0.24016869E+03</pdfrwt>
<pdfrwt beam="2">  1       -2 0.17172974E-02 0.24016869E+03</pdfrwt>
<totfact> 0.17039968E+04</totfact>
</mgrwt>
</event>
<event>
 4    1  0.2489209E-004  0.2760280E+03  0.7818608E-02  0.1097878E+00
         -2   -1    0    0    0  501 -0.00000000000E+00  0.00000000000E+00  0.16761299850E+02  0.16761300044E+02  0.25500000000E-02 0. -1.
          2   -1    0    0  501    0  0.00000000000E+00 -0.00000000000E+00 -0.11364194142E+04  0.11364194143E+04  0.25500000000E-02 0.  1.
    5000001    1    1    2    0    0 -0.53030893269E+01  0.10836271558E+03 -0.40642672549E+03  0.42764738287E+03  0.77000000000E+02 0.  0.
   -5000001    1    1    2    0    0  0.53030893269E+01 -0.10836271558E+03 -0.71323138891E+03  0.72553333142E+03  0.77000000000E+02 0.  0.
<mgrwt>
<rscale>  0 0.27602802E+03</rscale>
<asrwt>0</asrwt>
<pdfrwt beam="1">  1        2 0.17483370E+00 0.27602802E+03</pdfrwt>
<pdfrwt beam="2">  1       -2 0.25786624E-02 0.27602802E+03</pdfrwt>
<totfact> 0.11523603E+04</totfact>
</mgrwt>
</event>
<event>
 4    1  0.2489209E-004  0.2792647E+03  0.7818608E-02  0.1096091E+00
         -2   -1    0    0    0  501 -0.00000000000E+00  0.00000000000E+00  0.10288409724E+02  0.10288410040E+02  0.25500000000E-02 0. -1.
          2   -1    0    0  501    0  0.00000000000E+00 -0.00000000000E+00 -0.18950635240E+04  0.18950635240E+04  0.25500000000E-02 0.  1.
    5000001    1    1    2    0    0 -0.85057895313E+02  0.34992275842E+02 -0.14300533277E+04  0.14350751983E+04  0.77000000000E+02 0.  0.
   -5000001    1    1    2    0    0  0.85057895313E+02 -0.34992275842E+02 -0.45472178661E+03  0.47027673570E+03  0.77000000000E+02 0.  0.
<mgrwt>
<rscale>  0 0.27926468E+03</rscale>
<asrwt>0</asrwt>
<pdfrwt beam="1">  1        2 0.29154796E+00 0.27926468E+03</pdfrwt>
<pdfrwt beam="2">  1       -2 0.15828338E-02 0.27926468E+03</pdfrwt>
<totfact> 0.92008361E+03</totfact>
</mgrwt>
</event>
<event>
 4    1  0.2489209E-004  0.1975770E+03  0.7818608E-02  0.1151800E+00
         -2   -1    0    0    0  501 -0.00000000000E+00  0.00000000000E+00  0.70828688913E+01  0.70828693503E+01  0.25500000000E-02 0. -1.
          2   -1    0    0  501    0  0.00000000000E+00 -0.00000000000E+00 -0.13778556159E+04  0.13778556159E+04  0.25500000000E-02 0.  1.
    5000001    1    1    2    0    0  0.55978687950E+02 -0.24065309051E+02 -0.60943037247E+03  0.61729015178E+03  0.77000000000E+02 0.  0.
   -5000001    1    1    2    0    0 -0.55978687950E+02  0.24065309051E+02 -0.76134237455E+03  0.76764833348E+03  0.77000000000E+02 0.  0.
<mgrwt>
<rscale>  0 0.19757703E+03</rscale>
<asrwt>0</asrwt>
<pdfrwt beam="1">  1        2 0.21197757E+00 0.19757703E+03</pdfrwt>
<pdfrwt beam="2">  1       -2 0.10896733E-02 0.19757703E+03</pdfrwt>
<totfact> 0.29335042E+04</totfact>
</mgrwt>
</event>
<event>
 4    1  0.2489209E-004  0.1999141E+03  0.7818608E-02  0.1149812E+00
         -2   -1    0    0    0  501 -0.00000000000E+00  0.00000000000E+00  0.33708721248E+03  0.33708721248E+03  0.25500000000E-02 0. -1.
          2   -1    0    0  501    0  0.00000000000E+00 -0.00000000000E+00 -0.29640425276E+02  0.29640425386E+02  0.25500000000E-02 0.  1.
    5000001    1    1    2    0    0  0.62183872819E+02 -0.13984732360E+02  0.15365054938E+03  0.18330274985E+03  0.77000000000E+02 0.  0.
   -5000001    1    1    2    0    0 -0.62183872819E+02  0.13984732360E+02  0.15379623782E+03  0.18342488802E+03  0.77000000000E+02 0.  0.
<mgrwt>
<rscale>  0 0.19991407E+03</rscale>
<asrwt>0</asrwt>
<pdfrwt beam="1">  1        2 0.45600651E-02 0.19991407E+03</pdfrwt>
<pdfrwt beam="2">  1       -2 0.51859575E-01 0.19991407E+03</pdfrwt>
<totfact> 0.61787137E+03</totfact>
</mgrwt>
</event>
<event>
 4    1  0.2489209E-004  0.2278924E+03  0.7818608E-02  0.1128132E+00
          2   -1    0    0  501    0  0.00000000000E+00  0.00000000000E+00  0.98963533604E+03  0.98963533605E+03  0.25500000000E-02 0.  1.
         -2   -1    0    0    0  501 -0.00000000000E+00 -0.00000000000E+00 -0.13119712162E+02  0.13119712410E+02  0.25500000000E-02 0. -1.
    5000001    1    1    2    0    0  0.19631913592E+02 -0.64422483915E+02  0.70910128737E+03  0.71644211505E+03  0.77000000000E+02 0.  0.
   -5000001    1    1    2    0    0 -0.19631913592E+02  0.64422483915E+02  0.26741433651E+03  0.28631293341E+03  0.77000000000E+02 0.  0.
<mgrwt>
<rscale>  0 0.22789235E+03</rscale>
<asrwt>0</asrwt>
<pdfrwt beam="1">  1        2 0.15225165E+00 0.22789235E+03</pdfrwt>
<pdfrwt beam="2">  1       -2 0.20184165E-02 0.22789235E+03</pdfrwt>
<totfact> 0.20060885E+04</totfact>
</mgrwt>
</event>
<event>
 4    1  0.2489209E-004  0.2312553E+03  0.7818608E-02  0.1125759E+00
         -2   -1    0    0    0  501 -0.00000000000E+00  0.00000000000E+00  0.10513297420E+02  0.10513297729E+02  0.25500000000E-02 0. -1.
          2   -1    0    0  501    0  0.00000000000E+00 -0.00000000000E+00 -0.12716995370E+04  0.12716995370E+04  0.25500000000E-02 0.  1.
    5000001    1    1    2    0    0 -0.72747941397E+02  0.32096473152E+02 -0.44517621909E+03  0.45873010868E+03  0.77000000000E+02 0.  0.
   -5000001    1    1    2    0    0  0.72747941397E+02 -0.32096473152E+02 -0.81601002047E+03  0.82348272603E+03  0.77000000000E+02 0.  0.
<mgrwt>
<rscale>  0 0.23125532E+03</rscale>
<asrwt>0</asrwt>
<pdfrwt beam="1">  1        2 0.19564596E+00 0.23125532E+03</pdfrwt>
<pdfrwt beam="2">  1       -2 0.16174314E-02 0.23125532E+03</pdfrwt>
<totfact> 0.19052017E+04</totfact>
</mgrwt>
</event>
<event>
 4    1  0.2489209E-004  0.2708823E+03  0.7818608E-02  0.1100776E+00
         -2   -1    0    0    0  501 -0.00000000000E+00  0.00000000000E+00  0.22556932582E+02  0.22556932726E+02  0.25500000000E-02 0. -1.
          2   -1    0    0  501    0  0.00000000000E+00 -0.00000000000E+00 -0.81324467355E+03  0.81324467355E+03  0.25500000000E-02 0.  1.
    5000001    1    1    2    0    0 -0.76376784103E+02 -0.37684469014E+02 -0.61702157749E+03  0.62761306507E+03  0.77000000000E+02 0.  0.
   -5000001    1    1    2    0    0  0.76376784103E+02  0.37684469014E+02 -0.17366616347E+03  0.20818854121E+03  0.77000000000E+02 0.  0.
<mgrwt>
<rscale>  0 0.27088230E+03</rscale>
<asrwt>0</asrwt>
<pdfrwt beam="1">  1        2 0.12511454E+00 0.27088230E+03</pdfrwt>
<pdfrwt beam="2">  1       -2 0.34702980E-02 0.27088230E+03</pdfrwt>
<totfact> 0.11776888E+04</totfact>
</mgrwt>
</event>
<event>
 4    1  0.2489209E-004  0.2480213E+03  0.7818608E-02  0.1114562E+00
         -2   -1    0    0    0  501 -0.00000000000E+00  0.00000000000E+00  0.10761669441E+02  0.10761669743E+02  0.25500000000E-02 0. -1.
          2   -1    0    0  501    0  0.00000000000E+00 -0.00000000000E+00 -0.14290194614E+04  0.14290194614E+04  0.25500000000E-02 0.  1.
    5000001    1    1    2    0    0 -0.59437176172E+02 -0.76845365001E+02 -0.72894048699E+03  0.73940599240E+03  0.77000000000E+02 0.  0.
   -5000001    1    1    2    0    0  0.59437176172E+02  0.76845365001E+02 -0.68931730497E+03  0.70037513874E+03  0.77000000000E+02 0.  0.
<mgrwt>
<rscale>  0 0.24802125E+03</rscale>
<asrwt>0</asrwt>
<pdfrwt beam="1">  1        2 0.21984900E+00 0.24802125E+03</pdfrwt>
<pdfrwt beam="2">  1       -2 0.16556426E-02 0.24802125E+03</pdfrwt>
<totfact> 0.15151259E+04</totfact>
</mgrwt>
</event>
<event>
 4    1  0.2489209E-004  0.2271406E+03  0.7818608E-02  0.1128669E+00
          2   -1    0    0  501    0  0.00000000000E+00  0.00000000000E+00  0.11331666854E+02  0.11331667141E+02  0.25500000000E-02 0.  1.
         -2   -1    0    0    0  501 -0.00000000000E+00 -0.00000000000E+00 -0.11382451290E+04  0.11382451290E+04  0.25500000000E-02 0. -1.
    5000001    1    1    2    0    0  0.38662737453E+01 -0.49777895447E+02 -0.90207390779E+03  0.90672990579E+03  0.77000000000E+02 0.  0.
   -5000001    1    1    2    0    0 -0.38662737453E+01  0.49777895447E+02 -0.22483955433E+03  0.24284689032E+03  0.77000000000E+02 0.  0.
<mgrwt>
<rscale>  0 0.22714062E+03</rscale>
<asrwt>0</asrwt>
<pdfrwt beam="1">  1        2 0.17433343E-02 0.22714062E+03</pdfrwt>
<pdfrwt beam="2">  1       -2 0.17511454E+00 0.22714062E+03</pdfrwt>
<totfact> 0.13806266E+03</totfact>
</mgrwt>
</event>
<event>
 4    1  0.2489209E-004  0.2605596E+03  0.7818608E-02  0.1106807E+00
          2   -1    0    0  501    0  0.00000000000E+00  0.00000000000E+00  0.63431434061E+03  0.63431434061E+03  0.25500000000E-02 0.  1.
         -2   -1    0    0    0  501 -0.00000000000E+00 -0.00000000000E+00 -0.26757761154E+02  0.26757761275E+02  0.25500000000E-02 0. -1.
    5000001    1    1    2    0    0  0.69047727474E+02 -0.56316850354E+02  0.44514540009E+03  0.46045912253E+03  0.77000000000E+02 0.  0.
   -5000001    1    1    2    0    0 -0.69047727474E+02  0.56316850354E+02  0.16241117937E+03  0.20061297936E+03  0.77000000000E+02 0.  0.
<mgrwt>
<rscale>  0 0.26055964E+03</rscale>
<asrwt>0</asrwt>
<pdfrwt beam="1">  1        2 0.97586819E-01 0.26055964E+03</pdfrwt>
<pdfrwt beam="2">  1       -2 0.41165788E-02 0.26055964E+03</pdfrwt>
<totfact> 0.12338786E+04</totfact>
</mgrwt>
</event>
<event>
 4    1  0.2489209E-004  0.5077879E+03  0.7818608E-02  0.1011766E+00
         -2   -1    0    0    0  501 -0.00000000000E+00  0.00000000000E+00  0.20415415736E+03  0.20415415738E+03  0.25500000000E-02 0. -1.
          2   -1    0    0  501    0  0.00000000000E+00 -0.00000000000E+00 -0.31575230746E+03  0.31575230747E+03  0.25500000000E-02 0.  1.
    5000001    1    1    2    0    0  0.18869316334E+03 -0.92941305347E+02  0.66594380990E+02  0.23368142355E+03  0.77000000000E+02 0.  0.
   -5000001    1    1    2    0    0 -0.18869316334E+03  0.92941305347E+02 -0.17819253109E+03  0.28622504130E+03  0.77000000000E+02 0.  0.
<mgrwt>
<rscale>  0 0.50778793E+03</rscale>
<asrwt>0</asrwt>
<pdfrwt beam="1">  1        2 0.48577278E-01 0.50778793E+03</pdfrwt>
<pdfrwt beam="2">  1       -2 0.31408332E-01 0.50778793E+03</pdfrwt>
<totfact> 0.97738870E+02</totfact>
</mgrwt>
</event>
<event>
 4    1  0.2489209E-004  0.2043452E+03  0.7818608E-02  0.1146124E+00
         -2   -1    0    0    0  501 -0.00000000000E+00  0.00000000000E+00  0.40192595527E+03  0.40192595527E+03  0.25500000000E-02 0. -1.
          2   -1    0    0  501    0  0.00000000000E+00 -0.00000000000E+00 -0.25973032089E+02  0.25973032214E+02  0.25500000000E-02 0.  1.
    5000001    1    1    2    0    0 -0.65133813399E+02  0.68389740233E+01  0.15684333708E+03  0.18659586705E+03  0.77000000000E+02 0.  0.
   -5000001    1    1    2    0    0  0.65133813399E+02 -0.68389740233E+01  0.21910958610E+03  0.24130312044E+03  0.77000000000E+02 0.  0.
<mgrwt>
<rscale>  0 0.20434516E+03</rscale>
<asrwt>0</asrwt>
<pdfrwt beam="1">  1        2 0.39958511E-02 0.20434516E+03</pdfrwt>
<pdfrwt beam="2">  1       -2 0.61834762E-01 0.20434516E+03</pdfrwt>
<totfact> 0.51512126E+03</totfact>
</mgrwt>
</event>
<event>
 4    1  0.2489209E-004  0.2139572E+03  0.7818608E-02  0.1138470E+00
         -2   -1    0    0    0  501 -0.00000000000E+00  0.00000000000E+00  0.10507226117E+02  0.10507226426E+02  0.25500000000E-02 0. -1.
          2   -1    0    0  501    0  0.00000000000E+00 -0.00000000000E+00 -0.10891954816E+04  0.10891954816E+04  0.25500000000E-02 0.  1.
    5000001    1    1    2    0    0  0.12812184187E+02 -0.65136756699E+02 -0.36822004060E+03  0.38199731339E+03  0.77000000000E+02 0.  0.
   -5000001    1    1    2    0    0 -0.12812184187E+02  0.65136756699E+02 -0.71046821489E+03  0.71770539465E+03  0.77000000000E+02 0.  0.
<mgrwt>
<rscale>  0 0.21395722E+03</rscale>
<asrwt>0</asrwt>
<pdfrwt beam="1">  1        2 0.16756845E+00 0.21395722E+03</pdfrwt>
<pdfrwt beam="2">  1       -2 0.16164972E-02 0.21395722E+03</pdfrwt>
<totfact> 0.24114973E+04</totfact>
</mgrwt>
</event>
<event>
 4    1  0.2489209E-004  0.2597309E+03  0.7818608E-02  0.1107305E+00
         -2   -1    0    0    0  501 -0.00000000000E+00  0.00000000000E+00  0.60784581768E+02  0.60784581822E+02  0.25500000000E-02 0. -1.
          2   -1    0    0  501    0  0.00000000000E+00 -0.00000000000E+00 -0.27745572397E+03  0.27745572398E+03  0.25500000000E-02 0.  1.
    5000001    1    1    2    0    0  0.10128764845E+03 -0.21376094005E+02 -0.89023921090E+02  0.15674942950E+03  0.77000000000E+02 0.  0.
   -5000001    1    1    2    0    0 -0.10128764845E+03  0.21376094005E+02 -0.12764722111E+03  0.18149087630E+03  0.77000000000E+02 0.  0.
<mgrwt>
<rscale>  0 0.25973086E+03</rscale>
<asrwt>0</asrwt>
<pdfrwt beam="1">  1        2 0.42685495E-01 0.25973086E+03</pdfrwt>
<pdfrwt beam="2">  1       -2 0.93514743E-02 0.25973086E+03</pdfrwt>
<totfact> 0.86928648E+03</totfact>
</mgrwt>
</event>
<event>
 4    1  0.2489209E-004  0.1752722E+03  0.7818608E-02  0.1172459E+00
         -2   -1    0    0    0  501 -0.00000000000E+00  0.00000000000E+00  0.11305846433E+03  0.11305846436E+03  0.25500000000E-02 0. -1.
          2   -1    0    0  501    0  0.00000000000E+00 -0.00000000000E+00 -0.67930203247E+02  0.67930203295E+02  0.25500000000E-02 0.  1.
    5000001    1    1    2    0    0 -0.36025982017E+02 -0.67163716686E+01  0.43424573032E+02  0.95695739569E+02  0.77000000000E+02 0.  0.
   -5000001    1    1    2    0    0  0.36025982017E+02  0.67163716686E+01  0.17036880542E+01  0.85292928087E+02  0.77000000000E+02 0.  0.
<mgrwt>
<rscale>  0 0.17527218E+03</rscale>
<asrwt>0</asrwt>
<pdfrwt beam="1">  1        2 0.10450801E-01 0.17527218E+03</pdfrwt>
<pdfrwt beam="2">  1       -2 0.17393610E-01 0.17527218E+03</pdfrwt>
<totfact> 0.15415534E+04</totfact>
</mgrwt>
</event>
<event>
 4    1  0.2489209E-004  0.2684149E+03  0.7818608E-02  0.1102190E+00
         -2   -1    0    0    0  501 -0.00000000000E+00  0.00000000000E+00  0.21562286541E+02  0.21562286691E+02  0.25500000000E-02 0. -1.
          2   -1    0    0  501    0  0.00000000000E+00 -0.00000000000E+00 -0.83533098741E+03  0.83533098742E+03  0.25500000000E-02 0.  1.
    5000001    1    1    2    0    0  0.43679532515E+00  0.10964842264E+03 -0.43154645064E+03  0.45186757622E+03  0.77000000000E+02 0.  0.
   -5000001    1    1    2    0    0 -0.43679532515E+00 -0.10964842264E+03 -0.38222225023E+03  0.40502569789E+03  0.77000000000E+02 0.  0.
<mgrwt>
<rscale>  0 0.26841495E+03</rscale>
<asrwt>0</asrwt>
<pdfrwt beam="1">  1        2 0.12851243E+00 0.26841495E+03</pdfrwt>
<pdfrwt beam="2">  1       -2 0.33172755E-02 0.26841495E+03</pdfrwt>
<totfact> 0.12166486E+04</totfact>
</mgrwt>
</event>
<event>
 4    1  0.2489209E-004  0.3109236E+03  0.7818608E-02  0.1079904E+00
         -2   -1    0    0    0  501 -0.00000000000E+00  0.00000000000E+00  0.30390476218E+02  0.30390476325E+02  0.25500000000E-02 0. -1.
          2   -1    0    0  501    0  0.00000000000E+00 -0.00000000000E+00 -0.79526124276E+03  0.79526124277E+03  0.25500000000E-02 0.  1.
    5000001    1    1    2    0    0  0.13438393933E+03 -0.12777869859E+02 -0.37147019991E+03  0.40266788614E+03  0.77000000000E+02 0.  0.
   -5000001    1    1    2    0    0 -0.13438393933E+03  0.12777869859E+02 -0.39340056664E+03  0.42298383295E+03  0.77000000000E+02 0.  0.
<mgrwt>
<rscale>  0 0.31092358E+03</rscale>
<asrwt>0</asrwt>
<pdfrwt beam="1">  1        2 0.12234787E+00 0.31092358E+03</pdfrwt>
<pdfrwt beam="2">  1       -2 0.46754585E-02 0.31092358E+03</pdfrwt>
<totfact> 0.77650517E+03</totfact>
</mgrwt>
</event>
<event>
 4    1  0.2489209E-004  0.2152433E+03  0.7818608E-02  0.1137480E+00
         -2   -1    0    0    0  501 -0.00000000000E+00  0.00000000000E+00  0.50313872781E+02  0.50313872845E+02  0.25500000000E-02 0. -1.
          2   -1    0    0  501    0  0.00000000000E+00 -0.00000000000E+00 -0.23020336287E+03  0.23020336288E+03  0.25500000000E-02 0.  1.
    5000001    1    1    2    0    0 -0.25962112929E+01 -0.41069018675E+02 -0.17195694005E+03  0.19285122203E+03  0.77000000000E+02 0.  0.
   -5000001    1    1    2    0    0  0.25962112929E+01  0.41069018675E+02 -0.79325500435E+01  0.87666013701E+02  0.77000000000E+02 0.  0.
<mgrwt>
<rscale>  0 0.21524333E+03</rscale>
<asrwt>0</asrwt>
<pdfrwt beam="1">  1        2 0.35415901E-01 0.21524333E+03</pdfrwt>
<pdfrwt beam="2">  1       -2 0.77405960E-02 0.21524333E+03</pdfrwt>
<totfact> 0.14148410E+04</totfact>
</mgrwt>
</event>
<event>
 4    1  0.2489209E-004  0.2137812E+03  0.7818608E-02  0.1138606E+00
         -2   -1    0    0    0  501 -0.00000000000E+00  0.00000000000E+00  0.92302787580E+01  0.92302791103E+01  0.25500000000E-02 0. -1.
          2   -1    0    0  501    0  0.00000000000E+00 -0.00000000000E+00 -0.12378388401E+04  0.12378388401E+04  0.25500000000E-02 0.  1.
    5000001    1    1    2    0    0 -0.74038462321E+02 -0.25968359129E+01 -0.63096809774E+03  0.63995169960E+03  0.77000000000E+02 0.  0.
   -5000001    1    1    2    0    0  0.74038462321E+02  0.25968359129E+01 -0.59764046364E+03  0.60711741965E+03  0.77000000000E+02 0.  0.
<mgrwt>
<rscale>  0 0.21378118E+03</rscale>
<asrwt>0</asrwt>
<pdfrwt beam="1">  1        2 0.19043661E+00 0.21378118E+03</pdfrwt>
<pdfrwt beam="2">  1       -2 0.14200439E-02 0.21378118E+03</pdfrwt>
<totfact> 0.23954995E+04</totfact>
</mgrwt>
</event>
<event>
 4    1  0.2489209E-004  0.1707683E+03  0.7818608E-02  0.1177049E+00
          2   -1    0    0  501    0  0.00000000000E+00  0.00000000000E+00  0.17896283008E+03  0.17896283010E+03  0.25500000000E-02 0.  1.
         -2   -1    0    0    0  501 -0.00000000000E+00 -0.00000000000E+00 -0.40737238629E+02  0.40737238708E+02  0.25500000000E-02 0. -1.
    5000001    1    1    2    0    0  0.21902452231E+02 -0.12782761878E+02  0.34631265480E+02  0.88155776689E+02  0.77000000000E+02 0.  0.
   -5000001    1    1    2    0    0 -0.21902452231E+02  0.12782761878E+02  0.10359432597E+03  0.13154429212E+03  0.77000000000E+02 0.  0.
<mgrwt>
<rscale>  0 0.17076828E+03</rscale>
<asrwt>0</asrwt>
<pdfrwt beam="1">  1        2 0.27532743E-01 0.17076828E+03</pdfrwt>
<pdfrwt beam="2">  1       -2 0.62672676E-02 0.17076828E+03</pdfrwt>
<totfact> 0.25298756E+04</totfact>
</mgrwt>
</event>
<event>
 4    1  0.2489209E-004  0.1751889E+03  0.7818608E-02  0.1172542E+00
         -2   -1    0    0    0  501 -0.00000000000E+00  0.00000000000E+00  0.42646717425E+01  0.42646725049E+01  0.25500000000E-02 0. -1.
          2   -1    0    0  501    0  0.00000000000E+00 -0.00000000000E+00 -0.17991515047E+04  0.17991515047E+04  0.25500000000E-02 0.  1.
    5000001    1    1    2    0    0  0.35054620371E+02 -0.21599851077E+02 -0.96906808540E+03  0.97299400518E+03  0.77000000000E+02 0.  0.
   -5000001    1    1    2    0    0 -0.35054620371E+02  0.21599851077E+02 -0.82581874757E+03  0.83042217204E+03  0.77000000000E+02 0.  0.
<mgrwt>
<rscale>  0 0.17518894E+03</rscale>
<asrwt>0</asrwt>
<pdfrwt beam="1">  1        2 0.27679193E+00 0.17518894E+03</pdfrwt>
<pdfrwt beam="2">  1       -2 0.65610484E-03 0.17518894E+03</pdfrwt>
<totfact> 0.36293877E+04</totfact>
</mgrwt>
</event>
<event>
 4    1  0.2489209E-004  0.2532207E+03  0.7818608E-02  0.1111286E+00
          2   -1    0    0  501    0  0.00000000000E+00  0.00000000000E+00  0.57340609748E+02  0.57340609805E+02  0.25500000000E-02 0.  1.
         -2   -1    0    0    0  501 -0.00000000000E+00 -0.00000000000E+00 -0.27956062042E+03  0.27956062043E+03  0.25500000000E-02 0. -1.
    5000001    1    1    2    0    0 -0.38615715801E+02 -0.90511010821E+02 -0.83916399079E+02  0.15051371572E+03  0.77000000000E+02 0.  0.
   -5000001    1    1    2    0    0  0.38615715801E+02  0.90511010821E+02 -0.13830361160E+03  0.18638751451E+03  0.77000000000E+02 0.  0.
<mgrwt>
<rscale>  0 0.25322067E+03</rscale>
<asrwt>0</asrwt>
<pdfrwt beam="1">  1        2 0.88216324E-02 0.25322067E+03</pdfrwt>
<pdfrwt beam="2">  1       -2 0.43009325E-01 0.25322067E+03</pdfrwt>
<totfact> 0.38506459E+03</totfact>
</mgrwt>
</event>
<event>
 4    1  0.2489209E-004  0.2499192E+03  0.7818608E-02  0.1113356E+00
         -2   -1    0    0    0  501 -0.00000000000E+00  0.00000000000E+00  0.87189478378E+01  0.87189482107E+01  0.25500000000E-02 0. -1.
          2   -1    0    0  501    0  0.00000000000E+00 -0.00000000000E+00 -0.17909163027E+04  0.17909163027E+04  0.25500000000E-02 0.  1.
    5000001    1    1    2    0    0 -0.97666320375E+02  0.84384447417E+01 -0.95386970636E+03  0.96198042298E+03  0.77000000000E+02 0.  0.
   -5000001    1    1    2    0    0  0.97666320375E+02 -0.84384447417E+01 -0.82832764848E+03  0.83765482791E+03  0.77000000000E+02 0.  0.
<mgrwt>
<rscale>  0 0.24991924E+03</rscale>
<asrwt>0</asrwt>
<pdfrwt beam="1">  1        2 0.27552529E+00 0.24991924E+03</pdfrwt>
<pdfrwt beam="2">  1       -2 0.13413780E-02 0.24991924E+03</pdfrwt>
<totfact> 0.13261078E+04</totfact>
</mgrwt>
</event>
<event>
 4    1  0.2489209E-004  0.3215714E+03  0.7818608E-02  0.1074928E+00
         -2   -1    0    0    0  501 -0.00000000000E+00  0.00000000000E+00  0.27282531039E+02  0.27282531158E+02  0.25500000000E-02 0. -1.
          2   -1    0    0  501    0  0.00000000000E+00 -0.00000000000E+00 -0.94756774504E+03  0.94756774505E+03  0.25500000000E-02 0.  1.
    5000001    1    1    2    0    0  0.58444304461E+02 -0.11256320133E+03 -0.64792161777E+03  0.66469363904E+03  0.77000000000E+02 0.  0.
   -5000001    1    1    2    0    0 -0.58444304461E+02  0.11256320133E+03 -0.27236359624E+03  0.31015663716E+03  0.77000000000E+02 0.  0.
<mgrwt>
<rscale>  0 0.32157143E+03</rscale>
<asrwt>0</asrwt>
<pdfrwt beam="1">  1        2 0.14577963E+00 0.32157143E+03</pdfrwt>
<pdfrwt beam="2">  1       -2 0.41973132E-02 0.32157143E+03</pdfrwt>
<totfact> 0.72548768E+03</totfact>
</mgrwt>
</event>
<event>
 4    1  0.2489209E-004  0.2948321E+03  0.7818608E-02  0.1087853E+00
         -2   -1    0    0    0  501 -0.00000000000E+00  0.00000000000E+00  0.76454360514E+02  0.76454360557E+02  0.25500000000E-02 0. -1.
          2   -1    0    0  501    0  0.00000000000E+00 -0.00000000000E+00 -0.28424138712E+03  0.28424138713E+03  0.25500000000E-02 0.  1.
    5000001    1    1    2    0    0 -0.21749639564E+02  0.93293855164E+02 -0.20347583112E+03  0.23771454328E+03  0.77000000000E+02 0.  0.
   -5000001    1    1    2    0    0  0.21749639564E+02 -0.93293855164E+02 -0.43111954814E+01  0.12298120441E+03  0.77000000000E+02 0.  0.
<mgrwt>
<rscale>  0 0.29483211E+03</rscale>
<asrwt>0</asrwt>
<pdfrwt beam="1">  1        2 0.43729444E-01 0.29483211E+03</pdfrwt>
<pdfrwt beam="2">  1       -2 0.11762209E-01 0.29483211E+03</pdfrwt>
<totfact> 0.59006158E+03</totfact>
</mgrwt>
</event>
<event>
 4    1  0.2489209E-004  0.4826035E+03  0.7818608E-02  0.1018422E+00
         -2   -1    0    0    0  501 -0.00000000000E+00  0.00000000000E+00  0.11514718135E+03  0.11514718138E+03  0.25500000000E-02 0. -1.
          2   -1    0    0  501    0  0.00000000000E+00 -0.00000000000E+00 -0.50567049590E+03  0.50567049591E+03  0.25500000000E-02 0.  1.
    5000001    1    1    2    0    0  0.27127920478E+02  0.22437187718E+03 -0.24017259524E+03  0.33865991621E+03  0.77000000000E+02 0.  0.
   -5000001    1    1    2    0    0 -0.27127920478E+02 -0.22437187718E+03 -0.15035071931E+03  0.28215776108E+03  0.77000000000E+02 0.  0.
<mgrwt>
<rscale>  0 0.48260349E+03</rscale>
<asrwt>0</asrwt>
<pdfrwt beam="1">  1        2 0.77795460E-01 0.48260349E+03</pdfrwt>
<pdfrwt beam="2">  1       -2 0.17714951E-01 0.48260349E+03</pdfrwt>
<totfact> 0.15987799E+03</totfact>
</mgrwt>
</event>
<event>
 4    1  0.2489209E-004  0.1850323E+03  0.7818608E-02  0.1163020E+00
          2   -1    0    0  501    0  0.00000000000E+00  0.00000000000E+00  0.46697820703E+03  0.46697820704E+03  0.25500000000E-02 0.  1.
         -2   -1    0    0    0  501 -0.00000000000E+00 -0.00000000000E+00 -0.18328984184E+02  0.18328984361E+02  0.25500000000E-02 0. -1.
    5000001    1    1    2    0    0  0.45530024861E+02 -0.88457354929E+01  0.16692093485E+03  0.18958594012E+03  0.77000000000E+02 0.  0.
   -5000001    1    1    2    0    0 -0.45530024861E+02  0.88457354929E+01  0.28172828799E+03  0.29572125127E+03  0.77000000000E+02 0.  0.
<mgrwt>
<rscale>  0 0.18503228E+03</rscale>
<asrwt>0</asrwt>
<pdfrwt beam="1">  1        2 0.71842794E-01 0.18503228E+03</pdfrwt>
<pdfrwt beam="2">  1       -2 0.28198440E-02 0.18503228E+03</pdfrwt>
<totfact> 0.30013218E+04</totfact>
</mgrwt>
</event>
<event>
 4    1  0.2489209E-004  0.3165905E+03  0.7818608E-02  0.1077229E+00
          2   -1    0    0  501    0  0.00000000000E+00  0.00000000000E+00  0.10332652236E+04  0.10332652236E+04  0.25500000000E-02 0.  1.
         -2   -1    0    0    0  501 -0.00000000000E+00 -0.00000000000E+00 -0.24250676885E+02  0.24250677019E+02  0.25500000000E-02 0. -1.
    5000001    1    1    2    0    0 -0.12276877144E+03 -0.71558588696E+01  0.29311431052E+03  0.32706020331E+03  0.77000000000E+02 0.  0.
   -5000001    1    1    2    0    0  0.12276877144E+03  0.71558588696E+01  0.71590023621E+03  0.73045569733E+03  0.77000000000E+02 0.  0.
<mgrwt>
<rscale>  0 0.31659047E+03</rscale>
<asrwt>0</asrwt>
<pdfrwt beam="1">  1        2 0.15896388E+00 0.31659047E+03</pdfrwt>
<pdfrwt beam="2">  1       -2 0.37308733E-02 0.31659047E+03</pdfrwt>
<totfact> 0.76671951E+03</totfact>
</mgrwt>
</event>
<event>
 4    1  0.2489209E-004  0.1589331E+03  0.7818608E-02  0.1189907E+00
          2   -1    0    0  501    0  0.00000000000E+00  0.00000000000E+00  0.16039904253E+03  0.16039904255E+03  0.25500000000E-02 0.  1.
         -2   -1    0    0    0  501 -0.00000000000E+00 -0.00000000000E+00 -0.39370124070E+02  0.39370124153E+02  0.25500000000E-02 0. -1.
    5000001    1    1    2    0    0 -0.58070028024E+01  0.14890363707E+02  0.74872531915E+02  0.10858333320E+03  0.77000000000E+02 0.  0.
   -5000001    1    1    2    0    0  0.58070028024E+01 -0.14890363707E+02  0.46156386541E+02  0.91185833502E+02  0.77000000000E+02 0.  0.
<mgrwt>
<rscale>  0 0.15893307E+03</rscale>
<asrwt>0</asrwt>
<pdfrwt beam="1">  1        2 0.24676775E-01 0.15893307E+03</pdfrwt>
<pdfrwt beam="2">  1       -2 0.60569423E-02 0.15893307E+03</pdfrwt>
<totfact> 0.29870348E+04</totfact>
</mgrwt>
</event>
<event>
 4    1  0.2489209E-004  0.1843980E+03  0.7818608E-02  0.1163613E+00
          2   -1    0    0  501    0  0.00000000000E+00  0.00000000000E+00  0.27083405127E+03  0.27083405128E+03  0.25500000000E-02 0.  1.
         -2   -1    0    0    0  501 -0.00000000000E+00 -0.00000000000E+00 -0.31386943370E+02  0.31386943473E+02  0.25500000000E-02 0. -1.
    5000001    1    1    2    0    0  0.41567245782E+02  0.28876269062E+02  0.11454635546E+03  0.14700864732E+03  0.77000000000E+02 0.  0.
   -5000001    1    1    2    0    0 -0.41567245782E+02 -0.28876269062E+02  0.12490075243E+03  0.15521234743E+03  0.77000000000E+02 0.  0.
<mgrwt>
<rscale>  0 0.18439797E+03</rscale>
<asrwt>0</asrwt>
<pdfrwt beam="1">  1        2 0.41666778E-01 0.18439797E+03</pdfrwt>
<pdfrwt beam="2">  1       -2 0.48287604E-02 0.18439797E+03</pdfrwt>
<totfact> 0.24170483E+04</totfact>
</mgrwt>
</event>
<event>
 4    1  0.2489209E-004  0.1556301E+03  0.7818608E-02  0.1193721E+00
          2   -1    0    0  501    0  0.00000000000E+00  0.00000000000E+00  0.13050155426E+04  0.13050155426E+04  0.25500000000E-02 0.  1.
         -2   -1    0    0    0  501 -0.00000000000E+00 -0.00000000000E+00 -0.46399280952E+01  0.46399287959E+01  0.25500000000E-02 0. -1.
    5000001    1    1    2    0    0 -0.12470844834E+00 -0.77226374359E+01  0.71882396365E+03  0.72297755526E+03  0.77000000000E+02 0.  0.
   -5000001    1    1    2    0    0  0.12470844834E+00  0.77226374359E+01  0.58155165082E+03  0.58667791611E+03  0.77000000000E+02 0.  0.
<mgrwt>
<rscale>  0 0.15563006E+03</rscale>
<asrwt>0</asrwt>
<pdfrwt beam="1">  1        2 0.20077167E+00 0.15563006E+03</pdfrwt>
<pdfrwt beam="2">  1       -2 0.71383499E-03 0.15563006E+03</pdfrwt>
<totfact> 0.57927669E+04</totfact>
</mgrwt>
</event>
<event>
 4    1  0.2489209E-004  0.1796578E+03  0.7818608E-02  0.1168135E+00
         -2   -1    0    0    0  501 -0.00000000000E+00  0.00000000000E+00  0.31103136276E+02  0.31103136380E+02  0.25500000000E-02 0. -1.
          2   -1    0    0  501    0  0.00000000000E+00 -0.00000000000E+00 -0.25943473723E+03  0.25943473725E+03  0.25500000000E-02 0.  1.
    5000001    1    1    2    0    0  0.16412479912E+02 -0.42402221372E+02 -0.12797499691E+03  0.15612148382E+03  0.77000000000E+02 0.  0.
   -5000001    1    1    2    0    0 -0.16412479912E+02  0.42402221372E+02 -0.10035660404E+03  0.13441638981E+03  0.77000000000E+02 0.  0.
<mgrwt>
<rscale>  0 0.17965783E+03</rscale>
<asrwt>0</asrwt>
<pdfrwt beam="1">  1        2 0.39913035E-01 0.17965783E+03</pdfrwt>
<pdfrwt beam="2">  1       -2 0.47850981E-02 0.17965783E+03</pdfrwt>
<totfact> 0.25599132E+04</totfact>
</mgrwt>
</event>
<event>
 4    1  0.2489209E-004  0.2358321E+03  0.7818608E-02  0.1122601E+00
          2   -1    0    0  501    0  0.00000000000E+00  0.00000000000E+00  0.11765621083E+03  0.11765621086E+03  0.25500000000E-02 0.  1.
         -2   -1    0    0    0  501 -0.00000000000E+00 -0.00000000000E+00 -0.11817647444E+03  0.11817647446E+03  0.25500000000E-02 0. -1.
    5000001    1    1    2    0    0  0.45955762641E+02 -0.27776405468E+02  0.71096438725E+02  0.11775892501E+03  0.77000000000E+02 0.  0.
   -5000001    1    1    2    0    0 -0.45955762641E+02  0.27776405468E+02 -0.71616702333E+02  0.11807376031E+03  0.77000000000E+02 0.  0.
<mgrwt>
<rscale>  0 0.23583211E+03</rscale>
<asrwt>0</asrwt>
<pdfrwt beam="1">  1        2 0.18100955E-01 0.23583211E+03</pdfrwt>
<pdfrwt beam="2">  1       -2 0.18180996E-01 0.23583211E+03</pdfrwt>
<totfact> 0.75832268E+03</totfact>
</mgrwt>
</event>
<event>
 4    1  0.2489209E-004  0.3103108E+03  0.7818608E-02  0.1080197E+00
          2   -1    0    0  501    0  0.00000000000E+00  0.00000000000E+00  0.95059101310E+03  0.95059101310E+03  0.25500000000E-02 0. -1.
         -2   -1    0    0    0  501 -0.00000000000E+00 -0.00000000000E+00 -0.25324452274E+02  0.25324452402E+02  0.25500000000E-02 0.  1.
    5000001    1    1    2    0    0 -0.53833317849E+02  0.12301727918E+03  0.49605280119E+03  0.51964281834E+03  0.77000000000E+02 0.  0.
   -5000001    1    1    2    0    0  0.53833317849E+02 -0.12301727918E+03  0.42921375963E+03  0.45627264716E+03  0.77000000000E+02 0.  0.
<mgrwt>
<rscale>  0 0.31031079E+03</rscale>
<asrwt>0</asrwt>
<pdfrwt beam="1">  1        2 0.14624476E+00 0.31031079E+03</pdfrwt>
<pdfrwt beam="2">  1       -2 0.38960699E-02 0.31031079E+03</pdfrwt>
<totfact> 0.80767833E+03</totfact>
</mgrwt>
</event>
<event>
 4    1  0.2489209E-004  0.3209892E+03  0.7818608E-02  0.1075195E+00
         -2   -1    0    0    0  501 -0.00000000000E+00  0.00000000000E+00  0.36438173950E+02  0.36438174039E+02  0.25500000000E-02 0. -1.
          2   -1    0    0  501    0  0.00000000000E+00 -0.00000000000E+00 -0.70691013037E+03  0.70691013037E+03  0.25500000000E-02 0.  1.
    5000001    1    1    2    0    0  0.98205379044E+02 -0.10036336262E+03 -0.31068262513E+03  0.34952795967E+03  0.77000000000E+02 0.  0.
   -5000001    1    1    2    0    0 -0.98205379044E+02  0.10036336262E+03 -0.35978933128E+03  0.39382034474E+03  0.77000000000E+02 0.  0.
<mgrwt>
<rscale>  0 0.32098919E+03</rscale>
<asrwt>0</asrwt>
<pdfrwt beam="1">  1        2 0.10875539E+00 0.32098919E+03</pdfrwt>
<pdfrwt beam="2">  1       -2 0.56058734E-02 0.32098919E+03</pdfrwt>
<totfact> 0.68240871E+03</totfact>
</mgrwt>
</event>
<event>
 4    1  0.2489209E-004  0.2632614E+03  0.7818608E-02  0.1105199E+00
         -2   -1    0    0    0  501 -0.00000000000E+00  0.00000000000E+00  0.10414586648E+04  0.10414586648E+04  0.25500000000E-02 0. -1.
          2   -1    0    0  501    0  0.00000000000E+00 -0.00000000000E+00 -0.16636903489E+02  0.16636903685E+02  0.25500000000E-02 0.  1.
    5000001    1    1    2    0    0  0.15628274955E+01 -0.86678657730E+02  0.26199247257E+03  0.28650425445E+03  0.77000000000E+02 0.  0.
   -5000001    1    1    2    0    0 -0.15628274955E+01  0.86678657730E+02  0.76282928878E+03  0.77159131407E+03  0.77000000000E+02 0.  0.
<mgrwt>
<rscale>  0 0.26326145E+03</rscale>
<asrwt>0</asrwt>
<pdfrwt beam="1">  1        2 0.25595232E-02 0.26326145E+03</pdfrwt>
<pdfrwt beam="2">  1       -2 0.16022444E+00 0.26326145E+03</pdfrwt>
<totfact> 0.10378046E+03</totfact>
</mgrwt>
</event>
<event>
 4    1  0.2489209E-004  0.1892056E+03  0.7818608E-02  0.1159180E+00
         -2   -1    0    0    0  501 -0.00000000000E+00  0.00000000000E+00  0.95989320975E+01  0.95989324362E+01  0.25500000000E-02 0. -1.
          2   -1    0    0  501    0  0.00000000000E+00 -0.00000000000E+00 -0.93236286486E+03  0.93236286487E+03  0.25500000000E-02 0.  1.
    5000001    1    1    2    0    0 -0.30127703190E+01  0.50686675066E+02 -0.35665890487E+03  0.36839216907E+03  0.77000000000E+02 0.  0.
   -5000001    1    1    2    0    0  0.30127703190E+01 -0.50686675066E+02 -0.56610502790E+03  0.57356962823E+03  0.77000000000E+02 0.  0.
<mgrwt>
<rscale>  0 0.18920558E+03</rscale>
<asrwt>0</asrwt>
<pdfrwt beam="1">  1        2 0.14344037E+00 0.18920558E+03</pdfrwt>
<pdfrwt beam="2">  1       -2 0.14767596E-02 0.18920558E+03</pdfrwt>
<totfact> 0.33934407E+04</totfact>
</mgrwt>
</event>
<event>
 4    1  0.2489209E-004  0.1565951E+03  0.7818608E-02  0.1192595E+00
          2   -1    0    0  501    0  0.00000000000E+00  0.00000000000E+00  0.94568859546E+01  0.94568862984E+01  0.25500000000E-02 0.  1.
         -2   -1    0    0    0  501 -0.00000000000E+00 -0.00000000000E+00 -0.64825855108E+03  0.64825855109E+03  0.25500000000E-02 0. -1.
    5000001    1    1    2    0    0  0.77619976836E+01  0.10402586043E+02 -0.34354498888E+03  0.35230756703E+03  0.77000000000E+02 0.  0.
   -5000001    1    1    2    0    0 -0.77619976836E+01 -0.10402586043E+02 -0.29525667625E+03  0.30540787036E+03  0.77000000000E+02 0.  0.
<mgrwt>
<rscale>  0 0.15659511E+03</rscale>
<asrwt>0</asrwt>
<pdfrwt beam="1">  1        2 0.14549061E-02 0.15659511E+03</pdfrwt>
<pdfrwt beam="2">  1       -2 0.99732050E-01 0.15659511E+03</pdfrwt>
<totfact> 0.70185483E+03</totfact>
</mgrwt>
</event>
<event>
 4    1  0.2489209E-004  0.4822919E+03  0.7818608E-02  0.1018507E+00
         -2   -1    0    0    0  501 -0.00000000000E+00  0.00000000000E+00  0.18610906988E+02  0.18610907162E+02  0.25500000000E-02 0. -1.
          2   -1    0    0  501    0  0.00000000000E+00 -0.00000000000E+00 -0.31245850975E+04  0.31245850975E+04  0.25500000000E-02 0.  1.
    5000001    1    1    2    0    0  0.19054814699E+03  0.12594478521E+03 -0.15998374558E+04  0.16178935596E+04  0.77000000000E+02 0.  0.
   -5000001    1    1    2    0    0 -0.19054814699E+03 -0.12594478521E+03 -0.15061367347E+04  0.15253024450E+04  0.77000000000E+02 0.  0.
<mgrwt>
<rscale>  0 0.48229187E+03</rscale>
<asrwt>0</asrwt>
<pdfrwt beam="1">  1        2 0.48070498E+00 0.48229187E+03</pdfrwt>
<pdfrwt beam="2">  1       -2 0.28632189E-02 0.48229187E+03</pdfrwt>
<totfact> 0.76985229E+02</totfact>
</mgrwt>
</event>
<event>
 4    1  0.2489209E-004  0.1882267E+03  0.7818608E-02  0.1160071E+00
          2   -1    0    0  501    0  0.00000000000E+00  0.00000000000E+00  0.27693123539E+04  0.27693123539E+04  0.25500000000E-02 0.  1.
         -2   -1    0    0    0  501 -0.00000000000E+00 -0.00000000000E+00 -0.31983831750E+01  0.31983841916E+01  0.25500000000E-02 0. -1.
    5000001    1    1    2    0    0  0.45273495012E+02 -0.29406427765E+02  0.13281486169E+04  0.13314736858E+04  0.77000000000E+02 0.  0.
   -5000001    1    1    2    0    0 -0.45273495012E+02  0.29406427765E+02  0.14379653538E+04  0.14410370523E+04  0.77000000000E+02 0.  0.
<mgrwt>
<rscale>  0 0.18822671E+03</rscale>
<asrwt>0</asrwt>
<pdfrwt beam="1">  1        2 0.42604916E+00 0.18822671E+03</pdfrwt>
<pdfrwt beam="2">  1       -2 0.49205775E-03 0.18822671E+03</pdfrwt>
<totfact> 0.16748582E+04</totfact>
</mgrwt>
</event>
<event>
 4    1  0.2489209E-004  0.4413717E+03  0.7818608E-02  0.1030327E+00
         -2   -1    0    0    0  501 -0.00000000000E+00  0.00000000000E+00  0.37889892495E+02  0.37889892581E+02  0.25500000000E-02 0. -1.
          2   -1    0    0  501    0  0.00000000000E+00 -0.00000000000E+00 -0.12853621802E+04  0.12853621802E+04  0.25500000000E-02 0.  1.
    5000001    1    1    2    0    0 -0.11159560268E+03 -0.15373536981E+02 -0.11437332856E+04  0.11518440662E+04  0.77000000000E+02 0.  0.
   -5000001    1    1    2    0    0  0.11159560268E+03  0.15373536981E+02 -0.10373900212E+03  0.17140800663E+03  0.77000000000E+02 0.  0.
<mgrwt>
<rscale>  0 0.44137166E+03</rscale>
<asrwt>0</asrwt>
<pdfrwt beam="1">  1        2 0.19774799E+00 0.44137166E+03</pdfrwt>
<pdfrwt beam="2">  1       -2 0.58292152E-02 0.44137166E+03</pdfrwt>
<totfact> 0.27683033E+03</totfact>
</mgrwt>
</event>
<event>
 4    1  0.2489209E-004  0.1862096E+03  0.7818608E-02  0.1161925E+00
          2   -1    0    0  501    0  0.00000000000E+00  0.00000000000E+00  0.17846116905E+03  0.17846116907E+03  0.25500000000E-02 0.  1.
         -2   -1    0    0    0  501 -0.00000000000E+00 -0.00000000000E+00 -0.48573630047E+02  0.48573630114E+02  0.25500000000E-02 0. -1.
    5000001    1    1    2    0    0  0.48407085524E+02  0.76152641379E+01  0.87368186084E+02  0.12634650021E+03  0.77000000000E+02 0.  0.
   -5000001    1    1    2    0    0 -0.48407085524E+02 -0.76152641379E+01  0.42519352924E+02  0.10068829897E+03  0.77000000000E+02 0.  0.
<mgrwt>
<rscale>  0 0.18620963E+03</rscale>
<asrwt>0</asrwt>
<pdfrwt beam="1">  1        2 0.27455564E-01 0.18620963E+03</pdfrwt>
<pdfrwt beam="2">  1       -2 0.74728662E-02 0.18620963E+03</pdfrwt>
<totfact> 0.19510664E+04</totfact>
</mgrwt>
</event>
<event>
 4    1  0.2489209E-004  0.2511673E+03  0.7818608E-02  0.1112569E+00
          2   -1    0    0  501    0  0.00000000000E+00  0.00000000000E+00  0.12058782081E+04  0.12058782081E+04  0.25500000000E-02 0.  1.
         -2   -1    0    0    0  501 -0.00000000000E+00 -0.00000000000E+00 -0.13078646866E+02  0.13078647115E+02  0.25500000000E-02 0. -1.
    5000001    1    1    2    0    0 -0.93826530823E+02  0.30554145042E+02  0.64619661348E+03  0.65820668254E+03  0.77000000000E+02 0.  0.
   -5000001    1    1    2    0    0  0.93826530823E+02 -0.30554145042E+02  0.54660294771E+03  0.56075017264E+03  0.77000000000E+02 0.  0.
<mgrwt>
<rscale>  0 0.25116732E+03</rscale>
<asrwt>0</asrwt>
<pdfrwt beam="1">  1        2 0.18551971E+00 0.25116732E+03</pdfrwt>
<pdfrwt beam="2">  1       -2 0.20120997E-02 0.25116732E+03</pdfrwt>
<totfact> 0.15115186E+04</totfact>
</mgrwt>
</event>
<event>
 4    1  0.2489209E-004  0.2159781E+03  0.7818608E-02  0.1136918E+00
         -2   -1    0    0    0  501 -0.00000000000E+00  0.00000000000E+00  0.56197625540E+02  0.56197625597E+02  0.25500000000E-02 0. -1.
          2   -1    0    0  501    0  0.00000000000E+00 -0.00000000000E+00 -0.20751126231E+03  0.20751126233E+03  0.25500000000E-02 0.  1.
    5000001    1    1    2    0    0  0.49952115032E+02  0.26122646650E+02 -0.13737502155E+03  0.16726775843E+03  0.77000000000E+02 0.  0.
   -5000001    1    1    2    0    0 -0.49952115032E+02 -0.26122646650E+02 -0.13938615223E+02  0.96441129496E+02  0.77000000000E+02 0.  0.
<mgrwt>
<rscale>  0 0.21597815E+03</rscale>
<asrwt>0</asrwt>
<pdfrwt beam="1">  1        2 0.31924809E-01 0.21597815E+03</pdfrwt>
<pdfrwt beam="2">  1       -2 0.86457887E-02 0.21597815E+03</pdfrwt>
<totfact> 0.13328388E+04</totfact>
</mgrwt>
</event>
<event>
 4    1  0.2489209E-004  0.7096543E+03  0.7818608E-02  0.9700863E-01
         -2   -1    0    0    0  501 -0.00000000000E+00  0.00000000000E+00  0.10590393657E+03  0.10590393660E+03  0.25500000000E-02 0. -1.
          2   -1    0    0  501    0  0.00000000000E+00 -0.00000000000E+00 -0.11888348788E+04  0.11888348788E+04  0.25500000000E-02 0.  1.
    5000001    1    1    2    0    0  0.13840538079E+03  0.27136318989E+03 -0.24068184384E+03  0.39579133418E+03  0.77000000000E+02 0.  0.
   -5000001    1    1    2    0    0 -0.13840538079E+03 -0.27136318989E+03 -0.84224909841E+03  0.89894748124E+03  0.77000000000E+02 0.  0.
<mgrwt>
<rscale>  0 0.70965426E+03</rscale>
<asrwt>0</asrwt>
<pdfrwt beam="1">  1        2 0.18289766E+00 0.70965426E+03</pdfrwt>
<pdfrwt beam="2">  1       -2 0.16292914E-01 0.70965426E+03</pdfrwt>
<totfact> 0.59073232E+02</totfact>
</mgrwt>
</event>
<event>
 4    1  0.2489209E-004  0.2023706E+03  0.7818608E-02  0.1147754E+00
         -2   -1    0    0    0  501 -0.00000000000E+00  0.00000000000E+00  0.15013945379E+02  0.15013945596E+02  0.25500000000E-02 0. -1.
          2   -1    0    0  501    0  0.00000000000E+00 -0.00000000000E+00 -0.68193010043E+03  0.68193010044E+03  0.25500000000E-02 0.  1.
    5000001    1    1    2    0    0 -0.43086189609E+02 -0.57436669856E+01 -0.16403876704E+03  0.18635215731E+03  0.77000000000E+02 0.  0.
   -5000001    1    1    2    0    0  0.43086189609E+02  0.57436669856E+01 -0.50287738802E+03  0.51059188872E+03  0.77000000000E+02 0.  0.
<mgrwt>
<rscale>  0 0.20237056E+03</rscale>
<asrwt>0</asrwt>
<pdfrwt beam="1">  1        2 0.10491230E+00 0.20237056E+03</pdfrwt>
<pdfrwt beam="2">  1       -2 0.23098383E-02 0.20237056E+03</pdfrwt>
<totfact> 0.26342882E+04</totfact>
</mgrwt>
</event>
<event>
 4    1  0.2489209E-004  0.2065216E+03  0.7818608E-02  0.1144350E+00
         -2   -1    0    0    0  501 -0.00000000000E+00  0.00000000000E+00  0.30262732691E+01  0.30262743434E+01  0.25500000000E-02 0. -1.
          2   -1    0    0  501    0  0.00000000000E+00 -0.00000000000E+00 -0.35234063780E+04  0.35234063780E+04  0.25500000000E-02 0.  1.
    5000001    1    1    2    0    0  0.46276211256E+02  0.45385478917E+02 -0.13661731595E+04  0.13698756992E+04  0.77000000000E+02 0.  0.
   -5000001    1    1    2    0    0 -0.46276211256E+02 -0.45385478917E+02 -0.21542069452E+04  0.21565569532E+04  0.77000000000E+02 0.  0.
<mgrwt>
<rscale>  0 0.20652160E+03</rscale>
<asrwt>0</asrwt>
<pdfrwt beam="1">  1        2 0.54205924E+00 0.20652160E+03</pdfrwt>
<pdfrwt beam="2">  1       -2 0.46558340E-03 0.20652160E+03</pdfrwt>
<totfact> 0.63285943E+03</totfact>
</mgrwt>
</event>
<event>
 4    1  0.2489209E-004  0.2884744E+03  0.7818608E-02  0.1091148E+00
         -2   -1    0    0    0  501 -0.00000000000E+00  0.00000000000E+00  0.54834001650E+02  0.54834001709E+02  0.25500000000E-02 0. -1.
          2   -1    0    0  501    0  0.00000000000E+00 -0.00000000000E+00 -0.37940632424E+03  0.37940632425E+03  0.25500000000E-02 0.  1.
    5000001    1    1    2    0    0 -0.99899181116E+02  0.42041863133E+02 -0.78096950119E+02  0.15419305517E+03  0.77000000000E+02 0.  0.
   -5000001    1    1    2    0    0  0.99899181116E+02 -0.42041863133E+02 -0.24647537247E+03  0.28004727079E+03  0.77000000000E+02 0.  0.
<mgrwt>
<rscale>  0 0.28847438E+03</rscale>
<asrwt>0</asrwt>
<pdfrwt beam="1">  1        2 0.58370202E-01 0.28847438E+03</pdfrwt>
<pdfrwt beam="2">  1       -2 0.84360005E-02 0.28847438E+03</pdfrwt>
<totfact> 0.73264603E+03</totfact>
</mgrwt>
</event>
<event>
 4    1  0.2489209E-004  0.2119681E+03  0.7818608E-02  0.1140017E+00
          2   -1    0    0  501    0  0.00000000000E+00  0.00000000000E+00  0.12780830595E+04  0.12780830595E+04  0.25500000000E-02 0.  1.
         -2   -1    0    0    0  501 -0.00000000000E+00 -0.00000000000E+00 -0.87886468455E+01  0.87886472154E+01  0.25500000000E-02 0. -1.
    5000001    1    1    2    0    0 -0.51765379901E+02  0.50201775651E+02  0.69648509977E+03  0.70442910718E+03  0.77000000000E+02 0.  0.
   -5000001    1    1    2    0    0  0.51765379901E+02 -0.50201775651E+02  0.57280931292E+03  0.58244259958E+03  0.77000000000E+02 0.  0.
<mgrwt>
<rscale>  0 0.21196812E+03</rscale>
<asrwt>0</asrwt>
<pdfrwt beam="1">  1        2 0.19662812E+00 0.21196812E+03</pdfrwt>
<pdfrwt beam="2">  1       -2 0.13520998E-02 0.21196812E+03</pdfrwt>
<totfact> 0.24423520E+04</totfact>
</mgrwt>
</event>
<event>
 4    1  0.2489209E-004  0.6360702E+03  0.7818608E-02  0.9833274E-01
         -2   -1    0    0    0  501 -0.00000000000E+00  0.00000000000E+00  0.49410938361E+02  0.49410938426E+02  0.25500000000E-02 0.  1.
          2   -1    0    0  501    0  0.00000000000E+00 -0.00000000000E+00 -0.20470429757E+04  0.20470429757E+04  0.25500000000E-02 0. -1.
    5000001    1    1    2    0    0 -0.30221511216E+03  0.24913199706E+02 -0.81055211652E+03  0.86883736979E+03  0.77000000000E+02 0.  0.
   -5000001    1    1    2    0    0  0.30221511216E+03 -0.24913199706E+02 -0.11870799208E+04  0.12276165443E+04  0.77000000000E+02 0.  0.
<mgrwt>
<rscale>  0 0.63607017E+03</rscale>
<asrwt>0</asrwt>
<pdfrwt beam="1">  1        2 0.31492962E+00 0.63607017E+03</pdfrwt>
<pdfrwt beam="2">  1       -2 0.76016844E-02 0.63607017E+03</pdfrwt>
<totfact> 0.69349115E+02</totfact>
</mgrwt>
</event>
<event>
 4    1  0.2489209E-004  0.2074956E+03  0.7818608E-02  0.1143565E+00
         -2   -1    0    0    0  501 -0.00000000000E+00  0.00000000000E+00  0.14887246459E+02  0.14887246678E+02  0.25500000000E-02 0. -1.
          2   -1    0    0  501    0  0.00000000000E+00 -0.00000000000E+00 -0.72300869573E+03  0.72300869573E+03  0.25500000000E-02 0.  1.
    5000001    1    1    2    0    0  0.57230528651E+02  0.13060245960E+02 -0.22153773615E+03  0.24177235568E+03  0.77000000000E+02 0.  0.
   -5000001    1    1    2    0    0 -0.57230528651E+02 -0.13060245960E+02 -0.48658371312E+03  0.49612358673E+03  0.77000000000E+02 0.  0.
<mgrwt>
<rscale>  0 0.20749563E+03</rscale>
<asrwt>0</asrwt>
<pdfrwt beam="1">  1        2 0.11123208E+00 0.20749563E+03</pdfrwt>
<pdfrwt beam="2">  1       -2 0.22903462E-02 0.20749563E+03</pdfrwt>
<totfact> 0.24900400E+04</totfact>
</mgrwt>
</event>
<event>
 4    1  0.2489209E-004  0.1802476E+03  0.7818608E-02  0.1167564E+00
         -2   -1    0    0    0  501 -0.00000000000E+00  0.00000000000E+00  0.17479788811E+02  0.17479788997E+02  0.25500000000E-02 0. -1.
          2   -1    0    0  501    0  0.00000000000E+00 -0.00000000000E+00 -0.46466809801E+03  0.46466809802E+03  0.25500000000E-02 0.  1.
    5000001    1    1    2    0    0  0.46151301863E+02  0.40940489381E+01 -0.20533474297E+03  0.22413848525E+03  0.77000000000E+02 0.  0.
   -5000001    1    1    2    0    0 -0.46151301863E+02 -0.40940489381E+01 -0.24185356624E+03  0.25800940177E+03  0.77000000000E+02 0.  0.
<mgrwt>
<rscale>  0 0.18024761E+03</rscale>
<asrwt>0</asrwt>
<pdfrwt beam="1">  1        2 0.71487390E-01 0.18024761E+03</pdfrwt>
<pdfrwt beam="2">  1       -2 0.26891986E-02 0.18024761E+03</pdfrwt>
<totfact> 0.32289588E+04</totfact>
</mgrwt>
</event>
<event>
 4    1  0.2489209E-004  0.2294879E+03  0.7818608E-02  0.1127001E+00
          2   -1    0    0  501    0  0.00000000000E+00  0.00000000000E+00  0.91346697713E+02  0.91346697749E+02  0.25500000000E-02 0. -1.
         -2   -1    0    0    0  501 -0.00000000000E+00 -0.00000000000E+00 -0.14413411297E+03  0.14413411299E+03  0.25500000000E-02 0.  1.
    5000001    1    1    2    0    0 -0.82426305248E+02 -0.19541242061E+02 -0.18365105279E+02  0.11594064443E+03  0.77000000000E+02 0.  0.
   -5000001    1    1    2    0    0  0.82426305248E+02  0.19541242061E+02 -0.34422309977E+02  0.11954016631E+03  0.77000000000E+02 0.  0.
<mgrwt>
<rscale>  0 0.22948791E+03</rscale>
<asrwt>0</asrwt>
<pdfrwt beam="1">  1        2 0.14053338E-01 0.22948791E+03</pdfrwt>
<pdfrwt beam="2">  1       -2 0.22174479E-01 0.22948791E+03</pdfrwt>
<totfact> 0.72615104E+03</totfact>
</mgrwt>
</event>
<event>
 4    1  0.2489209E-004  0.7009910E+03  0.7818608E-02  0.9715539E-01
         -2   -1    0    0    0  501 -0.00000000000E+00  0.00000000000E+00  0.57970564100E+02  0.57970564156E+02  0.25500000000E-02 0. -1.
          2   -1    0    0  501    0  0.00000000000E+00 -0.00000000000E+00 -0.21191288466E+04  0.21191288466E+04  0.25500000000E-02 0.  1.
    5000001    1    1    2    0    0 -0.83532160388E+02  0.31589493364E+03 -0.13434876116E+04  0.13847942783E+04  0.77000000000E+02 0.  0.
   -5000001    1    1    2    0    0  0.83532160388E+02 -0.31589493364E+03 -0.71767067090E+03  0.79230513238E+03  0.77000000000E+02 0.  0.
<mgrwt>
<rscale>  0 0.70099100E+03</rscale>
<asrwt>0</asrwt>
<pdfrwt beam="1">  1        2 0.32601976E+00 0.70099100E+03</pdfrwt>
<pdfrwt beam="2">  1       -2 0.89185500E-02 0.70099100E+03</pdfrwt>
<totfact> 0.48814461E+02</totfact>
</mgrwt>
</event>
<event>
 4    1  0.2489209E-004  0.1866203E+03  0.7818608E-02  0.1161545E+00
         -2   -1    0    0    0  501 -0.00000000000E+00  0.00000000000E+00  0.38283044217E+01  0.38283052709E+01  0.25500000000E-02 0. -1.
          2   -1    0    0  501    0  0.00000000000E+00 -0.00000000000E+00 -0.22743174583E+04  0.22743174583E+04  0.25500000000E-02 0.  1.
    5000001    1    1    2    0    0 -0.21187882744E+02 -0.78353560014E+01 -0.55395483097E+03  0.55973678987E+03  0.77000000000E+02 0.  0.
   -5000001    1    1    2    0    0  0.21187882744E+02  0.78353560014E+01 -0.17165343229E+04  0.17184089737E+04  0.77000000000E+02 0.  0.
<mgrwt>
<rscale>  0 0.18662026E+03</rscale>
<asrwt>0</asrwt>
<pdfrwt beam="1">  1        2 0.34989391E+00 0.18662026E+03</pdfrwt>
<pdfrwt beam="2">  1       -2 0.58897179E-03 0.18662026E+03</pdfrwt>
<totfact> 0.24054320E+04</totfact>
</mgrwt>
</event>
<event>
 4    1  0.2489209E-004  0.3396927E+03  0.7818608E-02  0.1066927E+00
          2   -1    0    0  501    0  0.00000000000E+00  0.00000000000E+00  0.10270849498E+04  0.10270849498E+04  0.25500000000E-02 0.  1.
         -2   -1    0    0    0  501 -0.00000000000E+00 -0.00000000000E+00 -0.28087050820E+02  0.28087050935E+02  0.25500000000E-02 0. -1.
    5000001    1    1    2    0    0  0.77283062645E+02 -0.12741382900E+03  0.41662354575E+03  0.44912262743E+03  0.77000000000E+02 0.  0.
   -5000001    1    1    2    0    0 -0.77283062645E+02  0.12741382900E+03  0.58237435327E+03  0.60604937335E+03  0.77000000000E+02 0.  0.
<mgrwt>
<rscale>  0 0.33969273E+03</rscale>
<asrwt>0</asrwt>
<pdfrwt beam="1">  1        2 0.15801309E+00 0.33969273E+03</pdfrwt>
<pdfrwt beam="2">  1       -2 0.43210842E-02 0.33969273E+03</pdfrwt>
<totfact> 0.62019243E+03</totfact>
</mgrwt>
</event>
<event>
 4    1  0.2489209E-004  0.1773276E+03  0.7818608E-02  0.1170415E+00
          2   -1    0    0  501    0  0.00000000000E+00  0.00000000000E+00  0.19722827514E+03  0.19722827516E+03  0.25500000000E-02 0.  1.
         -2   -1    0    0    0  501 -0.00000000000E+00 -0.00000000000E+00 -0.39858744795E+02  0.39858744877E+02  0.25500000000E-02 0. -1.
    5000001    1    1    2    0    0 -0.20540418576E+02 -0.64208607803E+01  0.27438493563E+02  0.84528144292E+02  0.77000000000E+02 0.  0.
   -5000001    1    1    2    0    0  0.20540418576E+02  0.64208607803E+01  0.12993103679E+03  0.15255887575E+03  0.77000000000E+02 0.  0.
<mgrwt>
<rscale>  0 0.17732762E+03</rscale>
<asrwt>0</asrwt>
<pdfrwt beam="1">  1        2 0.30342811E-01 0.17732762E+03</pdfrwt>
<pdfrwt beam="2">  1       -2 0.61321146E-02 0.17732762E+03</pdfrwt>
<totfact> 0.23598682E+04</totfact>
</mgrwt>
</event>
<event>
 4    1  0.2489209E-004  0.2592412E+03  0.7818608E-02  0.1107600E+00
         -2   -1    0    0    0  501 -0.00000000000E+00  0.00000000000E+00  0.19952805168E+02  0.19952805331E+02  0.25500000000E-02 0. -1.
          2   -1    0    0  501    0  0.00000000000E+00 -0.00000000000E+00 -0.84206223344E+03  0.84206223344E+03  0.25500000000E-02 0.  1.
    5000001    1    1    2    0    0 -0.63153699456E+02 -0.65098120288E+02 -0.24000029139E+03  0.26787178815E+03  0.77000000000E+02 0.  0.
   -5000001    1    1    2    0    0  0.63153699456E+02  0.65098120288E+02 -0.58210913688E+03  0.59414325062E+03  0.77000000000E+02 0.  0.
<mgrwt>
<rscale>  0 0.25924123E+03</rscale>
<asrwt>0</asrwt>
<pdfrwt beam="1">  1        2 0.12954801E+00 0.25924123E+03</pdfrwt>
<pdfrwt beam="2">  1       -2 0.30696630E-02 0.25924123E+03</pdfrwt>
<totfact> 0.13498290E+04</totfact>
</mgrwt>
</event>
<event>
 4    1  0.2489209E-004  0.2975321E+03  0.7818608E-02  0.1086481E+00
         -2   -1    0    0    0  501 -0.00000000000E+00  0.00000000000E+00  0.93467625113E+02  0.93467625148E+02  0.25500000000E-02 0. -1.
          2   -1    0    0  501    0  0.00000000000E+00 -0.00000000000E+00 -0.23678086340E+03  0.23678086341E+03  0.25500000000E-02 0.  1.
    5000001    1    1    2    0    0  0.98731661630E+02 -0.60001369263E+02 -0.13095627285E+03  0.19085767137E+03  0.77000000000E+02 0.  0.
   -5000001    1    1    2    0    0 -0.98731661630E+02  0.60001369263E+02 -0.12356965432E+02  0.13939081719E+03  0.77000000000E+02 0.  0.
<mgrwt>
<rscale>  0 0.29753215E+03</rscale>
<asrwt>0</asrwt>
<pdfrwt beam="1">  1        2 0.36427825E-01 0.29753215E+03</pdfrwt>
<pdfrwt beam="2">  1       -2 0.14379635E-01 0.29753215E+03</pdfrwt>
<totfact> 0.51822444E+03</totfact>
</mgrwt>
</event>
<event>
 4    1  0.2489209E-004  0.2522629E+03  0.7818608E-02  0.1111883E+00
         -2   -1    0    0    0  501 -0.00000000000E+00  0.00000000000E+00  0.25188977042E+02  0.25188977172E+02  0.25500000000E-02 0. -1.
          2   -1    0    0  501    0  0.00000000000E+00 -0.00000000000E+00 -0.63159146600E+03  0.63159146600E+03  0.25500000000E-02 0.  1.
    5000001    1    1    2    0    0  0.91852400175E+02 -0.29274254535E+02 -0.37140731968E+03  0.39136459026E+03  0.77000000000E+02 0.  0.
   -5000001    1    1    2    0    0 -0.91852400175E+02  0.29274254535E+02 -0.23499516928E+03  0.26541585292E+03  0.77000000000E+02 0.  0.
<mgrwt>
<rscale>  0 0.25226290E+03</rscale>
<asrwt>0</asrwt>
<pdfrwt beam="1">  1        2 0.97167906E-01 0.25226290E+03</pdfrwt>
<pdfrwt beam="2">  1       -2 0.38752277E-02 0.25226290E+03</pdfrwt>
<totfact> 0.13560279E+04</totfact>
</mgrwt>
</event>
<event>
 4    1  0.2489209E-004  0.1984444E+03  0.7818608E-02  0.1151058E+00
         -2   -1    0    0    0  501 -0.00000000000E+00  0.00000000000E+00  0.46784015570E+01  0.46784022520E+01  0.25500000000E-02 0. -1.
          2   -1    0    0  501    0  0.00000000000E+00 -0.00000000000E+00 -0.21043608789E+04  0.21043608789E+04  0.25500000000E-02 0.  1.
    5000001    1    1    2    0    0 -0.52324568007E+02 -0.21000596248E+02 -0.13383950556E+04  0.13417932815E+04  0.77000000000E+02 0.  0.
   -5000001    1    1    2    0    0  0.52324568007E+02  0.21000596248E+02 -0.76128742175E+03  0.76724599965E+03  0.77000000000E+02 0.  0.
<mgrwt>
<rscale>  0 0.19844441E+03</rscale>
<asrwt>0</asrwt>
<pdfrwt beam="1">  1        2 0.32374707E+00 0.19844441E+03</pdfrwt>
<pdfrwt beam="2">  1       -2 0.71975582E-03 0.19844441E+03</pdfrwt>
<totfact> 0.22216484E+04</totfact>
</mgrwt>
</event>
<event>
 4    1  0.2489209E-004  0.2054783E+03  0.7818608E-02  0.1145198E+00
          2   -1    0    0  501    0  0.00000000000E+00  0.00000000000E+00  0.23636503132E+04  0.23636503132E+04  0.25500000000E-02 0.  1.
         -2   -1    0    0    0  501 -0.00000000000E+00 -0.00000000000E+00 -0.44656905901E+01  0.44656913182E+01  0.25500000000E-02 0. -1.
    5000001    1    1    2    0    0 -0.28803472509E+02  0.43277269296E+02  0.67410113544E+03  0.68047329328E+03  0.77000000000E+02 0.  0.
   -5000001    1    1    2    0    0  0.28803472509E+02 -0.43277269296E+02  0.16850834872E+04  0.16876427113E+04  0.77000000000E+02 0.  0.
<mgrwt>
<rscale>  0 0.20547829E+03</rscale>
<asrwt>0</asrwt>
<pdfrwt beam="1">  1        2 0.36363817E+00 0.20547829E+03</pdfrwt>
<pdfrwt beam="2">  1       -2 0.68703002E-03 0.20547829E+03</pdfrwt>
<totfact> 0.17352234E+04</totfact>
</mgrwt>
</event>
<event>
 4    1  0.2489209E-004  0.2834971E+03  0.7818608E-02  0.1093794E+00
          2   -1    0    0  501    0  0.00000000000E+00  0.00000000000E+00  0.12524732279E+03  0.12524732281E+03  0.25500000000E-02 0.  1.
         -2   -1    0    0    0  501 -0.00000000000E+00 -0.00000000000E+00 -0.16042385434E+03  0.16042385436E+03  0.25500000000E-02 0. -1.
    5000001    1    1    2    0    0 -0.72518063562E+00 -0.97240531807E+02 -0.86724991103E+02  0.15134883876E+03  0.77000000000E+02 0.  0.
   -5000001    1    1    2    0    0  0.72518063562E+00  0.97240531807E+02  0.51548459553E+02  0.13432233841E+03  0.77000000000E+02 0.  0.
<mgrwt>
<rscale>  0 0.28349715E+03</rscale>
<asrwt>0</asrwt>
<pdfrwt beam="1">  1        2 0.19268819E-01 0.28349715E+03</pdfrwt>
<pdfrwt beam="2">  1       -2 0.24680593E-01 0.28349715E+03</pdfrwt>
<totfact> 0.41978075E+03</totfact>
</mgrwt>
</event>
<event>
 4    1  0.2489209E-004  0.1607604E+03  0.7818608E-02  0.1187841E+00
          2   -1    0    0  501    0  0.00000000000E+00  0.00000000000E+00  0.24905990997E+04  0.24905990997E+04  0.25500000000E-02 0.  1.
         -2   -1    0    0    0  501 -0.00000000000E+00 -0.00000000000E+00 -0.25941438912E+01  0.25941451445E+01  0.25500000000E-02 0. -1.
    5000001    1    1    2    0    0 -0.16846716337E+02 -0.91042993462E+01  0.10446236364E+04  0.10476326846E+04  0.77000000000E+02 0.  0.
   -5000001    1    1    2    0    0  0.16846716337E+02  0.91042993462E+01  0.14433813194E+04  0.14455605602E+04  0.77000000000E+02 0.  0.
<mgrwt>
<rscale>  0 0.16076037E+03</rscale>
<asrwt>0</asrwt>
<pdfrwt beam="1">  1        2 0.38316676E+00 0.16076037E+03</pdfrwt>
<pdfrwt beam="2">  1       -2 0.39910158E-03 0.16076037E+03</pdfrwt>
<totfact> 0.31911674E+04</totfact>
</mgrwt>
</event>
<event>
 4    1  0.2489209E-004  0.4374308E+03  0.7818608E-02  0.1031538E+00
          2   -1    0    0  501    0  0.00000000000E+00  0.00000000000E+00  0.16449309494E+03  0.16449309496E+03  0.25500000000E-02 0.  1.
         -2   -1    0    0    0  501 -0.00000000000E+00 -0.00000000000E+00 -0.29081108550E+03  0.29081108552E+03  0.25500000000E-02 0. -1.
    5000001    1    1    2    0    0 -0.98813107167E+02  0.15934020422E+03  0.22382251928E+02  0.20391982745E+03  0.77000000000E+02 0.  0.
   -5000001    1    1    2    0    0  0.98813107167E+02 -0.15934020422E+03 -0.14870024249E+03  0.25138435302E+03  0.77000000000E+02 0.  0.
<mgrwt>
<rscale>  0 0.43743075E+03</rscale>
<asrwt>0</asrwt>
<pdfrwt beam="1">  1        2 0.25306630E-01 0.43743075E+03</pdfrwt>
<pdfrwt beam="2">  1       -2 0.44740167E-01 0.43743075E+03</pdfrwt>
<totfact> 0.10240178E+03</totfact>
</mgrwt>
</event>
<event>
 4    1  0.2489209E-004  0.1760413E+03  0.7818608E-02  0.1171690E+00
          2   -1    0    0  501    0  0.00000000000E+00  0.00000000000E+00  0.39420833065E+04  0.39420833065E+04  0.25500000000E-02 0.  1.
         -2   -1    0    0    0  501 -0.00000000000E+00 -0.00000000000E+00 -0.19653646553E+01  0.19653663096E+01  0.25500000000E-02 0. -1.
    5000001    1    1    2    0    0 -0.30092807540E+02  0.10494506774E+02  0.13352185311E+04  0.13378165934E+04  0.77000000000E+02 0.  0.
   -5000001    1    1    2    0    0  0.30092807540E+02 -0.10494506774E+02  0.26048994107E+04  0.26062320794E+04  0.77000000000E+02 0.  0.
<mgrwt>
<rscale>  0 0.17604130E+03</rscale>
<asrwt>0</asrwt>
<pdfrwt beam="1">  1        2 0.60647099E+00 0.17604130E+03</pdfrwt>
<pdfrwt beam="2">  1       -2 0.30236560E-03 0.17604130E+03</pdfrwt>
<totfact> 0.59765317E+03</totfact>
</mgrwt>
</event>
<event>
 4    1  0.2489209E-004  0.2473214E+03  0.7818608E-02  0.1115009E+00
          2   -1    0    0  501    0  0.00000000000E+00  0.00000000000E+00  0.43081973466E+04  0.43081973466E+04  0.25500000000E-02 0.  1.
         -2   -1    0    0    0  501 -0.00000000000E+00 -0.00000000000E+00 -0.35495038337E+01  0.35495047497E+01  0.25500000000E-02 0. -1.
    5000001    1    1    2    0    0 -0.56390700643E+02 -0.77763952240E+02  0.19491462338E+04  0.19530302569E+04  0.77000000000E+02 0.  0.
   -5000001    1    1    2    0    0  0.56390700643E+02  0.77763952240E+02  0.23555016089E+04  0.23587165945E+04  0.77000000000E+02 0.  0.
<mgrwt>
<rscale>  0 0.24732137E+03</rscale>
<asrwt>0</asrwt>
<pdfrwt beam="1">  1        2 0.66280101E+00 0.24732137E+03</pdfrwt>
<pdfrwt beam="2">  1       -2 0.54607642E-03 0.24732137E+03</pdfrwt>
<totfact> 0.12968111E+03</totfact>
</mgrwt>
</event>
<event>
 4    1  0.2489209E-004  0.2332091E+03  0.7818608E-02  0.1124401E+00
          2   -1    0    0  501    0  0.00000000000E+00  0.00000000000E+00  0.11910010469E+04  0.11910010469E+04  0.25500000000E-02 0.  1.
         -2   -1    0    0    0  501 -0.00000000000E+00 -0.00000000000E+00 -0.11416133168E+02  0.11416133453E+02  0.25500000000E-02 0. -1.
    5000001    1    1    2    0    0  0.61851999665E+02 -0.35737438138E+01  0.90884541593E+03  0.91420316755E+03  0.77000000000E+02 0.  0.
   -5000001    1    1    2    0    0 -0.61851999665E+02  0.35737438138E+01  0.27073949785E+03  0.28821401285E+03  0.77000000000E+02 0.  0.
<mgrwt>
<rscale>  0 0.23320915E+03</rscale>
<asrwt>0</asrwt>
<pdfrwt beam="1">  1        2 0.18323086E+00 0.23320915E+03</pdfrwt>
<pdfrwt beam="2">  1       -2 0.17563289E-02 0.23320915E+03</pdfrwt>
<totfact> 0.18752033E+04</totfact>
</mgrwt>
</event>
<event>
 4    1  0.2489209E-004  0.3583403E+03  0.7818608E-02  0.1059243E+00
         -2   -1    0    0    0  501 -0.00000000000E+00  0.00000000000E+00  0.11581303444E+02  0.11581303724E+02  0.25500000000E-02 0. -1.
          2   -1    0    0  501    0  0.00000000000E+00 -0.00000000000E+00 -0.27718770629E+04  0.27718770629E+04  0.25500000000E-02 0.  1.
    5000001    1    1    2    0    0 -0.90676211122E+02  0.13393150243E+03 -0.13520046195E+04  0.13638201178E+04  0.77000000000E+02 0.  0.
   -5000001    1    1    2    0    0  0.90676211122E+02 -0.13393150243E+03 -0.14082911400E+04  0.14196382489E+04  0.77000000000E+02 0.  0.
<mgrwt>
<rscale>  0 0.35834034E+03</rscale>
<asrwt>0</asrwt>
<pdfrwt beam="1">  1        2 0.42644210E+00 0.35834034E+03</pdfrwt>
<pdfrwt beam="2">  1       -2 0.17817412E-02 0.35834034E+03</pdfrwt>
<totfact> 0.25714475E+03</totfact>
</mgrwt>
</event>
<event>
 4    1  0.2489209E-004  0.3198275E+03  0.7818608E-02  0.1075729E+00
          2   -1    0    0  501    0  0.00000000000E+00  0.00000000000E+00  0.18911886566E+04  0.18911886566E+04  0.25500000000E-02 0.  1.
         -2   -1    0    0    0  501 -0.00000000000E+00 -0.00000000000E+00 -0.13521872801E+02  0.13521873041E+02  0.25500000000E-02 0. -1.
    5000001    1    1    2    0    0 -0.81163384056E+02  0.11277144769E+03  0.82926021566E+03  0.84433784683E+03  0.77000000000E+02 0.  0.
   -5000001    1    1    2    0    0  0.81163384056E+02 -0.11277144769E+03  0.10484065682E+04  0.10603726828E+04  0.77000000000E+02 0.  0.
<mgrwt>
<rscale>  0 0.31982753E+03</rscale>
<asrwt>0</asrwt>
<pdfrwt beam="1">  1        2 0.29095207E+00 0.31982753E+03</pdfrwt>
<pdfrwt beam="2">  1       -2 0.20802884E-02 0.31982753E+03</pdfrwt>
<totfact> 0.61874456E+03</totfact>
</mgrwt>
</event>
<event>
 4    1  0.2489209E-004  0.2219991E+03  0.7818608E-02  0.1132401E+00
          2   -1    0    0  501    0  0.00000000000E+00  0.00000000000E+00  0.14569245565E+04  0.14569245565E+04  0.25500000000E-02 0.  1.
         -2   -1    0    0    0  501 -0.00000000000E+00 -0.00000000000E+00 -0.84567891195E+01  0.84567895040E+01  0.25500000000E-02 0. -1.
    5000001    1    1    2    0    0 -0.67245038009E+02 -0.38807277197E+02  0.59829712088E+03  0.60820748495E+03  0.77000000000E+02 0.  0.
   -5000001    1    1    2    0    0  0.67245038009E+02  0.38807277197E+02  0.85017064647E+03  0.85717386102E+03  0.77000000000E+02 0.  0.
<mgrwt>
<rscale>  0 0.22199914E+03</rscale>
<asrwt>0</asrwt>
<pdfrwt beam="1">  1        2 0.22414257E+00 0.22199914E+03</pdfrwt>
<pdfrwt beam="2">  1       -2 0.13010426E-02 0.22199914E+03</pdfrwt>
<totfact> 0.20706661E+04</totfact>
</mgrwt>
</event>
<event>
 4    1  0.2489209E-004  0.2699061E+03  0.7818608E-02  0.1101333E+00
          2   -1    0    0  501    0  0.00000000000E+00  0.00000000000E+00  0.19605557029E+04  0.19605557029E+04  0.25500000000E-02 0.  1.
         -2   -1    0    0    0  501 -0.00000000000E+00 -0.00000000000E+00 -0.92893719538E+01  0.92893723038E+01  0.25500000000E-02 0. -1.
    5000001    1    1    2    0    0  0.57751282333E+02 -0.67727576736E+02  0.49366634952E+03  0.50750142848E+03  0.77000000000E+02 0.  0.
   -5000001    1    1    2    0    0 -0.57751282333E+02  0.67727576736E+02  0.14575999814E+04  0.14623436467E+04  0.77000000000E+02 0.  0.
<mgrwt>
<rscale>  0 0.26990614E+03</rscale>
<asrwt>0</asrwt>
<pdfrwt beam="1">  1        2 0.30162427E+00 0.26990614E+03</pdfrwt>
<pdfrwt beam="2">  1       -2 0.14291327E-02 0.26990614E+03</pdfrwt>
<totfact> 0.98664683E+03</totfact>
</mgrwt>
</event>
<event>
 4    1  0.2489209E-004  0.2479209E+03  0.7818608E-02  0.1114626E+00
          2   -1    0    0  501    0  0.00000000000E+00  0.00000000000E+00  0.91270616116E+03  0.91270616116E+03  0.25500000000E-02 0.  1.
         -2   -1    0    0    0  501 -0.00000000000E+00 -0.00000000000E+00 -0.16835855714E+02  0.16835855907E+02  0.25500000000E-02 0. -1.
    5000001    1    1    2    0    0  0.53219437563E+02  0.34233690299E+02  0.72429389288E+03  0.73111893516E+03  0.77000000000E+02 0.  0.
   -5000001    1    1    2    0    0 -0.53219437563E+02 -0.34233690299E+02  0.17157641256E+03  0.19842308191E+03  0.77000000000E+02 0.  0.
<mgrwt>
<rscale>  0 0.24792087E+03</rscale>
<asrwt>0</asrwt>
<pdfrwt beam="1">  1        2 0.14041636E+00 0.24792087E+03</pdfrwt>
<pdfrwt beam="2">  1       -2 0.25901312E-02 0.24792087E+03</pdfrwt>
<totfact> 0.15584752E+04</totfact>
</mgrwt>
</event>
<event>
 4    1  0.2489209E-004  0.1771092E+03  0.7818608E-02  0.1170630E+00
          2   -1    0    0  501    0  0.00000000000E+00  0.00000000000E+00  0.74936569914E+03  0.74936569915E+03  0.25500000000E-02 0.  1.
         -2   -1    0    0    0  501 -0.00000000000E+00 -0.00000000000E+00 -0.10464738756E+02  0.10464739066E+02  0.25500000000E-02 0. -1.
    5000001    1    1    2    0    0  0.43014229695E+02  0.34960792620E+01  0.39992884535E+03  0.40955405977E+03  0.77000000000E+02 0.  0.
   -5000001    1    1    2    0    0 -0.43014229695E+02 -0.34960792620E+01  0.33897211503E+03  0.35027637844E+03  0.77000000000E+02 0.  0.
<mgrwt>
<rscale>  0 0.17710919E+03</rscale>
<asrwt>0</asrwt>
<pdfrwt beam="1">  1        2 0.11528702E+00 0.17710919E+03</pdfrwt>
<pdfrwt beam="2">  1       -2 0.16099599E-02 0.17710919E+03</pdfrwt>
<totfact> 0.39401256E+04</totfact>
</mgrwt>
</event>
<event>
 4    1  0.2489209E-004  0.2410310E+03  0.7818608E-02  0.1119108E+00
          2   -1    0    0  501    0  0.00000000000E+00  0.00000000000E+00  0.37295798487E+03  0.37295798488E+03  0.25500000000E-02 0.  1.
         -2   -1    0    0    0  501 -0.00000000000E+00 -0.00000000000E+00 -0.38942698129E+02  0.38942698212E+02  0.25500000000E-02 0. -1.
    5000001    1    1    2    0    0  0.13996415684E+02  0.84679901401E+02  0.22690260759E+03  0.25451989841E+03  0.77000000000E+02 0.  0.
   -5000001    1    1    2    0    0 -0.13996415684E+02 -0.84679901401E+02  0.10711267915E+03  0.15738078469E+03  0.77000000000E+02 0.  0.
<mgrwt>
<rscale>  0 0.24103104E+03</rscale>
<asrwt>0</asrwt>
<pdfrwt beam="1">  1        2 0.57378154E-01 0.24103104E+03</pdfrwt>
<pdfrwt beam="2">  1       -2 0.59911841E-02 0.24103104E+03</pdfrwt>
<totfact> 0.12587179E+04</totfact>
</mgrwt>
</event>
<event>
 4    1  0.2489209E-004  0.3202954E+03  0.7818608E-02  0.1075513E+00
          2   -1    0    0  501    0  0.00000000000E+00  0.00000000000E+00  0.31001400469E+04  0.31001400469E+04  0.25500000000E-02 0.  1.
         -2   -1    0    0    0  501 -0.00000000000E+00 -0.00000000000E+00 -0.82729444051E+01  0.82729447981E+01  0.25500000000E-02 0. -1.
    5000001    1    1    2    0    0 -0.72176160246E+02  0.87328527377E+02  0.23510613254E+04  0.23550486249E+04  0.77000000000E+02 0.  0.
   -5000001    1    1    2    0    0  0.72176160246E+02 -0.87328527377E+02  0.74080577710E+03  0.75336436681E+03  0.77000000000E+02 0.  0.
<mgrwt>
<rscale>  0 0.32029541E+03</rscale>
<asrwt>0</asrwt>
<pdfrwt beam="1">  1        2 0.47694454E+00 0.32029541E+03</pdfrwt>
<pdfrwt beam="2">  1       -2 0.12727609E-02 0.32029541E+03</pdfrwt>
<totfact> 0.27099070E+03</totfact>
</mgrwt>
</event>
<event>
 4    1  0.2489209E-004  0.1858098E+03  0.7818608E-02  0.1162296E+00
         -2   -1    0    0    0  501 -0.00000000000E+00  0.00000000000E+00  0.37880539380E+02  0.37880539466E+02  0.25500000000E-02 0. -1.
          2   -1    0    0  501    0  0.00000000000E+00 -0.00000000000E+00 -0.22785628121E+03  0.22785628122E+03  0.25500000000E-02 0.  1.
    5000001    1    1    2    0    0  0.13421400400E+02 -0.49733476347E+02 -0.85000698098E+02  0.12572856213E+03  0.77000000000E+02 0.  0.
   -5000001    1    1    2    0    0 -0.13421400400E+02  0.49733476347E+02 -0.10497504373E+03  0.14000825856E+03  0.77000000000E+02 0.  0.
<mgrwt>
<rscale>  0 0.18580978E+03</rscale>
<asrwt>0</asrwt>
<pdfrwt beam="1">  1        2 0.35054812E-01 0.18580978E+03</pdfrwt>
<pdfrwt beam="2">  1       -2 0.58277754E-02 0.18580978E+03</pdfrwt>
<totfact> 0.21897565E+04</totfact>
</mgrwt>
</event>
<event>
 4    1  0.2489209E-004  0.2015102E+03  0.7818608E-02  0.1148471E+00
          2   -1    0    0  501    0  0.00000000000E+00  0.00000000000E+00  0.10093122681E+04  0.10093122681E+04  0.25500000000E-02 0.  1.
         -2   -1    0    0    0  501 -0.00000000000E+00 -0.00000000000E+00 -0.10057926326E+02  0.10057926649E+02  0.25500000000E-02 0. -1.
    5000001    1    1    2    0    0  0.25446727715E+02  0.33632996806E+02  0.74970451696E+03  0.75482751485E+03  0.77000000000E+02 0.  0.
   -5000001    1    1    2    0    0 -0.25446727715E+02 -0.33632996806E+02  0.24954982483E+03  0.26454267992E+03  0.77000000000E+02 0.  0.
<mgrwt>
<rscale>  0 0.20151018E+03</rscale>
<asrwt>0</asrwt>
<pdfrwt beam="1">  1        2 0.15527878E+00 0.20151018E+03</pdfrwt>
<pdfrwt beam="2">  1       -2 0.15473736E-02 0.20151018E+03</pdfrwt>
<totfact> 0.28560981E+04</totfact>
</mgrwt>
</event>
<event>
 4    1  0.2489209E-004  0.2155494E+03  0.7818608E-02  0.1137245E+00
         -2   -1    0    0    0  501 -0.00000000000E+00  0.00000000000E+00  0.21196045643E+02  0.21196045796E+02  0.25500000000E-02 0. -1.
          2   -1    0    0  501    0  0.00000000000E+00 -0.00000000000E+00 -0.54799781203E+03  0.54799781204E+03  0.25500000000E-02 0.  1.
    5000001    1    1    2    0    0 -0.62774147385E+02 -0.37764989453E+02 -0.31060891095E+03  0.32828902444E+03  0.77000000000E+02 0.  0.
   -5000001    1    1    2    0    0  0.62774147385E+02  0.37764989453E+02 -0.21619285544E+03  0.24090483339E+03  0.77000000000E+02 0.  0.
<mgrwt>
<rscale>  0 0.21554941E+03</rscale>
<asrwt>0</asrwt>
<pdfrwt beam="1">  1        2 0.84307345E-01 0.21554941E+03</pdfrwt>
<pdfrwt beam="2">  1       -2 0.32609305E-02 0.21554941E+03</pdfrwt>
<totfact> 0.20484055E+04</totfact>
</mgrwt>
</event>
<event>
 4    1  0.2489209E-004  0.1947883E+03  0.7818608E-02  0.1154212E+00
          2   -1    0    0  501    0  0.00000000000E+00  0.00000000000E+00  0.33537648591E+03  0.33537648592E+03  0.25500000000E-02 0.  1.
         -2   -1    0    0    0  501 -0.00000000000E+00 -0.00000000000E+00 -0.28283498683E+02  0.28283498798E+02  0.25500000000E-02 0. -1.
    5000001    1    1    2    0    0  0.57884789711E+02  0.13524671940E+02  0.14458225870E+03  0.17426013647E+03  0.77000000000E+02 0.  0.
   -5000001    1    1    2    0    0 -0.57884789711E+02 -0.13524671940E+02  0.16251072853E+03  0.18939984826E+03  0.77000000000E+02 0.  0.
<mgrwt>
<rscale>  0 0.19478830E+03</rscale>
<asrwt>0</asrwt>
<pdfrwt beam="1">  1        2 0.51596380E-01 0.19478830E+03</pdfrwt>
<pdfrwt beam="2">  1       -2 0.43513077E-02 0.19478830E+03</pdfrwt>
<totfact> 0.22598137E+04</totfact>
</mgrwt>
</event>
<event>
 4    1  0.2489209E-004  0.1755878E+03  0.7818608E-02  0.1172143E+00
          2   -1    0    0  501    0  0.00000000000E+00  0.00000000000E+00  0.39435710371E+03  0.39435710371E+03  0.25500000000E-02 0.  1.
         -2   -1    0    0    0  501 -0.00000000000E+00 -0.00000000000E+00 -0.19545151340E+02  0.19545151506E+02  0.25500000000E-02 0. -1.
    5000001    1    1    2    0    0  0.11202640732E+02  0.40486772544E+02  0.19625469733E+03  0.21496414616E+03  0.77000000000E+02 0.  0.
   -5000001    1    1    2    0    0 -0.11202640732E+02 -0.40486772544E+02  0.17855725504E+03  0.19893810906E+03  0.77000000000E+02 0.  0.
<mgrwt>
<rscale>  0 0.17558780E+03</rscale>
<asrwt>0</asrwt>
<pdfrwt beam="1">  1        2 0.60670315E-01 0.17558780E+03</pdfrwt>
<pdfrwt beam="2">  1       -2 0.30069468E-02 0.17558780E+03</pdfrwt>
<totfact> 0.32642493E+04</totfact>
</mgrwt>
</event>
<event>
 4    1  0.2489209E-004  0.1883830E+03  0.7818608E-02  0.1159928E+00
          2   -1    0    0  501    0  0.00000000000E+00  0.00000000000E+00  0.23048606807E+04  0.23048606807E+04  0.25500000000E-02 0.  1.
         -2   -1    0    0    0  501 -0.00000000000E+00 -0.00000000000E+00 -0.38492712171E+01  0.38492720617E+01  0.25500000000E-02 0. -1.
    5000001    1    1    2    0    0  0.37739526592E+02  0.38716350691E+02  0.10959627026E+04  0.10999938514E+04  0.77000000000E+02 0.  0.
   -5000001    1    1    2    0    0 -0.37739526592E+02 -0.38716350691E+02  0.12050487069E+04  0.12087161013E+04  0.77000000000E+02 0.  0.
<mgrwt>
<rscale>  0 0.18838296E+03</rscale>
<asrwt>0</asrwt>
<pdfrwt beam="1">  1        2 0.35459435E+00 0.18838296E+03</pdfrwt>
<pdfrwt beam="2">  1       -2 0.59219496E-03 0.18838296E+03</pdfrwt>
<totfact> 0.23004268E+04</totfact>
</mgrwt>
</event>
<event>
 4    1  0.2489209E-004  0.1842655E+03  0.7818608E-02  0.1163738E+00
         -2   -1    0    0    0  501 -0.00000000000E+00  0.00000000000E+00  0.13399209765E+03  0.13399209767E+03  0.25500000000E-02 0. -1.
          2   -1    0    0  501    0  0.00000000000E+00 -0.00000000000E+00 -0.63350345662E+02  0.63350345714E+02  0.25500000000E-02 0.  1.
    5000001    1    1    2    0    0 -0.34557665895E+02  0.36422712380E+02  0.41974634498E+02  0.10105303652E+03  0.77000000000E+02 0.  0.
   -5000001    1    1    2    0    0  0.34557665895E+02 -0.36422712380E+02  0.28667117488E+02  0.96289406864E+02  0.77000000000E+02 0.  0.
<mgrwt>
<rscale>  0 0.18426552E+03</rscale>
<asrwt>0</asrwt>
<pdfrwt beam="1">  1        2 0.97462072E-02 0.18426552E+03</pdfrwt>
<pdfrwt beam="2">  1       -2 0.20614169E-01 0.18426552E+03</pdfrwt>
<totfact> 0.12662598E+04</totfact>
</mgrwt>
</event>
<event>
 4    1  0.2489209E-004  0.4225506E+03  0.7818608E-02  0.1036239E+00
          2   -1    0    0  501    0  0.00000000000E+00  0.00000000000E+00  0.46993086256E+03  0.46993086257E+03  0.25500000000E-02 0.  1.
         -2   -1    0    0    0  501 -0.00000000000E+00 -0.00000000000E+00 -0.94986867259E+02  0.94986867293E+02  0.25500000000E-02 0. -1.
    5000001    1    1    2    0    0  0.16735191495E+03 -0.92580391427E+02  0.12576364295E+03  0.24150214534E+03  0.77000000000E+02 0.  0.
   -5000001    1    1    2    0    0 -0.16735191495E+03  0.92580391427E+02  0.24918035236E+03  0.32341558453E+03  0.77000000000E+02 0.  0.
<mgrwt>
<rscale>  0 0.42255064E+03</rscale>
<asrwt>0</asrwt>
<pdfrwt beam="1">  1        2 0.72297056E-01 0.42255064E+03</pdfrwt>
<pdfrwt beam="2">  1       -2 0.14613364E-01 0.42255064E+03</pdfrwt>
<totfact> 0.24018310E+03</totfact>
</mgrwt>
</event>
<event>
 4    1  0.2489209E-004  0.2257454E+03  0.7818608E-02  0.1129671E+00
         -2   -1    0    0    0  501 -0.00000000000E+00  0.00000000000E+00  0.42210333203E+02  0.42210333280E+02  0.25500000000E-02 0. -1.
          2   -1    0    0  501    0  0.00000000000E+00 -0.00000000000E+00 -0.30182772310E+03  0.30182772311E+03  0.25500000000E-02 0.  1.
    5000001    1    1    2    0    0  0.32603099767E+02  0.74577253293E+02 -0.15062243783E+03  0.18772545805E+03  0.77000000000E+02 0.  0.
   -5000001    1    1    2    0    0 -0.32603099767E+02 -0.74577253293E+02 -0.10899495207E+03  0.15631259834E+03  0.77000000000E+02 0.  0.
<mgrwt>
<rscale>  0 0.22574542E+03</rscale>
<asrwt>0</asrwt>
<pdfrwt beam="1">  1        2 0.46435033E-01 0.22574542E+03</pdfrwt>
<pdfrwt beam="2">  1       -2 0.64938976E-02 0.22574542E+03</pdfrwt>
<totfact> 0.13913190E+04</totfact>
</mgrwt>
</event>
<event>
 4    1  0.2489209E-004  0.3818248E+03  0.7818608E-02  0.1050261E+00
          2   -1    0    0  501    0  0.00000000000E+00  0.00000000000E+00  0.81721390970E+03  0.81721390971E+03  0.25500000000E-02 0.  1.
         -2   -1    0    0    0  501 -0.00000000000E+00 -0.00000000000E+00 -0.44599767071E+02  0.44599767144E+02  0.25500000000E-02 0. -1.
    5000001    1    1    2    0    0 -0.16324294200E+03  0.61842119748E+02  0.37102468236E+03  0.41720620897E+03  0.77000000000E+02 0.  0.
   -5000001    1    1    2    0    0  0.16324294200E+03 -0.61842119748E+02  0.40158946028E+03  0.44460746788E+03  0.77000000000E+02 0.  0.
<mgrwt>
<rscale>  0 0.38182483E+03</rscale>
<asrwt>0</asrwt>
<pdfrwt beam="1">  1        2 0.12572522E+00 0.38182483E+03</pdfrwt>
<pdfrwt beam="2">  1       -2 0.68615027E-02 0.38182483E+03</pdfrwt>
<totfact> 0.41699117E+03</totfact>
</mgrwt>
</event>
<event>
 4    1  0.2489209E-004  0.2032549E+03  0.7818608E-02  0.1147022E+00
          2   -1    0    0  501    0  0.00000000000E+00  0.00000000000E+00  0.54937233005E+03  0.54937233006E+03  0.25500000000E-02 0.  1.
         -2   -1    0    0    0  501 -0.00000000000E+00 -0.00000000000E+00 -0.18799880923E+02  0.18799881096E+02  0.25500000000E-02 0. -1.
    5000001    1    1    2    0    0 -0.33935326167E+02  0.56806301262E+02  0.27796506566E+03  0.29592590281E+03  0.77000000000E+02 0.  0.
   -5000001    1    1    2    0    0  0.33935326167E+02 -0.56806301262E+02  0.25260738347E+03  0.27224630835E+03  0.77000000000E+02 0.  0.
<mgrwt>
<rscale>  0 0.20325486E+03</rscale>
<asrwt>0</asrwt>
<pdfrwt beam="1">  1        2 0.84518812E-01 0.20325486E+03</pdfrwt>
<pdfrwt beam="2">  1       -2 0.28922896E-02 0.20325486E+03</pdfrwt>
<totfact> 0.24305368E+04</totfact>
</mgrwt>
</event>
<event>
 4    1  0.2489209E-004  0.2168330E+03  0.7818608E-02  0.1136266E+00
         -2   -1    0    0    0  501 -0.00000000000E+00  0.00000000000E+00  0.16321401106E+02  0.16321401305E+02  0.25500000000E-02 0. -1.
          2   -1    0    0  501    0  0.00000000000E+00 -0.00000000000E+00 -0.72016726796E+03  0.72016726797E+03  0.25500000000E-02 0.  1.
    5000001    1    1    2    0    0 -0.69501196462E+02 -0.87543059716E+01 -0.24900713495E+03  0.26988999137E+03  0.77000000000E+02 0.  0.
   -5000001    1    1    2    0    0  0.69501196462E+02  0.87543059716E+01 -0.45483873190E+03  0.46659867791E+03  0.77000000000E+02 0.  0.
<mgrwt>
<rscale>  0 0.21683301E+03</rscale>
<asrwt>0</asrwt>
<pdfrwt beam="1">  1        2 0.11079494E+00 0.21683301E+03</pdfrwt>
<pdfrwt beam="2">  1       -2 0.25109854E-02 0.21683301E+03</pdfrwt>
<totfact> 0.21915424E+04</totfact>
</mgrwt>
</event>
<event>
 4    1  0.2489209E-004  0.2287477E+03  0.7818608E-02  0.1127524E+00
         -2   -1    0    0    0  501 -0.00000000000E+00  0.00000000000E+00  0.25252699066E+02  0.25252699195E+02  0.25500000000E-02 0. -1.
          2   -1    0    0  501    0  0.00000000000E+00 -0.00000000000E+00 -0.51801901148E+03  0.51801901148E+03  0.25500000000E-02 0.  1.
    5000001    1    1    2    0    0  0.68034406660E+02 -0.46020293676E+02 -0.29422771910E+03  0.31503253579E+03  0.77000000000E+02 0.  0.
   -5000001    1    1    2    0    0 -0.68034406660E+02  0.46020293676E+02 -0.19853859331E+03  0.22823917489E+03  0.77000000000E+02 0.  0.
<mgrwt>
<rscale>  0 0.22874771E+03</rscale>
<asrwt>0</asrwt>
<pdfrwt beam="1">  1        2 0.79695225E-01 0.22874771E+03</pdfrwt>
<pdfrwt beam="2">  1       -2 0.38850310E-02 0.22874771E+03</pdfrwt>
<totfact> 0.16867269E+04</totfact>
</mgrwt>
</event>
<event>
 4    1  0.2489209E-004  0.2369628E+03  0.7818608E-02  0.1121833E+00
         -2   -1    0    0    0  501 -0.00000000000E+00  0.00000000000E+00  0.50298623870E+01  0.50298630333E+01  0.25500000000E-02 0. -1.
          2   -1    0    0  501    0  0.00000000000E+00 -0.00000000000E+00 -0.27908986273E+04  0.27908986273E+04  0.25500000000E-02 0.  1.
    5000001    1    1    2    0    0  0.38428481396E+02 -0.56766817888E+02 -0.20819019447E+04  0.20844529083E+04  0.77000000000E+02 0.  0.
   -5000001    1    1    2    0    0 -0.38428481396E+02  0.56766817888E+02 -0.70396682024E+03  0.71147558201E+03  0.77000000000E+02 0.  0.
<mgrwt>
<rscale>  0 0.23696276E+03</rscale>
<asrwt>0</asrwt>
<pdfrwt beam="1">  1        2 0.42936778E+00 0.23696276E+03</pdfrwt>
<pdfrwt beam="2">  1       -2 0.77382726E-03 0.23696276E+03</pdfrwt>
<totfact> 0.85278245E+03</totfact>
</mgrwt>
</event>
<event>
 4    1  0.2489209E-004  0.3728749E+03  0.7818608E-02  0.1053599E+00
         -2   -1    0    0    0  501 -0.00000000000E+00  0.00000000000E+00  0.32880641949E+02  0.32880642048E+02  0.25500000000E-02 0. -1.
          2   -1    0    0  501    0  0.00000000000E+00 -0.00000000000E+00 -0.10571240564E+04  0.10571240564E+04  0.25500000000E-02 0.  1.
    5000001    1    1    2    0    0  0.68964130407E+02 -0.10077587293E+03 -0.85699143100E+03  0.86906567109E+03  0.77000000000E+02 0.  0.
   -5000001    1    1    2    0    0 -0.68964130407E+02  0.10077587293E+03 -0.16725198347E+03  0.22093902739E+03  0.77000000000E+02 0.  0.
<mgrwt>
<rscale>  0 0.37287487E+03</rscale>
<asrwt>0</asrwt>
<pdfrwt beam="1">  1        2 0.16263444E+00 0.37287487E+03</pdfrwt>
<pdfrwt beam="2">  1       -2 0.50585611E-02 0.37287487E+03</pdfrwt>
<totfact> 0.46810771E+03</totfact>
</mgrwt>
</event>
<event>
 4    1  0.2489209E-004  0.3631428E+03  0.7818608E-02  0.1057346E+00
          2   -1    0    0  501    0  0.00000000000E+00  0.00000000000E+00  0.10927163451E+03  0.10927163454E+03  0.25500000000E-02 0.  1.
         -2   -1    0    0    0  501 -0.00000000000E+00 -0.00000000000E+00 -0.30170843447E+03  0.30170843448E+03  0.25500000000E-02 0. -1.
    5000001    1    1    2    0    0 -0.57660508382E+02 -0.15391817213E+03 -0.90716294396E+02  0.20291373538E+03  0.77000000000E+02 0.  0.
   -5000001    1    1    2    0    0  0.57660508382E+02  0.15391817213E+03 -0.10172050557E+03  0.20806633363E+03  0.77000000000E+02 0.  0.
<mgrwt>
<rscale>  0 0.36314280E+03</rscale>
<asrwt>0</asrwt>
<pdfrwt beam="1">  1        2 0.16811021E-01 0.36314280E+03</pdfrwt>
<pdfrwt beam="2">  1       -2 0.46416682E-01 0.36314280E+03</pdfrwt>
<totfact> 0.15249557E+03</totfact>
</mgrwt>
</event>
<event>
 4    1  0.2489209E-004  0.6653369E+03  0.7818608E-02  0.9778419E-01
         -2   -1    0    0    0  501 -0.00000000000E+00  0.00000000000E+00  0.54167328645E+02  0.54167328705E+02  0.25500000000E-02 0. -1.
          2   -1    0    0  501    0  0.00000000000E+00 -0.00000000000E+00 -0.20430823635E+04  0.20430823635E+04  0.25500000000E-02 0.  1.
    5000001    1    1    2    0    0  0.53024593003E+01 -0.31483545221E+03 -0.75878549732E+03  0.82512660179E+03  0.77000000000E+02 0.  0.
   -5000001    1    1    2    0    0 -0.53024593003E+01  0.31483545221E+03 -0.12301295375E+04  0.12721230904E+04  0.77000000000E+02 0.  0.
<mgrwt>
<rscale>  0 0.66533695E+03</rscale>
<asrwt>0</asrwt>
<pdfrwt beam="1">  1        2 0.31432030E+00 0.66533695E+03</pdfrwt>
<pdfrwt beam="2">  1       -2 0.83334368E-02 0.66533695E+03</pdfrwt>
<totfact> 0.60057223E+02</totfact>
</mgrwt>
</event>
<event>
 4    1  0.2489209E-004  0.2546922E+03  0.7818608E-02  0.1110375E+00
          2   -1    0    0  501    0  0.00000000000E+00  0.00000000000E+00  0.33690365791E+02  0.33690365888E+02  0.25500000000E-02 0.  1.
         -2   -1    0    0    0  501 -0.00000000000E+00 -0.00000000000E+00 -0.48135511828E+03  0.48135511829E+03  0.25500000000E-02 0. -1.
    5000001    1    1    2    0    0 -0.46468205964E+02 -0.88798381530E+02 -0.25539358957E+03  0.28495496543E+03  0.77000000000E+02 0.  0.
   -5000001    1    1    2    0    0  0.46468205964E+02  0.88798381530E+02 -0.19227116292E+03  0.23009051875E+03  0.77000000000E+02 0.  0.
<mgrwt>
<rscale>  0 0.25469221E+03</rscale>
<asrwt>0</asrwt>
<pdfrwt beam="1">  1        2 0.51831336E-02 0.25469221E+03</pdfrwt>
<pdfrwt beam="2">  1       -2 0.74054629E-01 0.25469221E+03</pdfrwt>
<totfact> 0.25149012E+03</totfact>
</mgrwt>
</event>
<event>
 4    1  0.2489209E-004  0.2899990E+03  0.7818608E-02  0.1090350E+00
          2   -1    0    0  501    0  0.00000000000E+00  0.00000000000E+00  0.15014751315E+03  0.15014751317E+03  0.25500000000E-02 0.  1.
         -2   -1    0    0    0  501 -0.00000000000E+00 -0.00000000000E+00 -0.14002798296E+03  0.14002798298E+03  0.25500000000E-02 0. -1.
    5000001    1    1    2    0    0 -0.50692804071E+01 -0.90906483984E+02 -0.77489944863E+02  0.14220892373E+03  0.77000000000E+02 0.  0.
   -5000001    1    1    2    0    0  0.50692804071E+01  0.90906483984E+02  0.87609475056E+02  0.14796657242E+03  0.77000000000E+02 0.  0.
<mgrwt>
<rscale>  0 0.28999899E+03</rscale>
<asrwt>0</asrwt>
<pdfrwt beam="1">  1        2 0.23099617E-01 0.28999899E+03</pdfrwt>
<pdfrwt beam="2">  1       -2 0.21542767E-01 0.28999899E+03</pdfrwt>
<totfact> 0.43317086E+03</totfact>
</mgrwt>
</event>
<event>
 4    1  0.2489209E-004  0.2026311E+03  0.7818608E-02  0.1147538E+00
          2   -1    0    0  501    0  0.00000000000E+00  0.00000000000E+00  0.62710380173E+03  0.62710380174E+03  0.25500000000E-02 0.  1.
         -2   -1    0    0    0  501 -0.00000000000E+00 -0.00000000000E+00 -0.16368639535E+02  0.16368639734E+02  0.25500000000E-02 0. -1.
    5000001    1    1    2    0    0 -0.30655875655E+02  0.17548061959E+02  0.48183760970E+03  0.48922816693E+03  0.77000000000E+02 0.  0.
   -5000001    1    1    2    0    0  0.30655875655E+02 -0.17548061959E+02  0.12889755250E+03  0.15424427455E+03  0.77000000000E+02 0.  0.
<mgrwt>
<rscale>  0 0.20263106E+03</rscale>
<asrwt>0</asrwt>
<pdfrwt beam="1">  1        2 0.96477489E-01 0.20263106E+03</pdfrwt>
<pdfrwt beam="2">  1       -2 0.25182527E-02 0.20263106E+03</pdfrwt>
<totfact> 0.25612319E+04</totfact>
</mgrwt>
</event>
<event>
 4    1  0.2489209E-004  0.2008384E+03  0.7818608E-02  0.1149034E+00
          2   -1    0    0  501    0  0.00000000000E+00  0.00000000000E+00  0.26725811853E+03  0.26725811854E+03  0.25500000000E-02 0.  1.
         -2   -1    0    0    0  501 -0.00000000000E+00 -0.00000000000E+00 -0.37731355622E+02  0.37731355708E+02  0.25500000000E-02 0. -1.
    5000001    1    1    2    0    0  0.39429990555E+02 -0.27698101970E+02  0.17978107023E+03  0.20142527702E+03  0.77000000000E+02 0.  0.
   -5000001    1    1    2    0    0 -0.39429990555E+02  0.27698101970E+02  0.49745692670E+02  0.10356419723E+03  0.77000000000E+02 0.  0.
<mgrwt>
<rscale>  0 0.20083835E+03</rscale>
<asrwt>0</asrwt>
<pdfrwt beam="1">  1        2 0.41116633E-01 0.20083835E+03</pdfrwt>
<pdfrwt beam="2">  1       -2 0.58048240E-02 0.20083835E+03</pdfrwt>
<totfact> 0.18671559E+04</totfact>
</mgrwt>
</event>
<event>
 4    1  0.2489209E-004  0.3238507E+03  0.7818608E-02  0.1073891E+00
          2   -1    0    0  501    0  0.00000000000E+00  0.00000000000E+00  0.53773151548E+03  0.53773151549E+03  0.25500000000E-02 0.  1.
         -2   -1    0    0    0  501 -0.00000000000E+00 -0.00000000000E+00 -0.48760062976E+02  0.48760063043E+02  0.25500000000E-02 0. -1.
    5000001    1    1    2    0    0 -0.82884628106E+02  0.57199666311E+02  0.42693071644E+03  0.44535435334E+03  0.77000000000E+02 0.  0.
   -5000001    1    1    2    0    0  0.82884628106E+02 -0.57199666311E+02  0.62040736068E+02  0.14113722519E+03  0.77000000000E+02 0.  0.
<mgrwt>
<rscale>  0 0.32385072E+03</rscale>
<asrwt>0</asrwt>
<pdfrwt beam="1">  1        2 0.82727921E-01 0.32385072E+03</pdfrwt>
<pdfrwt beam="2">  1       -2 0.75015485E-02 0.32385072E+03</pdfrwt>
<totfact> 0.60030057E+03</totfact>
</mgrwt>
</event>
<event>
 4    1  0.2489209E-004  0.2194717E+03  0.7818608E-02  0.1134277E+00
         -2   -1    0    0    0  501 -0.00000000000E+00  0.00000000000E+00  0.11367328477E+03  0.11367328480E+03  0.25500000000E-02 0. -1.
          2   -1    0    0  501    0  0.00000000000E+00 -0.00000000000E+00 -0.10593484803E+03  0.10593484806E+03  0.25500000000E-02 0.  1.
    5000001    1    1    2    0    0 -0.32526261252E+01  0.75728078807E+02  0.23055091227E+02  0.11048012820E+03  0.77000000000E+02 0.  0.
   -5000001    1    1    2    0    0  0.32526261252E+01 -0.75728078807E+02 -0.15316654489E+02  0.10912800466E+03  0.77000000000E+02 0.  0.
<mgrwt>
<rscale>  0 0.21947175E+03</rscale>
<asrwt>0</asrwt>
<pdfrwt beam="1">  1        2 0.16297669E-01 0.21947175E+03</pdfrwt>
<pdfrwt beam="2">  1       -2 0.17488198E-01 0.21947175E+03</pdfrwt>
<totfact> 0.91100240E+03</totfact>
</mgrwt>
</event>
<event>
 4    1  0.2489209E-004  0.2471845E+03  0.7818608E-02  0.1115097E+00
          2   -1    0    0  501    0  0.00000000000E+00  0.00000000000E+00  0.53354913113E+02  0.53354913174E+02  0.25500000000E-02 0.  1.
         -2   -1    0    0    0  501 -0.00000000000E+00 -0.00000000000E+00 -0.28629121865E+03  0.28629121866E+03  0.25500000000E-02 0. -1.
    5000001    1    1    2    0    0 -0.66808975191E+02  0.54625974712E+02 -0.56596261896E+02  0.12876169127E+03  0.77000000000E+02 0.  0.
   -5000001    1    1    2    0    0  0.66808975191E+02 -0.54625974712E+02 -0.17634004364E+03  0.21088444056E+03  0.77000000000E+02 0.  0.
<mgrwt>
<rscale>  0 0.24718449E+03</rscale>
<asrwt>0</asrwt>
<pdfrwt beam="1">  1        2 0.82084484E-02 0.24718449E+03</pdfrwt>
<pdfrwt beam="2">  1       -2 0.44044802E-01 0.24718449E+03</pdfrwt>
<totfact> 0.40231901E+03</totfact>
</mgrwt>
</event>
<event>
 4    1  0.2489209E-004  0.3394862E+03  0.7818608E-02  0.1067015E+00
         -2   -1    0    0    0  501 -0.00000000000E+00  0.00000000000E+00  0.11702493777E+03  0.11702493779E+03  0.25500000000E-02 0. -1.
          2   -1    0    0  501    0  0.00000000000E+00 -0.00000000000E+00 -0.24621005617E+03  0.24621005618E+03  0.25500000000E-02 0.  1.
    5000001    1    1    2    0    0  0.38152202400E+02 -0.13173803290E+03  0.36938597181E+01  0.15733132066E+03  0.77000000000E+02 0.  0.
   -5000001    1    1    2    0    0 -0.38152202400E+02  0.13173803290E+03 -0.13287897812E+03  0.20590367332E+03  0.77000000000E+02 0.  0.
<mgrwt>
<rscale>  0 0.33948618E+03</rscale>
<asrwt>0</asrwt>
<pdfrwt beam="1">  1        2 0.37878470E-01 0.33948618E+03</pdfrwt>
<pdfrwt beam="2">  1       -2 0.18003837E-01 0.33948618E+03</pdfrwt>
<totfact> 0.34232762E+03</totfact>
</mgrwt>
</event>
<event>
 4    1  0.2489209E-004  0.2880489E+03  0.7818608E-02  0.1091372E+00
          2   -1    0    0  501    0  0.00000000000E+00  0.00000000000E+00  0.26794817070E+03  0.26794817071E+03  0.25500000000E-02 0.  1.
         -2   -1    0    0    0  501 -0.00000000000E+00 -0.00000000000E+00 -0.77414402058E+02  0.77414402100E+02  0.25500000000E-02 0. -1.
    5000001    1    1    2    0    0  0.11857139647E+02  0.11944555375E+03  0.11943190456E+03  0.18601293476E+03  0.77000000000E+02 0.  0.
   -5000001    1    1    2    0    0 -0.11857139647E+02 -0.11944555375E+03  0.71101864079E+02  0.15934963805E+03  0.77000000000E+02 0.  0.
<mgrwt>
<rscale>  0 0.28804894E+03</rscale>
<asrwt>0</asrwt>
<pdfrwt beam="1">  1        2 0.41222795E-01 0.28804894E+03</pdfrwt>
<pdfrwt beam="2">  1       -2 0.11909908E-01 0.28804894E+03</pdfrwt>
<totfact> 0.61583494E+03</totfact>
</mgrwt>
</event>
<event>
 4    1  0.2489209E-004  0.2534722E+03  0.7818608E-02  0.1111130E+00
         -2   -1    0    0    0  501 -0.00000000000E+00  0.00000000000E+00  0.77631847951E+01  0.77631852139E+01  0.25500000000E-02 0. -1.
          2   -1    0    0  501    0  0.00000000000E+00 -0.00000000000E+00 -0.20690018598E+04  0.20690018598E+04  0.25500000000E-02 0.  1.
    5000001    1    1    2    0    0  0.78297282309E+01  0.87097786939E+02 -0.14391104714E+04  0.14438196833E+04  0.77000000000E+02 0.  0.
   -5000001    1    1    2    0    0 -0.78297282309E+01 -0.87097786939E+02 -0.62212820361E+03  0.63294536167E+03  0.77000000000E+02 0.  0.
<mgrwt>
<rscale>  0 0.25347224E+03</rscale>
<asrwt>0</asrwt>
<pdfrwt beam="1">  1        2 0.31830754E+00 0.25347224E+03</pdfrwt>
<pdfrwt beam="2">  1       -2 0.11943378E-02 0.25347224E+03</pdfrwt>
<totfact> 0.11230300E+04</totfact>
</mgrwt>
</event>
<event>
 4    1  0.2489209E-004  0.3364343E+03  0.7818608E-02  0.1068325E+00
         -2   -1    0    0    0  501 -0.00000000000E+00  0.00000000000E+00  0.28520367065E+02  0.28520367179E+02  0.25500000000E-02 0. -1.
          2   -1    0    0  501    0  0.00000000000E+00 -0.00000000000E+00 -0.99216857499E+03  0.99216857499E+03  0.25500000000E-02 0.  1.
    5000001    1    1    2    0    0 -0.10540700604E+03 -0.86499812149E+02 -0.29541776929E+03  0.33435536909E+03  0.77000000000E+02 0.  0.
   -5000001    1    1    2    0    0  0.10540700604E+03  0.86499812149E+02 -0.66823043864E+03  0.68633357309E+03  0.77000000000E+02 0.  0.
<mgrwt>
<rscale>  0 0.33643431E+03</rscale>
<asrwt>0</asrwt>
<pdfrwt beam="1">  1        2 0.15264129E+00 0.33643431E+03</pdfrwt>
<pdfrwt beam="2">  1       -2 0.43877495E-02 0.33643431E+03</pdfrwt>
<totfact> 0.63656526E+03</totfact>
</mgrwt>
</event>
<event>
 4    1  0.2489209E-004  0.2800654E+03  0.7818608E-02  0.1095653E+00
          2   -1    0    0  501    0  0.00000000000E+00  0.00000000000E+00  0.39186548684E+03  0.39186548685E+03  0.25500000000E-02 0.  1.
         -2   -1    0    0    0  501 -0.00000000000E+00 -0.00000000000E+00 -0.50040545466E+02  0.50040545531E+02  0.25500000000E-02 0. -1.
    5000001    1    1    2    0    0  0.10373168935E+03  0.36559653161E+02  0.23369673304E+03  0.26951815273E+03  0.77000000000E+02 0.  0.
   -5000001    1    1    2    0    0 -0.10373168935E+03 -0.36559653161E+02  0.10812820833E+03  0.17238787965E+03  0.77000000000E+02 0.  0.
<mgrwt>
<rscale>  0 0.28006544E+03</rscale>
<asrwt>0</asrwt>
<pdfrwt beam="1">  1        2 0.60287000E-01 0.28006544E+03</pdfrwt>
<pdfrwt beam="2">  1       -2 0.76985452E-02 0.28006544E+03</pdfrwt>
<totfact> 0.81541579E+03</totfact>
</mgrwt>
</event>
<event>
 4    1  0.2489209E-004  0.2047489E+03  0.7818608E-02  0.1145793E+00
          2   -1    0    0  501    0  0.00000000000E+00  0.00000000000E+00  0.15858886381E+03  0.15858886383E+03  0.25500000000E-02 0.  1.
         -2   -1    0    0    0  501 -0.00000000000E+00 -0.00000000000E+00 -0.66086121458E+02  0.66086121507E+02  0.25500000000E-02 0. -1.
    5000001    1    1    2    0    0 -0.63186300959E+02  0.48006039679E+01  0.71655416668E+02  0.12279679623E+03  0.77000000000E+02 0.  0.
   -5000001    1    1    2    0    0  0.63186300959E+02 -0.48006039679E+01  0.20847325686E+02  0.10187818911E+03  0.77000000000E+02 0.  0.
<mgrwt>
<rscale>  0 0.20474885E+03</rscale>
<asrwt>0</asrwt>
<pdfrwt beam="1">  1        2 0.24398286E-01 0.20474885E+03</pdfrwt>
<pdfrwt beam="2">  1       -2 0.10167096E-01 0.20474885E+03</pdfrwt>
<totfact> 0.13832386E+04</totfact>
</mgrwt>
</event>
<event>
 4    1  0.2489209E-004  0.1908670E+03  0.7818608E-02  0.1157682E+00
         -2   -1    0    0    0  501 -0.00000000000E+00  0.00000000000E+00  0.31872862471E+02  0.31872862573E+02  0.25500000000E-02 0. -1.
          2   -1    0    0  501    0  0.00000000000E+00 -0.00000000000E+00 -0.28574644736E+03  0.28574644737E+03  0.25500000000E-02 0.  1.
    5000001    1    1    2    0    0 -0.38193467182E+02 -0.30227902907E+01 -0.19576401028E+03  0.21382335214E+03  0.77000000000E+02 0.  0.
   -5000001    1    1    2    0    0  0.38193467182E+02  0.30227902907E+01 -0.58109574606E+02  0.10379595781E+03  0.77000000000E+02 0.  0.
<mgrwt>
<rscale>  0 0.19086705E+03</rscale>
<asrwt>0</asrwt>
<pdfrwt beam="1">  1        2 0.43960990E-01 0.19086705E+03</pdfrwt>
<pdfrwt beam="2">  1       -2 0.49035175E-02 0.19086705E+03</pdfrwt>
<totfact> 0.22365998E+04</totfact>
</mgrwt>
</event>
<event>
 4    1  0.2489209E-004  0.2100870E+03  0.7818608E-02  0.1141497E+00
          2   -1    0    0  501    0  0.00000000000E+00  0.00000000000E+00  0.17670715296E+04  0.17670715296E+04  0.25500000000E-02 0.  1.
         -2   -1    0    0    0  501 -0.00000000000E+00 -0.00000000000E+00 -0.62443079310E+01  0.62443084517E+01  0.25500000000E-02 0. -1.
    5000001    1    1    2    0    0  0.43126237208E+02  0.56810117220E+02  0.84472415132E+03  0.85121980332E+03  0.77000000000E+02 0.  0.
   -5000001    1    1    2    0    0 -0.43126237208E+02 -0.56810117220E+02  0.91610307039E+03  0.92209603476E+03  0.77000000000E+02 0.  0.
<mgrwt>
<rscale>  0 0.21008702E+03</rscale>
<asrwt>0</asrwt>
<pdfrwt beam="1">  1        2 0.27185748E+00 0.21008702E+03</pdfrwt>
<pdfrwt beam="2">  1       -2 0.96066167E-03 0.21008702E+03</pdfrwt>
<totfact> 0.22013119E+04</totfact>
</mgrwt>
</event>
<event>
 4    1  0.2489209E-004  0.2030190E+03  0.7818608E-02  0.1147217E+00
         -2   -1    0    0    0  501 -0.00000000000E+00  0.00000000000E+00  0.12722097654E+02  0.12722097909E+02  0.25500000000E-02 0. -1.
          2   -1    0    0  501    0  0.00000000000E+00 -0.00000000000E+00 -0.80994339389E+03  0.80994339390E+03  0.25500000000E-02 0.  1.
    5000001    1    1    2    0    0  0.61485496007E+02 -0.20706344270E+02 -0.34640848614E+03  0.36074514298E+03  0.77000000000E+02 0.  0.
   -5000001    1    1    2    0    0 -0.61485496007E+02  0.20706344270E+02 -0.45081281010E+03  0.46192034883E+03  0.77000000000E+02 0.  0.
<mgrwt>
<rscale>  0 0.20301900E+03</rscale>
<asrwt>0</asrwt>
<pdfrwt beam="1">  1        2 0.12460664E+00 0.20301900E+03</pdfrwt>
<pdfrwt beam="2">  1       -2 0.19572464E-02 0.20301900E+03</pdfrwt>
<totfact> 0.27189121E+04</totfact>
</mgrwt>
</event>
<event>
 4    1  0.2489209E-004  0.6191761E+03  0.7818608E-02  0.9866402E-01
         -2   -1    0    0    0  501 -0.00000000000E+00  0.00000000000E+00  0.10831505788E+03  0.10831505791E+03  0.25500000000E-02 0. -1.
          2   -1    0    0  501    0  0.00000000000E+00 -0.00000000000E+00 -0.88487008756E+03  0.88487008757E+03  0.25500000000E-02 0.  1.
    5000001    1    1    2    0    0 -0.25143495032E+03 -0.16336994542E+03 -0.39236120141E+03  0.49978553969E+03  0.77000000000E+02 0.  0.
   -5000001    1    1    2    0    0  0.25143495032E+03  0.16336994542E+03 -0.38419382828E+03  0.49339960579E+03  0.77000000000E+02 0.  0.
<mgrwt>
<rscale>  0 0.61917608E+03</rscale>
<asrwt>0</asrwt>
<pdfrwt beam="1">  1        2 0.13613385E+00 0.61917608E+03</pdfrwt>
<pdfrwt beam="2">  1       -2 0.16663856E-01 0.61917608E+03</pdfrwt>
<totfact> 0.88500305E+02</totfact>
</mgrwt>
</event>
<event>
 4    1  0.2489209E-004  0.1987083E+03  0.7818608E-02  0.1150833E+00
         -2   -1    0    0    0  501 -0.00000000000E+00  0.00000000000E+00  0.39773341063E+02  0.39773341144E+02  0.25500000000E-02 0. -1.
          2   -1    0    0  501    0  0.00000000000E+00 -0.00000000000E+00 -0.24818764516E+03  0.24818764517E+03  0.25500000000E-02 0.  1.
    5000001    1    1    2    0    0 -0.56706042212E+02  0.19308517832E+02 -0.13146753291E+03  0.16371043429E+03  0.77000000000E+02 0.  0.
   -5000001    1    1    2    0    0  0.56706042212E+02 -0.19308517832E+02 -0.76946771183E+02  0.12425055203E+03  0.77000000000E+02 0.  0.
<mgrwt>
<rscale>  0 0.19870835E+03</rscale>
<asrwt>0</asrwt>
<pdfrwt beam="1">  1        2 0.38182714E-01 0.19870835E+03</pdfrwt>
<pdfrwt beam="2">  1       -2 0.61189757E-02 0.19870835E+03</pdfrwt>
<totfact> 0.18638085E+04</totfact>
</mgrwt>
</event>
<event>
 4    1  0.2489209E-004  0.3378824E+03  0.7818608E-02  0.1067701E+00
         -2   -1    0    0    0  501 -0.00000000000E+00  0.00000000000E+00  0.10180922238E+04  0.10180922238E+04  0.25500000000E-02 0.  1.
          2   -1    0    0  501    0  0.00000000000E+00 -0.00000000000E+00 -0.28033938897E+02  0.28033939013E+02  0.25500000000E-02 0. -1.
    5000001    1    1    2    0    0  0.10615059750E+03 -0.10226505523E+03  0.58718993161E+03  0.61028444733E+03  0.77000000000E+02 0.  0.
   -5000001    1    1    2    0    0 -0.10615059750E+03  0.10226505523E+03  0.40286835328E+03  0.43584171547E+03  0.77000000000E+02 0.  0.
<mgrwt>
<rscale>  0 0.33788244E+03</rscale>
<asrwt>0</asrwt>
<pdfrwt beam="1">  1        2 0.43129137E-02 0.33788244E+03</pdfrwt>
<pdfrwt beam="2">  1       -2 0.15662957E+00 0.33788244E+03</pdfrwt>
<totfact> 0.54467628E+02</totfact>
</mgrwt>
</event>
<event>
 4    1  0.2489209E-004  0.2869344E+03  0.7818608E-02  0.1091961E+00
         -2   -1    0    0    0  501 -0.00000000000E+00  0.00000000000E+00  0.16720062620E+03  0.16720062622E+03  0.25500000000E-02 0. -1.
          2   -1    0    0  501    0  0.00000000000E+00 -0.00000000000E+00 -0.12310263134E+03  0.12310263137E+03  0.25500000000E-02 0.  1.
    5000001    1    1    2    0    0  0.10409677150E+03 -0.23745133169E+02 -0.35663418147E+02  0.13638492798E+03  0.77000000000E+02 0.  0.
   -5000001    1    1    2    0    0 -0.10409677150E+03  0.23745133169E+02  0.79761413005E+02  0.15391832961E+03  0.77000000000E+02 0.  0.
<mgrwt>
<rscale>  0 0.28693440E+03</rscale>
<asrwt>0</asrwt>
<pdfrwt beam="1">  1        2 0.18938866E-01 0.28693440E+03</pdfrwt>
<pdfrwt beam="2">  1       -2 0.25723173E-01 0.28693440E+03</pdfrwt>
<totfact> 0.39815213E+03</totfact>
</mgrwt>
</event>
<event>
 4    1  0.2489209E-004  0.2018377E+03  0.7818608E-02  0.1148198E+00
         -2   -1    0    0    0  501 -0.00000000000E+00  0.00000000000E+00  0.10436234137E+03  0.10436234140E+03  0.25500000000E-02 0. -1.
          2   -1    0    0  501    0  0.00000000000E+00 -0.00000000000E+00 -0.97588930752E+02  0.97588930785E+02  0.25500000000E-02 0.  1.
    5000001    1    1    2    0    0 -0.47734227914E+02  0.43760591709E+02  0.11269173510E+02  0.10124001271E+03  0.77000000000E+02 0.  0.
   -5000001    1    1    2    0    0  0.47734227914E+02 -0.43760591709E+02 -0.44957628946E+01  0.10071125948E+03  0.77000000000E+02 0.  0.
<mgrwt>
<rscale>  0 0.20183765E+03</rscale>
<asrwt>0</asrwt>
<pdfrwt beam="1">  1        2 0.15013682E-01 0.20183765E+03</pdfrwt>
<pdfrwt beam="2">  1       -2 0.16055745E-01 0.20183765E+03</pdfrwt>
<totfact> 0.11507198E+04</totfact>
</mgrwt>
</event>
<event>
 4    1  0.2489209E-004  0.1925614E+03  0.7818608E-02  0.1156171E+00
          2   -1    0    0  501    0  0.00000000000E+00  0.00000000000E+00  0.18649288162E+04  0.18649288162E+04  0.25500000000E-02 0.  1.
         -2   -1    0    0    0  501 -0.00000000000E+00 -0.00000000000E+00 -0.49706827268E+01  0.49706833809E+01  0.25500000000E-02 0. -1.
    5000001    1    1    2    0    0  0.30032495565E+02  0.49103565455E+02  0.87872445718E+03  0.88396763661E+03  0.77000000000E+02 0.  0.
   -5000001    1    1    2    0    0 -0.30032495565E+02 -0.49103565455E+02  0.98123367632E+03  0.98593186299E+03  0.77000000000E+02 0.  0.
<mgrwt>
<rscale>  0 0.19256137E+03</rscale>
<asrwt>0</asrwt>
<pdfrwt beam="1">  1        2 0.28691236E+00 0.19256137E+03</pdfrwt>
<pdfrwt beam="2">  1       -2 0.76471984E-03 0.19256137E+03</pdfrwt>
<totfact> 0.27085394E+04</totfact>
</mgrwt>
</event>
<event>
 4    1  0.2489209E-004  0.1749508E+03  0.7818608E-02  0.1172781E+00
         -2   -1    0    0    0  501 -0.00000000000E+00  0.00000000000E+00  0.29597109446E+02  0.29597109556E+02  0.25500000000E-02 0. -1.
          2   -1    0    0  501    0  0.00000000000E+00 -0.00000000000E+00 -0.25853692765E+03  0.25853692766E+03  0.25500000000E-02 0.  1.
    5000001    1    1    2    0    0 -0.51721816298E+01 -0.41184779104E+02 -0.11461966597E+03  0.14418600944E+03  0.77000000000E+02 0.  0.
   -5000001    1    1    2    0    0  0.51721816298E+01  0.41184779104E+02 -0.11432015223E+03  0.14394802777E+03  0.77000000000E+02 0.  0.
<mgrwt>
<rscale>  0 0.17495080E+03</rscale>
<asrwt>0</asrwt>
<pdfrwt beam="1">  1        2 0.39774910E-01 0.17495080E+03</pdfrwt>
<pdfrwt beam="2">  1       -2 0.45534016E-02 0.17495080E+03</pdfrwt>
<totfact> 0.27621177E+04</totfact>
</mgrwt>
</event>
<event>
 4    1  0.2489209E-004  0.1728321E+03  0.7818608E-02  0.1174926E+00
         -2   -1    0    0    0  501 -0.00000000000E+00  0.00000000000E+00  0.52223832262E+02  0.52223832324E+02  0.25500000000E-02 0. -1.
          2   -1    0    0  501    0  0.00000000000E+00 -0.00000000000E+00 -0.14299467871E+03  0.14299467874E+03  0.25500000000E-02 0.  1.
    5000001    1    1    2    0    0 -0.17387699566E+02  0.21575981772E+02 -0.76746335280E+02  0.11219115413E+03  0.77000000000E+02 0.  0.
   -5000001    1    1    2    0    0  0.17387699566E+02 -0.21575981772E+02 -0.14024511171E+02  0.83027356932E+02  0.77000000000E+02 0.  0.
<mgrwt>
<rscale>  0 0.17283206E+03</rscale>
<asrwt>0</asrwt>
<pdfrwt beam="1">  1        2 0.21999181E-01 0.17283206E+03</pdfrwt>
<pdfrwt beam="2">  1       -2 0.80344358E-02 0.17283206E+03</pdfrwt>
<totfact> 0.22170391E+04</totfact>
</mgrwt>
</event>
<event>
 4    1  0.2489209E-004  0.1656603E+03  0.7818608E-02  0.1182450E+00
          2   -1    0    0  501    0  0.00000000000E+00  0.00000000000E+00  0.46608198032E+02  0.46608198102E+02  0.25500000000E-02 0.  1.
         -2   -1    0    0    0  501 -0.00000000000E+00 -0.00000000000E+00 -0.14720234902E+03  0.14720234904E+03  0.25500000000E-02 0. -1.
    5000001    1    1    2    0    0 -0.12793080503E+02  0.27646825110E+02 -0.48008560243E+02  0.95717457676E+02  0.77000000000E+02 0.  0.
   -5000001    1    1    2    0    0  0.12793080503E+02 -0.27646825110E+02 -0.52585590747E+02  0.98093089469E+02  0.77000000000E+02 0.  0.
<mgrwt>
<rscale>  0 0.16566033E+03</rscale>
<asrwt>0</asrwt>
<pdfrwt beam="1">  1        2 0.71704921E-02 0.16566033E+03</pdfrwt>
<pdfrwt beam="2">  1       -2 0.22646515E-01 0.16566033E+03</pdfrwt>
<totfact> 0.15704595E+04</totfact>
</mgrwt>
</event>
<event>
 4    1  0.2489209E-004  0.1808536E+03  0.7818608E-02  0.1166979E+00
          2   -1    0    0  501    0  0.00000000000E+00  0.00000000000E+00  0.26224792989E+02  0.26224793113E+02  0.25500000000E-02 0.  1.
         -2   -1    0    0    0  501 -0.00000000000E+00 -0.00000000000E+00 -0.31180443853E+03  0.31180443854E+03  0.25500000000E-02 0. -1.
    5000001    1    1    2    0    0  0.39330291763E+02 -0.26422689773E+02 -0.14601444896E+03  0.17173889976E+03  0.77000000000E+02 0.  0.
   -5000001    1    1    2    0    0 -0.39330291763E+02  0.26422689773E+02 -0.13956519657E+03  0.16629033189E+03  0.77000000000E+02 0.  0.
<mgrwt>
<rscale>  0 0.18085361E+03</rscale>
<asrwt>0</asrwt>
<pdfrwt beam="1">  1        2 0.40345838E-02 0.18085361E+03</pdfrwt>
<pdfrwt beam="2">  1       -2 0.47969911E-01 0.18085361E+03</pdfrwt>
<totfact> 0.84262015E+03</totfact>
</mgrwt>
</event>
<event>
 4    1  0.2489209E-004  0.2466289E+03  0.7818608E-02  0.1115454E+00
         -2   -1    0    0    0  501 -0.00000000000E+00  0.00000000000E+00  0.76140072361E+02  0.76140072404E+02  0.25500000000E-02 0. -1.
          2   -1    0    0  501    0  0.00000000000E+00 -0.00000000000E+00 -0.19971689794E+03  0.19971689795E+03  0.25500000000E-02 0.  1.
    5000001    1    1    2    0    0  0.63203683972E+01 -0.84821032111E+02 -0.11233431620E+02  0.11528115427E+03  0.77000000000E+02 0.  0.
   -5000001    1    1    2    0    0 -0.63203683972E+01  0.84821032111E+02 -0.11234339396E+03  0.16057581608E+03  0.77000000000E+02 0.  0.
<mgrwt>
<rscale>  0 0.24662894E+03</rscale>
<asrwt>0</asrwt>
<pdfrwt beam="1">  1        2 0.30725676E-01 0.24662894E+03</pdfrwt>
<pdfrwt beam="2">  1       -2 0.11713857E-01 0.24662894E+03</pdfrwt>
<totfact> 0.86467750E+03</totfact>
</mgrwt>
</event>
<event>
 4    1  0.2489209E-004  0.1832259E+03  0.7818608E-02  0.1164717E+00
          2   -1    0    0  501    0  0.00000000000E+00  0.00000000000E+00  0.16397141302E+04  0.16397141302E+04  0.25500000000E-02 0.  1.
         -2   -1    0    0    0  501 -0.00000000000E+00 -0.00000000000E+00 -0.51185309398E+01  0.51185315750E+01  0.25500000000E-02 0. -1.
    5000001    1    1    2    0    0  0.37703263451E+02 -0.15634652576E+02  0.10708823003E+04  0.10744225796E+04  0.77000000000E+02 0.  0.
   -5000001    1    1    2    0    0 -0.37703263451E+02  0.15634652576E+02  0.56371329892E+03  0.57041008214E+03  0.77000000000E+02 0.  0.
<mgrwt>
<rscale>  0 0.18322585E+03</rscale>
<asrwt>0</asrwt>
<pdfrwt beam="1">  1        2 0.25226416E+00 0.18322585E+03</pdfrwt>
<pdfrwt beam="2">  1       -2 0.78746496E-03 0.18322585E+03</pdfrwt>
<totfact> 0.33892354E+04</totfact>
</mgrwt>
</event>
<event>
 4    1  0.2489209E-004  0.2852680E+03  0.7818608E-02  0.1092846E+00
         -2   -1    0    0    0  501 -0.00000000000E+00  0.00000000000E+00  0.89670028668E+01  0.89670032294E+01  0.25500000000E-02 0. -1.
          2   -1    0    0  501    0  0.00000000000E+00 -0.00000000000E+00 -0.22688141238E+04  0.22688141238E+04  0.25500000000E-02 0.  1.
    5000001    1    1    2    0    0 -0.10771469011E+03 -0.51994992728E+02 -0.12134885368E+04  0.12217975948E+04  0.77000000000E+02 0.  0.
   -5000001    1    1    2    0    0  0.10771469011E+03  0.51994992728E+02 -0.10463585842E+04  0.10559835323E+04  0.77000000000E+02 0.  0.
<mgrwt>
<rscale>  0 0.28526804E+03</rscale>
<asrwt>0</asrwt>
<pdfrwt beam="1">  1        2 0.34904787E+00 0.28526804E+03</pdfrwt>
<pdfrwt beam="2">  1       -2 0.13795407E-02 0.28526804E+03</pdfrwt>
<totfact> 0.71364382E+03</totfact>
</mgrwt>
</event>
<event>
 4    1  0.2489209E-004  0.2458913E+03  0.7818608E-02  0.1115929E+00
         -2   -1    0    0    0  501 -0.00000000000E+00  0.00000000000E+00  0.17142157544E+03  0.17142157545E+03  0.25500000000E-02 0. -1.
          2   -1    0    0  501    0  0.00000000000E+00 -0.00000000000E+00 -0.88178118274E+02  0.88178118310E+02  0.25500000000E-02 0.  1.
    5000001    1    1    2    0    0  0.28826748978E+02  0.67221619182E+02  0.10701777839E+03  0.15076979947E+03  0.77000000000E+02 0.  0.
   -5000001    1    1    2    0    0 -0.28826748978E+02 -0.67221619182E+02 -0.23774321225E+02  0.10882989429E+03  0.77000000000E+02 0.  0.
<mgrwt>
<rscale>  0 0.24589129E+03</rscale>
<asrwt>0</asrwt>
<pdfrwt beam="1">  1        2 0.13565864E-01 0.24589129E+03</pdfrwt>
<pdfrwt beam="2">  1       -2 0.26372550E-01 0.24589129E+03</pdfrwt>
<totfact> 0.56076415E+03</totfact>
</mgrwt>
</event>
<event>
 4    1  0.2489209E-004  0.2656199E+03  0.7818608E-02  0.1103813E+00
          2   -1    0    0  501    0  0.00000000000E+00  0.00000000000E+00  0.17468323218E+04  0.17468323218E+04  0.25500000000E-02 0.  1.
         -2   -1    0    0    0  501 -0.00000000000E+00 -0.00000000000E+00 -0.10097409248E+02  0.10097409569E+02  0.25500000000E-02 0. -1.
    5000001    1    1    2    0    0  0.87190253933E+02  0.33629951755E+01  0.12916939232E+04  0.12969254571E+04  0.77000000000E+02 0.  0.
   -5000001    1    1    2    0    0 -0.87190253933E+02 -0.33629951755E+01  0.44504098935E+03  0.46000427424E+03  0.77000000000E+02 0.  0.
<mgrwt>
<rscale>  0 0.26561989E+03</rscale>
<asrwt>0</asrwt>
<pdfrwt beam="1">  1        2 0.26874304E+00 0.26561989E+03</pdfrwt>
<pdfrwt beam="2">  1       -2 0.15534499E-02 0.26561989E+03</pdfrwt>
<totfact> 0.11303704E+04</totfact>
</mgrwt>
</event>
<event>
 4    1  0.2489209E-004  0.2563474E+03  0.7818608E-02  0.1109358E+00
          2   -1    0    0  501    0  0.00000000000E+00  0.00000000000E+00  0.41592778159E+03  0.41592778160E+03  0.25500000000E-02 0.  1.
         -2   -1    0    0    0  501 -0.00000000000E+00 -0.00000000000E+00 -0.39498429894E+02  0.39498429977E+02  0.25500000000E-02 0. -1.
    5000001    1    1    2    0    0  0.67015895375E+02  0.44669464822E+02  0.75670276201E+02  0.13469031896E+03  0.77000000000E+02 0.  0.
   -5000001    1    1    2    0    0 -0.67015895375E+02 -0.44669464822E+02  0.30075907549E+03  0.32073589262E+03  0.77000000000E+02 0.  0.
<mgrwt>
<rscale>  0 0.25634738E+03</rscale>
<asrwt>0</asrwt>
<pdfrwt beam="1">  1        2 0.63988891E-01 0.25634738E+03</pdfrwt>
<pdfrwt beam="2">  1       -2 0.60766814E-02 0.25634738E+03</pdfrwt>
<totfact> 0.10977033E+04</totfact>
</mgrwt>
</event>
<event>
 4    1  0.2489209E-004  0.2358020E+03  0.7818608E-02  0.1122621E+00
         -2   -1    0    0    0  501 -0.00000000000E+00  0.00000000000E+00  0.51492474259E+01  0.51492480574E+01  0.25500000000E-02 0. -1.
          2   -1    0    0  501    0  0.00000000000E+00 -0.00000000000E+00 -0.26995499602E+04  0.26995499602E+04  0.25500000000E-02 0.  1.
    5000001    1    1    2    0    0  0.65754768090E+02 -0.59563147736E+02 -0.12323873594E+04  0.12379737726E+04  0.77000000000E+02 0.  0.
   -5000001    1    1    2    0    0 -0.65754768090E+02  0.59563147736E+02 -0.14620133534E+04  0.14667254356E+04  0.77000000000E+02 0.  0.
<mgrwt>
<rscale>  0 0.23580205E+03</rscale>
<asrwt>0</asrwt>
<pdfrwt beam="1">  1        2 0.41531425E+00 0.23580205E+03</pdfrwt>
<pdfrwt beam="2">  1       -2 0.79219412E-03 0.23580205E+03</pdfrwt>
<totfact> 0.92830397E+03</totfact>
</mgrwt>
</event>
<event>
 4    1  0.2489209E-004  0.1794823E+03  0.7818608E-02  0.1168305E+00
         -2   -1    0    0    0  501 -0.00000000000E+00  0.00000000000E+00  0.82371883654E+01  0.82371887601E+01  0.25500000000E-02 0. -1.
          2   -1    0    0  501    0  0.00000000000E+00 -0.00000000000E+00 -0.97769705225E+03  0.97769705225E+03  0.25500000000E-02 0.  1.
    5000001    1    1    2    0    0  0.32528299246E+02  0.22653044788E+02 -0.61393421696E+03  0.62001247846E+03  0.77000000000E+02 0.  0.
   -5000001    1    1    2    0    0 -0.32528299246E+02 -0.22653044788E+02 -0.35552564692E+03  0.36592176255E+03  0.77000000000E+02 0.  0.
<mgrwt>
<rscale>  0 0.17948231E+03</rscale>
<asrwt>0</asrwt>
<pdfrwt beam="1">  1        2 0.15041484E+00 0.17948231E+03</pdfrwt>
<pdfrwt beam="2">  1       -2 0.12672606E-02 0.17948231E+03</pdfrwt>
<totfact> 0.39541411E+04</totfact>
</mgrwt>
</event>
<event>
 4    1  0.2489209E-004  0.2440825E+03  0.7818608E-02  0.1117103E+00
         -2   -1    0    0    0  501 -0.00000000000E+00  0.00000000000E+00  0.22254615195E+02  0.22254615342E+02  0.25500000000E-02 0. -1.
          2   -1    0    0  501    0  0.00000000000E+00 -0.00000000000E+00 -0.66925751901E+03  0.66925751902E+03  0.25500000000E-02 0.  1.
    5000001    1    1    2    0    0 -0.56819549405E+02 -0.50538686644E+01 -0.10939896225E+03  0.14543430037E+03  0.77000000000E+02 0.  0.
   -5000001    1    1    2    0    0  0.56819549405E+02  0.50538686644E+01 -0.53760394157E+03  0.54607783399E+03  0.77000000000E+02 0.  0.
<mgrwt>
<rscale>  0 0.24408252E+03</rscale>
<asrwt>0</asrwt>
<pdfrwt beam="1">  1        2 0.10296268E+00 0.24408252E+03</pdfrwt>
<pdfrwt beam="2">  1       -2 0.34237875E-02 0.24408252E+03</pdfrwt>
<totfact> 0.15215805E+04</totfact>
</mgrwt>
</event>
<event>
 4    1  0.2489209E-004  0.3416332E+03  0.7818608E-02  0.1066102E+00
          2   -1    0    0  501    0  0.00000000000E+00  0.00000000000E+00  0.11628021006E+03  0.11628021008E+03  0.25500000000E-02 0.  1.
         -2   -1    0    0    0  501 -0.00000000000E+00 -0.00000000000E+00 -0.25093106945E+03  0.25093106946E+03  0.25500000000E-02 0. -1.
    5000001    1    1    2    0    0  0.96022127610E+02 -0.73369345205E+02  0.32620175636E+02  0.14695708784E+03  0.77000000000E+02 0.  0.
   -5000001    1    1    2    0    0 -0.96022127610E+02  0.73369345205E+02 -0.16727103503E+03  0.22025419171E+03  0.77000000000E+02 0.  0.
<mgrwt>
<rscale>  0 0.34163324E+03</rscale>
<asrwt>0</asrwt>
<pdfrwt beam="1">  1        2 0.17889263E-01 0.34163324E+03</pdfrwt>
<pdfrwt beam="2">  1       -2 0.38604780E-01 0.34163324E+03</pdfrwt>
<totfact> 0.20256237E+03</totfact>
</mgrwt>
</event>
<event>
 4    1  0.2489209E-004  0.2509338E+03  0.7818608E-02  0.1112716E+00
         -2   -1    0    0    0  501 -0.00000000000E+00  0.00000000000E+00  0.47221267381E+02  0.47221267450E+02  0.25500000000E-02 0. -1.
          2   -1    0    0  501    0  0.00000000000E+00 -0.00000000000E+00 -0.33336550073E+03  0.33336550074E+03  0.25500000000E-02 0.  1.
    5000001    1    1    2    0    0  0.51588753403E+01  0.77148073913E+02 -0.23699016005E+03  0.26090568270E+03  0.77000000000E+02 0.  0.
   -5000001    1    1    2    0    0 -0.51588753403E+01 -0.77148073913E+02 -0.49154073305E+02  0.11968108550E+03  0.77000000000E+02 0.  0.
<mgrwt>
<rscale>  0 0.25093379E+03</rscale>
<asrwt>0</asrwt>
<pdfrwt beam="1">  1        2 0.51286999E-01 0.25093379E+03</pdfrwt>
<pdfrwt beam="2">  1       -2 0.72648106E-02 0.25093379E+03</pdfrwt>
<totfact> 0.10576829E+04</totfact>
</mgrwt>
</event>
<event>
 4    1  0.2489209E-004  0.5207362E+03  0.7818608E-02  0.1008504E+00
          2   -1    0    0  501    0  0.00000000000E+00  0.00000000000E+00  0.39790844946E+03  0.39790844946E+03  0.25500000000E-02 0.  1.
         -2   -1    0    0    0  501 -0.00000000000E+00 -0.00000000000E+00 -0.17036971977E+03  0.17036971979E+03  0.25500000000E-02 0. -1.
    5000001    1    1    2    0    0 -0.16399746795E+03 -0.58697004656E+02 -0.79984498854E+02  0.20655998622E+03  0.77000000000E+02 0.  0.
   -5000001    1    1    2    0    0  0.16399746795E+03  0.58697004656E+02  0.30752322854E+03  0.36171818304E+03  0.77000000000E+02 0.  0.
<mgrwt>
<rscale>  0 0.52073621E+03</rscale>
<asrwt>0</asrwt>
<pdfrwt beam="1">  1        2 0.61216684E-01 0.52073621E+03</pdfrwt>
<pdfrwt beam="2">  1       -2 0.26210726E-01 0.52073621E+03</pdfrwt>
<totfact> 0.10538348E+03</totfact>
</mgrwt>
</event>
<event>
 4    1  0.2489209E-004  0.7054624E+03  0.7818608E-02  0.9707936E-01
         -2   -1    0    0    0  501 -0.00000000000E+00  0.00000000000E+00  0.13201596548E+03  0.13201596550E+03  0.25500000000E-02 0. -1.
          2   -1    0    0  501    0  0.00000000000E+00 -0.00000000000E+00 -0.94245634861E+03  0.94245634862E+03  0.25500000000E-02 0.  1.
    5000001    1    1    2    0    0 -0.23170092310E+02 -0.33436666661E+03 -0.28575472312E+03  0.44712714378E+03  0.77000000000E+02 0.  0.
   -5000001    1    1    2    0    0  0.23170092310E+02  0.33436666661E+03 -0.52468566001E+03  0.62734517034E+03  0.77000000000E+02 0.  0.
<mgrwt>
<rscale>  0 0.70546236E+03</rscale>
<asrwt>0</asrwt>
<pdfrwt beam="1">  1        2 0.14499328E+00 0.70546236E+03</pdfrwt>
<pdfrwt beam="2">  1       -2 0.20310149E-01 0.70546236E+03</pdfrwt>
<totfact> 0.57410868E+02</totfact>
</mgrwt>
</event>
<event>
 4    1  0.2489209E-004  0.3239900E+03  0.7818608E-02  0.1073827E+00
          2   -1    0    0  501    0  0.00000000000E+00  0.00000000000E+00  0.26171761830E+03  0.26171761831E+03  0.25500000000E-02 0.  1.
         -2   -1    0    0    0  501 -0.00000000000E+00 -0.00000000000E+00 -0.10026984640E+03  0.10026984643E+03  0.25500000000E-02 0. -1.
    5000001    1    1    2    0    0 -0.10901828086E+02 -0.11705779271E+03  0.17074646028E+03  0.22114413940E+03  0.77000000000E+02 0.  0.
   -5000001    1    1    2    0    0  0.10901828086E+02  0.11705779271E+03 -0.92986883808E+01  0.14084332535E+03  0.77000000000E+02 0.  0.
<mgrwt>
<rscale>  0 0.32399003E+03</rscale>
<asrwt>0</asrwt>
<pdfrwt beam="1">  1        2 0.40264248E-01 0.32399003E+03</pdfrwt>
<pdfrwt beam="2">  1       -2 0.15426131E-01 0.32399003E+03</pdfrwt>
<totfact> 0.41479460E+03</totfact>
</mgrwt>
</event>
<event>
 4    1  0.2489209E-004  0.5782360E+03  0.7818608E-02  0.9951617E-01
          2   -1    0    0  501    0  0.00000000000E+00  0.00000000000E+00  0.14797271432E+03  0.14797271434E+03  0.25500000000E-02 0.  1.
         -2   -1    0    0    0  501 -0.00000000000E+00 -0.00000000000E+00 -0.56489610001E+03  0.56489610002E+03  0.25500000000E-02 0. -1.
    5000001    1    1    2    0    0 -0.16283830981E+03 -0.66743207632E+02  0.57925233394E+02  0.20063724373E+03  0.77000000000E+02 0.  0.
   -5000001    1    1    2    0    0  0.16283830981E+03  0.66743207632E+02 -0.47484861909E+03  0.51223157063E+03  0.77000000000E+02 0.  0.
<mgrwt>
<rscale>  0 0.57823597E+03</rscale>
<asrwt>0</asrwt>
<pdfrwt beam="1">  1        2 0.22765033E-01 0.57823597E+03</pdfrwt>
<pdfrwt beam="2">  1       -2 0.86907091E-01 0.57823597E+03</pdfrwt>
<totfact> 0.28289528E+02</totfact>
</mgrwt>
</event>
<event>
 4    1  0.2489209E-004  0.2089473E+03  0.7818608E-02  0.1142402E+00
         -2   -1    0    0    0  501 -0.00000000000E+00  0.00000000000E+00  0.13883083769E+02  0.13883084003E+02  0.25500000000E-02 0. -1.
          2   -1    0    0  501    0  0.00000000000E+00 -0.00000000000E+00 -0.78618992023E+03  0.78618992023E+03  0.25500000000E-02 0.  1.
    5000001    1    1    2    0    0  0.49023209366E+02 -0.38750633586E+02 -0.51203912419E+03  0.52155340222E+03  0.77000000000E+02 0.  0.
   -5000001    1    1    2    0    0 -0.49023209366E+02  0.38750633586E+02 -0.26026771227E+03  0.27851960202E+03  0.77000000000E+02 0.  0.
<mgrwt>
<rscale>  0 0.20894727E+03</rscale>
<asrwt>0</asrwt>
<pdfrwt beam="1">  1        2 0.12095226E+00 0.20894727E+03</pdfrwt>
<pdfrwt beam="2">  1       -2 0.21358597E-02 0.20894727E+03</pdfrwt>
<totfact> 0.24887956E+04</totfact>
</mgrwt>
</event>
<event>
 4    1  0.2489209E-004  0.2630056E+03  0.7818608E-02  0.1105351E+00
         -2   -1    0    0    0  501 -0.00000000000E+00  0.00000000000E+00  0.74225786511E+01  0.74225790892E+01  0.25500000000E-02 0. -1.
          2   -1    0    0  501    0  0.00000000000E+00 -0.00000000000E+00 -0.23297812086E+04  0.23297812086E+04  0.25500000000E-02 0.  1.
    5000001    1    1    2    0    0  0.12720399009E+02  0.10214568754E+03 -0.91483922152E+03  0.92382647249E+03  0.77000000000E+02 0.  0.
   -5000001    1    1    2    0    0 -0.12720399009E+02 -0.10214568754E+03 -0.14075194084E+04  0.14133773152E+04  0.77000000000E+02 0.  0.
<mgrwt>
<rscale>  0 0.26300559E+03</rscale>
<asrwt>0</asrwt>
<pdfrwt beam="1">  1        2 0.35842729E+00 0.26300559E+03</pdfrwt>
<pdfrwt beam="2">  1       -2 0.11419371E-02 0.26300559E+03</pdfrwt>
<totfact> 0.87179386E+03</totfact>
</mgrwt>
</event>
<event>
 4    1  0.2489209E-004  0.2753711E+03  0.7818608E-02  0.1098244E+00
         -2   -1    0    0    0  501 -0.00000000000E+00  0.00000000000E+00  0.24501030996E+02  0.24501031129E+02  0.25500000000E-02 0. -1.
          2   -1    0    0  501    0  0.00000000000E+00 -0.00000000000E+00 -0.77373498790E+03  0.77373498791E+03  0.25500000000E-02 0.  1.
    5000001    1    1    2    0    0 -0.67239270546E+02 -0.90637004807E+02 -0.32507278027E+03  0.35261522743E+03  0.77000000000E+02 0.  0.
   -5000001    1    1    2    0    0  0.67239270546E+02  0.90637004807E+02 -0.42416117664E+03  0.44562079161E+03  0.77000000000E+02 0.  0.
<mgrwt>
<rscale>  0 0.27537106E+03</rscale>
<asrwt>0</asrwt>
<pdfrwt beam="1">  1        2 0.11903613E+00 0.27537106E+03</pdfrwt>
<pdfrwt beam="2">  1       -2 0.37693900E-02 0.27537106E+03</pdfrwt>
<totfact> 0.11090156E+04</totfact>
</mgrwt>
</event>
<event>
 4    1  0.2489209E-004  0.2221924E+03  0.7818608E-02  0.1132259E+00
         -2   -1    0    0    0  501 -0.00000000000E+00  0.00000000000E+00  0.61490138649E+01  0.61490143936E+01  0.25500000000E-02 0. -1.
          2   -1    0    0  501    0  0.00000000000E+00 -0.00000000000E+00 -0.20072111848E+04  0.20072111848E+04  0.25500000000E-02 0.  1.
    5000001    1    1    2    0    0 -0.78250665925E+02 -0.15752939048E+02 -0.10592888897E+04  0.10650789988E+04  0.77000000000E+02 0.  0.
   -5000001    1    1    2    0    0  0.78250665925E+02  0.15752939048E+02 -0.94177328114E+03  0.94828120032E+03  0.77000000000E+02 0.  0.
<mgrwt>
<rscale>  0 0.22219244E+03</rscale>
<asrwt>0</asrwt>
<pdfrwt beam="1">  1        2 0.30880120E+00 0.22219244E+03</pdfrwt>
<pdfrwt beam="2">  1       -2 0.94600378E-03 0.22219244E+03</pdfrwt>
<totfact> 0.16911627E+04</totfact>
</mgrwt>
</event>
<event>
 4    1  0.2489209E-004  0.3459227E+03  0.7818608E-02  0.1064301E+00
          2   -1    0    0  501    0  0.00000000000E+00  0.00000000000E+00  0.15487639427E+04  0.15487639427E+04  0.25500000000E-02 0.  1.
         -2   -1    0    0    0  501 -0.00000000000E+00 -0.00000000000E+00 -0.19315810395E+02  0.19315810563E+02  0.25500000000E-02 0. -1.
    5000001    1    1    2    0    0  0.27960913025E+02  0.10813161326E+03  0.12510993342E+04  0.12584326770E+04  0.77000000000E+02 0.  0.
   -5000001    1    1    2    0    0 -0.27960913025E+02 -0.10813161326E+03  0.27834879803E+03  0.30964707621E+03  0.77000000000E+02 0.  0.
<mgrwt>
<rscale>  0 0.34592271E+03</rscale>
<asrwt>0</asrwt>
<pdfrwt beam="1">  1        2 0.23827140E+00 0.34592271E+03</pdfrwt>
<pdfrwt beam="2">  1       -2 0.29716628E-02 0.34592271E+03</pdfrwt>
<totfact> 0.55327467E+03</totfact>
</mgrwt>
</event>
<event>
 4    1  0.2489209E-004  0.2090256E+03  0.7818608E-02  0.1142340E+00
          2   -1    0    0  501    0  0.00000000000E+00  0.00000000000E+00  0.46943199735E+03  0.46943199736E+03  0.25500000000E-02 0.  1.
         -2   -1    0    0    0  501 -0.00000000000E+00 -0.00000000000E+00 -0.23268382172E+02  0.23268382312E+02  0.25500000000E-02 0. -1.
    5000001    1    1    2    0    0  0.31139250880E+02  0.59418112614E+02  0.27545880276E+03  0.29378004880E+03  0.77000000000E+02 0.  0.
   -5000001    1    1    2    0    0 -0.31139250880E+02 -0.59418112614E+02  0.17070481241E+03  0.19892033087E+03  0.77000000000E+02 0.  0.
<mgrwt>
<rscale>  0 0.20902558E+03</rscale>
<asrwt>0</asrwt>
<pdfrwt beam="1">  1        2 0.72220298E-01 0.20902558E+03</pdfrwt>
<pdfrwt beam="2">  1       -2 0.35797516E-02 0.20902558E+03</pdfrwt>
<totfact> 0.21142252E+04</totfact>
</mgrwt>
</event>
<event>
 4    1  0.2489209E-004  0.1780445E+03  0.7818608E-02  0.1169709E+00
          2   -1    0    0  501    0  0.00000000000E+00  0.00000000000E+00  0.21198460436E+04  0.21198460436E+04  0.25500000000E-02 0.  1.
         -2   -1    0    0    0  501 -0.00000000000E+00 -0.00000000000E+00 -0.37384603893E+01  0.37384612590E+01  0.25500000000E-02 0. -1.
    5000001    1    1    2    0    0  0.26449209002E+02  0.28292292243E+02  0.79243513297E+03  0.79710880965E+03  0.77000000000E+02 0.  0.
   -5000001    1    1    2    0    0 -0.26449209002E+02 -0.28292292243E+02  0.13236724503E+04  0.13264756953E+04  0.77000000000E+02 0.  0.
<mgrwt>
<rscale>  0 0.17804450E+03</rscale>
<asrwt>0</asrwt>
<pdfrwt beam="1">  1        2 0.32612941E+00 0.17804450E+03</pdfrwt>
<pdfrwt beam="2">  1       -2 0.57514914E-03 0.17804450E+03</pdfrwt>
<totfact> 0.29921189E+04</totfact>
</mgrwt>
</event>
<event>
 4    1  0.2489209E-004  0.6169335E+03  0.7818608E-02  0.9870884E-01
          2   -1    0    0  501    0  0.00000000000E+00  0.00000000000E+00  0.73878214738E+03  0.73878214739E+03  0.25500000000E-02 0.  1.
         -2   -1    0    0    0  501 -0.00000000000E+00 -0.00000000000E+00 -0.12879539858E+03  0.12879539860E+03  0.25500000000E-02 0. -1.
    5000001    1    1    2    0    0  0.18687142362E+03  0.22933397179E+03  0.36310740690E+03  0.47464827876E+03  0.77000000000E+02 0.  0.
   -5000001    1    1    2    0    0 -0.18687142362E+03 -0.22933397179E+03  0.24687934190E+03  0.39292926723E+03  0.77000000000E+02 0.  0.
<mgrwt>
<rscale>  0 0.61693352E+03</rscale>
<asrwt>0</asrwt>
<pdfrwt beam="1">  1        2 0.11365879E+00 0.61693352E+03</pdfrwt>
<pdfrwt beam="2">  1       -2 0.19814677E-01 0.61693352E+03</pdfrwt>
<totfact> 0.83384826E+02</totfact>
</mgrwt>
</event>
<event>
 4    1  0.2489209E-004  0.2662446E+03  0.7818608E-02  0.1103448E+00
         -2   -1    0    0    0  501 -0.00000000000E+00  0.00000000000E+00  0.86481719898E+02  0.86481719936E+02  0.25500000000E-02 0. -1.
          2   -1    0    0  501    0  0.00000000000E+00 -0.00000000000E+00 -0.20491661022E+03  0.20491661024E+03  0.25500000000E-02 0.  1.
    5000001    1    1    2    0    0  0.94824770021E+02 -0.31483955831E+01 -0.13974836467E+01  0.12219902768E+03  0.77000000000E+02 0.  0.
   -5000001    1    1    2    0    0 -0.94824770021E+02  0.31483955831E+01 -0.11703740668E+03  0.16919930250E+03  0.77000000000E+02 0.  0.
<mgrwt>
<rscale>  0 0.26624456E+03</rscale>
<asrwt>0</asrwt>
<pdfrwt beam="1">  1        2 0.31525632E-01 0.26624456E+03</pdfrwt>
<pdfrwt beam="2">  1       -2 0.13304880E-01 0.26624456E+03</pdfrwt>
<totfact> 0.68630957E+03</totfact>
</mgrwt>
</event>
<event>
 4    1  0.2489209E-004  0.1709285E+03  0.7818608E-02  0.1176883E+00
          2   -1    0    0  501    0  0.00000000000E+00  0.00000000000E+00  0.99565993266E+03  0.99565993266E+03  0.25500000000E-02 0.  1.
         -2   -1    0    0    0  501 -0.00000000000E+00 -0.00000000000E+00 -0.73359806096E+01  0.73359810528E+01  0.25500000000E-02 0. -1.
    5000001    1    1    2    0    0 -0.36523371839E+02 -0.49324186401E+01  0.47007005965E+03  0.47775846034E+03  0.77000000000E+02 0.  0.
   -5000001    1    1    2    0    0  0.36523371839E+02  0.49324186401E+01  0.51825389240E+03  0.52523745338E+03  0.77000000000E+02 0.  0.
<mgrwt>
<rscale>  0 0.17092855E+03</rscale>
<asrwt>0</asrwt>
<pdfrwt beam="1">  1        2 0.15317848E+00 0.17092855E+03</pdfrwt>
<pdfrwt beam="2">  1       -2 0.11286122E-02 0.17092855E+03</pdfrwt>
<totfact> 0.45395747E+04</totfact>
</mgrwt>
</event>
<event>
 4    1  0.2489209E-004  0.2991214E+03  0.7818608E-02  0.1085681E+00
         -2   -1    0    0    0  501 -0.00000000000E+00  0.00000000000E+00  0.21976791886E+03  0.21976791888E+03  0.25500000000E-02 0. -1.
          2   -1    0    0  501    0  0.00000000000E+00 -0.00000000000E+00 -0.10178191335E+03  0.10178191338E+03  0.25500000000E-02 0.  1.
    5000001    1    1    2    0    0 -0.10899073357E+03 -0.65593284011E+02  0.41728244650E+02  0.15443997317E+03  0.77000000000E+02 0.  0.
   -5000001    1    1    2    0    0  0.10899073357E+03  0.65593284011E+02  0.76257760864E+02  0.16710985908E+03  0.77000000000E+02 0.  0.
<mgrwt>
<rscale>  0 0.29912138E+03</rscale>
<asrwt>0</asrwt>
<pdfrwt beam="1">  1        2 0.15658756E-01 0.29912138E+03</pdfrwt>
<pdfrwt beam="2">  1       -2 0.33810449E-01 0.29912138E+03</pdfrwt>
<totfact> 0.30313773E+03</totfact>
</mgrwt>
</event>
<event>
 4    1  0.2489209E-004  0.2210807E+03  0.7818608E-02  0.1133080E+00
         -2   -1    0    0    0  501 -0.00000000000E+00  0.00000000000E+00  0.49852817991E+02  0.49852818056E+02  0.25500000000E-02 0. -1.
          2   -1    0    0  501    0  0.00000000000E+00 -0.00000000000E+00 -0.24510479970E+03  0.24510479972E+03  0.25500000000E-02 0.  1.
    5000001    1    1    2    0    0 -0.15454190314E+02 -0.76056890380E+02 -0.11941342265E+03  0.16190135293E+03  0.77000000000E+02 0.  0.
   -5000001    1    1    2    0    0  0.15454190314E+02  0.76056890380E+02 -0.75838559067E+02  0.13305626484E+03  0.77000000000E+02 0.  0.
<mgrwt>
<rscale>  0 0.22108066E+03</rscale>
<asrwt>0</asrwt>
<pdfrwt beam="1">  1        2 0.37708430E-01 0.22108066E+03</pdfrwt>
<pdfrwt beam="2">  1       -2 0.76696644E-02 0.22108066E+03</pdfrwt>
<totfact> 0.13435491E+04</totfact>
</mgrwt>
</event>
<event>
 4    1  0.2489209E-004  0.3072844E+03  0.7818608E-02  0.1081655E+00
         -2   -1    0    0    0  501 -0.00000000000E+00  0.00000000000E+00  0.10736873593E+02  0.10736873896E+02  0.25500000000E-02 0. -1.
          2   -1    0    0  501    0  0.00000000000E+00 -0.00000000000E+00 -0.21985848562E+04  0.21985848562E+04  0.25500000000E-02 0.  1.
    5000001    1    1    2    0    0  0.26866704826E+02 -0.12658666686E+03 -0.13132931324E+04  0.13218978235E+04  0.77000000000E+02 0.  0.
   -5000001    1    1    2    0    0 -0.26866704826E+02  0.12658666686E+03 -0.87455485020E+03  0.88742390663E+03  0.77000000000E+02 0.  0.
<mgrwt>
<rscale>  0 0.30728442E+03</rscale>
<asrwt>0</asrwt>
<pdfrwt beam="1">  1        2 0.33824347E+00 0.30728442E+03</pdfrwt>
<pdfrwt beam="2">  1       -2 0.16518285E-02 0.30728442E+03</pdfrwt>
<totfact> 0.59742886E+03</totfact>
</mgrwt>
</event>
<event>
 4    1  0.2489209E-004  0.2680436E+03  0.7818608E-02  0.1102405E+00
          2   -1    0    0  501    0  0.00000000000E+00  0.00000000000E+00  0.26540287964E+03  0.26540287965E+03  0.25500000000E-02 0.  1.
         -2   -1    0    0    0  501 -0.00000000000E+00 -0.00000000000E+00 -0.67677633687E+02  0.67677633735E+02  0.25500000000E-02 0. -1.
    5000001    1    1    2    0    0  0.21923165086E+02 -0.77653795154E+02  0.19120393399E+03  0.22135645788E+03  0.77000000000E+02 0.  0.
   -5000001    1    1    2    0    0 -0.21923165086E+02  0.77653795154E+02  0.65213119564E+01  0.11172405551E+03  0.77000000000E+02 0.  0.
<mgrwt>
<rscale>  0 0.26804357E+03</rscale>
<asrwt>0</asrwt>
<pdfrwt beam="1">  1        2 0.40831211E-01 0.26804357E+03</pdfrwt>
<pdfrwt beam="2">  1       -2 0.10411944E-01 0.26804357E+03</pdfrwt>
<totfact> 0.76993904E+03</totfact>
</mgrwt>
</event>
<event>
 4    1  0.2489209E-004  0.2077193E+03  0.7818608E-02  0.1143385E+00
         -2   -1    0    0    0  501 -0.00000000000E+00  0.00000000000E+00  0.15962985742E+02  0.15962985945E+02  0.25500000000E-02 0. -1.
          2   -1    0    0  501    0  0.00000000000E+00 -0.00000000000E+00 -0.67573972348E+03  0.67573972349E+03  0.25500000000E-02 0.  1.
    5000001    1    1    2    0    0  0.54966091082E+02 -0.38548865141E+02 -0.26754217922E+03  0.28638279249E+03  0.77000000000E+02 0.  0.
   -5000001    1    1    2    0    0 -0.54966091082E+02  0.38548865141E+02 -0.39223455852E+03  0.40531991694E+03  0.77000000000E+02 0.  0.
<mgrwt>
<rscale>  0 0.20771927E+03</rscale>
<asrwt>0</asrwt>
<pdfrwt beam="1">  1        2 0.10395993E+00 0.20771927E+03</pdfrwt>
<pdfrwt beam="2">  1       -2 0.24558445E-02 0.20771927E+03</pdfrwt>
<totfact> 0.24379581E+04</totfact>
</mgrwt>
</event>
<event>
 4    1  0.2489209E-004  0.3112885E+03  0.7818608E-02  0.1079730E+00
         -2   -1    0    0    0  501 -0.00000000000E+00  0.00000000000E+00  0.62263714006E+02  0.62263714059E+02  0.25500000000E-02 0. -1.
          2   -1    0    0  501    0  0.00000000000E+00 -0.00000000000E+00 -0.38907305552E+03  0.38907305553E+03  0.25500000000E-02 0.  1.
    5000001    1    1    2    0    0 -0.74153958376E+02  0.45171967183E+02 -0.13028324791E+02  0.11678207657E+03  0.77000000000E+02 0.  0.
   -5000001    1    1    2    0    0  0.74153958376E+02 -0.45171967183E+02 -0.31378101673E+03  0.33455469302E+03  0.77000000000E+02 0.  0.
<mgrwt>
<rscale>  0 0.31128851E+03</rscale>
<asrwt>0</asrwt>
<pdfrwt beam="1">  1        2 0.59857392E-01 0.31128851E+03</pdfrwt>
<pdfrwt beam="2">  1       -2 0.95790331E-02 0.31128851E+03</pdfrwt>
<totfact> 0.58462964E+03</totfact>
</mgrwt>
</event>
<event>
 4    1  0.2489209E-004  0.1720325E+03  0.7818608E-02  0.1175745E+00
          2   -1    0    0  501    0  0.00000000000E+00  0.00000000000E+00  0.55236273548E+03  0.55236273549E+03  0.25500000000E-02 0.  1.
         -2   -1    0    0    0  501 -0.00000000000E+00 -0.00000000000E+00 -0.13394812587E+02  0.13394812830E+02  0.25500000000E-02 0. -1.
    5000001    1    1    2    0    0  0.19232032725E+02  0.26386576630E+02  0.20340934651E+03  0.21993290967E+03  0.77000000000E+02 0.  0.
   -5000001    1    1    2    0    0 -0.19232032725E+02 -0.26386576630E+02  0.33555857638E+03  0.34582463864E+03  0.77000000000E+02 0.  0.
<mgrwt>
<rscale>  0 0.17203250E+03</rscale>
<asrwt>0</asrwt>
<pdfrwt beam="1">  1        2 0.84978885E-01 0.17203250E+03</pdfrwt>
<pdfrwt beam="2">  1       -2 0.20607404E-02 0.17203250E+03</pdfrwt>
<totfact> 0.39211653E+04</totfact>
</mgrwt>
</event>
<event>
 4    1  0.2489209E-004  0.2059302E+03  0.7818608E-02  0.1144830E+00
          2   -1    0    0  501    0  0.00000000000E+00  0.00000000000E+00  0.46886644145E+03  0.46886644145E+03  0.25500000000E-02 0.  1.
         -2   -1    0    0    0  501 -0.00000000000E+00 -0.00000000000E+00 -0.22611580552E+02  0.22611580696E+02  0.25500000000E-02 0. -1.
    5000001    1    1    2    0    0 -0.30885647154E+02  0.60940721463E+02  0.21772890214E+03  0.24083722628E+03  0.77000000000E+02 0.  0.
   -5000001    1    1    2    0    0  0.30885647154E+02 -0.60940721463E+02  0.22852595875E+03  0.25064079588E+03  0.77000000000E+02 0.  0.
<mgrwt>
<rscale>  0 0.20593020E+03</rscale>
<asrwt>0</asrwt>
<pdfrwt beam="1">  1        2 0.72133298E-01 0.20593020E+03</pdfrwt>
<pdfrwt beam="2">  1       -2 0.34787047E-02 0.20593020E+03</pdfrwt>
<totfact> 0.22070181E+04</totfact>
</mgrwt>
</event>
<event>
 4    1  0.2489209E-004  0.2786457E+03  0.7818608E-02  0.1096431E+00
          2   -1    0    0  501    0  0.00000000000E+00  0.00000000000E+00  0.95422133216E+02  0.95422133250E+02  0.25500000000E-02 0. -1.
         -2   -1    0    0    0  501 -0.00000000000E+00 -0.00000000000E+00 -0.20342095575E+03  0.20342095577E+03  0.25500000000E-02 0.  1.
    5000001    1    1    2    0    0  0.30453214439E+02  0.10438962630E+03 -0.10339048024E+02  0.13364313773E+03  0.77000000000E+02 0.  0.
   -5000001    1    1    2    0    0 -0.30453214439E+02 -0.10438962630E+03 -0.97659774514E+02  0.16519995129E+03  0.77000000000E+02 0.  0.
<mgrwt>
<rscale>  0 0.27864574E+03</rscale>
<asrwt>0</asrwt>
<pdfrwt beam="1">  1        2 0.14680328E-01 0.27864574E+03</pdfrwt>
<pdfrwt beam="2">  1       -2 0.31295532E-01 0.27864574E+03</pdfrwt>
<totfact> 0.37661332E+03</totfact>
</mgrwt>
</event>
<event>
 4    1  0.2489209E-004  0.2018603E+03  0.7818608E-02  0.1148179E+00
          2   -1    0    0  501    0  0.00000000000E+00  0.00000000000E+00  0.14957262956E+03  0.14957262958E+03  0.25500000000E-02 0.  1.
         -2   -1    0    0    0  501 -0.00000000000E+00 -0.00000000000E+00 -0.68106685761E+02  0.68106685809E+02  0.25500000000E-02 0. -1.
    5000001    1    1    2    0    0 -0.47628430182E+02 -0.80247361635E+01  0.88046490153E+02  0.12654662453E+03  0.77000000000E+02 0.  0.
   -5000001    1    1    2    0    0  0.47628430182E+02  0.80247361635E+01 -0.65805463580E+01  0.91132690855E+02  0.77000000000E+02 0.  0.
<mgrwt>
<rscale>  0 0.20186031E+03</rscale>
<asrwt>0</asrwt>
<pdfrwt beam="1">  1        2 0.23011173E-01 0.20186031E+03</pdfrwt>
<pdfrwt beam="2">  1       -2 0.10477952E-01 0.20186031E+03</pdfrwt>
<totfact> 0.14065492E+04</totfact>
</mgrwt>
</event>
<event>
 4    1  0.2489209E-004  0.2255406E+03  0.7818608E-02  0.1129818E+00
         -2   -1    0    0    0  501 -0.00000000000E+00  0.00000000000E+00  0.53547206777E+02  0.53547206838E+02  0.25500000000E-02 0. -1.
          2   -1    0    0  501    0  0.00000000000E+00 -0.00000000000E+00 -0.23749407363E+03  0.23749407365E+03  0.25500000000E-02 0.  1.
    5000001    1    1    2    0    0  0.26957009559E+02  0.48950994269E+02 -0.13849800158E+02  0.96144147865E+02  0.77000000000E+02 0.  0.
   -5000001    1    1    2    0    0 -0.26957009559E+02 -0.48950994269E+02 -0.17009706670E+03  0.19489713262E+03  0.77000000000E+02 0.  0.
<mgrwt>
<rscale>  0 0.22554063E+03</rscale>
<asrwt>0</asrwt>
<pdfrwt beam="1">  1        2 0.36537549E-01 0.22554063E+03</pdfrwt>
<pdfrwt beam="2">  1       -2 0.82380319E-02 0.22554063E+03</pdfrwt>
<totfact> 0.12451578E+04</totfact>
</mgrwt>
</event>
<event>
 4    1  0.2489209E-004  0.3853659E+03  0.7818608E-02  0.1048968E+00
          2   -1    0    0  501    0  0.00000000000E+00  0.00000000000E+00  0.12518522463E+04  0.12518522463E+04  0.25500000000E-02 0.  1.
         -2   -1    0    0    0  501 -0.00000000000E+00 -0.00000000000E+00 -0.29657423191E+02  0.29657423300E+02  0.25500000000E-02 0. -1.
    5000001    1    1    2    0    0 -0.12763901080E+03 -0.12796663428E+02  0.20733081241E+03  0.25567662671E+03  0.77000000000E+02 0.  0.
   -5000001    1    1    2    0    0  0.12763901080E+03  0.12796663428E+02  0.10148640107E+04  0.10258330429E+04  0.77000000000E+02 0.  0.
<mgrwt>
<rscale>  0 0.38536586E+03</rscale>
<asrwt>0</asrwt>
<pdfrwt beam="1">  1        2 0.19259267E+00 0.38536586E+03</pdfrwt>
<pdfrwt beam="2">  1       -2 0.45626802E-02 0.38536586E+03</pdfrwt>
<totfact> 0.42176006E+03</totfact>
</mgrwt>
</event>
<event>
 4    1  0.2489209E-004  0.3450969E+03  0.7818608E-02  0.1064646E+00
          2   -1    0    0  501    0  0.00000000000E+00  0.00000000000E+00  0.23791420366E+04  0.23791420366E+04  0.25500000000E-02 0.  1.
         -2   -1    0    0    0  501 -0.00000000000E+00 -0.00000000000E+00 -0.12514164410E+02  0.12514164670E+02  0.25500000000E-02 0. -1.
    5000001    1    1    2    0    0  0.12426989533E+03  0.16807162291E+02  0.55886749130E+03  0.57791639571E+03  0.77000000000E+02 0.  0.
   -5000001    1    1    2    0    0 -0.12426989533E+03 -0.16807162291E+02  0.18077603809E+04  0.18137398056E+04  0.77000000000E+02 0.  0.
<mgrwt>
<rscale>  0 0.34509694E+03</rscale>
<asrwt>0</asrwt>
<pdfrwt beam="1">  1        2 0.36602148E+00 0.34509694E+03</pdfrwt>
<pdfrwt beam="2">  1       -2 0.19252580E-02 0.34509694E+03</pdfrwt>
<totfact> 0.38039635E+03</totfact>
</mgrwt>
</event>
<event>
 4    1  0.2489209E-004  0.2927277E+03  0.7818608E-02  0.1088933E+00
         -2   -1    0    0    0  501 -0.00000000000E+00  0.00000000000E+00  0.10209662235E+02  0.10209662554E+02  0.25500000000E-02 0. -1.
          2   -1    0    0  501    0  0.00000000000E+00 -0.00000000000E+00 -0.20982460107E+04  0.20982460107E+04  0.25500000000E-02 0.  1.
    5000001    1    1    2    0    0 -0.24389632754E+02 -0.11784761097E+03 -0.12729795648E+04  0.12809718522E+04  0.77000000000E+02 0.  0.
   -5000001    1    1    2    0    0  0.24389632754E+02  0.11784761097E+03 -0.81505678368E+03  0.82748382112E+03  0.77000000000E+02 0.  0.
<mgrwt>
<rscale>  0 0.29272775E+03</rscale>
<asrwt>0</asrwt>
<pdfrwt beam="1">  1        2 0.32280674E+00 0.29272775E+03</pdfrwt>
<pdfrwt beam="2">  1       -2 0.15707190E-02 0.29272775E+03</pdfrwt>
<totfact> 0.72739550E+03</totfact>
</mgrwt>
</event>
<event>
 4    1  0.2489209E-004  0.4959456E+03  0.7818608E-02  0.1014843E+00
          2   -1    0    0  501    0  0.00000000000E+00  0.00000000000E+00  0.28119464608E+03  0.28119464609E+03  0.25500000000E-02 0.  1.
         -2   -1    0    0    0  501 -0.00000000000E+00 -0.00000000000E+00 -0.21867599467E+03  0.21867599469E+03  0.25500000000E-02 0. -1.
    5000001    1    1    2    0    0 -0.19790586980E+03 -0.44629046265E+02  0.15222176773E+03  0.26506405196E+03  0.77000000000E+02 0.  0.
   -5000001    1    1    2    0    0  0.19790586980E+03  0.44629046265E+02 -0.89703116321E+02  0.23480658881E+03  0.77000000000E+02 0.  0.
<mgrwt>
<rscale>  0 0.49594564E+03</rscale>
<asrwt>0</asrwt>
<pdfrwt beam="1">  1        2 0.43260715E-01 0.49594564E+03</pdfrwt>
<pdfrwt beam="2">  1       -2 0.33642461E-01 0.49594564E+03</pdfrwt>
<totfact> 0.97656208E+02</totfact>
</mgrwt>
</event>
<event>
 4    1  0.2489209E-004  0.1672672E+03  0.7818608E-02  0.1180728E+00
         -2   -1    0    0    0  501 -0.00000000000E+00  0.00000000000E+00  0.49994711553E+02  0.49994711618E+02  0.25500000000E-02 0. -1.
          2   -1    0    0  501    0  0.00000000000E+00 -0.00000000000E+00 -0.13990645248E+03  0.13990645250E+03  0.25500000000E-02 0.  1.
    5000001    1    1    2    0    0 -0.29693135305E+02 -0.46816424103E+01 -0.30506430279E+02  0.88109263691E+02  0.77000000000E+02 0.  0.
   -5000001    1    1    2    0    0  0.29693135305E+02  0.46816424103E+01 -0.59405310646E+02  0.10179190043E+03  0.77000000000E+02 0.  0.
<mgrwt>
<rscale>  0 0.16726724E+03</rscale>
<asrwt>0</asrwt>
<pdfrwt beam="1">  1        2 0.21524069E-01 0.16726724E+03</pdfrwt>
<pdfrwt beam="2">  1       -2 0.76914941E-02 0.16726724E+03</pdfrwt>
<totfact> 0.24239218E+04</totfact>
</mgrwt>
</event>
<event>
 4    1  0.2489209E-004  0.4601613E+03  0.7818608E-02  0.1024734E+00
         -2   -1    0    0    0  501 -0.00000000000E+00  0.00000000000E+00  0.12850000295E+04  0.12850000295E+04  0.25500000000E-02 0. -1.
          2   -1    0    0  501    0  0.00000000000E+00 -0.00000000000E+00 -0.41196182822E+02  0.41196182901E+02  0.25500000000E-02 0.  1.
    5000001    1    1    2    0    0 -0.10031605903E+03  0.17482805440E+03  0.85210222447E+03  0.87899679252E+03  0.77000000000E+02 0.  0.
   -5000001    1    1    2    0    0  0.10031605903E+03 -0.17482805440E+03  0.39170162218E+03  0.44719941986E+03  0.77000000000E+02 0.  0.
<mgrwt>
<rscale>  0 0.46016126E+03</rscale>
<asrwt>0</asrwt>
<pdfrwt beam="1">  1        2 0.63378742E-02 0.46016126E+03</pdfrwt>
<pdfrwt beam="2">  1       -2 0.19769232E+00 0.46016126E+03</pdfrwt>
<totfact> 0.17054894E+02</totfact>
</mgrwt>
</event>
<event>
 4    1  0.2489209E-004  0.4111338E+03  0.7818608E-02  0.1039991E+00
         -2   -1    0    0    0  501 -0.00000000000E+00  0.00000000000E+00  0.84429544920E+02  0.84429544958E+02  0.25500000000E-02 0. -1.
          2   -1    0    0  501    0  0.00000000000E+00 -0.00000000000E+00 -0.50050893688E+03  0.50050893689E+03  0.25500000000E-02 0.  1.
    5000001    1    1    2    0    0  0.60607342143E+02 -0.17711756596E+03 -0.15704148898E+03  0.25619311340E+03  0.77000000000E+02 0.  0.
   -5000001    1    1    2    0    0 -0.60607342143E+02  0.17711756596E+03 -0.25903790298E+03  0.32874536844E+03  0.77000000000E+02 0.  0.
<mgrwt>
<rscale>  0 0.41113376E+03</rscale>
<asrwt>0</asrwt>
<pdfrwt beam="1">  1        2 0.77001373E-01 0.41113376E+03</pdfrwt>
<pdfrwt beam="2">  1       -2 0.12989161E-01 0.41113376E+03</pdfrwt>
<totfact> 0.27172429E+03</totfact>
</mgrwt>
</event>
<event>
 4    1  0.2489209E-004  0.2081986E+03  0.7818608E-02  0.1143001E+00
          2   -1    0    0  501    0  0.00000000000E+00  0.00000000000E+00  0.91048823937E+03  0.91048823938E+03  0.25500000000E-02 0.  1.
         -2   -1    0    0    0  501 -0.00000000000E+00 -0.00000000000E+00 -0.11902033920E+02  0.11902034193E+02  0.25500000000E-02 0. -1.
    5000001    1    1    2    0    0 -0.48471595011E+02 -0.35487863199E+02  0.28963004971E+03  0.30565249819E+03  0.77000000000E+02 0.  0.
   -5000001    1    1    2    0    0  0.48471595011E+02  0.35487863199E+02  0.60895615575E+03  0.61673777538E+03  0.77000000000E+02 0.  0.
<mgrwt>
<rscale>  0 0.20819858E+03</rscale>
<asrwt>0</asrwt>
<pdfrwt beam="1">  1        2 0.14007515E+00 0.20819858E+03</pdfrwt>
<pdfrwt beam="2">  1       -2 0.18310817E-02 0.20819858E+03</pdfrwt>
<totfact> 0.25783684E+04</totfact>
</mgrwt>
</event>
<event>
 4    1  0.2489209E-004  0.3780006E+03  0.7818608E-02  0.1051675E+00
          2   -1    0    0  501    0  0.00000000000E+00  0.00000000000E+00  0.21899150798E+04  0.21899150798E+04  0.25500000000E-02 0.  1.
         -2   -1    0    0    0  501 -0.00000000000E+00 -0.00000000000E+00 -0.16311646636E+02  0.16311646835E+02  0.25500000000E-02 0. -1.
    5000001    1    1    2    0    0  0.59592355462E+00  0.17083791115E+03  0.94310186742E+03  0.96153839203E+03  0.77000000000E+02 0.  0.
   -5000001    1    1    2    0    0 -0.59592355462E+00 -0.17083791115E+03  0.12305015657E+04  0.12446883346E+04  0.77000000000E+02 0.  0.
<mgrwt>
<rscale>  0 0.37800064E+03</rscale>
<asrwt>0</asrwt>
<pdfrwt beam="1">  1        2 0.33691006E+00 0.37800064E+03</pdfrwt>
<pdfrwt beam="2">  1       -2 0.25094838E-02 0.37800064E+03</pdfrwt>
<totfact> 0.32420763E+03</totfact>
</mgrwt>
</event>
<event>
 4    1  0.2489209E-004  0.4603767E+03  0.7818608E-02  0.1024672E+00
          2   -1    0    0  501    0  0.00000000000E+00  0.00000000000E+00  0.11013613787E+04  0.11013613787E+04  0.25500000000E-02 0.  1.
         -2   -1    0    0    0  501 -0.00000000000E+00 -0.00000000000E+00 -0.48110161898E+02  0.48110161966E+02  0.25500000000E-02 0. -1.
    5000001    1    1    2    0    0  0.18521130195E+03 -0.83225461563E+02  0.33601653622E+03  0.40008226208E+03  0.77000000000E+02 0.  0.
   -5000001    1    1    2    0    0 -0.18521130195E+03  0.83225461563E+02  0.71723468055E+03  0.74938927855E+03  0.77000000000E+02 0.  0.
<mgrwt>
<rscale>  0 0.46037669E+03</rscale>
<asrwt>0</asrwt>
<pdfrwt beam="1">  1        2 0.16944020E+00 0.46037669E+03</pdfrwt>
<pdfrwt beam="2">  1       -2 0.74015640E-02 0.46037669E+03</pdfrwt>
<totfact> 0.24382928E+03</totfact>
</mgrwt>
</event>
<event>
 4    1  0.2489209E-004  0.3560874E+03  0.7818608E-02  0.1060144E+00
          2   -1    0    0  501    0  0.00000000000E+00  0.00000000000E+00  0.50131859824E+03  0.50131859825E+03  0.25500000000E-02 0.  1.
         -2   -1    0    0    0  501 -0.00000000000E+00 -0.00000000000E+00 -0.63232374924E+02  0.63232374975E+02  0.25500000000E-02 0. -1.
    5000001    1    1    2    0    0  0.97670127141E+02  0.12740072695E+03  0.21969025445E+03  0.28277766331E+03  0.77000000000E+02 0.  0.
   -5000001    1    1    2    0    0 -0.97670127141E+02 -0.12740072695E+03  0.21839596886E+03  0.28177330991E+03  0.77000000000E+02 0.  0.
<mgrwt>
<rscale>  0 0.35608744E+03</rscale>
<asrwt>0</asrwt>
<pdfrwt beam="1">  1        2 0.77125939E-01 0.35608744E+03</pdfrwt>
<pdfrwt beam="2">  1       -2 0.97280576E-02 0.35608744E+03</pdfrwt>
<totfact> 0.43219960E+03</totfact>
</mgrwt>
</event>
<event>
 4    1  0.2489209E-004  0.6222519E+03  0.7818608E-02  0.9860286E-01
          2   -1    0    0  501    0  0.00000000000E+00  0.00000000000E+00  0.44546067103E+03  0.44546067104E+03  0.25500000000E-02 0.  1.
         -2   -1    0    0    0  501 -0.00000000000E+00 -0.00000000000E+00 -0.21730167023E+03  0.21730167024E+03  0.25500000000E-02 0. -1.
    5000001    1    1    2    0    0 -0.21082611064E+03 -0.93402038492E+02  0.32088169063E+03  0.40257378094E+03  0.77000000000E+02 0.  0.
   -5000001    1    1    2    0    0  0.21082611064E+03  0.93402038492E+02 -0.92722689825E+02  0.26018856034E+03  0.77000000000E+02 0.  0.
<mgrwt>
<rscale>  0 0.62225187E+03</rscale>
<asrwt>0</asrwt>
<pdfrwt beam="1">  1        2 0.68532410E-01 0.62225187E+03</pdfrwt>
<pdfrwt beam="2">  1       -2 0.33431027E-01 0.62225187E+03</pdfrwt>
<totfact> 0.59218433E+02</totfact>
</mgrwt>
</event>
<event>
 4    1  0.2489209E-004  0.2100431E+03  0.7818608E-02  0.1141532E+00
          2   -1    0    0  501    0  0.00000000000E+00  0.00000000000E+00  0.98139289189E+03  0.98139289190E+03  0.25500000000E-02 0.  1.
         -2   -1    0    0    0  501 -0.00000000000E+00 -0.00000000000E+00 -0.11238646721E+02  0.11238647010E+02  0.25500000000E-02 0. -1.
    5000001    1    1    2    0    0 -0.70768126707E+02 -0.74660258259E+01  0.51369049454E+03  0.52428121603E+03  0.77000000000E+02 0.  0.
   -5000001    1    1    2    0    0  0.70768126707E+02  0.74660258259E+01  0.45646375063E+03  0.46835032288E+03  0.77000000000E+02 0.  0.
<mgrwt>
<rscale>  0 0.21004312E+03</rscale>
<asrwt>0</asrwt>
<pdfrwt beam="1">  1        2 0.15098353E+00 0.21004312E+03</pdfrwt>
<pdfrwt beam="2">  1       -2 0.17290226E-02 0.21004312E+03</pdfrwt>
<totfact> 0.25332594E+04</totfact>
</mgrwt>
</event>
<event>
 4    1  0.2489209E-004  0.3106186E+03  0.7818608E-02  0.1080050E+00
          2   -1    0    0  501    0  0.00000000000E+00  0.00000000000E+00  0.16139343140E+03  0.16139343142E+03  0.25500000000E-02 0.  1.
         -2   -1    0    0    0  501 -0.00000000000E+00 -0.00000000000E+00 -0.14945454095E+03  0.14945454097E+03  0.25500000000E-02 0. -1.
    5000001    1    1    2    0    0  0.43073514674E+02  0.78003113294E+02 -0.95358307813E+02  0.15153224152E+03  0.77000000000E+02 0.  0.
   -5000001    1    1    2    0    0 -0.43073514674E+02 -0.78003113294E+02  0.10729719827E+03  0.15931573088E+03  0.77000000000E+02 0.  0.
<mgrwt>
<rscale>  0 0.31061862E+03</rscale>
<asrwt>0</asrwt>
<pdfrwt beam="1">  1        2 0.24829759E-01 0.31061862E+03</pdfrwt>
<pdfrwt beam="2">  1       -2 0.22993006E-01 0.31061862E+03</pdfrwt>
<totfact> 0.35724372E+03</totfact>
</mgrwt>
</event>
<event>
 4    1  0.2489209E-004  0.3962683E+03  0.7818608E-02  0.1045080E+00
         -2   -1    0    0    0  501 -0.00000000000E+00  0.00000000000E+00  0.31720568432E+02  0.31720568534E+02  0.25500000000E-02 0. -1.
          2   -1    0    0  501    0  0.00000000000E+00 -0.00000000000E+00 -0.12375927473E+04  0.12375927473E+04  0.25500000000E-02 0.  1.
    5000001    1    1    2    0    0 -0.16446670514E+03 -0.75193515671E+02 -0.52287079756E+03  0.55859308342E+03  0.77000000000E+02 0.  0.
   -5000001    1    1    2    0    0  0.16446670514E+03  0.75193515671E+02 -0.68300138128E+03  0.71072023239E+03  0.77000000000E+02 0.  0.
<mgrwt>
<rscale>  0 0.39626832E+03</rscale>
<asrwt>0</asrwt>
<pdfrwt beam="1">  1        2 0.19039885E+00 0.39626832E+03</pdfrwt>
<pdfrwt beam="2">  1       -2 0.48800884E-02 0.39626832E+03</pdfrwt>
<totfact> 0.38772592E+03</totfact>
</mgrwt>
</event>
<event>
 4    1  0.2489209E-004  0.1707942E+03  0.7818608E-02  0.1177022E+00
          2   -1    0    0  501    0  0.00000000000E+00  0.00000000000E+00  0.16548494178E+04  0.16548494178E+04  0.25500000000E-02 0.  1.
         -2   -1    0    0    0  501 -0.00000000000E+00 -0.00000000000E+00 -0.44068435427E+01  0.44068442804E+01  0.25500000000E-02 0. -1.
    5000001    1    1    2    0    0  0.17739765739E+02 -0.32361167424E+02  0.81248529682E+03  0.81695979215E+03  0.77000000000E+02 0.  0.
   -5000001    1    1    2    0    0 -0.17739765739E+02  0.32361167424E+02  0.83795727740E+03  0.84229646990E+03  0.77000000000E+02 0.  0.
<mgrwt>
<rscale>  0 0.17079418E+03</rscale>
<asrwt>0</asrwt>
<pdfrwt beam="1">  1        2 0.25459223E+00 0.17079418E+03</pdfrwt>
<pdfrwt beam="2">  1       -2 0.67797596E-03 0.17079418E+03</pdfrwt>
<totfact> 0.41057986E+04</totfact>
</mgrwt>
</event>
<event>
 4    1  0.2489209E-004  0.2676898E+03  0.7818608E-02  0.1102609E+00
         -2   -1    0    0    0  501 -0.00000000000E+00  0.00000000000E+00  0.98182716781E+02  0.98182716815E+02  0.25500000000E-02 0. -1.
          2   -1    0    0  501    0  0.00000000000E+00 -0.00000000000E+00 -0.18246038094E+03  0.18246038095E+03  0.25500000000E-02 0.  1.
    5000001    1    1    2    0    0  0.69451554754E+02  0.55450757832E+02 -0.10916322597E+03  0.16044910379E+03  0.77000000000E+02 0.  0.
   -5000001    1    1    2    0    0 -0.69451554754E+02 -0.55450757832E+02  0.24885561817E+02  0.12019399398E+03  0.77000000000E+02 0.  0.
<mgrwt>
<rscale>  0 0.26768979E+03</rscale>
<asrwt>0</asrwt>
<pdfrwt beam="1">  1        2 0.28070828E-01 0.26768979E+03</pdfrwt>
<pdfrwt beam="2">  1       -2 0.15105033E-01 0.26768979E+03</pdfrwt>
<totfact> 0.63311180E+03</totfact>
</mgrwt>
</event>
<event>
 4    1  0.2489209E-004  0.2767943E+03  0.7818608E-02  0.1097453E+00
          2   -1    0    0  501    0  0.00000000000E+00  0.00000000000E+00  0.16882602787E+04  0.16882602787E+04  0.25500000000E-02 0.  1.
         -2   -1    0    0    0  501 -0.00000000000E+00 -0.00000000000E+00 -0.11345269147E+02  0.11345269433E+02  0.25500000000E-02 0. -1.
    5000001    1    1    2    0    0  0.46478449415E+02 -0.45380076178E+02  0.25576826956E+03  0.27489271596E+03  0.77000000000E+02 0.  0.
   -5000001    1    1    2    0    0 -0.46478449415E+02  0.45380076178E+02  0.14211467400E+04  0.14247128322E+04  0.77000000000E+02 0.  0.
<mgrwt>
<rscale>  0 0.27679427E+03</rscale>
<asrwt>0</asrwt>
<pdfrwt beam="1">  1        2 0.25973240E+00 0.27679427E+03</pdfrwt>
<pdfrwt beam="2">  1       -2 0.17454257E-02 0.27679427E+03</pdfrwt>
<totfact> 0.10238038E+04</totfact>
</mgrwt>
</event>
<event>
 4    1  0.2489209E-004  0.2440363E+03  0.7818608E-02  0.1117133E+00
          2   -1    0    0  501    0  0.00000000000E+00  0.00000000000E+00  0.49293800017E+03  0.49293800018E+03  0.25500000000E-02 0.  1.
         -2   -1    0    0    0  501 -0.00000000000E+00 -0.00000000000E+00 -0.30203446594E+02  0.30203446702E+02  0.25500000000E-02 0. -1.
    5000001    1    1    2    0    0  0.71842898411E+02 -0.58238768235E+02  0.27457608924E+03  0.29979023493E+03  0.77000000000E+02 0.  0.
   -5000001    1    1    2    0    0 -0.71842898411E+02  0.58238768235E+02  0.18815846434E+03  0.22335121195E+03  0.77000000000E+02 0.  0.
<mgrwt>
<rscale>  0 0.24403628E+03</rscale>
<asrwt>0</asrwt>
<pdfrwt beam="1">  1        2 0.75836603E-01 0.24403628E+03</pdfrwt>
<pdfrwt beam="2">  1       -2 0.46466848E-02 0.24403628E+03</pdfrwt>
<totfact> 0.13666541E+04</totfact>
</mgrwt>
</event>
<event>
 4    1  0.2489209E-004  0.5548206E+03  0.7818608E-02  0.1000384E+00
         -2   -1    0    0    0  501 -0.00000000000E+00  0.00000000000E+00  0.33531459408E+03  0.33531459409E+03  0.25500000000E-02 0. -1.
          2   -1    0    0  501    0  0.00000000000E+00 -0.00000000000E+00 -0.22950525955E+03  0.22950525957E+03  0.25500000000E-02 0.  1.
    5000001    1    1    2    0    0 -0.14702530364E+03  0.65177962387E+02 -0.16344095376E+03  0.24188127678E+03  0.77000000000E+02 0.  0.
   -5000001    1    1    2    0    0  0.14702530364E+03 -0.65177962387E+02  0.26925028829E+03  0.32293857688E+03  0.77000000000E+02 0.  0.
<mgrwt>
<rscale>  0 0.55482056E+03</rscale>
<asrwt>0</asrwt>
<pdfrwt beam="1">  1        2 0.35308502E-01 0.55482056E+03</pdfrwt>
<pdfrwt beam="2">  1       -2 0.51586860E-01 0.55482056E+03</pdfrwt>
<totfact> 0.52992705E+02</totfact>
</mgrwt>
</event>
<event>
 4    1  0.2489209E-004  0.2425066E+03  0.7818608E-02  0.1118134E+00
          2   -1    0    0  501    0  0.00000000000E+00  0.00000000000E+00  0.22365902483E+04  0.22365902483E+04  0.25500000000E-02 0.  1.
         -2   -1    0    0    0  501 -0.00000000000E+00 -0.00000000000E+00 -0.65735611636E+01  0.65735616582E+01  0.25500000000E-02 0. -1.
    5000001    1    1    2    0    0 -0.58295034012E+02  0.62848636895E+02  0.76581957111E+03  0.77443971853E+03  0.77000000000E+02 0.  0.
   -5000001    1    1    2    0    0  0.58295034012E+02 -0.62848636895E+02  0.14641971160E+04  0.14687240914E+04  0.77000000000E+02 0.  0.
<mgrwt>
<rscale>  0 0.24250660E+03</rscale>
<asrwt>0</asrwt>
<pdfrwt beam="1">  1        2 0.34409125E+00 0.24250660E+03</pdfrwt>
<pdfrwt beam="2">  1       -2 0.10113158E-02 0.24250660E+03</pdfrwt>
<totfact> 0.11651855E+04</totfact>
</mgrwt>
</event>
<event>
 4    1  0.2489209E-004  0.3037642E+03  0.7818608E-02  0.1083374E+00
          2   -1    0    0  501    0  0.00000000000E+00  0.00000000000E+00  0.74549356810E+03  0.74549356810E+03  0.25500000000E-02 0.  1.
         -2   -1    0    0    0  501 -0.00000000000E+00 -0.00000000000E+00 -0.30943493454E+02  0.30943493559E+02  0.25500000000E-02 0. -1.
    5000001    1    1    2    0    0 -0.22253384217E+02  0.12899004726E+03  0.36328582830E+03  0.39375022342E+03  0.77000000000E+02 0.  0.
   -5000001    1    1    2    0    0  0.22253384217E+02 -0.12899004726E+03  0.35126424635E+03  0.38268683824E+03  0.77000000000E+02 0.  0.
<mgrwt>
<rscale>  0 0.30376422E+03</rscale>
<asrwt>0</asrwt>
<pdfrwt beam="1">  1        2 0.11469132E+00 0.30376422E+03</pdfrwt>
<pdfrwt beam="2">  1       -2 0.47605374E-02 0.30376422E+03</pdfrwt>
<totfact> 0.81910821E+03</totfact>
</mgrwt>
</event>
<event>
 4    1  0.2489209E-004  0.2071070E+03  0.7818608E-02  0.1143878E+00
          2   -1    0    0  501    0  0.00000000000E+00  0.00000000000E+00  0.64308389196E+03  0.64308389197E+03  0.25500000000E-02 0.  1.
         -2   -1    0    0    0  501 -0.00000000000E+00 -0.00000000000E+00 -0.16674842723E+02  0.16674842918E+02  0.25500000000E-02 0. -1.
    5000001    1    1    2    0    0 -0.53329019373E+01 -0.67190298388E+02  0.36370868171E+03  0.37783062500E+03  0.77000000000E+02 0.  0.
   -5000001    1    1    2    0    0  0.53329019373E+01  0.67190298388E+02  0.26270036753E+03  0.28192810988E+03  0.77000000000E+02 0.  0.
<mgrwt>
<rscale>  0 0.20710696E+03</rscale>
<asrwt>0</asrwt>
<pdfrwt beam="1">  1        2 0.98935976E-01 0.20710696E+03</pdfrwt>
<pdfrwt beam="2">  1       -2 0.25653606E-02 0.20710696E+03</pdfrwt>
<totfact> 0.24236436E+04</totfact>
</mgrwt>
</event>
<event>
 4    1  0.2489209E-004  0.1663764E+03  0.7818608E-02  0.1181680E+00
          2   -1    0    0  501    0  0.00000000000E+00  0.00000000000E+00  0.18493375834E+04  0.18493375834E+04  0.25500000000E-02 0.  1.
         -2   -1    0    0    0  501 -0.00000000000E+00 -0.00000000000E+00 -0.37420278983E+01  0.37420287671E+01  0.25500000000E-02 0. -1.
    5000001    1    1    2    0    0  0.61871287822E+01 -0.15948864418E+02  0.12171891438E+04  0.12197422099E+04  0.77000000000E+02 0.  0.
   -5000001    1    1    2    0    0 -0.61871287822E+01  0.15948864418E+02  0.62840641169E+03  0.63333740225E+03  0.77000000000E+02 0.  0.
<mgrwt>
<rscale>  0 0.16637636E+03</rscale>
<asrwt>0</asrwt>
<pdfrwt beam="1">  1        2 0.28451327E+00 0.16637636E+03</pdfrwt>
<pdfrwt beam="2">  1       -2 0.57569709E-03 0.16637636E+03</pdfrwt>
<totfact> 0.41077507E+04</totfact>
</mgrwt>
</event>
<event>
 4    1  0.2489209E-004  0.1712000E+03  0.7818608E-02  0.1176602E+00
         -2   -1    0    0    0  501 -0.00000000000E+00  0.00000000000E+00  0.60769803589E+01  0.60769808939E+01  0.25500000000E-02 0. -1.
          2   -1    0    0  501    0  0.00000000000E+00 -0.00000000000E+00 -0.12057559831E+04  0.12057559831E+04  0.25500000000E-02 0.  1.
    5000001    1    1    2    0    0  0.45135185909E+01 -0.29374729464E+02 -0.43918652767E+03  0.44687476173E+03  0.77000000000E+02 0.  0.
   -5000001    1    1    2    0    0 -0.45135185909E+01  0.29374729464E+02 -0.76049247510E+03  0.76495820230E+03  0.77000000000E+02 0.  0.
<mgrwt>
<rscale>  0 0.17119995E+03</rscale>
<asrwt>0</asrwt>
<pdfrwt beam="1">  1        2 0.18550073E+00 0.17119995E+03</pdfrwt>
<pdfrwt beam="2">  1       -2 0.93492106E-03 0.17119995E+03</pdfrwt>
<totfact> 0.44988138E+04</totfact>
</mgrwt>
</event>
<event>
 4    1  0.2489209E-004  0.2236852E+03  0.7818608E-02  0.1131165E+00
         -2   -1    0    0    0  501 -0.00000000000E+00  0.00000000000E+00  0.73523428857E+01  0.73523433279E+01  0.25500000000E-02 0. -1.
          2   -1    0    0  501    0  0.00000000000E+00 -0.00000000000E+00 -0.17013302651E+04  0.17013302651E+04  0.25500000000E-02 0.  1.
    5000001    1    1    2    0    0  0.79788531759E+02 -0.41571972925E+01 -0.95400604583E+03  0.96043741470E+03  0.77000000000E+02 0.  0.
   -5000001    1    1    2    0    0 -0.79788531759E+02  0.41571972925E+01 -0.73997187641E+03  0.74824519375E+03  0.77000000000E+02 0.  0.
<mgrwt>
<rscale>  0 0.22368517E+03</rscale>
<asrwt>0</asrwt>
<pdfrwt beam="1">  1        2 0.26174280E+00 0.22368517E+03</pdfrwt>
<pdfrwt beam="2">  1       -2 0.11311311E-02 0.22368517E+03</pdfrwt>
<totfact> 0.18857278E+04</totfact>
</mgrwt>
</event>
<event>
 4    1  0.2489209E-004  0.1707732E+03  0.7818608E-02  0.1177044E+00
         -2   -1    0    0    0  501 -0.00000000000E+00  0.00000000000E+00  0.56291233637E+01  0.56291239413E+01  0.25500000000E-02 0. -1.
          2   -1    0    0  501    0  0.00000000000E+00 -0.00000000000E+00 -0.12952047550E+04  0.12952047550E+04  0.25500000000E-02 0.  1.
    5000001    1    1    2    0    0  0.30910788608E+02 -0.58475206695E+01 -0.49783128660E+03  0.50473226593E+03  0.77000000000E+02 0.  0.
   -5000001    1    1    2    0    0 -0.30910788608E+02  0.58475206695E+01 -0.79174434503E+03  0.79610161301E+03  0.77000000000E+02 0.  0.
<mgrwt>
<rscale>  0 0.17077316E+03</rscale>
<asrwt>0</asrwt>
<pdfrwt beam="1">  1        2 0.19926203E+00 0.17077316E+03</pdfrwt>
<pdfrwt beam="2">  1       -2 0.86602005E-03 0.17077316E+03</pdfrwt>
<totfact> 0.44815750E+04</totfact>
</mgrwt>
</event>
<event>
 4    1  0.2489209E-004  0.2249706E+03  0.7818608E-02  0.1130231E+00
         -2   -1    0    0    0  501 -0.00000000000E+00  0.00000000000E+00  0.90507702186E+01  0.90507705778E+01  0.25500000000E-02 0. -1.
          2   -1    0    0  501    0  0.00000000000E+00 -0.00000000000E+00 -0.13979959541E+04  0.13979959541E+04  0.25500000000E-02 0.  1.
    5000001    1    1    2    0    0  0.77862972319E+02 -0.15179870336E+02 -0.82429679311E+03  0.83167738580E+03  0.77000000000E+02 0.  0.
   -5000001    1    1    2    0    0 -0.77862972319E+02  0.15179870336E+02 -0.56464839080E+03  0.57536933891E+03  0.77000000000E+02 0.  0.
<mgrwt>
<rscale>  0 0.22497058E+03</rscale>
<asrwt>0</asrwt>
<pdfrwt beam="1">  1        2 0.21507613E+00 0.22497058E+03</pdfrwt>
<pdfrwt beam="2">  1       -2 0.13924273E-02 0.22497058E+03</pdfrwt>
<totfact> 0.20191418E+04</totfact>
</mgrwt>
</event>
<event>
 4    1  0.2489209E-004  0.2174765E+03  0.7818608E-02  0.1135778E+00
          2   -1    0    0  501    0  0.00000000000E+00  0.00000000000E+00  0.14189322442E+04  0.14189322442E+04  0.25500000000E-02 0.  1.
         -2   -1    0    0    0  501 -0.00000000000E+00 -0.00000000000E+00 -0.83330334770E+01  0.83330338672E+01  0.25500000000E-02 0. -1.
    5000001    1    1    2    0    0  0.59897175426E+02 -0.48031833118E+02  0.70878197558E+03  0.71707434588E+03  0.77000000000E+02 0.  0.
   -5000001    1    1    2    0    0 -0.59897175426E+02  0.48031833118E+02  0.70181723518E+03  0.71019093223E+03  0.77000000000E+02 0.  0.
<mgrwt>
<rscale>  0 0.21747653E+03</rscale>
<asrwt>0</asrwt>
<pdfrwt beam="1">  1        2 0.21829727E+00 0.21747653E+03</pdfrwt>
<pdfrwt beam="2">  1       -2 0.12820052E-02 0.21747653E+03</pdfrwt>
<totfact> 0.22148163E+04</totfact>
</mgrwt>
</event>
<event>
 4    1  0.2489209E-004  0.2207777E+03  0.7818608E-02  0.1133305E+00
          2   -1    0    0  501    0  0.00000000000E+00  0.00000000000E+00  0.50443901600E+03  0.50443901601E+03  0.25500000000E-02 0.  1.
         -2   -1    0    0    0  501 -0.00000000000E+00 -0.00000000000E+00 -0.24156932949E+02  0.24156933084E+02  0.25500000000E-02 0. -1.
    5000001    1    1    2    0    0  0.55706838116E+02 -0.54769300654E+02  0.26983078261E+03  0.29127406227E+03  0.77000000000E+02 0.  0.
   -5000001    1    1    2    0    0 -0.55706838116E+02  0.54769300654E+02  0.21045130045E+03  0.23732188683E+03  0.77000000000E+02 0.  0.
<mgrwt>
<rscale>  0 0.22077771E+03</rscale>
<asrwt>0</asrwt>
<pdfrwt beam="1">  1        2 0.77605999E-01 0.22077771E+03</pdfrwt>
<pdfrwt beam="2">  1       -2 0.37164514E-02 0.22077771E+03</pdfrwt>
<totfact> 0.18527868E+04</totfact>
</mgrwt>
</event>
<event>
 4    1  0.2489209E-004  0.2715879E+03  0.7818608E-02  0.1100374E+00
          2   -1    0    0  501    0  0.00000000000E+00  0.00000000000E+00  0.18622387342E+03  0.18622387343E+03  0.25500000000E-02 0.  1.
         -2   -1    0    0    0  501 -0.00000000000E+00 -0.00000000000E+00 -0.99020558112E+02  0.99020558145E+02  0.25500000000E-02 0. -1.
    5000001    1    1    2    0    0 -0.10689298087E+03 -0.31469153381E+02  0.33387682622E+02  0.13949965708E+03  0.77000000000E+02 0.  0.
   -5000001    1    1    2    0    0  0.10689298087E+03  0.31469153381E+02  0.53815632681E+02  0.14574477450E+03  0.77000000000E+02 0.  0.
<mgrwt>
<rscale>  0 0.27158786E+03</rscale>
<asrwt>0</asrwt>
<pdfrwt beam="1">  1        2 0.28649826E-01 0.27158786E+03</pdfrwt>
<pdfrwt beam="2">  1       -2 0.15233932E-01 0.27158786E+03</pdfrwt>
<totfact> 0.61071877E+03</totfact>
</mgrwt>
</event>
<event>
 4    1  0.2489209E-004  0.1884506E+03  0.7818608E-02  0.1159866E+00
          2   -1    0    0  501    0  0.00000000000E+00  0.00000000000E+00  0.46986874847E+03  0.46986874848E+03  0.25500000000E-02 0.  1.
         -2   -1    0    0    0  501 -0.00000000000E+00 -0.00000000000E+00 -0.18895501811E+02  0.18895501983E+02  0.25500000000E-02 0. -1.
    5000001    1    1    2    0    0  0.19494576989E+02 -0.45434853843E+02  0.28377277901E+03  0.29816162493E+03  0.77000000000E+02 0.  0.
   -5000001    1    1    2    0    0 -0.19494576989E+02  0.45434853843E+02  0.16720046765E+03  0.19060262553E+03  0.77000000000E+02 0.  0.
<mgrwt>
<rscale>  0 0.18845059E+03</rscale>
<asrwt>0</asrwt>
<pdfrwt beam="1">  1        2 0.72287499E-01 0.18845059E+03</pdfrwt>
<pdfrwt beam="2">  1       -2 0.29070003E-02 0.18845059E+03</pdfrwt>
<totfact> 0.28544211E+04</totfact>
</mgrwt>
</event>
<event>
 4    1  0.2489209E-004  0.2897905E+03  0.7818608E-02  0.1090459E+00
          2   -1    0    0  501    0  0.00000000000E+00  0.00000000000E+00  0.64855005196E+03  0.64855005196E+03  0.25500000000E-02 0.  1.
         -2   -1    0    0    0  501 -0.00000000000E+00 -0.00000000000E+00 -0.32371656160E+02  0.32371656260E+02  0.25500000000E-02 0. -1.
    5000001    1    1    2    0    0 -0.11417444683E+03 -0.44195676360E+02  0.28752732264E+03  0.32185404049E+03  0.77000000000E+02 0.  0.
   -5000001    1    1    2    0    0  0.11417444683E+03  0.44195676360E+02  0.32865107316E+03  0.35906766773E+03  0.77000000000E+02 0.  0.
<mgrwt>
<rscale>  0 0.28979054E+03</rscale>
<asrwt>0</asrwt>
<pdfrwt beam="1">  1        2 0.99776934E-01 0.28979054E+03</pdfrwt>
<pdfrwt beam="2">  1       -2 0.49802547E-02 0.28979054E+03</pdfrwt>
<totfact> 0.90460744E+03</totfact>
</mgrwt>
</event>
<event>
 4    1  0.2489209E-004  0.1894995E+03  0.7818608E-02  0.1158914E+00
          2   -1    0    0  501    0  0.00000000000E+00  0.00000000000E+00  0.15703167639E+03  0.15703167641E+03  0.25500000000E-02 0.  1.
         -2   -1    0    0    0  501 -0.00000000000E+00 -0.00000000000E+00 -0.57170090595E+02  0.57170090651E+02  0.25500000000E-02 0. -1.
    5000001    1    1    2    0    0  0.70175061918E+01 -0.74022943134E+01 -0.11405705013E+02  0.78505601463E+02  0.77000000000E+02 0.  0.
   -5000001    1    1    2    0    0 -0.70175061918E+01  0.74022943134E+01  0.11126729080E+03  0.13569616560E+03  0.77000000000E+02 0.  0.
<mgrwt>
<rscale>  0 0.18949950E+03</rscale>
<asrwt>0</asrwt>
<pdfrwt beam="1">  1        2 0.24158719E-01 0.18949950E+03</pdfrwt>
<pdfrwt beam="2">  1       -2 0.87953987E-02 0.18949950E+03</pdfrwt>
<totfact> 0.17472464E+04</totfact>
</mgrwt>
</event>
<event>
 4    1  0.2489209E-004  0.2928324E+03  0.7818608E-02  0.1088880E+00
         -2   -1    0    0    0  501 -0.00000000000E+00  0.00000000000E+00  0.58516401816E+02  0.58516401871E+02  0.25500000000E-02 0. -1.
          2   -1    0    0  501    0  0.00000000000E+00 -0.00000000000E+00 -0.36635373558E+03  0.36635373559E+03  0.25500000000E-02 0.  1.
    5000001    1    1    2    0    0 -0.12170709721E+03 -0.24361950472E+02 -0.13922368657E+03  0.20178790114E+03  0.77000000000E+02 0.  0.
   -5000001    1    1    2    0    0  0.12170709721E+03  0.24361950472E+02 -0.16861364720E+03  0.22308223633E+03  0.77000000000E+02 0.  0.
<mgrwt>
<rscale>  0 0.29283239E+03</rscale>
<asrwt>0</asrwt>
<pdfrwt beam="1">  1        2 0.56362112E-01 0.29283239E+03</pdfrwt>
<pdfrwt beam="2">  1       -2 0.90025236E-02 0.29283239E+03</pdfrwt>
<totfact> 0.68731289E+03</totfact>
</mgrwt>
</event>
<event>
 4    1  0.2489209E-004  0.2598285E+03  0.7818608E-02  0.1107246E+00
         -2   -1    0    0    0  501 -0.00000000000E+00  0.00000000000E+00  0.27585322433E+03  0.27585322435E+03  0.25500000000E-02 0. -1.
          2   -1    0    0  501    0  0.00000000000E+00 -0.00000000000E+00 -0.61183683445E+02  0.61183683498E+02  0.25500000000E-02 0.  1.
    5000001    1    1    2    0    0  0.21671622037E+02  0.99868344570E+02  0.13649532285E+03  0.18709173848E+03  0.77000000000E+02 0.  0.
   -5000001    1    1    2    0    0 -0.21671622037E+02 -0.99868344570E+02  0.78174218041E+02  0.14994516936E+03  0.77000000000E+02 0.  0.
<mgrwt>
<rscale>  0 0.25982853E+03</rscale>
<asrwt>0</asrwt>
<pdfrwt beam="1">  1        2 0.94128742E-02 0.25982853E+03</pdfrwt>
<pdfrwt beam="2">  1       -2 0.42438959E-01 0.25982853E+03</pdfrwt>
<totfact> 0.36461809E+03</totfact>
</mgrwt>
</event>
<event>
 4    1  0.2489209E-004  0.4197837E+03  0.7818608E-02  0.1037137E+00
         -2   -1    0    0    0  501 -0.00000000000E+00  0.00000000000E+00  0.12935931224E+02  0.12935931476E+02  0.25500000000E-02 0. -1.
          2   -1    0    0  501    0  0.00000000000E+00 -0.00000000000E+00 -0.34055986055E+04  0.34055986055E+04  0.25500000000E-02 0.  1.
    5000001    1    1    2    0    0  0.84321887147E+02 -0.10636836823E+03 -0.55329376029E+03  0.57488033153E+03  0.77000000000E+02 0.  0.
   -5000001    1    1    2    0    0 -0.84321887147E+02  0.10636836823E+03 -0.28393689140E+04  0.28436542055E+04  0.77000000000E+02 0.  0.
<mgrwt>
<rscale>  0 0.41978371E+03</rscale>
<asrwt>0</asrwt>
<pdfrwt beam="1">  1        2 0.52393753E+00 0.41978371E+03</pdfrwt>
<pdfrwt beam="2">  1       -2 0.19901460E-02 0.41978371E+03</pdfrwt>
<totfact> 0.88720551E+02</totfact>
</mgrwt>
</event>
<event>
 4    1  0.2489209E-004  0.3612084E+03  0.7818608E-02  0.1058106E+00
          2   -1    0    0  501    0  0.00000000000E+00  0.00000000000E+00  0.11633645690E+03  0.11633645693E+03  0.25500000000E-02 0. -1.
         -2   -1    0    0    0  501 -0.00000000000E+00 -0.00000000000E+00 -0.28037536175E+03  0.28037536176E+03  0.25500000000E-02 0.  1.
    5000001    1    1    2    0    0  0.12302218582E+03  0.23552056492E+02  0.33168773988E+02  0.15072599357E+03  0.77000000000E+02 0.  0.
   -5000001    1    1    2    0    0 -0.12302218582E+03 -0.23552056492E+02 -0.19720767884E+03  0.24598582512E+03  0.77000000000E+02 0.  0.
<mgrwt>
<rscale>  0 0.36120840E+03</rscale>
<asrwt>0</asrwt>
<pdfrwt beam="1">  1        2 0.17897916E-01 0.36120840E+03</pdfrwt>
<pdfrwt beam="2">  1       -2 0.43134671E-01 0.36120840E+03</pdfrwt>
<totfact> 0.16359815E+03</totfact>
</mgrwt>
</event>
<event>
 4    1  0.2489209E-004  0.5429585E+03  0.7818608E-02  0.1003137E+00
         -2   -1    0    0    0  501 -0.00000000000E+00  0.00000000000E+00  0.28733863992E+02  0.28733864105E+02  0.25500000000E-02 0. -1.
          2   -1    0    0  501    0  0.00000000000E+00 -0.00000000000E+00 -0.25649524079E+04  0.25649524079E+04  0.25500000000E-02 0.  1.
    5000001    1    1    2    0    0 -0.59690084305E+02  0.24331495193E+03 -0.93009411152E+03  0.96631730207E+03  0.77000000000E+02 0.  0.
   -5000001    1    1    2    0    0  0.59690084305E+02 -0.24331495193E+03 -0.16061244324E+04  0.16273689700E+04  0.77000000000E+02 0.  0.
<mgrwt>
<rscale>  0 0.54295854E+03</rscale>
<asrwt>0</asrwt>
<pdfrwt beam="1">  1        2 0.39460788E+00 0.54295854E+03</pdfrwt>
<pdfrwt beam="2">  1       -2 0.44205965E-02 0.54295854E+03</pdfrwt>
<totfact> 0.84377006E+02</totfact>
</mgrwt>
</event>
<event>
 4    1  0.2489209E-004  0.2646871E+03  0.7818608E-02  0.1104359E+00
          2   -1    0    0  501    0  0.00000000000E+00  0.00000000000E+00  0.20931214629E+04  0.20931214629E+04  0.25500000000E-02 0. -1.
         -2   -1    0    0    0  501 -0.00000000000E+00 -0.00000000000E+00 -0.83677971777E+01  0.83677975662E+01  0.25500000000E-02 0.  1.
    5000001    1    1    2    0    0 -0.89405659590E+02 -0.59026760364E+02  0.95975776527E+03  0.96878351473E+03  0.77000000000E+02 0.  0.
   -5000001    1    1    2    0    0  0.89405659590E+02  0.59026760364E+02  0.11249959005E+04  0.11327057458E+04  0.77000000000E+02 0.  0.
<mgrwt>
<rscale>  0 0.26468711E+03</rscale>
<asrwt>0</asrwt>
<pdfrwt beam="1">  1        2 0.32201895E+00 0.26468711E+03</pdfrwt>
<pdfrwt beam="2">  1       -2 0.12873524E-02 0.26468711E+03</pdfrwt>
<totfact> 0.97839793E+03</totfact>
</mgrwt>
</event>
<event>
 4    1  0.2489209E-004  0.1654056E+03  0.7818608E-02  0.1182726E+00
          2   -1    0    0  501    0  0.00000000000E+00  0.00000000000E+00  0.10506421022E+04  0.10506421022E+04  0.25500000000E-02 0.  1.
         -2   -1    0    0    0  501 -0.00000000000E+00 -0.00000000000E+00 -0.65100728977E+01  0.65100733971E+01  0.25500000000E-02 0. -1.
    5000001    1    1    2    0    0  0.11512853526E+02  0.27071263561E+02  0.56511008437E+03  0.57109001616E+03  0.77000000000E+02 0.  0.
   -5000001    1    1    2    0    0 -0.11512853526E+02 -0.27071263561E+02  0.47902194490E+03  0.48606215940E+03  0.77000000000E+02 0.  0.
<mgrwt>
<rscale>  0 0.16540565E+03</rscale>
<asrwt>0</asrwt>
<pdfrwt beam="1">  1        2 0.16163727E+00 0.16540565E+03</pdfrwt>
<pdfrwt beam="2">  1       -2 0.10015496E-02 0.16540565E+03</pdfrwt>
<totfact> 0.49848462E+04</totfact>
</mgrwt>
</event>
<event>
 4    1  0.2489209E-004  0.2288915E+03  0.7818608E-02  0.1127422E+00
          2   -1    0    0  501    0  0.00000000000E+00  0.00000000000E+00  0.17962179471E+04  0.17962179471E+04  0.25500000000E-02 0.  1.
         -2   -1    0    0    0  501 -0.00000000000E+00 -0.00000000000E+00 -0.72918926827E+01  0.72918931285E+01  0.25500000000E-02 0. -1.
    5000001    1    1    2    0    0  0.36193020702E+02  0.75442297729E+02  0.99639413639E+03  0.10028617801E+04  0.77000000000E+02 0.  0.
   -5000001    1    1    2    0    0 -0.36193020702E+02 -0.75442297729E+02  0.79253191806E+03  0.80064806012E+03  0.77000000000E+02 0.  0.
<mgrwt>
<rscale>  0 0.22889149E+03</rscale>
<asrwt>0</asrwt>
<pdfrwt beam="1">  1        2 0.27634122E+00 0.22889149E+03</pdfrwt>
<pdfrwt beam="2">  1       -2 0.11218297E-02 0.22889149E+03</pdfrwt>
<totfact> 0.17040715E+04</totfact>
</mgrwt>
</event>
<event>
 4    1  0.2489209E-004  0.8863222E+03  0.7818608E-02  0.9442843E-01
          2   -1    0    0  501    0  0.00000000000E+00  0.00000000000E+00  0.49544504619E+03  0.49544504620E+03  0.25500000000E-02 0.  1.
         -2   -1    0    0    0  501 -0.00000000000E+00 -0.00000000000E+00 -0.39639467495E+03  0.39639467496E+03  0.25500000000E-02 0. -1.
    5000001    1    1    2    0    0  0.15071371163E+02 -0.37783077630E+03  0.26877962671E+03  0.47027091074E+03  0.77000000000E+02 0.  0.
   -5000001    1    1    2    0    0 -0.15071371163E+02  0.37783077630E+03 -0.16972925547E+03  0.42156881041E+03  0.77000000000E+02 0.  0.
<mgrwt>
<rscale>  0 0.88632224E+03</rscale>
<asrwt>0</asrwt>
<pdfrwt beam="1">  1        2 0.76222315E-01 0.88632224E+03</pdfrwt>
<pdfrwt beam="2">  1       -2 0.60983796E-01 0.88632224E+03</pdfrwt>
<totfact> 0.15643287E+02</totfact>
</mgrwt>
</event>
<event>
 4    1  0.2489209E-004  0.2614873E+03  0.7818608E-02  0.1106253E+00
         -2   -1    0    0    0  501 -0.00000000000E+00  0.00000000000E+00  0.15777501466E+02  0.15777501672E+02  0.25500000000E-02 0. -1.
          2   -1    0    0  501    0  0.00000000000E+00 -0.00000000000E+00 -0.10834351214E+04  0.10834351214E+04  0.25500000000E-02 0.  1.
    5000001    1    1    2    0    0 -0.12678171578E+02 -0.88057752484E+02 -0.29418152019E+03  0.31683855610E+03  0.77000000000E+02 0.  0.
   -5000001    1    1    2    0    0  0.12678171578E+02  0.88057752484E+02 -0.77347609976E+03  0.78237406700E+03  0.77000000000E+02 0.  0.
<mgrwt>
<rscale>  0 0.26148728E+03</rscale>
<asrwt>0</asrwt>
<pdfrwt beam="1">  1        2 0.16668227E+00 0.26148728E+03</pdfrwt>
<pdfrwt beam="2">  1       -2 0.24273088E-02 0.26148728E+03</pdfrwt>
<totfact> 0.13511059E+04</totfact>
</mgrwt>
</event>
<event>
 4    1  0.2489209E-004  0.2657402E+03  0.7818608E-02  0.1103743E+00
          2   -1    0    0  501    0  0.00000000000E+00  0.00000000000E+00  0.49172473899E+03  0.49172473900E+03  0.25500000000E-02 0.  1.
         -2   -1    0    0    0  501 -0.00000000000E+00 -0.00000000000E+00 -0.35903153951E+02  0.35903154042E+02  0.25500000000E-02 0. -1.
    5000001    1    1    2    0    0  0.32270529896E+02 -0.59572483627E+02  0.60195165454E+02  0.11892319307E+03  0.77000000000E+02 0.  0.
   -5000001    1    1    2    0    0 -0.32270529896E+02  0.59572483627E+02  0.39562641959E+03  0.40870469998E+03  0.77000000000E+02 0.  0.
<mgrwt>
<rscale>  0 0.26574024E+03</rscale>
<asrwt>0</asrwt>
<pdfrwt beam="1">  1        2 0.75649956E-01 0.26574024E+03</pdfrwt>
<pdfrwt beam="2">  1       -2 0.55235624E-02 0.26574024E+03</pdfrwt>
<totfact> 0.10580974E+04</totfact>
</mgrwt>
</event>
<event>
 4    1  0.2489209E-004  0.3548413E+03  0.7818608E-02  0.1060645E+00
          2   -1    0    0  501    0  0.00000000000E+00  0.00000000000E+00  0.74328254956E+03  0.74328254957E+03  0.25500000000E-02 0.  1.
         -2   -1    0    0    0  501 -0.00000000000E+00 -0.00000000000E+00 -0.42350094273E+02  0.42350094349E+02  0.25500000000E-02 0. -1.
    5000001    1    1    2    0    0  0.13284752993E+03 -0.41850523615E+00  0.54725990217E+03  0.56839338655E+03  0.77000000000E+02 0.  0.
   -5000001    1    1    2    0    0 -0.13284752993E+03  0.41850523615E+00  0.15367255312E+03  0.21723925736E+03  0.77000000000E+02 0.  0.
<mgrwt>
<rscale>  0 0.35484129E+03</rscale>
<asrwt>0</asrwt>
<pdfrwt beam="1">  1        2 0.11435115E+00 0.35484129E+03</pdfrwt>
<pdfrwt beam="2">  1       -2 0.65153998E-02 0.35484129E+03</pdfrwt>
<totfact> 0.50956171E+03</totfact>
</mgrwt>
</event>
<event>
 4    1  0.2489209E-004  0.2974640E+03  0.7818608E-02  0.1086515E+00
         -2   -1    0    0    0  501 -0.00000000000E+00  0.00000000000E+00  0.14689834232E+02  0.14689834453E+02  0.25500000000E-02 0. -1.
          2   -1    0    0  501    0  0.00000000000E+00 -0.00000000000E+00 -0.15058853239E+04  0.15058853239E+04  0.25500000000E-02 0.  1.
    5000001    1    1    2    0    0 -0.69883578958E+02  0.48316539879E+02 -0.12298443767E+04  0.12351778793E+04  0.77000000000E+02 0.  0.
   -5000001    1    1    2    0    0  0.69883578958E+02 -0.48316539879E+02 -0.26135111290E+03  0.28539727898E+03  0.77000000000E+02 0.  0.
<mgrwt>
<rscale>  0 0.29746399E+03</rscale>
<asrwt>0</asrwt>
<pdfrwt beam="1">  1        2 0.23167454E+00 0.29746399E+03</pdfrwt>
<pdfrwt beam="2">  1       -2 0.22599757E-02 0.29746399E+03</pdfrwt>
<totfact> 0.87561851E+03</totfact>
</mgrwt>
</event>
<event>
 4    1  0.2489209E-004  0.2037577E+03  0.7818608E-02  0.1146607E+00
         -2   -1    0    0    0  501 -0.00000000000E+00  0.00000000000E+00  0.79994313723E+01  0.79994317787E+01  0.25500000000E-02 0. -1.
          2   -1    0    0  501    0  0.00000000000E+00 -0.00000000000E+00 -0.12975041485E+04  0.12975041485E+04  0.25500000000E-02 0.  1.
    5000001    1    1    2    0    0  0.60541557381E+02  0.56432940173E+01 -0.82058935940E+03  0.82643391974E+03  0.77000000000E+02 0.  0.
   -5000001    1    1    2    0    0 -0.60541557381E+02 -0.56432940173E+01 -0.46891535773E+03  0.47906966054E+03  0.77000000000E+02 0.  0.
<mgrwt>
<rscale>  0 0.20375766E+03</rscale>
<asrwt>0</asrwt>
<pdfrwt beam="1">  1        2 0.19961586E+00 0.20375766E+03</pdfrwt>
<pdfrwt beam="2">  1       -2 0.12306828E-02 0.20375766E+03</pdfrwt>
<totfact> 0.27252808E+04</totfact>
</mgrwt>
</event>
<event>
 4    1  0.2489209E-004  0.1777672E+03  0.7818608E-02  0.1169982E+00
         -2   -1    0    0    0  501 -0.00000000000E+00  0.00000000000E+00  0.46048880341E+01  0.46048887402E+01  0.25500000000E-02 0. -1.
          2   -1    0    0  501    0  0.00000000000E+00 -0.00000000000E+00 -0.17156325498E+04  0.17156325498E+04  0.25500000000E-02 0.  1.
    5000001    1    1    2    0    0 -0.24701262833E+02 -0.19994389069E+02 -0.55547211902E+03  0.56168336542E+03  0.77000000000E+02 0.  0.
   -5000001    1    1    2    0    0  0.24701262833E+02  0.19994389069E+02 -0.11555555428E+04  0.11585540732E+04  0.77000000000E+02 0.  0.
<mgrwt>
<rscale>  0 0.17776722E+03</rscale>
<asrwt>0</asrwt>
<pdfrwt beam="1">  1        2 0.26394296E+00 0.17776722E+03</pdfrwt>
<pdfrwt beam="2">  1       -2 0.70844573E-03 0.17776722E+03</pdfrwt>
<totfact> 0.35950843E+04</totfact>
</mgrwt>
</event>
<event>
 4    1  0.2489209E-004  0.1818509E+03  0.7818608E-02  0.1166024E+00
          2   -1    0    0  501    0  0.00000000000E+00  0.00000000000E+00  0.15661365570E+04  0.15661365570E+04  0.25500000000E-02 0.  1.
         -2   -1    0    0    0  501 -0.00000000000E+00 -0.00000000000E+00 -0.52788715922E+01  0.52788722081E+01  0.25500000000E-02 0. -1.
    5000001    1    1    2    0    0  0.44187769582E+02  0.16837336269E+02  0.86786315856E+03  0.87255459248E+03  0.77000000000E+02 0.  0.
   -5000001    1    1    2    0    0 -0.44187769582E+02 -0.16837336269E+02  0.69299452685E+03  0.69886083673E+03  0.77000000000E+02 0.  0.
<mgrwt>
<rscale>  0 0.18185086E+03</rscale>
<asrwt>0</asrwt>
<pdfrwt beam="1">  1        2 0.24094437E+00 0.18185086E+03</pdfrwt>
<pdfrwt beam="2">  1       -2 0.81213319E-03 0.18185086E+03</pdfrwt>
<totfact> 0.35406672E+04</totfact>
</mgrwt>
</event>
<event>
 4    1  0.2489209E-004  0.1619151E+03  0.7818608E-02  0.1186551E+00
         -2   -1    0    0    0  501 -0.00000000000E+00  0.00000000000E+00  0.82044837673E+01  0.82044841636E+01  0.25500000000E-02 0. -1.
          2   -1    0    0  501    0  0.00000000000E+00 -0.00000000000E+00 -0.79884706912E+03  0.79884706912E+03  0.25500000000E-02 0.  1.
    5000001    1    1    2    0    0  0.20476359565E+02  0.63009119254E+01 -0.33107357601E+03  0.34058434421E+03  0.77000000000E+02 0.  0.
   -5000001    1    1    2    0    0 -0.20476359565E+02 -0.63009119254E+01 -0.45956900934E+03  0.46646720908E+03  0.77000000000E+02 0.  0.
<mgrwt>
<rscale>  0 0.16191514E+03</rscale>
<asrwt>0</asrwt>
<pdfrwt beam="1">  1        2 0.12289949E+00 0.16191514E+03</pdfrwt>
<pdfrwt beam="2">  1       -2 0.12622289E-02 0.16191514E+03</pdfrwt>
<totfact> 0.51350051E+04</totfact>
</mgrwt>
</event>
<event>
 4    1  0.2489209E-004  0.1589454E+03  0.7818608E-02  0.1189893E+00
         -2   -1    0    0    0  501 -0.00000000000E+00  0.00000000000E+00  0.22222342958E+02  0.22222343104E+02  0.25500000000E-02 0. -1.
          2   -1    0    0  501    0  0.00000000000E+00 -0.00000000000E+00 -0.28421447737E+03  0.28421447738E+03  0.25500000000E-02 0.  1.
    5000001    1    1    2    0    0  0.36249613987E+01  0.12501265917E+02 -0.15942838054E+03  0.17752698532E+03  0.77000000000E+02 0.  0.
   -5000001    1    1    2    0    0 -0.36249613987E+01 -0.12501265917E+02 -0.10256375388E+03  0.12890983517E+03  0.77000000000E+02 0.  0.
<mgrwt>
<rscale>  0 0.15894542E+03</rscale>
<asrwt>0</asrwt>
<pdfrwt beam="1">  1        2 0.43725302E-01 0.15894542E+03</pdfrwt>
<pdfrwt beam="2">  1       -2 0.34188222E-02 0.15894542E+03</pdfrwt>
<totfact> 0.37937042E+04</totfact>
</mgrwt>
</event>
<event>
 4    1  0.2489209E-004  0.2528397E+03  0.7818608E-02  0.1111523E+00
         -2   -1    0    0    0  501 -0.00000000000E+00  0.00000000000E+00  0.14944584009E+02  0.14944584227E+02  0.25500000000E-02 0.  1.
          2   -1    0    0  501    0  0.00000000000E+00 -0.00000000000E+00 -0.10694156790E+04  0.10694156790E+04  0.25500000000E-02 0. -1.
    5000001    1    1    2    0    0  0.70233444567E+01  0.38472264597E+02 -0.92318355044E+03  0.92721427421E+03  0.77000000000E+02 0.  0.
   -5000001    1    1    2    0    0 -0.70233444567E+01 -0.38472264597E+02 -0.13128754459E+03  0.15714598906E+03  0.77000000000E+02 0.  0.
<mgrwt>
<rscale>  0 0.25283965E+03</rscale>
<asrwt>0</asrwt>
<pdfrwt beam="1">  1        2 0.16452543E+00 0.25283965E+03</pdfrwt>
<pdfrwt beam="2">  1       -2 0.22991676E-02 0.25283965E+03</pdfrwt>
<totfact> 0.14900546E+04</totfact>
</mgrwt>
</event>
<event>
 4    1  0.2489209E-004  0.2447622E+03  0.7818608E-02  0.1116660E+00
          2   -1    0    0  501    0  0.00000000000E+00  0.00000000000E+00  0.57878445756E+02  0.57878445812E+02  0.25500000000E-02 0.  1.
         -2   -1    0    0    0  501 -0.00000000000E+00 -0.00000000000E+00 -0.25876871426E+03  0.25876871427E+03  0.25500000000E-02 0. -1.
    5000001    1    1    2    0    0 -0.79009069777E+02 -0.18149005773E+02 -0.36067661556E+02  0.11748061852E+03  0.77000000000E+02 0.  0.
   -5000001    1    1    2    0    0  0.79009069777E+02  0.18149005773E+02 -0.16482260695E+03  0.19916654156E+03  0.77000000000E+02 0.  0.
<mgrwt>
<rscale>  0 0.24476218E+03</rscale>
<asrwt>0</asrwt>
<pdfrwt beam="1">  1        2 0.89043764E-02 0.24476218E+03</pdfrwt>
<pdfrwt beam="2">  1       -2 0.39810571E-01 0.24476218E+03</pdfrwt>
<totfact> 0.44086182E+03</totfact>
</mgrwt>
</event>
<event>
 4    1  0.2489209E-004  0.2169553E+03  0.7818608E-02  0.1136174E+00
          2   -1    0    0  501    0  0.00000000000E+00  0.00000000000E+00  0.15712442286E+04  0.15712442286E+04  0.25500000000E-02 0.  1.
         -2   -1    0    0    0  501 -0.00000000000E+00 -0.00000000000E+00 -0.74892256928E+01  0.74892261269E+01  0.25500000000E-02 0. -1.
    5000001    1    1    2    0    0 -0.35909940479E+02  0.11158186132E+02  0.12658987428E+04  0.12687957503E+04  0.77000000000E+02 0.  0.
   -5000001    1    1    2    0    0  0.35909940479E+02 -0.11158186132E+02  0.29785626002E+03  0.30993770435E+03  0.77000000000E+02 0.  0.
<mgrwt>
<rscale>  0 0.21695532E+03</rscale>
<asrwt>0</asrwt>
<pdfrwt beam="1">  1        2 0.24172973E+00 0.21695532E+03</pdfrwt>
<pdfrwt beam="2">  1       -2 0.11521893E-02 0.21695532E+03</pdfrwt>
<totfact> 0.21456628E+04</totfact>
</mgrwt>
</event>
<event>
 4    1  0.2489209E-004  0.2023818E+03  0.7818608E-02  0.1147745E+00
          2   -1    0    0  501    0  0.00000000000E+00  0.00000000000E+00  0.82257425886E+02  0.82257425926E+02  0.25500000000E-02 0.  1.
         -2   -1    0    0    0  501 -0.00000000000E+00 -0.00000000000E+00 -0.12448236419E+03  0.12448236421E+03  0.25500000000E-02 0. -1.
    5000001    1    1    2    0    0  0.15217618911E+02 -0.63732092181E+02 -0.25354398921E+02  0.10423627509E+03  0.77000000000E+02 0.  0.
   -5000001    1    1    2    0    0 -0.15217618911E+02  0.63732092181E+02 -0.16870539379E+02  0.10250351505E+03  0.77000000000E+02 0.  0.
<mgrwt>
<rscale>  0 0.20238181E+03</rscale>
<asrwt>0</asrwt>
<pdfrwt beam="1">  1        2 0.12654989E-01 0.20238181E+03</pdfrwt>
<pdfrwt beam="2">  1       -2 0.19151133E-01 0.20238181E+03</pdfrwt>
<totfact> 0.10502157E+04</totfact>
</mgrwt>
</event>
<event>
 4    1  0.2489209E-004  0.3378951E+03  0.7818608E-02  0.1067696E+00
         -2   -1    0    0    0  501 -0.00000000000E+00  0.00000000000E+00  0.28652333523E+03  0.28652333524E+03  0.25500000000E-02 0. -1.
          2   -1    0    0  501    0  0.00000000000E+00 -0.00000000000E+00 -0.99619364429E+02  0.99619364462E+02  0.25500000000E-02 0.  1.
    5000001    1    1    2    0    0 -0.64113329993E+02 -0.13456887640E+03  0.70740342863E+02  0.18207827352E+03  0.77000000000E+02 0.  0.
   -5000001    1    1    2    0    0  0.64113329993E+02  0.13456887640E+03  0.11616362794E+03  0.20406442619E+03  0.77000000000E+02 0.  0.
<mgrwt>
<rscale>  0 0.33789509E+03</rscale>
<asrwt>0</asrwt>
<pdfrwt beam="1">  1        2 0.15326056E-01 0.33789509E+03</pdfrwt>
<pdfrwt beam="2">  1       -2 0.44080513E-01 0.33789509E+03</pdfrwt>
<totfact> 0.18814088E+03</totfact>
</mgrwt>
</event>
<event>
 4    1  0.2489209E-004  0.5218706E+03  0.7818608E-02  0.1008223E+00
         -2   -1    0    0    0  501 -0.00000000000E+00  0.00000000000E+00  0.93077409877E+03  0.93077409877E+03  0.25500000000E-02 0. -1.
          2   -1    0    0  501    0  0.00000000000E+00 -0.00000000000E+00 -0.73151195488E+02  0.73151195532E+02  0.25500000000E-02 0.  1.
    5000001    1    1    2    0    0  0.23823306936E+03  0.13469100230E+02  0.56782263606E+03  0.62071568211E+03  0.77000000000E+02 0.  0.
   -5000001    1    1    2    0    0 -0.23823306936E+03 -0.13469100230E+02  0.28980026722E+03  0.38320961219E+03  0.77000000000E+02 0.  0.
<mgrwt>
<rscale>  0 0.52187063E+03</rscale>
<asrwt>0</asrwt>
<pdfrwt beam="1">  1        2 0.11254031E-01 0.52187063E+03</pdfrwt>
<pdfrwt beam="2">  1       -2 0.14319600E+00 0.52187063E+03</pdfrwt>
<totfact> 0.19703167E+02</totfact>
</mgrwt>
</event>
<event>
 4    1  0.2489209E-004  0.3943961E+03  0.7818608E-02  0.1045738E+00
          2   -1    0    0  501    0  0.00000000000E+00  0.00000000000E+00  0.23920092465E+04  0.23920092465E+04  0.25500000000E-02 0.  1.
         -2   -1    0    0    0  501 -0.00000000000E+00 -0.00000000000E+00 -0.16257074034E+02  0.16257074234E+02  0.25500000000E-02 0. -1.
    5000001    1    1    2    0    0  0.22896602865E+02  0.15145353169E+03  0.17828996031E+04  0.17911232290E+04  0.77000000000E+02 0.  0.
   -5000001    1    1    2    0    0 -0.22896602865E+02 -0.15145353169E+03  0.59285256931E+03  0.61714309170E+03  0.77000000000E+02 0.  0.
<mgrwt>
<rscale>  0 0.39439610E+03</rscale>
<asrwt>0</asrwt>
<pdfrwt beam="1">  1        2 0.36800103E+00 0.39439610E+03</pdfrwt>
<pdfrwt beam="2">  1       -2 0.25010910E-02 0.39439610E+03</pdfrwt>
<totfact> 0.25286465E+03</totfact>
</mgrwt>
</event>
<event>
 4    1  0.2489209E-004  0.3657440E+03  0.7818608E-02  0.1056332E+00
          2   -1    0    0  501    0  0.00000000000E+00  0.00000000000E+00  0.16888076558E+04  0.16888076558E+04  0.25500000000E-02 0.  1.
         -2   -1    0    0    0  501 -0.00000000000E+00 -0.00000000000E+00 -0.19802231466E+02  0.19802231630E+02  0.25500000000E-02 0. -1.
    5000001    1    1    2    0    0 -0.76238013582E+02  0.12444982982E+03  0.46627012872E+03  0.49460775145E+03  0.77000000000E+02 0.  0.
   -5000001    1    1    2    0    0  0.76238013582E+02 -0.12444982982E+03  0.12027352956E+04  0.12140021359E+04  0.77000000000E+02 0.  0.
<mgrwt>
<rscale>  0 0.36574396E+03</rscale>
<asrwt>0</asrwt>
<pdfrwt beam="1">  1        2 0.25981655E+00 0.36574396E+03</pdfrwt>
<pdfrwt beam="2">  1       -2 0.30464973E-02 0.36574396E+03</pdfrwt>
<totfact> 0.44856781E+03</totfact>
</mgrwt>
</event>
<event>
 4    1  0.2489209E-004  0.6023577E+03  0.7818608E-02  0.9900527E-01
         -2   -1    0    0    0  501 -0.00000000000E+00  0.00000000000E+00  0.73961446218E+02  0.73961446262E+02  0.25500000000E-02 0. -1.
          2   -1    0    0  501    0  0.00000000000E+00 -0.00000000000E+00 -0.12264321247E+04  0.12264321247E+04  0.25500000000E-02 0.  1.
    5000001    1    1    2    0    0  0.13206346610E+03  0.24756874072E+03 -0.40833572270E+03  0.50139615365E+03  0.77000000000E+02 0.  0.
   -5000001    1    1    2    0    0 -0.13206346610E+03 -0.24756874072E+03 -0.74413495579E+03  0.79899741732E+03  0.77000000000E+02 0.  0.
<mgrwt>
<rscale>  0 0.60235768E+03</rscale>
<asrwt>0</asrwt>
<pdfrwt beam="1">  1        2 0.18868185E+00 0.60235768E+03</pdfrwt>
<pdfrwt beam="2">  1       -2 0.11378685E-01 0.60235768E+03</pdfrwt>
<totfact> 0.10272810E+03</totfact>
</mgrwt>
</event>
<event>
 4    1  0.2489209E-004  0.1879435E+03  0.7818608E-02  0.1160329E+00
         -2   -1    0    0    0  501 -0.00000000000E+00  0.00000000000E+00  0.86026220500E+01  0.86026224280E+01  0.25500000000E-02 0. -1.
          2   -1    0    0  501    0  0.00000000000E+00 -0.00000000000E+00 -0.10265119346E+04  0.10265119346E+04  0.25500000000E-02 0.  1.
    5000001    1    1    2    0    0  0.48398590556E+02  0.21952566461E+02 -0.46051433255E+03  0.46992210975E+03  0.77000000000E+02 0.  0.
   -5000001    1    1    2    0    0 -0.48398590556E+02 -0.21952566461E+02 -0.55739498002E+03  0.56519244731E+03  0.77000000000E+02 0.  0.
<mgrwt>
<rscale>  0 0.18794355E+03</rscale>
<asrwt>0</asrwt>
<pdfrwt beam="1">  1        2 0.15792482E+00 0.18794355E+03</pdfrwt>
<pdfrwt beam="2">  1       -2 0.13234812E-02 0.18794355E+03</pdfrwt>
<totfact> 0.34820464E+04</totfact>
</mgrwt>
</event>
<event>
 4    1  0.2489209E-004  0.6977817E+03  0.7818608E-02  0.9721033E-01
         -2   -1    0    0    0  501 -0.00000000000E+00  0.00000000000E+00  0.45233077180E+02  0.45233077252E+02  0.25500000000E-02 0. -1.
          2   -1    0    0  501    0  0.00000000000E+00 -0.00000000000E+00 -0.26910577316E+04  0.26910577316E+04  0.25500000000E-02 0.  1.
    5000001    1    1    2    0    0  0.13425001174E+03  0.21294057784E+03 -0.42501072698E+03  0.49992986847E+03  0.77000000000E+02 0.  0.
   -5000001    1    1    2    0    0 -0.13425001174E+03 -0.21294057784E+03 -0.22208139275E+04  0.22363609404E+04  0.77000000000E+02 0.  0.
<mgrwt>
<rscale>  0 0.69778169E+03</rscale>
<asrwt>0</asrwt>
<pdfrwt beam="1">  1        2 0.41400876E+00 0.69778169E+03</pdfrwt>
<pdfrwt beam="2">  1       -2 0.69589371E-02 0.69778169E+03</pdfrwt>
<totfact> 0.34666203E+02</totfact>
</mgrwt>
</event>
<event>
 4    1  0.2489209E-004  0.6525504E+03  0.7818608E-02  0.9802005E-01
         -2   -1    0    0    0  501 -0.00000000000E+00  0.00000000000E+00  0.35799779309E+03  0.35799779310E+03  0.25500000000E-02 0. -1.
          2   -1    0    0  501    0  0.00000000000E+00 -0.00000000000E+00 -0.29736356514E+03  0.29736356515E+03  0.25500000000E-02 0.  1.
    5000001    1    1    2    0    0  0.26833087428E+03 -0.24959691800E+02  0.19807574909E+03  0.34320175799E+03  0.77000000000E+02 0.  0.
   -5000001    1    1    2    0    0 -0.26833087428E+03  0.24959691800E+02 -0.13744152114E+03  0.31215960027E+03  0.77000000000E+02 0.  0.
<mgrwt>
<rscale>  0 0.65255038E+03</rscale>
<asrwt>0</asrwt>
<pdfrwt beam="1">  1        2 0.45748241E-01 0.65255038E+03</pdfrwt>
<pdfrwt beam="2">  1       -2 0.55076583E-01 0.65255038E+03</pdfrwt>
<totfact> 0.34705954E+02</totfact>
</mgrwt>
</event>
<event>
 4    1  0.2489209E-004  0.3408622E+03  0.7818608E-02  0.1066429E+00
         -2   -1    0    0    0  501 -0.00000000000E+00  0.00000000000E+00  0.62771511180E+02  0.62771511232E+02  0.25500000000E-02 0. -1.
          2   -1    0    0  501    0  0.00000000000E+00 -0.00000000000E+00 -0.46273784875E+03  0.46273784875E+03  0.25500000000E-02 0.  1.
    5000001    1    1    2    0    0  0.76225240628E+02  0.12736879042E+03 -0.14920838718E+03  0.22410988128E+03  0.77000000000E+02 0.  0.
   -5000001    1    1    2    0    0 -0.76225240628E+02 -0.12736879042E+03 -0.25075795038E+03  0.30139947870E+03  0.77000000000E+02 0.  0.
<mgrwt>
<rscale>  0 0.34086217E+03</rscale>
<asrwt>0</asrwt>
<pdfrwt beam="1">  1        2 0.71190436E-01 0.34086217E+03</pdfrwt>
<pdfrwt beam="2">  1       -2 0.96571558E-02 0.34086217E+03</pdfrwt>
<totfact> 0.47796824E+03</totfact>
</mgrwt>
</event>
<event>
 4    1  0.2489209E-004  0.4530774E+03  0.7818608E-02  0.1026808E+00
          2   -1    0    0  501    0  0.00000000000E+00  0.00000000000E+00  0.93075829217E+02  0.93075829252E+02  0.25500000000E-02 0.  1.
         -2   -1    0    0    0  501 -0.00000000000E+00 -0.00000000000E+00 -0.55137608913E+03  0.55137608913E+03  0.25500000000E-02 0. -1.
    5000001    1    1    2    0    0 -0.10087110713E+03  0.18338354641E+03 -0.17249904703E+03  0.28193869293E+03  0.77000000000E+02 0.  0.
   -5000001    1    1    2    0    0  0.10087110713E+03 -0.18338354641E+03 -0.28580121288E+03  0.36251322545E+03  0.77000000000E+02 0.  0.
<mgrwt>
<rscale>  0 0.45307742E+03</rscale>
<asrwt>0</asrwt>
<pdfrwt beam="1">  1        2 0.14319359E-01 0.45307742E+03</pdfrwt>
<pdfrwt beam="2">  1       -2 0.84827089E-01 0.45307742E+03</pdfrwt>
<totfact> 0.51786654E+02</totfact>
</mgrwt>
</event>
<event>
 4    1  0.2489209E-004  0.1982917E+03  0.7818608E-02  0.1151188E+00
         -2   -1    0    0    0  501 -0.00000000000E+00  0.00000000000E+00  0.19843137930E+02  0.19843138094E+02  0.25500000000E-02 0. -1.
          2   -1    0    0  501    0  0.00000000000E+00 -0.00000000000E+00 -0.49538042629E+03  0.49538042630E+03  0.25500000000E-02 0.  1.
    5000001    1    1    2    0    0  0.57837090126E+02 -0.22368240874E+02 -0.21842300608E+03  0.23975628622E+03  0.77000000000E+02 0.  0.
   -5000001    1    1    2    0    0 -0.57837090126E+02  0.22368240874E+02 -0.25711428227E+03  0.27546727817E+03  0.77000000000E+02 0.  0.
<mgrwt>
<rscale>  0 0.19829173E+03</rscale>
<asrwt>0</asrwt>
<pdfrwt beam="1">  1        2 0.76212364E-01 0.19829173E+03</pdfrwt>
<pdfrwt beam="2">  1       -2 0.30527908E-02 0.19829173E+03</pdfrwt>
<totfact> 0.25146341E+04</totfact>
</mgrwt>
</event>
<event>
 4    1  0.2489209E-004  0.2635643E+03  0.7818608E-02  0.1105020E+00
         -2   -1    0    0    0  501 -0.00000000000E+00  0.00000000000E+00  0.22922668273E+02  0.22922668415E+02  0.25500000000E-02 0. -1.
          2   -1    0    0  501    0  0.00000000000E+00 -0.00000000000E+00 -0.75761380371E+03  0.75761380371E+03  0.25500000000E-02 0.  1.
    5000001    1    1    2    0    0 -0.17123841042E+02 -0.10543894509E+03 -0.38271465624E+03  0.40473461080E+03  0.77000000000E+02 0.  0.
   -5000001    1    1    2    0    0  0.17123841042E+02  0.10543894509E+03 -0.35197647919E+03  0.37580186133E+03  0.77000000000E+02 0.  0.
<mgrwt>
<rscale>  0 0.26356426E+03</rscale>
<asrwt>0</asrwt>
<pdfrwt beam="1">  1        2 0.11655595E+00 0.26356426E+03</pdfrwt>
<pdfrwt beam="2">  1       -2 0.35265649E-02 0.26356426E+03</pdfrwt>
<totfact> 0.12559896E+04</totfact>
</mgrwt>
</event>
<event>
 4    1  0.2489209E-004  0.1773963E+03  0.7818608E-02  0.1170347E+00
         -2   -1    0    0    0  501 -0.00000000000E+00  0.00000000000E+00  0.57237860646E+02  0.57237860703E+02  0.25500000000E-02 0. -1.
          2   -1    0    0  501    0  0.00000000000E+00 -0.00000000000E+00 -0.13745038369E+03  0.13745038371E+03  0.25500000000E-02 0.  1.
    5000001    1    1    2    0    0  0.83264245145E+01  0.31202700318E+02 -0.72657125081E+01  0.83813653008E+02  0.77000000000E+02 0.  0.
   -5000001    1    1    2    0    0 -0.83264245145E+01 -0.31202700318E+02 -0.72946810531E+02  0.11087459140E+03  0.77000000000E+02 0.  0.
<mgrwt>
<rscale>  0 0.17739635E+03</rscale>
<asrwt>0</asrwt>
<pdfrwt beam="1">  1        2 0.21146213E-01 0.17739635E+03</pdfrwt>
<pdfrwt beam="2">  1       -2 0.88058247E-02 0.17739635E+03</pdfrwt>
<totfact> 0.20142039E+04</totfact>
</mgrwt>
</event>
<event>
 4    1  0.2489209E-004  0.2051772E+03  0.7818608E-02  0.1145443E+00
          2   -1    0    0  501    0  0.00000000000E+00  0.00000000000E+00  0.31715069793E+03  0.31715069795E+03  0.25500000000E-02 0.  1.
         -2   -1    0    0    0  501 -0.00000000000E+00 -0.00000000000E+00 -0.33184290449E+02  0.33184290547E+02  0.25500000000E-02 0. -1.
    5000001    1    1    2    0    0  0.41496676824E+02  0.53597363545E+02  0.14348085415E+03  0.17638142497E+03  0.77000000000E+02 0.  0.
   -5000001    1    1    2    0    0 -0.41496676824E+02 -0.53597363545E+02  0.14048555333E+03  0.17395356352E+03  0.77000000000E+02 0.  0.
<mgrwt>
<rscale>  0 0.20517720E+03</rscale>
<asrwt>0</asrwt>
<pdfrwt beam="1">  1        2 0.48792414E-01 0.20517720E+03</pdfrwt>
<pdfrwt beam="2">  1       -2 0.51052755E-02 0.20517720E+03</pdfrwt>
<totfact> 0.18925391E+04</totfact>
</mgrwt>
</event>
<event>
 4    1  0.2489209E-004  0.3123702E+03  0.7818608E-02  0.1079215E+00
          2   -1    0    0  501    0  0.00000000000E+00  0.00000000000E+00  0.10778155500E+04  0.10778155500E+04  0.25500000000E-02 0.  1.
         -2   -1    0    0    0  501 -0.00000000000E+00 -0.00000000000E+00 -0.22632614488E+02  0.22632614631E+02  0.25500000000E-02 0. -1.
    5000001    1    1    2    0    0  0.10817277475E+03  0.81425524431E+02  0.56826815012E+03  0.58922759242E+03  0.77000000000E+02 0.  0.
   -5000001    1    1    2    0    0 -0.10817277475E+03 -0.81425524431E+02  0.48691478543E+03  0.51122057225E+03  0.77000000000E+02 0.  0.
<mgrwt>
<rscale>  0 0.31237019E+03</rscale>
<asrwt>0</asrwt>
<pdfrwt beam="1">  1        2 0.16581778E+00 0.31237019E+03</pdfrwt>
<pdfrwt beam="2">  1       -2 0.34819406E-02 0.31237019E+03</pdfrwt>
<totfact> 0.79951790E+03</totfact>
</mgrwt>
</event>
<event>
 4    1  0.2489209E-004  0.2111873E+03  0.7818608E-02  0.1140629E+00
          2   -1    0    0  501    0  0.00000000000E+00  0.00000000000E+00  0.30479625884E+04  0.30479625884E+04  0.25500000000E-02 0.  1.
         -2   -1    0    0    0  501 -0.00000000000E+00 -0.00000000000E+00 -0.36581856937E+01  0.36581865824E+01  0.25500000000E-02 0. -1.
    5000001    1    1    2    0    0  0.35521556123E+02 -0.58792199170E+02  0.18461350243E+04  0.18490164498E+04  0.77000000000E+02 0.  0.
   -5000001    1    1    2    0    0 -0.35521556123E+02  0.58792199170E+02  0.11981693784E+04  0.12026043252E+04  0.77000000000E+02 0.  0.
<mgrwt>
<rscale>  0 0.21118726E+03</rscale>
<asrwt>0</asrwt>
<pdfrwt beam="1">  1        2 0.46891761E+00 0.21118726E+03</pdfrwt>
<pdfrwt beam="2">  1       -2 0.56279752E-03 0.21118726E+03</pdfrwt>
<totfact> 0.95591141E+03</totfact>
</mgrwt>
</event>
<event>
 4    1  0.2489209E-004  0.6090131E+03  0.7818608E-02  0.9886881E-01
         -2   -1    0    0    0  501 -0.00000000000E+00  0.00000000000E+00  0.25383993377E+02  0.25383993505E+02  0.25500000000E-02 0. -1.
          2   -1    0    0  501    0  0.00000000000E+00 -0.00000000000E+00 -0.36528619994E+04  0.36528619994E+04  0.25500000000E-02 0.  1.
    5000001    1    1    2    0    0 -0.13836908143E+03 -0.25011292378E+03 -0.22447518839E+04  0.22641869396E+04  0.77000000000E+02 0.  0.
   -5000001    1    1    2    0    0  0.13836908143E+03  0.25011292378E+03 -0.13827261222E+04  0.14140590533E+04  0.77000000000E+02 0.  0.
<mgrwt>
<rscale>  0 0.60901305E+03</rscale>
<asrwt>0</asrwt>
<pdfrwt beam="1">  1        2 0.56197835E+00 0.60901305E+03</pdfrwt>
<pdfrwt beam="2">  1       -2 0.39052327E-02 0.60901305E+03</pdfrwt>
<totfact> 0.21143601E+02</totfact>
</mgrwt>
</event>
<event>
 4    1  0.2489209E-004  0.2080094E+03  0.7818608E-02  0.1143152E+00
         -2   -1    0    0    0  501 -0.00000000000E+00  0.00000000000E+00  0.47485278667E+02  0.47485278736E+02  0.25500000000E-02 0. -1.
          2   -1    0    0  501    0  0.00000000000E+00 -0.00000000000E+00 -0.22779645926E+03  0.22779645928E+03  0.25500000000E-02 0.  1.
    5000001    1    1    2    0    0 -0.61196827656E+02 -0.32446643468E+02 -0.77590721689E+02  0.12941080511E+03  0.77000000000E+02 0.  0.
   -5000001    1    1    2    0    0  0.61196827656E+02  0.32446643468E+02 -0.10272045891E+03  0.14587093290E+03  0.77000000000E+02 0.  0.
<mgrwt>
<rscale>  0 0.20800941E+03</rscale>
<asrwt>0</asrwt>
<pdfrwt beam="1">  1        2 0.35045609E-01 0.20800941E+03</pdfrwt>
<pdfrwt beam="2">  1       -2 0.73054276E-02 0.20800941E+03</pdfrwt>
<totfact> 0.15617213E+04</totfact>
</mgrwt>
</event>
<event>
 4    1  0.2489209E-004  0.1786835E+03  0.7818608E-02  0.1169083E+00
         -2   -1    0    0    0  501 -0.00000000000E+00  0.00000000000E+00  0.40939918389E+01  0.40939926331E+01  0.25500000000E-02 0. -1.
          2   -1    0    0  501    0  0.00000000000E+00 -0.00000000000E+00 -0.19496738008E+04  0.19496738008E+04  0.25500000000E-02 0.  1.
    5000001    1    1    2    0    0 -0.11577587931E+02  0.17416801684E+02 -0.14122814582E+04  0.14145335990E+04  0.77000000000E+02 0.  0.
   -5000001    1    1    2    0    0  0.11577587931E+02 -0.17416801684E+02 -0.53329835072E+03  0.53923419439E+03  0.77000000000E+02 0.  0.
<mgrwt>
<rscale>  0 0.17868351E+03</rscale>
<asrwt>0</asrwt>
<pdfrwt beam="1">  1        2 0.29994907E+00 0.17868351E+03</pdfrwt>
<pdfrwt beam="2">  1       -2 0.62984652E-03 0.17868351E+03</pdfrwt>
<totfact> 0.32206796E+04</totfact>
</mgrwt>
</event>
<event>
 4    1  0.2489209E-004  0.1908439E+03  0.7818608E-02  0.1157702E+00
          2   -1    0    0  501    0  0.00000000000E+00  0.00000000000E+00  0.48156979128E+02  0.48156979195E+02  0.25500000000E-02 0.  1.
         -2   -1    0    0    0  501 -0.00000000000E+00 -0.00000000000E+00 -0.18907631053E+03  0.18907631055E+03  0.25500000000E-02 0. -1.
    5000001    1    1    2    0    0  0.15363503521E+02  0.53667103666E+02 -0.60818921549E+02  0.11288993079E+03  0.77000000000E+02 0.  0.
   -5000001    1    1    2    0    0 -0.15363503521E+02 -0.53667103666E+02 -0.80100409856E+02  0.12434335895E+03  0.77000000000E+02 0.  0.
<mgrwt>
<rscale>  0 0.19084385E+03</rscale>
<asrwt>0</asrwt>
<pdfrwt beam="1">  1        2 0.74087661E-02 0.19084385E+03</pdfrwt>
<pdfrwt beam="2">  1       -2 0.29088663E-01 0.19084385E+03</pdfrwt>
<totfact> 0.98029379E+03</totfact>
</mgrwt>
</event>
<event>
 4    1  0.2489209E-004  0.3111808E+03  0.7818608E-02  0.1079781E+00
         -2   -1    0    0    0  501 -0.00000000000E+00  0.00000000000E+00  0.16734545288E+02  0.16734545482E+02  0.25500000000E-02 0. -1.
          2   -1    0    0  501    0  0.00000000000E+00 -0.00000000000E+00 -0.14466106405E+04  0.14466106405E+04  0.25500000000E-02 0.  1.
    5000001    1    1    2    0    0 -0.81649246637E+02  0.64604578000E+02 -0.11205323791E+04  0.11279903207E+04  0.77000000000E+02 0.  0.
   -5000001    1    1    2    0    0  0.81649246637E+02 -0.64604578000E+02 -0.30934371615E+03  0.33535486532E+03  0.77000000000E+02 0.  0.
<mgrwt>
<rscale>  0 0.31118079E+03</rscale>
<asrwt>0</asrwt>
<pdfrwt beam="1">  1        2 0.22255538E+00 0.31118079E+03</pdfrwt>
<pdfrwt beam="2">  1       -2 0.25745466E-02 0.31118079E+03</pdfrwt>
<totfact> 0.77736281E+03</totfact>
</mgrwt>
</event>
<event>
 4    1  0.2489209E-004  0.1853370E+03  0.7818608E-02  0.1162736E+00
          2   -1    0    0  501    0  0.00000000000E+00  0.00000000000E+00  0.20256493156E+04  0.20256493156E+04  0.25500000000E-02 0.  1.
         -2   -1    0    0    0  501 -0.00000000000E+00 -0.00000000000E+00 -0.42393551912E+01  0.42393559581E+01  0.25500000000E-02 0. -1.
    5000001    1    1    2    0    0 -0.39638268741E+02 -0.32797040340E+02  0.97338707454E+03  0.97778230454E+03  0.77000000000E+02 0.  0.
   -5000001    1    1    2    0    0  0.39638268741E+02  0.32797040340E+02  0.10480228859E+04  0.10521063670E+04  0.77000000000E+02 0.  0.
<mgrwt>
<rscale>  0 0.18533697E+03</rscale>
<asrwt>0</asrwt>
<pdfrwt beam="1">  1        2 0.31163894E+00 0.18533697E+03</pdfrwt>
<pdfrwt beam="2">  1       -2 0.65220733E-03 0.18533697E+03</pdfrwt>
<totfact> 0.28036345E+04</totfact>
</mgrwt>
</event>
<event>
 4    1  0.2489209E-004  0.2007576E+03  0.7818608E-02  0.1149101E+00
         -2   -1    0    0    0  501 -0.00000000000E+00  0.00000000000E+00  0.65022549510E+02  0.65022549560E+02  0.25500000000E-02 0. -1.
          2   -1    0    0  501    0  0.00000000000E+00 -0.00000000000E+00 -0.15496018905E+03  0.15496018907E+03  0.25500000000E-02 0.  1.
    5000001    1    1    2    0    0  0.30985927368E+02 -0.55764821126E+02 -0.35349570120E+02  0.10605863981E+03  0.77000000000E+02 0.  0.
   -5000001    1    1    2    0    0 -0.30985927368E+02  0.55764821126E+02 -0.54588069421E+02  0.11392409883E+03  0.77000000000E+02 0.  0.
<mgrwt>
<rscale>  0 0.20075763E+03</rscale>
<asrwt>0</asrwt>
<pdfrwt beam="1">  1        2 0.23840029E-01 0.20075763E+03</pdfrwt>
<pdfrwt beam="2">  1       -2 0.10003469E-01 0.20075763E+03</pdfrwt>
<totfact> 0.14544224E+04</totfact>
</mgrwt>
</event>
<event>
 4    1  0.2489209E-004  0.2064218E+03  0.7818608E-02  0.1144431E+00
         -2   -1    0    0    0  501 -0.00000000000E+00  0.00000000000E+00  0.14506698222E+02  0.14506698447E+02  0.25500000000E-02 0. -1.
          2   -1    0    0  501    0  0.00000000000E+00 -0.00000000000E+00 -0.73431555600E+03  0.73431555601E+03  0.25500000000E-02 0.  1.
    5000001    1    1    2    0    0 -0.32070712412E+02 -0.56519289227E+02 -0.44106399453E+03  0.45242613532E+03  0.77000000000E+02 0.  0.
   -5000001    1    1    2    0    0  0.32070712412E+02  0.56519289227E+02 -0.27874486325E+03  0.29639611914E+03  0.77000000000E+02 0.  0.
<mgrwt>
<rscale>  0 0.20642184E+03</rscale>
<asrwt>0</asrwt>
<pdfrwt beam="1">  1        2 0.11297159E+00 0.20642184E+03</pdfrwt>
<pdfrwt beam="2">  1       -2 0.22318003E-02 0.20642184E+03</pdfrwt>
<totfact> 0.25371598E+04</totfact>
</mgrwt>
</event>
<event>
 4    1  0.2489209E-004  0.2277654E+03  0.7818608E-02  0.1128223E+00
          2   -1    0    0  501    0  0.00000000000E+00  0.00000000000E+00  0.15828702883E+04  0.15828702883E+04  0.25500000000E-02 0.  1.
         -2   -1    0    0    0  501 -0.00000000000E+00 -0.00000000000E+00 -0.81935126477E+01  0.81935130445E+01  0.25500000000E-02 0. -1.
    5000001    1    1    2    0    0 -0.43105163041E+02 -0.29722662028E+02  0.32933120335E+03  0.34224192206E+03  0.77000000000E+02 0.  0.
   -5000001    1    1    2    0    0  0.43105163041E+02  0.29722662028E+02  0.12453455723E+04  0.12488218793E+04  0.77000000000E+02 0.  0.
<mgrwt>
<rscale>  0 0.22776539E+03</rscale>
<asrwt>0</asrwt>
<pdfrwt beam="1">  1        2 0.24351875E+00 0.22776539E+03</pdfrwt>
<pdfrwt beam="2">  1       -2 0.12605392E-02 0.22776539E+03</pdfrwt>
<totfact> 0.18608483E+04</totfact>
</mgrwt>
</event>
<event>
 4    1  0.2489209E-004  0.2713923E+03  0.7818608E-02  0.1100485E+00
         -2   -1    0    0    0  501 -0.00000000000E+00  0.00000000000E+00  0.31082076420E+03  0.31082076421E+03  0.25500000000E-02 0. -1.
          2   -1    0    0  501    0  0.00000000000E+00 -0.00000000000E+00 -0.59241364436E+02  0.59241364490E+02  0.25500000000E-02 0.  1.
    5000001    1    1    2    0    0 -0.99865961175E+02 -0.36279165049E+02  0.17292775170E+03  0.21707693412E+03  0.77000000000E+02 0.  0.
   -5000001    1    1    2    0    0  0.99865961175E+02  0.36279165049E+02  0.78651648062E+02  0.15298519458E+03  0.77000000000E+02 0.  0.
<mgrwt>
<rscale>  0 0.27139231E+03</rscale>
<asrwt>0</asrwt>
<pdfrwt beam="1">  1        2 0.91140559E-02 0.27139231E+03</pdfrwt>
<pdfrwt beam="2">  1       -2 0.47818580E-01 0.27139231E+03</pdfrwt>
<totfact> 0.30113629E+03</totfact>
</mgrwt>
</event>
<event>
 4    1  0.2489209E-004  0.3049226E+03  0.7818608E-02  0.1082805E+00
         -2   -1    0    0    0  501 -0.00000000000E+00  0.00000000000E+00  0.15543700117E+02  0.15543700327E+02  0.25500000000E-02 0. -1.
          2   -1    0    0  501    0  0.00000000000E+00 -0.00000000000E+00 -0.14954252104E+04  0.14954252104E+04  0.25500000000E-02 0.  1.
    5000001    1    1    2    0    0  0.31771967973E+02 -0.12691046141E+03 -0.80996921862E+03  0.82407211959E+03  0.77000000000E+02 0.  0.
   -5000001    1    1    2    0    0 -0.31771967973E+02  0.12691046141E+03 -0.66991229164E+03  0.68689679112E+03  0.77000000000E+02 0.  0.
<mgrwt>
<rscale>  0 0.30492256E+03</rscale>
<asrwt>0</asrwt>
<pdfrwt beam="1">  1        2 0.23006530E+00 0.30492256E+03</pdfrwt>
<pdfrwt beam="2">  1       -2 0.23913397E-02 0.30492256E+03</pdfrwt>
<totfact> 0.81610804E+03</totfact>
</mgrwt>
</event>
<event>
 4    1  0.2489209E-004  0.2058056E+03  0.7818608E-02  0.1144931E+00
         -2   -1    0    0    0  501 -0.00000000000E+00  0.00000000000E+00  0.10387821938E+02  0.10387822251E+02  0.25500000000E-02 0. -1.
          2   -1    0    0  501    0  0.00000000000E+00 -0.00000000000E+00 -0.10193656963E+04  0.10193656963E+04  0.25500000000E-02 0.  1.
    5000001    1    1    2    0    0  0.55655894198E+02 -0.23069926989E+02 -0.34389299348E+03  0.35752089597E+03  0.77000000000E+02 0.  0.
   -5000001    1    1    2    0    0 -0.55655894198E+02  0.23069926989E+02 -0.66508488092E+03  0.67223262262E+03  0.77000000000E+02 0.  0.
<mgrwt>
<rscale>  0 0.20580563E+03</rscale>
<asrwt>0</asrwt>
<pdfrwt beam="1">  1        2 0.15682541E+00 0.20580563E+03</pdfrwt>
<pdfrwt beam="2">  1       -2 0.15981273E-02 0.20580563E+03</pdfrwt>
<totfact> 0.26909555E+04</totfact>
</mgrwt>
</event>
<event>
 4    1  0.2489209E-004  0.3367403E+03  0.7818608E-02  0.1068193E+00
         -2   -1    0    0    0  501 -0.00000000000E+00  0.00000000000E+00  0.45657410838E+02  0.45657410909E+02  0.25500000000E-02 0. -1.
          2   -1    0    0  501    0  0.00000000000E+00 -0.00000000000E+00 -0.62089595247E+03  0.62089595247E+03  0.25500000000E-02 0.  1.
    5000001    1    1    2    0    0  0.12359246586E+03 -0.83936822654E+02 -0.30731571087E+03  0.35027479778E+03  0.77000000000E+02 0.  0.
   -5000001    1    1    2    0    0 -0.12359246586E+03  0.83936822654E+02 -0.26792283076E+03  0.31627856560E+03  0.77000000000E+02 0.  0.
<mgrwt>
<rscale>  0 0.33674027E+03</rscale>
<asrwt>0</asrwt>
<pdfrwt beam="1">  1        2 0.95522449E-01 0.33674027E+03</pdfrwt>
<pdfrwt beam="2">  1       -2 0.70242175E-02 0.33674027E+03</pdfrwt>
<totfact> 0.56347802E+03</totfact>
</mgrwt>
</event>
<event>
 4    1  0.2489209E-004  0.1846793E+03  0.7818608E-02  0.1163350E+00
          2   -1    0    0  501    0  0.00000000000E+00  0.00000000000E+00  0.11600736408E+04  0.11600736408E+04  0.25500000000E-02 0.  1.
         -2   -1    0    0    0  501 -0.00000000000E+00 -0.00000000000E+00 -0.73500608828E+01  0.73500613252E+01  0.25500000000E-02 0. -1.
    5000001    1    1    2    0    0 -0.31484847883E+02  0.25426499760E+02  0.77220242286E+03  0.77708647165E+03  0.77000000000E+02 0.  0.
   -5000001    1    1    2    0    0  0.31484847883E+02 -0.25426499760E+02  0.38052115706E+03  0.39033723049E+03  0.77000000000E+02 0.  0.
<mgrwt>
<rscale>  0 0.18467931E+03</rscale>
<asrwt>0</asrwt>
<pdfrwt beam="1">  1        2 0.17847286E+00 0.18467931E+03</pdfrwt>
<pdfrwt beam="2">  1       -2 0.11307787E-02 0.18467931E+03</pdfrwt>
<totfact> 0.36506614E+04</totfact>
</mgrwt>
</event>
<event>
 4    1  0.2489209E-004  0.3298617E+03  0.7818608E-02  0.1071198E+00
          2   -1    0    0  501    0  0.00000000000E+00  0.00000000000E+00  0.82803081230E+02  0.82803081269E+02  0.25500000000E-02 0.  1.
         -2   -1    0    0    0  501 -0.00000000000E+00 -0.00000000000E+00 -0.32851656926E+03  0.32851656927E+03  0.25500000000E-02 0. -1.
    5000001    1    1    2    0    0  0.88693950194E+02  0.10059164548E+03 -0.51356734867E+02  0.16294726189E+03  0.77000000000E+02 0.  0.
   -5000001    1    1    2    0    0 -0.88693950194E+02 -0.10059164548E+03 -0.19435675316E+03  0.24837238864E+03  0.77000000000E+02 0.  0.
<mgrwt>
<rscale>  0 0.32986169E+03</rscale>
<asrwt>0</asrwt>
<pdfrwt beam="1">  1        2 0.12738936E-01 0.32986169E+03</pdfrwt>
<pdfrwt beam="2">  1       -2 0.50541010E-01 0.32986169E+03</pdfrwt>
<totfact> 0.17915368E+03</totfact>
</mgrwt>
</event>
<event>
 4    1  0.2489209E-004  0.1970945E+03  0.7818608E-02  0.1152214E+00
         -2   -1    0    0    0  501 -0.00000000000E+00  0.00000000000E+00  0.38320784246E+02  0.38320784331E+02  0.25500000000E-02 0. -1.
          2   -1    0    0  501    0  0.00000000000E+00 -0.00000000000E+00 -0.25342803207E+03  0.25342803208E+03  0.25500000000E-02 0.  1.
    5000001    1    1    2    0    0 -0.37029068981E+02  0.27795865423E+02 -0.16747715747E+03  0.19005620315E+03  0.77000000000E+02 0.  0.
   -5000001    1    1    2    0    0  0.37029068981E+02 -0.27795865423E+02 -0.47630090358E+02  0.10169261326E+03  0.77000000000E+02 0.  0.
<mgrwt>
<rscale>  0 0.19709450E+03</rscale>
<asrwt>0</asrwt>
<pdfrwt beam="1">  1        2 0.38988927E-01 0.19709450E+03</pdfrwt>
<pdfrwt beam="2">  1       -2 0.58955054E-02 0.19709450E+03</pdfrwt>
<totfact> 0.19277742E+04</totfact>
</mgrwt>
</event>
<event>
 4    1  0.2489209E-004  0.1980203E+03  0.7818608E-02  0.1151420E+00
          2   -1    0    0  501    0  0.00000000000E+00  0.00000000000E+00  0.19639007133E+03  0.19639007135E+03  0.25500000000E-02 0.  1.
         -2   -1    0    0    0  501 -0.00000000000E+00 -0.00000000000E+00 -0.49916039510E+02  0.49916039575E+02  0.25500000000E-02 0. -1.
    5000001    1    1    2    0    0 -0.61582784710E+02  0.67553075518E+01  0.80693954222E+02  0.12758756915E+03  0.77000000000E+02 0.  0.
   -5000001    1    1    2    0    0  0.61582784710E+02 -0.67553075518E+01  0.65780077603E+02  0.11871854178E+03  0.77000000000E+02 0.  0.
<mgrwt>
<rscale>  0 0.19802035E+03</rscale>
<asrwt>0</asrwt>
<pdfrwt beam="1">  1        2 0.30213857E-01 0.19802035E+03</pdfrwt>
<pdfrwt beam="2">  1       -2 0.76793907E-02 0.19802035E+03</pdfrwt>
<totfact> 0.16923024E+04</totfact>
</mgrwt>
</event>
<event>
 4    1  0.2489209E-004  0.2730229E+03  0.7818608E-02  0.1099562E+00
          2   -1    0    0  501    0  0.00000000000E+00  0.00000000000E+00  0.11963285206E+03  0.11963285209E+03  0.25500000000E-02 0.  1.
         -2   -1    0    0    0  501 -0.00000000000E+00 -0.00000000000E+00 -0.15577143714E+03  0.15577143716E+03  0.25500000000E-02 0. -1.
    5000001    1    1    2    0    0  0.47760105627E+02  0.10143267196E+03 -0.29866024197E+02  0.13925011322E+03  0.77000000000E+02 0.  0.
   -5000001    1    1    2    0    0 -0.47760105627E+02 -0.10143267196E+03 -0.62725608874E+01  0.13615417603E+03  0.77000000000E+02 0.  0.
<mgrwt>
<rscale>  0 0.27302294E+03</rscale>
<asrwt>0</asrwt>
<pdfrwt beam="1">  1        2 0.18405054E-01 0.27302294E+03</pdfrwt>
<pdfrwt beam="2">  1       -2 0.23964836E-01 0.27302294E+03</pdfrwt>
<totfact> 0.46551944E+03</totfact>
</mgrwt>
</event>
<event>
 4    1  0.2489209E-004  0.2184388E+03  0.7818608E-02  0.1135052E+00
          2   -1    0    0  501    0  0.00000000000E+00  0.00000000000E+00  0.59110610434E+03  0.59110610434E+03  0.25500000000E-02 0.  1.
         -2   -1    0    0    0  501 -0.00000000000E+00 -0.00000000000E+00 -0.20180601714E+02  0.20180601875E+02  0.25500000000E-02 0. -1.
    5000001    1    1    2    0    0 -0.50527204745E+02 -0.56907213568E+02  0.24505975613E+03  0.26790803170E+03  0.77000000000E+02 0.  0.
   -5000001    1    1    2    0    0  0.50527204745E+02  0.56907213568E+02  0.32586574650E+03  0.34337867452E+03  0.77000000000E+02 0.  0.
<mgrwt>
<rscale>  0 0.21843880E+03</rscale>
<asrwt>0</asrwt>
<pdfrwt beam="1">  1        2 0.90939382E-01 0.21843880E+03</pdfrwt>
<pdfrwt beam="2">  1       -2 0.31047086E-02 0.21843880E+03</pdfrwt>
<totfact> 0.20228248E+04</totfact>
</mgrwt>
</event>
<event>
 4    1  0.2489209E-004  0.1992246E+03  0.7818608E-02  0.1150395E+00
          2   -1    0    0  501    0  0.00000000000E+00  0.00000000000E+00  0.30354219539E+03  0.30354219541E+03  0.25500000000E-02 0.  1.
         -2   -1    0    0    0  501 -0.00000000000E+00 -0.00000000000E+00 -0.32689401923E+02  0.32689402022E+02  0.25500000000E-02 0. -1.
    5000001    1    1    2    0    0  0.65323080391E+01  0.57233506263E+02  0.17928284399E+03  0.20344454635E+03  0.77000000000E+02 0.  0.
   -5000001    1    1    2    0    0 -0.65323080391E+01 -0.57233506263E+02  0.91569949479E+02  0.13278705108E+03  0.77000000000E+02 0.  0.
<mgrwt>
<rscale>  0 0.19922463E+03</rscale>
<asrwt>0</asrwt>
<pdfrwt beam="1">  1        2 0.46698802E-01 0.19922463E+03</pdfrwt>
<pdfrwt beam="2">  1       -2 0.50291385E-02 0.19922463E+03</pdfrwt>
<totfact> 0.20247514E+04</totfact>
</mgrwt>
</event>
<event>
 4    1  0.2489209E-004  0.1879617E+03  0.7818608E-02  0.1160313E+00
         -2   -1    0    0    0  501 -0.00000000000E+00  0.00000000000E+00  0.11770381860E+03  0.11770381862E+03  0.25500000000E-02 0. -1.
          2   -1    0    0  501    0  0.00000000000E+00 -0.00000000000E+00 -0.75039224467E+02  0.75039224511E+02  0.25500000000E-02 0.  1.
    5000001    1    1    2    0    0  0.67776823645E+01  0.39057392032E+02 -0.16092475486E+02  0.88087369230E+02  0.77000000000E+02 0.  0.
   -5000001    1    1    2    0    0 -0.67776823645E+01 -0.39057392032E+02  0.58757069615E+02  0.10465567390E+03  0.77000000000E+02 0.  0.
<mgrwt>
<rscale>  0 0.18796173E+03</rscale>
<asrwt>0</asrwt>
<pdfrwt beam="1">  1        2 0.11544496E-01 0.18796173E+03</pdfrwt>
<pdfrwt beam="2">  1       -2 0.18108280E-01 0.18796173E+03</pdfrwt>
<totfact> 0.12831962E+04</totfact>
</mgrwt>
</event>
<event>
 4    1  0.2489209E-004  0.2483162E+03  0.7818608E-02  0.1114374E+00
         -2   -1    0    0    0  501 -0.00000000000E+00  0.00000000000E+00  0.54078804188E+02  0.54078804248E+02  0.25500000000E-02 0. -1.
          2   -1    0    0  501    0  0.00000000000E+00 -0.00000000000E+00 -0.28505119439E+03  0.28505119440E+03  0.25500000000E-02 0.  1.
    5000001    1    1    2    0    0  0.52076532238E+02  0.40963288507E+02 -0.17990033233E+02  0.10316296579E+03  0.77000000000E+02 0.  0.
   -5000001    1    1    2    0    0 -0.52076532238E+02 -0.40963288507E+02 -0.21298235697E+03  0.23596703286E+03  0.77000000000E+02 0.  0.
<mgrwt>
<rscale>  0 0.24831615E+03</rscale>
<asrwt>0</asrwt>
<pdfrwt beam="1">  1        2 0.43854029E-01 0.24831615E+03</pdfrwt>
<pdfrwt beam="2">  1       -2 0.83198162E-02 0.24831615E+03</pdfrwt>
<totfact> 0.10126663E+04</totfact>
</mgrwt>
</event>
<event>
 4    1  0.2489209E-004  0.1915732E+03  0.7818608E-02  0.1157050E+00
         -2   -1    0    0    0  501 -0.00000000000E+00  0.00000000000E+00  0.23879497022E+02  0.23879497159E+02  0.25500000000E-02 0. -1.
          2   -1    0    0  501    0  0.00000000000E+00 -0.00000000000E+00 -0.38422401579E+03  0.38422401580E+03  0.25500000000E-02 0.  1.
    5000001    1    1    2    0    0  0.37363109444E+02 -0.42956289156E+02 -0.17548975147E+03  0.19991722686E+03  0.77000000000E+02 0.  0.
   -5000001    1    1    2    0    0 -0.37363109444E+02  0.42956289156E+02 -0.18485476731E+03  0.20818628610E+03  0.77000000000E+02 0.  0.
<mgrwt>
<rscale>  0 0.19157324E+03</rscale>
<asrwt>0</asrwt>
<pdfrwt beam="1">  1        2 0.59111383E-01 0.19157324E+03</pdfrwt>
<pdfrwt beam="2">  1       -2 0.36737691E-02 0.19157324E+03</pdfrwt>
<totfact> 0.25124960E+04</totfact>
</mgrwt>
</event>
<event>
 4    1  0.2489209E-004  0.2573115E+03  0.7818608E-02  0.1108769E+00
          2   -1    0    0  501    0  0.00000000000E+00  0.00000000000E+00  0.84758803461E+03  0.84758803461E+03  0.25500000000E-02 0.  1.
         -2   -1    0    0    0  501 -0.00000000000E+00 -0.00000000000E+00 -0.19528707676E+02  0.19528707842E+02  0.25500000000E-02 0. -1.
    5000001    1    1    2    0    0  0.11984440208E+02  0.65180164558E+02  0.14801541460E+03  0.17952616416E+03  0.77000000000E+02 0.  0.
   -5000001    1    1    2    0    0 -0.11984440208E+02 -0.65180164558E+02  0.68004391233E+03  0.68759057829E+03  0.77000000000E+02 0.  0.
<mgrwt>
<rscale>  0 0.25731148E+03</rscale>
<asrwt>0</asrwt>
<pdfrwt beam="1">  1        2 0.13039817E+00 0.25731148E+03</pdfrwt>
<pdfrwt beam="2">  1       -2 0.30044164E-02 0.25731148E+03</pdfrwt>
<totfact> 0.13814474E+04</totfact>
</mgrwt>
</event>
<event>
 4    1  0.2489209E-004  0.2301740E+03  0.7818608E-02  0.1126517E+00
          2   -1    0    0  501    0  0.00000000000E+00  0.00000000000E+00  0.54817138405E+03  0.54817138406E+03  0.25500000000E-02 0.  1.
         -2   -1    0    0    0  501 -0.00000000000E+00 -0.00000000000E+00 -0.24162176456E+02  0.24162176590E+02  0.25500000000E-02 0. -1.
    5000001    1    1    2    0    0  0.72077411991E+02  0.10681038957E+02  0.37339363895E+03  0.38815080513E+03  0.77000000000E+02 0.  0.
   -5000001    1    1    2    0    0 -0.72077411991E+02 -0.10681038957E+02  0.15061556864E+03  0.18418275552E+03  0.77000000000E+02 0.  0.
<mgrwt>
<rscale>  0 0.23017397E+03</rscale>
<asrwt>0</asrwt>
<pdfrwt beam="1">  1        2 0.84334064E-01 0.23017397E+03</pdfrwt>
<pdfrwt beam="2">  1       -2 0.37172577E-02 0.23017397E+03</pdfrwt>
<totfact> 0.16912634E+04</totfact>
</mgrwt>
</event>
<event>
 4    1  0.2489209E-004  0.2293826E+03  0.7818608E-02  0.1127075E+00
          2   -1    0    0  501    0  0.00000000000E+00  0.00000000000E+00  0.27883647510E+04  0.27883647510E+04  0.25500000000E-02 0.  1.
         -2   -1    0    0    0  501 -0.00000000000E+00 -0.00000000000E+00 -0.47174925990E+01  0.47174932882E+01  0.25500000000E-02 0. -1.
    5000001    1    1    2    0    0  0.19699572652E+02  0.42719468019E+02  0.52977522758E+03  0.53740470585E+03  0.77000000000E+02 0.  0.
   -5000001    1    1    2    0    0 -0.19699572652E+02 -0.42719468019E+02  0.22538720309E+04  0.22556775385E+04  0.77000000000E+02 0.  0.
<mgrwt>
<rscale>  0 0.22938257E+03</rscale>
<asrwt>0</asrwt>
<pdfrwt beam="1">  1        2 0.42897880E+00 0.22938257E+03</pdfrwt>
<pdfrwt beam="2">  1       -2 0.72576881E-03 0.22938257E+03</pdfrwt>
<totfact> 0.93839043E+03</totfact>
</mgrwt>
</event>
<event>
 4    1  0.2489209E-004  0.1885547E+03  0.7818608E-02  0.1159771E+00
         -2   -1    0    0    0  501 -0.00000000000E+00  0.00000000000E+00  0.68176597293E+01  0.68176602062E+01  0.25500000000E-02 0. -1.
          2   -1    0    0  501    0  0.00000000000E+00 -0.00000000000E+00 -0.13037057820E+04  0.13037057820E+04  0.25500000000E-02 0.  1.
    5000001    1    1    2    0    0  0.52630392537E+01  0.52406161151E+02 -0.74300917971E+03  0.74884293843E+03  0.77000000000E+02 0.  0.
   -5000001    1    1    2    0    0 -0.52630392537E+01 -0.52406161151E+02 -0.55387894257E+03  0.56168050378E+03  0.77000000000E+02 0.  0.
<mgrwt>
<rscale>  0 0.18855474E+03</rscale>
<asrwt>0</asrwt>
<pdfrwt beam="1">  1        2 0.20056992E+00 0.18855474E+03</pdfrwt>
<pdfrwt beam="2">  1       -2 0.10488718E-02 0.18855474E+03</pdfrwt>
<totfact> 0.33903235E+04</totfact>
</mgrwt>
</event>
<event>
 4    1  0.2489209E-004  0.3063514E+03  0.7818608E-02  0.1082108E+00
         -2   -1    0    0    0  501 -0.00000000000E+00  0.00000000000E+00  0.46673222885E+02  0.46673222955E+02  0.25500000000E-02 0. -1.
          2   -1    0    0  501    0  0.00000000000E+00 -0.00000000000E+00 -0.50270346979E+03  0.50270346979E+03  0.25500000000E-02 0.  1.
    5000001    1    1    2    0    0  0.87573144530E+02  0.62628049503E+02 -0.36625509532E+03  0.38943949861E+03  0.77000000000E+02 0.  0.
   -5000001    1    1    2    0    0 -0.87573144530E+02 -0.62628049503E+02 -0.89775151577E+02  0.15993719414E+03  0.77000000000E+02 0.  0.
<mgrwt>
<rscale>  0 0.30635137E+03</rscale>
<asrwt>0</asrwt>
<pdfrwt beam="1">  1        2 0.77338992E-01 0.30635137E+03</pdfrwt>
<pdfrwt beam="2">  1       -2 0.71804962E-02 0.30635137E+03</pdfrwt>
<totfact> 0.69253800E+03</totfact>
</mgrwt>
</event>
<event>
 4    1  0.2489209E-004  0.1632868E+03  0.7818608E-02  0.1185035E+00
          2   -1    0    0  501    0  0.00000000000E+00  0.00000000000E+00  0.62395614159E+03  0.62395614160E+03  0.25500000000E-02 0.  1.
         -2   -1    0    0    0  501 -0.00000000000E+00 -0.00000000000E+00 -0.10682878965E+02  0.10682879270E+02  0.25500000000E-02 0. -1.
    5000001    1    1    2    0    0  0.13107514383E+02 -0.22917548889E+02  0.33110311192E+03  0.34096230247E+03  0.77000000000E+02 0.  0.
   -5000001    1    1    2    0    0 -0.13107514383E+02  0.22917548889E+02  0.28217015070E+03  0.29367671840E+03  0.77000000000E+02 0.  0.
<mgrwt>
<rscale>  0 0.16328684E+03</rscale>
<asrwt>0</asrwt>
<pdfrwt beam="1">  1        2 0.95993299E-01 0.16328684E+03</pdfrwt>
<pdfrwt beam="2">  1       -2 0.16435191E-02 0.16328684E+03</pdfrwt>
<totfact> 0.47194207E+04</totfact>
</mgrwt>
</event>
<event>
 4    1  0.2489209E-004  0.2507223E+03  0.7818608E-02  0.1112849E+00
          2   -1    0    0  501    0  0.00000000000E+00  0.00000000000E+00  0.82670885732E+03  0.82670885732E+03  0.25500000000E-02 0.  1.
         -2   -1    0    0    0  501 -0.00000000000E+00 -0.00000000000E+00 -0.19009619725E+02  0.19009619896E+02  0.25500000000E-02 0. -1.
    5000001    1    1    2    0    0 -0.59038042088E+02 -0.78340507437E+02  0.44700661968E+03  0.46407611828E+03  0.77000000000E+02 0.  0.
   -5000001    1    1    2    0    0  0.59038042088E+02  0.78340507437E+02  0.36069261792E+03  0.38164235894E+03  0.77000000000E+02 0.  0.
<mgrwt>
<rscale>  0 0.25072233E+03</rscale>
<asrwt>0</asrwt>
<pdfrwt beam="1">  1        2 0.12718591E+00 0.25072233E+03</pdfrwt>
<pdfrwt beam="2">  1       -2 0.29245585E-02 0.25072233E+03</pdfrwt>
<totfact> 0.14833805E+04</totfact>
</mgrwt>
</event>
<event>
 4    1  0.2489209E-004  0.2337674E+03  0.7818608E-02  0.1124016E+00
          2   -1    0    0  501    0  0.00000000000E+00  0.00000000000E+00  0.88291880458E+03  0.88291880458E+03  0.25500000000E-02 0.  1.
         -2   -1    0    0    0  501 -0.00000000000E+00 -0.00000000000E+00 -0.15473450245E+02  0.15473450455E+02  0.25500000000E-02 0. -1.
    5000001    1    1    2    0    0 -0.87393155845E+02  0.26979224208E+01  0.46976553798E+03  0.48399742060E+03  0.77000000000E+02 0.  0.
   -5000001    1    1    2    0    0  0.87393155845E+02 -0.26979224208E+01  0.39767981635E+03  0.41439483444E+03  0.77000000000E+02 0.  0.
<mgrwt>
<rscale>  0 0.23376741E+03</rscale>
<asrwt>0</asrwt>
<pdfrwt beam="1">  1        2 0.13583367E+00 0.23376741E+03</pdfrwt>
<pdfrwt beam="2">  1       -2 0.23805308E-02 0.23376741E+03</pdfrwt>
<totfact> 0.18398872E+04</totfact>
</mgrwt>
</event>
<event>
 4    1  0.2489209E-004  0.2133212E+03  0.7818608E-02  0.1138963E+00
          2   -1    0    0  501    0  0.00000000000E+00  0.00000000000E+00  0.75603503749E+02  0.75603503792E+02  0.25500000000E-02 0.  1.
         -2   -1    0    0    0  501 -0.00000000000E+00 -0.00000000000E+00 -0.15047567059E+03  0.15047567061E+03  0.25500000000E-02 0. -1.
    5000001    1    1    2    0    0  0.62016424584E+02 -0.32397802509E+02 -0.12540033172E+02  0.10479459412E+03  0.77000000000E+02 0.  0.
   -5000001    1    1    2    0    0 -0.62016424584E+02  0.32397802509E+02 -0.62332133667E+02  0.12128458028E+03  0.77000000000E+02 0.  0.
<mgrwt>
<rscale>  0 0.21332124E+03</rscale>
<asrwt>0</asrwt>
<pdfrwt beam="1">  1        2 0.11631308E-01 0.21332124E+03</pdfrwt>
<pdfrwt beam="2">  1       -2 0.23150103E-01 0.21332124E+03</pdfrwt>
<totfact> 0.84282564E+03</totfact>
</mgrwt>
</event>
<event>
 4    1  0.2489209E-004  0.1958474E+03  0.7818608E-02  0.1153291E+00
         -2   -1    0    0    0  501 -0.00000000000E+00  0.00000000000E+00  0.40126677217E+01  0.40126685320E+01  0.25500000000E-02 0. -1.
          2   -1    0    0  501    0  0.00000000000E+00 -0.00000000000E+00 -0.23896949521E+04  0.23896949521E+04  0.25500000000E-02 0.  1.
    5000001    1    1    2    0    0 -0.58949386413E+02  0.34778175223E+01 -0.10321155054E+04  0.10366670352E+04  0.77000000000E+02 0.  0.
   -5000001    1    1    2    0    0  0.58949386413E+02 -0.34778175223E+01 -0.13535667790E+04  0.13570405855E+04  0.77000000000E+02 0.  0.
<mgrwt>
<rscale>  0 0.19584742E+03</rscale>
<asrwt>0</asrwt>
<pdfrwt beam="1">  1        2 0.36764424E+00 0.19584742E+03</pdfrwt>
<pdfrwt beam="2">  1       -2 0.61733547E-03 0.19584742E+03</pdfrwt>
<totfact> 0.19562210E+04</totfact>
</mgrwt>
</event>
<event>
 4    1  0.2489209E-004  0.2780150E+03  0.7818608E-02  0.1096778E+00
         -2   -1    0    0    0  501 -0.00000000000E+00  0.00000000000E+00  0.11242867278E+03  0.11242867281E+03  0.25500000000E-02 0. -1.
          2   -1    0    0  501    0  0.00000000000E+00 -0.00000000000E+00 -0.17186968861E+03  0.17186968863E+03  0.25500000000E-02 0.  1.
    5000001    1    1    2    0    0 -0.75586951618E+02  0.85836133347E+02 -0.11633130396E+02  0.13836747727E+03  0.77000000000E+02 0.  0.
   -5000001    1    1    2    0    0  0.75586951618E+02 -0.85836133347E+02 -0.47807885436E+02  0.14593088416E+03  0.77000000000E+02 0.  0.
<mgrwt>
<rscale>  0 0.27801497E+03</rscale>
<asrwt>0</asrwt>
<pdfrwt beam="1">  1        2 0.26441491E-01 0.27801497E+03</pdfrwt>
<pdfrwt beam="2">  1       -2 0.17296719E-01 0.27801497E+03</pdfrwt>
<totfact> 0.54053390E+03</totfact>
</mgrwt>
</event>
<event>
 4    1  0.2489209E-004  0.2033727E+03  0.7818608E-02  0.1146924E+00
          2   -1    0    0  501    0  0.00000000000E+00  0.00000000000E+00  0.17535135059E+04  0.17535135059E+04  0.25500000000E-02 0.  1.
         -2   -1    0    0    0  501 -0.00000000000E+00 -0.00000000000E+00 -0.58967958442E+01  0.58967963956E+01  0.25500000000E-02 0. -1.
    5000001    1    1    2    0    0  0.47806276006E+02 -0.19290384819E+02  0.51153705595E+03  0.51986221115E+03  0.77000000000E+02 0.  0.
   -5000001    1    1    2    0    0 -0.47806276006E+02  0.19290384819E+02  0.12360796541E+04  0.12395480911E+04  0.77000000000E+02 0.  0.
<mgrwt>
<rscale>  0 0.20337268E+03</rscale>
<asrwt>0</asrwt>
<pdfrwt beam="1">  1        2 0.26977179E+00 0.20337268E+03</pdfrwt>
<pdfrwt beam="2">  1       -2 0.90719778E-03 0.20337268E+03</pdfrwt>
<totfact> 0.24263916E+04</totfact>
</mgrwt>
</event>
<event>
 4    1  0.2489209E-004  0.2112562E+03  0.7818608E-02  0.1140575E+00
          2   -1    0    0  501    0  0.00000000000E+00  0.00000000000E+00  0.31246622136E+04  0.31246622136E+04  0.25500000000E-02 0.  1.
         -2   -1    0    0    0  501 -0.00000000000E+00 -0.00000000000E+00 -0.35707191443E+01  0.35707200548E+01  0.25500000000E-02 0. -1.
    5000001    1    1    2    0    0  0.21440608897E+02 -0.62558636909E+02  0.11275583701E+04  0.11321175560E+04  0.77000000000E+02 0.  0.
   -5000001    1    1    2    0    0 -0.21440608897E+02  0.62558636909E+02  0.19935331244E+04  0.19961153776E+04  0.77000000000E+02 0.  0.
<mgrwt>
<rscale>  0 0.21125617E+03</rscale>
<asrwt>0</asrwt>
<pdfrwt beam="1">  1        2 0.48071960E+00 0.21125617E+03</pdfrwt>
<pdfrwt beam="2">  1       -2 0.54933880E-03 0.21125617E+03</pdfrwt>
<totfact> 0.89047320E+03</totfact>
</mgrwt>
</event>
<event>
 4    1  0.2489209E-004  0.1576276E+03  0.7818608E-02  0.1191402E+00
         -2   -1    0    0    0  501 -0.00000000000E+00  0.00000000000E+00  0.15386437541E+02  0.15386437753E+02  0.25500000000E-02 0. -1.
          2   -1    0    0  501    0  0.00000000000E+00 -0.00000000000E+00 -0.40370697142E+03  0.40370697143E+03  0.25500000000E-02 0.  1.
    5000001    1    1    2    0    0  0.12459773801E+02 -0.76808181548E+01 -0.17217583126E+03  0.18917652550E+03  0.77000000000E+02 0.  0.
   -5000001    1    1    2    0    0 -0.12459773801E+02  0.76808181548E+01 -0.21614470262E+03  0.22991688368E+03  0.77000000000E+02 0.  0.
<mgrwt>
<rscale>  0 0.15762756E+03</rscale>
<asrwt>0</asrwt>
<pdfrwt beam="1">  1        2 0.62108757E-01 0.15762756E+03</pdfrwt>
<pdfrwt beam="2">  1       -2 0.23671446E-02 0.15762756E+03</pdfrwt>
<totfact> 0.44780494E+04</totfact>
</mgrwt>
</event>
<event>
 4    1  0.2489209E-004  0.3068224E+03  0.7818608E-02  0.1081879E+00
          2   -1    0    0  501    0  0.00000000000E+00  0.00000000000E+00  0.22216480217E+04  0.22216480217E+04  0.25500000000E-02 0.  1.
         -2   -1    0    0    0  501 -0.00000000000E+00 -0.00000000000E+00 -0.10593486536E+02  0.10593486843E+02  0.25500000000E-02 0. -1.
    5000001    1    1    2    0    0  0.41063873245E+02  0.10477052643E+03  0.59402832958E+03  0.60947662895E+03  0.77000000000E+02 0.  0.
   -5000001    1    1    2    0    0 -0.41063873245E+02 -0.10477052643E+03  0.16170262055E+04  0.16227648795E+04  0.77000000000E+02 0.  0.
<mgrwt>
<rscale>  0 0.30682242E+03</rscale>
<asrwt>0</asrwt>
<pdfrwt beam="1">  1        2 0.34179179E+00 0.30682242E+03</pdfrwt>
<pdfrwt beam="2">  1       -2 0.16297682E-02 0.30682242E+03</pdfrwt>
<totfact> 0.59230377E+03</totfact>
</mgrwt>
</event>
<event>
 4    1  0.2489209E-004  0.3133423E+03  0.7818608E-02  0.1078755E+00
         -2   -1    0    0    0  501 -0.00000000000E+00  0.00000000000E+00  0.46184220442E+02  0.46184220512E+02  0.25500000000E-02 0. -1.
          2   -1    0    0  501    0  0.00000000000E+00 -0.00000000000E+00 -0.53147691008E+03  0.53147691009E+03  0.25500000000E-02 0.  1.
    5000001    1    1    2    0    0 -0.80679814759E+02 -0.39037044383E+02 -0.52987377136E+02  0.12949820647E+03  0.77000000000E+02 0.  0.
   -5000001    1    1    2    0    0  0.80679814759E+02  0.39037044383E+02 -0.43230531251E+03  0.44816292413E+03  0.77000000000E+02 0.  0.
<mgrwt>
<rscale>  0 0.31334228E+03</rscale>
<asrwt>0</asrwt>
<pdfrwt beam="1">  1        2 0.81765674E-01 0.31334228E+03</pdfrwt>
<pdfrwt beam="2">  1       -2 0.71052650E-02 0.31334228E+03</pdfrwt>
<totfact> 0.66147016E+03</totfact>
</mgrwt>
</event>
<event>
 4    1  0.2489209E-004  0.1914496E+03  0.7818608E-02  0.1157160E+00
         -2   -1    0    0    0  501 -0.00000000000E+00  0.00000000000E+00  0.39211099293E+02  0.39211099376E+02  0.25500000000E-02 0. -1.
          2   -1    0    0  501    0  0.00000000000E+00 -0.00000000000E+00 -0.23369000387E+03  0.23369000388E+03  0.25500000000E-02 0.  1.
    5000001    1    1    2    0    0  0.16613458192E+02 -0.12701936243E+02 -0.21853771625E+02  0.82728069672E+02  0.77000000000E+02 0.  0.
   -5000001    1    1    2    0    0 -0.16613458192E+02  0.12701936243E+02 -0.17262513295E+03  0.19017303358E+03  0.77000000000E+02 0.  0.
<mgrwt>
<rscale>  0 0.19144965E+03</rscale>
<asrwt>0</asrwt>
<pdfrwt beam="1">  1        2 0.35952307E-01 0.19144965E+03</pdfrwt>
<pdfrwt beam="2">  1       -2 0.60324770E-02 0.19144965E+03</pdfrwt>
<totfact> 0.20265734E+04</totfact>
</mgrwt>
</event>
<event>
 4    1  0.2489209E-004  0.2038176E+03  0.7818608E-02  0.1146558E+00
         -2   -1    0    0    0  501 -0.00000000000E+00  0.00000000000E+00  0.12418949286E+03  0.12418949289E+03  0.25500000000E-02 0. -1.
          2   -1    0    0  501    0  0.00000000000E+00 -0.00000000000E+00 -0.83625436637E+02  0.83625436676E+02  0.25500000000E-02 0.  1.
    5000001    1    1    2    0    0 -0.13206138540E+02  0.56267037643E+02 -0.13780031726E+02  0.97258783123E+02  0.77000000000E+02 0.  0.
   -5000001    1    1    2    0    0  0.13206138540E+02 -0.56267037643E+02  0.54344087949E+02  0.11055614644E+03  0.77000000000E+02 0.  0.
<mgrwt>
<rscale>  0 0.20381757E+03</rscale>
<asrwt>0</asrwt>
<pdfrwt beam="1">  1        2 0.12865452E-01 0.20381757E+03</pdfrwt>
<pdfrwt beam="2">  1       -2 0.19106076E-01 0.20381757E+03</pdfrwt>
<totfact> 0.10341702E+04</totfact>
</mgrwt>
</event>
<event>
 4    1  0.2489209E-004  0.1959937E+03  0.7818608E-02  0.1153164E+00
         -2   -1    0    0    0  501 -0.00000000000E+00  0.00000000000E+00  0.26648701621E+02  0.26648701743E+02  0.25500000000E-02 0. -1.
          2   -1    0    0  501    0  0.00000000000E+00 -0.00000000000E+00 -0.36036944104E+03  0.36036944104E+03  0.25500000000E-02 0.  1.
    5000001    1    1    2    0    0 -0.47884475328E+02  0.31411352022E+02 -0.20609484423E+03  0.22734045137E+03  0.77000000000E+02 0.  0.
   -5000001    1    1    2    0    0  0.47884475328E+02 -0.31411352022E+02 -0.12762589519E+03  0.15967769142E+03  0.77000000000E+02 0.  0.
<mgrwt>
<rscale>  0 0.19599365E+03</rscale>
<asrwt>0</asrwt>
<pdfrwt beam="1">  1        2 0.55441449E-01 0.19599365E+03</pdfrwt>
<pdfrwt beam="2">  1       -2 0.40998005E-02 0.19599365E+03</pdfrwt>
<totfact> 0.22887153E+04</totfact>
</mgrwt>
</event>
<event>
 4    1  0.2489209E-004  0.2670290E+03  0.7818608E-02  0.1102992E+00
          2   -1    0    0  501    0  0.00000000000E+00  0.00000000000E+00  0.76076449240E+03  0.76076449240E+03  0.25500000000E-02 0.  1.
         -2   -1    0    0    0  501 -0.00000000000E+00 -0.00000000000E+00 -0.23431860935E+02  0.23431861074E+02  0.25500000000E-02 0. -1.
    5000001    1    1    2    0    0  0.33036905993E+02  0.94351562647E+02  0.24053959507E+03  0.27162833307E+03  0.77000000000E+02 0.  0.
   -5000001    1    1    2    0    0 -0.33036905993E+02 -0.94351562647E+02  0.49679303639E+03  0.51256802040E+03  0.77000000000E+02 0.  0.
<mgrwt>
<rscale>  0 0.26702905E+03</rscale>
<asrwt>0</asrwt>
<pdfrwt beam="1">  1        2 0.11704070E+00 0.26702905E+03</pdfrwt>
<pdfrwt beam="2">  1       -2 0.36049014E-02 0.26702905E+03</pdfrwt>
<totfact> 0.12097148E+04</totfact>
</mgrwt>
</event>
<event>
 4    1  0.2489209E-004  0.2971374E+03  0.7818608E-02  0.1086680E+00
          2   -1    0    0  501    0  0.00000000000E+00  0.00000000000E+00  0.16889741367E+03  0.16889741369E+03  0.25500000000E-02 0.  1.
         -2   -1    0    0    0  501 -0.00000000000E+00 -0.00000000000E+00 -0.13068673610E+03  0.13068673613E+03  0.25500000000E-02 0. -1.
    5000001    1    1    2    0    0 -0.11105901711E+02  0.91862350058E+02 -0.68684159777E+02  0.13859489967E+03  0.77000000000E+02 0.  0.
   -5000001    1    1    2    0    0  0.11105901711E+02 -0.91862350058E+02  0.10689483735E+03  0.16098925015E+03  0.77000000000E+02 0.  0.
<mgrwt>
<rscale>  0 0.29713735E+03</rscale>
<asrwt>0</asrwt>
<pdfrwt beam="1">  1        2 0.25984217E-01 0.29713735E+03</pdfrwt>
<pdfrwt beam="2">  1       -2 0.20105652E-01 0.29713735E+03</pdfrwt>
<totfact> 0.42781228E+03</totfact>
</mgrwt>
</event>
<event>
 4    1  0.2489209E-004  0.2106010E+03  0.7818608E-02  0.1141091E+00
         -2   -1    0    0    0  501 -0.00000000000E+00  0.00000000000E+00  0.65434305590E+03  0.65434305591E+03  0.25500000000E-02 0. -1.
          2   -1    0    0  501    0  0.00000000000E+00 -0.00000000000E+00 -0.16945535196E+02  0.16945535388E+02  0.25500000000E-02 0.  1.
    5000001    1    1    2    0    0 -0.44310013545E+02 -0.23068972460E+02  0.15419094989E+03  0.17944192325E+03  0.77000000000E+02 0.  0.
   -5000001    1    1    2    0    0  0.44310013545E+02  0.23068972460E+02  0.48320657081E+03  0.49184666804E+03  0.77000000000E+02 0.  0.
<mgrwt>
<rscale>  0 0.21060098E+03</rscale>
<asrwt>0</asrwt>
<pdfrwt beam="1">  1        2 0.26070055E-02 0.21060098E+03</pdfrwt>
<pdfrwt beam="2">  1       -2 0.10066816E+00 0.21060098E+03</pdfrwt>
<totfact> 0.31534447E+03</totfact>
</mgrwt>
</event>
<event>
 4    1  0.2489209E-004  0.2206462E+03  0.7818608E-02  0.1133402E+00
          2   -1    0    0  501    0  0.00000000000E+00  0.00000000000E+00  0.17940350310E+02  0.17940350491E+02  0.25500000000E-02 0.  1.
         -2   -1    0    0    0  501 -0.00000000000E+00 -0.00000000000E+00 -0.67842516980E+03  0.67842516980E+03  0.25500000000E-02 0. -1.
    5000001    1    1    2    0    0 -0.47655070592E+02 -0.34398409582E+02 -0.16360148126E+03  0.19012811735E+03  0.77000000000E+02 0.  0.
   -5000001    1    1    2    0    0  0.47655070592E+02  0.34398409582E+02 -0.49688333822E+03  0.50623740294E+03  0.77000000000E+02 0.  0.
<mgrwt>
<rscale>  0 0.22064619E+03</rscale>
<asrwt>0</asrwt>
<pdfrwt beam="1">  1        2 0.27600544E-02 0.22064619E+03</pdfrwt>
<pdfrwt beam="2">  1       -2 0.10437308E+00 0.22064619E+03</pdfrwt>
<totfact> 0.26883625E+03</totfact>
</mgrwt>
</event>
<event>
 4    1  0.2489209E-004  0.2034971E+03  0.7818608E-02  0.1146822E+00
          2   -1    0    0  501    0  0.00000000000E+00  0.00000000000E+00  0.96223676560E+02  0.96223676594E+02  0.25500000000E-02 0.  1.
         -2   -1    0    0    0  501 -0.00000000000E+00 -0.00000000000E+00 -0.10759060836E+03  0.10759060840E+03  0.25500000000E-02 0. -1.
    5000001    1    1    2    0    0  0.34553332342E+02 -0.54423684745E+02  0.10709506004E+02  0.10099288963E+03  0.77000000000E+02 0.  0.
   -5000001    1    1    2    0    0 -0.34553332342E+02  0.54423684745E+02 -0.22076437808E+02  0.10282139536E+03  0.77000000000E+02 0.  0.
<mgrwt>
<rscale>  0 0.20349707E+03</rscale>
<asrwt>0</asrwt>
<pdfrwt beam="1">  1        2 0.14803643E-01 0.20349707E+03</pdfrwt>
<pdfrwt beam="2">  1       -2 0.16552401E-01 0.20349707E+03</pdfrwt>
<totfact> 0.11129134E+04</totfact>
</mgrwt>
</event>
<event>
 4    1  0.2489209E-004  0.7433953E+03  0.7818608E-02  0.9645769E-01
         -2   -1    0    0    0  501 -0.00000000000E+00  0.00000000000E+00  0.80440916229E+02  0.80440916269E+02  0.25500000000E-02 0. -1.
          2   -1    0    0  501    0  0.00000000000E+00 -0.00000000000E+00 -0.17175233914E+04  0.17175233914E+04  0.25500000000E-02 0.  1.
    5000001    1    1    2    0    0 -0.45898102224E+02 -0.30476755363E+03 -0.12852732343E+04  0.13239509750E+04  0.77000000000E+02 0.  0.
   -5000001    1    1    2    0    0  0.45898102224E+02  0.30476755363E+03 -0.35180924084E+03  0.47401333259E+03  0.77000000000E+02 0.  0.
<mgrwt>
<rscale>  0 0.74339533E+03</rscale>
<asrwt>0</asrwt>
<pdfrwt beam="1">  1        2 0.26423434E+00 0.74339533E+03</pdfrwt>
<pdfrwt beam="2">  1       -2 0.12375527E-01 0.74339533E+03</pdfrwt>
<totfact> 0.47173667E+02</totfact>
</mgrwt>
</event>
<event>
 4    1  0.2489209E-004  0.1769968E+03  0.7818608E-02  0.1170742E+00
         -2   -1    0    0    0  501 -0.00000000000E+00  0.00000000000E+00  0.41842506000E+01  0.41842513770E+01  0.25500000000E-02 0. -1.
          2   -1    0    0  501    0  0.00000000000E+00 -0.00000000000E+00 -0.18717728477E+04  0.18717728477E+04  0.25500000000E-02 0.  1.
    5000001    1    1    2    0    0  0.32171650219E+02  0.16633824903E+02 -0.11915152501E+04  0.11945498275E+04  0.77000000000E+02 0.  0.
   -5000001    1    1    2    0    0 -0.32171650219E+02 -0.16633824903E+02 -0.67607334702E+03  0.68140727158E+03  0.77000000000E+02 0.  0.
<mgrwt>
<rscale>  0 0.17699681E+03</rscale>
<asrwt>0</asrwt>
<pdfrwt beam="1">  1        2 0.28796438E+00 0.17699681E+03</pdfrwt>
<pdfrwt beam="2">  1       -2 0.64373242E-03 0.17699681E+03</pdfrwt>
<totfact> 0.34231417E+04</totfact>
</mgrwt>
</event>
<event>
 4    1  0.2489209E-004  0.2181945E+03  0.7818608E-02  0.1135236E+00
          2   -1    0    0  501    0  0.00000000000E+00  0.00000000000E+00  0.12781990364E+04  0.12781990364E+04  0.25500000000E-02 0.  1.
         -2   -1    0    0    0  501 -0.00000000000E+00 -0.00000000000E+00 -0.93117046842E+01  0.93117050334E+01  0.25500000000E-02 0. -1.
    5000001    1    1    2    0    0 -0.17819749806E+02  0.66064212046E+02  0.84647588566E+03  0.85272061580E+03  0.77000000000E+02 0.  0.
   -5000001    1    1    2    0    0  0.17819749806E+02 -0.66064212046E+02  0.42241144605E+03  0.43479012563E+03  0.77000000000E+02 0.  0.
<mgrwt>
<rscale>  0 0.21819452E+03</rscale>
<asrwt>0</asrwt>
<pdfrwt beam="1">  1        2 0.19664599E+00 0.21819452E+03</pdfrwt>
<pdfrwt beam="2">  1       -2 0.14325701E-02 0.21819452E+03</pdfrwt>
<totfact> 0.22486628E+04</totfact>
</mgrwt>
</event>
<event>
 4    1  0.2489209E-004  0.2263378E+03  0.7818608E-02  0.1129244E+00
         -2   -1    0    0    0  501 -0.00000000000E+00  0.00000000000E+00  0.12191433789E+04  0.12191433789E+04  0.25500000000E-02 0. -1.
          2   -1    0    0  501    0  0.00000000000E+00 -0.00000000000E+00 -0.10505085172E+02  0.10505085481E+02  0.25500000000E-02 0.  1.
    5000001    1    1    2    0    0 -0.45326876132E+02  0.69367434866E+02  0.58562643964E+03  0.59645091460E+03  0.77000000000E+02 0.  0.
   -5000001    1    1    2    0    0  0.45326876132E+02 -0.69367434866E+02  0.62301185411E+03  0.63319754981E+03  0.77000000000E+02 0.  0.
<mgrwt>
<rscale>  0 0.22633785E+03</rscale>
<asrwt>0</asrwt>
<pdfrwt beam="1">  1        2 0.16161672E-02 0.22633785E+03</pdfrwt>
<pdfrwt beam="2">  1       -2 0.18756049E+00 0.22633785E+03</pdfrwt>
<totfact> 0.12675417E+03</totfact>
</mgrwt>
</event>
<event>
 4    1  0.2489209E-004  0.1991266E+03  0.7818608E-02  0.1150478E+00
          2   -1    0    0  501    0  0.00000000000E+00  0.00000000000E+00  0.42930323619E+03  0.42930323619E+03  0.25500000000E-02 0.  1.
         -2   -1    0    0    0  501 -0.00000000000E+00 -0.00000000000E+00 -0.23090557587E+02  0.23090557728E+02  0.25500000000E-02 0. -1.
    5000001    1    1    2    0    0 -0.26714537272E+02 -0.14772847647E+02  0.77597045102E+02  0.11349980149E+03  0.77000000000E+02 0.  0.
   -5000001    1    1    2    0    0  0.26714537272E+02  0.14772847647E+02  0.32861563350E+03  0.33889399243E+03  0.77000000000E+02 0.  0.
<mgrwt>
<rscale>  0 0.19912660E+03</rscale>
<asrwt>0</asrwt>
<pdfrwt beam="1">  1        2 0.66046650E-01 0.19912660E+03</pdfrwt>
<pdfrwt beam="2">  1       -2 0.35523936E-02 0.19912660E+03</pdfrwt>
<totfact> 0.23499389E+04</totfact>
</mgrwt>
</event>
<event>
 4    1  0.2489209E-004  0.2656125E+03  0.7818608E-02  0.1103817E+00
          2   -1    0    0  501    0  0.00000000000E+00  0.00000000000E+00  0.10607244732E+03  0.10607244735E+03  0.25500000000E-02 0.  1.
         -2   -1    0    0    0  501 -0.00000000000E+00 -0.00000000000E+00 -0.16627786673E+03  0.16627786675E+03  0.25500000000E-02 0. -1.
    5000001    1    1    2    0    0  0.76580985478E+02  0.75237975441E+02 -0.43977407018E+02  0.13924228026E+03  0.77000000000E+02 0.  0.
   -5000001    1    1    2    0    0 -0.76580985478E+02 -0.75237975441E+02 -0.16228012402E+02  0.13310803384E+03  0.77000000000E+02 0.  0.
<mgrwt>
<rscale>  0 0.26561250E+03</rscale>
<asrwt>0</asrwt>
<pdfrwt beam="1">  1        2 0.16318838E-01 0.26561250E+03</pdfrwt>
<pdfrwt beam="2">  1       -2 0.25581210E-01 0.26561250E+03</pdfrwt>
<totfact> 0.47692184E+03</totfact>
</mgrwt>
</event>
<event>
 4    1  0.2489209E-004  0.1964058E+03  0.7818608E-02  0.1152807E+00
          2   -1    0    0  501    0  0.00000000000E+00  0.00000000000E+00  0.15580069594E+04  0.15580069594E+04  0.25500000000E-02 0.  1.
         -2   -1    0    0    0  501 -0.00000000000E+00 -0.00000000000E+00 -0.61898347457E+01  0.61898352710E+01  0.25500000000E-02 0. -1.
    5000001    1    1    2    0    0 -0.26285282997E+02  0.45810754159E+02  0.10181621210E+04  0.10224346659E+04  0.77000000000E+02 0.  0.
   -5000001    1    1    2    0    0  0.26285282997E+02 -0.45810754159E+02  0.53365500367E+03  0.54176212884E+03  0.77000000000E+02 0.  0.
<mgrwt>
<rscale>  0 0.19640576E+03</rscale>
<asrwt>0</asrwt>
<pdfrwt beam="1">  1        2 0.23969365E+00 0.19640576E+03</pdfrwt>
<pdfrwt beam="2">  1       -2 0.95228123E-03 0.19640576E+03</pdfrwt>
<totfact> 0.28570621E+04</totfact>
</mgrwt>
</event>
<event>
 4    1  0.2489209E-004  0.2144683E+03  0.7818608E-02  0.1138076E+00
         -2   -1    0    0    0  501 -0.00000000000E+00  0.00000000000E+00  0.45645718345E+01  0.45645725468E+01  0.25500000000E-02 0. -1.
          2   -1    0    0  501    0  0.00000000000E+00 -0.00000000000E+00 -0.25192208712E+04  0.25192208712E+04  0.25500000000E-02 0.  1.
    5000001    1    1    2    0    0  0.62602654411E+01 -0.74283699755E+02 -0.12996042141E+04  0.13040158635E+04  0.77000000000E+02 0.  0.
   -5000001    1    1    2    0    0 -0.62602654411E+01  0.74283699755E+02 -0.12150520854E+04  0.12197695803E+04  0.77000000000E+02 0.  0.
<mgrwt>
<rscale>  0 0.21446832E+03</rscale>
<asrwt>0</asrwt>
<pdfrwt beam="1">  1        2 0.38757133E+00 0.21446832E+03</pdfrwt>
<pdfrwt beam="2">  1       -2 0.70224389E-03 0.21446832E+03</pdfrwt>
<totfact> 0.13875015E+04</totfact>
</mgrwt>
</event>
<event>
 4    1  0.2489209E-004  0.3204722E+03  0.7818608E-02  0.1075432E+00
         -2   -1    0    0    0  501 -0.00000000000E+00  0.00000000000E+00  0.13321819969E+03  0.13321819972E+03  0.25500000000E-02 0. -1.
          2   -1    0    0  501    0  0.00000000000E+00 -0.00000000000E+00 -0.19273345346E+03  0.19273345348E+03  0.25500000000E-02 0.  1.
    5000001    1    1    2    0    0 -0.77947266690E+02 -0.10407403983E+03  0.24439691339E+02  0.15307998126E+03  0.77000000000E+02 0.  0.
   -5000001    1    1    2    0    0  0.77947266690E+02  0.10407403983E+03 -0.83954945110E+02  0.17287167194E+03  0.77000000000E+02 0.  0.
<mgrwt>
<rscale>  0 0.32047217E+03</rscale>
<asrwt>0</asrwt>
<pdfrwt beam="1">  1        2 0.29651301E-01 0.32047217E+03</pdfrwt>
<pdfrwt beam="2">  1       -2 0.20495107E-01 0.32047217E+03</pdfrwt>
<totfact> 0.35825182E+03</totfact>
</mgrwt>
</event>
<event>
 4    1  0.2489209E-004  0.1671363E+03  0.7818608E-02  0.1180868E+00
         -2   -1    0    0    0  501 -0.00000000000E+00  0.00000000000E+00  0.50329459883E+02  0.50329459948E+02  0.25500000000E-02 0. -1.
          2   -1    0    0  501    0  0.00000000000E+00 -0.00000000000E+00 -0.13875832507E+03  0.13875832509E+03  0.25500000000E-02 0.  1.
    5000001    1    1    2    0    0  0.28721276083E+02  0.13884919469E+02 -0.51089482523E+02  0.97759080975E+02  0.77000000000E+02 0.  0.
   -5000001    1    1    2    0    0 -0.28721276083E+02 -0.13884919469E+02 -0.37339382661E+02  0.91328704064E+02  0.77000000000E+02 0.  0.
<mgrwt>
<rscale>  0 0.16713625E+03</rscale>
<asrwt>0</asrwt>
<pdfrwt beam="1">  1        2 0.21347434E-01 0.16713625E+03</pdfrwt>
<pdfrwt beam="2">  1       -2 0.77429939E-02 0.16713625E+03</pdfrwt>
<totfact> 0.24212378E+04</totfact>
</mgrwt>
</event>
<event>
 4    1  0.2489209E-004  0.4047705E+03  0.7818608E-02  0.1042140E+00
         -2   -1    0    0    0  501 -0.00000000000E+00  0.00000000000E+00  0.29126658056E+03  0.29126658057E+03  0.25500000000E-02 0. -1.
          2   -1    0    0  501    0  0.00000000000E+00 -0.00000000000E+00 -0.14062645332E+03  0.14062645334E+03  0.25500000000E-02 0.  1.
    5000001    1    1    2    0    0  0.95843528436E+02 -0.15609588130E+03  0.34287009256E+02  0.20163458311E+03  0.77000000000E+02 0.  0.
   -5000001    1    1    2    0    0 -0.95843528436E+02  0.15609588130E+03  0.11635311798E+03  0.23025845080E+03  0.77000000000E+02 0.  0.
<mgrwt>
<rscale>  0 0.40477048E+03</rscale>
<asrwt>0</asrwt>
<pdfrwt beam="1">  1        2 0.21634839E-01 0.40477048E+03</pdfrwt>
<pdfrwt beam="2">  1       -2 0.44810243E-01 0.40477048E+03</pdfrwt>
<totfact> 0.12202054E+03</totfact>
</mgrwt>
</event>
<event>
 4    1  0.2489209E-004  0.1940148E+03  0.7818608E-02  0.1154889E+00
          2   -1    0    0  501    0  0.00000000000E+00  0.00000000000E+00  0.64987815450E+02  0.64987815500E+02  0.25500000000E-02 0.  1.
         -2   -1    0    0    0  501 -0.00000000000E+00 -0.00000000000E+00 -0.14480300690E+03  0.14480300692E+03  0.25500000000E-02 0. -1.
    5000001    1    1    2    0    0 -0.56756417231E+02  0.71334692038E+01 -0.24265734638E+02  0.98944444803E+02  0.77000000000E+02 0.  0.
   -5000001    1    1    2    0    0  0.56756417231E+02 -0.71334692038E+01 -0.55549456814E+02  0.11084637762E+03  0.77000000000E+02 0.  0.
<mgrwt>
<rscale>  0 0.19401475E+03</rscale>
<asrwt>0</asrwt>
<pdfrwt beam="1">  1        2 0.99981255E-02 0.19401475E+03</pdfrwt>
<pdfrwt beam="2">  1       -2 0.22277386E-01 0.19401475E+03</pdfrwt>
<totfact> 0.10779800E+04</totfact>
</mgrwt>
</event>
<event>
 4    1  0.2489209E-004  0.2371804E+03  0.7818608E-02  0.1121686E+00
          2   -1    0    0  501    0  0.00000000000E+00  0.00000000000E+00  0.15408918650E+03  0.15408918652E+03  0.25500000000E-02 0.  1.
         -2   -1    0    0    0  501 -0.00000000000E+00 -0.00000000000E+00 -0.91269473827E+02  0.91269473862E+02  0.25500000000E-02 0. -1.
    5000001    1    1    2    0    0  0.86392172918E+02 -0.16701917930E+02  0.51893557593E+02  0.12792381687E+03  0.77000000000E+02 0.  0.
   -5000001    1    1    2    0    0 -0.86392172918E+02  0.16701917930E+02  0.10926155075E+02  0.11743484350E+03  0.77000000000E+02 0.  0.
<mgrwt>
<rscale>  0 0.23718043E+03</rscale>
<asrwt>0</asrwt>
<pdfrwt beam="1">  1        2 0.23706029E-01 0.23718043E+03</pdfrwt>
<pdfrwt beam="2">  1       -2 0.14041458E-01 0.23718043E+03</pdfrwt>
<totfact> 0.85698036E+03</totfact>
</mgrwt>
</event>
<event>
 4    1  0.2489209E-004  0.2062944E+03  0.7818608E-02  0.1144535E+00
          2   -1    0    0  501    0  0.00000000000E+00  0.00000000000E+00  0.44103646787E+03  0.44103646788E+03  0.25500000000E-02 0.  1.
         -2   -1    0    0    0  501 -0.00000000000E+00 -0.00000000000E+00 -0.24123495395E+02  0.24123495529E+02  0.25500000000E-02 0. -1.
    5000001    1    1    2    0    0  0.96095519596E+01 -0.53070523415E+02  0.11275158482E+03  0.14680171601E+03  0.77000000000E+02 0.  0.
   -5000001    1    1    2    0    0 -0.96095519596E+01  0.53070523415E+02  0.30416138765E+03  0.31835824739E+03  0.77000000000E+02 0.  0.
<mgrwt>
<rscale>  0 0.20629436E+03</rscale>
<asrwt>0</asrwt>
<pdfrwt beam="1">  1        2 0.67851758E-01 0.20629436E+03</pdfrwt>
<pdfrwt beam="2">  1       -2 0.37113074E-02 0.20629436E+03</pdfrwt>
<totfact> 0.21432257E+04</totfact>
</mgrwt>
</event>
<event>
 4    1  0.2489209E-004  0.3113968E+03  0.7818608E-02  0.1079678E+00
         -2   -1    0    0    0  501 -0.00000000000E+00  0.00000000000E+00  0.35344666909E+02  0.35344667001E+02  0.25500000000E-02 0. -1.
          2   -1    0    0  501    0  0.00000000000E+00 -0.00000000000E+00 -0.68587429956E+03  0.68587429957E+03  0.25500000000E-02 0.  1.
    5000001    1    1    2    0    0 -0.12320451821E+03  0.55919855462E+02 -0.33122175067E+03  0.36598255649E+03  0.77000000000E+02 0.  0.
   -5000001    1    1    2    0    0  0.12320451821E+03 -0.55919855462E+02 -0.31930788199E+03  0.35523641007E+03  0.77000000000E+02 0.  0.
<mgrwt>
<rscale>  0 0.31139684E+03</rscale>
<asrwt>0</asrwt>
<pdfrwt beam="1">  1        2 0.10551911E+00 0.31139684E+03</pdfrwt>
<pdfrwt beam="2">  1       -2 0.54376416E-02 0.31139684E+03</pdfrwt>
<totfact> 0.74126621E+03</totfact>
</mgrwt>
</event>
<event>
 4    1  0.2489209E-004  0.9293202E+03  0.7818608E-02  0.9389654E-01
         -2   -1    0    0    0  501 -0.00000000000E+00  0.00000000000E+00  0.15312752696E+03  0.15312752698E+03  0.25500000000E-02 0. -1.
          2   -1    0    0  501    0  0.00000000000E+00 -0.00000000000E+00 -0.14099946337E+04  0.14099946337E+04  0.25500000000E-02 0.  1.
    5000001    1    1    2    0    0 -0.34401248266E+01 -0.20661590271E+03 -0.13163679223E+04  0.13347117564E+04  0.77000000000E+02 0.  0.
   -5000001    1    1    2    0    0  0.34401248266E+01  0.20661590271E+03  0.59500815622E+02  0.22841040425E+03  0.77000000000E+02 0.  0.
<mgrwt>
<rscale>  0 0.92932016E+03</rscale>
<asrwt>0</asrwt>
<pdfrwt beam="1">  1        2 0.21692224E+00 0.92932016E+03</pdfrwt>
<pdfrwt beam="2">  1       -2 0.23558082E-01 0.92932016E+03</pdfrwt>
<totfact> 0.22824557E+02</totfact>
</mgrwt>
</event>
<event>
 4    1  0.2489209E-004  0.2851328E+03  0.7818608E-02  0.1092918E+00
         -2   -1    0    0    0  501 -0.00000000000E+00  0.00000000000E+00  0.20144544196E+03  0.20144544198E+03  0.25500000000E-02 0. -1.
          2   -1    0    0  501    0  0.00000000000E+00 -0.00000000000E+00 -0.10089669833E+03  0.10089669836E+03  0.25500000000E-02 0.  1.
    5000001    1    1    2    0    0  0.88985297009E+02 -0.94918929719E+01  0.13502126245E+03  0.17935501228E+03  0.77000000000E+02 0.  0.
   -5000001    1    1    2    0    0 -0.88985297009E+02  0.94918929719E+01 -0.34472518817E+02  0.12298712806E+03  0.77000000000E+02 0.  0.
<mgrwt>
<rscale>  0 0.28513281E+03</rscale>
<asrwt>0</asrwt>
<pdfrwt beam="1">  1        2 0.15522569E-01 0.28513281E+03</pdfrwt>
<pdfrwt beam="2">  1       -2 0.30991606E-01 0.28513281E+03</pdfrwt>
<totfact> 0.35910063E+03</totfact>
</mgrwt>
</event>
<event>
 4    1  0.2489209E-004  0.2008607E+03  0.7818608E-02  0.1149015E+00
         -2   -1    0    0    0  501 -0.00000000000E+00  0.00000000000E+00  0.12955194825E+02  0.12955195076E+02  0.25500000000E-02 0. -1.
          2   -1    0    0  501    0  0.00000000000E+00 -0.00000000000E+00 -0.77854930071E+03  0.77854930072E+03  0.25500000000E-02 0.  1.
    5000001    1    1    2    0    0 -0.42117406232E+02 -0.25340548205E+02 -0.21836461053E+03  0.23670260333E+03  0.77000000000E+02 0.  0.
   -5000001    1    1    2    0    0  0.42117406232E+02  0.25340548205E+02 -0.54722949536E+03  0.55480189246E+03  0.77000000000E+02 0.  0.
<mgrwt>
<rscale>  0 0.20086073E+03</rscale>
<asrwt>0</asrwt>
<pdfrwt beam="1">  1        2 0.11977678E+00 0.20086073E+03</pdfrwt>
<pdfrwt beam="2">  1       -2 0.19931075E-02 0.20086073E+03</pdfrwt>
<totfact> 0.27806007E+04</totfact>
</mgrwt>
</event>
<event>
 4    1  0.2489209E-004  0.5112643E+03  0.7818608E-02  0.1010880E+00
          2   -1    0    0  501    0  0.00000000000E+00  0.00000000000E+00  0.86814770268E+03  0.86814770268E+03  0.25500000000E-02 0.  1.
         -2   -1    0    0    0  501 -0.00000000000E+00 -0.00000000000E+00 -0.75272657005E+02  0.75272657048E+02  0.25500000000E-02 0. -1.
    5000001    1    1    2    0    0  0.20250832988E+03 -0.11908969011E+03  0.27646936523E+03  0.37088581513E+03  0.77000000000E+02 0.  0.
   -5000001    1    1    2    0    0 -0.20250832988E+03  0.11908969011E+03  0.51640568044E+03  0.57253454459E+03  0.77000000000E+02 0.  0.
<mgrwt>
<rscale>  0 0.51126425E+03</rscale>
<asrwt>0</asrwt>
<pdfrwt beam="1">  1        2 0.13356118E+00 0.51126425E+03</pdfrwt>
<pdfrwt beam="2">  1       -2 0.11580409E-01 0.51126425E+03</pdfrwt>
<totfact> 0.16708781E+03</totfact>
</mgrwt>
</event>
<event>
 4    1  0.2489209E-004  0.2124601E+03  0.7818608E-02  0.1139633E+00
          2   -1    0    0  501    0  0.00000000000E+00  0.00000000000E+00  0.54816985959E+03  0.54816985960E+03  0.25500000000E-02 0.  1.
         -2   -1    0    0    0  501 -0.00000000000E+00 -0.00000000000E+00 -0.20586370244E+02  0.20586370402E+02  0.25500000000E-02 0. -1.
    5000001    1    1    2    0    0  0.67234190834E+02 -0.19273987541E+02  0.20613327654E+03  0.23089359175E+03  0.77000000000E+02 0.  0.
   -5000001    1    1    2    0    0 -0.67234190834E+02  0.19273987541E+02  0.32145021280E+03  0.33786263825E+03  0.77000000000E+02 0.  0.
<mgrwt>
<rscale>  0 0.21246014E+03</rscale>
<asrwt>0</asrwt>
<pdfrwt beam="1">  1        2 0.84333810E-01 0.21246014E+03</pdfrwt>
<pdfrwt beam="2">  1       -2 0.31671344E-02 0.21246014E+03</pdfrwt>
<totfact> 0.21363877E+04</totfact>
</mgrwt>
</event>
<event>
 4    1  0.2489209E-004  0.3580785E+03  0.7818608E-02  0.1059347E+00
          2   -1    0    0  501    0  0.00000000000E+00  0.00000000000E+00  0.10036518450E+04  0.10036518450E+04  0.25500000000E-02 0.  1.
         -2   -1    0    0    0  501 -0.00000000000E+00 -0.00000000000E+00 -0.31938414669E+02  0.31938414771E+02  0.25500000000E-02 0. -1.
    5000001    1    1    2    0    0  0.49826130629E+01 -0.11633839475E+03  0.16165251173E+03  0.21358834958E+03  0.77000000000E+02 0.  0.
   -5000001    1    1    2    0    0 -0.49826130629E+01  0.11633839475E+03  0.81006091860E+03  0.82200191020E+03  0.77000000000E+02 0.  0.
<mgrwt>
<rscale>  0 0.35807848E+03</rscale>
<asrwt>0</asrwt>
<pdfrwt beam="1">  1        2 0.15440794E+00 0.35807848E+03</pdfrwt>
<pdfrwt beam="2">  1       -2 0.49136034E-02 0.35807848E+03</pdfrwt>
<totfact> 0.52747165E+03</totfact>
</mgrwt>
</event>
<event>
 4    1  0.2489209E-004  0.3738896E+03  0.7818608E-02  0.1053216E+00
          2   -1    0    0  501    0  0.00000000000E+00  0.00000000000E+00  0.39641108450E+02  0.39641108532E+02  0.25500000000E-02 0.  1.
         -2   -1    0    0    0  501 -0.00000000000E+00 -0.00000000000E+00 -0.88161892477E+03  0.88161892478E+03  0.25500000000E-02 0. -1.
    5000001    1    1    2    0    0  0.82946483209E+01 -0.14795643341E+03 -0.62801454952E+03  0.64983935076E+03  0.77000000000E+02 0.  0.
   -5000001    1    1    2    0    0 -0.82946483209E+01  0.14795643341E+03 -0.21396326680E+03  0.27142068255E+03  0.77000000000E+02 0.  0.
<mgrwt>
<rscale>  0 0.37388956E+03</rscale>
<asrwt>0</asrwt>
<pdfrwt beam="1">  1        2 0.60986327E-02 0.37388956E+03</pdfrwt>
<pdfrwt beam="2">  1       -2 0.13563367E+00 0.37388956E+03</pdfrwt>
<totfact> 0.49827621E+02</totfact>
</mgrwt>
</event>
<event>
 4    1  0.2489209E-004  0.4703516E+03  0.7818608E-02  0.1021821E+00
          2   -1    0    0  501    0  0.00000000000E+00  0.00000000000E+00  0.27640993522E+03  0.27640993523E+03  0.25500000000E-02 0.  1.
         -2   -1    0    0    0  501 -0.00000000000E+00 -0.00000000000E+00 -0.20009287079E+03  0.20009287081E+03  0.25500000000E-02 0. -1.
    5000001    1    1    2    0    0  0.15898381637E+03 -0.12499921363E+03  0.13143874871E+03  0.25319123591E+03  0.77000000000E+02 0.  0.
   -5000001    1    1    2    0    0 -0.15898381637E+03  0.12499921363E+03 -0.55121684283E+02  0.22331157013E+03  0.77000000000E+02 0.  0.
<mgrwt>
<rscale>  0 0.47035160E+03</rscale>
<asrwt>0</asrwt>
<pdfrwt beam="1">  1        2 0.42524605E-01 0.47035160E+03</pdfrwt>
<pdfrwt beam="2">  1       -2 0.30783519E-01 0.47035160E+03</pdfrwt>
<totfact> 0.11738718E+03</totfact>
</mgrwt>
</event>
<event>
 4    1  0.2489209E-004  0.3304264E+03  0.7818608E-02  0.1070948E+00
          2   -1    0    0  501    0  0.00000000000E+00  0.00000000000E+00  0.94121710536E+02  0.94121710571E+02  0.25500000000E-02 0.  1.
         -2   -1    0    0    0  501 -0.00000000000E+00 -0.00000000000E+00 -0.29000115267E+03  0.29000115268E+03  0.25500000000E-02 0. -1.
    5000001    1    1    2    0    0  0.95262251460E+02 -0.37111252209E+02 -0.21938834561E+03  0.25399288924E+03  0.77000000000E+02 0.  0.
   -5000001    1    1    2    0    0 -0.95262251460E+02  0.37111252209E+02  0.23508903479E+02  0.13012997401E+03  0.77000000000E+02 0.  0.
<mgrwt>
<rscale>  0 0.33042642E+03</rscale>
<asrwt>0</asrwt>
<pdfrwt beam="1">  1        2 0.14480263E-01 0.33042642E+03</pdfrwt>
<pdfrwt beam="2">  1       -2 0.44615561E-01 0.33042642E+03</pdfrwt>
<totfact> 0.19655182E+03</totfact>
</mgrwt>
</event>
<event>
 4    1  0.2489209E-004  0.1882498E+03  0.7818608E-02  0.1160049E+00
          2   -1    0    0  501    0  0.00000000000E+00  0.00000000000E+00  0.34907800265E+03  0.34907800266E+03  0.25500000000E-02 0.  1.
         -2   -1    0    0    0  501 -0.00000000000E+00 -0.00000000000E+00 -0.25379704059E+02  0.25379704187E+02  0.25500000000E-02 0. -1.
    5000001    1    1    2    0    0 -0.50513620391E+02  0.10746501710E+02  0.12956700591E+03  0.15932269821E+03  0.77000000000E+02 0.  0.
   -5000001    1    1    2    0    0  0.50513620391E+02 -0.10746501710E+02  0.19413129268E+03  0.21513500864E+03  0.77000000000E+02 0.  0.
<mgrwt>
<rscale>  0 0.18824980E+03</rscale>
<asrwt>0</asrwt>
<pdfrwt beam="1">  1        2 0.53704303E-01 0.18824980E+03</pdfrwt>
<pdfrwt beam="2">  1       -2 0.39045702E-02 0.18824980E+03</pdfrwt>
<totfact> 0.25393299E+04</totfact>
</mgrwt>
</event>
<event>
 4    1  0.2489209E-004  0.3259774E+03  0.7818608E-02  0.1072931E+00
         -2   -1    0    0    0  501 -0.00000000000E+00  0.00000000000E+00  0.19778625677E+02  0.19778625841E+02  0.25500000000E-02 0. -1.
          2   -1    0    0  501    0  0.00000000000E+00 -0.00000000000E+00 -0.13431323910E+04  0.13431323910E+04  0.25500000000E-02 0.  1.
    5000001    1    1    2    0    0  0.96266541250E+02  0.90462153303E+02 -0.42569423225E+03  0.45232203961E+03  0.77000000000E+02 0.  0.
   -5000001    1    1    2    0    0 -0.96266541250E+02 -0.90462153303E+02 -0.89765953305E+03  0.91058897722E+03  0.77000000000E+02 0.  0.
<mgrwt>
<rscale>  0 0.32597738E+03</rscale>
<asrwt>0</asrwt>
<pdfrwt beam="1">  1        2 0.20663568E+00 0.32597738E+03</pdfrwt>
<pdfrwt beam="2">  1       -2 0.30428666E-02 0.32597738E+03</pdfrwt>
<totfact> 0.69063001E+03</totfact>
</mgrwt>
</event>
<event>
 4    1  0.2489209E-004  0.3934914E+03  0.7818608E-02  0.1046057E+00
          2   -1    0    0  501    0  0.00000000000E+00  0.00000000000E+00  0.12747816862E+04  0.12747816862E+04  0.25500000000E-02 0.  1.
         -2   -1    0    0    0  501 -0.00000000000E+00 -0.00000000000E+00 -0.30365098771E+02  0.30365098878E+02  0.25500000000E-02 0. -1.
    5000001    1    1    2    0    0  0.39940779151E+02 -0.17336116282E+03  0.73373065002E+03  0.75890646683E+03  0.77000000000E+02 0.  0.
   -5000001    1    1    2    0    0 -0.39940779151E+02  0.17336116282E+03  0.51068593738E+03  0.54624031823E+03  0.77000000000E+02 0.  0.
<mgrwt>
<rscale>  0 0.39349141E+03</rscale>
<asrwt>0</asrwt>
<pdfrwt beam="1">  1        2 0.19612020E+00 0.39349141E+03</pdfrwt>
<pdfrwt beam="2">  1       -2 0.46715550E-02 0.39349141E+03</pdfrwt>
<totfact> 0.39484987E+03</totfact>
</mgrwt>
</event>
<event>
 4    1  0.2489209E-004  0.2473593E+03  0.7818608E-02  0.1114985E+00
          2   -1    0    0  501    0  0.00000000000E+00  0.00000000000E+00  0.35842192915E+02  0.35842193006E+02  0.25500000000E-02 0.  1.
         -2   -1    0    0    0  501 -0.00000000000E+00 -0.00000000000E+00 -0.42677777795E+03  0.42677777796E+03  0.25500000000E-02 0. -1.
    5000001    1    1    2    0    0 -0.95114894412E+02 -0.25002227936E+01 -0.16229775035E+03  0.20327974326E+03  0.77000000000E+02 0.  0.
   -5000001    1    1    2    0    0  0.95114894412E+02  0.25002227936E+01 -0.22863783469E+03  0.25934022770E+03  0.77000000000E+02 0.  0.
<mgrwt>
<rscale>  0 0.24735926E+03</rscale>
<asrwt>0</asrwt>
<pdfrwt beam="1">  1        2 0.55141838E-02 0.24735926E+03</pdfrwt>
<pdfrwt beam="2">  1       -2 0.65658116E-01 0.24735926E+03</pdfrwt>
<totfact> 0.29953315E+03</totfact>
</mgrwt>
</event>
<event>
 4    1  0.2489209E-004  0.4331824E+03  0.7818608E-02  0.1032859E+00
         -2   -1    0    0    0  501 -0.00000000000E+00  0.00000000000E+00  0.18578355540E+03  0.18578355542E+03  0.25500000000E-02 0. -1.
          2   -1    0    0  501    0  0.00000000000E+00 -0.00000000000E+00 -0.25250757010E+03  0.25250757011E+03  0.25500000000E-02 0.  1.
    5000001    1    1    2    0    0  0.88001820470E+02 -0.13404139886E+03 -0.15839665587E+03  0.23818043078E+03  0.77000000000E+02 0.  0.
   -5000001    1    1    2    0    0 -0.88001820470E+02  0.13404139886E+03  0.91672641167E+02  0.20011069475E+03  0.77000000000E+02 0.  0.
<mgrwt>
<rscale>  0 0.43318243E+03</rscale>
<asrwt>0</asrwt>
<pdfrwt beam="1">  1        2 0.38847318E-01 0.43318243E+03</pdfrwt>
<pdfrwt beam="2">  1       -2 0.28582086E-01 0.43318243E+03</pdfrwt>
<totfact> 0.14845357E+03</totfact>
</mgrwt>
</event>
<event>
 4    1  0.2489209E-004  0.2552302E+03  0.7818608E-02  0.1110043E+00
          2   -1    0    0  501    0  0.00000000000E+00  0.00000000000E+00  0.17435157754E+03  0.17435157756E+03  0.25500000000E-02 0.  1.
         -2   -1    0    0    0  501 -0.00000000000E+00 -0.00000000000E+00 -0.93406760647E+02  0.93406760681E+02  0.25500000000E-02 0. -1.
    5000001    1    1    2    0    0  0.19245917469E+02 -0.39876773332E+02 -0.55655283670E+02  0.10481923960E+03  0.77000000000E+02 0.  0.
   -5000001    1    1    2    0    0 -0.19245917469E+02  0.39876773332E+02  0.13660010056E+03  0.16293909864E+03  0.77000000000E+02 0.  0.
<mgrwt>
<rscale>  0 0.25523022E+03</rscale>
<asrwt>0</asrwt>
<pdfrwt beam="1">  1        2 0.26823319E-01 0.25523022E+03</pdfrwt>
<pdfrwt beam="2">  1       -2 0.14370271E-01 0.25523022E+03</pdfrwt>
<totfact> 0.72135565E+03</totfact>
</mgrwt>
</event>
<event>
 4    1  0.2489209E-004  0.2250363E+03  0.7818608E-02  0.1130183E+00
          2   -1    0    0  501    0  0.00000000000E+00  0.00000000000E+00  0.21751502706E+03  0.21751502707E+03  0.25500000000E-02 0.  1.
         -2   -1    0    0    0  501 -0.00000000000E+00 -0.00000000000E+00 -0.58204429607E+02  0.58204429663E+02  0.25500000000E-02 0. -1.
    5000001    1    1    2    0    0 -0.59798451882E+02  0.61029565045E+01  0.11237461986E+02  0.98327928268E+02  0.77000000000E+02 0.  0.
   -5000001    1    1    2    0    0  0.59798451882E+02 -0.61029565045E+01  0.14807313546E+03  0.17739152847E+03  0.77000000000E+02 0.  0.
<mgrwt>
<rscale>  0 0.22503634E+03</rscale>
<asrwt>0</asrwt>
<pdfrwt beam="1">  1        2 0.33463850E-01 0.22503634E+03</pdfrwt>
<pdfrwt beam="2">  1       -2 0.89545276E-02 0.22503634E+03</pdfrwt>
<totfact> 0.12016145E+04</totfact>
</mgrwt>
</event>
<event>
 4    1  0.2489209E-004  0.3435947E+03  0.7818608E-02  0.1065275E+00
          2   -1    0    0  501    0  0.00000000000E+00  0.00000000000E+00  0.47651975235E+03  0.47651975236E+03  0.25500000000E-02 0.  1.
         -2   -1    0    0    0  501 -0.00000000000E+00 -0.00000000000E+00 -0.61937274544E+02  0.61937274596E+02  0.25500000000E-02 0. -1.
    5000001    1    1    2    0    0 -0.19953903068E+02 -0.14461515522E+03  0.28201604073E+03  0.32676252630E+03  0.77000000000E+02 0.  0.
   -5000001    1    1    2    0    0  0.19953903068E+02  0.14461515522E+03  0.13256643708E+03  0.21169450066E+03  0.77000000000E+02 0.  0.
<mgrwt>
<rscale>  0 0.34359473E+03</rscale>
<asrwt>0</asrwt>
<pdfrwt beam="1">  1        2 0.73310730E-01 0.34359473E+03</pdfrwt>
<pdfrwt beam="2">  1       -2 0.95288117E-02 0.34359473E+03</pdfrwt>
<totfact> 0.47259741E+03</totfact>
</mgrwt>
</event>
<event>
 4    1  0.2489209E-004  0.3296195E+03  0.7818608E-02  0.1071305E+00
         -2   -1    0    0    0  501 -0.00000000000E+00  0.00000000000E+00  0.14559936355E+03  0.14559936357E+03  0.25500000000E-02 0. -1.
          2   -1    0    0  501    0  0.00000000000E+00 -0.00000000000E+00 -0.18655471335E+03  0.18655471336E+03  0.25500000000E-02 0.  1.
    5000001    1    1    2    0    0  0.11594670651E+03  0.80068912617E+02 -0.57892387643E+02  0.17069035727E+03  0.77000000000E+02 0.  0.
   -5000001    1    1    2    0    0 -0.11594670651E+03 -0.80068912617E+02  0.16937037845E+02  0.16146371967E+03  0.77000000000E+02 0.  0.
<mgrwt>
<rscale>  0 0.32961946E+03</rscale>
<asrwt>0</asrwt>
<pdfrwt beam="1">  1        2 0.28700725E-01 0.32961946E+03</pdfrwt>
<pdfrwt beam="2">  1       -2 0.22399902E-01 0.32961946E+03</pdfrwt>
<totfact> 0.31859453E+03</totfact>
</mgrwt>
</event>
<event>
 4    1  0.2489209E-004  0.2609314E+03  0.7818608E-02  0.1106585E+00
         -2   -1    0    0    0  501 -0.00000000000E+00  0.00000000000E+00  0.96677239452E+01  0.96677242815E+01  0.25500000000E-02 0. -1.
          2   -1    0    0  501    0  0.00000000000E+00 -0.00000000000E+00 -0.17606315072E+04  0.17606315072E+04  0.25500000000E-02 0.  1.
    5000001    1    1    2    0    0 -0.79321948703E+02  0.64358359205E+02 -0.10495591595E+04  0.10573255881E+04  0.77000000000E+02 0.  0.
   -5000001    1    1    2    0    0  0.79321948703E+02 -0.64358359205E+02 -0.70140462381E+03  0.71297364345E+03  0.77000000000E+02 0.  0.
<mgrwt>
<rscale>  0 0.26093141E+03</rscale>
<asrwt>0</asrwt>
<pdfrwt beam="1">  1        2 0.27086613E+00 0.26093141E+03</pdfrwt>
<pdfrwt beam="2">  1       -2 0.14873436E-02 0.26093141E+03</pdfrwt>
<totfact> 0.11842153E+04</totfact>
</mgrwt>
</event>
<event>
 4    1  0.2489209E-004  0.1960121E+03  0.7818608E-02  0.1153148E+00
         -2   -1    0    0    0  501 -0.00000000000E+00  0.00000000000E+00  0.14168652852E+03  0.14168652855E+03  0.25500000000E-02 0. -1.
          2   -1    0    0  501    0  0.00000000000E+00 -0.00000000000E+00 -0.67791823770E+02  0.67791823818E+02  0.25500000000E-02 0.  1.
    5000001    1    1    2    0    0  0.54888678024E+02 -0.25638871969E+02  0.39580230972E+02  0.10566793939E+03  0.77000000000E+02 0.  0.
   -5000001    1    1    2    0    0 -0.54888678024E+02  0.25638871969E+02  0.34314473780E+02  0.10381041297E+03  0.77000000000E+02 0.  0.
<mgrwt>
<rscale>  0 0.19601212E+03</rscale>
<asrwt>0</asrwt>
<pdfrwt beam="1">  1        2 0.10429511E-01 0.19601212E+03</pdfrwt>
<pdfrwt beam="2">  1       -2 0.21797927E-01 0.19601212E+03</pdfrwt>
<totfact> 0.10631435E+04</totfact>
</mgrwt>
</event>
<event>
 4    1  0.2489209E-004  0.2405167E+03  0.7818608E-02  0.1119449E+00
         -2   -1    0    0    0  501 -0.00000000000E+00  0.00000000000E+00  0.85315973388E+01  0.85315977199E+01  0.25500000000E-02 0. -1.
          2   -1    0    0  501    0  0.00000000000E+00 -0.00000000000E+00 -0.16951186247E+04  0.16951186247E+04  0.25500000000E-02 0.  1.
    5000001    1    1    2    0    0 -0.45199674122E+02  0.80518567947E+02 -0.82479601411E+03  0.83351287645E+03  0.77000000000E+02 0.  0.
   -5000001    1    1    2    0    0  0.45199674122E+02 -0.80518567947E+02 -0.86179101323E+03  0.87013734594E+03  0.77000000000E+02 0.  0.
<mgrwt>
<rscale>  0 0.24051669E+03</rscale>
<asrwt>0</asrwt>
<pdfrwt beam="1">  1        2 0.26078721E+00 0.24051669E+03</pdfrwt>
<pdfrwt beam="2">  1       -2 0.13125548E-02 0.24051669E+03</pdfrwt>
<totfact> 0.15346892E+04</totfact>
</mgrwt>
</event>
<event>
 4    1  0.2489209E-004  0.4854945E+03  0.7818608E-02  0.1017636E+00
         -2   -1    0    0    0  501 -0.00000000000E+00  0.00000000000E+00  0.61394625604E+02  0.61394625657E+02  0.25500000000E-02 0. -1.
          2   -1    0    0  501    0  0.00000000000E+00 -0.00000000000E+00 -0.95979436996E+03  0.95979436997E+03  0.25500000000E-02 0.  1.
    5000001    1    1    2    0    0  0.78107163813E+02  0.21645228055E+03 -0.46329378747E+03  0.52299374021E+03  0.77000000000E+02 0.  0.
   -5000001    1    1    2    0    0 -0.78107163813E+02 -0.21645228055E+03 -0.43510595689E+03  0.49819525541E+03  0.77000000000E+02 0.  0.
<mgrwt>
<rscale>  0 0.48549445E+03</rscale>
<asrwt>0</asrwt>
<pdfrwt beam="1">  1        2 0.14766066E+00 0.48549445E+03</pdfrwt>
<pdfrwt beam="2">  1       -2 0.94453277E-02 0.48549445E+03</pdfrwt>
<totfact> 0.20239942E+03</totfact>
</mgrwt>
</event>
<event>
 4    1  0.2489209E-004  0.3108774E+03  0.7818608E-02  0.1079926E+00
          2   -1    0    0  501    0  0.00000000000E+00  0.00000000000E+00  0.26042760195E+02  0.26042760320E+02  0.25500000000E-02 0.  1.
         -2   -1    0    0    0  501 -0.00000000000E+00 -0.00000000000E+00 -0.92775056787E+03  0.92775056787E+03  0.25500000000E-02 0. -1.
    5000001    1    1    2    0    0  0.31179194180E+02  0.12247404186E+03 -0.59671317508E+03  0.61479073382E+03  0.77000000000E+02 0.  0.
   -5000001    1    1    2    0    0 -0.31179194180E+02 -0.12247404186E+03 -0.30499463259E+03  0.33900259437E+03  0.77000000000E+02 0.  0.
<mgrwt>
<rscale>  0 0.31087738E+03</rscale>
<asrwt>0</asrwt>
<pdfrwt beam="1">  1        2 0.40065792E-02 0.31087738E+03</pdfrwt>
<pdfrwt beam="2">  1       -2 0.14273083E+00 0.31087738E+03</pdfrwt>
<totfact> 0.76462418E+02</totfact>
</mgrwt>
</event>
<event>
 4    1  0.2489209E-004  0.3475818E+03  0.7818608E-02  0.1063612E+00
         -2   -1    0    0    0  501 -0.00000000000E+00  0.00000000000E+00  0.72522097730E+02  0.72522097775E+02  0.25500000000E-02 0. -1.
          2   -1    0    0  501    0  0.00000000000E+00 -0.00000000000E+00 -0.41647001657E+03  0.41647001658E+03  0.25500000000E-02 0.  1.
    5000001    1    1    2    0    0  0.11593795123E+03  0.48758659410E+02 -0.42611461419E+02  0.15350489258E+03  0.77000000000E+02 0.  0.
   -5000001    1    1    2    0    0 -0.11593795123E+03 -0.48758659410E+02 -0.30133645742E+03  0.33548722178E+03  0.77000000000E+02 0.  0.
<mgrwt>
<rscale>  0 0.34758181E+03</rscale>
<asrwt>0</asrwt>
<pdfrwt beam="1">  1        2 0.64072309E-01 0.34758181E+03</pdfrwt>
<pdfrwt beam="2">  1       -2 0.11157246E-01 0.34758181E+03</pdfrwt>
<totfact> 0.42626410E+03</totfact>
</mgrwt>
</event>
<event>
 4    1  0.2489209E-004  0.2458564E+03  0.7818608E-02  0.1115952E+00
          2   -1    0    0  501    0  0.00000000000E+00  0.00000000000E+00  0.23154147074E+03  0.23154147075E+03  0.25500000000E-02 0.  1.
         -2   -1    0    0    0  501 -0.00000000000E+00 -0.00000000000E+00 -0.65264095793E+02  0.65264095843E+02  0.25500000000E-02 0. -1.
    5000001    1    1    2    0    0  0.67668488429E+02 -0.51480135971E+02  0.29786220015E+02  0.11851349134E+03  0.77000000000E+02 0.  0.
   -5000001    1    1    2    0    0 -0.67668488429E+02  0.51480135971E+02  0.13649115493E+03  0.17829207526E+03  0.77000000000E+02 0.  0.
<mgrwt>
<rscale>  0 0.24585642E+03</rscale>
<asrwt>0</asrwt>
<pdfrwt beam="1">  1        2 0.35621765E-01 0.24585642E+03</pdfrwt>
<pdfrwt beam="2">  1       -2 0.10040630E-01 0.24585642E+03</pdfrwt>
<totfact> 0.94165299E+03</totfact>
</mgrwt>
</event>
<event>
 4    1  0.2489209E-004  0.2773410E+03  0.7818608E-02  0.1097150E+00
          2   -1    0    0  501    0  0.00000000000E+00  0.00000000000E+00  0.81158096491E+03  0.81158096491E+03  0.25500000000E-02 0.  1.
         -2   -1    0    0    0  501 -0.00000000000E+00 -0.00000000000E+00 -0.23693890493E+02  0.23693890631E+02  0.25500000000E-02 0. -1.
    5000001    1    1    2    0    0 -0.75749708242E+02  0.82741299518E+02  0.31333447329E+03  0.34160157069E+03  0.77000000000E+02 0.  0.
   -5000001    1    1    2    0    0  0.75749708242E+02 -0.82741299518E+02  0.47455260112E+03  0.49367328485E+03  0.77000000000E+02 0.  0.
<mgrwt>
<rscale>  0 0.27734102E+03</rscale>
<asrwt>0</asrwt>
<pdfrwt beam="1">  1        2 0.12485862E+00 0.27734102E+03</pdfrwt>
<pdfrwt beam="2">  1       -2 0.36452135E-02 0.27734102E+03</pdfrwt>
<totfact> 0.10978806E+04</totfact>
</mgrwt>
</event>
<event>
 4    1  0.2489209E-004  0.1968662E+03  0.7818608E-02  0.1152410E+00
          2   -1    0    0  501    0  0.00000000000E+00  0.00000000000E+00  0.11981854576E+04  0.11981854576E+04  0.25500000000E-02 0.  1.
         -2   -1    0    0    0  501 -0.00000000000E+00 -0.00000000000E+00 -0.80864577861E+01  0.80864581881E+01  0.25500000000E-02 0. -1.
    5000001    1    1    2    0    0  0.85569140955E+01 -0.54019818991E+02  0.76493512689E+03  0.77074386794E+03  0.77000000000E+02 0.  0.
   -5000001    1    1    2    0    0 -0.85569140955E+01  0.54019818991E+02  0.42516387296E+03  0.43552804788E+03  0.77000000000E+02 0.  0.
<mgrwt>
<rscale>  0 0.19686621E+03</rscale>
<asrwt>0</asrwt>
<pdfrwt beam="1">  1        2 0.18433619E+00 0.19686621E+03</pdfrwt>
<pdfrwt beam="2">  1       -2 0.12440707E-02 0.19686621E+03</pdfrwt>
<totfact> 0.30395791E+04</totfact>
</mgrwt>
</event>
<event>
 4    1  0.2489209E-004  0.2701005E+03  0.7818608E-02  0.1101222E+00
          2   -1    0    0  501    0  0.00000000000E+00  0.00000000000E+00  0.11497874247E+04  0.11497874247E+04  0.25500000000E-02 0.  1.
         -2   -1    0    0    0  501 -0.00000000000E+00 -0.00000000000E+00 -0.15862553437E+02  0.15862553641E+02  0.25500000000E-02 0. -1.
    5000001    1    1    2    0    0 -0.66266548924E+02 -0.63333120197E+02  0.83672212025E+03  0.84524271433E+03  0.77000000000E+02 0.  0.
   -5000001    1    1    2    0    0  0.66266548924E+02  0.63333120197E+02  0.29720275102E+03  0.32040726401E+03  0.77000000000E+02 0.  0.
<mgrwt>
<rscale>  0 0.27010046E+03</rscale>
<asrwt>0</asrwt>
<pdfrwt beam="1">  1        2 0.17689044E+00 0.27010046E+03</pdfrwt>
<pdfrwt beam="2">  1       -2 0.24403920E-02 0.27010046E+03</pdfrwt>
<totfact> 0.12274351E+04</totfact>
</mgrwt>
</event>
<event>
 4    1  0.2489209E-004  0.1820934E+03  0.7818608E-02  0.1165792E+00
         -2   -1    0    0    0  501 -0.00000000000E+00  0.00000000000E+00  0.24689317763E+02  0.24689317895E+02  0.25500000000E-02 0. -1.
          2   -1    0    0  501    0  0.00000000000E+00 -0.00000000000E+00 -0.33575264722E+03  0.33575264723E+03  0.25500000000E-02 0.  1.
    5000001    1    1    2    0    0 -0.23563599027E+02  0.30929200596E+01 -0.71651879941E+02  0.10783228298E+03  0.77000000000E+02 0.  0.
   -5000001    1    1    2    0    0  0.23563599027E+02 -0.30929200596E+01 -0.23941144951E+03  0.25260968214E+03  0.77000000000E+02 0.  0.
<mgrwt>
<rscale>  0 0.18209342E+03</rscale>
<asrwt>0</asrwt>
<pdfrwt beam="1">  1        2 0.51654250E-01 0.18209342E+03</pdfrwt>
<pdfrwt beam="2">  1       -2 0.37983568E-02 0.18209342E+03</pdfrwt>
<totfact> 0.27508153E+04</totfact>
</mgrwt>
</event>
<event>
 4    1  0.2489209E-004  0.2007376E+03  0.7818608E-02  0.1149118E+00
          2   -1    0    0  501    0  0.00000000000E+00  0.00000000000E+00  0.80906252093E+03  0.80906252094E+03  0.25500000000E-02 0.  1.
         -2   -1    0    0    0  501 -0.00000000000E+00 -0.00000000000E+00 -0.12451322023E+02  0.12451322284E+02  0.25500000000E-02 0. -1.
    5000001    1    1    2    0    0  0.15981673362E+02  0.40646572657E+02  0.20472931909E+03  0.22304854146E+03  0.77000000000E+02 0.  0.
   -5000001    1    1    2    0    0 -0.15981673362E+02 -0.40646572657E+02  0.59188187982E+03  0.59846530176E+03  0.77000000000E+02 0.  0.
<mgrwt>
<rscale>  0 0.20073762E+03</rscale>
<asrwt>0</asrwt>
<pdfrwt beam="1">  1        2 0.12447120E+00 0.20073762E+03</pdfrwt>
<pdfrwt beam="2">  1       -2 0.19155874E-02 0.20073762E+03</pdfrwt>
<totfact> 0.28074649E+04</totfact>
</mgrwt>
</event>
<event>
 4    1  0.2489209E-004  0.2296004E+03  0.7818608E-02  0.1126921E+00
          2   -1    0    0  501    0  0.00000000000E+00  0.00000000000E+00  0.44198885803E+03  0.44198885804E+03  0.25500000000E-02 0.  1.
         -2   -1    0    0    0  501 -0.00000000000E+00 -0.00000000000E+00 -0.29817679972E+02  0.29817680081E+02  0.25500000000E-02 0. -1.
    5000001    1    1    2    0    0  0.45896300172E+01 -0.53025616200E+02  0.34266017832E+03  0.35521511579E+03  0.77000000000E+02 0.  0.
   -5000001    1    1    2    0    0 -0.45896300172E+01  0.53025616200E+02  0.69510999743E+02  0.11659142234E+03  0.77000000000E+02 0.  0.
<mgrwt>
<rscale>  0 0.22960037E+03</rscale>
<asrwt>0</asrwt>
<pdfrwt beam="1">  1        2 0.67998281E-01 0.22960037E+03</pdfrwt>
<pdfrwt beam="2">  1       -2 0.45873357E-02 0.22960037E+03</pdfrwt>
<totfact> 0.15665084E+04</totfact>
</mgrwt>
</event>
<event>
 4    1  0.2489209E-004  0.2198017E+03  0.7818608E-02  0.1134031E+00
         -2   -1    0    0    0  501 -0.00000000000E+00  0.00000000000E+00  0.59206856515E+02  0.59206856570E+02  0.25500000000E-02 0. -1.
          2   -1    0    0  501    0  0.00000000000E+00 -0.00000000000E+00 -0.20399991367E+03  0.20399991368E+03  0.25500000000E-02 0.  1.
    5000001    1    1    2    0    0  0.56813113704E+02  0.25447273527E+02 -0.15294472227E+02  0.10019089030E+03  0.77000000000E+02 0.  0.
   -5000001    1    1    2    0    0 -0.56813113704E+02 -0.25447273527E+02 -0.12949858492E+03  0.16301587995E+03  0.77000000000E+02 0.  0.
<mgrwt>
<rscale>  0 0.21980167E+03</rscale>
<asrwt>0</asrwt>
<pdfrwt beam="1">  1        2 0.31384602E-01 0.21980167E+03</pdfrwt>
<pdfrwt beam="2">  1       -2 0.91087473E-02 0.21980167E+03</pdfrwt>
<totfact> 0.12525134E+04</totfact>
</mgrwt>
</event>
<event>
 4    1  0.2489209E-004  0.2289824E+03  0.7818608E-02  0.1127358E+00
          2   -1    0    0  501    0  0.00000000000E+00  0.00000000000E+00  0.37373974671E+03  0.37373974671E+03  0.25500000000E-02 0.  1.
         -2   -1    0    0    0  501 -0.00000000000E+00 -0.00000000000E+00 -0.35073152482E+02  0.35073152575E+02  0.25500000000E-02 0. -1.
    5000001    1    1    2    0    0 -0.58256907889E+02 -0.50851351479E+02  0.23116673283E+03  0.25563017355E+03  0.77000000000E+02 0.  0.
   -5000001    1    1    2    0    0  0.58256907889E+02  0.50851351479E+02  0.10749986139E+03  0.15318272574E+03  0.77000000000E+02 0.  0.
<mgrwt>
<rscale>  0 0.22898237E+03</rscale>
<asrwt>0</asrwt>
<pdfrwt beam="1">  1        2 0.57498424E-01 0.22898237E+03</pdfrwt>
<pdfrwt beam="2">  1       -2 0.53958694E-02 0.22898237E+03</pdfrwt>
<totfact> 0.14691933E+04</totfact>
</mgrwt>
</event>
<event>
 4    1  0.2489209E-004  0.1997780E+03  0.7818608E-02  0.1149926E+00
         -2   -1    0    0    0  501 -0.00000000000E+00  0.00000000000E+00  0.53612359361E+03  0.53612359361E+03  0.25500000000E-02 0. -1.
          2   -1    0    0  501    0  0.00000000000E+00 -0.00000000000E+00 -0.18611025625E+02  0.18611025799E+02  0.25500000000E-02 0.  1.
    5000001    1    1    2    0    0  0.43013594900E+02  0.40005405248E+02  0.19084157594E+03  0.21400960002E+03  0.77000000000E+02 0.  0.
   -5000001    1    1    2    0    0 -0.43013594900E+02 -0.40005405248E+02  0.32667099204E+03  0.34072501939E+03  0.77000000000E+02 0.  0.
<mgrwt>
<rscale>  0 0.19977798E+03</rscale>
<asrwt>0</asrwt>
<pdfrwt beam="1">  1        2 0.28632343E-02 0.19977798E+03</pdfrwt>
<pdfrwt beam="2">  1       -2 0.82480564E-01 0.19977798E+03</pdfrwt>
<totfact> 0.43441211E+03</totfact>
</mgrwt>
</event>
<event>
 4    1  0.2489209E-004  0.1853811E+03  0.7818608E-02  0.1162694E+00
          2   -1    0    0  501    0  0.00000000000E+00  0.00000000000E+00  0.40358780613E+03  0.40358780614E+03  0.25500000000E-02 0.  1.
         -2   -1    0    0    0  501 -0.00000000000E+00 -0.00000000000E+00 -0.21287904966E+02  0.21287905118E+02  0.25500000000E-02 0. -1.
    5000001    1    1    2    0    0 -0.26096405723E+02  0.40733748936E+02  0.15000544055E+03  0.17541634157E+03  0.77000000000E+02 0.  0.
   -5000001    1    1    2    0    0  0.26096405723E+02 -0.40733748936E+02  0.23229446061E+03  0.24945936969E+03  0.77000000000E+02 0.  0.
<mgrwt>
<rscale>  0 0.18538111E+03</rscale>
<asrwt>0</asrwt>
<pdfrwt beam="1">  1        2 0.62090431E-01 0.18538111E+03</pdfrwt>
<pdfrwt beam="2">  1       -2 0.32750624E-02 0.18538111E+03</pdfrwt>
<totfact> 0.28190825E+04</totfact>
</mgrwt>
</event>
<event>
 4    1  0.2489209E-004  0.2398087E+03  0.7818608E-02  0.1119920E+00
         -2   -1    0    0    0  501 -0.00000000000E+00  0.00000000000E+00  0.59176610160E+02  0.59176610215E+02  0.25500000000E-02 0. -1.
          2   -1    0    0  501    0  0.00000000000E+00 -0.00000000000E+00 -0.24295166378E+03  0.24295166380E+03  0.25500000000E-02 0.  1.
    5000001    1    1    2    0    0  0.47185624452E+02  0.76605675445E+02 -0.68211880571E+02  0.13666299176E+03  0.77000000000E+02 0.  0.
   -5000001    1    1    2    0    0 -0.47185624452E+02 -0.76605675445E+02 -0.11556317305E+03  0.16546528225E+03  0.77000000000E+02 0.  0.
<mgrwt>
<rscale>  0 0.23980872E+03</rscale>
<asrwt>0</asrwt>
<pdfrwt beam="1">  1        2 0.37377178E-01 0.23980872E+03</pdfrwt>
<pdfrwt beam="2">  1       -2 0.91040940E-02 0.23980872E+03</pdfrwt>
<totfact> 0.10423022E+04</totfact>
</mgrwt>
</event>
<event>
 4    1  0.2489209E-004  0.1891720E+03  0.7818608E-02  0.1159210E+00
         -2   -1    0    0    0  501 -0.00000000000E+00  0.00000000000E+00  0.11890895455E+02  0.11890895728E+02  0.25500000000E-02 0. -1.
          2   -1    0    0  501    0  0.00000000000E+00 -0.00000000000E+00 -0.75238365290E+03  0.75238365290E+03  0.25500000000E-02 0.  1.
    5000001    1    1    2    0    0 -0.22459235456E+02  0.45407765632E+02 -0.45606724284E+03  0.46528766632E+03  0.77000000000E+02 0.  0.
   -5000001    1    1    2    0    0  0.22459235456E+02 -0.45407765632E+02 -0.28442551460E+03  0.29898688231E+03  0.77000000000E+02 0.  0.
<mgrwt>
<rscale>  0 0.18917204E+03</rscale>
<asrwt>0</asrwt>
<pdfrwt beam="1">  1        2 0.11575129E+00 0.18917204E+03</pdfrwt>
<pdfrwt beam="2">  1       -2 0.18293691E-02 0.18917204E+03</pdfrwt>
<totfact> 0.32732590E+04</totfact>
</mgrwt>
</event>
<event>
 4    1  0.2489209E-004  0.3886091E+03  0.7818608E-02  0.1047797E+00
         -2   -1    0    0    0  501 -0.00000000000E+00  0.00000000000E+00  0.56570897713E+02  0.56570897771E+02  0.25500000000E-02 0. -1.
          2   -1    0    0  501    0  0.00000000000E+00 -0.00000000000E+00 -0.66737965870E+03  0.66737965870E+03  0.25500000000E-02 0.  1.
    5000001    1    1    2    0    0 -0.14978979246E+02 -0.17767294818E+03 -0.31614171152E+03  0.37103453760E+03  0.77000000000E+02 0.  0.
   -5000001    1    1    2    0    0  0.14978979246E+02  0.17767294818E+03 -0.29466704946E+03  0.35291601887E+03  0.77000000000E+02 0.  0.
<mgrwt>
<rscale>  0 0.38860914E+03</rscale>
<asrwt>0</asrwt>
<pdfrwt beam="1">  1        2 0.10267379E+00 0.38860914E+03</pdfrwt>
<pdfrwt beam="2">  1       -2 0.87032155E-02 0.38860914E+03</pdfrwt>
<totfact> 0.36996106E+03</totfact>
</mgrwt>
</event>
<event>
 4    1  0.2489209E-004  0.2712290E+03  0.7818608E-02  0.1100578E+00
         -2   -1    0    0    0  501 -0.00000000000E+00  0.00000000000E+00  0.11721217816E+03  0.11721217819E+03  0.25500000000E-02 0. -1.
          2   -1    0    0  501    0  0.00000000000E+00 -0.00000000000E+00 -0.15690593531E+03  0.15690593533E+03  0.25500000000E-02 0.  1.
    5000001    1    1    2    0    0  0.64854875824E+02  0.85497567424E+02 -0.50936506890E+02  0.14156099988E+03  0.77000000000E+02 0.  0.
   -5000001    1    1    2    0    0 -0.64854875824E+02 -0.85497567424E+02  0.11242749739E+02  0.13255711363E+03  0.77000000000E+02 0.  0.
<mgrwt>
<rscale>  0 0.27122895E+03</rscale>
<asrwt>0</asrwt>
<pdfrwt beam="1">  1        2 0.24139375E-01 0.27122895E+03</pdfrwt>
<pdfrwt beam="2">  1       -2 0.18032643E-01 0.27122895E+03</pdfrwt>
<totfact> 0.55736955E+03</totfact>
</mgrwt>
</event>
<event>
 4    1  0.2489209E-004  0.1729218E+03  0.7818608E-02  0.1174835E+00
          2   -1    0    0  501    0  0.00000000000E+00  0.00000000000E+00  0.19374730890E+03  0.19374730892E+03  0.25500000000E-02 0.  1.
         -2   -1    0    0    0  501 -0.00000000000E+00 -0.00000000000E+00 -0.38583696134E+02  0.38583696219E+02  0.25500000000E-02 0. -1.
    5000001    1    1    2    0    0 -0.70593549697E+01 -0.38686480899E+02  0.77709326980E+02  0.11625066794E+03  0.77000000000E+02 0.  0.
   -5000001    1    1    2    0    0  0.70593549697E+01  0.38686480899E+02  0.77454285789E+02  0.11608033720E+03  0.77000000000E+02 0.  0.
<mgrwt>
<rscale>  0 0.17292180E+03</rscale>
<asrwt>0</asrwt>
<pdfrwt beam="1">  1        2 0.29807278E-01 0.17292180E+03</pdfrwt>
<pdfrwt beam="2">  1       -2 0.59359532E-02 0.17292180E+03</pdfrwt>
<totfact> 0.25226934E+04</totfact>
</mgrwt>
</event>
<event>
 4    1  0.2489209E-004  0.2942917E+03  0.7818608E-02  0.1088129E+00
         -2   -1    0    0    0  501 -0.00000000000E+00  0.00000000000E+00  0.16701264724E+02  0.16701264919E+02  0.25500000000E-02 0. -1.
          2   -1    0    0  501    0  0.00000000000E+00 -0.00000000000E+00 -0.12964229765E+04  0.12964229765E+04  0.25500000000E-02 0.  1.
    5000001    1    1    2    0    0 -0.11606956391E+03 -0.15759161998E+01 -0.85143014223E+03  0.86274962432E+03  0.77000000000E+02 0.  0.
   -5000001    1    1    2    0    0  0.11606956391E+03  0.15759161998E+01 -0.42829156957E+03  0.45037461712E+03  0.77000000000E+02 0.  0.
<mgrwt>
<rscale>  0 0.29429172E+03</rscale>
<asrwt>0</asrwt>
<pdfrwt beam="1">  1        2 0.19944961E+00 0.29429172E+03</pdfrwt>
<pdfrwt beam="2">  1       -2 0.25694264E-02 0.29429172E+03</pdfrwt>
<totfact> 0.94157762E+03</totfact>
</mgrwt>
</event>
<event>
 4    1  0.2489209E-004  0.4491610E+03  0.7818608E-02  0.1027973E+00
          2   -1    0    0  501    0  0.00000000000E+00  0.00000000000E+00  0.62470490502E+03  0.62470490502E+03  0.25500000000E-02 0.  1.
         -2   -1    0    0    0  501 -0.00000000000E+00 -0.00000000000E+00 -0.80736373008E+02  0.80736373048E+02  0.25500000000E-02 0. -1.
    5000001    1    1    2    0    0 -0.15325690974E+02  0.20748474901E+03  0.32690076401E+03  0.39506696570E+03  0.77000000000E+02 0.  0.
   -5000001    1    1    2    0    0  0.15325690974E+02 -0.20748474901E+03  0.21706776800E+03  0.31037431238E+03  0.77000000000E+02 0.  0.
<mgrwt>
<rscale>  0 0.44916103E+03</rscale>
<asrwt>0</asrwt>
<pdfrwt beam="1">  1        2 0.96108446E-01 0.44916103E+03</pdfrwt>
<pdfrwt beam="2">  1       -2 0.12420981E-01 0.44916103E+03</pdfrwt>
<totfact> 0.22604957E+03</totfact>
</mgrwt>
</event>
<event>
 4    1  0.2489209E-004  0.1864707E+03  0.7818608E-02  0.1161684E+00
          2   -1    0    0  501    0  0.00000000000E+00  0.00000000000E+00  0.17763489700E+03  0.17763489702E+03  0.25500000000E-02 0.  1.
         -2   -1    0    0    0  501 -0.00000000000E+00 -0.00000000000E+00 -0.48936485030E+02  0.48936485097E+02  0.25500000000E-02 0. -1.
    5000001    1    1    2    0    0  0.30453274078E+02 -0.42541726754E+02  0.70619042543E+02  0.11684712058E+03  0.77000000000E+02 0.  0.
   -5000001    1    1    2    0    0 -0.30453274078E+02  0.42541726754E+02  0.58079369428E+02  0.10972426154E+03  0.77000000000E+02 0.  0.
<mgrwt>
<rscale>  0 0.18647067E+03</rscale>
<asrwt>0</asrwt>
<pdfrwt beam="1">  1        2 0.27328445E-01 0.18647067E+03</pdfrwt>
<pdfrwt beam="2">  1       -2 0.75286902E-02 0.18647067E+03</pdfrwt>
<totfact> 0.19388248E+04</totfact>
</mgrwt>
</event>
<event>
 4    1  0.2489209E-004  0.2620424E+03  0.7818608E-02  0.1105922E+00
         -2   -1    0    0    0  501 -0.00000000000E+00  0.00000000000E+00  0.40280040274E+03  0.40280040275E+03  0.25500000000E-02 0. -1.
          2   -1    0    0  501    0  0.00000000000E+00 -0.00000000000E+00 -0.42618031854E+02  0.42618031930E+02  0.25500000000E-02 0.  1.
    5000001    1    1    2    0    0 -0.89140482772E+02  0.86529980797E+01  0.83686275620E+02  0.14475252251E+03  0.77000000000E+02 0.  0.
   -5000001    1    1    2    0    0  0.89140482772E+02 -0.86529980797E+01  0.27649609527E+03  0.30066591217E+03  0.77000000000E+02 0.  0.
<mgrwt>
<rscale>  0 0.26204244E+03</rscale>
<asrwt>0</asrwt>
<pdfrwt beam="1">  1        2 0.65566200E-02 0.26204244E+03</pdfrwt>
<pdfrwt beam="2">  1       -2 0.61969295E-01 0.26204244E+03</pdfrwt>
<totfact> 0.27044098E+03</totfact>
</mgrwt>
</event>
<event>
 4    1  0.2489209E-004  0.1796207E+03  0.7818608E-02  0.1168171E+00
          2   -1    0    0  501    0  0.00000000000E+00  0.00000000000E+00  0.14907197091E+04  0.14907197091E+04  0.25500000000E-02 0.  1.
         -2   -1    0    0    0  501 -0.00000000000E+00 -0.00000000000E+00 -0.54107387629E+01  0.54107393638E+01  0.25500000000E-02 0. -1.
    5000001    1    1    2    0    0  0.36567376436E+02 -0.27609312417E+02  0.69168283075E+03  0.69746224665E+03  0.77000000000E+02 0.  0.
   -5000001    1    1    2    0    0 -0.36567376436E+02  0.27609312417E+02  0.79362613957E+03  0.79866820179E+03  0.77000000000E+02 0.  0.
<mgrwt>
<rscale>  0 0.17962066E+03</rscale>
<asrwt>0</asrwt>
<pdfrwt beam="1">  1        2 0.22934161E+00 0.17962066E+03</pdfrwt>
<pdfrwt beam="2">  1       -2 0.83242096E-03 0.17962066E+03</pdfrwt>
<totfact> 0.37410164E+04</totfact>
</mgrwt>
</event>
<event>
 4    1  0.2489209E-004  0.2095878E+03  0.7818608E-02  0.1141893E+00
         -2   -1    0    0    0  501 -0.00000000000E+00  0.00000000000E+00  0.17873281120E+02  0.17873281302E+02  0.25500000000E-02 0. -1.
          2   -1    0    0  501    0  0.00000000000E+00 -0.00000000000E+00 -0.61442328455E+03  0.61442328456E+03  0.25500000000E-02 0.  1.
    5000001    1    1    2    0    0 -0.52583590954E+02 -0.27154576025E+02 -0.41706241996E+03  0.42822011534E+03  0.77000000000E+02 0.  0.
   -5000001    1    1    2    0    0  0.52583590954E+02  0.27154576025E+02 -0.17948758347E+03  0.20407645052E+03  0.77000000000E+02 0.  0.
<mgrwt>
<rscale>  0 0.20958779E+03</rscale>
<asrwt>0</asrwt>
<pdfrwt beam="1">  1        2 0.94526643E-01 0.20958779E+03</pdfrwt>
<pdfrwt beam="2">  1       -2 0.27497360E-02 0.20958779E+03</pdfrwt>
<totfact> 0.23091544E+04</totfact>
</mgrwt>
</event>
<event>
 4    1  0.2489209E-004  0.2351069E+03  0.7818608E-02  0.1123096E+00
         -2   -1    0    0    0  501 -0.00000000000E+00  0.00000000000E+00  0.27390636765E+02  0.27390636883E+02  0.25500000000E-02 0. -1.
          2   -1    0    0  501    0  0.00000000000E+00 -0.00000000000E+00 -0.50450846328E+03  0.50450846328E+03  0.25500000000E-02 0.  1.
    5000001    1    1    2    0    0 -0.20791343329E+02  0.76323333408E+02 -0.14715582145E+03  0.18396023203E+03  0.77000000000E+02 0.  0.
   -5000001    1    1    2    0    0  0.20791343329E+02 -0.76323333408E+02 -0.32996200506E+03  0.34793886814E+03  0.77000000000E+02 0.  0.
<mgrwt>
<rscale>  0 0.23510685E+03</rscale>
<asrwt>0</asrwt>
<pdfrwt beam="1">  1        2 0.77616680E-01 0.23510685E+03</pdfrwt>
<pdfrwt beam="2">  1       -2 0.42139445E-02 0.23510685E+03</pdfrwt>
<totfact> 0.15402573E+04</totfact>
</mgrwt>
</event>
<event>
 4    1  0.2489209E-004  0.2364794E+03  0.7818608E-02  0.1122161E+00
          2   -1    0    0  501    0  0.00000000000E+00  0.00000000000E+00  0.95503336284E+03  0.95503336284E+03  0.25500000000E-02 0.  1.
         -2   -1    0    0    0  501 -0.00000000000E+00 -0.00000000000E+00 -0.14638889471E+02  0.14638889693E+02  0.25500000000E-02 0. -1.
    5000001    1    1    2    0    0 -0.65835249379E+02 -0.32541063587E+02  0.25877823944E+03  0.27980060416E+03  0.77000000000E+02 0.  0.
   -5000001    1    1    2    0    0  0.65835249379E+02  0.32541063587E+02  0.68161623393E+03  0.68987164838E+03  0.77000000000E+02 0.  0.
<mgrwt>
<rscale>  0 0.23647941E+03</rscale>
<asrwt>0</asrwt>
<pdfrwt beam="1">  1        2 0.14692816E+00 0.23647941E+03</pdfrwt>
<pdfrwt beam="2">  1       -2 0.22521377E-02 0.23647941E+03</pdfrwt>
<totfact> 0.17973201E+04</totfact>
</mgrwt>
</event>
<event>
 4    1  0.2489209E-004  0.3949305E+03  0.7818608E-02  0.1045549E+00
         -2   -1    0    0    0  501 -0.00000000000E+00  0.00000000000E+00  0.30230901619E+03  0.30230901621E+03  0.25500000000E-02 0. -1.
          2   -1    0    0  501    0  0.00000000000E+00 -0.00000000000E+00 -0.12898233999E+03  0.12898234001E+03  0.25500000000E-02 0.  1.
    5000001    1    1    2    0    0  0.13006426354E+03  0.12706927191E+03  0.86160746236E+02  0.21544369730E+03  0.77000000000E+02 0.  0.
   -5000001    1    1    2    0    0 -0.13006426354E+03 -0.12706927191E+03  0.87165929972E+02  0.21584765892E+03  0.77000000000E+02 0.  0.
<mgrwt>
<rscale>  0 0.39493050E+03</rscale>
<asrwt>0</asrwt>
<pdfrwt beam="1">  1        2 0.19843437E-01 0.39493050E+03</pdfrwt>
<pdfrwt beam="2">  1       -2 0.46509079E-01 0.39493050E+03</pdfrwt>
<totfact> 0.12523637E+03</totfact>
</mgrwt>
</event>
<event>
 4    1  0.2489209E-004  0.2401997E+03  0.7818608E-02  0.1119660E+00
         -2   -1    0    0    0  501 -0.00000000000E+00  0.00000000000E+00  0.75302739497E+02  0.75302739540E+02  0.25500000000E-02 0. -1.
          2   -1    0    0  501    0  0.00000000000E+00 -0.00000000000E+00 -0.19154650499E+03  0.19154650500E+03  0.25500000000E-02 0.  1.
    5000001    1    1    2    0    0 -0.51585522880E+02  0.34049965011E+02 -0.13407778688E+03  0.16651221944E+03  0.77000000000E+02 0.  0.
   -5000001    1    1    2    0    0  0.51585522880E+02 -0.34049965011E+02  0.17834021390E+02  0.10033702511E+03  0.77000000000E+02 0.  0.
<mgrwt>
<rscale>  0 0.24019972E+03</rscale>
<asrwt>0</asrwt>
<pdfrwt beam="1">  1        2 0.29468693E-01 0.24019972E+03</pdfrwt>
<pdfrwt beam="2">  1       -2 0.11585037E-01 0.24019972E+03</pdfrwt>
<totfact> 0.92021414E+03</totfact>
</mgrwt>
</event>
<event>
 4    1  0.2489209E-004  0.2163493E+03  0.7818608E-02  0.1136634E+00
          2   -1    0    0  501    0  0.00000000000E+00  0.00000000000E+00  0.78524776898E+02  0.78524776939E+02  0.25500000000E-02 0.  1.
         -2   -1    0    0    0  501 -0.00000000000E+00 -0.00000000000E+00 -0.14901995918E+03  0.14901995920E+03  0.25500000000E-02 0. -1.
    5000001    1    1    2    0    0  0.74793827214E+02  0.13347326165E+02 -0.34510355005E+02  0.11354396641E+03  0.77000000000E+02 0.  0.
   -5000001    1    1    2    0    0 -0.74793827214E+02 -0.13347326165E+02 -0.35984827273E+02  0.11400076973E+03  0.77000000000E+02 0.  0.
<mgrwt>
<rscale>  0 0.21634934E+03</rscale>
<asrwt>0</asrwt>
<pdfrwt beam="1">  1        2 0.12080735E-01 0.21634934E+03</pdfrwt>
<pdfrwt beam="2">  1       -2 0.22926148E-01 0.21634934E+03</pdfrwt>
<totfact> 0.81929258E+03</totfact>
</mgrwt>
</event>
<event>
 4    1  0.2489209E-004  0.2056338E+03  0.7818608E-02  0.1145071E+00
         -2   -1    0    0    0  501 -0.00000000000E+00  0.00000000000E+00  0.16506666011E+03  0.16506666013E+03  0.25500000000E-02 0. -1.
          2   -1    0    0  501    0  0.00000000000E+00 -0.00000000000E+00 -0.64042732541E+02  0.64042732592E+02  0.25500000000E-02 0.  1.
    5000001    1    1    2    0    0 -0.35414000764E+02 -0.40915840625E+02  0.96639644315E+02  0.13489432278E+03  0.77000000000E+02 0.  0.
   -5000001    1    1    2    0    0  0.35414000764E+02  0.40915840625E+02  0.43842832493E+01  0.94215069940E+02  0.77000000000E+02 0.  0.
<mgrwt>
<rscale>  0 0.20563385E+03</rscale>
<asrwt>0</asrwt>
<pdfrwt beam="1">  1        2 0.98527281E-02 0.20563385E+03</pdfrwt>
<pdfrwt beam="2">  1       -2 0.25394871E-01 0.20563385E+03</pdfrwt>
<totfact> 0.87684823E+03</totfact>
</mgrwt>
</event>
<event>
 4    1  0.2489209E-004  0.1905603E+03  0.7818608E-02  0.1157957E+00
         -2   -1    0    0    0  501 -0.00000000000E+00  0.00000000000E+00  0.67374332105E+01  0.67374336931E+01  0.25500000000E-02 0. -1.
          2   -1    0    0  501    0  0.00000000000E+00 -0.00000000000E+00 -0.13474424891E+04  0.13474424891E+04  0.25500000000E-02 0.  1.
    5000001    1    1    2    0    0  0.66199563328E+01 -0.37510048176E+02 -0.37748326685E+03  0.38713491742E+03  0.77000000000E+02 0.  0.
   -5000001    1    1    2    0    0 -0.66199563328E+01  0.37510048176E+02 -0.96322178900E+03  0.96704500534E+03  0.77000000000E+02 0.  0.
<mgrwt>
<rscale>  0 0.19056027E+03</rscale>
<asrwt>0</asrwt>
<pdfrwt beam="1">  1        2 0.20729863E+00 0.19056027E+03</pdfrwt>
<pdfrwt beam="2">  1       -2 0.10365293E-02 0.19056027E+03</pdfrwt>
<totfact> 0.32672179E+04</totfact>
</mgrwt>
</event>
<event>
 4    1  0.2489209E-004  0.2082411E+03  0.7818608E-02  0.1142966E+00
          2   -1    0    0  501    0  0.00000000000E+00  0.00000000000E+00  0.71559730450E+03  0.71559730451E+03  0.25500000000E-02 0.  1.
         -2   -1    0    0    0  501 -0.00000000000E+00 -0.00000000000E+00 -0.15149711272E+02  0.15149711486E+02  0.25500000000E-02 0. -1.
    5000001    1    1    2    0    0  0.10814563040E+02 -0.67527805240E+02  0.40403313682E+03  0.41695171771E+03  0.77000000000E+02 0.  0.
   -5000001    1    1    2    0    0 -0.10814563040E+02  0.67527805240E+02  0.29641445641E+03  0.31379529828E+03  0.77000000000E+02 0.  0.
<mgrwt>
<rscale>  0 0.20824114E+03</rscale>
<asrwt>0</asrwt>
<pdfrwt beam="1">  1        2 0.11009190E+00 0.20824114E+03</pdfrwt>
<pdfrwt beam="2">  1       -2 0.23307247E-02 0.20824114E+03</pdfrwt>
<totfact> 0.24580652E+04</totfact>
</mgrwt>
</event>
<event>
 4    1  0.2489209E-004  0.2886325E+03  0.7818608E-02  0.1091065E+00
         -2   -1    0    0    0  501 -0.00000000000E+00  0.00000000000E+00  0.13021059483E+03  0.13021059486E+03  0.25500000000E-02 0. -1.
          2   -1    0    0  501    0  0.00000000000E+00 -0.00000000000E+00 -0.15994995202E+03  0.15994995204E+03  0.25500000000E-02 0.  1.
    5000001    1    1    2    0    0 -0.11749771090E+03 -0.18004458264E+02 -0.42734753061E+02  0.14793624202E+03  0.77000000000E+02 0.  0.
   -5000001    1    1    2    0    0  0.11749771090E+03  0.18004458264E+02  0.12995395871E+02  0.14222430488E+03  0.77000000000E+02 0.  0.
<mgrwt>
<rscale>  0 0.28863249E+03</rscale>
<asrwt>0</asrwt>
<pdfrwt beam="1">  1        2 0.24607685E-01 0.28863249E+03</pdfrwt>
<pdfrwt beam="2">  1       -2 0.20032399E-01 0.28863249E+03</pdfrwt>
<totfact> 0.45713441E+03</totfact>
</mgrwt>
</event>
<event>
 4    1  0.2489209E-004  0.1990774E+03  0.7818608E-02  0.1150520E+00
          2   -1    0    0  501    0  0.00000000000E+00  0.00000000000E+00  0.15220772755E+03  0.15220772758E+03  0.25500000000E-02 0.  1.
         -2   -1    0    0    0  501 -0.00000000000E+00 -0.00000000000E+00 -0.65094926560E+02  0.65094926610E+02  0.25500000000E-02 0. -1.
    5000001    1    1    2    0    0  0.62993138061E+02  0.32473393863E+01  0.42989006325E+02  0.10842386878E+03  0.77000000000E+02 0.  0.
   -5000001    1    1    2    0    0 -0.62993138061E+02 -0.32473393863E+01  0.44123794669E+02  0.10887878541E+03  0.77000000000E+02 0.  0.
<mgrwt>
<rscale>  0 0.19907738E+03</rscale>
<asrwt>0</asrwt>
<pdfrwt beam="1">  1        2 0.23416573E-01 0.19907738E+03</pdfrwt>
<pdfrwt beam="2">  1       -2 0.10014604E-01 0.19907738E+03</pdfrwt>
<totfact> 0.14803914E+04</totfact>
</mgrwt>
</event>
<event>
 4    1  0.2489209E-004  0.2621814E+03  0.7818608E-02  0.1105840E+00
         -2   -1    0    0    0  501 -0.00000000000E+00  0.00000000000E+00  0.14335592890E+03  0.14335592893E+03  0.25500000000E-02 0. -1.
          2   -1    0    0  501    0  0.00000000000E+00 -0.00000000000E+00 -0.11987488225E+03  0.11987488228E+03  0.25500000000E-02 0.  1.
    5000001    1    1    2    0    0  0.43536194276E+02 -0.93692260313E+02  0.35964573015E+02  0.13377626982E+03  0.77000000000E+02 0.  0.
   -5000001    1    1    2    0    0 -0.43536194276E+02  0.93692260313E+02 -0.12483526363E+02  0.12945454138E+03  0.77000000000E+02 0.  0.
<mgrwt>
<rscale>  0 0.26218143E+03</rscale>
<asrwt>0</asrwt>
<pdfrwt beam="1">  1        2 0.18442290E-01 0.26218143E+03</pdfrwt>
<pdfrwt beam="2">  1       -2 0.22054758E-01 0.26218143E+03</pdfrwt>
<totfact> 0.53597156E+03</totfact>
</mgrwt>
</event>
<event>
 4    1  0.2489209E-004  0.2591409E+03  0.7818608E-02  0.1107660E+00
         -2   -1    0    0    0  501 -0.00000000000E+00  0.00000000000E+00  0.80890397714E+01  0.80890401733E+01  0.25500000000E-02 0. -1.
          2   -1    0    0  501    0  0.00000000000E+00 -0.00000000000E+00 -0.20754630410E+04  0.20754630410E+04  0.25500000000E-02 0.  1.
    5000001    1    1    2    0    0  0.43820260346E+02  0.59351785884E+02 -0.44194293444E+03  0.45462666772E+03  0.77000000000E+02 0.  0.
   -5000001    1    1    2    0    0 -0.43820260346E+02 -0.59351785884E+02 -0.16254310668E+04  0.16289254134E+04  0.77000000000E+02 0.  0.
<mgrwt>
<rscale>  0 0.25914092E+03</rscale>
<asrwt>0</asrwt>
<pdfrwt beam="1">  1        2 0.31930158E+00 0.25914092E+03</pdfrwt>
<pdfrwt beam="2">  1       -2 0.12444693E-02 0.25914092E+03</pdfrwt>
<totfact> 0.10498995E+04</totfact>
</mgrwt>
</event>
<event>
 4    1  0.2489209E-004  0.1727300E+03  0.7818608E-02  0.1175030E+00
          2   -1    0    0  501    0  0.00000000000E+00  0.00000000000E+00  0.33605262224E+03  0.33605262225E+03  0.25500000000E-02 0.  1.
         -2   -1    0    0    0  501 -0.00000000000E+00 -0.00000000000E+00 -0.22195658333E+02  0.22195658480E+02  0.25500000000E-02 0. -1.
    5000001    1    1    2    0    0 -0.80764102103E+01 -0.36737009621E+02  0.17917710074E+03  0.19861588483E+03  0.77000000000E+02 0.  0.
   -5000001    1    1    2    0    0  0.80764102103E+01  0.36737009621E+02  0.13467986317E+03  0.15963239590E+03  0.77000000000E+02 0.  0.
<mgrwt>
<rscale>  0 0.17272995E+03</rscale>
<asrwt>0</asrwt>
<pdfrwt beam="1">  1        2 0.51700396E-01 0.17272995E+03</pdfrwt>
<pdfrwt beam="2">  1       -2 0.34147172E-02 0.17272995E+03</pdfrwt>
<totfact> 0.32047095E+04</totfact>
</mgrwt>
</event>
<event>
 4    1  0.2489209E-004  0.4538506E+03  0.7818608E-02  0.1026580E+00
         -2   -1    0    0    0  501 -0.00000000000E+00  0.00000000000E+00  0.37183810218E+03  0.37183810219E+03  0.25500000000E-02 0. -1.
          2   -1    0    0  501    0  0.00000000000E+00 -0.00000000000E+00 -0.13848793159E+03  0.13848793161E+03  0.25500000000E-02 0.  1.
    5000001    1    1    2    0    0  0.10413646612E+03 -0.17599962307E+03  0.18549406028E+03  0.28663097756E+03  0.77000000000E+02 0.  0.
   -5000001    1    1    2    0    0 -0.10413646612E+03  0.17599962307E+03  0.47856110314E+02  0.22369505625E+03  0.77000000000E+02 0.  0.
<mgrwt>
<rscale>  0 0.45385059E+03</rscale>
<asrwt>0</asrwt>
<pdfrwt beam="1">  1        2 0.21305836E-01 0.45385059E+03</pdfrwt>
<pdfrwt beam="2">  1       -2 0.57205862E-01 0.45385059E+03</pdfrwt>
<totfact> 0.75875349E+02</totfact>
</mgrwt>
</event>
<event>
 4    1  0.2489209E-004  0.2197509E+03  0.7818608E-02  0.1134069E+00
          2   -1    0    0  501    0  0.00000000000E+00  0.00000000000E+00  0.44556803670E+03  0.44556803671E+03  0.25500000000E-02 0.  1.
         -2   -1    0    0    0  501 -0.00000000000E+00 -0.00000000000E+00 -0.27094879380E+02  0.27094879500E+02  0.25500000000E-02 0. -1.
    5000001    1    1    2    0    0 -0.49869231285E+02  0.56907238894E+02  0.25322442940E+03  0.27527619896E+03  0.77000000000E+02 0.  0.
   -5000001    1    1    2    0    0  0.49869231285E+02 -0.56907238894E+02  0.16524872792E+03  0.19738671725E+03  0.77000000000E+02 0.  0.
<mgrwt>
<rscale>  0 0.21975088E+03</rscale>
<asrwt>0</asrwt>
<pdfrwt beam="1">  1        2 0.68548930E-01 0.21975088E+03</pdfrwt>
<pdfrwt beam="2">  1       -2 0.41684429E-02 0.21975088E+03</pdfrwt>
<totfact> 0.17886764E+04</totfact>
</mgrwt>
</event>
<event>
 4    1  0.2489209E-004  0.2569500E+03  0.7818608E-02  0.1108990E+00
         -2   -1    0    0    0  501 -0.00000000000E+00  0.00000000000E+00  0.13641724645E+02  0.13641724883E+02  0.25500000000E-02 0. -1.
          2   -1    0    0  501    0  0.00000000000E+00 -0.00000000000E+00 -0.12099517673E+04  0.12099517673E+04  0.25500000000E-02 0.  1.
    5000001    1    1    2    0    0  0.94824236270E+01  0.10008208623E+02 -0.10834751431E+04  0.10862952943E+04  0.77000000000E+02 0.  0.
   -5000001    1    1    2    0    0 -0.94824236270E+01 -0.10008208623E+02 -0.11283489954E+03  0.13729819792E+03  0.77000000000E+02 0.  0.
<mgrwt>
<rscale>  0 0.25695003E+03</rscale>
<asrwt>0</asrwt>
<pdfrwt beam="1">  1        2 0.18614634E+00 0.25695003E+03</pdfrwt>
<pdfrwt beam="2">  1       -2 0.20987278E-02 0.25695003E+03</pdfrwt>
<totfact> 0.14143227E+04</totfact>
</mgrwt>
</event>
<event>
 4    1  0.2489209E-004  0.2570298E+03  0.7818608E-02  0.1108941E+00
          2   -1    0    0  501    0  0.00000000000E+00  0.00000000000E+00  0.68224733386E+02  0.68224733433E+02  0.25500000000E-02 0.  1.
         -2   -1    0    0    0  501 -0.00000000000E+00 -0.00000000000E+00 -0.24208342441E+03  0.24208342442E+03  0.25500000000E-02 0. -1.
    5000001    1    1    2    0    0 -0.78094616056E+02 -0.66718298041E+02 -0.79588026546E+02  0.15104090280E+03  0.77000000000E+02 0.  0.
   -5000001    1    1    2    0    0  0.78094616056E+02  0.66718298041E+02 -0.94270664476E+02  0.15926725505E+03  0.77000000000E+02 0.  0.
<mgrwt>
<rscale>  0 0.25702978E+03</rscale>
<asrwt>0</asrwt>
<pdfrwt beam="1">  1        2 0.10496113E-01 0.25702978E+03</pdfrwt>
<pdfrwt beam="2">  1       -2 0.37243603E-01 0.25702978E+03</pdfrwt>
<totfact> 0.40835692E+03</totfact>
</mgrwt>
</event>
<event>
 4    1  0.2489209E-004  0.3294535E+03  0.7818608E-02  0.1071379E+00
         -2   -1    0    0    0  501 -0.00000000000E+00  0.00000000000E+00  0.24265412856E+02  0.24265412990E+02  0.25500000000E-02 0. -1.
          2   -1    0    0  501    0  0.00000000000E+00 -0.00000000000E+00 -0.11182543713E+04  0.11182543713E+04  0.25500000000E-02 0.  1.
    5000001    1    1    2    0    0 -0.15819756733E+02 -0.12050427120E+03 -0.82517214975E+03  0.83762140661E+03  0.77000000000E+02 0.  0.
   -5000001    1    1    2    0    0  0.15819756733E+02  0.12050427120E+03 -0.26881680872E+03  0.30489837772E+03  0.77000000000E+02 0.  0.
<mgrwt>
<rscale>  0 0.32945351E+03</rscale>
<asrwt>0</asrwt>
<pdfrwt beam="1">  1        2 0.17203909E+00 0.32945351E+03</pdfrwt>
<pdfrwt beam="2">  1       -2 0.37331413E-02 0.32945351E+03</pdfrwt>
<totfact> 0.68203362E+03</totfact>
</mgrwt>
</event>
<event>
 4    1  0.2489209E-004  0.2532448E+03  0.7818608E-02  0.1111271E+00
          2   -1    0    0  501    0  0.00000000000E+00  0.00000000000E+00  0.34151033287E+02  0.34151033382E+02  0.25500000000E-02 0.  1.
         -2   -1    0    0    0  501 -0.00000000000E+00 -0.00000000000E+00 -0.46948006516E+03  0.46948006517E+03  0.25500000000E-02 0. -1.
    5000001    1    1    2    0    0  0.56696183097E+02 -0.59183967001E+02 -0.10192502242E+03  0.15177255787E+03  0.77000000000E+02 0.  0.
   -5000001    1    1    2    0    0 -0.56696183097E+02  0.59183967001E+02 -0.33340400946E+03  0.35185854068E+03  0.77000000000E+02 0.  0.
<mgrwt>
<rscale>  0 0.25324478E+03</rscale>
<asrwt>0</asrwt>
<pdfrwt beam="1">  1        2 0.52540055E-02 0.25324478E+03</pdfrwt>
<pdfrwt beam="2">  1       -2 0.72227698E-01 0.25324478E+03</pdfrwt>
<totfact> 0.26067924E+03</totfact>
</mgrwt>
</event>
<event>
 4    1  0.2489209E-004  0.1871775E+03  0.7818608E-02  0.1161032E+00
          2   -1    0    0  501    0  0.00000000000E+00  0.00000000000E+00  0.56586280965E+02  0.56586281022E+02  0.25500000000E-02 0.  1.
         -2   -1    0    0    0  501 -0.00000000000E+00 -0.00000000000E+00 -0.15478760778E+03  0.15478760780E+03  0.25500000000E-02 0. -1.
    5000001    1    1    2    0    0 -0.43298318090E+02  0.28771446001E+02 -0.36358686711E+02  0.99767201794E+02  0.77000000000E+02 0.  0.
   -5000001    1    1    2    0    0  0.43298318090E+02 -0.28771446001E+02 -0.61842640102E+02  0.11160668703E+03  0.77000000000E+02 0.  0.
<mgrwt>
<rscale>  0 0.18717751E+03</rscale>
<asrwt>0</asrwt>
<pdfrwt beam="1">  1        2 0.87055818E-02 0.18717751E+03</pdfrwt>
<pdfrwt beam="2">  1       -2 0.23813478E-01 0.18717751E+03</pdfrwt>
<totfact> 0.11377253E+04</totfact>
</mgrwt>
</event>
<event>
 4    1  0.2489209E-004  0.2624700E+03  0.7818608E-02  0.1105668E+00
         -2   -1    0    0    0  501 -0.00000000000E+00  0.00000000000E+00  0.83423501226E+03  0.83423501226E+03  0.25500000000E-02 0. -1.
          2   -1    0    0  501    0  0.00000000000E+00 -0.00000000000E+00 -0.20644814007E+02  0.20644814164E+02  0.25500000000E-02 0.  1.
    5000001    1    1    2    0    0 -0.42995756252E+02  0.97184600581E+02  0.40555446754E+03  0.42625920258E+03  0.77000000000E+02 0.  0.
   -5000001    1    1    2    0    0  0.42995756252E+02 -0.97184600581E+02  0.40803573071E+03  0.42862062385E+03  0.77000000000E+02 0.  0.
<mgrwt>
<rscale>  0 0.26247001E+03</rscale>
<asrwt>0</asrwt>
<pdfrwt beam="1">  1        2 0.31761249E-02 0.26247001E+03</pdfrwt>
<pdfrwt beam="2">  1       -2 0.12834386E+00 0.26247001E+03</pdfrwt>
<totfact> 0.13614623E+03</totfact>
</mgrwt>
</event>
<event>
 4    1  0.2489209E-004  0.4236714E+03  0.7818608E-02  0.1035878E+00
          2   -1    0    0  501    0  0.00000000000E+00  0.00000000000E+00  0.58593537496E+03  0.58593537497E+03  0.25500000000E-02 0.  1.
         -2   -1    0    0    0  501 -0.00000000000E+00 -0.00000000000E+00 -0.76585848330E+02  0.76585848372E+02  0.25500000000E-02 0. -1.
    5000001    1    1    2    0    0 -0.12399765836E+03  0.85914528459E+02  0.45363933701E+03  0.48422553997E+03  0.77000000000E+02 0.  0.
   -5000001    1    1    2    0    0  0.12399765836E+03 -0.85914528459E+02  0.55710189625E+02  0.17829568337E+03  0.77000000000E+02 0.  0.
<mgrwt>
<rscale>  0 0.42367137E+03</rscale>
<asrwt>0</asrwt>
<pdfrwt beam="1">  1        2 0.90143905E-01 0.42367137E+03</pdfrwt>
<pdfrwt beam="2">  1       -2 0.11782438E-01 0.42367137E+03</pdfrwt>
<totfact> 0.26578179E+03</totfact>
</mgrwt>
</event>
<event>
 4    1  0.2489209E-004  0.2240612E+03  0.7818608E-02  0.1130891E+00
         -2   -1    0    0    0  501 -0.00000000000E+00  0.00000000000E+00  0.69871965458E+03  0.69871965459E+03  0.25500000000E-02 0. -1.
          2   -1    0    0  501    0  0.00000000000E+00 -0.00000000000E+00 -0.17962643271E+02  0.17962643452E+02  0.25500000000E-02 0.  1.
    5000001    1    1    2    0    0 -0.58022273768E+01  0.78678934957E+02  0.40417526911E+03  0.41893995847E+03  0.77000000000E+02 0.  0.
   -5000001    1    1    2    0    0  0.58022273768E+01 -0.78678934957E+02  0.27658174220E+03  0.29774233956E+03  0.77000000000E+02 0.  0.
<mgrwt>
<rscale>  0 0.22406117E+03</rscale>
<asrwt>0</asrwt>
<pdfrwt beam="1">  1        2 0.27634833E-02 0.22406117E+03</pdfrwt>
<pdfrwt beam="2">  1       -2 0.10749534E+00 0.22406117E+03</pdfrwt>
<totfact> 0.25060939E+03</totfact>
</mgrwt>
</event>
<event>
 4    1  0.2489209E-004  0.2299448E+03  0.7818608E-02  0.1126679E+00
         -2   -1    0    0    0  501 -0.00000000000E+00  0.00000000000E+00  0.89101445636E+02  0.89101445672E+02  0.25500000000E-02 0. -1.
          2   -1    0    0  501    0  0.00000000000E+00 -0.00000000000E+00 -0.14835511464E+03  0.14835511466E+03  0.25500000000E-02 0.  1.
    5000001    1    1    2    0    0  0.40675808575E+02 -0.62270531438E+02 -0.72919071065E+02  0.12953119861E+03  0.77000000000E+02 0.  0.
   -5000001    1    1    2    0    0 -0.40675808575E+02  0.62270531438E+02  0.13665402064E+02  0.10792536172E+03  0.77000000000E+02 0.  0.
<mgrwt>
<rscale>  0 0.22994482E+03</rscale>
<asrwt>0</asrwt>
<pdfrwt beam="1">  1        2 0.22823864E-01 0.22994482E+03</pdfrwt>
<pdfrwt beam="2">  1       -2 0.13707915E-01 0.22994482E+03</pdfrwt>
<totfact> 0.92861098E+03</totfact>
</mgrwt>
</event>
<event>
 4    1  0.2489209E-004  0.2259251E+03  0.7818608E-02  0.1129541E+00
          2   -1    0    0  501    0  0.00000000000E+00  0.00000000000E+00  0.26428443268E+02  0.26428443391E+02  0.25500000000E-02 0.  1.
         -2   -1    0    0    0  501 -0.00000000000E+00 -0.00000000000E+00 -0.48283337095E+03  0.48283337095E+03  0.25500000000E-02 0. -1.
    5000001    1    1    2    0    0  0.74323552264E+02  0.36128795207E+02 -0.23158673596E+03  0.25766392169E+03  0.77000000000E+02 0.  0.
   -5000001    1    1    2    0    0 -0.74323552264E+02 -0.36128795207E+02 -0.22481819172E+03  0.25159789266E+03  0.77000000000E+02 0.  0.
<mgrwt>
<rscale>  0 0.22592507E+03</rscale>
<asrwt>0</asrwt>
<pdfrwt beam="1">  1        2 0.40659147E-02 0.22592507E+03</pdfrwt>
<pdfrwt beam="2">  1       -2 0.74282051E-01 0.22592507E+03</pdfrwt>
<totfact> 0.34302881E+03</totfact>
</mgrwt>
</event>
<event>
 4    1  0.2489209E-004  0.1567427E+03  0.7818608E-02  0.1192424E+00
          2   -1    0    0  501    0  0.00000000000E+00  0.00000000000E+00  0.47725801287E+03  0.47725801287E+03  0.25500000000E-02 0.  1.
         -2   -1    0    0    0  501 -0.00000000000E+00 -0.00000000000E+00 -0.12869486234E+02  0.12869486486E+02  0.25500000000E-02 0. -1.
    5000001    1    1    2    0    0 -0.11063055029E+02  0.56108183410E+01  0.20813639707E+03  0.22226927870E+03  0.77000000000E+02 0.  0.
   -5000001    1    1    2    0    0  0.11063055029E+02 -0.56108183410E+01  0.25625212956E+03  0.26785822066E+03  0.77000000000E+02 0.  0.
<mgrwt>
<rscale>  0 0.15674266E+03</rscale>
<asrwt>0</asrwt>
<pdfrwt beam="1">  1        2 0.73424294E-01 0.15674266E+03</pdfrwt>
<pdfrwt beam="2">  1       -2 0.19799214E-02 0.15674266E+03</pdfrwt>
<totfact> 0.48447815E+04</totfact>
</mgrwt>
</event>
<event>
 4    1  0.2489209E-004  0.2432702E+03  0.7818608E-02  0.1117633E+00
          2   -1    0    0  501    0  0.00000000000E+00  0.00000000000E+00  0.87299279006E+03  0.87299279007E+03  0.25500000000E-02 0.  1.
         -2   -1    0    0    0  501 -0.00000000000E+00 -0.00000000000E+00 -0.16947555283E+02  0.16947555475E+02  0.25500000000E-02 0. -1.
    5000001    1    1    2    0    0  0.25477333899E+02  0.73602161365E+02  0.62158876874E+03  0.63116398037E+03  0.77000000000E+02 0.  0.
   -5000001    1    1    2    0    0 -0.25477333899E+02 -0.73602161365E+02  0.23445646604E+03  0.25877636517E+03  0.77000000000E+02 0.  0.
<mgrwt>
<rscale>  0 0.24327017E+03</rscale>
<asrwt>0</asrwt>
<pdfrwt beam="1">  1        2 0.13430656E+00 0.24327017E+03</pdfrwt>
<pdfrwt beam="2">  1       -2 0.26073167E-02 0.24327017E+03</pdfrwt>
<totfact> 0.16359307E+04</totfact>
</mgrwt>
</event>
<event>
 4    1  0.2489209E-004  0.1947200E+03  0.7818608E-02  0.1154272E+00
          2   -1    0    0  501    0  0.00000000000E+00  0.00000000000E+00  0.14859774632E+04  0.14859774632E+04  0.25500000000E-02 0.  1.
         -2   -1    0    0    0  501 -0.00000000000E+00 -0.00000000000E+00 -0.63789447427E+01  0.63789452523E+01  0.25500000000E-02 0. -1.
    5000001    1    1    2    0    0  0.30144603632E+02 -0.43565140797E+01  0.34733279052E+03  0.35706686169E+03  0.77000000000E+02 0.  0.
   -5000001    1    1    2    0    0 -0.30144603632E+02  0.43565140797E+01  0.11322657279E+04  0.11352895468E+04  0.77000000000E+02 0.  0.
<mgrwt>
<rscale>  0 0.19471999E+03</rscale>
<asrwt>0</asrwt>
<pdfrwt beam="1">  1        2 0.22861189E+00 0.19471999E+03</pdfrwt>
<pdfrwt beam="2">  1       -2 0.98137629E-03 0.19471999E+03</pdfrwt>
<totfact> 0.29844665E+04</totfact>
</mgrwt>
</event>
<event>
 4    1  0.2489209E-004  0.1754090E+03  0.7818608E-02  0.1172322E+00
         -2   -1    0    0    0  501 -0.00000000000E+00  0.00000000000E+00  0.98293231792E+02  0.98293231825E+02  0.25500000000E-02 0. -1.
          2   -1    0    0  501    0  0.00000000000E+00 -0.00000000000E+00 -0.78256440288E+02  0.78256440329E+02  0.25500000000E-02 0.  1.
    5000001    1    1    2    0    0 -0.12889211301E+02 -0.14489382967E+02  0.47503091849E+02  0.92529010164E+02  0.77000000000E+02 0.  0.
   -5000001    1    1    2    0    0  0.12889211301E+02  0.14489382967E+02 -0.27466300345E+02  0.84020661990E+02  0.77000000000E+02 0.  0.
<mgrwt>
<rscale>  0 0.17540899E+03</rscale>
<asrwt>0</asrwt>
<pdfrwt beam="1">  1        2 0.12039452E-01 0.17540899E+03</pdfrwt>
<pdfrwt beam="2">  1       -2 0.15122036E-01 0.17540899E+03</pdfrwt>
<totfact> 0.16359744E+04</totfact>
</mgrwt>
</event>
