<event>
 4    1  0.4047984E-006  0.1089292E+04  0.7818608E-02  0.9215692E-01
          1   -1    0    0  501    0  0.00000000000E+00  0.00000000000E+00  0.74037435089E+03  0.74037435090E+03  0.50400000000E-02 0.  1.
         -1   -1    0    0    0  501 -0.00000000000E+00 -0.00000000000E+00 -0.40066111916E+03  0.40066111919E+03  0.50400000000E-02 0. -1.
   -5000001    1    1    2    0    0  0.45660706022E+03 -0.11392960325E+03  0.28776111848E+03  0.60562069255E+03  0.25000000000E+03 0.  0.
    5000001    1    1    2    0    0 -0.45660706022E+03  0.11392960325E+03  0.51952113256E+02  0.53541477754E+03  0.25000000000E+03 0.  0.
<mgrwt>
<rscale>  0 0.10892919E+04</rscale>
<asrwt>0</asrwt>
<pdfrwt beam="1">  1        1 0.11390375E+00 0.10892919E+04</pdfrwt>
<pdfrwt beam="2">  1       -1 0.61640172E-01 0.10892919E+04</pdfrwt>
<totfact> 0.66533854E+01</totfact>
</mgrwt>
</event>
<event>
 4    1  0.4047984E-006  0.5962635E+03  0.7818608E-02  0.9913189E-01
         -1   -1    0    0    0  501 -0.00000000000E+00  0.00000000000E+00  0.37196084516E+03  0.37196084519E+03  0.50400000000E-02 0.  1.
          1   -1    0    0  501    0  0.00000000000E+00 -0.00000000000E+00 -0.23895667490E+03  0.23895667496E+03  0.50400000000E-02 0. -1.
   -5000001    1    1    2    0    0  0.21824325824E+02 -0.15331906017E+03  0.11669055838E+03  0.31638540078E+03  0.25000000000E+03 0.  0.
    5000001    1    1    2    0    0 -0.21824325824E+02  0.15331906017E+03  0.16313611874E+02  0.29453211937E+03  0.25000000000E+03 0.  0.
<mgrwt>
<rscale>  0 0.59626345E+03</rscale>
<asrwt>0</asrwt>
<pdfrwt beam="1">  1        1 0.36762565E-01 0.59626345E+03</pdfrwt>
<pdfrwt beam="2">  1       -1 0.57224745E-01 0.59626345E+03</pdfrwt>
<totfact> 0.36968982E+02</totfact>
</mgrwt>
</event>
<event>
 4    1  0.4047984E-006  0.1854394E+04  0.7818608E-02  0.8677897E-01
         -1   -1    0    0    0  501 -0.00000000000E+00  0.00000000000E+00  0.13574598983E+04  0.13574598983E+04  0.50400000000E-02 0. -1.
          1   -1    0    0  501    0  0.00000000000E+00 -0.00000000000E+00 -0.63331068176E+03  0.63331068178E+03  0.50400000000E-02 0.  1.
   -5000001    1    1    2    0    0  0.81743097249E+03 -0.23779785892E+03  0.73108834449E+02  0.89027305821E+03  0.25000000000E+03 0.  0.
    5000001    1    1    2    0    0 -0.81743097249E+03  0.23779785892E+03  0.65104038205E+03  0.11004975218E+04  0.25000000000E+03 0.  0.
<mgrwt>
<rscale>  0 0.18543935E+04</rscale>
<asrwt>0</asrwt>
<pdfrwt beam="1">  1        1 0.97432414E-01 0.18543935E+04</pdfrwt>
<pdfrwt beam="2">  1       -1 0.20883998E+00 0.18543935E+04</pdfrwt>
<totfact> 0.38910708E+00</totfact>
</mgrwt>
</event>
<event>
 4    1  0.4047984E-006  0.1104798E+04  0.7818608E-02  0.9200528E-01
          1   -1    0    0  501    0  0.00000000000E+00  0.00000000000E+00  0.48567635676E+03  0.48567635678E+03  0.50400000000E-02 0. -1.
         -1   -1    0    0    0  501 -0.00000000000E+00 -0.00000000000E+00 -0.62828750359E+03  0.62828750361E+03  0.50400000000E-02 0.  1.
   -5000001    1    1    2    0    0  0.22719790379E+03  0.36356654340E+03 -0.31589783121E+03  0.58829495895E+03  0.25000000000E+03 0.  0.
    5000001    1    1    2    0    0 -0.22719790379E+03 -0.36356654340E+03  0.17328668437E+03  0.52566890145E+03  0.25000000000E+03 0.  0.
<mgrwt>
<rscale>  0 0.11047975E+04</rscale>
<asrwt>0</asrwt>
<pdfrwt beam="1">  1        1 0.74719439E-01 0.11047975E+04</pdfrwt>
<pdfrwt beam="2">  1       -1 0.96659617E-01 0.11047975E+04</pdfrwt>
<totfact> 0.47353545E+01</totfact>
</mgrwt>
</event>
<event>
 4    1  0.4047984E-006  0.1168354E+04  0.7818608E-02  0.9141016E-01
         -1   -1    0    0    0  501 -0.00000000000E+00  0.00000000000E+00  0.29224909697E+03  0.29224909702E+03  0.50400000000E-02 0. -1.
          1   -1    0    0  501    0  0.00000000000E+00 -0.00000000000E+00 -0.11677127809E+04  0.11677127809E+04  0.50400000000E-02 0.  1.
   -5000001    1    1    2    0    0 -0.31850857064E+03 -0.38218375611E+03 -0.65863299856E+03  0.86244394589E+03  0.25000000000E+03 0.  0.
    5000001    1    1    2    0    0  0.31850857064E+03  0.38218375611E+03 -0.21683068538E+03  0.59751793206E+03  0.25000000000E+03 0.  0.
<mgrwt>
<rscale>  0 0.11683544E+04</rscale>
<asrwt>0</asrwt>
<pdfrwt beam="1">  1        1 0.17964812E+00 0.11683544E+04</pdfrwt>
<pdfrwt beam="2">  1       -1 0.44961400E-01 0.11683544E+04</pdfrwt>
<totfact> 0.54889546E+01</totfact>
</mgrwt>
</event>
<event>
 4    1  0.4047984E-006  0.5580099E+03  0.7818608E-02  0.9996568E-01
         -1   -1    0    0    0  501 -0.00000000000E+00  0.00000000000E+00  0.52559726343E+02  0.52559726584E+02  0.50400000000E-02 0. -1.
          1   -1    0    0  501    0  0.00000000000E+00 -0.00000000000E+00 -0.14810533218E+04  0.14810533218E+04  0.50400000000E-02 0.  1.
   -5000001    1    1    2    0    0 -0.25289967852E+02  0.70484594179E+02 -0.98543222602E+03  0.10194039104E+04  0.25000000000E+03 0.  0.
    5000001    1    1    2    0    0  0.25289967852E+02 -0.70484594179E+02 -0.44306136942E+03  0.51420913796E+03  0.25000000000E+03 0.  0.
<mgrwt>
<rscale>  0 0.55800988E+03</rscale>
<asrwt>0</asrwt>
<pdfrwt beam="1">  1        1 0.22785433E+00 0.55800988E+03</pdfrwt>
<pdfrwt beam="2">  1       -1 0.80861129E-02 0.55800988E+03</pdfrwt>
<totfact> 0.61100035E+02</totfact>
</mgrwt>
</event>
<event>
 4    1  0.4047984E-006  0.8900289E+03  0.7818608E-02  0.9438132E-01
          1   -1    0    0  501    0  0.00000000000E+00  0.00000000000E+00  0.11025758936E+04  0.11025758936E+04  0.50400000000E-02 0. -1.
         -1   -1    0    0    0  501 -0.00000000000E+00 -0.00000000000E+00 -0.17961381413E+03  0.17961381420E+03  0.50400000000E-02 0.  1.
   -5000001    1    1    2    0    0  0.90815843697E+02 -0.35622587246E+03  0.49005728013E+03  0.66166496619E+03  0.25000000000E+03 0.  0.
    5000001    1    1    2    0    0 -0.90815843697E+02  0.35622587246E+03  0.43290479935E+03  0.62052474163E+03  0.25000000000E+03 0.  0.
<mgrwt>
<rscale>  0 0.89002890E+03</rscale>
<asrwt>0</asrwt>
<pdfrwt beam="1">  1        1 0.16962706E+00 0.89002890E+03</pdfrwt>
<pdfrwt beam="2">  1       -1 0.27632894E-01 0.89002890E+03</pdfrwt>
<totfact> 0.14970639E+02</totfact>
</mgrwt>
</event>
<event>
 4    1  0.4047984E-006  0.6254752E+03  0.7818608E-02  0.9853919E-01
          1   -1    0    0  501    0  0.00000000000E+00  0.00000000000E+00  0.12636502492E+03  0.12636502502E+03  0.50400000000E-02 0.  1.
         -1   -1    0    0    0  501 -0.00000000000E+00 -0.00000000000E+00 -0.77398639149E+03  0.77398639150E+03  0.50400000000E-02 0. -1.
   -5000001    1    1    2    0    0 -0.78638905417E+02  0.17060867305E+03 -0.31853882363E+03  0.44638366785E+03  0.25000000000E+03 0.  0.
    5000001    1    1    2    0    0  0.78638905417E+02 -0.17060867305E+03 -0.32908254294E+03  0.45396774867E+03  0.25000000000E+03 0.  0.
<mgrwt>
<rscale>  0 0.62547521E+03</rscale>
<asrwt>0</asrwt>
<pdfrwt beam="1">  1        1 0.19440774E-01 0.62547521E+03</pdfrwt>
<pdfrwt beam="2">  1       -1 0.11907483E+00 0.62547521E+03</pdfrwt>
<totfact> 0.17515509E+02</totfact>
</mgrwt>
</event>
<event>
 4    1  0.4047984E-006  0.7630265E+03  0.7818608E-02  0.9615133E-01
          1   -1    0    0  501    0  0.00000000000E+00  0.00000000000E+00  0.43752175750E+03  0.43752175753E+03  0.50400000000E-02 0. -1.
         -1   -1    0    0    0  501 -0.00000000000E+00 -0.00000000000E+00 -0.33267460336E+03  0.33267460340E+03  0.50400000000E-02 0.  1.
   -5000001    1    1    2    0    0 -0.28513869018E+03 -0.41397259433E+02  0.58358574420E+02  0.38590611415E+03  0.25000000000E+03 0.  0.
    5000001    1    1    2    0    0  0.28513869018E+03  0.41397259433E+02  0.46488579726E+02  0.38429024678E+03  0.25000000000E+03 0.  0.
<mgrwt>
<rscale>  0 0.76302655E+03</rscale>
<asrwt>0</asrwt>
<pdfrwt beam="1">  1        1 0.67311039E-01 0.76302655E+03</pdfrwt>
<pdfrwt beam="2">  1       -1 0.51180708E-01 0.76302655E+03</pdfrwt>
<totfact> 0.20677435E+02</totfact>
</mgrwt>
</event>
<event>
 4    1  0.4047984E-006  0.6151345E+03  0.7818608E-02  0.9874495E-01
         -1   -1    0    0    0  501 -0.00000000000E+00  0.00000000000E+00  0.36419072130E+02  0.36419072478E+02  0.50400000000E-02 0. -1.
          1   -1    0    0  501    0  0.00000000000E+00 -0.00000000000E+00 -0.25974748015E+04  0.25974748015E+04  0.50400000000E-02 0.  1.
   -5000001    1    1    2    0    0  0.38723520484E+02  0.17223183320E+03 -0.11496479462E+04  0.11896863938E+04  0.25000000000E+03 0.  0.
    5000001    1    1    2    0    0 -0.38723520484E+02 -0.17223183320E+03 -0.14114077831E+04  0.14442074802E+04  0.25000000000E+03 0.  0.
<mgrwt>
<rscale>  0 0.61513453E+03</rscale>
<asrwt>0</asrwt>
<pdfrwt beam="1">  1        1 0.39961136E+00 0.61513453E+03</pdfrwt>
<pdfrwt beam="2">  1       -1 0.56029362E-02 0.61513453E+03</pdfrwt>
<totfact> 0.19142911E+02</totfact>
</mgrwt>
</event>
<event>
 4    1  0.4047984E-006  0.7343396E+03  0.7818608E-02  0.9660245E-01
          1   -1    0    0  501    0  0.00000000000E+00  0.00000000000E+00  0.20885793768E+04  0.20885793768E+04  0.50400000000E-02 0.  1.
         -1   -1    0    0    0  501 -0.00000000000E+00 -0.00000000000E+00 -0.64548013357E+02  0.64548013554E+02  0.50400000000E-02 0. -1.
   -5000001    1    1    2    0    0  0.46225501801E+01  0.25583253387E+03  0.12545449836E+04  0.13045515586E+04  0.25000000000E+03 0.  0.
    5000001    1    1    2    0    0 -0.46225501801E+01 -0.25583253387E+03  0.76948637985E+03  0.84857583169E+03  0.25000000000E+03 0.  0.
<mgrwt>
<rscale>  0 0.73433957E+03</rscale>
<asrwt>0</asrwt>
<pdfrwt beam="1">  1        1 0.32131992E+00 0.73433957E+03</pdfrwt>
<pdfrwt beam="2">  1       -1 0.99304632E-02 0.73433957E+03</pdfrwt>
<totfact> 0.17098351E+02</totfact>
</mgrwt>
</event>
<event>
 4    1  0.4047984E-006  0.9011286E+03  0.7818608E-02  0.9424172E-01
          1   -1    0    0  501    0  0.00000000000E+00  0.00000000000E+00  0.73674703015E+03  0.73674703017E+03  0.50400000000E-02 0.  1.
         -1   -1    0    0    0  501 -0.00000000000E+00 -0.00000000000E+00 -0.27554668852E+03  0.27554668857E+03  0.50400000000E-02 0. -1.
   -5000001    1    1    2    0    0 -0.31021683126E+03 -0.92689857454E+02  0.18399747009E+02  0.40946848812E+03  0.25000000000E+03 0.  0.
    5000001    1    1    2    0    0  0.31021683126E+03  0.92689857454E+02  0.44280059463E+03  0.60282523062E+03  0.25000000000E+03 0.  0.
<mgrwt>
<rscale>  0 0.90112864E+03</rscale>
<asrwt>0</asrwt>
<pdfrwt beam="1">  1        1 0.11334569E+00 0.90112864E+03</pdfrwt>
<pdfrwt beam="2">  1       -1 0.42391800E-01 0.90112864E+03</pdfrwt>
<totfact> 0.13877187E+02</totfact>
</mgrwt>
</event>
<event>
 4    1  0.4047984E-006  0.1036726E+04  0.7818608E-02  0.9269157E-01
         -1   -1    0    0    0  501 -0.00000000000E+00  0.00000000000E+00  0.44357157307E+03  0.44357157310E+03  0.50400000000E-02 0.  1.
          1   -1    0    0  501    0  0.00000000000E+00 -0.00000000000E+00 -0.60576489624E+03  0.60576489626E+03  0.50400000000E-02 0. -1.
   -5000001    1    1    2    0    0 -0.28834561342E+03 -0.34672408007E+03 -0.27163350871E+02  0.51633189724E+03  0.25000000000E+03 0.  0.
    5000001    1    1    2    0    0  0.28834561342E+03  0.34672408007E+03 -0.13502997230E+03  0.53300457212E+03  0.25000000000E+03 0.  0.
<mgrwt>
<rscale>  0 0.10367258E+04</rscale>
<asrwt>0</asrwt>
<pdfrwt beam="1">  1        1 0.93194600E-01 0.10367258E+04</pdfrwt>
<pdfrwt beam="2">  1       -1 0.68241780E-01 0.10367258E+04</pdfrwt>
<totfact> 0.73483029E+01</totfact>
</mgrwt>
</event>
<event>
 4    1  0.4047984E-006  0.7387816E+03  0.7818608E-02  0.9653116E-01
          1   -1    0    0  501    0  0.00000000000E+00  0.00000000000E+00  0.40357341260E+04  0.40357341260E+04  0.50400000000E-02 0.  1.
         -1   -1    0    0    0  501 -0.00000000000E+00 -0.00000000000E+00 -0.33810344593E+02  0.33810344968E+02  0.50400000000E-02 0. -1.
   -5000001    1    1    2    0    0  0.12709753714E+03 -0.22581955720E+03  0.15466795199E+04  0.15880383476E+04  0.25000000000E+03 0.  0.
    5000001    1    1    2    0    0 -0.12709753714E+03  0.22581955720E+03  0.24552442616E+04  0.24815061234E+04  0.25000000000E+03 0.  0.
<mgrwt>
<rscale>  0 0.73878160E+03</rscale>
<asrwt>0</asrwt>
<pdfrwt beam="1">  1        1 0.62088263E+00 0.73878160E+03</pdfrwt>
<pdfrwt beam="2">  1       -1 0.52015877E-02 0.73878160E+03</pdfrwt>
<totfact> 0.17160754E+01</totfact>
</mgrwt>
</event>
<event>
 4    1  0.4047984E-006  0.8581768E+03  0.7818608E-02  0.9479428E-01
         -1   -1    0    0    0  501 -0.00000000000E+00  0.00000000000E+00  0.18699513788E+03  0.18699513795E+03  0.50400000000E-02 0. -1.
          1   -1    0    0  501    0  0.00000000000E+00 -0.00000000000E+00 -0.98460774600E+03  0.98460774601E+03  0.50400000000E-02 0.  1.
   -5000001    1    1    2    0    0 -0.19170544424E+03  0.24458578894E+03 -0.61485551837E+03  0.73288504827E+03  0.25000000000E+03 0.  0.
    5000001    1    1    2    0    0  0.19170544424E+03 -0.24458578894E+03 -0.18275708974E+03  0.43871783569E+03  0.25000000000E+03 0.  0.
<mgrwt>
<rscale>  0 0.85817681E+03</rscale>
<asrwt>0</asrwt>
<pdfrwt beam="1">  1        1 0.15147811E+00 0.85817681E+03</pdfrwt>
<pdfrwt beam="2">  1       -1 0.28768483E-01 0.85817681E+03</pdfrwt>
<totfact> 0.17219801E+02</totfact>
</mgrwt>
</event>
<event>
 4    1  0.4047984E-006  0.7567648E+03  0.7818608E-02  0.9624797E-01
         -1   -1    0    0    0  501 -0.00000000000E+00  0.00000000000E+00  0.39665451168E+03  0.39665451172E+03  0.50400000000E-02 0. -1.
          1   -1    0    0  501    0  0.00000000000E+00 -0.00000000000E+00 -0.36095196198E+03  0.36095196201E+03  0.50400000000E-02 0.  1.
   -5000001    1    1    2    0    0  0.24589204407E+02 -0.14807891017E+03 -0.22354184760E+03  0.36742747616E+03  0.25000000000E+03 0.  0.
    5000001    1    1    2    0    0 -0.24589204407E+02  0.14807891017E+03  0.25924439730E+03  0.39017899757E+03  0.25000000000E+03 0.  0.
<mgrwt>
<rscale>  0 0.75676476E+03</rscale>
<asrwt>0</asrwt>
<pdfrwt beam="1">  1        1 0.55531071E-01 0.75676476E+03</pdfrwt>
<pdfrwt beam="2">  1       -1 0.61023771E-01 0.75676476E+03</pdfrwt>
<totfact> 0.18977381E+02</totfact>
</mgrwt>
</event>
<event>
 4    1  0.4047984E-006  0.1019138E+04  0.7818608E-02  0.9287800E-01
          1   -1    0    0  501    0  0.00000000000E+00  0.00000000000E+00  0.75814082221E+03  0.75814082222E+03  0.50400000000E-02 0. -1.
         -1   -1    0    0    0  501 -0.00000000000E+00 -0.00000000000E+00 -0.34249644439E+03  0.34249644443E+03  0.50400000000E-02 0.  1.
   -5000001    1    1    2    0    0  0.30543394808E+03 -0.34585044483E+02  0.55387515124E+03  0.68100198612E+03  0.25000000000E+03 0.  0.
    5000001    1    1    2    0    0 -0.30543394808E+03  0.34585044483E+02 -0.13823077342E+03  0.41963528053E+03  0.25000000000E+03 0.  0.
<mgrwt>
<rscale>  0 0.10191379E+04</rscale>
<asrwt>0</asrwt>
<pdfrwt beam="1">  1        1 0.11663705E+00 0.10191379E+04</pdfrwt>
<pdfrwt beam="2">  1       -1 0.52691762E-01 0.10191379E+04</pdfrwt>
<totfact> 0.87531947E+01</totfact>
</mgrwt>
</event>
<event>
 4    1  0.4047984E-006  0.1025328E+04  0.7818608E-02  0.9281193E-01
         -1   -1    0    0    0  501 -0.00000000000E+00  0.00000000000E+00  0.64095966560E+03  0.64095966562E+03  0.50400000000E-02 0.  1.
          1   -1    0    0  501    0  0.00000000000E+00 -0.00000000000E+00 -0.41004844857E+03  0.41004844860E+03  0.50400000000E-02 0. -1.
   -5000001    1    1    2    0    0  0.31721723836E+03 -0.28884382054E+03 -0.15280846004E+02  0.49678066914E+03  0.25000000000E+03 0.  0.
    5000001    1    1    2    0    0 -0.31721723836E+03  0.28884382054E+03  0.24619206303E+03  0.55422744508E+03  0.25000000000E+03 0.  0.
<mgrwt>
<rscale>  0 0.10253283E+04</rscale>
<asrwt>0</asrwt>
<pdfrwt beam="1">  1        1 0.63084376E-01 0.10253283E+04</pdfrwt>
<pdfrwt beam="2">  1       -1 0.98609180E-01 0.10253283E+04</pdfrwt>
<totfact> 0.57214716E+01</totfact>
</mgrwt>
</event>
<event>
 4    1  0.4047984E-006  0.2086475E+04  0.7818608E-02  0.8567225E-01
          1   -1    0    0  501    0  0.00000000000E+00  0.00000000000E+00  0.24534865570E+04  0.24534865570E+04  0.50400000000E-02 0.  1.
         -1   -1    0    0    0  501 -0.00000000000E+00 -0.00000000000E+00 -0.44359116862E+03  0.44359116864E+03  0.50400000000E-02 0. -1.
   -5000001    1    1    2    0    0  0.57538610279E+03 -0.57749403549E+03  0.18395252194E+04  0.20275407668E+04  0.25000000000E+03 0.  0.
    5000001    1    1    2    0    0 -0.57538610279E+03  0.57749403549E+03  0.17037016900E+03  0.86953695884E+03  0.25000000000E+03 0.  0.
<mgrwt>
<rscale>  0 0.20864755E+04</rscale>
<asrwt>0</asrwt>
<pdfrwt beam="1">  1        1 0.37745947E+00 0.20864755E+04</pdfrwt>
<pdfrwt beam="2">  1       -1 0.68244795E-01 0.20864755E+04</pdfrwt>
<totfact> 0.29207643E+00</totfact>
</mgrwt>
</event>
<event>
 4    1  0.4047984E-006  0.6343202E+03  0.7818608E-02  0.9836654E-01
         -1   -1    0    0    0  501 -0.00000000000E+00  0.00000000000E+00  0.16468540335E+03  0.16468540342E+03  0.50400000000E-02 0. -1.
          1   -1    0    0  501    0  0.00000000000E+00 -0.00000000000E+00 -0.61080425114E+03  0.61080425116E+03  0.50400000000E-02 0.  1.
   -5000001    1    1    2    0    0  0.13226991669E+03  0.93052740141E+02 -0.89490896758E+02  0.31090635875E+03  0.25000000000E+03 0.  0.
    5000001    1    1    2    0    0 -0.13226991669E+03 -0.93052740141E+02 -0.35662795103E+03  0.46458329583E+03  0.25000000000E+03 0.  0.
<mgrwt>
<rscale>  0 0.63432025E+03</rscale>
<asrwt>0</asrwt>
<pdfrwt beam="1">  1        1 0.93969884E-01 0.63432025E+03</pdfrwt>
<pdfrwt beam="2">  1       -1 0.25336216E-01 0.63432025E+03</pdfrwt>
<totfact> 0.46167314E+02</totfact>
</mgrwt>
</event>
<event>
 4    1  0.4047984E-006  0.8692658E+03  0.7818608E-02  0.9464838E-01
         -1   -1    0    0    0  501 -0.00000000000E+00  0.00000000000E+00  0.49670232867E+03  0.49670232869E+03  0.50400000000E-02 0. -1.
          1   -1    0    0  501    0  0.00000000000E+00 -0.00000000000E+00 -0.38031986876E+03  0.38031986879E+03  0.50400000000E-02 0.  1.
   -5000001    1    1    2    0    0 -0.20036859128E+03 -0.26306005766E+03 -0.73578884817E+02  0.42102496197E+03  0.25000000000E+03 0.  0.
    5000001    1    1    2    0    0  0.20036859128E+03  0.26306005766E+03  0.18996134473E+03  0.45599723552E+03  0.25000000000E+03 0.  0.
<mgrwt>
<rscale>  0 0.86926582E+03</rscale>
<asrwt>0</asrwt>
<pdfrwt beam="1">  1        1 0.58510749E-01 0.86926582E+03</pdfrwt>
<pdfrwt beam="2">  1       -1 0.76415743E-01 0.86926582E+03</pdfrwt>
<totfact> 0.11139020E+02</totfact>
</mgrwt>
</event>
<event>
 4    1  0.4047984E-006  0.1025383E+04  0.7818608E-02  0.9281135E-01
         -1   -1    0    0    0  501 -0.00000000000E+00  0.00000000000E+00  0.20010478489E+03  0.20010478495E+03  0.50400000000E-02 0. -1.
          1   -1    0    0  501    0  0.00000000000E+00 -0.00000000000E+00 -0.13135755563E+04  0.13135755563E+04  0.50400000000E-02 0.  1.
   -5000001    1    1    2    0    0 -0.25181587416E+03 -0.33775845218E+03 -0.77993483786E+03  0.92102679538E+03  0.25000000000E+03 0.  0.
    5000001    1    1    2    0    0  0.25181587416E+03  0.33775845218E+03 -0.33353593358E+03  0.59265354592E+03  0.25000000000E+03 0.  0.
<mgrwt>
<rscale>  0 0.10253834E+04</rscale>
<asrwt>0</asrwt>
<pdfrwt beam="1">  1        1 0.20208854E+00 0.10253834E+04</pdfrwt>
<pdfrwt beam="2">  1       -1 0.30785352E-01 0.10253834E+04</pdfrwt>
<totfact> 0.86272542E+01</totfact>
</mgrwt>
</event>
<event>
 4    1  0.4047984E-006  0.1575679E+04  0.7818608E-02  0.8835630E-01
          1   -1    0    0  501    0  0.00000000000E+00  0.00000000000E+00  0.13177670501E+04  0.13177670501E+04  0.50400000000E-02 0.  1.
         -1   -1    0    0    0  501 -0.00000000000E+00 -0.00000000000E+00 -0.47101712585E+03  0.47101712588E+03  0.50400000000E-02 0. -1.
   -5000001    1    1    2    0    0 -0.38114416229E+03  0.64211373956E+03  0.45141168581E+03  0.90766372466E+03  0.25000000000E+03 0.  0.
    5000001    1    1    2    0    0  0.38114416229E+03 -0.64211373956E+03  0.39533823844E+03  0.88112045133E+03  0.25000000000E+03 0.  0.
<mgrwt>
<rscale>  0 0.15756787E+04</rscale>
<asrwt>0</asrwt>
<pdfrwt beam="1">  1        1 0.20273339E+00 0.15756787E+04</pdfrwt>
<pdfrwt beam="2">  1       -1 0.72464173E-01 0.15756787E+04</pdfrwt>
<totfact> 0.16224352E+01</totfact>
</mgrwt>
</event>
<event>
 4    1  0.4047984E-006  0.6514134E+03  0.7818608E-02  0.9804131E-01
          1   -1    0    0  501    0  0.00000000000E+00  0.00000000000E+00  0.10070775843E+04  0.10070775843E+04  0.50400000000E-02 0.  1.
         -1   -1    0    0    0  501 -0.00000000000E+00 -0.00000000000E+00 -0.10533931759E+03  0.10533931771E+03  0.50400000000E-02 0. -1.
   -5000001    1    1    2    0    0  0.83749375501E+02  0.18963584107E+03  0.40872133117E+03  0.52204294524E+03  0.25000000000E+03 0.  0.
    5000001    1    1    2    0    0 -0.83749375501E+02 -0.18963584107E+03  0.49301693553E+03  0.59037395677E+03  0.25000000000E+03 0.  0.
<mgrwt>
<rscale>  0 0.65141343E+03</rscale>
<asrwt>0</asrwt>
<pdfrwt beam="1">  1        1 0.15493502E+00 0.65141343E+03</pdfrwt>
<pdfrwt beam="2">  1       -1 0.16206048E-01 0.65141343E+03</pdfrwt>
<totfact> 0.43902264E+02</totfact>
</mgrwt>
</event>
<event>
 4    1  0.4047984E-006  0.7541098E+03  0.7818608E-02  0.9628925E-01
          1   -1    0    0  501    0  0.00000000000E+00  0.00000000000E+00  0.76391778982E+03  0.76391778984E+03  0.50400000000E-02 0.  1.
         -1   -1    0    0    0  501 -0.00000000000E+00 -0.00000000000E+00 -0.18610691455E+03  0.18610691462E+03  0.50400000000E-02 0. -1.
   -5000001    1    1    2    0    0 -0.75877767290E+02  0.27082118085E+03  0.25885895708E+03  0.45673789774E+03  0.25000000000E+03 0.  0.
    5000001    1    1    2    0    0  0.75877767290E+02 -0.27082118085E+03  0.31895191819E+03  0.49328680672E+03  0.25000000000E+03 0.  0.
<mgrwt>
<rscale>  0 0.75410976E+03</rscale>
<asrwt>0</asrwt>
<pdfrwt beam="1">  1        1 0.11752581E+00 0.75410976E+03</pdfrwt>
<pdfrwt beam="2">  1       -1 0.28631833E-01 0.75410976E+03</pdfrwt>
<totfact> 0.26630690E+02</totfact>
</mgrwt>
</event>
<event>
 4    1  0.4047984E-006  0.1159765E+04  0.7818608E-02  0.9148822E-01
          1   -1    0    0  501    0  0.00000000000E+00  0.00000000000E+00  0.11757625470E+04  0.11757625470E+04  0.50400000000E-02 0.  1.
         -1   -1    0    0    0  501 -0.00000000000E+00 -0.00000000000E+00 -0.28599618423E+03  0.28599618428E+03  0.50400000000E-02 0. -1.
   -5000001    1    1    2    0    0  0.41244157360E+03 -0.11006418784E+03  0.63541212256E+02  0.49875812047E+03  0.25000000000E+03 0.  0.
    5000001    1    1    2    0    0 -0.41244157360E+03  0.11006418784E+03  0.82622515046E+03  0.96300061077E+03  0.25000000000E+03 0.  0.
<mgrwt>
<rscale>  0 0.11597648E+04</rscale>
<asrwt>0</asrwt>
<pdfrwt beam="1">  1        1 0.18088654E+00 0.11597648E+04</pdfrwt>
<pdfrwt beam="2">  1       -1 0.43999414E-01 0.11597648E+04</pdfrwt>
<totfact> 0.56405783E+01</totfact>
</mgrwt>
</event>
<event>
 4    1  0.4047984E-006  0.8809878E+03  0.7818608E-02  0.9449665E-01
         -1   -1    0    0    0  501 -0.00000000000E+00  0.00000000000E+00  0.31041185619E+03  0.31041185623E+03  0.50400000000E-02 0. -1.
          1   -1    0    0  501    0  0.00000000000E+00 -0.00000000000E+00 -0.62508846502E+03  0.62508846504E+03  0.50400000000E-02 0.  1.
   -5000001    1    1    2    0    0  0.45182491722E+02  0.29835028005E+03 -0.37098545894E+03  0.53961519429E+03  0.25000000000E+03 0.  0.
    5000001    1    1    2    0    0 -0.45182491722E+02 -0.29835028005E+03  0.56308850120E+02  0.39588512698E+03  0.25000000000E+03 0.  0.
<mgrwt>
<rscale>  0 0.88098779E+03</rscale>
<asrwt>0</asrwt>
<pdfrwt beam="1">  1        1 0.96167456E-01 0.88098779E+03</pdfrwt>
<pdfrwt beam="2">  1       -1 0.47755670E-01 0.88098779E+03</pdfrwt>
<totfact> 0.14246721E+02</totfact>
</mgrwt>
</event>
<event>
 4    1  0.4047984E-006  0.7507847E+03  0.7818608E-02  0.9634120E-01
         -1   -1    0    0    0  501 -0.00000000000E+00  0.00000000000E+00  0.12590342454E+03  0.12590342465E+03  0.50400000000E-02 0. -1.
          1   -1    0    0  501    0  0.00000000000E+00 -0.00000000000E+00 -0.11192660133E+04  0.11192660133E+04  0.50400000000E-02 0.  1.
   -5000001    1    1    2    0    0  0.26843842947E+03  0.16718019835E+02 -0.62600891833E+03  0.72575880871E+03  0.25000000000E+03 0.  0.
    5000001    1    1    2    0    0 -0.26843842947E+03 -0.16718019835E+02 -0.36735367046E+03  0.51941062927E+03  0.25000000000E+03 0.  0.
<mgrwt>
<rscale>  0 0.75078472E+03</rscale>
<asrwt>0</asrwt>
<pdfrwt beam="1">  1        1 0.17219477E+00 0.75078472E+03</pdfrwt>
<pdfrwt beam="2">  1       -1 0.19369758E-01 0.75078472E+03</pdfrwt>
<totfact> 0.26787107E+02</totfact>
</mgrwt>
</event>
<event>
 4    1  0.4047984E-006  0.1277803E+04  0.7818608E-02  0.9047356E-01
          1   -1    0    0  501    0  0.00000000000E+00  0.00000000000E+00  0.15158123698E+04  0.15158123698E+04  0.50400000000E-02 0. -1.
         -1   -1    0    0    0  501 -0.00000000000E+00 -0.00000000000E+00 -0.26929114750E+03  0.26929114755E+03  0.50400000000E-02 0.  1.
   -5000001    1    1    2    0    0 -0.34119497498E+03 -0.36151397878E+03  0.10619051674E+04  0.11988531821E+04  0.25000000000E+03 0.  0.
    5000001    1    1    2    0    0  0.34119497498E+03  0.36151397878E+03  0.18461605490E+03  0.58625033521E+03  0.25000000000E+03 0.  0.
<mgrwt>
<rscale>  0 0.12778026E+04</rscale>
<asrwt>0</asrwt>
<pdfrwt beam="1">  1        1 0.23320191E+00 0.12778026E+04</pdfrwt>
<pdfrwt beam="2">  1       -1 0.41429406E-01 0.12778026E+04</pdfrwt>
<totfact> 0.35839446E+01</totfact>
</mgrwt>
</event>
<event>
 4    1  0.4047984E-006  0.8543866E+03  0.7818608E-02  0.9484468E-01
          1   -1    0    0  501    0  0.00000000000E+00  0.00000000000E+00  0.66770200223E+03  0.66770200225E+03  0.50400000000E-02 0.  1.
         -1   -1    0    0    0  501 -0.00000000000E+00 -0.00000000000E+00 -0.27331674078E+03  0.27331674083E+03  0.50400000000E-02 0. -1.
   -5000001    1    1    2    0    0  0.23475425990E+02 -0.33811700875E+03  0.11838364409E+03  0.43748016460E+03  0.25000000000E+03 0.  0.
    5000001    1    1    2    0    0 -0.23475425990E+02  0.33811700875E+03  0.27600161736E+03  0.50353857848E+03  0.25000000000E+03 0.  0.
<mgrwt>
<rscale>  0 0.85438665E+03</rscale>
<asrwt>0</asrwt>
<pdfrwt beam="1">  1        1 0.10272338E+00 0.85438665E+03</pdfrwt>
<pdfrwt beam="2">  1       -1 0.42048730E-01 0.85438665E+03</pdfrwt>
<totfact> 0.16400553E+02</totfact>
</mgrwt>
</event>
<event>
 4    1  0.4047984E-006  0.8067102E+03  0.7818608E-02  0.9550355E-01
          1   -1    0    0  501    0  0.00000000000E+00  0.00000000000E+00  0.10535649828E+04  0.10535649828E+04  0.50400000000E-02 0. -1.
         -1   -1    0    0    0  501 -0.00000000000E+00 -0.00000000000E+00 -0.15442361912E+03  0.15442361920E+03  0.50400000000E-02 0.  1.
   -5000001    1    1    2    0    0 -0.28892651244E+03 -0.50045256806E+02  0.62808657668E+03  0.73686891991E+03  0.25000000000E+03 0.  0.
    5000001    1    1    2    0    0  0.28892651244E+03  0.50045256806E+02  0.27105478702E+03  0.47111968213E+03  0.25000000000E+03 0.  0.
<mgrwt>
<rscale>  0 0.80671015E+03</rscale>
<asrwt>0</asrwt>
<pdfrwt beam="1">  1        1 0.16208692E+00 0.80671015E+03</pdfrwt>
<pdfrwt beam="2">  1       -1 0.23757479E-01 0.80671015E+03</pdfrwt>
<totfact> 0.21227044E+02</totfact>
</mgrwt>
</event>
<event>
 4    1  0.4047984E-006  0.6424312E+03  0.7818608E-02  0.9821086E-01
         -1   -1    0    0    0  501 -0.00000000000E+00  0.00000000000E+00  0.52051171163E+03  0.52051171165E+03  0.50400000000E-02 0. -1.
          1   -1    0    0  501    0  0.00000000000E+00 -0.00000000000E+00 -0.19822694650E+03  0.19822694656E+03  0.50400000000E-02 0.  1.
   -5000001    1    1    2    0    0  0.16126765579E+03  0.40635996089E+02  0.33479391161E+02  0.30212482621E+03  0.25000000000E+03 0.  0.
    5000001    1    1    2    0    0 -0.16126765579E+03 -0.40635996089E+02  0.28880537397E+03  0.41661383200E+03  0.25000000000E+03 0.  0.
<mgrwt>
<rscale>  0 0.64243116E+03</rscale>
<asrwt>0</asrwt>
<pdfrwt beam="1">  1        1 0.30496453E-01 0.64243116E+03</pdfrwt>
<pdfrwt beam="2">  1       -1 0.80078725E-01 0.64243116E+03</pdfrwt>
<totfact> 0.23792976E+02</totfact>
</mgrwt>
</event>
<event>
 4    1  0.4047984E-006  0.5867049E+03  0.7818608E-02  0.9933380E-01
          1   -1    0    0  501    0  0.00000000000E+00  0.00000000000E+00  0.19315033394E+03  0.19315033400E+03  0.50400000000E-02 0. -1.
         -1   -1    0    0    0  501 -0.00000000000E+00 -0.00000000000E+00 -0.44553716543E+03  0.44553716546E+03  0.50400000000E-02 0.  1.
   -5000001    1    1    2    0    0 -0.12648198047E+03  0.67278669063E+01 -0.22054879163E+03  0.35662967496E+03  0.25000000000E+03 0.  0.
    5000001    1    1    2    0    0  0.12648198047E+03 -0.67278669063E+01 -0.31838039862E+02  0.28205782450E+03  0.25000000000E+03 0.  0.
<mgrwt>
<rscale>  0 0.58670487E+03</rscale>
<asrwt>0</asrwt>
<pdfrwt beam="1">  1        1 0.29715436E-01 0.58670487E+03</pdfrwt>
<pdfrwt beam="2">  1       -1 0.68544179E-01 0.58670487E+03</pdfrwt>
<totfact> 0.34022605E+02</totfact>
</mgrwt>
</event>
<event>
 4    1  0.4047984E-006  0.8910667E+03  0.7818608E-02  0.9436818E-01
         -1   -1    0    0    0  501 -0.00000000000E+00  0.00000000000E+00  0.12688030433E+03  0.12688030443E+03  0.50400000000E-02 0. -1.
          1   -1    0    0  501    0  0.00000000000E+00 -0.00000000000E+00 -0.15644664081E+04  0.15644664081E+04  0.50400000000E-02 0.  1.
   -5000001    1    1    2    0    0  0.34103312630E+03 -0.48632989569E+02 -0.46890994176E+03  0.63328137064E+03  0.25000000000E+03 0.  0.
    5000001    1    1    2    0    0 -0.34103312630E+03  0.48632989569E+02 -0.96867616203E+03  0.10580653419E+04  0.25000000000E+03 0.  0.
<mgrwt>
<rscale>  0 0.89106672E+03</rscale>
<asrwt>0</asrwt>
<pdfrwt beam="1">  1        1 0.24068713E+00 0.89106672E+03</pdfrwt>
<pdfrwt beam="2">  1       -1 0.19520048E-01 0.89106672E+03</pdfrwt>
<totfact> 0.12702538E+02</totfact>
</mgrwt>
</event>
<event>
 4    1  0.4047984E-006  0.6316730E+03  0.7818608E-02  0.9841789E-01
          1   -1    0    0  501    0  0.00000000000E+00  0.00000000000E+00  0.25006137528E+04  0.25006137528E+04  0.50400000000E-02 0.  1.
         -1   -1    0    0    0  501 -0.00000000000E+00 -0.00000000000E+00 -0.39891285291E+02  0.39891285609E+02  0.50400000000E-02 0. -1.
   -5000001    1    1    2    0    0 -0.15301638175E+03 -0.11759009561E+03  0.12168694692E+04  0.12571844529E+04  0.25000000000E+03 0.  0.
    5000001    1    1    2    0    0  0.15301638175E+03  0.11759009561E+03  0.12438529983E+04  0.12833205855E+04  0.25000000000E+03 0.  0.
<mgrwt>
<rscale>  0 0.63167301E+03</rscale>
<asrwt>0</asrwt>
<pdfrwt beam="1">  1        1 0.38470993E+00 0.63167301E+03</pdfrwt>
<pdfrwt beam="2">  1       -1 0.61371189E-02 0.63167301E+03</pdfrwt>
<totfact> 0.19338927E+02</totfact>
</mgrwt>
</event>
<event>
 4    1  0.4047984E-006  0.5830160E+03  0.7818608E-02  0.9941283E-01
          1   -1    0    0  501    0  0.00000000000E+00  0.00000000000E+00  0.40947507420E+03  0.40947507423E+03  0.50400000000E-02 0.  1.
         -1   -1    0    0    0  501 -0.00000000000E+00 -0.00000000000E+00 -0.20752648347E+03  0.20752648353E+03  0.50400000000E-02 0. -1.
   -5000001    1    1    2    0    0 -0.13910939563E+03 -0.21202536898E+02  0.15571934096E+03  0.32641918552E+03  0.25000000000E+03 0.  0.
    5000001    1    1    2    0    0  0.13910939563E+03  0.21202536898E+02  0.46229249774E+02  0.29058237224E+03  0.25000000000E+03 0.  0.
<mgrwt>
<rscale>  0 0.58301603E+03</rscale>
<asrwt>0</asrwt>
<pdfrwt beam="1">  1        1 0.62996164E-01 0.58301603E+03</pdfrwt>
<pdfrwt beam="2">  1       -1 0.31927152E-01 0.58301603E+03</pdfrwt>
<totfact> 0.53699507E+02</totfact>
</mgrwt>
</event>
<event>
 4    1  0.4047984E-006  0.1101442E+04  0.7818608E-02  0.9203788E-01
         -1   -1    0    0    0  501 -0.00000000000E+00  0.00000000000E+00  0.29448799013E+03  0.29448799017E+03  0.50400000000E-02 0. -1.
          1   -1    0    0  501    0  0.00000000000E+00 -0.00000000000E+00 -0.10299013893E+04  0.10299013893E+04  0.50400000000E-02 0.  1.
   -5000001    1    1    2    0    0 -0.42312384850E+03 -0.24785570916E+03 -0.38946164045E+03  0.67427487950E+03  0.25000000000E+03 0.  0.
    5000001    1    1    2    0    0  0.42312384850E+03  0.24785570916E+03 -0.34595175872E+03  0.65011449999E+03  0.25000000000E+03 0.  0.
<mgrwt>
<rscale>  0 0.11014419E+04</rscale>
<asrwt>0</asrwt>
<pdfrwt beam="1">  1        1 0.15844637E+00 0.11014419E+04</pdfrwt>
<pdfrwt beam="2">  1       -1 0.45305845E-01 0.11014419E+04</pdfrwt>
<totfact> 0.69064012E+01</totfact>
</mgrwt>
</event>
<event>
 4    1  0.4047984E-006  0.1620044E+04  0.7818608E-02  0.8808328E-01
         -1   -1    0    0    0  501 -0.00000000000E+00  0.00000000000E+00  0.26203250633E+04  0.26203250633E+04  0.50400000000E-02 0. -1.
          1   -1    0    0  501    0  0.00000000000E+00 -0.00000000000E+00 -0.25040245364E+03  0.25040245369E+03  0.50400000000E-02 0.  1.
   -5000001    1    1    2    0    0  0.34965828537E+03  0.62634990808E+03  0.68671345592E+03  0.10240363736E+04  0.25000000000E+03 0.  0.
    5000001    1    1    2    0    0 -0.34965828537E+03 -0.62634990808E+03  0.16832091537E+04  0.18466911434E+04  0.25000000000E+03 0.  0.
<mgrwt>
<rscale>  0 0.16200442E+04</rscale>
<asrwt>0</asrwt>
<pdfrwt beam="1">  1        1 0.38523456E-01 0.16200442E+04</pdfrwt>
<pdfrwt beam="2">  1       -1 0.40312692E+00 0.16200442E+04</pdfrwt>
<totfact> 0.72762802E-01</totfact>
</mgrwt>
</event>
<event>
 4    1  0.4047984E-006  0.7757381E+03  0.7818608E-02  0.9595815E-01
          1   -1    0    0  501    0  0.00000000000E+00  0.00000000000E+00  0.18431964024E+04  0.18431964024E+04  0.50400000000E-02 0.  1.
         -1   -1    0    0    0  501 -0.00000000000E+00 -0.00000000000E+00 -0.81620383671E+02  0.81620383827E+02  0.50400000000E-02 0. -1.
   -5000001    1    1    2    0    0  0.47942361112E+02  0.27358556822E+03  0.62298803029E+03  0.72647203595E+03  0.25000000000E+03 0.  0.
    5000001    1    1    2    0    0 -0.47942361112E+02 -0.27358556822E+03  0.11385879884E+04  0.11983447502E+04  0.25000000000E+03 0.  0.
<mgrwt>
<rscale>  0 0.77573809E+03</rscale>
<asrwt>0</asrwt>
<pdfrwt beam="1">  1        1 0.28356871E+00 0.77573809E+03</pdfrwt>
<pdfrwt beam="2">  1       -1 0.12556981E-01 0.77573809E+03</pdfrwt>
<totfact> 0.17099156E+02</totfact>
</mgrwt>
</event>
<event>
 4    1  0.4047984E-006  0.8962306E+03  0.7818608E-02  0.9430306E-01
         -1   -1    0    0    0  501 -0.00000000000E+00  0.00000000000E+00  0.74826083510E+03  0.74826083512E+03  0.50400000000E-02 0. -1.
          1   -1    0    0  501    0  0.00000000000E+00 -0.00000000000E+00 -0.26836542072E+03  0.26836542076E+03  0.50400000000E-02 0.  1.
   -5000001    1    1    2    0    0  0.19684016727E+03  0.23713597475E+03  0.38319777381E+01  0.39685539687E+03  0.25000000000E+03 0.  0.
    5000001    1    1    2    0    0 -0.19684016727E+03 -0.23713597475E+03  0.47606343665E+03  0.61977085902E+03  0.25000000000E+03 0.  0.
<mgrwt>
<rscale>  0 0.89623063E+03</rscale>
<asrwt>0</asrwt>
<pdfrwt beam="1">  1        1 0.41286989E-01 0.89623063E+03</pdfrwt>
<pdfrwt beam="2">  1       -1 0.11511705E+00 0.89623063E+03</pdfrwt>
<totfact> 0.70027986E+01</totfact>
</mgrwt>
</event>
<event>
 4    1  0.4047984E-006  0.7056658E+03  0.7818608E-02  0.9707592E-01
         -1   -1    0    0    0  501 -0.00000000000E+00  0.00000000000E+00  0.12572686051E+04  0.12572686051E+04  0.50400000000E-02 0. -1.
          1   -1    0    0  501    0  0.00000000000E+00 -0.00000000000E+00 -0.99017066693E+02  0.99017066822E+02  0.50400000000E-02 0.  1.
   -5000001    1    1    2    0    0  0.22683197105E+03 -0.11922052801E+02  0.38315611740E+03  0.51078712664E+03  0.25000000000E+03 0.  0.
    5000001    1    1    2    0    0 -0.22683197105E+03  0.11922052801E+02  0.77509542101E+03  0.84549854530E+03  0.25000000000E+03 0.  0.
<mgrwt>
<rscale>  0 0.70566578E+03</rscale>
<asrwt>0</asrwt>
<pdfrwt beam="1">  1        1 0.15233395E-01 0.70566578E+03</pdfrwt>
<pdfrwt beam="2">  1       -1 0.19342593E+00 0.70566578E+03</pdfrwt>
<totfact> 0.64722747E+01</totfact>
</mgrwt>
</event>
<event>
 4    1  0.4047984E-006  0.9175639E+03  0.7818608E-02  0.9403888E-01
         -1   -1    0    0    0  501 -0.00000000000E+00  0.00000000000E+00  0.36182958638E+03  0.36182958642E+03  0.50400000000E-02 0.  1.
          1   -1    0    0  501    0  0.00000000000E+00 -0.00000000000E+00 -0.58171277950E+03  0.58171277952E+03  0.50400000000E-02 0. -1.
   -5000001    1    1    2    0    0 -0.19469335713E+03  0.33134332309E+03 -0.12736211180E+03  0.47583086132E+03  0.25000000000E+03 0.  0.
    5000001    1    1    2    0    0  0.19469335713E+03 -0.33134332309E+03 -0.92521081319E+02  0.46771150462E+03  0.25000000000E+03 0.  0.
<mgrwt>
<rscale>  0 0.91756394E+03</rscale>
<asrwt>0</asrwt>
<pdfrwt beam="1">  1        1 0.89494274E-01 0.91756394E+03</pdfrwt>
<pdfrwt beam="2">  1       -1 0.55666090E-01 0.91756394E+03</pdfrwt>
<totfact> 0.11770047E+02</totfact>
</mgrwt>
</event>
<event>
 4    1  0.4047984E-006  0.9103161E+03  0.7818608E-02  0.9412777E-01
         -1   -1    0    0    0  501 -0.00000000000E+00  0.00000000000E+00  0.15308854431E+04  0.15308854431E+04  0.50400000000E-02 0. -1.
          1   -1    0    0  501    0  0.00000000000E+00 -0.00000000000E+00 -0.13532614805E+03  0.13532614814E+03  0.50400000000E-02 0.  1.
   -5000001    1    1    2    0    0  0.18566402559E+03  0.30394054999E+03  0.94210329268E+03  0.10377425511E+04  0.25000000000E+03 0.  0.
    5000001    1    1    2    0    0 -0.18566402559E+03 -0.30394054999E+03  0.45345600238E+03  0.62846904015E+03  0.25000000000E+03 0.  0.
<mgrwt>
<rscale>  0 0.91031606E+03</rscale>
<asrwt>0</asrwt>
<pdfrwt beam="1">  1        1 0.20819407E-01 0.91031606E+03</pdfrwt>
<pdfrwt beam="2">  1       -1 0.23552084E+00 0.91031606E+03</pdfrwt>
<totfact> 0.21904146E+01</totfact>
</mgrwt>
</event>
<event>
 4    1  0.4047984E-006  0.7979564E+03  0.7818608E-02  0.9562980E-01
         -1   -1    0    0    0  501 -0.00000000000E+00  0.00000000000E+00  0.11817513164E+03  0.11817513175E+03  0.50400000000E-02 0. -1.
          1   -1    0    0  501    0  0.00000000000E+00 -0.00000000000E+00 -0.13470144323E+04  0.13470144323E+04  0.50400000000E-02 0.  1.
   -5000001    1    1    2    0    0  0.25689003872E+02 -0.30722271076E+03 -0.54010800362E+03  0.67027037418E+03  0.25000000000E+03 0.  0.
    5000001    1    1    2    0    0 -0.25689003872E+02  0.30722271076E+03 -0.68873129703E+03  0.79491918987E+03  0.25000000000E+03 0.  0.
<mgrwt>
<rscale>  0 0.79795641E+03</rscale>
<asrwt>0</asrwt>
<pdfrwt beam="1">  1        1 0.20723298E+00 0.79795641E+03</pdfrwt>
<pdfrwt beam="2">  1       -1 0.18180790E-01 0.79795641E+03</pdfrwt>
<totfact> 0.20340446E+02</totfact>
</mgrwt>
</event>
<event>
 4    1  0.4047984E-006  0.9827977E+03  0.7818608E-02  0.9327616E-01
          1   -1    0    0  501    0  0.00000000000E+00  0.00000000000E+00  0.15701555208E+04  0.15701555208E+04  0.50400000000E-02 0. -1.
         -1   -1    0    0    0  501 -0.00000000000E+00 -0.00000000000E+00 -0.15378911564E+03  0.15378911572E+03  0.50400000000E-02 0.  1.
   -5000001    1    1    2    0    0  0.35812955745E+03 -0.44576995715E+02  0.32096776055E+03  0.54384206510E+03  0.25000000000E+03 0.  0.
    5000001    1    1    2    0    0 -0.35812955745E+03  0.44576995715E+02  0.10953986446E+04  0.11801025714E+04  0.25000000000E+03 0.  0.
<mgrwt>
<rscale>  0 0.98279770E+03</rscale>
<asrwt>0</asrwt>
<pdfrwt beam="1">  1        1 0.24156237E+00 0.98279770E+03</pdfrwt>
<pdfrwt beam="2">  1       -1 0.23659865E-01 0.98279770E+03</pdfrwt>
<totfact> 0.90432640E+01</totfact>
</mgrwt>
</event>
<event>
 4    1  0.4047984E-006  0.6572275E+03  0.7818608E-02  0.9793311E-01
         -1   -1    0    0    0  501 -0.00000000000E+00  0.00000000000E+00  0.59993389477E+02  0.59993389688E+02  0.50400000000E-02 0. -1.
          1   -1    0    0  501    0  0.00000000000E+00 -0.00000000000E+00 -0.17999816362E+04  0.17999816362E+04  0.50400000000E-02 0.  1.
   -5000001    1    1    2    0    0 -0.14417863812E+03 -0.82634508030E+01 -0.42583920452E+03  0.51448497783E+03  0.25000000000E+03 0.  0.
    5000001    1    1    2    0    0  0.14417863812E+03  0.82634508030E+01 -0.13141490422E+04  0.13454900480E+04  0.25000000000E+03 0.  0.
<mgrwt>
<rscale>  0 0.65722751E+03</rscale>
<asrwt>0</asrwt>
<pdfrwt beam="1">  1        1 0.27692021E+00 0.65722751E+03</pdfrwt>
<pdfrwt beam="2">  1       -1 0.92297536E-02 0.65722751E+03</pdfrwt>
<totfact> 0.30101316E+02</totfact>
</mgrwt>
</event>
<event>
 4    1  0.4047984E-006  0.6625878E+03  0.7818608E-02  0.9783442E-01
          1   -1    0    0  501    0  0.00000000000E+00  0.00000000000E+00  0.11264966489E+04  0.11264966489E+04  0.50400000000E-02 0.  1.
         -1   -1    0    0    0  501 -0.00000000000E+00 -0.00000000000E+00 -0.97430957098E+02  0.97430957229E+02  0.50400000000E-02 0. -1.
   -5000001    1    1    2    0    0  0.16177028142E+03  0.13932252299E+03  0.43892740155E+03  0.54839552623E+03  0.25000000000E+03 0.  0.
    5000001    1    1    2    0    0 -0.16177028142E+03 -0.13932252299E+03  0.59013829028E+03  0.67553207994E+03  0.25000000000E+03 0.  0.
<mgrwt>
<rscale>  0 0.66258780E+03</rscale>
<asrwt>0</asrwt>
<pdfrwt beam="1">  1        1 0.17330717E+00 0.66258780E+03</pdfrwt>
<pdfrwt beam="2">  1       -1 0.14989379E-01 0.66258780E+03</pdfrwt>
<totfact> 0.40506689E+02</totfact>
</mgrwt>
</event>
<event>
 4    1  0.4047984E-006  0.5532126E+03  0.7818608E-02  0.1000753E+00
         -1   -1    0    0    0  501 -0.00000000000E+00  0.00000000000E+00  0.53887540617E+03  0.53887540619E+03  0.50400000000E-02 0. -1.
          1   -1    0    0  501    0  0.00000000000E+00 -0.00000000000E+00 -0.14198280844E+03  0.14198280853E+03  0.50400000000E-02 0.  1.
   -5000001    1    1    2    0    0  0.24650799470E+02  0.90032213178E+02  0.28802473547E+03  0.39264705470E+03  0.25000000000E+03 0.  0.
    5000001    1    1    2    0    0 -0.24650799470E+02 -0.90032213178E+02  0.10886786226E+03  0.28821116002E+03  0.25000000000E+03 0.  0.
<mgrwt>
<rscale>  0 0.55321259E+03</rscale>
<asrwt>0</asrwt>
<pdfrwt beam="1">  1        1 0.21843509E-01 0.55321259E+03</pdfrwt>
<pdfrwt beam="2">  1       -1 0.82903909E-01 0.55321259E+03</pdfrwt>
<totfact> 0.34243931E+02</totfact>
</mgrwt>
</event>
<event>
 4    1  0.4047984E-006  0.6618534E+03  0.7818608E-02  0.9784788E-01
          1   -1    0    0  501    0  0.00000000000E+00  0.00000000000E+00  0.26489435658E+04  0.26489435658E+04  0.50400000000E-02 0.  1.
         -1   -1    0    0    0  501 -0.00000000000E+00 -0.00000000000E+00 -0.41341950705E+02  0.41341951013E+02  0.50400000000E-02 0. -1.
   -5000001    1    1    2    0    0 -0.10620307245E+03 -0.12676678277E+03  0.18737916665E+04  0.18976153770E+04  0.25000000000E+03 0.  0.
    5000001    1    1    2    0    0  0.10620307245E+03  0.12676678277E+03  0.73380994865E+03  0.79267013981E+03  0.25000000000E+03 0.  0.
<mgrwt>
<rscale>  0 0.66185344E+03</rscale>
<asrwt>0</asrwt>
<pdfrwt beam="1">  1        1 0.40752978E+00 0.66185344E+03</pdfrwt>
<pdfrwt beam="2">  1       -1 0.63603002E-02 0.66185344E+03</pdfrwt>
<totfact> 0.14439290E+02</totfact>
</mgrwt>
</event>
<event>
 4    1  0.4047984E-006  0.1120462E+04  0.7818608E-02  0.9185475E-01
          1   -1    0    0  501    0  0.00000000000E+00  0.00000000000E+00  0.69419712904E+03  0.69419712906E+03  0.50400000000E-02 0.  1.
         -1   -1    0    0    0  501 -0.00000000000E+00 -0.00000000000E+00 -0.45211726049E+03  0.45211726052E+03  0.50400000000E-02 0. -1.
   -5000001    1    1    2    0    0  0.22923641313E+03 -0.40038389927E+03 -0.79706529362E+02  0.53076334719E+03  0.25000000000E+03 0.  0.
    5000001    1    1    2    0    0 -0.22923641313E+03  0.40038389927E+03  0.32178639791E+03  0.61555104238E+03  0.25000000000E+03 0.  0.
<mgrwt>
<rscale>  0 0.11204615E+04</rscale>
<asrwt>0</asrwt>
<pdfrwt beam="1">  1        1 0.10679956E+00 0.11204615E+04</pdfrwt>
<pdfrwt beam="2">  1       -1 0.69556502E-01 0.11204615E+04</pdfrwt>
<totfact> 0.57416970E+01</totfact>
</mgrwt>
</event>
<event>
 4    1  0.4047984E-006  0.6689833E+03  0.7818608E-02  0.9771796E-01
         -1   -1    0    0    0  501 -0.00000000000E+00  0.00000000000E+00  0.52768764102E+03  0.52768764105E+03  0.50400000000E-02 0. -1.
          1   -1    0    0  501    0  0.00000000000E+00 -0.00000000000E+00 -0.21202821033E+03  0.21202821039E+03  0.50400000000E-02 0.  1.
   -5000001    1    1    2    0    0  0.77596054748E+02  0.16293932900E+03  0.30120984103E+03  0.43104262084E+03  0.25000000000E+03 0.  0.
    5000001    1    1    2    0    0 -0.77596054748E+02 -0.16293932900E+03  0.14449589657E+02  0.30867323060E+03  0.25000000000E+03 0.  0.
<mgrwt>
<rscale>  0 0.66898331E+03</rscale>
<asrwt>0</asrwt>
<pdfrwt beam="1">  1        1 0.32619725E-01 0.66898331E+03</pdfrwt>
<pdfrwt beam="2">  1       -1 0.81182714E-01 0.66898331E+03</pdfrwt>
<totfact> 0.21160011E+02</totfact>
</mgrwt>
</event>
<event>
 4    1  0.4047984E-006  0.9705143E+03  0.7818608E-02  0.9341489E-01
          1   -1    0    0  501    0  0.00000000000E+00  0.00000000000E+00  0.15323645656E+03  0.15323645664E+03  0.50400000000E-02 0.  1.
         -1   -1    0    0    0  501 -0.00000000000E+00 -0.00000000000E+00 -0.15366741011E+04  0.15366741011E+04  0.50400000000E-02 0. -1.
   -5000001    1    1    2    0    0  0.27024364543E+03 -0.23319332576E+03 -0.10634007677E+04  0.11492310245E+04  0.25000000000E+03 0.  0.
    5000001    1    1    2    0    0 -0.27024364543E+03  0.23319332576E+03 -0.32003687686E+03  0.54067953321E+03  0.25000000000E+03 0.  0.
<mgrwt>
<rscale>  0 0.97051428E+03</rscale>
<asrwt>0</asrwt>
<pdfrwt beam="1">  1        1 0.23574841E-01 0.97051428E+03</pdfrwt>
<pdfrwt beam="2">  1       -1 0.23641139E+00 0.97051428E+03</pdfrwt>
<totfact> 0.18244330E+01</totfact>
</mgrwt>
</event>
<event>
 4    1  0.4047984E-006  0.6238693E+03  0.7818608E-02  0.9857086E-01
         -1   -1    0    0    0  501 -0.00000000000E+00  0.00000000000E+00  0.11752627262E+03  0.11752627273E+03  0.50400000000E-02 0. -1.
          1   -1    0    0  501    0  0.00000000000E+00 -0.00000000000E+00 -0.82792734093E+03  0.82792734094E+03  0.50400000000E-02 0.  1.
   -5000001    1    1    2    0    0  0.61554019803E+02  0.10937333768E+03 -0.14602324490E+03  0.31555381855E+03  0.25000000000E+03 0.  0.
    5000001    1    1    2    0    0 -0.61554019803E+02 -0.10937333768E+03 -0.56437782340E+03  0.62989979512E+03  0.25000000000E+03 0.  0.
<mgrwt>
<rscale>  0 0.62386926E+03</rscale>
<asrwt>0</asrwt>
<pdfrwt beam="1">  1        1 0.12737343E+00 0.62386926E+03</pdfrwt>
<pdfrwt beam="2">  1       -1 0.18080966E-01 0.62386926E+03</pdfrwt>
<totfact> 0.51190124E+02</totfact>
</mgrwt>
</event>
<event>
 4    1  0.4047984E-006  0.6818144E+03  0.7818608E-02  0.9748847E-01
         -1   -1    0    0    0  501 -0.00000000000E+00  0.00000000000E+00  0.75585808571E+02  0.75585808739E+02  0.50400000000E-02 0. -1.
          1   -1    0    0  501    0  0.00000000000E+00 -0.00000000000E+00 -0.15375601717E+04  0.15375601717E+04  0.50400000000E-02 0.  1.
   -5000001    1    1    2    0    0 -0.20447588748E+03  0.10012001902E+03 -0.83366338277E+03  0.89962716863E+03  0.25000000000E+03 0.  0.
    5000001    1    1    2    0    0  0.20447588748E+03 -0.10012001902E+03 -0.62831098032E+03  0.71351881178E+03  0.25000000000E+03 0.  0.
<mgrwt>
<rscale>  0 0.68181443E+03</rscale>
<asrwt>0</asrwt>
<pdfrwt beam="1">  1        1 0.23654770E+00 0.68181443E+03</pdfrwt>
<pdfrwt beam="2">  1       -1 0.11628587E-01 0.68181443E+03</pdfrwt>
<totfact> 0.31287288E+02</totfact>
</mgrwt>
</event>
<event>
 4    1  0.4047984E-006  0.5592210E+03  0.7818608E-02  0.9993819E-01
          1   -1    0    0  501    0  0.00000000000E+00  0.00000000000E+00  0.11479383554E+04  0.11479383554E+04  0.50400000000E-02 0.  1.
         -1   -1    0    0    0  501 -0.00000000000E+00 -0.00000000000E+00 -0.68106483224E+02  0.68106483411E+02  0.50400000000E-02 0. -1.
   -5000001    1    1    2    0    0 -0.98380451223E+02 -0.29090567168E+02  0.38375672633E+03  0.46935508869E+03  0.25000000000E+03 0.  0.
    5000001    1    1    2    0    0  0.98380451223E+02  0.29090567168E+02  0.69607514587E+03  0.74668975015E+03  0.25000000000E+03 0.  0.
<mgrwt>
<rscale>  0 0.55922105E+03</rscale>
<asrwt>0</asrwt>
<pdfrwt beam="1">  1        1 0.17660590E+00 0.55922105E+03</pdfrwt>
<pdfrwt beam="2">  1       -1 0.10477921E-01 0.55922105E+03</pdfrwt>
<totfact> 0.69653499E+02</totfact>
</mgrwt>
</event>
<event>
 4    1  0.4047984E-006  0.6997093E+03  0.7818608E-02  0.9717729E-01
          1   -1    0    0  501    0  0.00000000000E+00  0.00000000000E+00  0.35380612671E+03  0.35380612674E+03  0.50400000000E-02 0.  1.
         -1   -1    0    0    0  501 -0.00000000000E+00 -0.00000000000E+00 -0.34594729606E+03  0.34594729610E+03  0.50400000000E-02 0. -1.
   -5000001    1    1    2    0    0  0.12585355115E+03  0.20707185466E+03  0.38288583880E+02  0.35026259433E+03  0.25000000000E+03 0.  0.
    5000001    1    1    2    0    0 -0.12585355115E+03 -0.20707185466E+03 -0.30429753233E+02  0.34949082851E+03  0.25000000000E+03 0.  0.
<mgrwt>
<rscale>  0 0.69970929E+03</rscale>
<asrwt>0</asrwt>
<pdfrwt beam="1">  1        1 0.54431712E-01 0.69970929E+03</pdfrwt>
<pdfrwt beam="2">  1       -1 0.53222661E-01 0.69970929E+03</pdfrwt>
<totfact> 0.25488380E+02</totfact>
</mgrwt>
</event>
<event>
 4    1  0.4047984E-006  0.2665433E+04  0.7818608E-02  0.8346309E-01
          1   -1    0    0  501    0  0.00000000000E+00  0.00000000000E+00  0.19969936676E+04  0.19969936676E+04  0.50400000000E-02 0.  1.
         -1   -1    0    0    0  501 -0.00000000000E+00 -0.00000000000E+00 -0.88940334571E+03  0.88940334572E+03  0.50400000000E-02 0. -1.
   -5000001    1    1    2    0    0  0.94887230895E+03  0.89013165357E+03  0.71049729925E+03  0.15033294488E+04  0.25000000000E+03 0.  0.
    5000001    1    1    2    0    0 -0.94887230895E+03 -0.89013165357E+03  0.39709302261E+03  0.13830675645E+04  0.25000000000E+03 0.  0.
<mgrwt>
<rscale>  0 0.26654327E+04</rscale>
<asrwt>0</asrwt>
<pdfrwt beam="1">  1        1 0.30722980E+00 0.26654327E+04</pdfrwt>
<pdfrwt beam="2">  1       -1 0.13683128E+00 0.26654327E+04</pdfrwt>
<totfact> 0.11664735E+00</totfact>
</mgrwt>
</event>
<event>
 4    1  0.4047984E-006  0.8256328E+03  0.7818608E-02  0.9523638E-01
         -1   -1    0    0    0  501 -0.00000000000E+00  0.00000000000E+00  0.15791346965E+03  0.15791346973E+03  0.50400000000E-02 0. -1.
          1   -1    0    0  501    0  0.00000000000E+00 -0.00000000000E+00 -0.10791819389E+04  0.10791819389E+04  0.50400000000E-02 0.  1.
   -5000001    1    1    2    0    0  0.45479784042E+02 -0.18292931090E+03 -0.57506174163E+02  0.31833709116E+03  0.25000000000E+03 0.  0.
    5000001    1    1    2    0    0 -0.45479784042E+02  0.18292931090E+03 -0.86376229507E+03  0.91875831747E+03  0.25000000000E+03 0.  0.
<mgrwt>
<rscale>  0 0.82563276E+03</rscale>
<asrwt>0</asrwt>
<pdfrwt beam="1">  1        1 0.16602799E+00 0.82563276E+03</pdfrwt>
<pdfrwt beam="2">  1       -1 0.24294381E-01 0.82563276E+03</pdfrwt>
<totfact> 0.19521188E+02</totfact>
</mgrwt>
</event>
<event>
 4    1  0.4047984E-006  0.9858275E+03  0.7818608E-02  0.9324227E-01
         -1   -1    0    0    0  501 -0.00000000000E+00  0.00000000000E+00  0.54081054666E+03  0.54081054669E+03  0.50400000000E-02 0. -1.
          1   -1    0    0  501    0  0.00000000000E+00 -0.00000000000E+00 -0.44925892537E+03  0.44925892540E+03  0.50400000000E-02 0.  1.
   -5000001    1    1    2    0    0 -0.41148770977E+03  0.60854189995E+02  0.13239423224E+03  0.50304433250E+03  0.25000000000E+03 0.  0.
    5000001    1    1    2    0    0  0.41148770977E+03 -0.60854189995E+02 -0.40842610945E+02  0.48702513959E+03  0.25000000000E+03 0.  0.
<mgrwt>
<rscale>  0 0.98582750E+03</rscale>
<asrwt>0</asrwt>
<pdfrwt beam="1">  1        1 0.69116758E-01 0.98582750E+03</pdfrwt>
<pdfrwt beam="2">  1       -1 0.83201622E-01 0.98582750E+03</pdfrwt>
<totfact> 0.73887546E+01</totfact>
</mgrwt>
</event>
<event>
 4    1  0.4047984E-006  0.5589553E+03  0.7818608E-02  0.9994421E-01
         -1   -1    0    0    0  501 -0.00000000000E+00  0.00000000000E+00  0.30278755095E+02  0.30278755514E+02  0.50400000000E-02 0. -1.
          1   -1    0    0  501    0  0.00000000000E+00 -0.00000000000E+00 -0.25796226736E+04  0.25796226736E+04  0.50400000000E-02 0.  1.
   -5000001    1    1    2    0    0  0.32532126296E+02 -0.10056638398E+03 -0.96369063926E+03  0.10011850903E+04  0.25000000000E+03 0.  0.
    5000001    1    1    2    0    0 -0.32532126296E+02  0.10056638398E+03 -0.15856532792E+04  0.16087163388E+04  0.25000000000E+03 0.  0.
<mgrwt>
<rscale>  0 0.55895532E+03</rscale>
<asrwt>0</asrwt>
<pdfrwt beam="1">  1        1 0.39686485E+00 0.55895532E+03</pdfrwt>
<pdfrwt beam="2">  1       -1 0.46582721E-02 0.55895532E+03</pdfrwt>
<totfact> 0.26278866E+02</totfact>
</mgrwt>
</event>
<event>
 4    1  0.4047984E-006  0.1028224E+04  0.7818608E-02  0.9278120E-01
          1   -1    0    0  501    0  0.00000000000E+00  0.00000000000E+00  0.40047279250E+03  0.40047279253E+03  0.50400000000E-02 0.  1.
         -1   -1    0    0    0  501 -0.00000000000E+00 -0.00000000000E+00 -0.65999738512E+03  0.65999738514E+03  0.50400000000E-02 0. -1.
   -5000001    1    1    2    0    0 -0.25716798298E+03  0.30018339552E+03 -0.34991761078E+03  0.58411281166E+03  0.25000000000E+03 0.  0.
    5000001    1    1    2    0    0  0.25716798298E+03 -0.30018339552E+03  0.90393018158E+02  0.47635736601E+03  0.25000000000E+03 0.  0.
<mgrwt>
<rscale>  0 0.10282237E+04</rscale>
<asrwt>0</asrwt>
<pdfrwt beam="1">  1        1 0.61611199E-01 0.10282237E+04</pdfrwt>
<pdfrwt beam="2">  1       -1 0.10153806E+00 0.10282237E+04</pdfrwt>
<totfact> 0.55208034E+01</totfact>
</mgrwt>
</event>
<event>
 4    1  0.4047984E-006  0.6428972E+03  0.7818608E-02  0.9820199E-01
         -1   -1    0    0    0  501 -0.00000000000E+00  0.00000000000E+00  0.26781910237E+03  0.26781910242E+03  0.50400000000E-02 0.  1.
          1   -1    0    0  501    0  0.00000000000E+00 -0.00000000000E+00 -0.38581719543E+03  0.38581719546E+03  0.50400000000E-02 0. -1.
   -5000001    1    1    2    0    0 -0.13229380462E+03 -0.13688394193E+03  0.98848226858E+01  0.31438284625E+03  0.25000000000E+03 0.  0.
    5000001    1    1    2    0    0  0.13229380462E+03  0.13688394193E+03 -0.12788291574E+03  0.33925345162E+03  0.25000000000E+03 0.  0.
<mgrwt>
<rscale>  0 0.64289724E+03</rscale>
<asrwt>0</asrwt>
<pdfrwt beam="1">  1        1 0.59356492E-01 0.64289724E+03</pdfrwt>
<pdfrwt beam="2">  1       -1 0.41202939E-01 0.64289724E+03</pdfrwt>
<totfact> 0.36776006E+02</totfact>
</mgrwt>
</event>
<event>
 4    1  0.4047984E-006  0.1239828E+04  0.7818608E-02  0.9078692E-01
         -1   -1    0    0    0  501 -0.00000000000E+00  0.00000000000E+00  0.93905815644E+03  0.93905815646E+03  0.50400000000E-02 0. -1.
          1   -1    0    0  501    0  0.00000000000E+00 -0.00000000000E+00 -0.40923280152E+03  0.40923280155E+03  0.50400000000E-02 0.  1.
   -5000001    1    1    2    0    0  0.19204247853E+03 -0.46250059631E+03 -0.24868757787E+02  0.56027276417E+03  0.25000000000E+03 0.  0.
    5000001    1    1    2    0    0 -0.19204247853E+03  0.46250059631E+03  0.55469411271E+03  0.78801819384E+03  0.25000000000E+03 0.  0.
<mgrwt>
<rscale>  0 0.12398281E+04</rscale>
<asrwt>0</asrwt>
<pdfrwt beam="1">  1        1 0.62958893E-01 0.12398281E+04</pdfrwt>
<pdfrwt beam="2">  1       -1 0.14447048E+00 0.12398281E+04</pdfrwt>
<totfact> 0.22160432E+01</totfact>
</mgrwt>
</event>
<event>
 4    1  0.4047984E-006  0.8753659E+03  0.7818608E-02  0.9456910E-01
          1   -1    0    0  501    0  0.00000000000E+00  0.00000000000E+00  0.28281749791E+04  0.28281749791E+04  0.50400000000E-02 0.  1.
         -1   -1    0    0    0  501 -0.00000000000E+00 -0.00000000000E+00 -0.67734977464E+02  0.67734977651E+02  0.50400000000E-02 0. -1.
   -5000001    1    1    2    0    0  0.34704457255E+03 -0.64177682723E+02  0.11581085618E+04  0.12362338578E+04  0.25000000000E+03 0.  0.
    5000001    1    1    2    0    0 -0.34704457255E+03  0.64177682723E+02  0.16023314399E+04  0.16596760990E+04  0.25000000000E+03 0.  0.
<mgrwt>
<rscale>  0 0.87536591E+03</rscale>
<asrwt>0</asrwt>
<pdfrwt beam="1">  1        1 0.43510391E+00 0.87536591E+03</pdfrwt>
<pdfrwt beam="2">  1       -1 0.10420764E-01 0.87536591E+03</pdfrwt>
<totfact> 0.48758673E+01</totfact>
</mgrwt>
</event>
<event>
 4    1  0.4047984E-006  0.7148604E+03  0.7818608E-02  0.9692151E-01
         -1   -1    0    0    0  501 -0.00000000000E+00  0.00000000000E+00  0.56945898895E+02  0.56945899118E+02  0.50400000000E-02 0. -1.
          1   -1    0    0  501    0  0.00000000000E+00 -0.00000000000E+00 -0.22434688092E+04  0.22434688092E+04  0.50400000000E-02 0.  1.
   -5000001    1    1    2    0    0  0.17921530608E+03  0.15301973318E+03 -0.14105753851E+04  0.14518113107E+04  0.25000000000E+03 0.  0.
    5000001    1    1    2    0    0 -0.17921530608E+03 -0.15301973318E+03 -0.77594752520E+03  0.84860339767E+03  0.25000000000E+03 0.  0.
<mgrwt>
<rscale>  0 0.71486040E+03</rscale>
<asrwt>0</asrwt>
<pdfrwt beam="1">  1        1 0.34514898E+00 0.71486040E+03</pdfrwt>
<pdfrwt beam="2">  1       -1 0.87609093E-02 0.71486040E+03</pdfrwt>
<totfact> 0.16435657E+02</totfact>
</mgrwt>
</event>
<event>
 4    1  0.4047984E-006  0.8352569E+03  0.7818608E-02  0.9510341E-01
         -1   -1    0    0    0  501 -0.00000000000E+00  0.00000000000E+00  0.24938863051E+03  0.24938863056E+03  0.50400000000E-02 0. -1.
          1   -1    0    0  501    0  0.00000000000E+00 -0.00000000000E+00 -0.69936444838E+03  0.69936444840E+03  0.50400000000E-02 0.  1.
   -5000001    1    1    2    0    0  0.29031156068E+03 -0.16372252937E+03 -0.25766644062E+03  0.48987535508E+03  0.25000000000E+03 0.  0.
    5000001    1    1    2    0    0 -0.29031156068E+03  0.16372252937E+03 -0.19230937725E+03  0.45887772387E+03  0.25000000000E+03 0.  0.
<mgrwt>
<rscale>  0 0.83525695E+03</rscale>
<asrwt>0</asrwt>
<pdfrwt beam="1">  1        1 0.10759453E+00 0.83525695E+03</pdfrwt>
<pdfrwt beam="2">  1       -1 0.38367482E-01 0.83525695E+03</pdfrwt>
<totfact> 0.18097515E+02</totfact>
</mgrwt>
</event>
<event>
 4    1  0.4047984E-006  0.8143259E+03  0.7818608E-02  0.9539509E-01
          1   -1    0    0  501    0  0.00000000000E+00  0.00000000000E+00  0.39701506516E+03  0.39701506520E+03  0.50400000000E-02 0.  1.
         -1   -1    0    0    0  501 -0.00000000000E+00 -0.00000000000E+00 -0.41757023483E+03  0.41757023486E+03  0.50400000000E-02 0. -1.
   -5000001    1    1    2    0    0  0.23763926175E+03 -0.16045918913E+03 -0.15545170014E+03  0.41095596014E+03  0.25000000000E+03 0.  0.
    5000001    1    1    2    0    0 -0.23763926175E+03  0.16045918913E+03  0.13489653048E+03  0.40362933991E+03  0.25000000000E+03 0.  0.
<mgrwt>
<rscale>  0 0.81432592E+03</rscale>
<asrwt>0</asrwt>
<pdfrwt beam="1">  1        1 0.61079241E-01 0.81432592E+03</pdfrwt>
<pdfrwt beam="2">  1       -1 0.64241574E-01 0.81432592E+03</pdfrwt>
<totfact> 0.15065611E+02</totfact>
</mgrwt>
</event>
<event>
 4    1  0.4047984E-006  0.1189986E+04  0.7818608E-02  0.9121667E-01
         -1   -1    0    0    0  501 -0.00000000000E+00  0.00000000000E+00  0.51480711555E+03  0.51480711558E+03  0.50400000000E-02 0. -1.
          1   -1    0    0  501    0  0.00000000000E+00 -0.00000000000E+00 -0.68766905143E+03  0.68766905145E+03  0.50400000000E-02 0.  1.
   -5000001    1    1    2    0    0 -0.26482616101E+03 -0.41821713228E+03  0.13142041227E+03  0.56992086297E+03  0.25000000000E+03 0.  0.
    5000001    1    1    2    0    0  0.26482616101E+03  0.41821713228E+03 -0.30428234815E+03  0.63255530405E+03  0.25000000000E+03 0.  0.
<mgrwt>
<rscale>  0 0.11899864E+04</rscale>
<asrwt>0</asrwt>
<pdfrwt beam="1">  1        1 0.10579524E+00 0.11899864E+04</pdfrwt>
<pdfrwt beam="2">  1       -1 0.79201094E-01 0.11899864E+04</pdfrwt>
<totfact> 0.44198464E+01</totfact>
</mgrwt>
</event>
<event>
 4    1  0.4047984E-006  0.8633835E+03  0.7818608E-02  0.9472548E-01
          1   -1    0    0  501    0  0.00000000000E+00  0.00000000000E+00  0.12762726885E+03  0.12762726894E+03  0.50400000000E-02 0. -1.
         -1   -1    0    0    0  501 -0.00000000000E+00 -0.00000000000E+00 -0.14601721186E+04  0.14601721186E+04  0.50400000000E-02 0.  1.
   -5000001    1    1    2    0    0  0.14264759919E+03 -0.29668011460E+02 -0.77120296725E+02  0.29945962770E+03  0.25000000000E+03 0.  0.
    5000001    1    1    2    0    0 -0.14264759919E+03  0.29668011460E+02 -0.12554245530E+04  0.12883397598E+04  0.25000000000E+03 0.  0.
<mgrwt>
<rscale>  0 0.86338353E+03</rscale>
<asrwt>0</asrwt>
<pdfrwt beam="1">  1        1 0.19634966E-01 0.86338353E+03</pdfrwt>
<pdfrwt beam="2">  1       -1 0.22464185E+00 0.86338353E+03</pdfrwt>
<totfact> 0.28025174E+01</totfact>
</mgrwt>
</event>
<event>
 4    1  0.4047984E-006  0.6141698E+03  0.7818608E-02  0.9876437E-01
          1   -1    0    0  501    0  0.00000000000E+00  0.00000000000E+00  0.35886495338E+03  0.35886495342E+03  0.50400000000E-02 0.  1.
         -1   -1    0    0    0  501 -0.00000000000E+00 -0.00000000000E+00 -0.26277608155E+03  0.26277608160E+03  0.50400000000E-02 0. -1.
   -5000001    1    1    2    0    0  0.14245766744E+03 -0.81707263249E+02 -0.22305478444E+02  0.29994632561E+03  0.25000000000E+03 0.  0.
    5000001    1    1    2    0    0 -0.14245766744E+03  0.81707263249E+02  0.11839435028E+03  0.32169470940E+03  0.25000000000E+03 0.  0.
<mgrwt>
<rscale>  0 0.61416977E+03</rscale>
<asrwt>0</asrwt>
<pdfrwt beam="1">  1        1 0.55209993E-01 0.61416977E+03</pdfrwt>
<pdfrwt beam="2">  1       -1 0.40427089E-01 0.61416977E+03</pdfrwt>
<totfact> 0.41899813E+02</totfact>
</mgrwt>
</event>
<event>
 4    1  0.4047984E-006  0.7299274E+03  0.7818608E-02  0.9667378E-01
         -1   -1    0    0    0  501 -0.00000000000E+00  0.00000000000E+00  0.89298068283E+02  0.89298068425E+02  0.50400000000E-02 0. -1.
          1   -1    0    0  501    0  0.00000000000E+00 -0.00000000000E+00 -0.14916169662E+04  0.14916169662E+04  0.50400000000E-02 0.  1.
   -5000001    1    1    2    0    0  0.67268967417E+02  0.23642450022E+03 -0.92072235494E+03  0.98521637886E+03  0.25000000000E+03 0.  0.
    5000001    1    1    2    0    0 -0.67268967417E+02 -0.23642450022E+03 -0.48159654295E+03  0.59569865575E+03  0.25000000000E+03 0.  0.
<mgrwt>
<rscale>  0 0.72992743E+03</rscale>
<asrwt>0</asrwt>
<pdfrwt beam="1">  1        1 0.22947951E+00 0.72992743E+03</pdfrwt>
<pdfrwt beam="2">  1       -1 0.13738165E-01 0.72992743E+03</pdfrwt>
<totfact> 0.25646230E+02</totfact>
</mgrwt>
</event>
<event>
 4    1  0.4047984E-006  0.5709344E+03  0.7818608E-02  0.9967613E-01
         -1   -1    0    0    0  501 -0.00000000000E+00  0.00000000000E+00  0.73307048681E+03  0.73307048683E+03  0.50400000000E-02 0. -1.
          1   -1    0    0  501    0  0.00000000000E+00 -0.00000000000E+00 -0.11116462946E+03  0.11116462958E+03  0.50400000000E-02 0.  1.
   -5000001    1    1    2    0    0 -0.10923161893E+03 -0.66030104752E+02  0.38778775900E+03  0.47871794132E+03  0.25000000000E+03 0.  0.
    5000001    1    1    2    0    0  0.10923161893E+03  0.66030104752E+02  0.23411809835E+03  0.36551717508E+03  0.25000000000E+03 0.  0.
<mgrwt>
<rscale>  0 0.57093435E+03</rscale>
<asrwt>0</asrwt>
<pdfrwt beam="1">  1        1 0.17102251E-01 0.57093435E+03</pdfrwt>
<pdfrwt beam="2">  1       -1 0.11278008E+00 0.57093435E+03</pdfrwt>
<totfact> 0.23699637E+02</totfact>
</mgrwt>
</event>
<event>
 4    1  0.4047984E-006  0.7405306E+03  0.7818608E-02  0.9650325E-01
          1   -1    0    0  501    0  0.00000000000E+00  0.00000000000E+00  0.67172952490E+02  0.67172952679E+02  0.50400000000E-02 0.  1.
         -1   -1    0    0    0  501 -0.00000000000E+00 -0.00000000000E+00 -0.20409463403E+04  0.20409463403E+04  0.50400000000E-02 0. -1.
   -5000001    1    1    2    0    0 -0.22361366400E+03  0.27191625948E+02 -0.14265621312E+04  0.14657155145E+04  0.25000000000E+03 0.  0.
    5000001    1    1    2    0    0  0.22361366400E+03 -0.27191625948E+02 -0.54721125654E+03  0.64240377842E+03  0.25000000000E+03 0.  0.
<mgrwt>
<rscale>  0 0.74053060E+03</rscale>
<asrwt>0</asrwt>
<pdfrwt beam="1">  1        1 0.10334302E-01 0.74053060E+03</pdfrwt>
<pdfrwt beam="2">  1       -1 0.31399170E+00 0.74053060E+03</pdfrwt>
<totfact> 0.17968239E+01</totfact>
</mgrwt>
</event>
<event>
 4    1  0.4047984E-006  0.9689722E+03  0.7818608E-02  0.9343246E-01
         -1   -1    0    0    0  501 -0.00000000000E+00  0.00000000000E+00  0.37276639937E+03  0.37276639940E+03  0.50400000000E-02 0. -1.
          1   -1    0    0  501    0  0.00000000000E+00 -0.00000000000E+00 -0.62968872557E+03  0.62968872559E+03  0.50400000000E-02 0.  1.
   -5000001    1    1    2    0    0 -0.54767746226E+02 -0.32865555419E+03 -0.38442275303E+03  0.56682875048E+03  0.25000000000E+03 0.  0.
    5000001    1    1    2    0    0  0.54767746226E+02  0.32865555419E+03  0.12750042683E+03  0.43562637451E+03  0.25000000000E+03 0.  0.
<mgrwt>
<rscale>  0 0.96897224E+03</rscale>
<asrwt>0</asrwt>
<pdfrwt beam="1">  1        1 0.96875188E-01 0.96897224E+03</pdfrwt>
<pdfrwt beam="2">  1       -1 0.57348677E-01 0.96897224E+03</pdfrwt>
<totfact> 0.98716029E+01</totfact>
</mgrwt>
</event>
<event>
 4    1  0.4047984E-006  0.8033395E+03  0.7818608E-02  0.9555196E-01
          1   -1    0    0  501    0  0.00000000000E+00  0.00000000000E+00  0.55226405707E+03  0.55226405709E+03  0.50400000000E-02 0.  1.
         -1   -1    0    0    0  501 -0.00000000000E+00 -0.00000000000E+00 -0.29214031382E+03  0.29214031386E+03  0.50400000000E-02 0. -1.
   -5000001    1    1    2    0    0 -0.16847974975E+03  0.23427702270E+03  0.26120937250E+03  0.46260294608E+03  0.25000000000E+03 0.  0.
    5000001    1    1    2    0    0  0.16847974975E+03 -0.23427702270E+03 -0.10856292456E+01  0.38180142487E+03  0.25000000000E+03 0.  0.
<mgrwt>
<rscale>  0 0.80333952E+03</rscale>
<asrwt>0</asrwt>
<pdfrwt beam="1">  1        1 0.84963699E-01 0.80333952E+03</pdfrwt>
<pdfrwt beam="2">  1       -1 0.44944665E-01 0.80333952E+03</pdfrwt>
<totfact> 0.19138945E+02</totfact>
</mgrwt>
</event>
<event>
 4    1  0.4047984E-006  0.7674784E+03  0.7818608E-02  0.9608322E-01
          1   -1    0    0  501    0  0.00000000000E+00  0.00000000000E+00  0.38177570350E+03  0.38177570354E+03  0.50400000000E-02 0.  1.
         -1   -1    0    0    0  501 -0.00000000000E+00 -0.00000000000E+00 -0.38571275635E+03  0.38571275638E+03  0.50400000000E-02 0. -1.
   -5000001    1    1    2    0    0 -0.53081914597E+02 -0.18740433152E+03 -0.21834532238E+03  0.38485419698E+03  0.25000000000E+03 0.  0.
    5000001    1    1    2    0    0  0.53081914597E+02  0.18740433152E+03  0.21440826953E+03  0.38263426294E+03  0.25000000000E+03 0.  0.
<mgrwt>
<rscale>  0 0.76747836E+03</rscale>
<asrwt>0</asrwt>
<pdfrwt beam="1">  1        1 0.58734724E-01 0.76747836E+03</pdfrwt>
<pdfrwt beam="2">  1       -1 0.59340424E-01 0.76747836E+03</pdfrwt>
<totfact> 0.18617510E+02</totfact>
</mgrwt>
</event>
<event>
 4    1  0.4047984E-006  0.1031800E+04  0.7818608E-02  0.9274339E-01
          1   -1    0    0  501    0  0.00000000000E+00  0.00000000000E+00  0.18294710610E+04  0.18294710610E+04  0.50400000000E-02 0.  1.
         -1   -1    0    0    0  501 -0.00000000000E+00 -0.00000000000E+00 -0.14548063512E+03  0.14548063521E+03  0.50400000000E-02 0. -1.
   -5000001    1    1    2    0    0  0.58463295255E+02 -0.43124415941E+03  0.10705911658E+04  0.11823937273E+04  0.25000000000E+03 0.  0.
    5000001    1    1    2    0    0 -0.58463295255E+02  0.43124415941E+03  0.61339926001E+03  0.79255796892E+03  0.25000000000E+03 0.  0.
<mgrwt>
<rscale>  0 0.10317996E+04</rscale>
<asrwt>0</asrwt>
<pdfrwt beam="1">  1        1 0.28145709E+00 0.10317996E+04</pdfrwt>
<pdfrwt beam="2">  1       -1 0.22381636E-01 0.10317996E+04</pdfrwt>
<totfact> 0.66020019E+01</totfact>
</mgrwt>
</event>
<event>
 4    1  0.4047984E-006  0.8423889E+03  0.7818608E-02  0.9500610E-01
          1   -1    0    0  501    0  0.00000000000E+00  0.00000000000E+00  0.77655994002E+03  0.77655994003E+03  0.50400000000E-02 0.  1.
         -1   -1    0    0    0  501 -0.00000000000E+00 -0.00000000000E+00 -0.22844952175E+03  0.22844952181E+03  0.50400000000E-02 0. -1.
   -5000001    1    1    2    0    0 -0.16326159644E+02 -0.33801144020E+03  0.29750912110E+03  0.51529598711E+03  0.25000000000E+03 0.  0.
    5000001    1    1    2    0    0  0.16326159644E+02  0.33801144020E+03  0.25060129717E+03  0.48971347473E+03  0.25000000000E+03 0.  0.
<mgrwt>
<rscale>  0 0.84238886E+03</rscale>
<asrwt>0</asrwt>
<pdfrwt beam="1">  1        1 0.11947076E+00 0.84238886E+03</pdfrwt>
<pdfrwt beam="2">  1       -1 0.35146080E-01 0.84238886E+03</pdfrwt>
<totfact> 0.18013135E+02</totfact>
</mgrwt>
</event>
<event>
 4    1  0.4047984E-006  0.7911785E+03  0.7818608E-02  0.9572874E-01
          1   -1    0    0  501    0  0.00000000000E+00  0.00000000000E+00  0.47456146656E+02  0.47456146924E+02  0.50400000000E-02 0.  1.
         -1   -1    0    0    0  501 -0.00000000000E+00 -0.00000000000E+00 -0.32975887958E+04  0.32975887958E+04  0.50400000000E-02 0. -1.
   -5000001    1    1    2    0    0 -0.80850829312E+02 -0.26188279714E+03 -0.10442623792E+04  0.11081982551E+04  0.25000000000E+03 0.  0.
    5000001    1    1    2    0    0  0.80850829312E+02  0.26188279714E+03 -0.22058702699E+04  0.22368466876E+04  0.25000000000E+03 0.  0.
<mgrwt>
<rscale>  0 0.79117851E+03</rscale>
<asrwt>0</asrwt>
<pdfrwt beam="1">  1        1 0.73009483E-02 0.79117851E+03</pdfrwt>
<pdfrwt beam="2">  1       -1 0.50732117E+00 0.79117851E+03</pdfrwt>
<totfact> 0.14597876E+00</totfact>
</mgrwt>
</event>
<event>
 4    1  0.4047984E-006  0.1195010E+04  0.7818608E-02  0.9117235E-01
         -1   -1    0    0    0  501 -0.00000000000E+00  0.00000000000E+00  0.11690945276E+04  0.11690945277E+04  0.50400000000E-02 0. -1.
          1   -1    0    0  501    0  0.00000000000E+00 -0.00000000000E+00 -0.30537521507E+03  0.30537521511E+03  0.50400000000E-02 0.  1.
   -5000001    1    1    2    0    0  0.38518436004E+03 -0.28438329121E+03  0.11663045427E+03  0.55257896305E+03  0.25000000000E+03 0.  0.
    5000001    1    1    2    0    0 -0.38518436004E+03  0.28438329121E+03  0.74708885830E+03  0.92189077972E+03  0.25000000000E+03 0.  0.
<mgrwt>
<rscale>  0 0.11950104E+04</rscale>
<asrwt>0</asrwt>
<pdfrwt beam="1">  1        1 0.46980803E-01 0.11950104E+04</pdfrwt>
<pdfrwt beam="2">  1       -1 0.17986069E+00 0.11950104E+04</pdfrwt>
<totfact> 0.17691779E+01</totfact>
</mgrwt>
</event>
<event>
 4    1  0.4047984E-006  0.8331854E+03  0.7818608E-02  0.9513187E-01
         -1   -1    0    0    0  501 -0.00000000000E+00  0.00000000000E+00  0.69856942108E+02  0.69856942289E+02  0.50400000000E-02 0. -1.
          1   -1    0    0  501    0  0.00000000000E+00 -0.00000000000E+00 -0.24843557438E+04  0.24843557438E+04  0.50400000000E-02 0.  1.
   -5000001    1    1    2    0    0 -0.23320963958E+03 -0.13927221786E+03 -0.61545367259E+03  0.71768148211E+03  0.25000000000E+03 0.  0.
    5000001    1    1    2    0    0  0.23320963958E+03  0.13927221786E+03 -0.17990451291E+04  0.18365312040E+04  0.25000000000E+03 0.  0.
<mgrwt>
<rscale>  0 0.83318544E+03</rscale>
<asrwt>0</asrwt>
<pdfrwt beam="1">  1        1 0.38220851E+00 0.83318544E+03</pdfrwt>
<pdfrwt beam="2">  1       -1 0.10747224E-01 0.83318544E+03</pdfrwt>
<totfact> 0.80752901E+01</totfact>
</mgrwt>
</event>
<event>
 4    1  0.4047984E-006  0.9677280E+03  0.7818608E-02  0.9344666E-01
          1   -1    0    0  501    0  0.00000000000E+00  0.00000000000E+00  0.18324022517E+03  0.18324022523E+03  0.50400000000E-02 0.  1.
         -1   -1    0    0    0  501 -0.00000000000E+00 -0.00000000000E+00 -0.12776909379E+04  0.12776909379E+04  0.50400000000E-02 0. -1.
   -5000001    1    1    2    0    0  0.29634632706E+03  0.28504175432E+03 -0.62352513365E+03  0.78762525325E+03  0.25000000000E+03 0.  0.
    5000001    1    1    2    0    0 -0.29634632706E+03 -0.28504175432E+03 -0.47092557908E+03  0.67330590989E+03  0.25000000000E+03 0.  0.
<mgrwt>
<rscale>  0 0.96772801E+03</rscale>
<asrwt>0</asrwt>
<pdfrwt beam="1">  1        1 0.28190805E-01 0.96772801E+03</pdfrwt>
<pdfrwt beam="2">  1       -1 0.19656783E+00 0.96772801E+03</pdfrwt>
<totfact> 0.26697108E+01</totfact>
</mgrwt>
</event>
<event>
 4    1  0.4047984E-006  0.9522441E+03  0.7818608E-02  0.9362531E-01
         -1   -1    0    0    0  501 -0.00000000000E+00  0.00000000000E+00  0.53989747567E+03  0.53989747570E+03  0.50400000000E-02 0. -1.
          1   -1    0    0  501    0  0.00000000000E+00 -0.00000000000E+00 -0.41988011969E+03  0.41988011972E+03  0.50400000000E-02 0.  1.
   -5000001    1    1    2    0    0  0.16259546130E+03 -0.13148513927E+03  0.40983752407E+03  0.52363386256E+03  0.25000000000E+03 0.  0.
    5000001    1    1    2    0    0 -0.16259546130E+03  0.13148513927E+03 -0.28982016809E+03  0.43614373286E+03  0.25000000000E+03 0.  0.
<mgrwt>
<rscale>  0 0.95224412E+03</rscale>
<asrwt>0</asrwt>
<pdfrwt beam="1">  1        1 0.64596942E-01 0.95224412E+03</pdfrwt>
<pdfrwt beam="2">  1       -1 0.83061150E-01 0.95224412E+03</pdfrwt>
<totfact> 0.81394790E+01</totfact>
</mgrwt>
</event>
<event>
 4    1  0.4047984E-006  0.5573750E+03  0.7818608E-02  0.9998012E-01
         -1   -1    0    0    0  501 -0.00000000000E+00  0.00000000000E+00  0.58395678444E+02  0.58395678661E+02  0.50400000000E-02 0. -1.
          1   -1    0    0  501    0  0.00000000000E+00 -0.00000000000E+00 -0.13300081409E+04  0.13300081409E+04  0.50400000000E-02 0.  1.
   -5000001    1    1    2    0    0  0.10333193727E+03  0.65534994767E+02 -0.60107502456E+03  0.66239226290E+03  0.25000000000E+03 0.  0.
    5000001    1    1    2    0    0 -0.10333193727E+03 -0.65534994767E+02 -0.67053743790E+03  0.72601155668E+03  0.25000000000E+03 0.  0.
<mgrwt>
<rscale>  0 0.55737502E+03</rscale>
<asrwt>0</asrwt>
<pdfrwt beam="1">  1        1 0.20461661E+00 0.55737502E+03</pdfrwt>
<pdfrwt beam="2">  1       -1 0.89839515E-02 0.55737502E+03</pdfrwt>
<totfact> 0.65850580E+02</totfact>
</mgrwt>
</event>
<event>
 4    1  0.4047984E-006  0.7524900E+03  0.7818608E-02  0.9631452E-01
         -1   -1    0    0    0  501 -0.00000000000E+00  0.00000000000E+00  0.32422702602E+03  0.32422702606E+03  0.50400000000E-02 0. -1.
          1   -1    0    0  501    0  0.00000000000E+00 -0.00000000000E+00 -0.43660853857E+03  0.43660853860E+03  0.50400000000E-02 0.  1.
   -5000001    1    1    2    0    0  0.91989885283E+02  0.12982625758E+03 -0.29058785012E+03  0.41504011226E+03  0.25000000000E+03 0.  0.
    5000001    1    1    2    0    0 -0.91989885283E+02 -0.12982625758E+03  0.17820633757E+03  0.34579545240E+03  0.25000000000E+03 0.  0.
<mgrwt>
<rscale>  0 0.75248997E+03</rscale>
<asrwt>0</asrwt>
<pdfrwt beam="1">  1        1 0.67170545E-01 0.75248997E+03</pdfrwt>
<pdfrwt beam="2">  1       -1 0.49881080E-01 0.75248997E+03</pdfrwt>
<totfact> 0.21783704E+02</totfact>
</mgrwt>
</event>
<event>
 4    1  0.4047984E-006  0.6592917E+03  0.7818608E-02  0.9789499E-01
         -1   -1    0    0    0  501 -0.00000000000E+00  0.00000000000E+00  0.20926029740E+03  0.20926029746E+03  0.50400000000E-02 0. -1.
          1   -1    0    0  501    0  0.00000000000E+00 -0.00000000000E+00 -0.51928808312E+03  0.51928808314E+03  0.50400000000E-02 0.  1.
   -5000001    1    1    2    0    0 -0.19821641662E+03  0.24123043505E+02 -0.67340329744E+02  0.32696542486E+03  0.25000000000E+03 0.  0.
    5000001    1    1    2    0    0  0.19821641662E+03 -0.24123043505E+02 -0.24268745598E+03  0.40158295574E+03  0.25000000000E+03 0.  0.
<mgrwt>
<rscale>  0 0.65929168E+03</rscale>
<asrwt>0</asrwt>
<pdfrwt beam="1">  1        1 0.79890474E-01 0.65929168E+03</pdfrwt>
<pdfrwt beam="2">  1       -1 0.32193892E-01 0.65929168E+03</pdfrwt>
<totfact> 0.38322221E+02</totfact>
</mgrwt>
</event>
<event>
 4    1  0.4047984E-006  0.6017331E+03  0.7818608E-02  0.9901817E-01
         -1   -1    0    0    0  501 -0.00000000000E+00  0.00000000000E+00  0.14956459050E+03  0.14956459059E+03  0.50400000000E-02 0. -1.
          1   -1    0    0  501    0  0.00000000000E+00 -0.00000000000E+00 -0.60522799754E+03  0.60522799756E+03  0.50400000000E-02 0.  1.
   -5000001    1    1    2    0    0  0.16534452576E+03 -0.25497561625E+02 -0.23489855323E+03  0.38166250557E+03  0.25000000000E+03 0.  0.
    5000001    1    1    2    0    0 -0.16534452576E+03  0.25497561625E+02 -0.22076485381E+03  0.37313008258E+03  0.25000000000E+03 0.  0.
<mgrwt>
<rscale>  0 0.60173309E+03</rscale>
<asrwt>0</asrwt>
<pdfrwt beam="1">  1        1 0.93111999E-01 0.60173309E+03</pdfrwt>
<pdfrwt beam="2">  1       -1 0.23009937E-01 0.60173309E+03</pdfrwt>
<totfact> 0.55122620E+02</totfact>
</mgrwt>
</event>
<event>
 4    1  0.4047984E-006  0.7514636E+03  0.7818608E-02  0.9633057E-01
          1   -1    0    0  501    0  0.00000000000E+00  0.00000000000E+00  0.75604527575E+03  0.75604527577E+03  0.50400000000E-02 0. -1.
         -1   -1    0    0    0  501 -0.00000000000E+00 -0.00000000000E+00 -0.18672743656E+03  0.18672743663E+03  0.50400000000E-02 0.  1.
   -5000001    1    1    2    0    0  0.12331203927E+03 -0.16772213511E+03  0.48818123560E+02  0.32896775347E+03  0.25000000000E+03 0.  0.
    5000001    1    1    2    0    0 -0.12331203927E+03  0.16772213511E+03  0.52049971563E+03  0.61380495893E+03  0.25000000000E+03 0.  0.
<mgrwt>
<rscale>  0 0.75146363E+03</rscale>
<asrwt>0</asrwt>
<pdfrwt beam="1">  1        1 0.11631466E+00 0.75146363E+03</pdfrwt>
<pdfrwt beam="2">  1       -1 0.28727298E-01 0.75146363E+03</pdfrwt>
<totfact> 0.26912340E+02</totfact>
</mgrwt>
</event>
<event>
 4    1  0.4047984E-006  0.1261442E+04  0.7818608E-02  0.9060714E-01
         -1   -1    0    0    0  501 -0.00000000000E+00  0.00000000000E+00  0.10666010734E+04  0.10666010734E+04  0.50400000000E-02 0. -1.
          1   -1    0    0  501    0  0.00000000000E+00 -0.00000000000E+00 -0.37296884608E+03  0.37296884611E+03  0.50400000000E-02 0.  1.
   -5000001    1    1    2    0    0 -0.73985266216E+02  0.25820536030E+03  0.93225243640E+03  0.10018674727E+04  0.25000000000E+03 0.  0.
    5000001    1    1    2    0    0  0.73985266216E+02 -0.25820536030E+03 -0.23862020912E+03  0.43770244677E+03  0.25000000000E+03 0.  0.
<mgrwt>
<rscale>  0 0.12614420E+04</rscale>
<asrwt>0</asrwt>
<pdfrwt beam="1">  1        1 0.57379824E-01 0.12614420E+04</pdfrwt>
<pdfrwt beam="2">  1       -1 0.16409247E+00 0.12614420E+04</pdfrwt>
<totfact> 0.17660567E+01</totfact>
</mgrwt>
</event>
<event>
 4    1  0.4047984E-006  0.9044826E+03  0.7818608E-02  0.9419995E-01
         -1   -1    0    0    0  501 -0.00000000000E+00  0.00000000000E+00  0.31746221275E+03  0.31746221279E+03  0.50400000000E-02 0.  1.
          1   -1    0    0  501    0  0.00000000000E+00 -0.00000000000E+00 -0.64424103399E+03  0.64424103401E+03  0.50400000000E-02 0. -1.
   -5000001    1    1    2    0    0 -0.32032190486E+03 -0.19815304978E+03 -0.17647361574E+03  0.48529752825E+03  0.25000000000E+03 0.  0.
    5000001    1    1    2    0    0  0.32032190486E+03  0.19815304978E+03 -0.15030520550E+03  0.47640571856E+03  0.25000000000E+03 0.  0.
<mgrwt>
<rscale>  0 0.90448258E+03</rscale>
<asrwt>0</asrwt>
<pdfrwt beam="1">  1        1 0.99114005E-01 0.90448258E+03</pdfrwt>
<pdfrwt beam="2">  1       -1 0.48840341E-01 0.90448258E+03</pdfrwt>
<totfact> 0.13046616E+02</totfact>
</mgrwt>
</event>
<event>
 4    1  0.4047984E-006  0.9755780E+03  0.7818608E-02  0.9335744E-01
          1   -1    0    0  501    0  0.00000000000E+00  0.00000000000E+00  0.43316981836E+04  0.43316981836E+04  0.50400000000E-02 0.  1.
         -1   -1    0    0    0  501 -0.00000000000E+00 -0.00000000000E+00 -0.54929522800E+02  0.54929523032E+02  0.50400000000E-02 0. -1.
   -5000001    1    1    2    0    0 -0.28433869973E+03  0.26831281184E+03  0.28143153355E+04  0.28523167897E+04  0.25000000000E+03 0.  0.
    5000001    1    1    2    0    0  0.28433869973E+03 -0.26831281184E+03  0.14624533254E+04  0.15343109170E+04  0.25000000000E+03 0.  0.
<mgrwt>
<rscale>  0 0.97557801E+03</rscale>
<asrwt>0</asrwt>
<pdfrwt beam="1">  1        1 0.66641523E+00 0.97557801E+03</pdfrwt>
<pdfrwt beam="2">  1       -1 0.84506943E-02 0.97557801E+03</pdfrwt>
<totfact> 0.41812595E+00</totfact>
</mgrwt>
</event>
<event>
 4    1  0.4047984E-006  0.6623507E+03  0.7818608E-02  0.9783876E-01
         -1   -1    0    0    0  501 -0.00000000000E+00  0.00000000000E+00  0.52540466521E+03  0.52540466523E+03  0.50400000000E-02 0.  1.
          1   -1    0    0  501    0  0.00000000000E+00 -0.00000000000E+00 -0.20874790466E+03  0.20874790472E+03  0.50400000000E-02 0. -1.
   -5000001    1    1    2    0    0  0.15739671612E+03  0.12677988392E+03  0.70140480342E+02  0.32903883083E+03  0.25000000000E+03 0.  0.
    5000001    1    1    2    0    0 -0.15739671612E+03 -0.12677988392E+03  0.24651628021E+03  0.40511373912E+03  0.25000000000E+03 0.  0.
<mgrwt>
<rscale>  0 0.66235073E+03</rscale>
<asrwt>0</asrwt>
<pdfrwt beam="1">  1        1 0.32115062E-01 0.66235073E+03</pdfrwt>
<pdfrwt beam="2">  1       -1 0.80831487E-01 0.66235073E+03</pdfrwt>
<totfact> 0.21797275E+02</totfact>
</mgrwt>
</event>
<event>
 4    1  0.4047984E-006  0.1040980E+04  0.7818608E-02  0.9264706E-01
          1   -1    0    0  501    0  0.00000000000E+00  0.00000000000E+00  0.91363597560E+03  0.91363597561E+03  0.50400000000E-02 0. -1.
         -1   -1    0    0    0  501 -0.00000000000E+00 -0.00000000000E+00 -0.29651842507E+03  0.29651842511E+03  0.50400000000E-02 0.  1.
   -5000001    1    1    2    0    0  0.13783240475E+03 -0.36674497319E+03  0.58097004748E+03  0.74399317418E+03  0.25000000000E+03 0.  0.
    5000001    1    1    2    0    0 -0.13783240475E+03  0.36674497319E+03  0.36147503046E+02  0.46616122655E+03  0.25000000000E+03 0.  0.
<mgrwt>
<rscale>  0 0.10409801E+04</rscale>
<asrwt>0</asrwt>
<pdfrwt beam="1">  1        1 0.14055938E+00 0.10409801E+04</pdfrwt>
<pdfrwt beam="2">  1       -1 0.45618221E-01 0.10409801E+04</pdfrwt>
<totfact> 0.84629960E+01</totfact>
</mgrwt>
</event>
<event>
 4    1  0.4047984E-006  0.6320867E+03  0.7818608E-02  0.9840985E-01
          1   -1    0    0  501    0  0.00000000000E+00  0.00000000000E+00  0.16431569810E+04  0.16431569810E+04  0.50400000000E-02 0. -1.
         -1   -1    0    0    0  501 -0.00000000000E+00 -0.00000000000E+00 -0.60787502980E+02  0.60787503189E+02  0.50400000000E-02 0.  1.
   -5000001    1    1    2    0    0 -0.17247977534E+03 -0.46018527581E+02  0.99140494808E+03  0.10379069076E+04  0.25000000000E+03 0.  0.
    5000001    1    1    2    0    0  0.17247977534E+03  0.46018527581E+02  0.59096452996E+03  0.66603757661E+03  0.25000000000E+03 0.  0.
<mgrwt>
<rscale>  0 0.63208673E+03</rscale>
<asrwt>0</asrwt>
<pdfrwt beam="1">  1        1 0.25279336E+00 0.63208673E+03</pdfrwt>
<pdfrwt beam="2">  1       -1 0.93519245E-02 0.63208673E+03</pdfrwt>
<totfact> 0.37621840E+02</totfact>
</mgrwt>
</event>
<event>
 4    1  0.4047984E-006  0.9776023E+03  0.7818608E-02  0.9333457E-01
         -1   -1    0    0    0  501 -0.00000000000E+00  0.00000000000E+00  0.28687409777E+03  0.28687409782E+03  0.50400000000E-02 0. -1.
          1   -1    0    0  501    0  0.00000000000E+00 -0.00000000000E+00 -0.83286204254E+03  0.83286204255E+03  0.50400000000E-02 0.  1.
   -5000001    1    1    2    0    0 -0.67001998764E+02  0.39098630537E+03 -0.43115320379E+03  0.63698716154E+03  0.25000000000E+03 0.  0.
    5000001    1    1    2    0    0  0.67001998764E+02 -0.39098630537E+03 -0.11483474098E+03  0.48274897883E+03  0.25000000000E+03 0.  0.
<mgrwt>
<rscale>  0 0.97760226E+03</rscale>
<asrwt>0</asrwt>
<pdfrwt beam="1">  1        1 0.12813262E+00 0.97760226E+03</pdfrwt>
<pdfrwt beam="2">  1       -1 0.44134477E-01 0.97760226E+03</pdfrwt>
<totfact> 0.10550644E+02</totfact>
</mgrwt>
</event>
<event>
 4    1  0.4047984E-006  0.8757464E+03  0.7818608E-02  0.9456418E-01
          1   -1    0    0  501    0  0.00000000000E+00  0.00000000000E+00  0.13445504954E+04  0.13445504954E+04  0.50400000000E-02 0.  1.
         -1   -1    0    0    0  501 -0.00000000000E+00 -0.00000000000E+00 -0.14260003367E+03  0.14260003375E+03  0.50400000000E-02 0. -1.
   -5000001    1    1    2    0    0 -0.56016757028E+02 -0.48185576642E+02  0.35412719530E+01  0.26071491609E+03  0.25000000000E+03 0.  0.
    5000001    1    1    2    0    0  0.56016757028E+02  0.48185576642E+02  0.11984091897E+04  0.12264356130E+04  0.25000000000E+03 0.  0.
<mgrwt>
<rscale>  0 0.87574642E+03</rscale>
<asrwt>0</asrwt>
<pdfrwt beam="1">  1        1 0.20685392E+00 0.87574642E+03</pdfrwt>
<pdfrwt beam="2">  1       -1 0.21938467E-01 0.87574642E+03</pdfrwt>
<totfact> 0.14844124E+02</totfact>
</mgrwt>
</event>
<event>
 4    1  0.4047984E-006  0.7053281E+03  0.7818608E-02  0.9708164E-01
         -1   -1    0    0    0  501 -0.00000000000E+00  0.00000000000E+00  0.12998460432E+03  0.12998460442E+03  0.50400000000E-02 0. -1.
          1   -1    0    0  501    0  0.00000000000E+00 -0.00000000000E+00 -0.95682041414E+03  0.95682041416E+03  0.50400000000E-02 0.  1.
   -5000001    1    1    2    0    0  0.24110887557E+03  0.56949589079E+02 -0.37913000511E+03  0.51731644701E+03  0.25000000000E+03 0.  0.
    5000001    1    1    2    0    0 -0.24110887557E+03 -0.56949589079E+02 -0.44770580471E+03  0.56948857157E+03  0.25000000000E+03 0.  0.
<mgrwt>
<rscale>  0 0.70532807E+03</rscale>
<asrwt>0</asrwt>
<pdfrwt beam="1">  1        1 0.14720314E+00 0.70532807E+03</pdfrwt>
<pdfrwt beam="2">  1       -1 0.19997632E-01 0.70532807E+03</pdfrwt>
<totfact> 0.33885039E+02</totfact>
</mgrwt>
</event>
<event>
 4    1  0.4047984E-006  0.8049619E+03  0.7818608E-02  0.9552863E-01
          1   -1    0    0  501    0  0.00000000000E+00  0.00000000000E+00  0.16307429593E+04  0.16307429593E+04  0.50400000000E-02 0.  1.
         -1   -1    0    0    0  501 -0.00000000000E+00 -0.00000000000E+00 -0.99335642168E+02  0.99335642295E+02  0.50400000000E-02 0. -1.
   -5000001    1    1    2    0    0 -0.11212837190E+01 -0.11297315196E+03  0.13275721523E+03  0.30477642385E+03  0.25000000000E+03 0.  0.
    5000001    1    1    2    0    0  0.11212837190E+01  0.11297315196E+03  0.13986501019E+04  0.14253021778E+04  0.25000000000E+03 0.  0.
<mgrwt>
<rscale>  0 0.80496186E+03</rscale>
<asrwt>0</asrwt>
<pdfrwt beam="1">  1        1 0.25088351E+00 0.80496186E+03</pdfrwt>
<pdfrwt beam="2">  1       -1 0.15282408E-01 0.80496186E+03</pdfrwt>
<totfact> 0.17252168E+02</totfact>
</mgrwt>
</event>
<event>
 4    1  0.4047984E-006  0.8485412E+03  0.7818608E-02  0.9492297E-01
         -1   -1    0    0    0  501 -0.00000000000E+00  0.00000000000E+00  0.58252397347E+02  0.58252397565E+02  0.50400000000E-02 0. -1.
          1   -1    0    0  501    0  0.00000000000E+00 -0.00000000000E+00 -0.30900966194E+04  0.30900966194E+04  0.50400000000E-02 0.  1.
   -5000001    1    1    2    0    0  0.47110551064E+02 -0.81115217409E+02 -0.29260906191E+03  0.39613021297E+03  0.25000000000E+03 0.  0.
    5000001    1    1    2    0    0 -0.47110551064E+02  0.81115217409E+02 -0.27392351601E+04  0.27522188040E+04  0.25000000000E+03 0.  0.
<mgrwt>
<rscale>  0 0.84854119E+03</rscale>
<asrwt>0</asrwt>
<pdfrwt beam="1">  1        1 0.47539935E+00 0.84854119E+03</pdfrwt>
<pdfrwt beam="2">  1       -1 0.89619097E-02 0.84854119E+03</pdfrwt>
<totfact> 0.40337151E+01</totfact>
</mgrwt>
</event>
<event>
 4    1  0.4047984E-006  0.6842189E+03  0.7818608E-02  0.9744607E-01
         -1   -1    0    0    0  501 -0.00000000000E+00  0.00000000000E+00  0.97201359563E+02  0.97201359694E+02  0.50400000000E-02 0. -1.
          1   -1    0    0  501    0  0.00000000000E+00 -0.00000000000E+00 -0.12040869168E+04  0.12040869168E+04  0.50400000000E-02 0.  1.
   -5000001    1    1    2    0    0 -0.85869400992E+02  0.11977710768E+03 -0.89798275683E+03  0.94371242501E+03  0.25000000000E+03 0.  0.
    5000001    1    1    2    0    0  0.85869400992E+02 -0.11977710768E+03 -0.20890280039E+03  0.35757585148E+03  0.25000000000E+03 0.  0.
<mgrwt>
<rscale>  0 0.68421893E+03</rscale>
<asrwt>0</asrwt>
<pdfrwt beam="1">  1        1 0.18524413E+00 0.68421893E+03</pdfrwt>
<pdfrwt beam="2">  1       -1 0.14954056E-01 0.68421893E+03</pdfrwt>
<totfact> 0.35653494E+02</totfact>
</mgrwt>
</event>
<event>
 4    1  0.4047984E-006  0.1736559E+04  0.7818608E-02  0.8740784E-01
         -1   -1    0    0    0  501 -0.00000000000E+00  0.00000000000E+00  0.12503459709E+04  0.12503459709E+04  0.50400000000E-02 0. -1.
          1   -1    0    0  501    0  0.00000000000E+00 -0.00000000000E+00 -0.60296081838E+03  0.60296081840E+03  0.50400000000E-02 0.  1.
   -5000001    1    1    2    0    0 -0.10420469800E+03 -0.82486894585E+03  0.33642050878E+03  0.93109943381E+03  0.25000000000E+03 0.  0.
    5000001    1    1    2    0    0  0.10420469800E+03  0.82486894585E+03  0.31096464377E+03  0.92220735553E+03  0.25000000000E+03 0.  0.
<mgrwt>
<rscale>  0 0.17365594E+04</rscale>
<asrwt>0</asrwt>
<pdfrwt beam="1">  1        1 0.92763204E-01 0.17365594E+04</pdfrwt>
<pdfrwt beam="2">  1       -1 0.19236092E+00 0.17365594E+04</pdfrwt>
<totfact> 0.54862281E+00</totfact>
</mgrwt>
</event>
<event>
 4    1  0.4047984E-006  0.5152016E+03  0.7818608E-02  0.1009886E+00
          1   -1    0    0  501    0  0.00000000000E+00  0.00000000000E+00  0.49456077602E+03  0.49456077604E+03  0.50400000000E-02 0.  1.
         -1   -1    0    0    0  501 -0.00000000000E+00 -0.00000000000E+00 -0.13417597831E+03  0.13417597840E+03  0.50400000000E-02 0. -1.
   -5000001    1    1    2    0    0  0.60301737511E+02 -0.56888662209E-01  0.19837031380E+03  0.32478775251E+03  0.25000000000E+03 0.  0.
    5000001    1    1    2    0    0 -0.60301737511E+02  0.56888662209E-01  0.16201448391E+03  0.30394900194E+03  0.25000000000E+03 0.  0.
<mgrwt>
<rscale>  0 0.51520161E+03</rscale>
<asrwt>0</asrwt>
<pdfrwt beam="1">  1        1 0.76086274E-01 0.51520161E+03</pdfrwt>
<pdfrwt beam="2">  1       -1 0.20642458E-01 0.51520161E+03</pdfrwt>
<totfact> 0.87730043E+02</totfact>
</mgrwt>
</event>
<event>
 4    1  0.4047984E-006  0.9028373E+03  0.7818608E-02  0.9422042E-01
         -1   -1    0    0    0  501 -0.00000000000E+00  0.00000000000E+00  0.73030095214E+03  0.73030095216E+03  0.50400000000E-02 0.  1.
          1   -1    0    0  501    0  0.00000000000E+00 -0.00000000000E+00 -0.27903402983E+03  0.27903402988E+03  0.50400000000E-02 0. -1.
   -5000001    1    1    2    0    0  0.32731534909E+03 -0.37606697911E+02  0.42788582835E+03  0.59509317218E+03  0.25000000000E+03 0.  0.
    5000001    1    1    2    0    0 -0.32731534909E+03  0.37606697911E+02  0.23381093962E+02  0.41424180986E+03  0.25000000000E+03 0.  0.
<mgrwt>
<rscale>  0 0.90283734E+03</rscale>
<asrwt>0</asrwt>
<pdfrwt beam="1">  1        1 0.42928313E-01 0.90283734E+03</pdfrwt>
<pdfrwt beam="2">  1       -1 0.11235399E+00 0.90283734E+03</pdfrwt>
<totfact> 0.70521976E+01</totfact>
</mgrwt>
</event>
<event>
 4    1  0.4047984E-006  0.5577451E+03  0.7818608E-02  0.9997170E-01
         -1   -1    0    0    0  501 -0.00000000000E+00  0.00000000000E+00  0.33019927135E+02  0.33019927519E+02  0.50400000000E-02 0. -1.
          1   -1    0    0  501    0  0.00000000000E+00 -0.00000000000E+00 -0.23552416324E+04  0.23552416324E+04  0.50400000000E-02 0.  1.
   -5000001    1    1    2    0    0  0.23596026307E+02  0.86142161372E+02 -0.79544098225E+03  0.83857235863E+03  0.25000000000E+03 0.  0.
    5000001    1    1    2    0    0 -0.23596026307E+02 -0.86142161372E+02 -0.15267807230E+04  0.15496892013E+04  0.25000000000E+03 0.  0.
<mgrwt>
<rscale>  0 0.55774513E+03</rscale>
<asrwt>0</asrwt>
<pdfrwt beam="1">  1        1 0.36234474E+00 0.55774513E+03</pdfrwt>
<pdfrwt beam="2">  1       -1 0.50799906E-02 0.55774513E+03</pdfrwt>
<totfact> 0.32659523E+02</totfact>
</mgrwt>
</event>
<event>
 4    1  0.4047984E-006  0.1045471E+04  0.7818608E-02  0.9260033E-01
         -1   -1    0    0    0  501 -0.00000000000E+00  0.00000000000E+00  0.23587765204E+03  0.23587765210E+03  0.50400000000E-02 0. -1.
          1   -1    0    0  501    0  0.00000000000E+00 -0.00000000000E+00 -0.11584488605E+04  0.11584488606E+04  0.50400000000E-02 0.  1.
   -5000001    1    1    2    0    0 -0.42267268255E+03  0.13510784489E+03 -0.61821806990E+03  0.80099931852E+03  0.25000000000E+03 0.  0.
    5000001    1    1    2    0    0  0.42267268255E+03 -0.13510784489E+03 -0.30435313860E+03  0.59332719413E+03  0.25000000000E+03 0.  0.
<mgrwt>
<rscale>  0 0.10454706E+04</rscale>
<asrwt>0</asrwt>
<pdfrwt beam="1">  1        1 0.17822290E+00 0.10454706E+04</pdfrwt>
<pdfrwt beam="2">  1       -1 0.36288870E-01 0.10454706E+04</pdfrwt>
<totfact> 0.83279074E+01</totfact>
</mgrwt>
</event>
<event>
 4    1  0.4047984E-006  0.1057907E+04  0.7818608E-02  0.9247218E-01
          1   -1    0    0  501    0  0.00000000000E+00  0.00000000000E+00  0.42863763197E+03  0.42863763200E+03  0.50400000000E-02 0.  1.
         -1   -1    0    0    0  501 -0.00000000000E+00 -0.00000000000E+00 -0.65274726189E+03  0.65274726191E+03  0.50400000000E-02 0. -1.
   -5000001    1    1    2    0    0  0.85831423783E+02  0.34656831757E+03 -0.41839787766E+03  0.60417995339E+03  0.25000000000E+03 0.  0.
    5000001    1    1    2    0    0 -0.85831423783E+02 -0.34656831757E+03  0.19428824773E+03  0.47720494052E+03  0.25000000000E+03 0.  0.
<mgrwt>
<rscale>  0 0.10579074E+04</rscale>
<asrwt>0</asrwt>
<pdfrwt beam="1">  1        1 0.65944250E-01 0.10579074E+04</pdfrwt>
<pdfrwt beam="2">  1       -1 0.10042266E+00 0.10579074E+04</pdfrwt>
<totfact> 0.51604187E+01</totfact>
</mgrwt>
</event>
<event>
 4    1  0.4047984E-006  0.5541215E+03  0.7818608E-02  0.1000544E+00
          1   -1    0    0  501    0  0.00000000000E+00  0.00000000000E+00  0.17767280231E+03  0.17767280238E+03  0.50400000000E-02 0. -1.
         -1   -1    0    0    0  501 -0.00000000000E+00 -0.00000000000E+00 -0.43204513709E+03  0.43204513712E+03  0.50400000000E-02 0.  1.
   -5000001    1    1    2    0    0 -0.55555127635E+02  0.99324395274E+02 -0.87346189869E+02  0.28823786113E+03  0.25000000000E+03 0.  0.
    5000001    1    1    2    0    0  0.55555127635E+02 -0.99324395274E+02 -0.16702614491E+03  0.32148007837E+03  0.25000000000E+03 0.  0.
<mgrwt>
<rscale>  0 0.55412154E+03</rscale>
<asrwt>0</asrwt>
<pdfrwt beam="1">  1        1 0.27334277E-01 0.55412154E+03</pdfrwt>
<pdfrwt beam="2">  1       -1 0.66468482E-01 0.55412154E+03</pdfrwt>
<totfact> 0.40371131E+02</totfact>
</mgrwt>
</event>
<event>
 4    1  0.4047984E-006  0.8961315E+03  0.7818608E-02  0.9430430E-01
          1   -1    0    0  501    0  0.00000000000E+00  0.00000000000E+00  0.45835840600E+03  0.45835840603E+03  0.50400000000E-02 0.  1.
         -1   -1    0    0    0  501 -0.00000000000E+00 -0.00000000000E+00 -0.43800426827E+03  0.43800426830E+03  0.50400000000E-02 0. -1.
   -5000001    1    1    2    0    0  0.39654974933E+02 -0.36502859549E+03  0.68882457987E+02  0.44951438863E+03  0.25000000000E+03 0.  0.
    5000001    1    1    2    0    0 -0.39654974933E+02  0.36502859549E+03 -0.48528320259E+02  0.44684828570E+03  0.25000000000E+03 0.  0.
<mgrwt>
<rscale>  0 0.89613155E+03</rscale>
<asrwt>0</asrwt>
<pdfrwt beam="1">  1        1 0.70516678E-01 0.89613155E+03</pdfrwt>
<pdfrwt beam="2">  1       -1 0.67385272E-01 0.89613155E+03</pdfrwt>
<totfact> 0.11233606E+02</totfact>
</mgrwt>
</event>
<event>
 4    1  0.4047984E-006  0.7078722E+03  0.7818608E-02  0.9703864E-01
         -1   -1    0    0    0  501 -0.00000000000E+00  0.00000000000E+00  0.73161854420E+02  0.73161854594E+02  0.50400000000E-02 0. -1.
          1   -1    0    0  501    0  0.00000000000E+00 -0.00000000000E+00 -0.17122416169E+04  0.17122416169E+04  0.50400000000E-02 0.  1.
   -5000001    1    1    2    0    0 -0.20706875522E+03  0.11401439143E+03 -0.10289597149E+04  0.10849584535E+04  0.25000000000E+03 0.  0.
    5000001    1    1    2    0    0  0.20706875522E+03 -0.11401439143E+03 -0.61012004758E+03  0.70044501805E+03  0.25000000000E+03 0.  0.
<mgrwt>
<rscale>  0 0.70787223E+03</rscale>
<asrwt>0</asrwt>
<pdfrwt beam="1">  1        1 0.26342176E+00 0.70787223E+03</pdfrwt>
<pdfrwt beam="2">  1       -1 0.11255671E-01 0.70787223E+03</pdfrwt>
<totfact> 0.25069250E+02</totfact>
</mgrwt>
</event>
<event>
 4    1  0.4047984E-006  0.8357420E+03  0.7818608E-02  0.9509676E-01
          1   -1    0    0  501    0  0.00000000000E+00  0.00000000000E+00  0.73053439882E+03  0.73053439884E+03  0.50400000000E-02 0.  1.
         -1   -1    0    0    0  501 -0.00000000000E+00 -0.00000000000E+00 -0.23902523181E+03  0.23902523187E+03  0.50400000000E-02 0. -1.
   -5000001    1    1    2    0    0 -0.10305884663E+03  0.16652512153E+03  0.56083815698E+03  0.64450847962E+03  0.25000000000E+03 0.  0.
    5000001    1    1    2    0    0  0.10305884663E+03 -0.16652512153E+03 -0.69328989975E+02  0.32505115109E+03  0.25000000000E+03 0.  0.
<mgrwt>
<rscale>  0 0.83574196E+03</rscale>
<asrwt>0</asrwt>
<pdfrwt beam="1">  1        1 0.11238991E+00 0.83574196E+03</pdfrwt>
<pdfrwt beam="2">  1       -1 0.36773113E-01 0.83574196E+03</pdfrwt>
<totfact> 0.18277380E+02</totfact>
</mgrwt>
</event>
<event>
 4    1  0.4047984E-006  0.1632578E+04  0.7818608E-02  0.8800780E-01
         -1   -1    0    0    0  501 -0.00000000000E+00  0.00000000000E+00  0.33588592926E+03  0.33588592930E+03  0.50400000000E-02 0.  1.
          1   -1    0    0  501    0  0.00000000000E+00 -0.00000000000E+00 -0.19837921497E+04  0.19837921497E+04  0.50400000000E-02 0. -1.
   -5000001    1    1    2    0    0 -0.22178871318E+03 -0.53014195440E+03 -0.80760167563E+02  0.63187255817E+03  0.25000000000E+03 0.  0.
    5000001    1    1    2    0    0  0.22178871318E+03  0.53014195440E+03 -0.15671460529E+04  0.16878055208E+04  0.25000000000E+03 0.  0.
<mgrwt>
<rscale>  0 0.16325782E+04</rscale>
<asrwt>0</asrwt>
<pdfrwt beam="1">  1        1 0.30519879E+00 0.16325782E+04</pdfrwt>
<pdfrwt beam="2">  1       -1 0.51674759E-01 0.16325782E+04</pdfrwt>
<totfact> 0.11026971E+01</totfact>
</mgrwt>
</event>
<event>
 4    1  0.4047984E-006  0.1360018E+04  0.7818608E-02  0.8983279E-01
          1   -1    0    0  501    0  0.00000000000E+00  0.00000000000E+00  0.42899909813E+03  0.42899909816E+03  0.50400000000E-02 0.  1.
         -1   -1    0    0    0  501 -0.00000000000E+00 -0.00000000000E+00 -0.10778861224E+04  0.10778861224E+04  0.50400000000E-02 0. -1.
   -5000001    1    1    2    0    0 -0.25364839153E+03 -0.38835132937E+03 -0.80069579632E+03  0.95852387544E+03  0.25000000000E+03 0.  0.
    5000001    1    1    2    0    0  0.25364839153E+03  0.38835132937E+03  0.15180877206E+03  0.54836134512E+03  0.25000000000E+03 0.  0.
<mgrwt>
<rscale>  0 0.13600179E+04</rscale>
<asrwt>0</asrwt>
<pdfrwt beam="1">  1        1 0.65999862E-01 0.13600179E+04</pdfrwt>
<pdfrwt beam="2">  1       -1 0.16582863E+00 0.13600179E+04</pdfrwt>
<totfact> 0.14113979E+01</totfact>
</mgrwt>
</event>
<event>
 4    1  0.4047984E-006  0.7441175E+03  0.7818608E-02  0.9644624E-01
          1   -1    0    0  501    0  0.00000000000E+00  0.00000000000E+00  0.85541197173E+03  0.85541197174E+03  0.50400000000E-02 0.  1.
         -1   -1    0    0    0  501 -0.00000000000E+00 -0.00000000000E+00 -0.16182579826E+03  0.16182579834E+03  0.50400000000E-02 0. -1.
   -5000001    1    1    2    0    0  0.14960670140E+03  0.19601677486E+03  0.17868071006E+03  0.39399433661E+03  0.25000000000E+03 0.  0.
    5000001    1    1    2    0    0 -0.14960670140E+03 -0.19601677486E+03  0.51490546341E+03  0.62324343348E+03  0.25000000000E+03 0.  0.
<mgrwt>
<rscale>  0 0.74411753E+03</rscale>
<asrwt>0</asrwt>
<pdfrwt beam="1">  1        1 0.13160184E+00 0.74411753E+03</pdfrwt>
<pdfrwt beam="2">  1       -1 0.24896276E-01 0.74411753E+03</pdfrwt>
<totfact> 0.28258862E+02</totfact>
</mgrwt>
</event>
<event>
 4    1  0.4047984E-006  0.7986888E+03  0.7818608E-02  0.9561917E-01
         -1   -1    0    0    0  501 -0.00000000000E+00  0.00000000000E+00  0.47933097527E+03  0.47933097530E+03  0.50400000000E-02 0. -1.
          1   -1    0    0  501    0  0.00000000000E+00 -0.00000000000E+00 -0.33270532814E+03  0.33270532818E+03  0.50400000000E-02 0.  1.
   -5000001    1    1    2    0    0  0.12191797153E+02 -0.24098507006E+03 -0.12683618047E+03  0.36987816992E+03  0.25000000000E+03 0.  0.
    5000001    1    1    2    0    0 -0.12191797153E+02  0.24098507006E+03  0.27346182760E+03  0.44215813355E+03  0.25000000000E+03 0.  0.
<mgrwt>
<rscale>  0 0.79868885E+03</rscale>
<asrwt>0</asrwt>
<pdfrwt beam="1">  1        1 0.51185435E-01 0.79868885E+03</pdfrwt>
<pdfrwt beam="2">  1       -1 0.73743227E-01 0.79868885E+03</pdfrwt>
<totfact> 0.14357531E+02</totfact>
</mgrwt>
</event>
<event>
 4    1  0.4047984E-006  0.5913650E+03  0.7818608E-02  0.9923485E-01
          1   -1    0    0  501    0  0.00000000000E+00  0.00000000000E+00  0.22501718745E+03  0.22501718751E+03  0.50400000000E-02 0. -1.
         -1   -1    0    0    0  501 -0.00000000000E+00 -0.00000000000E+00 -0.38853984310E+03  0.38853984313E+03  0.50400000000E-02 0.  1.
   -5000001    1    1    2    0    0 -0.13979492213E+03 -0.68632659380E+02 -0.10871867251E+03  0.31396307417E+03  0.25000000000E+03 0.  0.
    5000001    1    1    2    0    0  0.13979492213E+03  0.68632659380E+02 -0.54803983141E+02  0.29959395647E+03  0.25000000000E+03 0.  0.
<mgrwt>
<rscale>  0 0.59136501E+03</rscale>
<asrwt>0</asrwt>
<pdfrwt beam="1">  1        1 0.34618029E-01 0.59136501E+03</pdfrwt>
<pdfrwt beam="2">  1       -1 0.59775360E-01 0.59136501E+03</pdfrwt>
<totfact> 0.36692347E+02</totfact>
</mgrwt>
</event>
<event>
 4    1  0.4047984E-006  0.1092488E+04  0.7818608E-02  0.9212544E-01
         -1   -1    0    0    0  501 -0.00000000000E+00  0.00000000000E+00  0.10725971309E+04  0.10725971309E+04  0.50400000000E-02 0.  1.
          1   -1    0    0  501    0  0.00000000000E+00 -0.00000000000E+00 -0.27818714708E+03  0.27818714712E+03  0.50400000000E-02 0. -1.
   -5000001    1    1    2    0    0 -0.15790194386E+03  0.45381174258E+03  0.30973593162E+03  0.62395069430E+03  0.25000000000E+03 0.  0.
    5000001    1    1    2    0    0  0.15790194386E+03 -0.45381174258E+03  0.48467405220E+03  0.72683358374E+03  0.25000000000E+03 0.  0.
<mgrwt>
<rscale>  0 0.10924884E+04</rscale>
<asrwt>0</asrwt>
<pdfrwt beam="1">  1        1 0.42798023E-01 0.10924884E+04</pdfrwt>
<pdfrwt beam="2">  1       -1 0.16501494E+00 0.10924884E+04</pdfrwt>
<totfact> 0.25847685E+01</totfact>
</mgrwt>
</event>
<event>
 4    1  0.4047984E-006  0.1232129E+04  0.7818608E-02  0.9085190E-01
         -1   -1    0    0    0  501 -0.00000000000E+00  0.00000000000E+00  0.37724266954E+03  0.37724266958E+03  0.50400000000E-02 0.  1.
          1   -1    0    0  501    0  0.00000000000E+00 -0.00000000000E+00 -0.10060774574E+04  0.10060774574E+04  0.50400000000E-02 0. -1.
   -5000001    1    1    2    0    0  0.17752924564E+03 -0.49851622329E+03 -0.98459472913E+02  0.59348911173E+03  0.25000000000E+03 0.  0.
    5000001    1    1    2    0    0 -0.17752924564E+03  0.49851622329E+03 -0.53037531491E+03  0.78983101522E+03  0.25000000000E+03 0.  0.
<mgrwt>
<rscale>  0 0.12321288E+04</rscale>
<asrwt>0</asrwt>
<pdfrwt beam="1">  1        1 0.15478115E+00 0.12321288E+04</pdfrwt>
<pdfrwt beam="2">  1       -1 0.58037334E-01 0.12321288E+04</pdfrwt>
<totfact> 0.44447999E+01</totfact>
</mgrwt>
</event>
<event>
 4    1  0.4047984E-006  0.8333009E+03  0.7818608E-02  0.9513028E-01
          1   -1    0    0  501    0  0.00000000000E+00  0.00000000000E+00  0.84363449770E+03  0.84363449771E+03  0.50400000000E-02 0. -1.
         -1   -1    0    0    0  501 -0.00000000000E+00 -0.00000000000E+00 -0.20577347261E+03  0.20577347267E+03  0.50400000000E-02 0.  1.
   -5000001    1    1    2    0    0 -0.47169867837E+01  0.31956822300E+03  0.19978150219E+03  0.45228171280E+03  0.25000000000E+03 0.  0.
    5000001    1    1    2    0    0  0.47169867837E+01 -0.31956822300E+03  0.43807952290E+03  0.59712625758E+03  0.25000000000E+03 0.  0.
<mgrwt>
<rscale>  0 0.83330091E+03</rscale>
<asrwt>0</asrwt>
<pdfrwt beam="1">  1        1 0.12978992E+00 0.83330091E+03</pdfrwt>
<pdfrwt beam="2">  1       -1 0.31657457E-01 0.83330091E+03</pdfrwt>
<totfact> 0.18983411E+02</totfact>
</mgrwt>
</event>
<event>
 4    1  0.4047984E-006  0.6015575E+03  0.7818608E-02  0.9902180E-01
          1   -1    0    0  501    0  0.00000000000E+00  0.00000000000E+00  0.19546669605E+03  0.19546669612E+03  0.50400000000E-02 0.  1.
         -1   -1    0    0    0  501 -0.00000000000E+00 -0.00000000000E+00 -0.46283005110E+03  0.46283005112E+03  0.50400000000E-02 0. -1.
   -5000001    1    1    2    0    0 -0.25970998480E+02  0.79046424441E+02  0.25070370679E+02  0.26467216224E+03  0.25000000000E+03 0.  0.
    5000001    1    1    2    0    0  0.25970998480E+02 -0.79046424441E+02 -0.29243372572E+03  0.39362458500E+03  0.25000000000E+03 0.  0.
<mgrwt>
<rscale>  0 0.60155751E+03</rscale>
<asrwt>0</asrwt>
<pdfrwt beam="1">  1        1 0.30071799E-01 0.60155751E+03</pdfrwt>
<pdfrwt beam="2">  1       -1 0.71204623E-01 0.60155751E+03</pdfrwt>
<totfact> 0.30986821E+02</totfact>
</mgrwt>
</event>
<event>
 4    1  0.4047984E-006  0.7116813E+03  0.7818608E-02  0.9697462E-01
         -1   -1    0    0    0  501 -0.00000000000E+00  0.00000000000E+00  0.72287827091E+02  0.72287827266E+02  0.50400000000E-02 0.  1.
          1   -1    0    0  501    0  0.00000000000E+00 -0.00000000000E+00 -0.17516442377E+04  0.17516442377E+04  0.50400000000E-02 0. -1.
   -5000001    1    1    2    0    0 -0.14247349728E+03  0.20929929755E+03 -0.85044905529E+03  0.92188312113E+03  0.25000000000E+03 0.  0.
    5000001    1    1    2    0    0  0.14247349728E+03 -0.20929929755E+03 -0.82890735531E+03  0.90204894384E+03  0.25000000000E+03 0.  0.
<mgrwt>
<rscale>  0 0.71168127E+03</rscale>
<asrwt>0</asrwt>
<pdfrwt beam="1">  1        1 0.26948370E+00 0.71168127E+03</pdfrwt>
<pdfrwt beam="2">  1       -1 0.11121206E-01 0.71168127E+03</pdfrwt>
<totfact> 0.24037584E+02</totfact>
</mgrwt>
</event>
<event>
 4    1  0.4047984E-006  0.9019845E+03  0.7818608E-02  0.9423104E-01
         -1   -1    0    0    0  501 -0.00000000000E+00  0.00000000000E+00  0.11198254681E+03  0.11198254692E+03  0.50400000000E-02 0. -1.
          1   -1    0    0  501    0  0.00000000000E+00 -0.00000000000E+00 -0.18163009832E+04  0.18163009832E+04  0.50400000000E-02 0.  1.
   -5000001    1    1    2    0    0  0.36679344860E+03  0.52633226045E+02 -0.72413376864E+03  0.85098613697E+03  0.25000000000E+03 0.  0.
    5000001    1    1    2    0    0 -0.36679344860E+03 -0.52633226045E+02 -0.98018466775E+03  0.10772973932E+04  0.25000000000E+03 0.  0.
<mgrwt>
<rscale>  0 0.90198450E+03</rscale>
<asrwt>0</asrwt>
<pdfrwt beam="1">  1        1 0.27943090E+00 0.90198450E+03</pdfrwt>
<pdfrwt beam="2">  1       -1 0.17228085E-01 0.90198450E+03</pdfrwt>
<totfact> 0.10543808E+02</totfact>
</mgrwt>
</event>
<event>
 4    1  0.4047984E-006  0.5393436E+03  0.7818608E-02  0.1003991E+00
          1   -1    0    0  501    0  0.00000000000E+00  0.00000000000E+00  0.21119047174E+04  0.21119047174E+04  0.50400000000E-02 0.  1.
         -1   -1    0    0    0  501 -0.00000000000E+00 -0.00000000000E+00 -0.34434735981E+02  0.34434736350E+02  0.50400000000E-02 0. -1.
   -5000001    1    1    2    0    0  0.82384770144E+02 -0.39106768453E+01  0.80599694305E+03  0.84789953175E+03  0.25000000000E+03 0.  0.
    5000001    1    1    2    0    0 -0.82384770144E+02  0.39106768453E+01  0.12714730384E+04  0.12984399220E+04  0.25000000000E+03 0.  0.
<mgrwt>
<rscale>  0 0.53934361E+03</rscale>
<asrwt>0</asrwt>
<pdfrwt beam="1">  1        1 0.32490835E+00 0.53934361E+03</pdfrwt>
<pdfrwt beam="2">  1       -1 0.52976529E-02 0.53934361E+03</pdfrwt>
<totfact> 0.44592689E+02</totfact>
</mgrwt>
</event>
<event>
 4    1  0.4047984E-006  0.7299512E+03  0.7818608E-02  0.9667340E-01
          1   -1    0    0  501    0  0.00000000000E+00  0.00000000000E+00  0.14391194330E+03  0.14391194339E+03  0.50400000000E-02 0.  1.
         -1   -1    0    0    0  501 -0.00000000000E+00 -0.00000000000E+00 -0.92561589836E+03  0.92561589837E+03  0.50400000000E-02 0. -1.
   -5000001    1    1    2    0    0  0.16980156998E+03 -0.18846268668E+03 -0.27403532663E+03  0.44938415379E+03  0.25000000000E+03 0.  0.
    5000001    1    1    2    0    0 -0.16980156998E+03  0.18846268668E+03 -0.50766862842E+03  0.62014368797E+03  0.25000000000E+03 0.  0.
<mgrwt>
<rscale>  0 0.72995118E+03</rscale>
<asrwt>0</asrwt>
<pdfrwt beam="1">  1        1 0.22140300E-01 0.72995118E+03</pdfrwt>
<pdfrwt beam="2">  1       -1 0.14240244E+00 0.72995118E+03</pdfrwt>
<totfact> 0.93492803E+01</totfact>
</mgrwt>
</event>
<event>
 4    1  0.4047984E-006  0.7417281E+03  0.7818608E-02  0.9648418E-01
         -1   -1    0    0    0  501 -0.00000000000E+00  0.00000000000E+00  0.69070354018E+02  0.69070354202E+02  0.50400000000E-02 0. -1.
          1   -1    0    0  501    0  0.00000000000E+00 -0.00000000000E+00 -0.19913050473E+04  0.19913050473E+04  0.50400000000E-02 0.  1.
   -5000001    1    1    2    0    0  0.14149795893E+03  0.21859462224E+03 -0.72484287891E+03  0.80975458032E+03  0.25000000000E+03 0.  0.
    5000001    1    1    2    0    0 -0.14149795893E+03 -0.21859462224E+03 -0.11973918144E+04  0.12506208212E+04  0.25000000000E+03 0.  0.
<mgrwt>
<rscale>  0 0.74172810E+03</rscale>
<asrwt>0</asrwt>
<pdfrwt beam="1">  1        1 0.30635458E+00 0.74172810E+03</pdfrwt>
<pdfrwt beam="2">  1       -1 0.10626210E-01 0.74172810E+03</pdfrwt>
<totfact> 0.17825485E+02</totfact>
</mgrwt>
</event>
<event>
 4    1  0.4047984E-006  0.1109120E+04  0.7818608E-02  0.9196348E-01
         -1   -1    0    0    0  501 -0.00000000000E+00  0.00000000000E+00  0.11836336797E+03  0.11836336807E+03  0.50400000000E-02 0.  1.
          1   -1    0    0  501    0  0.00000000000E+00 -0.00000000000E+00 -0.25982436697E+04  0.25982436697E+04  0.50400000000E-02 0. -1.
   -5000001    1    1    2    0    0  0.46229238517E+03  0.18246395502E+02 -0.80876189141E+03  0.96469838671E+03  0.25000000000E+03 0.  0.
    5000001    1    1    2    0    0 -0.46229238517E+03 -0.18246395502E+02 -0.16711184103E+04  0.17519086511E+04  0.25000000000E+03 0.  0.
<mgrwt>
<rscale>  0 0.11091201E+04</rscale>
<asrwt>0</asrwt>
<pdfrwt beam="1">  1        1 0.39972975E+00 0.11091201E+04</pdfrwt>
<pdfrwt beam="2">  1       -1 0.18209751E-01 0.11091201E+04</pdfrwt>
<totfact> 0.27841067E+01</totfact>
</mgrwt>
</event>
<event>
 4    1  0.4047984E-006  0.6765374E+03  0.7818608E-02  0.9758219E-01
          1   -1    0    0  501    0  0.00000000000E+00  0.00000000000E+00  0.13028117811E+03  0.13028117820E+03  0.50400000000E-02 0.  1.
         -1   -1    0    0    0  501 -0.00000000000E+00 -0.00000000000E+00 -0.87829822766E+03  0.87829822768E+03  0.50400000000E-02 0. -1.
   -5000001    1    1    2    0    0  0.44655748491E+02  0.21760164503E+03 -0.44974795396E+03  0.56046216098E+03  0.25000000000E+03 0.  0.
    5000001    1    1    2    0    0 -0.44655748491E+02 -0.21760164503E+03 -0.29826909559E+03  0.44811724490E+03  0.25000000000E+03 0.  0.
<mgrwt>
<rscale>  0 0.67653744E+03</rscale>
<asrwt>0</asrwt>
<pdfrwt beam="1">  1        1 0.20043259E-01 0.67653744E+03</pdfrwt>
<pdfrwt beam="2">  1       -1 0.13512280E+00 0.67653744E+03</pdfrwt>
<totfact> 0.12250944E+02</totfact>
</mgrwt>
</event>
<event>
 4    1  0.4047984E-006  0.9872928E+03  0.7818608E-02  0.9322593E-01
         -1   -1    0    0    0  501 -0.00000000000E+00  0.00000000000E+00  0.78790656085E+03  0.78790656086E+03  0.50400000000E-02 0. -1.
          1   -1    0    0  501    0  0.00000000000E+00 -0.00000000000E+00 -0.30928382994E+03  0.30928382998E+03  0.50400000000E-02 0.  1.
   -5000001    1    1    2    0    0  0.37247485343E+03 -0.20221939884E+03  0.28315621282E+03  0.56772144804E+03  0.25000000000E+03 0.  0.
    5000001    1    1    2    0    0 -0.37247485343E+03  0.20221939884E+03  0.19546651809E+03  0.52946894281E+03  0.25000000000E+03 0.  0.
<mgrwt>
<rscale>  0 0.98729278E+03</rscale>
<asrwt>0</asrwt>
<pdfrwt beam="1">  1        1 0.47582128E-01 0.98729278E+03</pdfrwt>
<pdfrwt beam="2">  1       -1 0.12121639E+00 0.98729278E+03</pdfrwt>
<totfact> 0.51069593E+01</totfact>
</mgrwt>
</event>
<event>
 4    1  0.4047984E-006  0.5907568E+03  0.7818608E-02  0.9924770E-01
          1   -1    0    0  501    0  0.00000000000E+00  0.00000000000E+00  0.36121968873E+02  0.36121969224E+02  0.50400000000E-02 0. -1.
         -1   -1    0    0    0  501 -0.00000000000E+00 -0.00000000000E+00 -0.24153833955E+04  0.24153833955E+04  0.50400000000E-02 0.  1.
   -5000001    1    1    2    0    0 -0.89980184563E+02  0.10262777294E+03 -0.15142560860E+04  0.15408116003E+04  0.25000000000E+03 0.  0.
    5000001    1    1    2    0    0  0.89980184563E+02 -0.10262777294E+03 -0.86500534057E+03  0.91069376445E+03  0.25000000000E+03 0.  0.
<mgrwt>
<rscale>  0 0.59075682E+03</rscale>
<asrwt>0</asrwt>
<pdfrwt beam="1">  1        1 0.55572279E-02 0.59075682E+03</pdfrwt>
<pdfrwt beam="2">  1       -1 0.37159732E+00 0.59075682E+03</pdfrwt>
<totfact> 0.18344404E+01</totfact>
</mgrwt>
</event>
<event>
 4    1  0.4047984E-006  0.9548649E+03  0.7818608E-02  0.9359482E-01
         -1   -1    0    0    0  501 -0.00000000000E+00  0.00000000000E+00  0.24872126501E+03  0.24872126506E+03  0.50400000000E-02 0. -1.
          1   -1    0    0  501    0  0.00000000000E+00 -0.00000000000E+00 -0.91645463844E+03  0.91645463845E+03  0.50400000000E-02 0.  1.
   -5000001    1    1    2    0    0  0.34755034318E+03 -0.53177607405E+02 -0.58341541943E+03  0.72559813299E+03  0.25000000000E+03 0.  0.
    5000001    1    1    2    0    0 -0.34755034318E+03  0.53177607405E+02 -0.84317954004E+02  0.43957777052E+03  0.25000000000E+03 0.  0.
<mgrwt>
<rscale>  0 0.95486493E+03</rscale>
<asrwt>0</asrwt>
<pdfrwt beam="1">  1        1 0.14099302E+00 0.95486493E+03</pdfrwt>
<pdfrwt beam="2">  1       -1 0.38264810E-01 0.95486493E+03</pdfrwt>
<totfact> 0.11697946E+02</totfact>
</mgrwt>
</event>
<event>
 4    1  0.4047984E-006  0.1755880E+04  0.7818608E-02  0.8730121E-01
         -1   -1    0    0    0  501 -0.00000000000E+00  0.00000000000E+00  0.10010142814E+04  0.10010142814E+04  0.50400000000E-02 0. -1.
          1   -1    0    0  501    0  0.00000000000E+00 -0.00000000000E+00 -0.76999736403E+03  0.76999736404E+03  0.50400000000E-02 0.  1.
   -5000001    1    1    2    0    0 -0.61335557150E+03 -0.55816009517E+03 -0.29011418061E+02  0.86665414746E+03  0.25000000000E+03 0.  0.
    5000001    1    1    2    0    0  0.61335557150E+03  0.55816009517E+03  0.26002833540E+03  0.90435749797E+03  0.25000000000E+03 0.  0.
<mgrwt>
<rscale>  0 0.17558797E+04</rscale>
<asrwt>0</asrwt>
<pdfrwt beam="1">  1        1 0.11846113E+00 0.17558797E+04</pdfrwt>
<pdfrwt beam="2">  1       -1 0.15400220E+00 0.17558797E+04</pdfrwt>
<totfact> 0.72301591E+00</totfact>
</mgrwt>
</event>
<event>
 4    1  0.4047984E-006  0.9637240E+03  0.7818608E-02  0.9349252E-01
          1   -1    0    0  501    0  0.00000000000E+00  0.00000000000E+00  0.12235324500E+04  0.12235324500E+04  0.50400000000E-02 0. -1.
         -1   -1    0    0    0  501 -0.00000000000E+00 -0.00000000000E+00 -0.18977099669E+03  0.18977099675E+03  0.50400000000E-02 0.  1.
   -5000001    1    1    2    0    0 -0.22526306852E+03  0.32599389156E+03  0.35177376100E+03  0.58588415775E+03  0.25000000000E+03 0.  0.
    5000001    1    1    2    0    0  0.22526306852E+03 -0.32599389156E+03  0.68198769235E+03  0.82741928905E+03  0.25000000000E+03 0.  0.
<mgrwt>
<rscale>  0 0.96372397E+03</rscale>
<asrwt>0</asrwt>
<pdfrwt beam="1">  1        1 0.18823576E+00 0.96372397E+03</pdfrwt>
<pdfrwt beam="2">  1       -1 0.29195538E-01 0.96372397E+03</pdfrwt>
<totfact> 0.11031258E+02</totfact>
</mgrwt>
</event>
<event>
 4    1  0.4047984E-006  0.7293244E+03  0.7818608E-02  0.9668357E-01
         -1   -1    0    0    0  501 -0.00000000000E+00  0.00000000000E+00  0.43677775143E+03  0.43677775146E+03  0.50400000000E-02 0. -1.
          1   -1    0    0  501    0  0.00000000000E+00 -0.00000000000E+00 -0.30445353579E+03  0.30445353583E+03  0.50400000000E-02 0.  1.
   -5000001    1    1    2    0    0  0.10710989198E+02 -0.13860444579E+03 -0.16369974017E+03  0.32958082865E+03  0.25000000000E+03 0.  0.
    5000001    1    1    2    0    0 -0.10710989198E+02  0.13860444579E+03  0.29602395581E+03  0.41165045864E+03  0.25000000000E+03 0.  0.
<mgrwt>
<rscale>  0 0.72932443E+03</rscale>
<asrwt>0</asrwt>
<pdfrwt beam="1">  1        1 0.46839006E-01 0.72932443E+03</pdfrwt>
<pdfrwt beam="2">  1       -1 0.67196577E-01 0.72932443E+03</pdfrwt>
<totfact> 0.19564872E+02</totfact>
</mgrwt>
</event>
<event>
 4    1  0.4047984E-006  0.6632018E+03  0.7818608E-02  0.9782317E-01
          1   -1    0    0  501    0  0.00000000000E+00  0.00000000000E+00  0.12006997116E+04  0.12006997117E+04  0.50400000000E-02 0.  1.
         -1   -1    0    0    0  501 -0.00000000000E+00 -0.00000000000E+00 -0.91579239829E+02  0.91579239967E+02  0.50400000000E-02 0. -1.
   -5000001    1    1    2    0    0 -0.17335790573E+03  0.10182733068E+03  0.39109830781E+03  0.50584548542E+03  0.25000000000E+03 0.  0.
    5000001    1    1    2    0    0  0.17335790573E+03 -0.10182733068E+03  0.71802216401E+03  0.78643346620E+03  0.25000000000E+03 0.  0.
<mgrwt>
<rscale>  0 0.66320183E+03</rscale>
<asrwt>0</asrwt>
<pdfrwt beam="1">  1        1 0.18472301E+00 0.66320183E+03</pdfrwt>
<pdfrwt beam="2">  1       -1 0.14089116E-01 0.66320183E+03</pdfrwt>
<totfact> 0.39534884E+02</totfact>
</mgrwt>
</event>
<event>
 4    1  0.4047984E-006  0.5840766E+03  0.7818608E-02  0.9939004E-01
          1   -1    0    0  501    0  0.00000000000E+00  0.00000000000E+00  0.30242387812E+03  0.30242387817E+03  0.50400000000E-02 0.  1.
         -1   -1    0    0    0  501 -0.00000000000E+00 -0.00000000000E+00 -0.28200939932E+03  0.28200939936E+03  0.50400000000E-02 0. -1.
   -5000001    1    1    2    0    0 -0.11374589424E+03 -0.56845858471E+02  0.91600601416E+02  0.29505974016E+03  0.25000000000E+03 0.  0.
    5000001    1    1    2    0    0  0.11374589424E+03  0.56845858471E+02 -0.71186122611E+02  0.28937353738E+03  0.25000000000E+03 0.  0.
<mgrwt>
<rscale>  0 0.58407663E+03</rscale>
<asrwt>0</asrwt>
<pdfrwt beam="1">  1        1 0.46526751E-01 0.58407663E+03</pdfrwt>
<pdfrwt beam="2">  1       -1 0.43386061E-01 0.58407663E+03</pdfrwt>
<totfact> 0.46022762E+02</totfact>
</mgrwt>
</event>
<event>
 4    1  0.4047984E-006  0.1061725E+04  0.7818608E-02  0.9243322E-01
         -1   -1    0    0    0  501 -0.00000000000E+00  0.00000000000E+00  0.16439528601E+03  0.16439528609E+03  0.50400000000E-02 0. -1.
          1   -1    0    0  501    0  0.00000000000E+00 -0.00000000000E+00 -0.17142511165E+04  0.17142511166E+04  0.50400000000E-02 0.  1.
   -5000001    1    1    2    0    0 -0.21454526622E+03  0.41086499912E+03 -0.89329576030E+03  0.10369749438E+04  0.25000000000E+03 0.  0.
    5000001    1    1    2    0    0  0.21454526622E+03 -0.41086499912E+03 -0.65656007022E+03  0.84167145881E+03  0.25000000000E+03 0.  0.
<mgrwt>
<rscale>  0 0.10617246E+04</rscale>
<asrwt>0</asrwt>
<pdfrwt beam="1">  1        1 0.26373093E+00 0.10617246E+04</pdfrwt>
<pdfrwt beam="2">  1       -1 0.25291584E-01 0.10617246E+04</pdfrwt>
<totfact> 0.63984319E+01</totfact>
</mgrwt>
</event>
<event>
 4    1  0.4047984E-006  0.7421710E+03  0.7818608E-02  0.9647714E-01
         -1   -1    0    0    0  501 -0.00000000000E+00  0.00000000000E+00  0.40023963404E+03  0.40023963408E+03  0.50400000000E-02 0.  1.
          1   -1    0    0  501    0  0.00000000000E+00 -0.00000000000E+00 -0.34405499126E+03  0.34405499130E+03  0.50400000000E-02 0. -1.
   -5000001    1    1    2    0    0 -0.12121282827E+03  0.56264791491E+02  0.26824813717E+03  0.39027597876E+03  0.25000000000E+03 0.  0.
    5000001    1    1    2    0    0  0.12121282827E+03 -0.56264791491E+02 -0.21206349438E+03  0.35401864661E+03  0.25000000000E+03 0.  0.
<mgrwt>
<rscale>  0 0.74217099E+03</rscale>
<asrwt>0</asrwt>
<pdfrwt beam="1">  1        1 0.52931537E-01 0.74217099E+03</pdfrwt>
<pdfrwt beam="2">  1       -1 0.61575328E-01 0.74217099E+03</pdfrwt>
<totfact> 0.19864072E+02</totfact>
</mgrwt>
</event>
<event>
 4    1  0.4047984E-006  0.6331530E+03  0.7818608E-02  0.9838915E-01
          1   -1    0    0  501    0  0.00000000000E+00  0.00000000000E+00  0.14055345491E+04  0.14055345491E+04  0.50400000000E-02 0. -1.
         -1   -1    0    0    0  501 -0.00000000000E+00 -0.00000000000E+00 -0.71304312563E+02  0.71304312741E+02  0.50400000000E-02 0.  1.
   -5000001    1    1    2    0    0 -0.14405670317E+03 -0.12940368513E+03  0.70194914264E+03  0.76988976243E+03  0.25000000000E+03 0.  0.
    5000001    1    1    2    0    0  0.14405670317E+03  0.12940368513E+03  0.63228109385E+03  0.70694909937E+03  0.25000000000E+03 0.  0.
<mgrwt>
<rscale>  0 0.63315298E+03</rscale>
<asrwt>0</asrwt>
<pdfrwt beam="1">  1        1 0.21623606E+00 0.63315298E+03</pdfrwt>
<pdfrwt beam="2">  1       -1 0.10969896E-01 0.63315298E+03</pdfrwt>
<totfact> 0.42412648E+02</totfact>
</mgrwt>
</event>
<event>
 4    1  0.4047984E-006  0.1067336E+04  0.7818608E-02  0.9237626E-01
          1   -1    0    0  501    0  0.00000000000E+00  0.00000000000E+00  0.65472051062E+03  0.65472051064E+03  0.50400000000E-02 0.  1.
         -1   -1    0    0    0  501 -0.00000000000E+00 -0.00000000000E+00 -0.43499749611E+03  0.43499749614E+03  0.50400000000E-02 0. -1.
   -5000001    1    1    2    0    0  0.36570679520E+03 -0.20782679804E+03 -0.10760343164E+03  0.50101091459E+03  0.25000000000E+03 0.  0.
    5000001    1    1    2    0    0 -0.36570679520E+03  0.20782679804E+03  0.32732644615E+03  0.58870709219E+03  0.25000000000E+03 0.  0.
<mgrwt>
<rscale>  0 0.10673365E+04</rscale>
<asrwt>0</asrwt>
<pdfrwt beam="1">  1        1 0.10072623E+00 0.10673365E+04</pdfrwt>
<pdfrwt beam="2">  1       -1 0.66922692E-01 0.10673365E+04</pdfrwt>
<totfact> 0.68080117E+01</totfact>
</mgrwt>
</event>
<event>
 4    1  0.4047984E-006  0.6446456E+03  0.7818608E-02  0.9816878E-01
          1   -1    0    0  501    0  0.00000000000E+00  0.00000000000E+00  0.20576623667E+04  0.20576623667E+04  0.50400000000E-02 0. -1.
         -1   -1    0    0    0  501 -0.00000000000E+00 -0.00000000000E+00 -0.50490301827E+02  0.50490302079E+02  0.50400000000E-02 0.  1.
   -5000001    1    1    2    0    0  0.77309767957E+02 -0.13398115326E+03  0.57141473108E+03  0.64260605704E+03  0.25000000000E+03 0.  0.
    5000001    1    1    2    0    0 -0.77309767957E+02  0.13398115326E+03  0.14357573338E+04  0.14655466118E+04  0.25000000000E+03 0.  0.
<mgrwt>
<rscale>  0 0.64464562E+03</rscale>
<asrwt>0</asrwt>
<pdfrwt beam="1">  1        1 0.31656343E+00 0.64464562E+03</pdfrwt>
<pdfrwt beam="2">  1       -1 0.77677389E-02 0.64464562E+03</pdfrwt>
<totfact> 0.26587254E+02</totfact>
</mgrwt>
</event>
<event>
 4    1  0.4047984E-006  0.1041071E+04  0.7818608E-02  0.9264611E-01
          1   -1    0    0  501    0  0.00000000000E+00  0.00000000000E+00  0.71205092899E+03  0.71205092901E+03  0.50400000000E-02 0.  1.
         -1   -1    0    0    0  501 -0.00000000000E+00 -0.00000000000E+00 -0.38053067035E+03  0.38053067038E+03  0.50400000000E-02 0. -1.
   -5000001    1    1    2    0    0  0.34199980197E+03  0.28232494991E+03  0.51825356396E+02  0.51171975676E+03  0.25000000000E+03 0.  0.
    5000001    1    1    2    0    0 -0.34199980197E+03 -0.28232494991E+03  0.27969490225E+03  0.58086184264E+03  0.25000000000E+03 0.  0.
<mgrwt>
<rscale>  0 0.10410710E+04</rscale>
<asrwt>0</asrwt>
<pdfrwt beam="1">  1        1 0.10954629E+00 0.10410710E+04</pdfrwt>
<pdfrwt beam="2">  1       -1 0.58543181E-01 0.10410710E+04</pdfrwt>
<totfact> 0.78500527E+01</totfact>
</mgrwt>
</event>
<event>
 4    1  0.4047984E-006  0.5430090E+03  0.7818608E-02  0.1003125E+00
          1   -1    0    0  501    0  0.00000000000E+00  0.00000000000E+00  0.40059510879E+03  0.40059510882E+03  0.50400000000E-02 0.  1.
         -1   -1    0    0    0  501 -0.00000000000E+00 -0.00000000000E+00 -0.18401297371E+03  0.18401297378E+03  0.50400000000E-02 0. -1.
   -5000001    1    1    2    0    0  0.66305348852E+02 -0.75393779272E+02  0.14454698160E+03  0.30573591730E+03  0.25000000000E+03 0.  0.
    5000001    1    1    2    0    0 -0.66305348852E+02  0.75393779272E+02  0.72035153474E+02  0.27887216529E+03  0.25000000000E+03 0.  0.
<mgrwt>
<rscale>  0 0.54300901E+03</rscale>
<asrwt>0</asrwt>
<pdfrwt beam="1">  1        1 0.61630016E-01 0.54300901E+03</pdfrwt>
<pdfrwt beam="2">  1       -1 0.28309689E-01 0.54300901E+03</pdfrwt>
<totfact> 0.68154070E+02</totfact>
</mgrwt>
</event>
<event>
 4    1  0.4047984E-006  0.7530124E+03  0.7818608E-02  0.9630636E-01
         -1   -1    0    0    0  501 -0.00000000000E+00  0.00000000000E+00  0.18967569785E+03  0.18967569792E+03  0.50400000000E-02 0. -1.
          1   -1    0    0  501    0  0.00000000000E+00 -0.00000000000E+00 -0.74736466551E+03  0.74736466553E+03  0.50400000000E-02 0.  1.
   -5000001    1    1    2    0    0 -0.34477866627E+02  0.27816937089E+03 -0.31153172810E+03  0.48797432289E+03  0.25000000000E+03 0.  0.
    5000001    1    1    2    0    0  0.34477866627E+02 -0.27816937089E+03 -0.24615723957E+03  0.44906604056E+03  0.25000000000E+03 0.  0.
<mgrwt>
<rscale>  0 0.75301239E+03</rscale>
<asrwt>0</asrwt>
<pdfrwt beam="1">  1        1 0.11497918E+00 0.75301239E+03</pdfrwt>
<pdfrwt beam="2">  1       -1 0.29180877E-01 0.75301239E+03</pdfrwt>
<totfact> 0.26662303E+02</totfact>
</mgrwt>
</event>
<event>
 4    1  0.4047984E-006  0.8340199E+03  0.7818608E-02  0.9512040E-01
         -1   -1    0    0    0  501 -0.00000000000E+00  0.00000000000E+00  0.10662604191E+04  0.10662604191E+04  0.50400000000E-02 0.  1.
          1   -1    0    0  501    0  0.00000000000E+00 -0.00000000000E+00 -0.16309082448E+03  0.16309082456E+03  0.50400000000E-02 0. -1.
   -5000001    1    1    2    0    0  0.24144545720E+03  0.15651124717E+03  0.20228312023E+03  0.43152072954E+03  0.25000000000E+03 0.  0.
    5000001    1    1    2    0    0 -0.24144545720E+03 -0.15651124717E+03  0.70088647437E+03  0.79783051412E+03  0.25000000000E+03 0.  0.
<mgrwt>
<rscale>  0 0.83401988E+03</rscale>
<asrwt>0</asrwt>
<pdfrwt beam="1">  1        1 0.25090896E-01 0.83401988E+03</pdfrwt>
<pdfrwt beam="2">  1       -1 0.16404007E+00 0.83401988E+03</pdfrwt>
<totfact> 0.53670563E+01</totfact>
</mgrwt>
</event>
<event>
 4    1  0.4047984E-006  0.6313063E+03  0.7818608E-02  0.9842503E-01
          1   -1    0    0  501    0  0.00000000000E+00  0.00000000000E+00  0.86809469183E+03  0.86809469184E+03  0.50400000000E-02 0.  1.
         -1   -1    0    0    0  501 -0.00000000000E+00 -0.00000000000E+00 -0.11477654573E+03  0.11477654584E+03  0.50400000000E-02 0. -1.
   -5000001    1    1    2    0    0  0.36367125264E+02  0.15628956350E+03  0.21051738923E+03  0.36409691928E+03  0.25000000000E+03 0.  0.
    5000001    1    1    2    0    0 -0.36367125264E+02 -0.15628956350E+03  0.54280075687E+03  0.61877431841E+03  0.25000000000E+03 0.  0.
<mgrwt>
<rscale>  0 0.63130630E+03</rscale>
<asrwt>0</asrwt>
<pdfrwt beam="1">  1        1 0.13355303E+00 0.63130630E+03</pdfrwt>
<pdfrwt beam="2">  1       -1 0.17657929E-01 0.63130630E+03</pdfrwt>
<totfact> 0.49252206E+02</totfact>
</mgrwt>
</event>
<event>
 4    1  0.4047984E-006  0.6283546E+03  0.7818608E-02  0.9848265E-01
          1   -1    0    0  501    0  0.00000000000E+00  0.00000000000E+00  0.15538383536E+03  0.15538383544E+03  0.50400000000E-02 0.  1.
         -1   -1    0    0    0  501 -0.00000000000E+00 -0.00000000000E+00 -0.63524873725E+03  0.63524873727E+03  0.50400000000E-02 0. -1.
   -5000001    1    1    2    0    0 -0.13096663488E+03  0.74063496423E+02 -0.93358972372E+02  0.30635528178E+03  0.25000000000E+03 0.  0.
    5000001    1    1    2    0    0  0.13096663488E+03 -0.74063496423E+02 -0.38650592952E+03  0.48427729093E+03  0.25000000000E+03 0.  0.
<mgrwt>
<rscale>  0 0.62835463E+03</rscale>
<asrwt>0</asrwt>
<pdfrwt beam="1">  1        1 0.23905206E-01 0.62835463E+03</pdfrwt>
<pdfrwt beam="2">  1       -1 0.97730574E-01 0.62835463E+03</pdfrwt>
<totfact> 0.21159138E+02</totfact>
</mgrwt>
</event>
<event>
 4    1  0.4047984E-006  0.9179198E+03  0.7818608E-02  0.9403454E-01
          1   -1    0    0  501    0  0.00000000000E+00  0.00000000000E+00  0.37597605647E+03  0.37597605650E+03  0.50400000000E-02 0.  1.
         -1   -1    0    0    0  501 -0.00000000000E+00 -0.00000000000E+00 -0.56025962969E+03  0.56025962972E+03  0.50400000000E-02 0. -1.
   -5000001    1    1    2    0    0  0.21888870802E+03 -0.31582324403E+03 -0.69619089154E+02  0.46368459705E+03  0.25000000000E+03 0.  0.
    5000001    1    1    2    0    0 -0.21888870802E+03  0.31582324403E+03 -0.11466448407E+03  0.47255108917E+03  0.25000000000E+03 0.  0.
<mgrwt>
<rscale>  0 0.91791984E+03</rscale>
<asrwt>0</asrwt>
<pdfrwt beam="1">  1        1 0.57842470E-01 0.91791984E+03</pdfrwt>
<pdfrwt beam="2">  1       -1 0.86193789E-01 0.91791984E+03</pdfrwt>
<totfact> 0.87192583E+01</totfact>
</mgrwt>
</event>
<event>
 4    1  0.4047984E-006  0.6896591E+03  0.7818608E-02  0.9735082E-01
          1   -1    0    0  501    0  0.00000000000E+00  0.00000000000E+00  0.99070903459E+03  0.99070903461E+03  0.50400000000E-02 0.  1.
         -1   -1    0    0    0  501 -0.00000000000E+00 -0.00000000000E+00 -0.12002256059E+03  0.12002256070E+03  0.50400000000E-02 0. -1.
   -5000001    1    1    2    0    0 -0.18613913326E+03 -0.13847605911E+03  0.51721312259E+03  0.61954241990E+03  0.25000000000E+03 0.  0.
    5000001    1    1    2    0    0  0.18613913326E+03  0.13847605911E+03  0.35347335141E+03  0.49118917541E+03  0.25000000000E+03 0.  0.
<mgrwt>
<rscale>  0 0.68965915E+03</rscale>
<asrwt>0</asrwt>
<pdfrwt beam="1">  1        1 0.15241677E+00 0.68965915E+03</pdfrwt>
<pdfrwt beam="2">  1       -1 0.18465009E-01 0.68965915E+03</pdfrwt>
<totfact> 0.36413424E+02</totfact>
</mgrwt>
</event>
<event>
 4    1  0.4047984E-006  0.1390343E+04  0.7818608E-02  0.8960839E-01
         -1   -1    0    0    0  501 -0.00000000000E+00  0.00000000000E+00  0.43150135443E+03  0.43150135446E+03  0.50400000000E-02 0. -1.
          1   -1    0    0  501    0  0.00000000000E+00 -0.00000000000E+00 -0.11199575496E+04  0.11199575496E+04  0.50400000000E-02 0.  1.
   -5000001    1    1    2    0    0 -0.61319615696E+03  0.10979370536E+03 -0.54601164504E+03  0.86527042083E+03  0.25000000000E+03 0.  0.
    5000001    1    1    2    0    0  0.61319615696E+03 -0.10979370536E+03 -0.14244455009E+03  0.68618848321E+03  0.25000000000E+03 0.  0.
<mgrwt>
<rscale>  0 0.13903427E+04</rscale>
<asrwt>0</asrwt>
<pdfrwt beam="1">  1        1 0.17230116E+00 0.13903427E+04</pdfrwt>
<pdfrwt beam="2">  1       -1 0.66384824E-01 0.13903427E+04</pdfrwt>
<totfact> 0.27483506E+01</totfact>
</mgrwt>
</event>
<event>
 4    1  0.4047984E-006  0.7063476E+03  0.7818608E-02  0.9706438E-01
         -1   -1    0    0    0  501 -0.00000000000E+00  0.00000000000E+00  0.89792404684E+02  0.89792404825E+02  0.50400000000E-02 0.  1.
          1   -1    0    0  501    0  0.00000000000E+00 -0.00000000000E+00 -0.13891124371E+04  0.13891124371E+04  0.50400000000E-02 0. -1.
   -5000001    1    1    2    0    0  0.22803929206E+03 -0.71257353919E+02 -0.79994611378E+03  0.87148913600E+03  0.25000000000E+03 0.  0.
    5000001    1    1    2    0    0 -0.22803929206E+03  0.71257353919E+02 -0.49937391867E+03  0.60741570597E+03  0.25000000000E+03 0.  0.
<mgrwt>
<rscale>  0 0.70634764E+03</rscale>
<asrwt>0</asrwt>
<pdfrwt beam="1">  1        1 0.21370959E+00 0.70634764E+03</pdfrwt>
<pdfrwt beam="2">  1       -1 0.13814217E-01 0.70634764E+03</pdfrwt>
<totfact> 0.29957872E+02</totfact>
</mgrwt>
</event>
<event>
 4    1  0.4047984E-006  0.1002510E+04  0.7818608E-02  0.9305796E-01
         -1   -1    0    0    0  501 -0.00000000000E+00  0.00000000000E+00  0.37307114075E+03  0.37307114078E+03  0.50400000000E-02 0. -1.
          1   -1    0    0  501    0  0.00000000000E+00 -0.00000000000E+00 -0.67348213534E+03  0.67348213536E+03  0.50400000000E-02 0.  1.
   -5000001    1    1    2    0    0 -0.37169526554E+03  0.94809454581E+02  0.62742805220E+02  0.46215025988E+03  0.25000000000E+03 0.  0.
    5000001    1    1    2    0    0  0.37169526554E+03 -0.94809454581E+02 -0.36315379981E+03  0.58440301626E+03  0.25000000000E+03 0.  0.
<mgrwt>
<rscale>  0 0.10025103E+04</rscale>
<asrwt>0</asrwt>
<pdfrwt beam="1">  1        1 0.10361264E+00 0.10025103E+04</pdfrwt>
<pdfrwt beam="2">  1       -1 0.57395560E-01 0.10025103E+04</pdfrwt>
<totfact> 0.89017894E+01</totfact>
</mgrwt>
</event>
<event>
 4    1  0.4047984E-006  0.5476900E+03  0.7818608E-02  0.1002030E+00
         -1   -1    0    0    0  501 -0.00000000000E+00  0.00000000000E+00  0.55048145233E+03  0.55048145236E+03  0.50400000000E-02 0. -1.
          1   -1    0    0  501    0  0.00000000000E+00 -0.00000000000E+00 -0.13622815356E+03  0.13622815366E+03  0.50400000000E-02 0.  1.
   -5000001    1    1    2    0    0  0.56605020491E+02  0.47460966688E+02  0.10196633367E+03  0.27991749660E+03  0.25000000000E+03 0.  0.
    5000001    1    1    2    0    0 -0.56605020491E+02 -0.47460966688E+02  0.31228696510E+03  0.40679210941E+03  0.25000000000E+03 0.  0.
<mgrwt>
<rscale>  0 0.54768996E+03</rscale>
<asrwt>0</asrwt>
<pdfrwt beam="1">  1        1 0.20958178E-01 0.54768996E+03</pdfrwt>
<pdfrwt beam="2">  1       -1 0.84689454E-01 0.54768996E+03</pdfrwt>
<totfact> 0.34549362E+02</totfact>
</mgrwt>
</event>
<event>
 4    1  0.4047984E-006  0.9364108E+03  0.7818608E-02  0.9381177E-01
         -1   -1    0    0    0  501 -0.00000000000E+00  0.00000000000E+00  0.29778363969E+03  0.29778363974E+03  0.50400000000E-02 0. -1.
          1   -1    0    0  501    0  0.00000000000E+00 -0.00000000000E+00 -0.73615968257E+03  0.73615968258E+03  0.50400000000E-02 0.  1.
   -5000001    1    1    2    0    0  0.93514083379E+02  0.30254485284E+03 -0.48149887419E+03  0.62818742236E+03  0.25000000000E+03 0.  0.
    5000001    1    1    2    0    0 -0.93514083379E+02 -0.30254485284E+03  0.43122831320E+02  0.40575589996E+03  0.25000000000E+03 0.  0.
<mgrwt>
<rscale>  0 0.93641083E+03</rscale>
<asrwt>0</asrwt>
<pdfrwt beam="1">  1        1 0.11325533E+00 0.93641083E+03</pdfrwt>
<pdfrwt beam="2">  1       -1 0.45812868E-01 0.93641083E+03</pdfrwt>
<totfact> 0.12006068E+02</totfact>
</mgrwt>
</event>
<event>
 4    1  0.4047984E-006  0.7376512E+03  0.7818608E-02  0.9654925E-01
          1   -1    0    0  501    0  0.00000000000E+00  0.00000000000E+00  0.22061945992E+04  0.22061945992E+04  0.50400000000E-02 0.  1.
         -1   -1    0    0    0  501 -0.00000000000E+00 -0.00000000000E+00 -0.61659259239E+02  0.61659259445E+02  0.50400000000E-02 0. -1.
   -5000001    1    1    2    0    0  0.47892704599E+01 -0.17977179436E+03  0.44829185230E+03  0.54388088770E+03  0.25000000000E+03 0.  0.
    5000001    1    1    2    0    0 -0.47892704599E+01  0.17977179436E+03  0.16962434877E+04  0.17239729710E+04  0.25000000000E+03 0.  0.
<mgrwt>
<rscale>  0 0.73765120E+03</rscale>
<asrwt>0</asrwt>
<pdfrwt beam="1">  1        1 0.33941456E+00 0.73765120E+03</pdfrwt>
<pdfrwt beam="2">  1       -1 0.94860396E-02 0.73765120E+03</pdfrwt>
<totfact> 0.15327588E+02</totfact>
</mgrwt>
</event>
<event>
 4    1  0.4047984E-006  0.5582051E+03  0.7818608E-02  0.9996124E-01
         -1   -1    0    0    0  501 -0.00000000000E+00  0.00000000000E+00  0.16230249055E+03  0.16230249063E+03  0.50400000000E-02 0. -1.
          1   -1    0    0  501    0  0.00000000000E+00 -0.00000000000E+00 -0.47995702828E+03  0.47995702830E+03  0.50400000000E-02 0.  1.
   -5000001    1    1    2    0    0  0.12397830351E+03  0.49730715857E+01 -0.16077643982E+03  0.32209379812E+03  0.25000000000E+03 0.  0.
    5000001    1    1    2    0    0 -0.12397830351E+03 -0.49730715857E+01 -0.15687809790E+03  0.32016572081E+03  0.25000000000E+03 0.  0.
<mgrwt>
<rscale>  0 0.55820506E+03</rscale>
<asrwt>0</asrwt>
<pdfrwt beam="1">  1        1 0.73839542E-01 0.55820506E+03</pdfrwt>
<pdfrwt beam="2">  1       -1 0.24969614E-01 0.55820506E+03</pdfrwt>
<totfact> 0.66352538E+02</totfact>
</mgrwt>
</event>
<event>
 4    1  0.4047984E-006  0.9330570E+03  0.7818608E-02  0.9385177E-01
          1   -1    0    0  501    0  0.00000000000E+00  0.00000000000E+00  0.39039719420E+03  0.39039719423E+03  0.50400000000E-02 0.  1.
         -1   -1    0    0    0  501 -0.00000000000E+00 -0.00000000000E+00 -0.55750617441E+03  0.55750617443E+03  0.50400000000E-02 0. -1.
   -5000001    1    1    2    0    0  0.32096726351E+03 -0.22740315833E+03 -0.62817309553E+02  0.47029585905E+03  0.25000000000E+03 0.  0.
    5000001    1    1    2    0    0 -0.32096726351E+03  0.22740315833E+03 -0.10429167066E+03  0.47760750960E+03  0.25000000000E+03 0.  0.
<mgrwt>
<rscale>  0 0.93305701E+03</rscale>
<asrwt>0</asrwt>
<pdfrwt beam="1">  1        1 0.60061107E-01 0.93305701E+03</pdfrwt>
<pdfrwt beam="2">  1       -1 0.85770181E-01 0.93305701E+03</pdfrwt>
<totfact> 0.83771614E+01</totfact>
</mgrwt>
</event>
<event>
 4    1  0.4047984E-006  0.8760246E+03  0.7818608E-02  0.9456058E-01
          1   -1    0    0  501    0  0.00000000000E+00  0.00000000000E+00  0.10251822600E+03  0.10251822612E+03  0.50400000000E-02 0.  1.
         -1   -1    0    0    0  501 -0.00000000000E+00 -0.00000000000E+00 -0.18714210498E+04  0.18714210498E+04  0.50400000000E-02 0. -1.
   -5000001    1    1    2    0    0  0.16599821884E+03  0.31041837087E+03 -0.10506428585E+04  0.11358984944E+04  0.25000000000E+03 0.  0.
    5000001    1    1    2    0    0 -0.16599821884E+03 -0.31041837087E+03 -0.71825996534E+03  0.83804078149E+03  0.25000000000E+03 0.  0.
<mgrwt>
<rscale>  0 0.87602458E+03</rscale>
<asrwt>0</asrwt>
<pdfrwt beam="1">  1        1 0.15772036E-01 0.87602458E+03</pdfrwt>
<pdfrwt beam="2">  1       -1 0.28791091E+00 0.87602458E+03</pdfrwt>
<totfact> 0.14631323E+01</totfact>
</mgrwt>
</event>
<event>
 4    1  0.4047984E-006  0.7644826E+03  0.7818608E-02  0.9612899E-01
          1   -1    0    0  501    0  0.00000000000E+00  0.00000000000E+00  0.65416196045E+03  0.65416196047E+03  0.50400000000E-02 0. -1.
         -1   -1    0    0    0  501 -0.00000000000E+00 -0.00000000000E+00 -0.22335203480E+03  0.22335203485E+03  0.50400000000E-02 0.  1.
   -5000001    1    1    2    0    0  0.58314174956E+02 -0.27702021809E+03  0.28299843528E+03  0.47194158389E+03  0.25000000000E+03 0.  0.
    5000001    1    1    2    0    0 -0.58314174956E+02  0.27702021809E+03  0.14781149037E+03  0.40557241144E+03  0.25000000000E+03 0.  0.
<mgrwt>
<rscale>  0 0.76448258E+03</rscale>
<asrwt>0</asrwt>
<pdfrwt beam="1">  1        1 0.10064030E+00 0.76448258E+03</pdfrwt>
<pdfrwt beam="2">  1       -1 0.34361852E-01 0.76448258E+03</pdfrwt>
<totfact> 0.24460641E+02</totfact>
</mgrwt>
</event>
<event>
 4    1  0.4047984E-006  0.6707481E+03  0.7818608E-02  0.9768607E-01
          1   -1    0    0  501    0  0.00000000000E+00  0.00000000000E+00  0.47973166848E+03  0.47973166851E+03  0.50400000000E-02 0.  1.
         -1   -1    0    0    0  501 -0.00000000000E+00 -0.00000000000E+00 -0.23445552240E+03  0.23445552246E+03  0.50400000000E-02 0. -1.
   -5000001    1    1    2    0    0  0.17442226788E+03 -0.19163128610E+01 -0.26234341214E+02  0.30596575045E+03  0.25000000000E+03 0.  0.
    5000001    1    1    2    0    0 -0.17442226788E+03  0.19163128610E+01  0.27151048729E+03  0.40822144052E+03  0.25000000000E+03 0.  0.
<mgrwt>
<rscale>  0 0.67074806E+03</rscale>
<asrwt>0</asrwt>
<pdfrwt beam="1">  1        1 0.73804872E-01 0.67074806E+03</pdfrwt>
<pdfrwt beam="2">  1       -1 0.36070080E-01 0.67074806E+03</pdfrwt>
<totfact> 0.34913756E+02</totfact>
</mgrwt>
</event>
<event>
 4    1  0.4047984E-006  0.8014250E+03  0.7818608E-02  0.9557957E-01
          1   -1    0    0  501    0  0.00000000000E+00  0.00000000000E+00  0.22387049810E+04  0.22387049811E+04  0.50400000000E-02 0.  1.
         -1   -1    0    0    0  501 -0.00000000000E+00 -0.00000000000E+00 -0.71724724692E+02  0.71724724869E+02  0.50400000000E-02 0. -1.
   -5000001    1    1    2    0    0  0.25766280779E+03 -0.69112715031E+02  0.15563546921E+04  0.15987203062E+04  0.25000000000E+03 0.  0.
    5000001    1    1    2    0    0 -0.25766280779E+03  0.69112715031E+02  0.61062556424E+03  0.71170939969E+03  0.25000000000E+03 0.  0.
<mgrwt>
<rscale>  0 0.80142498E+03</rscale>
<asrwt>0</asrwt>
<pdfrwt beam="1">  1        1 0.34441614E+00 0.80142498E+03</pdfrwt>
<pdfrwt beam="2">  1       -1 0.11034573E-01 0.80142498E+03</pdfrwt>
<totfact> 0.11397284E+02</totfact>
</mgrwt>
</event>
<event>
 4    1  0.4047984E-006  0.6420613E+03  0.7818608E-02  0.9821791E-01
          1   -1    0    0  501    0  0.00000000000E+00  0.00000000000E+00  0.56031073208E+03  0.56031073211E+03  0.50400000000E-02 0. -1.
         -1   -1    0    0    0  501 -0.00000000000E+00 -0.00000000000E+00 -0.18393484902E+03  0.18393484909E+03  0.50400000000E-02 0.  1.
   -5000001    1    1    2    0    0 -0.14997562597E+03  0.70556047597E+02  0.55568644827E+02  0.30505527126E+03  0.25000000000E+03 0.  0.
    5000001    1    1    2    0    0  0.14997562597E+03 -0.70556047597E+02  0.32080723824E+03  0.43919030994E+03  0.25000000000E+03 0.  0.
<mgrwt>
<rscale>  0 0.64206127E+03</rscale>
<asrwt>0</asrwt>
<pdfrwt beam="1">  1        1 0.86201649E-01 0.64206127E+03</pdfrwt>
<pdfrwt beam="2">  1       -1 0.28297670E-01 0.64206127E+03</pdfrwt>
<totfact> 0.43174719E+02</totfact>
</mgrwt>
</event>
<event>
 4    1  0.4047984E-006  0.6816402E+03  0.7818608E-02  0.9749155E-01
          1   -1    0    0  501    0  0.00000000000E+00  0.00000000000E+00  0.76832244316E+03  0.76832244317E+03  0.50400000000E-02 0.  1.
         -1   -1    0    0    0  501 -0.00000000000E+00 -0.00000000000E+00 -0.15118438257E+03  0.15118438266E+03  0.50400000000E-02 0. -1.
   -5000001    1    1    2    0    0 -0.57450588983E+02  0.21636485392E+03  0.22826290363E+03  0.40585499056E+03  0.25000000000E+03 0.  0.
    5000001    1    1    2    0    0  0.57450588983E+02 -0.21636485392E+03  0.38887515695E+03  0.51365183527E+03  0.25000000000E+03 0.  0.
<mgrwt>
<rscale>  0 0.68164024E+03</rscale>
<asrwt>0</asrwt>
<pdfrwt beam="1">  1        1 0.11820345E+00 0.68164024E+03</pdfrwt>
<pdfrwt beam="2">  1       -1 0.23259136E-01 0.68164024E+03</pdfrwt>
<totfact> 0.37786210E+02</totfact>
</mgrwt>
</event>
<event>
 4    1  0.4047984E-006  0.8010962E+03  0.7818608E-02  0.9558432E-01
         -1   -1    0    0    0  501 -0.00000000000E+00  0.00000000000E+00  0.71510158317E+02  0.71510158495E+02  0.50400000000E-02 0. -1.
          1   -1    0    0  501    0  0.00000000000E+00 -0.00000000000E+00 -0.22435800476E+04  0.22435800476E+04  0.50400000000E-02 0.  1.
   -5000001    1    1    2    0    0  0.24935383617E+03 -0.60187837094E+02 -0.16041168877E+04  0.16436212765E+04  0.25000000000E+03 0.  0.
    5000001    1    1    2    0    0 -0.24935383617E+03  0.60187837094E+02 -0.56795300164E+03  0.67146892960E+03  0.25000000000E+03 0.  0.
<mgrwt>
<rscale>  0 0.80109616E+03</rscale>
<asrwt>0</asrwt>
<pdfrwt beam="1">  1        1 0.34516611E+00 0.80109616E+03</pdfrwt>
<pdfrwt beam="2">  1       -1 0.11001565E-01 0.80109616E+03</pdfrwt>
<totfact> 0.11365981E+02</totfact>
</mgrwt>
</event>
<event>
 4    1  0.4047984E-006  0.8807792E+03  0.7818608E-02  0.9449933E-01
          1   -1    0    0  501    0  0.00000000000E+00  0.00000000000E+00  0.21178584103E+03  0.21178584109E+03  0.50400000000E-02 0.  1.
         -1   -1    0    0    0  501 -0.00000000000E+00 -0.00000000000E+00 -0.91575053921E+03  0.91575053922E+03  0.50400000000E-02 0. -1.
   -5000001    1    1    2    0    0 -0.39769658414E+02  0.35608183157E+03 -0.28108539113E+03  0.51950446929E+03  0.25000000000E+03 0.  0.
    5000001    1    1    2    0    0  0.39769658414E+02 -0.35608183157E+03 -0.42287930704E+03  0.60803191103E+03  0.25000000000E+03 0.  0.
<mgrwt>
<rscale>  0 0.88077920E+03</rscale>
<asrwt>0</asrwt>
<pdfrwt beam="1">  1        1 0.32582437E-01 0.88077920E+03</pdfrwt>
<pdfrwt beam="2">  1       -1 0.14088470E+00 0.88077920E+03</pdfrwt>
<totfact> 0.57472667E+01</totfact>
</mgrwt>
</event>
<event>
 4    1  0.4047984E-006  0.6711503E+03  0.7818608E-02  0.9767882E-01
          1   -1    0    0  501    0  0.00000000000E+00  0.00000000000E+00  0.78560546782E+03  0.78560546783E+03  0.50400000000E-02 0.  1.
         -1   -1    0    0    0  501 -0.00000000000E+00 -0.00000000000E+00 -0.14334254432E+03  0.14334254441E+03  0.50400000000E-02 0. -1.
   -5000001    1    1    2    0    0  0.17169273458E+03  0.11363623140E+03  0.44273743298E+03  0.54855083881E+03  0.25000000000E+03 0.  0.
    5000001    1    1    2    0    0 -0.17169273458E+03 -0.11363623140E+03  0.19952549051E+03  0.38039717344E+03  0.25000000000E+03 0.  0.
<mgrwt>
<rscale>  0 0.67115032E+03</rscale>
<asrwt>0</asrwt>
<pdfrwt beam="1">  1        1 0.12086238E+00 0.67115032E+03</pdfrwt>
<pdfrwt beam="2">  1       -1 0.22052699E-01 0.67115032E+03</pdfrwt>
<totfact> 0.39931008E+02</totfact>
</mgrwt>
</event>
<event>
 4    1  0.4047984E-006  0.6987939E+03  0.7818608E-02  0.9719297E-01
         -1   -1    0    0    0  501 -0.00000000000E+00  0.00000000000E+00  0.29860244709E+02  0.29860245134E+02  0.50400000000E-02 0.  1.
          1   -1    0    0  501    0  0.00000000000E+00 -0.00000000000E+00 -0.40883203110E+04  0.40883203110E+04  0.50400000000E-02 0. -1.
   -5000001    1    1    2    0    0  0.21797990426E+03  0.52882391312E+02 -0.14619295256E+04  0.15000165745E+04  0.25000000000E+03 0.  0.
    5000001    1    1    2    0    0 -0.21797990426E+03 -0.52882391312E+02 -0.25965305406E+04  0.26181639816E+04  0.25000000000E+03 0.  0.
<mgrwt>
<rscale>  0 0.69879395E+03</rscale>
<asrwt>0</asrwt>
<pdfrwt beam="1">  1        1 0.62897191E+00 0.69879395E+03</pdfrwt>
<pdfrwt beam="2">  1       -1 0.45938871E-02 0.69879395E+03</pdfrwt>
<totfact> 0.18799203E+01</totfact>
</mgrwt>
</event>
<event>
 4    1  0.4047984E-006  0.7321930E+03  0.7818608E-02  0.9663708E-01
         -1   -1    0    0    0  501 -0.00000000000E+00  0.00000000000E+00  0.10841139455E+04  0.10841139455E+04  0.50400000000E-02 0. -1.
          1   -1    0    0  501    0  0.00000000000E+00 -0.00000000000E+00 -0.12362781810E+03  0.12362781820E+03  0.50400000000E-02 0.  1.
   -5000001    1    1    2    0    0 -0.16138766648E+03 -0.61437963405E+02  0.14338418711E+03  0.33597563506E+03  0.25000000000E+03 0.  0.
    5000001    1    1    2    0    0  0.16138766648E+03  0.61437963405E+02  0.81710194025E+03  0.87176612861E+03  0.25000000000E+03 0.  0.
<mgrwt>
<rscale>  0 0.73219298E+03</rscale>
<asrwt>0</asrwt>
<pdfrwt beam="1">  1        1 0.19019664E-01 0.73219298E+03</pdfrwt>
<pdfrwt beam="2">  1       -1 0.16678676E+00 0.73219298E+03</pdfrwt>
<totfact> 0.74333680E+01</totfact>
</mgrwt>
</event>
<event>
 4    1  0.4047984E-006  0.8188287E+03  0.7818608E-02  0.9533156E-01
         -1   -1    0    0    0  501 -0.00000000000E+00  0.00000000000E+00  0.10325583710E+03  0.10325583723E+03  0.50400000000E-02 0. -1.
          1   -1    0    0  501    0  0.00000000000E+00 -0.00000000000E+00 -0.16233475446E+04  0.16233475446E+04  0.50400000000E-02 0.  1.
   -5000001    1    1    2    0    0  0.25822637230E+03 -0.12072532353E+03 -0.43430139592E+03  0.57651813986E+03  0.25000000000E+03 0.  0.
    5000001    1    1    2    0    0 -0.25822637230E+03  0.12072532353E+03 -0.10857903116E+04  0.11500852420E+04  0.25000000000E+03 0.  0.
<mgrwt>
<rscale>  0 0.81882870E+03</rscale>
<asrwt>0</asrwt>
<pdfrwt beam="1">  1        1 0.24974576E+00 0.81882870E+03</pdfrwt>
<pdfrwt beam="2">  1       -1 0.15885515E-01 0.81882870E+03</pdfrwt>
<totfact> 0.16365906E+02</totfact>
</mgrwt>
</event>
<event>
 4    1  0.4047984E-006  0.7893824E+03  0.7818608E-02  0.9575514E-01
          1   -1    0    0  501    0  0.00000000000E+00  0.00000000000E+00  0.17547502289E+03  0.17547502296E+03  0.50400000000E-02 0. -1.
         -1   -1    0    0    0  501 -0.00000000000E+00 -0.00000000000E+00 -0.88776827645E+03  0.88776827647E+03  0.50400000000E-02 0.  1.
   -5000001    1    1    2    0    0 -0.13939595349E+03 -0.26964220669E+03 -0.40168417847E+03  0.56212839344E+03  0.25000000000E+03 0.  0.
    5000001    1    1    2    0    0  0.13939595349E+03  0.26964220669E+03 -0.31060907510E+03  0.50111490600E+03  0.25000000000E+03 0.  0.
<mgrwt>
<rscale>  0 0.78938244E+03</rscale>
<asrwt>0</asrwt>
<pdfrwt beam="1">  1        1 0.26996158E-01 0.78938244E+03</pdfrwt>
<pdfrwt beam="2">  1       -1 0.13657973E+00 0.78938244E+03</pdfrwt>
<totfact> 0.80051643E+01</totfact>
</mgrwt>
</event>
<event>
 4    1  0.4047984E-006  0.8049997E+03  0.7818608E-02  0.9552808E-01
         -1   -1    0    0    0  501 -0.00000000000E+00  0.00000000000E+00  0.99721797452E+02  0.99721797579E+02  0.50400000000E-02 0.  1.
          1   -1    0    0  501    0  0.00000000000E+00 -0.00000000000E+00 -0.16245808970E+04  0.16245808970E+04  0.50400000000E-02 0. -1.
   -5000001    1    1    2    0    0  0.29816070421E+03  0.99729477639E+02 -0.70738607062E+03  0.81347453996E+03  0.25000000000E+03 0.  0.
    5000001    1    1    2    0    0 -0.29816070421E+03 -0.99729477639E+02 -0.81747302895E+03  0.91082815465E+03  0.25000000000E+03 0.  0.
<mgrwt>
<rscale>  0 0.80499970E+03</rscale>
<asrwt>0</asrwt>
<pdfrwt beam="1">  1        1 0.24993550E+00 0.80499970E+03</pdfrwt>
<pdfrwt beam="2">  1       -1 0.15341816E-01 0.80499970E+03</pdfrwt>
<totfact> 0.17308876E+02</totfact>
</mgrwt>
</event>
<event>
 4    1  0.4047984E-006  0.8100500E+03  0.7818608E-02  0.9545583E-01
          1   -1    0    0  501    0  0.00000000000E+00  0.00000000000E+00  0.14702887774E+04  0.14702887774E+04  0.50400000000E-02 0.  1.
         -1   -1    0    0    0  501 -0.00000000000E+00 -0.00000000000E+00 -0.11157349444E+03  0.11157349455E+03  0.50400000000E-02 0. -1.
   -5000001    1    1    2    0    0 -0.12135521452E+03  0.29464914400E+03  0.67979723726E+03  0.79130871974E+03  0.25000000000E+03 0.  0.
    5000001    1    1    2    0    0  0.12135521452E+03 -0.29464914400E+03  0.67891804569E+03  0.79055355221E+03  0.25000000000E+03 0.  0.
<mgrwt>
<rscale>  0 0.81005002E+03</rscale>
<asrwt>0</asrwt>
<pdfrwt beam="1">  1        1 0.22619827E+00 0.81005002E+03</pdfrwt>
<pdfrwt beam="2">  1       -1 0.17165154E-01 0.81005002E+03</pdfrwt>
<totfact> 0.18345490E+02</totfact>
</mgrwt>
</event>
<event>
 4    1  0.4047984E-006  0.7068766E+03  0.7818608E-02  0.9705544E-01
         -1   -1    0    0    0  501 -0.00000000000E+00  0.00000000000E+00  0.54201397521E+03  0.54201397523E+03  0.50400000000E-02 0.  1.
          1   -1    0    0  501    0  0.00000000000E+00 -0.00000000000E+00 -0.23047123236E+03  0.23047123242E+03  0.50400000000E-02 0. -1.
   -5000001    1    1    2    0    0 -0.22288447259E+03 -0.98007542155E+02  0.21696570675E+03  0.41092223637E+03  0.25000000000E+03 0.  0.
    5000001    1    1    2    0    0  0.22288447259E+03  0.98007542155E+02  0.94577036100E+02  0.36156297128E+03  0.25000000000E+03 0.  0.
<mgrwt>
<rscale>  0 0.70687659E+03</rscale>
<asrwt>0</asrwt>
<pdfrwt beam="1">  1        1 0.35457113E-01 0.70687659E+03</pdfrwt>
<pdfrwt beam="2">  1       -1 0.83386765E-01 0.70687659E+03</pdfrwt>
<totfact> 0.17909112E+02</totfact>
</mgrwt>
</event>
<event>
 4    1  0.4047984E-006  0.1562497E+04  0.7818608E-02  0.8843925E-01
         -1   -1    0    0    0  501 -0.00000000000E+00  0.00000000000E+00  0.85127642072E+03  0.85127642074E+03  0.50400000000E-02 0.  1.
          1   -1    0    0  501    0  0.00000000000E+00 -0.00000000000E+00 -0.71698141958E+03  0.71698141960E+03  0.50400000000E-02 0. -1.
   -5000001    1    1    2    0    0 -0.46738849139E+03 -0.57019630243E+03  0.15340789402E+01  0.77851023024E+03  0.25000000000E+03 0.  0.
    5000001    1    1    2    0    0  0.46738849139E+03  0.57019630243E+03  0.13276092221E+03  0.78974761010E+03  0.25000000000E+03 0.  0.
<mgrwt>
<rscale>  0 0.15624972E+04</rscale>
<asrwt>0</asrwt>
<pdfrwt beam="1">  1        1 0.11030483E+00 0.15624972E+04</pdfrwt>
<pdfrwt beam="2">  1       -1 0.13096560E+00 0.15624972E+04</pdfrwt>
<totfact> 0.12584025E+01</totfact>
</mgrwt>
</event>
<event>
 4    1  0.4047984E-006  0.6701417E+03  0.7818608E-02  0.9769702E-01
          1   -1    0    0  501    0  0.00000000000E+00  0.00000000000E+00  0.28726176655E+04  0.28726176655E+04  0.50400000000E-02 0.  1.
         -1   -1    0    0    0  501 -0.00000000000E+00 -0.00000000000E+00 -0.39083679181E+02  0.39083679506E+02  0.50400000000E-02 0. -1.
   -5000001    1    1    2    0    0  0.21921755424E+03 -0.22982796664E+01  0.15964827297E+04  0.16307417712E+04  0.25000000000E+03 0.  0.
    5000001    1    1    2    0    0 -0.21921755424E+03  0.22982796664E+01  0.12370512566E+04  0.12809595738E+04  0.25000000000E+03 0.  0.
<mgrwt>
<rscale>  0 0.67014168E+03</rscale>
<asrwt>0</asrwt>
<pdfrwt beam="1">  1        1 0.44194127E+00 0.67014168E+03</pdfrwt>
<pdfrwt beam="2">  1       -1 0.60128726E-02 0.67014168E+03</pdfrwt>
<totfact> 0.10990896E+02</totfact>
</mgrwt>
</event>
<event>
 4    1  0.4047984E-006  0.6330991E+03  0.7818608E-02  0.9839020E-01
         -1   -1    0    0    0  501 -0.00000000000E+00  0.00000000000E+00  0.12539104870E+03  0.12539104880E+03  0.50400000000E-02 0. -1.
          1   -1    0    0  501    0  0.00000000000E+00 -0.00000000000E+00 -0.79912893250E+03  0.79912893251E+03  0.50400000000E-02 0.  1.
   -5000001    1    1    2    0    0 -0.26335104457E+02 -0.12471864547E+03 -0.55076967770E+03  0.61813875152E+03  0.25000000000E+03 0.  0.
    5000001    1    1    2    0    0  0.26335104457E+02  0.12471864547E+03 -0.12296820610E+03  0.30638122979E+03  0.25000000000E+03 0.  0.
<mgrwt>
<rscale>  0 0.63309909E+03</rscale>
<asrwt>0</asrwt>
<pdfrwt beam="1">  1        1 0.12294291E+00 0.63309909E+03</pdfrwt>
<pdfrwt beam="2">  1       -1 0.19290931E-01 0.63309909E+03</pdfrwt>
<totfact> 0.48660186E+02</totfact>
</mgrwt>
</event>
<event>
 4    1  0.4047984E-006  0.5368517E+03  0.7818608E-02  0.1004584E+00
          1   -1    0    0  501    0  0.00000000000E+00  0.00000000000E+00  0.22857083082E+04  0.22857083082E+04  0.50400000000E-02 0. -1.
         -1   -1    0    0    0  501 -0.00000000000E+00 -0.00000000000E+00 -0.31523020288E+02  0.31523020691E+02  0.50400000000E-02 0.  1.
   -5000001    1    1    2    0    0  0.63474576669E+02  0.67808510231E+02  0.12583981959E+04  0.12863487223E+04  0.25000000000E+03 0.  0.
    5000001    1    1    2    0    0 -0.63474576669E+02 -0.67808510231E+02  0.99578709197E+03  0.10308826065E+04  0.25000000000E+03 0.  0.
<mgrwt>
<rscale>  0 0.53685167E+03</rscale>
<asrwt>0</asrwt>
<pdfrwt beam="1">  1        1 0.35164745E+00 0.53685167E+03</pdfrwt>
<pdfrwt beam="2">  1       -1 0.48496952E-02 0.53685167E+03</pdfrwt>
<totfact> 0.39104241E+02</totfact>
</mgrwt>
</event>
<event>
 4    1  0.4047984E-006  0.7833781E+03  0.7818608E-02  0.9584393E-01
          1   -1    0    0  501    0  0.00000000000E+00  0.00000000000E+00  0.18233627935E+04  0.18233627935E+04  0.50400000000E-02 0.  1.
         -1   -1    0    0    0  501 -0.00000000000E+00 -0.00000000000E+00 -0.84141406866E+02  0.84141407016E+02  0.50400000000E-02 0. -1.
   -5000001    1    1    2    0    0  0.29686196366E+03  0.25967381074E+02  0.75752309706E+03  0.85155303588E+03  0.25000000000E+03 0.  0.
    5000001    1    1    2    0    0 -0.29686196366E+03 -0.25967381074E+02  0.98169828959E+03  0.10559511647E+04  0.25000000000E+03 0.  0.
<mgrwt>
<rscale>  0 0.78337810E+03</rscale>
<asrwt>0</asrwt>
<pdfrwt beam="1">  1        1 0.28051735E+00 0.78337810E+03</pdfrwt>
<pdfrwt beam="2">  1       -1 0.12944832E-01 0.78337810E+03</pdfrwt>
<totfact> 0.16777963E+02</totfact>
</mgrwt>
</event>
<event>
 4    1  0.4047984E-006  0.1182706E+04  0.7818608E-02  0.9128130E-01
         -1   -1    0    0    0  501 -0.00000000000E+00  0.00000000000E+00  0.26427868843E+03  0.26427868848E+03  0.50400000000E-02 0. -1.
          1   -1    0    0  501    0  0.00000000000E+00 -0.00000000000E+00 -0.13232184290E+04  0.13232184290E+04  0.50400000000E-02 0.  1.
   -5000001    1    1    2    0    0  0.34193027387E+03 -0.22862929958E+03 -0.99057177417E+03  0.11013265222E+04  0.25000000000E+03 0.  0.
    5000001    1    1    2    0    0 -0.34193027387E+03  0.22862929958E+03 -0.68367966355E+02  0.48617059520E+03  0.25000000000E+03 0.  0.
<mgrwt>
<rscale>  0 0.11827061E+04</rscale>
<asrwt>0</asrwt>
<pdfrwt beam="1">  1        1 0.20357206E+00 0.11827061E+04</pdfrwt>
<pdfrwt beam="2">  1       -1 0.40658260E-01 0.11827061E+04</pdfrwt>
<totfact> 0.50976838E+01</totfact>
</mgrwt>
</event>
<event>
 4    1  0.4047984E-006  0.6330786E+03  0.7818608E-02  0.9839059E-01
          1   -1    0    0  501    0  0.00000000000E+00  0.00000000000E+00  0.27962936278E+03  0.27962936282E+03  0.50400000000E-02 0.  1.
         -1   -1    0    0    0  501 -0.00000000000E+00 -0.00000000000E+00 -0.35832123876E+03  0.35832123879E+03  0.50400000000E-02 0. -1.
   -5000001    1    1    2    0    0 -0.16396843647E+03 -0.60925426994E+02  0.45561520389E+02  0.30850187674E+03  0.25000000000E+03 0.  0.
    5000001    1    1    2    0    0  0.16396843647E+03  0.60925426994E+02 -0.12425339637E+03  0.32944872488E+03  0.25000000000E+03 0.  0.
<mgrwt>
<rscale>  0 0.63307864E+03</rscale>
<asrwt>0</asrwt>
<pdfrwt beam="1">  1        1 0.43019902E-01 0.63307864E+03</pdfrwt>
<pdfrwt beam="2">  1       -1 0.55126345E-01 0.63307864E+03</pdfrwt>
<totfact> 0.32413163E+02</totfact>
</mgrwt>
</event>
<event>
 4    1  0.4047984E-006  0.6897385E+03  0.7818608E-02  0.9734944E-01
         -1   -1    0    0    0  501 -0.00000000000E+00  0.00000000000E+00  0.98768266374E+02  0.98768266502E+02  0.50400000000E-02 0. -1.
          1   -1    0    0  501    0  0.00000000000E+00 -0.00000000000E+00 -0.12041801149E+04  0.12041801149E+04  0.50400000000E-02 0.  1.
   -5000001    1    1    2    0    0 -0.18523651133E+03  0.14568620246E+03 -0.60930638008E+03  0.69949360220E+03  0.25000000000E+03 0.  0.
    5000001    1    1    2    0    0  0.18523651133E+03 -0.14568620246E+03 -0.49610546840E+03  0.60345477917E+03  0.25000000000E+03 0.  0.
<mgrwt>
<rscale>  0 0.68973845E+03</rscale>
<asrwt>0</asrwt>
<pdfrwt beam="1">  1        1 0.18525847E+00 0.68973845E+03</pdfrwt>
<pdfrwt beam="2">  1       -1 0.15195119E-01 0.68973845E+03</pdfrwt>
<totfact> 0.34722468E+02</totfact>
</mgrwt>
</event>
<event>
 4    1  0.4047984E-006  0.8830425E+03  0.7818608E-02  0.9447031E-01
         -1   -1    0    0    0  501 -0.00000000000E+00  0.00000000000E+00  0.40640342717E+03  0.40640342720E+03  0.50400000000E-02 0. -1.
          1   -1    0    0  501    0  0.00000000000E+00 -0.00000000000E+00 -0.47967360821E+03  0.47967360824E+03  0.50400000000E-02 0.  1.
   -5000001    1    1    2    0    0  0.31972085472E+03 -0.86968502356E+02  0.11440144606E+03  0.43054922623E+03  0.25000000000E+03 0.  0.
    5000001    1    1    2    0    0 -0.31972085472E+03  0.86968502356E+02 -0.18767162711E+03  0.45552780921E+03  0.25000000000E+03 0.  0.
<mgrwt>
<rscale>  0 0.88304246E+03</rscale>
<asrwt>0</asrwt>
<pdfrwt beam="1">  1        1 0.73795940E-01 0.88304246E+03</pdfrwt>
<pdfrwt beam="2">  1       -1 0.62523604E-01 0.88304246E+03</pdfrwt>
<totfact> 0.12285884E+02</totfact>
</mgrwt>
</event>
<event>
 4    1  0.4047984E-006  0.6721109E+03  0.7818608E-02  0.9766152E-01
         -1   -1    0    0    0  501 -0.00000000000E+00  0.00000000000E+00  0.49770055062E+03  0.49770055064E+03  0.50400000000E-02 0. -1.
          1   -1    0    0  501    0  0.00000000000E+00 -0.00000000000E+00 -0.22691009575E+03  0.22691009580E+03  0.50400000000E-02 0.  1.
   -5000001    1    1    2    0    0 -0.21549464965E+01 -0.21517022802E+03  0.20468358448E+03  0.38819871275E+03  0.25000000000E+03 0.  0.
    5000001    1    1    2    0    0  0.21549464965E+01  0.21517022802E+03  0.66106870386E+02  0.33641193370E+03  0.25000000000E+03 0.  0.
<mgrwt>
<rscale>  0 0.67211094E+03</rscale>
<asrwt>0</asrwt>
<pdfrwt beam="1">  1        1 0.34909245E-01 0.67211094E+03</pdfrwt>
<pdfrwt beam="2">  1       -1 0.76569316E-01 0.67211094E+03</pdfrwt>
<totfact> 0.21926511E+02</totfact>
</mgrwt>
</event>
<event>
 4    1  0.4047984E-006  0.6940508E+03  0.7818608E-02  0.9727461E-01
         -1   -1    0    0    0  501 -0.00000000000E+00  0.00000000000E+00  0.10021820397E+03  0.10021820410E+03  0.50400000000E-02 0. -1.
          1   -1    0    0  501    0  0.00000000000E+00 -0.00000000000E+00 -0.12016441549E+04  0.12016441549E+04  0.50400000000E-02 0.  1.
   -5000001    1    1    2    0    0 -0.17427894343E+03  0.12187571572E+03 -0.33932907477E+03  0.47209221683E+03  0.25000000000E+03 0.  0.
    5000001    1    1    2    0    0  0.17427894343E+03 -0.12187571572E+03 -0.76209687617E+03  0.82977014220E+03  0.25000000000E+03 0.  0.
<mgrwt>
<rscale>  0 0.69405077E+03</rscale>
<asrwt>0</asrwt>
<pdfrwt beam="1">  1        1 0.18486832E+00 0.69405077E+03</pdfrwt>
<pdfrwt beam="2">  1       -1 0.15418186E-01 0.69405077E+03</pdfrwt>
<totfact> 0.34043526E+02</totfact>
</mgrwt>
</event>
<event>
 4    1  0.4047984E-006  0.8045241E+03  0.7818608E-02  0.9553492E-01
          1   -1    0    0  501    0  0.00000000000E+00  0.00000000000E+00  0.16583243349E+04  0.16583243349E+04  0.50400000000E-02 0. -1.
         -1   -1    0    0    0  501 -0.00000000000E+00 -0.00000000000E+00 -0.97577267349E+02  0.97577267479E+02  0.50400000000E-02 0.  1.
   -5000001    1    1    2    0    0  0.18595553779E+03  0.84957713231E+02  0.25694059404E+03  0.41269328070E+03  0.25000000000E+03 0.  0.
    5000001    1    1    2    0    0 -0.18595553779E+03 -0.84957713231E+02  0.13038064735E+04  0.13432083217E+04  0.25000000000E+03 0.  0.
<mgrwt>
<rscale>  0 0.80452410E+03</rscale>
<asrwt>0</asrwt>
<pdfrwt beam="1">  1        1 0.25512681E+00 0.80452410E+03</pdfrwt>
<pdfrwt beam="2">  1       -1 0.15011888E-01 0.80452410E+03</pdfrwt>
<totfact> 0.17015166E+02</totfact>
</mgrwt>
</event>
<event>
 4    1  0.4047984E-006  0.9844603E+03  0.7818608E-02  0.9325755E-01
         -1   -1    0    0    0  501 -0.00000000000E+00  0.00000000000E+00  0.36234788002E+03  0.36234788005E+03  0.50400000000E-02 0. -1.
          1   -1    0    0  501    0  0.00000000000E+00 -0.00000000000E+00 -0.66866822928E+03  0.66866822930E+03  0.50400000000E-02 0.  1.
   -5000001    1    1    2    0    0 -0.21222537066E+02 -0.38375055725E+03 -0.34072648690E+03  0.57123499994E+03  0.25000000000E+03 0.  0.
    5000001    1    1    2    0    0  0.21222537066E+02  0.38375055725E+03  0.34406137640E+02  0.45978110942E+03  0.25000000000E+03 0.  0.
<mgrwt>
<rscale>  0 0.98446029E+03</rscale>
<asrwt>0</asrwt>
<pdfrwt beam="1">  1        1 0.10287204E+00 0.98446029E+03</pdfrwt>
<pdfrwt beam="2">  1       -1 0.55745828E-01 0.98446029E+03</pdfrwt>
<totfact> 0.95353266E+01</totfact>
</mgrwt>
</event>
<event>
 4    1  0.4047984E-006  0.9286685E+03  0.7818608E-02  0.9390437E-01
          1   -1    0    0  501    0  0.00000000000E+00  0.00000000000E+00  0.77394839103E+03  0.77394839105E+03  0.50400000000E-02 0.  1.
         -1   -1    0    0    0  501 -0.00000000000E+00 -0.00000000000E+00 -0.27857968226E+03  0.27857968230E+03  0.50400000000E-02 0. -1.
   -5000001    1    1    2    0    0 -0.25804913817E+03 -0.28755852206E+03  0.31779827003E+03  0.55926290933E+03  0.25000000000E+03 0.  0.
    5000001    1    1    2    0    0  0.25804913817E+03  0.28755852206E+03  0.17757043875E+03  0.49326516402E+03  0.25000000000E+03 0.  0.
<mgrwt>
<rscale>  0 0.92866850E+03</rscale>
<asrwt>0</asrwt>
<pdfrwt beam="1">  1        1 0.11906898E+00 0.92866850E+03</pdfrwt>
<pdfrwt beam="2">  1       -1 0.42858413E-01 0.92866850E+03</pdfrwt>
<totfact> 0.12571381E+02</totfact>
</mgrwt>
</event>
<event>
 4    1  0.4047984E-006  0.7676595E+03  0.7818608E-02  0.9608046E-01
         -1   -1    0    0    0  501 -0.00000000000E+00  0.00000000000E+00  0.22455556966E+03  0.22455556972E+03  0.50400000000E-02 0. -1.
          1   -1    0    0  501    0  0.00000000000E+00 -0.00000000000E+00 -0.65607498808E+03  0.65607498810E+03  0.50400000000E-02 0.  1.
   -5000001    1    1    2    0    0  0.14415897804E+03  0.22570860997E+03 -0.84465396643E+02  0.37597950848E+03  0.25000000000E+03 0.  0.
    5000001    1    1    2    0    0 -0.14415897804E+03 -0.22570860997E+03 -0.34705402178E+03  0.50465104934E+03  0.25000000000E+03 0.  0.
<mgrwt>
<rscale>  0 0.76765954E+03</rscale>
<asrwt>0</asrwt>
<pdfrwt beam="1">  1        1 0.10093461E+00 0.76765954E+03</pdfrwt>
<pdfrwt beam="2">  1       -1 0.34547011E-01 0.76765954E+03</pdfrwt>
<totfact> 0.24119936E+02</totfact>
</mgrwt>
</event>
<event>
 4    1  0.4047984E-006  0.5964134E+03  0.7818608E-02  0.9912875E-01
         -1   -1    0    0    0  501 -0.00000000000E+00  0.00000000000E+00  0.13458889837E+03  0.13458889846E+03  0.50400000000E-02 0.  1.
          1   -1    0    0  501    0  0.00000000000E+00 -0.00000000000E+00 -0.66073229073E+03  0.66073229075E+03  0.50400000000E-02 0. -1.
   -5000001    1    1    2    0    0  0.14374439050E+03  0.12640366491E+02 -0.16323663742E+03  0.33161487973E+03  0.25000000000E+03 0.  0.
    5000001    1    1    2    0    0 -0.14374439050E+03 -0.12640366491E+02 -0.36290675495E+03  0.46370630948E+03  0.25000000000E+03 0.  0.
<mgrwt>
<rscale>  0 0.59641338E+03</rscale>
<asrwt>0</asrwt>
<pdfrwt beam="1">  1        1 0.10165112E+00 0.59641338E+03</pdfrwt>
<pdfrwt beam="2">  1       -1 0.20705985E-01 0.59641338E+03</pdfrwt>
<totfact> 0.57911298E+02</totfact>
</mgrwt>
</event>
<event>
 4    1  0.4047984E-006  0.6226802E+03  0.7818608E-02  0.9859438E-01
         -1   -1    0    0    0  501 -0.00000000000E+00  0.00000000000E+00  0.30616782801E+03  0.30616782805E+03  0.50400000000E-02 0. -1.
          1   -1    0    0  501    0  0.00000000000E+00 -0.00000000000E+00 -0.31659976430E+03  0.31659976434E+03  0.50400000000E-02 0.  1.
   -5000001    1    1    2    0    0 -0.49203052466E+02  0.97185171925E+02 -0.15545943078E+03  0.31390051391E+03  0.25000000000E+03 0.  0.
    5000001    1    1    2    0    0  0.49203052466E+02 -0.97185171925E+02  0.14502749448E+03  0.30886707848E+03  0.25000000000E+03 0.  0.
<mgrwt>
<rscale>  0 0.62268021E+03</rscale>
<asrwt>0</asrwt>
<pdfrwt beam="1">  1        1 0.48707657E-01 0.62268021E+03</pdfrwt>
<pdfrwt beam="2">  1       -1 0.47102742E-01 0.62268021E+03</pdfrwt>
<totfact> 0.37211671E+02</totfact>
</mgrwt>
</event>
<event>
 4    1  0.4047984E-006  0.1155550E+04  0.7818608E-02  0.9152679E-01
          1   -1    0    0  501    0  0.00000000000E+00  0.00000000000E+00  0.11769039929E+04  0.11769039929E+04  0.50400000000E-02 0.  1.
         -1   -1    0    0    0  501 -0.00000000000E+00 -0.00000000000E+00 -0.28364593120E+03  0.28364593125E+03  0.50400000000E-02 0. -1.
   -5000001    1    1    2    0    0 -0.99475155162E+02 -0.48311377005E+03  0.23501830690E+03  0.60085591109E+03  0.25000000000E+03 0.  0.
    5000001    1    1    2    0    0  0.99475155162E+02  0.48311377005E+03  0.65823975478E+03  0.85969401305E+03  0.25000000000E+03 0.  0.
<mgrwt>
<rscale>  0 0.11555501E+04</rscale>
<asrwt>0</asrwt>
<pdfrwt beam="1">  1        1 0.18106215E+00 0.11555501E+04</pdfrwt>
<pdfrwt beam="2">  1       -1 0.43637837E-01 0.11555501E+04</pdfrwt>
<totfact> 0.57183796E+01</totfact>
</mgrwt>
</event>
<event>
 4    1  0.4047984E-006  0.7875037E+03  0.7818608E-02  0.9578283E-01
          1   -1    0    0  501    0  0.00000000000E+00  0.00000000000E+00  0.25953946466E+04  0.25953946466E+04  0.50400000000E-02 0. -1.
         -1   -1    0    0    0  501 -0.00000000000E+00 -0.00000000000E+00 -0.59736784407E+02  0.59736784620E+02  0.50400000000E-02 0.  1.
   -5000001    1    1    2    0    0 -0.29082078460E+03  0.55785199303E+02  0.15026761683E+04  0.15518454769E+04  0.25000000000E+03 0.  0.
    5000001    1    1    2    0    0  0.29082078460E+03 -0.55785199303E+02  0.10329816938E+04  0.11032859543E+04  0.25000000000E+03 0.  0.
<mgrwt>
<rscale>  0 0.78750373E+03</rscale>
<asrwt>0</asrwt>
<pdfrwt beam="1">  1        1 0.39929136E+00 0.78750373E+03</pdfrwt>
<pdfrwt beam="2">  1       -1 0.91902773E-02 0.78750373E+03</pdfrwt>
<totfact> 0.87265571E+01</totfact>
</mgrwt>
</event>
<event>
 4    1  0.4047984E-006  0.5977726E+03  0.7818608E-02  0.9910038E-01
          1   -1    0    0  501    0  0.00000000000E+00  0.00000000000E+00  0.38366393262E+03  0.38366393265E+03  0.50400000000E-02 0.  1.
         -1   -1    0    0    0  501 -0.00000000000E+00 -0.00000000000E+00 -0.23284185217E+03  0.23284185223E+03  0.50400000000E-02 0. -1.
   -5000001    1    1    2    0    0 -0.13619970666E+03  0.90936805469E+02  0.71669964261E+02  0.30733767498E+03  0.25000000000E+03 0.  0.
    5000001    1    1    2    0    0  0.13619970666E+03 -0.90936805469E+02  0.79152116180E+02  0.30916810990E+03  0.25000000000E+03 0.  0.
<mgrwt>
<rscale>  0 0.59777260E+03</rscale>
<asrwt>0</asrwt>
<pdfrwt beam="1">  1        1 0.59025220E-01 0.59777260E+03</pdfrwt>
<pdfrwt beam="2">  1       -1 0.35821823E-01 0.59777260E+03</pdfrwt>
<totfact> 0.47734469E+02</totfact>
</mgrwt>
</event>
<event>
 4    1  0.4047984E-006  0.1065219E+04  0.7818608E-02  0.9239771E-01
         -1   -1    0    0    0  501 -0.00000000000E+00  0.00000000000E+00  0.12994429947E+04  0.12994429947E+04  0.50400000000E-02 0. -1.
          1   -1    0    0  501    0  0.00000000000E+00 -0.00000000000E+00 -0.21830349356E+03  0.21830349362E+03  0.50400000000E-02 0.  1.
   -5000001    1    1    2    0    0 -0.40601495220E+03 -0.21904846344E+03  0.41042989071E+03  0.66617044811E+03  0.25000000000E+03 0.  0.
    5000001    1    1    2    0    0  0.40601495220E+03  0.21904846344E+03  0.67070961042E+03  0.85157604021E+03  0.25000000000E+03 0.  0.
<mgrwt>
<rscale>  0 0.10652191E+04</rscale>
<asrwt>0</asrwt>
<pdfrwt beam="1">  1        1 0.33585153E-01 0.10652191E+04</pdfrwt>
<pdfrwt beam="2">  1       -1 0.19991431E+00 0.10652191E+04</pdfrwt>
<totfact> 0.19997086E+01</totfact>
</mgrwt>
</event>
<event>
 4    1  0.4047984E-006  0.7635608E+03  0.7818608E-02  0.9614313E-01
          1   -1    0    0  501    0  0.00000000000E+00  0.00000000000E+00  0.67648753970E+02  0.67648754158E+02  0.50400000000E-02 0. -1.
         -1   -1    0    0    0  501 -0.00000000000E+00 -0.00000000000E+00 -0.21546038370E+04  0.21546038370E+04  0.50400000000E-02 0.  1.
   -5000001    1    1    2    0    0  0.34312782310E+01  0.26980418698E+03 -0.13409946517E+04  0.13905296577E+04  0.25000000000E+03 0.  0.
    5000001    1    1    2    0    0 -0.34312782310E+01 -0.26980418698E+03 -0.74596043134E+03  0.83172293350E+03  0.25000000000E+03 0.  0.
<mgrwt>
<rscale>  0 0.76356078E+03</rscale>
<asrwt>0</asrwt>
<pdfrwt beam="1">  1        1 0.10407502E-01 0.76356078E+03</pdfrwt>
<pdfrwt beam="2">  1       -1 0.33147746E+00 0.76356078E+03</pdfrwt>
<totfact> 0.13694057E+01</totfact>
</mgrwt>
</event>
<event>
 4    1  0.4047984E-006  0.1048662E+04  0.7818608E-02  0.9256727E-01
          1   -1    0    0  501    0  0.00000000000E+00  0.00000000000E+00  0.92096502779E+03  0.92096502780E+03  0.50400000000E-02 0. -1.
         -1   -1    0    0    0  501 -0.00000000000E+00 -0.00000000000E+00 -0.29851597303E+03  0.29851597307E+03  0.50400000000E-02 0.  1.
   -5000001    1    1    2    0    0 -0.36609266438E+03  0.93801985072E+02  0.44320681115E+01  0.45314710034E+03  0.25000000000E+03 0.  0.
    5000001    1    1    2    0    0  0.36609266438E+03 -0.93801985072E+02  0.61801698665E+03  0.76633390053E+03  0.25000000000E+03 0.  0.
<mgrwt>
<rscale>  0 0.10486616E+04</rscale>
<asrwt>0</asrwt>
<pdfrwt beam="1">  1        1 0.14168693E+00 0.10486616E+04</pdfrwt>
<pdfrwt beam="2">  1       -1 0.45925535E-01 0.10486616E+04</pdfrwt>
<totfact> 0.82393587E+01</totfact>
</mgrwt>
</event>
<event>
 4    1  0.4047984E-006  0.8595150E+03  0.7818608E-02  0.9477654E-01
         -1   -1    0    0    0  501 -0.00000000000E+00  0.00000000000E+00  0.14831970016E+03  0.14831970025E+03  0.50400000000E-02 0. -1.
          1   -1    0    0  501    0  0.00000000000E+00 -0.00000000000E+00 -0.12452258749E+04  0.12452258750E+04  0.50400000000E-02 0.  1.
   -5000001    1    1    2    0    0 -0.19507339261E+03  0.27947450748E+03 -0.42253307825E+03  0.59765695098E+03  0.25000000000E+03 0.  0.
    5000001    1    1    2    0    0  0.19507339261E+03 -0.27947450748E+03 -0.67437309654E+03  0.79588862423E+03  0.25000000000E+03 0.  0.
<mgrwt>
<rscale>  0 0.85951505E+03</rscale>
<asrwt>0</asrwt>
<pdfrwt beam="1">  1        1 0.19157320E+00 0.85951505E+03</pdfrwt>
<pdfrwt beam="2">  1       -1 0.22818416E-01 0.85951505E+03</pdfrwt>
<totfact> 0.16359918E+02</totfact>
</mgrwt>
</event>
<event>
 4    1  0.4047984E-006  0.5601383E+03  0.7818608E-02  0.9991742E-01
          1   -1    0    0  501    0  0.00000000000E+00  0.00000000000E+00  0.11232129933E+04  0.11232129933E+04  0.50400000000E-02 0.  1.
         -1   -1    0    0    0  501 -0.00000000000E+00 -0.00000000000E+00 -0.69834232713E+02  0.69834232895E+02  0.50400000000E-02 0. -1.
   -5000001    1    1    2    0    0  0.68146582460E+02  0.47533918950E+02  0.72914665468E+03  0.77527948133E+03  0.25000000000E+03 0.  0.
    5000001    1    1    2    0    0 -0.68146582460E+02 -0.47533918950E+02  0.32423210591E+03  0.41776774487E+03  0.25000000000E+03 0.  0.
<mgrwt>
<rscale>  0 0.56013826E+03</rscale>
<asrwt>0</asrwt>
<pdfrwt beam="1">  1        1 0.17280198E+00 0.56013826E+03</pdfrwt>
<pdfrwt beam="2">  1       -1 0.10743729E-01 0.56013826E+03</pdfrwt>
<totfact> 0.69792004E+02</totfact>
</mgrwt>
</event>
<event>
 4    1  0.4047984E-006  0.1142526E+04  0.7818608E-02  0.9164707E-01
          1   -1    0    0  501    0  0.00000000000E+00  0.00000000000E+00  0.72057053054E+03  0.72057053056E+03  0.50400000000E-02 0. -1.
         -1   -1    0    0    0  501 -0.00000000000E+00 -0.00000000000E+00 -0.45289295607E+03  0.45289295609E+03  0.50400000000E-02 0.  1.
   -5000001    1    1    2    0    0  0.50778738977E+03  0.21260591829E+02  0.21029420672E+03  0.60417191209E+03  0.25000000000E+03 0.  0.
    5000001    1    1    2    0    0 -0.50778738977E+03 -0.21260591829E+02  0.57383367755E+02  0.56929157457E+03  0.25000000000E+03 0.  0.
<mgrwt>
<rscale>  0 0.11425258E+04</rscale>
<asrwt>0</asrwt>
<pdfrwt beam="1">  1        1 0.11085700E+00 0.11425258E+04</pdfrwt>
<pdfrwt beam="2">  1       -1 0.69675840E-01 0.11425258E+04</pdfrwt>
<totfact> 0.53963263E+01</totfact>
</mgrwt>
</event>
<event>
 4    1  0.4047984E-006  0.6751361E+03  0.7818608E-02  0.9760724E-01
          1   -1    0    0  501    0  0.00000000000E+00  0.00000000000E+00  0.36385195429E+03  0.36385195432E+03  0.50400000000E-02 0.  1.
         -1   -1    0    0    0  501 -0.00000000000E+00 -0.00000000000E+00 -0.31318284795E+03  0.31318284799E+03  0.50400000000E-02 0. -1.
   -5000001    1    1    2    0    0  0.89314898295E+02 -0.17199657774E+03 -0.92862172149E+02  0.32967158936E+03  0.25000000000E+03 0.  0.
    5000001    1    1    2    0    0 -0.89314898295E+02  0.17199657774E+03  0.14353127849E+03  0.34736321296E+03  0.25000000000E+03 0.  0.
<mgrwt>
<rscale>  0 0.67513611E+03</rscale>
<asrwt>0</asrwt>
<pdfrwt beam="1">  1        1 0.55977224E-01 0.67513611E+03</pdfrwt>
<pdfrwt beam="2">  1       -1 0.48181977E-01 0.67513611E+03</pdfrwt>
<totfact> 0.29701526E+02</totfact>
</mgrwt>
</event>
<event>
 4    1  0.4047984E-006  0.8085161E+03  0.7818608E-02  0.9547772E-01
         -1   -1    0    0    0  501 -0.00000000000E+00  0.00000000000E+00  0.14438784439E+03  0.14438784448E+03  0.50400000000E-02 0. -1.
          1   -1    0    0  501    0  0.00000000000E+00 -0.00000000000E+00 -0.11318443841E+04  0.11318443841E+04  0.50400000000E-02 0.  1.
   -5000001    1    1    2    0    0  0.25092626146E+03 -0.19362578838E+03 -0.45952072995E+03  0.61164878474E+03  0.25000000000E+03 0.  0.
    5000001    1    1    2    0    0 -0.25092626146E+03  0.19362578838E+03 -0.52793580972E+03  0.66458344382E+03  0.25000000000E+03 0.  0.
<mgrwt>
<rscale>  0 0.80851610E+03</rscale>
<asrwt>0</asrwt>
<pdfrwt beam="1">  1        1 0.17412990E+00 0.80851610E+03</pdfrwt>
<pdfrwt beam="2">  1       -1 0.22213515E-01 0.80851610E+03</pdfrwt>
<totfact> 0.20774138E+02</totfact>
</mgrwt>
</event>
<event>
 4    1  0.4047984E-006  0.7275695E+03  0.7818608E-02  0.9671213E-01
         -1   -1    0    0    0  501 -0.00000000000E+00  0.00000000000E+00  0.37188309182E+03  0.37188309185E+03  0.50400000000E-02 0. -1.
          1   -1    0    0  501    0  0.00000000000E+00 -0.00000000000E+00 -0.35586277743E+03  0.35586277746E+03  0.50400000000E-02 0.  1.
   -5000001    1    1    2    0    0 -0.21101522195E+03 -0.11160092079E+03  0.12142706126E+03  0.36636965025E+03  0.25000000000E+03 0.  0.
    5000001    1    1    2    0    0  0.21101522195E+03  0.11160092079E+03 -0.10540674687E+03  0.36137621906E+03  0.25000000000E+03 0.  0.
<mgrwt>
<rscale>  0 0.72756952E+03</rscale>
<asrwt>0</asrwt>
<pdfrwt beam="1">  1        1 0.54748120E-01 0.72756952E+03</pdfrwt>
<pdfrwt beam="2">  1       -1 0.57212783E-01 0.72756952E+03</pdfrwt>
<totfact> 0.21973467E+02</totfact>
</mgrwt>
</event>
<event>
 4    1  0.4047984E-006  0.1687306E+04  0.7818608E-02  0.8768638E-01
         -1   -1    0    0    0  501 -0.00000000000E+00  0.00000000000E+00  0.34206129155E+03  0.34206129159E+03  0.50400000000E-02 0. -1.
          1   -1    0    0  501    0  0.00000000000E+00 -0.00000000000E+00 -0.20807685366E+04  0.20807685367E+04  0.50400000000E-02 0.  1.
   -5000001    1    1    2    0    0  0.18996659225E+03  0.77934769254E+03 -0.76018394166E+03  0.11330709409E+04  0.25000000000E+03 0.  0.
    5000001    1    1    2    0    0 -0.18996659225E+03 -0.77934769254E+03 -0.97852330343E+03  0.12897588873E+04  0.25000000000E+03 0.  0.
<mgrwt>
<rscale>  0 0.16873060E+04</rscale>
<asrwt>0</asrwt>
<pdfrwt beam="1">  1        1 0.32011823E+00 0.16873060E+04</pdfrwt>
<pdfrwt beam="2">  1       -1 0.52624815E-01 0.16873060E+04</pdfrwt>
<totfact> 0.91083430E+00</totfact>
</mgrwt>
</event>
<event>
 4    1  0.4047984E-006  0.6742842E+03  0.7818608E-02  0.9762249E-01
         -1   -1    0    0    0  501 -0.00000000000E+00  0.00000000000E+00  0.52959792059E+02  0.52959792298E+02  0.50400000000E-02 0. -1.
          1   -1    0    0  501    0  0.00000000000E+00 -0.00000000000E+00 -0.21462468623E+04  0.21462468624E+04  0.50400000000E-02 0.  1.
   -5000001    1    1    2    0    0 -0.12988683170E+03 -0.16312749567E+03 -0.13325381540E+04  0.13717285084E+04  0.25000000000E+03 0.  0.
    5000001    1    1    2    0    0  0.12988683170E+03  0.16312749567E+03 -0.76074891630E+03  0.82747814626E+03  0.25000000000E+03 0.  0.
<mgrwt>
<rscale>  0 0.67428418E+03</rscale>
<asrwt>0</asrwt>
<pdfrwt beam="1">  1        1 0.33019176E+00 0.67428418E+03</pdfrwt>
<pdfrwt beam="2">  1       -1 0.81476620E-02 0.67428418E+03</pdfrwt>
<totfact> 0.21478880E+02</totfact>
</mgrwt>
</event>
<event>
 4    1  0.4047984E-006  0.6861946E+03  0.7818608E-02  0.9741137E-01
          1   -1    0    0  501    0  0.00000000000E+00  0.00000000000E+00  0.63840477481E+03  0.63840477483E+03  0.50400000000E-02 0.  1.
         -1   -1    0    0    0  501 -0.00000000000E+00 -0.00000000000E+00 -0.18439048563E+03  0.18439048570E+03  0.50400000000E-02 0. -1.
   -5000001    1    1    2    0    0  0.70393708523E+02 -0.22308327114E+03  0.25366714620E+03  0.42610848515E+03  0.25000000000E+03 0.  0.
    5000001    1    1    2    0    0 -0.70393708523E+02  0.22308327114E+03  0.20034714298E+03  0.39668677538E+03  0.25000000000E+03 0.  0.
<mgrwt>
<rscale>  0 0.68619463E+03</rscale>
<asrwt>0</asrwt>
<pdfrwt beam="1">  1        1 0.98216121E-01 0.68619463E+03</pdfrwt>
<pdfrwt beam="2">  1       -1 0.28367767E-01 0.68619463E+03</pdfrwt>
<totfact> 0.35598746E+02</totfact>
</mgrwt>
</event>
<event>
 4    1  0.4047984E-006  0.6907992E+03  0.7818608E-02  0.9733097E-01
         -1   -1    0    0    0  501 -0.00000000000E+00  0.00000000000E+00  0.63479898207E+02  0.63479898407E+02  0.50400000000E-02 0. -1.
          1   -1    0    0  501    0  0.00000000000E+00 -0.00000000000E+00 -0.18793490518E+04  0.18793490519E+04  0.50400000000E-02 0.  1.
   -5000001    1    1    2    0    0  0.12029032419E+03 -0.20551172762E+03 -0.88037062849E+03  0.94565177301E+03  0.25000000000E+03 0.  0.
    5000001    1    1    2    0    0 -0.12029032419E+03  0.20551172762E+03 -0.93549852514E+03  0.99717717725E+03  0.25000000000E+03 0.  0.
<mgrwt>
<rscale>  0 0.69079921E+03</rscale>
<asrwt>0</asrwt>
<pdfrwt beam="1">  1        1 0.28913058E+00 0.69079921E+03</pdfrwt>
<pdfrwt beam="2">  1       -1 0.97661396E-02 0.69079921E+03</pdfrwt>
<totfact> 0.24307888E+02</totfact>
</mgrwt>
</event>
<event>
 4    1  0.4047984E-006  0.7111699E+03  0.7818608E-02  0.9698319E-01
          1   -1    0    0  501    0  0.00000000000E+00  0.00000000000E+00  0.98441703117E+03  0.98441703118E+03  0.50400000000E-02 0.  1.
         -1   -1    0    0    0  501 -0.00000000000E+00 -0.00000000000E+00 -0.12844217607E+03  0.12844217617E+03  0.50400000000E-02 0. -1.
   -5000001    1    1    2    0    0  0.20472076929E+03 -0.52837909171E+02  0.21094263478E+03  0.38948585750E+03  0.25000000000E+03 0.  0.
    5000001    1    1    2    0    0 -0.20472076929E+03  0.52837909171E+02  0.64503222032E+03  0.72337334985E+03  0.25000000000E+03 0.  0.
<mgrwt>
<rscale>  0 0.71116993E+03</rscale>
<asrwt>0</asrwt>
<pdfrwt beam="1">  1        1 0.15144877E+00 0.71116993E+03</pdfrwt>
<pdfrwt beam="2">  1       -1 0.19760335E-01 0.71116993E+03</pdfrwt>
<totfact> 0.32874557E+02</totfact>
</mgrwt>
</event>
<event>
 4    1  0.4047984E-006  0.7706294E+03  0.7818608E-02  0.9603531E-01
          1   -1    0    0  501    0  0.00000000000E+00  0.00000000000E+00  0.71470722916E+03  0.71470722917E+03  0.50400000000E-02 0.  1.
         -1   -1    0    0    0  501 -0.00000000000E+00 -0.00000000000E+00 -0.20773181887E+03  0.20773181893E+03  0.50400000000E-02 0. -1.
   -5000001    1    1    2    0    0  0.41958448558E+02 -0.12689627808E+03  0.56586482046E+03  0.63290297190E+03  0.25000000000E+03 0.  0.
    5000001    1    1    2    0    0 -0.41958448558E+02  0.12689627808E+03 -0.58889410178E+02  0.28953607621E+03  0.25000000000E+03 0.  0.
<mgrwt>
<rscale>  0 0.77062944E+03</rscale>
<asrwt>0</asrwt>
<pdfrwt beam="1">  1        1 0.10995496E+00 0.77062944E+03</pdfrwt>
<pdfrwt beam="2">  1       -1 0.31958741E-01 0.77062944E+03</pdfrwt>
<totfact> 0.24338894E+02</totfact>
</mgrwt>
</event>
<event>
 4    1  0.4047984E-006  0.7361343E+03  0.7818608E-02  0.9657358E-01
          1   -1    0    0  501    0  0.00000000000E+00  0.00000000000E+00  0.17367026375E+04  0.17367026376E+04  0.50400000000E-02 0.  1.
         -1   -1    0    0    0  501 -0.00000000000E+00 -0.00000000000E+00 -0.78006125582E+02  0.78006125745E+02  0.50400000000E-02 0. -1.
   -5000001    1    1    2    0    0  0.17585180787E+03  0.86953950174E+02  0.37153578926E+03  0.48890049139E+03  0.25000000000E+03 0.  0.
    5000001    1    1    2    0    0 -0.17585180787E+03 -0.86953950174E+02  0.12871607227E+04  0.13258082719E+04  0.25000000000E+03 0.  0.
<mgrwt>
<rscale>  0 0.73613435E+03</rscale>
<asrwt>0</asrwt>
<pdfrwt beam="1">  1        1 0.26718503E+00 0.73613435E+03</pdfrwt>
<pdfrwt beam="2">  1       -1 0.12000942E-01 0.73613435E+03</pdfrwt>
<totfact> 0.21741675E+02</totfact>
</mgrwt>
</event>
<event>
 4    1  0.4047984E-006  0.1042787E+04  0.7818608E-02  0.9262823E-01
         -1   -1    0    0    0  501 -0.00000000000E+00  0.00000000000E+00  0.56518014538E+03  0.56518014540E+03  0.50400000000E-02 0. -1.
          1   -1    0    0  501    0  0.00000000000E+00 -0.00000000000E+00 -0.48099929771E+03  0.48099929774E+03  0.50400000000E-02 0.  1.
   -5000001    1    1    2    0    0  0.23650254794E+02 -0.43621497076E+03 -0.94397794208E+02  0.51210719466E+03  0.25000000000E+03 0.  0.
    5000001    1    1    2    0    0 -0.23650254794E+02  0.43621497076E+03  0.17857864187E+03  0.53407224848E+03  0.25000000000E+03 0.  0.
<mgrwt>
<rscale>  0 0.10427871E+04</rscale>
<asrwt>0</asrwt>
<pdfrwt beam="1">  1        1 0.73999892E-01 0.10427871E+04</pdfrwt>
<pdfrwt beam="2">  1       -1 0.86950791E-01 0.10427871E+04</pdfrwt>
<totfact> 0.60964025E+01</totfact>
</mgrwt>
</event>
<event>
 4    1  0.4047984E-006  0.1380006E+04  0.7818608E-02  0.8968420E-01
          1   -1    0    0  501    0  0.00000000000E+00  0.00000000000E+00  0.84647087663E+03  0.84647087665E+03  0.50400000000E-02 0.  1.
         -1   -1    0    0    0  501 -0.00000000000E+00 -0.00000000000E+00 -0.56245783231E+03  0.56245783234E+03  0.50400000000E-02 0. -1.
   -5000001    1    1    2    0    0  0.60404477688E+02  0.57283728319E+03 -0.15001776754E+03  0.64559785046E+03  0.25000000000E+03 0.  0.
    5000001    1    1    2    0    0 -0.60404477688E+02 -0.57283728319E+03  0.43403081186E+03  0.76333085853E+03  0.25000000000E+03 0.  0.
<mgrwt>
<rscale>  0 0.13800060E+04</rscale>
<asrwt>0</asrwt>
<pdfrwt beam="1">  1        1 0.13022629E+00 0.13800060E+04</pdfrwt>
<pdfrwt beam="2">  1       -1 0.86531974E-01 0.13800060E+04</pdfrwt>
<totfact> 0.25943468E+01</totfact>
</mgrwt>
</event>
<event>
 4    1  0.4047984E-006  0.5983680E+03  0.7818608E-02  0.9908798E-01
          1   -1    0    0  501    0  0.00000000000E+00  0.00000000000E+00  0.17897705892E+04  0.17897705893E+04  0.50400000000E-02 0.  1.
         -1   -1    0    0    0  501 -0.00000000000E+00 -0.00000000000E+00 -0.50012589067E+02  0.50012589321E+02  0.50400000000E-02 0. -1.
   -5000001    1    1    2    0    0 -0.16103942207E+03  0.26919421813E+02  0.92762308438E+03  0.97449624802E+03  0.25000000000E+03 0.  0.
    5000001    1    1    2    0    0  0.16103942207E+03 -0.26919421813E+02  0.81213491580E+03  0.86528693055E+03  0.25000000000E+03 0.  0.
<mgrwt>
<rscale>  0 0.59836798E+03</rscale>
<asrwt>0</asrwt>
<pdfrwt beam="1">  1        1 0.27534927E+00 0.59836798E+03</pdfrwt>
<pdfrwt beam="2">  1       -1 0.76942458E-02 0.59836798E+03</pdfrwt>
<totfact> 0.40834734E+02</totfact>
</mgrwt>
</event>
<event>
 4    1  0.4047984E-006  0.6520390E+03  0.7818608E-02  0.9802961E-01
          1   -1    0    0  501    0  0.00000000000E+00  0.00000000000E+00  0.32887681537E+03  0.32887681541E+03  0.50400000000E-02 0.  1.
         -1   -1    0    0    0  501 -0.00000000000E+00 -0.00000000000E+00 -0.32318696954E+03  0.32318696958E+03  0.50400000000E-02 0. -1.
   -5000001    1    1    2    0    0  0.17535828484E+03 -0.98508904150E+02  0.60589385549E+02  0.32653576512E+03  0.25000000000E+03 0.  0.
    5000001    1    1    2    0    0 -0.17535828484E+03  0.98508904150E+02 -0.54899539720E+02  0.32552801987E+03  0.25000000000E+03 0.  0.
<mgrwt>
<rscale>  0 0.65203896E+03</rscale>
<asrwt>0</asrwt>
<pdfrwt beam="1">  1        1 0.50596433E-01 0.65203896E+03</pdfrwt>
<pdfrwt beam="2">  1       -1 0.49721072E-01 0.65203896E+03</pdfrwt>
<totfact> 0.31967803E+02</totfact>
</mgrwt>
</event>
<event>
 4    1  0.4047984E-006  0.7078154E+03  0.7818608E-02  0.9703959E-01
          1   -1    0    0  501    0  0.00000000000E+00  0.00000000000E+00  0.59443660956E+03  0.59443660958E+03  0.50400000000E-02 0.  1.
         -1   -1    0    0    0  501 -0.00000000000E+00 -0.00000000000E+00 -0.21070484543E+03  0.21070484549E+03  0.50400000000E-02 0. -1.
   -5000001    1    1    2    0    0 -0.24452725661E+03  0.50989427697E+02  0.21336355602E+03  0.41281655490E+03  0.25000000000E+03 0.  0.
    5000001    1    1    2    0    0  0.24452725661E+03 -0.50989427697E+02  0.17036820810E+03  0.39232490017E+03  0.25000000000E+03 0.  0.
<mgrwt>
<rscale>  0 0.70781544E+03</rscale>
<asrwt>0</asrwt>
<pdfrwt beam="1">  1        1 0.91451786E-01 0.70781544E+03</pdfrwt>
<pdfrwt beam="2">  1       -1 0.32416130E-01 0.70781544E+03</pdfrwt>
<totfact> 0.31248892E+02</totfact>
</mgrwt>
</event>
<event>
 4    1  0.4047984E-006  0.8196407E+03  0.7818608E-02  0.9532015E-01
          1   -1    0    0  501    0  0.00000000000E+00  0.00000000000E+00  0.25072646705E+03  0.25072646710E+03  0.50400000000E-02 0.  1.
         -1   -1    0    0    0  501 -0.00000000000E+00 -0.00000000000E+00 -0.66986441365E+03  0.66986441367E+03  0.50400000000E-02 0. -1.
   -5000001    1    1    2    0    0 -0.24990552134E+03 -0.20677072143E+03 -0.19195867226E+03  0.45227760579E+03  0.25000000000E+03 0.  0.
    5000001    1    1    2    0    0  0.24990552134E+03  0.20677072143E+03 -0.22717927434E+03  0.46831327498E+03  0.25000000000E+03 0.  0.
<mgrwt>
<rscale>  0 0.81964075E+03</rscale>
<asrwt>0</asrwt>
<pdfrwt beam="1">  1        1 0.38573303E-01 0.81964075E+03</pdfrwt>
<pdfrwt beam="2">  1       -1 0.10305606E+00 0.81964075E+03</pdfrwt>
<totfact> 0.99693020E+01</totfact>
</mgrwt>
</event>
<event>
 4    1  0.4047984E-006  0.6731339E+03  0.7818608E-02  0.9764313E-01
         -1   -1    0    0    0  501 -0.00000000000E+00  0.00000000000E+00  0.23287882238E+03  0.23287882244E+03  0.50400000000E-02 0. -1.
          1   -1    0    0  501    0  0.00000000000E+00 -0.00000000000E+00 -0.48642167313E+03  0.48642167316E+03  0.50400000000E-02 0.  1.
   -5000001    1    1    2    0    0 -0.20089554304E+03  0.88239913740E+02 -0.18159309404E+03  0.37897408010E+03  0.25000000000E+03 0.  0.
    5000001    1    1    2    0    0  0.20089554304E+03 -0.88239913740E+02 -0.71949756715E+02  0.34032641549E+03  0.25000000000E+03 0.  0.
<mgrwt>
<rscale>  0 0.67313388E+03</rscale>
<asrwt>0</asrwt>
<pdfrwt beam="1">  1        1 0.74834104E-01 0.67313388E+03</pdfrwt>
<pdfrwt beam="2">  1       -1 0.35827511E-01 0.67313388E+03</pdfrwt>
<totfact> 0.34673560E+02</totfact>
</mgrwt>
</event>
<event>
 4    1  0.4047984E-006  0.5542924E+03  0.7818608E-02  0.1000505E+00
          1   -1    0    0  501    0  0.00000000000E+00  0.00000000000E+00  0.10415271309E+04  0.10415271309E+04  0.50400000000E-02 0.  1.
         -1   -1    0    0    0  501 -0.00000000000E+00 -0.00000000000E+00 -0.73747485545E+02  0.73747485717E+02  0.50400000000E-02 0. -1.
   -5000001    1    1    2    0    0  0.65402517967E+02 -0.85404484990E+02  0.58918453565E+03  0.64900680463E+03  0.25000000000E+03 0.  0.
    5000001    1    1    2    0    0 -0.65402517967E+02  0.85404484990E+02  0.37859510972E+03  0.46626781201E+03  0.25000000000E+03 0.  0.
<mgrwt>
<rscale>  0 0.55429237E+03</rscale>
<asrwt>0</asrwt>
<pdfrwt beam="1">  1        1 0.16023493E+00 0.55429237E+03</pdfrwt>
<pdfrwt beam="2">  1       -1 0.11345768E-01 0.55429237E+03</pdfrwt>
<totfact> 0.73654204E+02</totfact>
</mgrwt>
</event>
<event>
 4    1  0.4047984E-006  0.5807848E+03  0.7818608E-02  0.9946093E-01
         -1   -1    0    0    0  501 -0.00000000000E+00  0.00000000000E+00  0.21230530974E+03  0.21230530980E+03  0.50400000000E-02 0. -1.
          1   -1    0    0  501    0  0.00000000000E+00 -0.00000000000E+00 -0.39720036335E+03  0.39720036338E+03  0.50400000000E-02 0.  1.
   -5000001    1    1    2    0    0  0.45166784155E+01  0.48579592857E+02 -0.23879759768E+03  0.34914849260E+03  0.25000000000E+03 0.  0.
    5000001    1    1    2    0    0 -0.45166784155E+01 -0.48579592857E+02  0.53902544074E+02  0.26035718059E+03  0.25000000000E+03 0.  0.
<mgrwt>
<rscale>  0 0.58078480E+03</rscale>
<asrwt>0</asrwt>
<pdfrwt beam="1">  1        1 0.61107748E-01 0.58078480E+03</pdfrwt>
<pdfrwt beam="2">  1       -1 0.32662355E-01 0.58078480E+03</pdfrwt>
<totfact> 0.53715199E+02</totfact>
</mgrwt>
</event>
<event>
 4    1  0.4047984E-006  0.8411684E+03  0.7818608E-02  0.9502268E-01
         -1   -1    0    0    0  501 -0.00000000000E+00  0.00000000000E+00  0.11366429291E+04  0.11366429291E+04  0.50400000000E-02 0. -1.
          1   -1    0    0  501    0  0.00000000000E+00 -0.00000000000E+00 -0.15562590943E+03  0.15562590952E+03  0.50400000000E-02 0.  1.
   -5000001    1    1    2    0    0 -0.17873449274E+03 -0.69024934389E+02  0.91868839851E+03  0.97118424308E+03  0.25000000000E+03 0.  0.
    5000001    1    1    2    0    0  0.17873449274E+03  0.69024934389E+02  0.62328621129E+02  0.32108459551E+03  0.25000000000E+03 0.  0.
<mgrwt>
<rscale>  0 0.84116845E+03</rscale>
<asrwt>0</asrwt>
<pdfrwt beam="1">  1        1 0.23942448E-01 0.84116845E+03</pdfrwt>
<pdfrwt beam="2">  1       -1 0.17486814E+00 0.84116845E+03</pdfrwt>
<totfact> 0.47513518E+01</totfact>
</mgrwt>
</event>
<event>
 4    1  0.4047984E-006  0.8711614E+03  0.7818608E-02  0.9462367E-01
         -1   -1    0    0    0  501 -0.00000000000E+00  0.00000000000E+00  0.24147335977E+03  0.24147335982E+03  0.50400000000E-02 0. -1.
          1   -1    0    0  501    0  0.00000000000E+00 -0.00000000000E+00 -0.78572044856E+03  0.78572044858E+03  0.50400000000E-02 0.  1.
   -5000001    1    1    2    0    0 -0.23460701160E+03  0.26851884182E+03 -0.28316810190E+03  0.51944873880E+03  0.25000000000E+03 0.  0.
    5000001    1    1    2    0    0  0.23460701160E+03 -0.26851884182E+03 -0.26107898690E+03  0.50774506960E+03  0.25000000000E+03 0.  0.
<mgrwt>
<rscale>  0 0.87116142E+03</rscale>
<asrwt>0</asrwt>
<pdfrwt beam="1">  1        1 0.12088007E+00 0.87116142E+03</pdfrwt>
<pdfrwt beam="2">  1       -1 0.37149748E-01 0.87116142E+03</pdfrwt>
<totfact> 0.15982356E+02</totfact>
</mgrwt>
</event>
<event>
 4    1  0.4047984E-006  0.8236267E+03  0.7818608E-02  0.9526434E-01
         -1   -1    0    0    0  501 -0.00000000000E+00  0.00000000000E+00  0.12437868263E+03  0.12437868273E+03  0.50400000000E-02 0. -1.
          1   -1    0    0  501    0  0.00000000000E+00 -0.00000000000E+00 -0.13634991838E+04  0.13634991838E+04  0.50400000000E-02 0.  1.
   -5000001    1    1    2    0    0 -0.48323150799E+02 -0.28430062118E+03 -0.89900274529E+03  0.97666161291E+03  0.25000000000E+03 0.  0.
    5000001    1    1    2    0    0  0.48323150799E+02  0.28430062118E+03 -0.34011775587E+03  0.51121625361E+03  0.25000000000E+03 0.  0.
<mgrwt>
<rscale>  0 0.82362669E+03</rscale>
<asrwt>0</asrwt>
<pdfrwt beam="1">  1        1 0.20976909E+00 0.82362669E+03</pdfrwt>
<pdfrwt beam="2">  1       -1 0.19135183E-01 0.82362669E+03</pdfrwt>
<totfact> 0.18163747E+02</totfact>
</mgrwt>
</event>
<event>
 4    1  0.4047984E-006  0.6196242E+03  0.7818608E-02  0.9865508E-01
          1   -1    0    0  501    0  0.00000000000E+00  0.00000000000E+00  0.74762424842E+03  0.74762424844E+03  0.50400000000E-02 0.  1.
         -1   -1    0    0    0  501 -0.00000000000E+00 -0.00000000000E+00 -0.12838471039E+03  0.12838471049E+03  0.50400000000E-02 0. -1.
   -5000001    1    1    2    0    0  0.31755138135E+02 -0.17889319075E+03  0.27889300359E+03  0.41628412166E+03  0.25000000000E+03 0.  0.
    5000001    1    1    2    0    0 -0.31755138135E+02  0.17889319075E+03  0.34034653444E+03  0.45972483727E+03  0.25000000000E+03 0.  0.
<mgrwt>
<rscale>  0 0.61962415E+03</rscale>
<asrwt>0</asrwt>
<pdfrwt beam="1">  1        1 0.11501912E+00 0.61962415E+03</pdfrwt>
<pdfrwt beam="2">  1       -1 0.19751494E-01 0.61962415E+03</pdfrwt>
<totfact> 0.51959970E+02</totfact>
</mgrwt>
</event>
<event>
 4    1  0.4047984E-006  0.9234089E+03  0.7818608E-02  0.9396783E-01
          1   -1    0    0  501    0  0.00000000000E+00  0.00000000000E+00  0.96854799472E+03  0.96854799473E+03  0.50400000000E-02 0.  1.
         -1   -1    0    0    0  501 -0.00000000000E+00 -0.00000000000E+00 -0.22009337467E+03  0.22009337473E+03  0.50400000000E-02 0. -1.
   -5000001    1    1    2    0    0 -0.31211193489E+03  0.22113963011E+03  0.45916901802E+03  0.64780613073E+03  0.25000000000E+03 0.  0.
    5000001    1    1    2    0    0  0.31211193489E+03 -0.22113963011E+03  0.28928560204E+03  0.54083523873E+03  0.25000000000E+03 0.  0.
<mgrwt>
<rscale>  0 0.92340889E+03</rscale>
<asrwt>0</asrwt>
<pdfrwt beam="1">  1        1 0.14900739E+00 0.92340889E+03</pdfrwt>
<pdfrwt beam="2">  1       -1 0.33860519E-01 0.92340889E+03</pdfrwt>
<totfact> 0.13259899E+02</totfact>
</mgrwt>
</event>
<event>
 4    1  0.4047984E-006  0.9835421E+03  0.7818608E-02  0.9326782E-01
         -1   -1    0    0    0  501 -0.00000000000E+00  0.00000000000E+00  0.74616876978E+03  0.74616876980E+03  0.50400000000E-02 0. -1.
          1   -1    0    0  501    0  0.00000000000E+00 -0.00000000000E+00 -0.32410732438E+03  0.32410732442E+03  0.50400000000E-02 0.  1.
   -5000001    1    1    2    0    0  0.11535305467E+03 -0.37805533911E+03  0.45617254922E+02  0.46990754474E+03  0.25000000000E+03 0.  0.
    5000001    1    1    2    0    0 -0.11535305467E+03  0.37805533911E+03  0.37644419048E+03  0.60036854948E+03  0.25000000000E+03 0.  0.
<mgrwt>
<rscale>  0 0.98354210E+03</rscale>
<asrwt>0</asrwt>
<pdfrwt beam="1">  1        1 0.49862665E-01 0.98354210E+03</pdfrwt>
<pdfrwt beam="2">  1       -1 0.11479520E+00 0.98354210E+03</pdfrwt>
<totfact> 0.54840826E+01</totfact>
</mgrwt>
</event>
<event>
 4    1  0.4047984E-006  0.5629394E+03  0.7818608E-02  0.9985425E-01
         -1   -1    0    0    0  501 -0.00000000000E+00  0.00000000000E+00  0.38782750272E+03  0.38782750275E+03  0.50400000000E-02 0. -1.
          1   -1    0    0  501    0  0.00000000000E+00 -0.00000000000E+00 -0.20427948843E+03  0.20427948849E+03  0.50400000000E-02 0.  1.
   -5000001    1    1    2    0    0 -0.12397775158E+03 -0.81038031916E+01  0.12953759820E+03  0.30775988020E+03  0.25000000000E+03 0.  0.
    5000001    1    1    2    0    0  0.12397775158E+03  0.81038031916E+01  0.54010416087E+02  0.28434711104E+03  0.25000000000E+03 0.  0.
<mgrwt>
<rscale>  0 0.56293944E+03</rscale>
<asrwt>0</asrwt>
<pdfrwt beam="1">  1        1 0.31427614E-01 0.56293944E+03</pdfrwt>
<pdfrwt beam="2">  1       -1 0.59665769E-01 0.56293944E+03</pdfrwt>
<totfact> 0.41745289E+02</totfact>
</mgrwt>
</event>
<event>
 4    1  0.4047984E-006  0.7090999E+03  0.7818608E-02  0.9701795E-01
          1   -1    0    0  501    0  0.00000000000E+00  0.00000000000E+00  0.10522867100E+04  0.10522867100E+04  0.50400000000E-02 0.  1.
         -1   -1    0    0    0  501 -0.00000000000E+00 -0.00000000000E+00 -0.11945952926E+03  0.11945952937E+03  0.50400000000E-02 0. -1.
   -5000001    1    1    2    0    0 -0.66797954154E+02 -0.23974569852E+03  0.52520217032E+03  0.63267470817E+03  0.25000000000E+03 0.  0.
    5000001    1    1    2    0    0  0.66797954154E+02  0.23974569852E+03  0.40762501038E+03  0.53907153118E+03  0.25000000000E+03 0.  0.
<mgrwt>
<rscale>  0 0.70909992E+03</rscale>
<asrwt>0</asrwt>
<pdfrwt beam="1">  1        1 0.16189026E+00 0.70909992E+03</pdfrwt>
<pdfrwt beam="2">  1       -1 0.18378389E-01 0.70909992E+03</pdfrwt>
<totfact> 0.32881863E+02</totfact>
</mgrwt>
</event>
<event>
 4    1  0.4047984E-006  0.7346464E+03  0.7818608E-02  0.9659750E-01
         -1   -1    0    0    0  501 -0.00000000000E+00  0.00000000000E+00  0.19002998251E+03  0.19002998258E+03  0.50400000000E-02 0. -1.
          1   -1    0    0  501    0  0.00000000000E+00 -0.00000000000E+00 -0.71002647900E+03  0.71002647902E+03  0.50400000000E-02 0.  1.
   -5000001    1    1    2    0    0 -0.16635275813E+03 -0.21149162525E+03 -0.25394992932E+03  0.44653388930E+03  0.25000000000E+03 0.  0.
    5000001    1    1    2    0    0  0.16635275813E+03  0.21149162525E+03 -0.26604656717E+03  0.45352257230E+03  0.25000000000E+03 0.  0.
<mgrwt>
<rscale>  0 0.73464636E+03</rscale>
<asrwt>0</asrwt>
<pdfrwt beam="1">  1        1 0.10923484E+00 0.73464636E+03</pdfrwt>
<pdfrwt beam="2">  1       -1 0.29235382E-01 0.73464636E+03</pdfrwt>
<totfact> 0.28775445E+02</totfact>
</mgrwt>
</event>
<event>
 4    1  0.4047984E-006  0.1115664E+04  0.7818608E-02  0.9190058E-01
         -1   -1    0    0    0  501 -0.00000000000E+00  0.00000000000E+00  0.24639560598E+03  0.24639560603E+03  0.50400000000E-02 0. -1.
          1   -1    0    0  501    0  0.00000000000E+00 -0.00000000000E+00 -0.12629145681E+04  0.12629145681E+04  0.50400000000E-02 0.  1.
   -5000001    1    1    2    0    0 -0.43737717586E+03 -0.18435560071E+03 -0.30135602211E+03  0.61530580489E+03  0.25000000000E+03 0.  0.
    5000001    1    1    2    0    0  0.43737717586E+03  0.18435560071E+03 -0.71516294004E+03  0.89400436927E+03  0.25000000000E+03 0.  0.
<mgrwt>
<rscale>  0 0.11156641E+04</rscale>
<asrwt>0</asrwt>
<pdfrwt beam="1">  1        1 0.19429455E+00 0.11156641E+04</pdfrwt>
<pdfrwt beam="2">  1       -1 0.37907017E-01 0.11156641E+04</pdfrwt>
<totfact> 0.64282758E+01</totfact>
</mgrwt>
</event>
<event>
 4    1  0.4047984E-006  0.7135148E+03  0.7818608E-02  0.9694395E-01
         -1   -1    0    0    0  501 -0.00000000000E+00  0.00000000000E+00  0.18204950039E+03  0.18204950046E+03  0.50400000000E-02 0. -1.
          1   -1    0    0  501    0  0.00000000000E+00 -0.00000000000E+00 -0.69912768254E+03  0.69912768256E+03  0.50400000000E-02 0.  1.
   -5000001    1    1    2    0    0  0.23832698446E+03 -0.32465171654E+02 -0.15578966858E+03  0.38029483264E+03  0.25000000000E+03 0.  0.
    5000001    1    1    2    0    0 -0.23832698446E+03  0.32465171654E+02 -0.36128851357E+03  0.50088235039E+03  0.25000000000E+03 0.  0.
<mgrwt>
<rscale>  0 0.71351481E+03</rscale>
<asrwt>0</asrwt>
<pdfrwt beam="1">  1        1 0.10755810E+00 0.71351481E+03</pdfrwt>
<pdfrwt beam="2">  1       -1 0.28007616E-01 0.71351481E+03</pdfrwt>
<totfact> 0.31761158E+02</totfact>
</mgrwt>
</event>
<event>
 4    1  0.4047984E-006  0.5284298E+03  0.7818608E-02  0.1006614E+00
         -1   -1    0    0    0  501 -0.00000000000E+00  0.00000000000E+00  0.18174561642E+03  0.18174561649E+03  0.50400000000E-02 0. -1.
          1   -1    0    0  501    0  0.00000000000E+00 -0.00000000000E+00 -0.38410567449E+03  0.38410567452E+03  0.50400000000E-02 0.  1.
   -5000001    1    1    2    0    0  0.45014872529E+01 -0.83656679008E+02 -0.11944111399E+03  0.28945618501E+03  0.25000000000E+03 0.  0.
    5000001    1    1    2    0    0 -0.45014872529E+01  0.83656679008E+02 -0.82918944082E+02  0.27639510599E+03  0.25000000000E+03 0.  0.
<mgrwt>
<rscale>  0 0.52842983E+03</rscale>
<asrwt>0</asrwt>
<pdfrwt beam="1">  1        1 0.59093181E-01 0.52842983E+03</pdfrwt>
<pdfrwt beam="2">  1       -1 0.27960864E-01 0.52842983E+03</pdfrwt>
<totfact> 0.73584830E+02</totfact>
</mgrwt>
</event>
<event>
 4    1  0.4047984E-006  0.6832280E+03  0.7818608E-02  0.9746352E-01
         -1   -1    0    0    0  501 -0.00000000000E+00  0.00000000000E+00  0.45810851634E+03  0.45810851637E+03  0.50400000000E-02 0. -1.
          1   -1    0    0  501    0  0.00000000000E+00 -0.00000000000E+00 -0.25474343773E+03  0.25474343778E+03  0.50400000000E-02 0.  1.
   -5000001    1    1    2    0    0 -0.17744071691E+03  0.80170019449E+02  0.23483939196E+03  0.39441346332E+03  0.25000000000E+03 0.  0.
    5000001    1    1    2    0    0  0.17744071691E+03 -0.80170019449E+02 -0.31474313343E+02  0.31843849082E+03  0.25000000000E+03 0.  0.
<mgrwt>
<rscale>  0 0.68322804E+03</rscale>
<asrwt>0</asrwt>
<pdfrwt beam="1">  1        1 0.39191298E-01 0.68322804E+03</pdfrwt>
<pdfrwt beam="2">  1       -1 0.70478233E-01 0.68322804E+03</pdfrwt>
<totfact> 0.22404831E+02</totfact>
</mgrwt>
</event>
<event>
 4    1  0.4047984E-006  0.1631672E+04  0.7818608E-02  0.8801324E-01
         -1   -1    0    0    0  501 -0.00000000000E+00  0.00000000000E+00  0.11637703830E+04  0.11637703830E+04  0.50400000000E-02 0. -1.
          1   -1    0    0  501    0  0.00000000000E+00 -0.00000000000E+00 -0.57192391182E+03  0.57192391184E+03  0.50400000000E-02 0.  1.
   -5000001    1    1    2    0    0 -0.36760039411E+03 -0.47318077335E+03 -0.22959404426E+03  0.68865341005E+03  0.25000000000E+03 0.  0.
    5000001    1    1    2    0    0  0.36760039411E+03  0.47318077335E+03  0.82144051544E+03  0.10470408848E+04  0.25000000000E+03 0.  0.
<mgrwt>
<rscale>  0 0.16316717E+04</rscale>
<asrwt>0</asrwt>
<pdfrwt beam="1">  1        1 0.87988295E-01 0.16316717E+04</pdfrwt>
<pdfrwt beam="2">  1       -1 0.17904159E+00 0.16316717E+04</pdfrwt>
<totfact> 0.74242118E+00</totfact>
</mgrwt>
</event>
<event>
 4    1  0.4047984E-006  0.7407830E+03  0.7818608E-02  0.9649922E-01
         -1   -1    0    0    0  501 -0.00000000000E+00  0.00000000000E+00  0.76386563199E+02  0.76386563365E+02  0.50400000000E-02 0. -1.
          1   -1    0    0  501    0  0.00000000000E+00 -0.00000000000E+00 -0.17959945909E+04  0.17959945909E+04  0.50400000000E-02 0.  1.
   -5000001    1    1    2    0    0 -0.27150368087E+03 -0.11333644159E+02 -0.93337126337E+03  0.10037552568E+04  0.25000000000E+03 0.  0.
    5000001    1    1    2    0    0  0.27150368087E+03  0.11333644159E+02 -0.78623676431E+03  0.86862589748E+03  0.25000000000E+03 0.  0.
<mgrwt>
<rscale>  0 0.74078298E+03</rscale>
<asrwt>0</asrwt>
<pdfrwt beam="1">  1        1 0.27630683E+00 0.74078298E+03</pdfrwt>
<pdfrwt beam="2">  1       -1 0.11751780E-01 0.74078298E+03</pdfrwt>
<totfact> 0.20509389E+02</totfact>
</mgrwt>
</event>
<event>
 4    1  0.4047984E-006  0.6367905E+03  0.7818608E-02  0.9831886E-01
         -1   -1    0    0    0  501 -0.00000000000E+00  0.00000000000E+00  0.13953950600E+03  0.13953950609E+03  0.50400000000E-02 0.  1.
          1   -1    0    0  501    0  0.00000000000E+00 -0.00000000000E+00 -0.72650061804E+03  0.72650061805E+03  0.50400000000E-02 0. -1.
   -5000001    1    1    2    0    0 -0.19417831028E+03  0.30593457741E+02 -0.31430074288E+03  0.44713100185E+03  0.25000000000E+03 0.  0.
    5000001    1    1    2    0    0  0.19417831028E+03 -0.30593457741E+02 -0.27266036915E+03  0.41890912230E+03  0.25000000000E+03 0.  0.
<mgrwt>
<rscale>  0 0.63679051E+03</rscale>
<asrwt>0</asrwt>
<pdfrwt beam="1">  1        1 0.11176932E+00 0.63679051E+03</pdfrwt>
<pdfrwt beam="2">  1       -1 0.21467617E-01 0.63679051E+03</pdfrwt>
<totfact> 0.47226729E+02</totfact>
</mgrwt>
</event>
<event>
 4    1  0.4047984E-006  0.6460793E+03  0.7818608E-02  0.9814164E-01
         -1   -1    0    0    0  501 -0.00000000000E+00  0.00000000000E+00  0.24585196557E+03  0.24585196562E+03  0.50400000000E-02 0. -1.
          1   -1    0    0  501    0  0.00000000000E+00 -0.00000000000E+00 -0.42446112470E+03  0.42446112473E+03  0.50400000000E-02 0.  1.
   -5000001    1    1    2    0    0  0.17712027898E+03 -0.97515015734E+02 -0.12168135171E+03  0.34378354072E+03  0.25000000000E+03 0.  0.
    5000001    1    1    2    0    0 -0.17712027898E+03  0.97515015734E+02 -0.56927807423E+02  0.32652954962E+03  0.25000000000E+03 0.  0.
<mgrwt>
<rscale>  0 0.64607926E+03</rscale>
<asrwt>0</asrwt>
<pdfrwt beam="1">  1        1 0.65301712E-01 0.64607926E+03</pdfrwt>
<pdfrwt beam="2">  1       -1 0.37823379E-01 0.64607926E+03</pdfrwt>
<totfact> 0.37839752E+02</totfact>
</mgrwt>
</event>
<event>
 4    1  0.4047984E-006  0.1226348E+04  0.7818608E-02  0.9090102E-01
         -1   -1    0    0    0  501 -0.00000000000E+00  0.00000000000E+00  0.31801386733E+03  0.31801386737E+03  0.50400000000E-02 0. -1.
          1   -1    0    0  501    0  0.00000000000E+00 -0.00000000000E+00 -0.11822819831E+04  0.11822819831E+04  0.50400000000E-02 0.  1.
   -5000001    1    1    2    0    0  0.49660374201E+03 -0.42714716782E+02 -0.12012938423E+03  0.57041291409E+03  0.25000000000E+03 0.  0.
    5000001    1    1    2    0    0 -0.49660374201E+03  0.42714716782E+02 -0.74413873156E+03  0.92988293640E+03  0.25000000000E+03 0.  0.
<mgrwt>
<rscale>  0 0.12263475E+04</rscale>
<asrwt>0</asrwt>
<pdfrwt beam="1">  1        1 0.18188953E+00 0.12263475E+04</pdfrwt>
<pdfrwt beam="2">  1       -1 0.48925211E-01 0.12263475E+04</pdfrwt>
<totfact> 0.45487776E+01</totfact>
</mgrwt>
</event>
<event>
 4    1  0.4047984E-006  0.6914005E+03  0.7818608E-02  0.9732052E-01
          1   -1    0    0  501    0  0.00000000000E+00  0.00000000000E+00  0.76379799238E+03  0.76379799239E+03  0.50400000000E-02 0.  1.
         -1   -1    0    0    0  501 -0.00000000000E+00 -0.00000000000E+00 -0.15646633460E+03  0.15646633468E+03  0.50400000000E-02 0. -1.
   -5000001    1    1    2    0    0 -0.13882634267E+02 -0.14668606579E+03  0.53593890221E+02  0.29509631394E+03  0.25000000000E+03 0.  0.
    5000001    1    1    2    0    0  0.13882634267E+02  0.14668606579E+03  0.55373776756E+03  0.62516801314E+03  0.25000000000E+03 0.  0.
<mgrwt>
<rscale>  0 0.69140053E+03</rscale>
<asrwt>0</asrwt>
<pdfrwt beam="1">  1        1 0.11750738E+00 0.69140053E+03</pdfrwt>
<pdfrwt beam="2">  1       -1 0.24071744E-01 0.69140053E+03</pdfrwt>
<totfact> 0.35967525E+02</totfact>
</mgrwt>
</event>
<event>
 4    1  0.4047984E-006  0.6663433E+03  0.7818608E-02  0.9776586E-01
         -1   -1    0    0    0  501 -0.00000000000E+00  0.00000000000E+00  0.89672814690E+02  0.89672814832E+02  0.50400000000E-02 0. -1.
          1   -1    0    0  501    0  0.00000000000E+00 -0.00000000000E+00 -0.12378706873E+04  0.12378706873E+04  0.50400000000E-02 0.  1.
   -5000001    1    1    2    0    0  0.35638992576E+02 -0.21421621619E+03 -0.64715413372E+03  0.72695749385E+03  0.25000000000E+03 0.  0.
    5000001    1    1    2    0    0 -0.35638992576E+02  0.21421621619E+03 -0.50104373884E+03  0.60058600824E+03  0.25000000000E+03 0.  0.
<mgrwt>
<rscale>  0 0.66634330E+03</rscale>
<asrwt>0</asrwt>
<pdfrwt beam="1">  1        1 0.19044163E+00 0.66634330E+03</pdfrwt>
<pdfrwt beam="2">  1       -1 0.13795819E-01 0.66634330E+03</pdfrwt>
<totfact> 0.38456220E+02</totfact>
</mgrwt>
</event>
<event>
 4    1  0.4047984E-006  0.7392693E+03  0.7818608E-02  0.9652337E-01
          1   -1    0    0  501    0  0.00000000000E+00  0.00000000000E+00  0.85253149582E+03  0.85253149583E+03  0.50400000000E-02 0.  1.
         -1   -1    0    0    0  501 -0.00000000000E+00 -0.00000000000E+00 -0.16026358934E+03  0.16026358942E+03  0.50400000000E-02 0. -1.
   -5000001    1    1    2    0    0  0.17255746585E+03  0.15630694400E+03  0.15276647974E+03  0.37422658524E+03  0.25000000000E+03 0.  0.
    5000001    1    1    2    0    0 -0.17255746585E+03 -0.15630694400E+03  0.53950142673E+03  0.63856850001E+03  0.25000000000E+03 0.  0.
<mgrwt>
<rscale>  0 0.73926925E+03</rscale>
<asrwt>0</asrwt>
<pdfrwt beam="1">  1        1 0.13115869E+00 0.73926925E+03</pdfrwt>
<pdfrwt beam="2">  1       -1 0.24655937E-01 0.73926925E+03</pdfrwt>
<totfact> 0.28896412E+02</totfact>
</mgrwt>
</event>
<event>
 4    1  0.4047984E-006  0.5449011E+03  0.7818608E-02  0.1002681E+00
          1   -1    0    0  501    0  0.00000000000E+00  0.00000000000E+00  0.29426229490E+04  0.29426229490E+04  0.50400000000E-02 0.  1.
         -1   -1    0    0    0  501 -0.00000000000E+00 -0.00000000000E+00 -0.25225560434E+02  0.25225560938E+02  0.50400000000E-02 0. -1.
   -5000001    1    1    2    0    0 -0.93859194383E+02 -0.59989411488E+01  0.17511845925E+04  0.17714381199E+04  0.25000000000E+03 0.  0.
    5000001    1    1    2    0    0  0.93859194383E+02  0.59989411488E+01  0.11662127960E+04  0.11964103900E+04  0.25000000000E+03 0.  0.
<mgrwt>
<rscale>  0 0.54490114E+03</rscale>
<asrwt>0</asrwt>
<pdfrwt beam="1">  1        1 0.45271114E+00 0.54490114E+03</pdfrwt>
<pdfrwt beam="2">  1       -1 0.38808562E-02 0.54490114E+03</pdfrwt>
<totfact> 0.19450118E+02</totfact>
</mgrwt>
</event>
<event>
 4    1  0.4047984E-006  0.1572193E+04  0.7818608E-02  0.8837816E-01
         -1   -1    0    0    0  501 -0.00000000000E+00  0.00000000000E+00  0.65097435105E+03  0.65097435107E+03  0.50400000000E-02 0. -1.
          1   -1    0    0  501    0  0.00000000000E+00 -0.00000000000E+00 -0.94926534326E+03  0.94926534328E+03  0.50400000000E-02 0.  1.
   -5000001    1    1    2    0    0 -0.67945671848E+03  0.29578190706E+03 -0.22992772921E+03  0.81517797412E+03  0.25000000000E+03 0.  0.
    5000001    1    1    2    0    0  0.67945671848E+03 -0.29578190706E+03 -0.68363263004E+02  0.78506172022E+03  0.25000000000E+03 0.  0.
<mgrwt>
<rscale>  0 0.15721926E+04</rscale>
<asrwt>0</asrwt>
<pdfrwt beam="1">  1        1 0.14604082E+00 0.15721926E+04</pdfrwt>
<pdfrwt beam="2">  1       -1 0.10014990E+00 0.15721926E+04</pdfrwt>
<totfact> 0.15165502E+01</totfact>
</mgrwt>
</event>
<event>
 4    1  0.4047984E-006  0.6905176E+03  0.7818608E-02  0.9733587E-01
          1   -1    0    0  501    0  0.00000000000E+00  0.00000000000E+00  0.35650919497E+03  0.35650919500E+03  0.50400000000E-02 0. -1.
         -1   -1    0    0    0  501 -0.00000000000E+00 -0.00000000000E+00 -0.33436341091E+03  0.33436341095E+03  0.50400000000E-02 0.  1.
   -5000001    1    1    2    0    0 -0.86871038648E+02  0.16558668208E+03 -0.13644138843E+03  0.34070776204E+03  0.25000000000E+03 0.  0.
    5000001    1    1    2    0    0  0.86871038648E+02 -0.16558668208E+03  0.15858717248E+03  0.35016484391E+03  0.25000000000E+03 0.  0.
<mgrwt>
<rscale>  0 0.69051758E+03</rscale>
<asrwt>0</asrwt>
<pdfrwt beam="1">  1        1 0.54847568E-01 0.69051758E+03</pdfrwt>
<pdfrwt beam="2">  1       -1 0.51440525E-01 0.69051758E+03</pdfrwt>
<totfact> 0.26940968E+02</totfact>
</mgrwt>
</event>
<event>
 4    1  0.4047984E-006  0.7928469E+03  0.7818608E-02  0.9570429E-01
          1   -1    0    0  501    0  0.00000000000E+00  0.00000000000E+00  0.15644430051E+04  0.15644430051E+04  0.50400000000E-02 0.  1.
         -1   -1    0    0    0  501 -0.00000000000E+00 -0.00000000000E+00 -0.10045206730E+03  0.10045206743E+03  0.50400000000E-02 0. -1.
   -5000001    1    1    2    0    0 -0.98194444958E+00  0.29080176577E+03  0.94287451163E+03  0.10178796470E+04  0.25000000000E+03 0.  0.
    5000001    1    1    2    0    0  0.98194444958E+00 -0.29080176577E+03  0.52111642612E+03  0.64701542544E+03  0.25000000000E+03 0.  0.
<mgrwt>
<rscale>  0 0.79284686E+03</rscale>
<asrwt>0</asrwt>
<pdfrwt beam="1">  1        1 0.24068353E+00 0.79284686E+03</pdfrwt>
<pdfrwt beam="2">  1       -1 0.15454165E-01 0.79284686E+03</pdfrwt>
<totfact> 0.18808016E+02</totfact>
</mgrwt>
</event>
<event>
 4    1  0.4047984E-006  0.6620161E+03  0.7818608E-02  0.9784490E-01
         -1   -1    0    0    0  501 -0.00000000000E+00  0.00000000000E+00  0.45632692429E+03  0.45632692432E+03  0.50400000000E-02 0. -1.
          1   -1    0    0  501    0  0.00000000000E+00 -0.00000000000E+00 -0.24010487220E+03  0.24010487225E+03  0.50400000000E-02 0.  1.
   -5000001    1    1    2    0    0  0.18592565795E+03  0.11077740646E+03  0.12393752197E+03  0.35312957029E+03  0.25000000000E+03 0.  0.
    5000001    1    1    2    0    0 -0.18592565795E+03 -0.11077740646E+03  0.92284530124E+02  0.34330222627E+03  0.25000000000E+03 0.  0.
<mgrwt>
<rscale>  0 0.66201607E+03</rscale>
<asrwt>0</asrwt>
<pdfrwt beam="1">  1        1 0.36939211E-01 0.66201607E+03</pdfrwt>
<pdfrwt beam="2">  1       -1 0.70204142E-01 0.66201607E+03</pdfrwt>
<totfact> 0.24399032E+02</totfact>
</mgrwt>
</event>
<event>
 4    1  0.4047984E-006  0.6635777E+03  0.7818608E-02  0.9781630E-01
         -1   -1    0    0    0  501 -0.00000000000E+00  0.00000000000E+00  0.17535767742E+03  0.17535767750E+03  0.50400000000E-02 0.  1.
          1   -1    0    0  501    0  0.00000000000E+00 -0.00000000000E+00 -0.62776738273E+03  0.62776738275E+03  0.50400000000E-02 0. -1.
   -5000001    1    1    2    0    0  0.17157408261E+03  0.13071334607E+03 -0.18679703720E+03  0.37936364846E+03  0.25000000000E+03 0.  0.
    5000001    1    1    2    0    0 -0.17157408261E+03 -0.13071334607E+03 -0.26561266811E+03  0.42376141179E+03  0.25000000000E+03 0.  0.
<mgrwt>
<rscale>  0 0.66357767E+03</rscale>
<asrwt>0</asrwt>
<pdfrwt beam="1">  1        1 0.96579596E-01 0.66357767E+03</pdfrwt>
<pdfrwt beam="2">  1       -1 0.26978105E-01 0.66357767E+03</pdfrwt>
<totfact> 0.39814794E+02</totfact>
</mgrwt>
</event>
<event>
 4    1  0.4047984E-006  0.7479795E+03  0.7818608E-02  0.9638526E-01
          1   -1    0    0  501    0  0.00000000000E+00  0.00000000000E+00  0.32534403873E+03  0.32534403877E+03  0.50400000000E-02 0.  1.
         -1   -1    0    0    0  501 -0.00000000000E+00 -0.00000000000E+00 -0.42990898803E+03  0.42990898806E+03  0.50400000000E-02 0. -1.
   -5000001    1    1    2    0    0 -0.18358241440E+03 -0.93902412176E+02 -0.24077438640E+03  0.40372326046E+03  0.25000000000E+03 0.  0.
    5000001    1    1    2    0    0  0.18358241440E+03  0.93902412176E+02  0.13620943710E+03  0.35152976637E+03  0.25000000000E+03 0.  0.
<mgrwt>
<rscale>  0 0.74797948E+03</rscale>
<asrwt>0</asrwt>
<pdfrwt beam="1">  1        1 0.50052929E-01 0.74797948E+03</pdfrwt>
<pdfrwt beam="2">  1       -1 0.66139845E-01 0.74797948E+03</pdfrwt>
<totfact> 0.18515794E+02</totfact>
</mgrwt>
</event>
<event>
 4    1  0.4047984E-006  0.6943344E+03  0.7818608E-02  0.9726970E-01
          1   -1    0    0  501    0  0.00000000000E+00  0.00000000000E+00  0.69281515763E+03  0.69281515765E+03  0.50400000000E-02 0. -1.
         -1   -1    0    0    0  501 -0.00000000000E+00 -0.00000000000E+00 -0.17396424709E+03  0.17396424716E+03  0.50400000000E-02 0.  1.
   -5000001    1    1    2    0    0  0.18348395998E+03  0.46826872615E+02  0.73566689358E+02  0.32213534011E+03  0.25000000000E+03 0.  0.
    5000001    1    1    2    0    0 -0.18348395998E+03 -0.46826872615E+02  0.44528422119E+03  0.54464406469E+03  0.25000000000E+03 0.  0.
<mgrwt>
<rscale>  0 0.69433441E+03</rscale>
<asrwt>0</asrwt>
<pdfrwt beam="1">  1        1 0.10658695E+00 0.69433441E+03</pdfrwt>
<pdfrwt beam="2">  1       -1 0.26763730E-01 0.69433441E+03</pdfrwt>
<totfact> 0.34847178E+02</totfact>
</mgrwt>
</event>
<event>
 4    1  0.4047984E-006  0.7510260E+03  0.7818608E-02  0.9633742E-01
         -1   -1    0    0    0  501 -0.00000000000E+00  0.00000000000E+00  0.47110947952E+02  0.47110948222E+02  0.50400000000E-02 0. -1.
          1   -1    0    0  501    0  0.00000000000E+00 -0.00000000000E+00 -0.29931475822E+04  0.29931475822E+04  0.50400000000E-02 0.  1.
   -5000001    1    1    2    0    0 -0.92635438457E+02  0.22875503463E+03 -0.20100621941E+04  0.20405293956E+04  0.25000000000E+03 0.  0.
    5000001    1    1    2    0    0  0.92635438457E+02 -0.22875503463E+03 -0.93597444013E+03  0.99972913477E+03  0.25000000000E+03 0.  0.
<mgrwt>
<rscale>  0 0.75102602E+03</rscale>
<asrwt>0</asrwt>
<pdfrwt beam="1">  1        1 0.46048410E+00 0.75102602E+03</pdfrwt>
<pdfrwt beam="2">  1       -1 0.72478405E-02 0.75102602E+03</pdfrwt>
<totfact> 0.66885281E+01</totfact>
</mgrwt>
</event>
<event>
 4    1  0.4047984E-006  0.7520642E+03  0.7818608E-02  0.9632118E-01
         -1   -1    0    0    0  501 -0.00000000000E+00  0.00000000000E+00  0.32874891365E+03  0.32874891369E+03  0.50400000000E-02 0. -1.
          1   -1    0    0  501    0  0.00000000000E+00 -0.00000000000E+00 -0.43011589777E+03  0.43011589780E+03  0.50400000000E-02 0.  1.
   -5000001    1    1    2    0    0  0.21731225910E+02 -0.26084162367E+03 -0.15353426766E+03  0.39317091724E+03  0.25000000000E+03 0.  0.
    5000001    1    1    2    0    0 -0.21731225910E+02  0.26084162367E+03  0.52167283543E+02  0.36569389425E+03  0.25000000000E+03 0.  0.
<mgrwt>
<rscale>  0 0.75206418E+03</rscale>
<asrwt>0</asrwt>
<pdfrwt beam="1">  1        1 0.66171677E-01 0.75206418E+03</pdfrwt>
<pdfrwt beam="2">  1       -1 0.50576756E-01 0.75206418E+03</pdfrwt>
<totfact> 0.21649960E+02</totfact>
</mgrwt>
</event>
<event>
 4    1  0.4047984E-006  0.6757519E+03  0.7818608E-02  0.9759622E-01
         -1   -1    0    0    0  501 -0.00000000000E+00  0.00000000000E+00  0.94370074985E+02  0.94370075120E+02  0.50400000000E-02 0. -1.
          1   -1    0    0  501    0  0.00000000000E+00 -0.00000000000E+00 -0.12097071854E+04  0.12097071854E+04  0.50400000000E-02 0.  1.
   -5000001    1    1    2    0    0 -0.12693094628E+03  0.18325403548E+03 -0.47208708919E+03  0.57884343861E+03  0.25000000000E+03 0.  0.
    5000001    1    1    2    0    0  0.12693094628E+03 -0.18325403548E+03 -0.64325002120E+03  0.72523382190E+03  0.25000000000E+03 0.  0.
<mgrwt>
<rscale>  0 0.67575190E+03</rscale>
<asrwt>0</asrwt>
<pdfrwt beam="1">  1        1 0.18610879E+00 0.67575190E+03</pdfrwt>
<pdfrwt beam="2">  1       -1 0.14518474E-01 0.67575190E+03</pdfrwt>
<totfact> 0.37075336E+02</totfact>
</mgrwt>
</event>
<event>
 4    1  0.4047984E-006  0.6820784E+03  0.7818608E-02  0.9748381E-01
         -1   -1    0    0    0  501 -0.00000000000E+00  0.00000000000E+00  0.10176950763E+03  0.10176950775E+03  0.50400000000E-02 0. -1.
          1   -1    0    0  501    0  0.00000000000E+00 -0.00000000000E+00 -0.11428545333E+04  0.11428545333E+04  0.50400000000E-02 0.  1.
   -5000001    1    1    2    0    0  0.20294561285E+03 -0.11183641526E+03 -0.50110760257E+03  0.60605538930E+03  0.25000000000E+03 0.  0.
    5000001    1    1    2    0    0 -0.20294561285E+03  0.11183641526E+03 -0.53997742314E+03  0.63856865180E+03  0.25000000000E+03 0.  0.
<mgrwt>
<rscale>  0 0.68207842E+03</rscale>
<asrwt>0</asrwt>
<pdfrwt beam="1">  1        1 0.17582376E+00 0.68207842E+03</pdfrwt>
<pdfrwt beam="2">  1       -1 0.15656848E-01 0.68207842E+03</pdfrwt>
<totfact> 0.36665856E+02</totfact>
</mgrwt>
</event>
<event>
 4    1  0.4047984E-006  0.6983367E+03  0.7818608E-02  0.9720081E-01
          1   -1    0    0  501    0  0.00000000000E+00  0.00000000000E+00  0.33748691874E+04  0.33748691874E+04  0.50400000000E-02 0. -1.
         -1   -1    0    0    0  501 -0.00000000000E+00 -0.00000000000E+00 -0.36125411020E+02  0.36125411372E+02  0.50400000000E-02 0.  1.
   -5000001    1    1    2    0    0  0.16668989569E+03 -0.13624311402E+03  0.22278006039E+04  0.22520975197E+04  0.25000000000E+03 0.  0.
    5000001    1    1    2    0    0 -0.16668989569E+03  0.13624311402E+03  0.11109431725E+04  0.11588970791E+04  0.25000000000E+03 0.  0.
<mgrwt>
<rscale>  0 0.69833670E+03</rscale>
<asrwt>0</asrwt>
<pdfrwt beam="1">  1        1 0.51921075E+00 0.69833670E+03</pdfrwt>
<pdfrwt beam="2">  1       -1 0.55577544E-02 0.69833670E+03</pdfrwt>
<totfact> 0.53251932E+01</totfact>
</mgrwt>
</event>
<event>
 4    1  0.4047984E-006  0.9887314E+03  0.7818608E-02  0.9320991E-01
         -1   -1    0    0    0  501 -0.00000000000E+00  0.00000000000E+00  0.52601738067E+03  0.52601738070E+03  0.50400000000E-02 0.  1.
          1   -1    0    0  501    0  0.00000000000E+00 -0.00000000000E+00 -0.46461861618E+03  0.46461861620E+03  0.50400000000E-02 0. -1.
   -5000001    1    1    2    0    0  0.17811461577E+03  0.31571503945E+03  0.25584687086E+03  0.50927244557E+03  0.25000000000E+03 0.  0.
    5000001    1    1    2    0    0 -0.17811461577E+03 -0.31571503945E+03 -0.19444810636E+03  0.48136355133E+03  0.25000000000E+03 0.  0.
<mgrwt>
<rscale>  0 0.98873144E+03</rscale>
<asrwt>0</asrwt>
<pdfrwt beam="1">  1        1 0.71479788E-01 0.98873144E+03</pdfrwt>
<pdfrwt beam="2">  1       -1 0.80925750E-01 0.98873144E+03</pdfrwt>
<totfact> 0.74905371E+01</totfact>
</mgrwt>
</event>
<event>
 4    1  0.4047984E-006  0.8195675E+03  0.7818608E-02  0.9532118E-01
         -1   -1    0    0    0  501 -0.00000000000E+00  0.00000000000E+00  0.22918769360E+03  0.22918769366E+03  0.50400000000E-02 0. -1.
          1   -1    0    0  501    0  0.00000000000E+00 -0.00000000000E+00 -0.73268645131E+03  0.73268645133E+03  0.50400000000E-02 0.  1.
   -5000001    1    1    2    0    0  0.16580945777E+03  0.27850061588E+03 -0.22925506607E+03  0.46916229031E+03  0.25000000000E+03 0.  0.
    5000001    1    1    2    0    0 -0.16580945777E+03 -0.27850061588E+03 -0.27424369163E+03  0.49271185467E+03  0.25000000000E+03 0.  0.
<mgrwt>
<rscale>  0 0.81956749E+03</rscale>
<asrwt>0</asrwt>
<pdfrwt beam="1">  1        1 0.11272099E+00 0.81956749E+03</pdfrwt>
<pdfrwt beam="2">  1       -1 0.35259645E-01 0.81956749E+03</pdfrwt>
<totfact> 0.19634420E+02</totfact>
</mgrwt>
</event>
<event>
 4    1  0.4047984E-006  0.5814691E+03  0.7818608E-02  0.9944615E-01
         -1   -1    0    0    0  501 -0.00000000000E+00  0.00000000000E+00  0.78039733947E+03  0.78039733949E+03  0.50400000000E-02 0. -1.
          1   -1    0    0  501    0  0.00000000000E+00 -0.00000000000E+00 -0.10831224682E+03  0.10831224693E+03  0.50400000000E-02 0.  1.
   -5000001    1    1    2    0    0  0.14493380913E+03  0.22527349123E+02  0.37066982239E+03  0.47054161104E+03  0.25000000000E+03 0.  0.
    5000001    1    1    2    0    0 -0.14493380913E+03 -0.22527349123E+02  0.30141527027E+03  0.41816797539E+03  0.25000000000E+03 0.  0.
<mgrwt>
<rscale>  0 0.58146914E+03</rscale>
<asrwt>0</asrwt>
<pdfrwt beam="1">  1        1 0.16663422E-01 0.58146914E+03</pdfrwt>
<pdfrwt beam="2">  1       -1 0.12006113E+00 0.58146914E+03</pdfrwt>
<totfact> 0.21114382E+02</totfact>
</mgrwt>
</event>
<event>
 4    1  0.4047984E-006  0.1453090E+04  0.7818608E-02  0.8916261E-01
         -1   -1    0    0    0  501 -0.00000000000E+00  0.00000000000E+00  0.63912398293E+03  0.63912398295E+03  0.50400000000E-02 0. -1.
          1   -1    0    0  501    0  0.00000000000E+00 -0.00000000000E+00 -0.82592317620E+03  0.82592317622E+03  0.50400000000E-02 0.  1.
   -5000001    1    1    2    0    0 -0.26318941483E+03 -0.37445622038E+03 -0.60340925227E+03  0.79755178815E+03  0.25000000000E+03 0.  0.
    5000001    1    1    2    0    0  0.26318941483E+03  0.37445622038E+03  0.41661005900E+03  0.66749537101E+03  0.25000000000E+03 0.  0.
<mgrwt>
<rscale>  0 0.14530895E+04</rscale>
<asrwt>0</asrwt>
<pdfrwt beam="1">  1        1 0.12706510E+00 0.14530895E+04</pdfrwt>
<pdfrwt beam="2">  1       -1 0.98326766E-01 0.14530895E+04</pdfrwt>
<totfact> 0.20201874E+01</totfact>
</mgrwt>
</event>
<event>
 4    1  0.4047984E-006  0.9262759E+03  0.7818608E-02  0.9393318E-01
         -1   -1    0    0    0  501 -0.00000000000E+00  0.00000000000E+00  0.15931390223E+03  0.15931390231E+03  0.50400000000E-02 0. -1.
          1   -1    0    0  501    0  0.00000000000E+00 -0.00000000000E+00 -0.13463782894E+04  0.13463782894E+04  0.50400000000E-02 0.  1.
   -5000001    1    1    2    0    0 -0.33174442404E+03 -0.22060320131E+02 -0.26256248445E+03  0.49191470688E+03  0.25000000000E+03 0.  0.
    5000001    1    1    2    0    0  0.33174442404E+03  0.22060320131E+02 -0.92450190271E+03  0.10137774848E+04  0.25000000000E+03 0.  0.
<mgrwt>
<rscale>  0 0.92627594E+03</rscale>
<asrwt>0</asrwt>
<pdfrwt beam="1">  1        1 0.20713511E+00 0.92627594E+03</pdfrwt>
<pdfrwt beam="2">  1       -1 0.24509832E-01 0.92627594E+03</pdfrwt>
<totfact> 0.12220949E+02</totfact>
</mgrwt>
</event>
<event>
 4    1  0.4047984E-006  0.6579015E+03  0.7818608E-02  0.9792064E-01
          1   -1    0    0  501    0  0.00000000000E+00  0.00000000000E+00  0.10008518056E+04  0.10008518056E+04  0.50400000000E-02 0.  1.
         -1   -1    0    0    0  501 -0.00000000000E+00 -0.00000000000E+00 -0.10811651653E+03  0.10811651664E+03  0.50400000000E-02 0. -1.
   -5000001    1    1    2    0    0  0.11958434701E+02  0.19583324692E+03  0.58954514602E+03  0.66974408841E+03  0.25000000000E+03 0.  0.
    5000001    1    1    2    0    0 -0.11958434701E+02 -0.19583324692E+03  0.30319014306E+03  0.43922423386E+03  0.25000000000E+03 0.  0.
<mgrwt>
<rscale>  0 0.65790155E+03</rscale>
<asrwt>0</asrwt>
<pdfrwt beam="1">  1        1 0.15397720E+00 0.65790155E+03</pdfrwt>
<pdfrwt beam="2">  1       -1 0.16633310E-01 0.65790155E+03</pdfrwt>
<totfact> 0.42528520E+02</totfact>
</mgrwt>
</event>
<event>
 4    1  0.4047984E-006  0.6768104E+03  0.7818608E-02  0.9757732E-01
         -1   -1    0    0    0  501 -0.00000000000E+00  0.00000000000E+00  0.11498171067E+03  0.11498171078E+03  0.50400000000E-02 0. -1.
          1   -1    0    0  501    0  0.00000000000E+00 -0.00000000000E+00 -0.99596774216E+03  0.99596774217E+03  0.50400000000E-02 0.  1.
   -5000001    1    1    2    0    0  0.74295262811E+02  0.17740833163E+03 -0.23929284349E+03  0.39592242568E+03  0.25000000000E+03 0.  0.
    5000001    1    1    2    0    0 -0.74295262811E+02 -0.17740833163E+03 -0.64169318800E+03  0.71502702727E+03  0.25000000000E+03 0.  0.
<mgrwt>
<rscale>  0 0.67681039E+03</rscale>
<asrwt>0</asrwt>
<pdfrwt beam="1">  1        1 0.15322580E+00 0.67681039E+03</pdfrwt>
<pdfrwt beam="2">  1       -1 0.17689495E-01 0.67681039E+03</pdfrwt>
<totfact> 0.38742273E+02</totfact>
</mgrwt>
</event>
<event>
 4    1  0.4047984E-006  0.1160598E+04  0.7818608E-02  0.9148062E-01
         -1   -1    0    0    0  501 -0.00000000000E+00  0.00000000000E+00  0.44194817697E+03  0.44194817700E+03  0.50400000000E-02 0.  1.
          1   -1    0    0  501    0  0.00000000000E+00 -0.00000000000E+00 -0.76196044134E+03  0.76196044136E+03  0.50400000000E-02 0. -1.
   -5000001    1    1    2    0    0  0.38398681350E+03 -0.23768064928E+03  0.11504744674E+03  0.52884201704E+03  0.25000000000E+03 0.  0.
    5000001    1    1    2    0    0 -0.38398681350E+03  0.23768064928E+03 -0.43505971111E+03  0.67506660132E+03  0.25000000000E+03 0.  0.
<mgrwt>
<rscale>  0 0.11605982E+04</rscale>
<asrwt>0</asrwt>
<pdfrwt beam="1">  1        1 0.11722468E+00 0.11605982E+04</pdfrwt>
<pdfrwt beam="2">  1       -1 0.67992027E-01 0.11605982E+04</pdfrwt>
<totfact> 0.51945610E+01</totfact>
</mgrwt>
</event>
<event>
 4    1  0.4047984E-006  0.8649119E+03  0.7818608E-02  0.9470538E-01
         -1   -1    0    0    0  501 -0.00000000000E+00  0.00000000000E+00  0.10898507922E+03  0.10898507934E+03  0.50400000000E-02 0.  1.
          1   -1    0    0  501    0  0.00000000000E+00 -0.00000000000E+00 -0.17159977829E+04  0.17159977829E+04  0.50400000000E-02 0. -1.
   -5000001    1    1    2    0    0  0.30956125939E+03  0.16678388919E+03 -0.74115832141E+03  0.85759005148E+03  0.25000000000E+03 0.  0.
    5000001    1    1    2    0    0 -0.30956125939E+03 -0.16678388919E+03 -0.86585438224E+03  0.96739281073E+03  0.25000000000E+03 0.  0.
<mgrwt>
<rscale>  0 0.86491191E+03</rscale>
<asrwt>0</asrwt>
<pdfrwt beam="1">  1        1 0.26399964E+00 0.86491191E+03</pdfrwt>
<pdfrwt beam="2">  1       -1 0.16766937E-01 0.86491191E+03</pdfrwt>
<totfact> 0.12919689E+02</totfact>
</mgrwt>
</event>
<event>
 4    1  0.4047984E-006  0.7163463E+03  0.7818608E-02  0.9689679E-01
         -1   -1    0    0    0  501 -0.00000000000E+00  0.00000000000E+00  0.36099010314E+03  0.36099010318E+03  0.50400000000E-02 0. -1.
          1   -1    0    0  501    0  0.00000000000E+00 -0.00000000000E+00 -0.35537820506E+03  0.35537820510E+03  0.50400000000E-02 0.  1.
   -5000001    1    1    2    0    0  0.20419302499E+03 -0.96240370346E+02  0.12459233909E+03  0.35913820641E+03  0.25000000000E+03 0.  0.
    5000001    1    1    2    0    0 -0.20419302499E+03  0.96240370346E+02 -0.11898044101E+03  0.35723010187E+03  0.25000000000E+03 0.  0.
<mgrwt>
<rscale>  0 0.71634633E+03</rscale>
<asrwt>0</asrwt>
<pdfrwt beam="1">  1        1 0.54673570E-01 0.71634633E+03</pdfrwt>
<pdfrwt beam="2">  1       -1 0.55536939E-01 0.71634633E+03</pdfrwt>
<totfact> 0.23331330E+02</totfact>
</mgrwt>
</event>
<event>
 4    1  0.4047984E-006  0.7202621E+03  0.7818608E-02  0.9683195E-01
         -1   -1    0    0    0  501 -0.00000000000E+00  0.00000000000E+00  0.12450593495E+03  0.12450593505E+03  0.50400000000E-02 0. -1.
          1   -1    0    0  501    0  0.00000000000E+00 -0.00000000000E+00 -0.10416723443E+04  0.10416723443E+04  0.50400000000E-02 0.  1.
   -5000001    1    1    2    0    0  0.11226375471E+03 -0.22920328366E+03 -0.53201791016E+03  0.64084346965E+03  0.25000000000E+03 0.  0.
    5000001    1    1    2    0    0 -0.11226375471E+03  0.22920328366E+03 -0.38514849921E+03  0.52533480973E+03  0.25000000000E+03 0.  0.
<mgrwt>
<rscale>  0 0.72026214E+03</rscale>
<asrwt>0</asrwt>
<pdfrwt beam="1">  1        1 0.16025728E+00 0.72026214E+03</pdfrwt>
<pdfrwt beam="2">  1       -1 0.19154760E-01 0.72026214E+03</pdfrwt>
<totfact> 0.31261248E+02</totfact>
</mgrwt>
</event>
<event>
 4    1  0.4047984E-006  0.7310165E+03  0.7818608E-02  0.9665612E-01
          1   -1    0    0  501    0  0.00000000000E+00  0.00000000000E+00  0.39937429610E+03  0.39937429613E+03  0.50400000000E-02 0. -1.
         -1   -1    0    0    0  501 -0.00000000000E+00 -0.00000000000E+00 -0.33451395514E+03  0.33451395518E+03  0.50400000000E-02 0.  1.
   -5000001    1    1    2    0    0  0.99250247714E+02 -0.15520998825E+03 -0.16108474979E+03  0.34984146229E+03  0.25000000000E+03 0.  0.
    5000001    1    1    2    0    0 -0.99250247714E+02  0.15520998825E+03  0.22594509074E+03  0.38404678902E+03  0.25000000000E+03 0.  0.
<mgrwt>
<rscale>  0 0.73101649E+03</rscale>
<asrwt>0</asrwt>
<pdfrwt beam="1">  1        1 0.61442199E-01 0.73101649E+03</pdfrwt>
<pdfrwt beam="2">  1       -1 0.51463685E-01 0.73101649E+03</pdfrwt>
<totfact> 0.23141849E+02</totfact>
</mgrwt>
</event>
<event>
 4    1  0.4047984E-006  0.6387664E+03  0.7818608E-02  0.9828090E-01
         -1   -1    0    0    0  501 -0.00000000000E+00  0.00000000000E+00  0.29035195736E+03  0.29035195741E+03  0.50400000000E-02 0. -1.
          1   -1    0    0  501    0  0.00000000000E+00 -0.00000000000E+00 -0.35131714619E+03  0.35131714622E+03  0.50400000000E-02 0.  1.
   -5000001    1    1    2    0    0 -0.16143583977E+03  0.31663999889E+02  0.81565670381E+02  0.31018880998E+03  0.25000000000E+03 0.  0.
    5000001    1    1    2    0    0  0.16143583977E+03 -0.31663999889E+02 -0.14253085921E+03  0.33148029365E+03  0.25000000000E+03 0.  0.
<mgrwt>
<rscale>  0 0.63876638E+03</rscale>
<asrwt>0</asrwt>
<pdfrwt beam="1">  1        1 0.54048791E-01 0.63876638E+03</pdfrwt>
<pdfrwt beam="2">  1       -1 0.44669532E-01 0.63876638E+03</pdfrwt>
<totfact> 0.35851029E+02</totfact>
</mgrwt>
</event>
<event>
 4    1  0.4047984E-006  0.6508875E+03  0.7818608E-02  0.9805115E-01
         -1   -1    0    0    0  501 -0.00000000000E+00  0.00000000000E+00  0.18866307826E+03  0.18866307832E+03  0.50400000000E-02 0.  1.
          1   -1    0    0  501    0  0.00000000000E+00 -0.00000000000E+00 -0.56139041427E+03  0.56139041429E+03  0.50400000000E-02 0. -1.
   -5000001    1    1    2    0    0  0.15218565377E+03  0.14217843876E+03 -0.17921702012E+03  0.37147533157E+03  0.25000000000E+03 0.  0.
    5000001    1    1    2    0    0 -0.15218565377E+03 -0.14217843876E+03 -0.19351031589E+03  0.37857816104E+03  0.25000000000E+03 0.  0.
<mgrwt>
<rscale>  0 0.65088753E+03</rscale>
<asrwt>0</asrwt>
<pdfrwt beam="1">  1        1 0.86367755E-01 0.65088753E+03</pdfrwt>
<pdfrwt beam="2">  1       -1 0.29025089E-01 0.65088753E+03</pdfrwt>
<totfact> 0.41196177E+02</totfact>
</mgrwt>
</event>
<event>
 4    1  0.4047984E-006  0.7915415E+03  0.7818608E-02  0.9572342E-01
         -1   -1    0    0    0  501 -0.00000000000E+00  0.00000000000E+00  0.23977232493E+04  0.23977232493E+04  0.50400000000E-02 0. -1.
          1   -1    0    0  501    0  0.00000000000E+00 -0.00000000000E+00 -0.65326343730E+02  0.65326343924E+02  0.50400000000E-02 0.  1.
   -5000001    1    1    2    0    0  0.10753278723E+03  0.26322329587E+03  0.80754487892E+03  0.89189603390E+03  0.25000000000E+03 0.  0.
    5000001    1    1    2    0    0 -0.10753278723E+03 -0.26322329587E+03  0.15248520267E+04  0.15711535594E+04  0.25000000000E+03 0.  0.
<mgrwt>
<rscale>  0 0.79154152E+03</rscale>
<asrwt>0</asrwt>
<pdfrwt beam="1">  1        1 0.10050208E-01 0.79154152E+03</pdfrwt>
<pdfrwt beam="2">  1       -1 0.36888044E+00 0.79154152E+03</pdfrwt>
<totfact> 0.81475866E+00</totfact>
</mgrwt>
</event>
<event>
 4    1  0.4047984E-006  0.6254453E+03  0.7818608E-02  0.9853978E-01
         -1   -1    0    0    0  501 -0.00000000000E+00  0.00000000000E+00  0.10901597417E+03  0.10901597428E+03  0.50400000000E-02 0. -1.
          1   -1    0    0  501    0  0.00000000000E+00 -0.00000000000E+00 -0.89707442077E+03  0.89707442078E+03  0.50400000000E-02 0.  1.
   -5000001    1    1    2    0    0 -0.16624412802E+03  0.70333660136E+02 -0.31026604395E+03  0.43743451153E+03  0.25000000000E+03 0.  0.
    5000001    1    1    2    0    0  0.16624412802E+03 -0.70333660136E+02 -0.47779240265E+03  0.56865588354E+03  0.25000000000E+03 0.  0.
<mgrwt>
<rscale>  0 0.62544526E+03</rscale>
<asrwt>0</asrwt>
<pdfrwt beam="1">  1        1 0.13801144E+00 0.62544526E+03</pdfrwt>
<pdfrwt beam="2">  1       -1 0.16771689E-01 0.62544526E+03</pdfrwt>
<totfact> 0.50756553E+02</totfact>
</mgrwt>
</event>
<event>
 4    1  0.4047984E-006  0.6711035E+03  0.7818608E-02  0.9767966E-01
          1   -1    0    0  501    0  0.00000000000E+00  0.00000000000E+00  0.28386006039E+03  0.28386006044E+03  0.50400000000E-02 0.  1.
         -1   -1    0    0    0  501 -0.00000000000E+00 -0.00000000000E+00 -0.39665669116E+03  0.39665669119E+03  0.50400000000E-02 0. -1.
   -5000001    1    1    2    0    0  0.16019923306E+03 -0.15628473246E+03 -0.53857079005E+02  0.33983716223E+03  0.25000000000E+03 0.  0.
    5000001    1    1    2    0    0 -0.16019923306E+03  0.15628473246E+03 -0.58939551763E+02  0.34067958940E+03  0.25000000000E+03 0.  0.
<mgrwt>
<rscale>  0 0.67110355E+03</rscale>
<asrwt>0</asrwt>
<pdfrwt beam="1">  1        1 0.43670778E-01 0.67110355E+03</pdfrwt>
<pdfrwt beam="2">  1       -1 0.61024106E-01 0.67110355E+03</pdfrwt>
<totfact> 0.26036911E+02</totfact>
</mgrwt>
</event>
<event>
 4    1  0.4047984E-006  0.8154416E+03  0.7818608E-02  0.9537931E-01
         -1   -1    0    0    0  501 -0.00000000000E+00  0.00000000000E+00  0.91211977297E+03  0.91211977299E+03  0.50400000000E-02 0. -1.
          1   -1    0    0  501    0  0.00000000000E+00 -0.00000000000E+00 -0.18225263891E+03  0.18225263898E+03  0.50400000000E-02 0.  1.
   -5000001    1    1    2    0    0 -0.12108921383E+03  0.13657244464E+03  0.87898777404E+01  0.30966416049E+03  0.25000000000E+03 0.  0.
    5000001    1    1    2    0    0  0.12108921383E+03 -0.13657244464E+03  0.72107725632E+03  0.78470825147E+03  0.25000000000E+03 0.  0.
<mgrwt>
<rscale>  0 0.81544156E+03</rscale>
<asrwt>0</asrwt>
<pdfrwt beam="1">  1        1 0.28038868E-01 0.81544156E+03</pdfrwt>
<pdfrwt beam="2">  1       -1 0.14032612E+00 0.81544156E+03</pdfrwt>
<totfact> 0.70908942E+01</totfact>
</mgrwt>
</event>
<event>
 4    1  0.4047984E-006  0.6588383E+03  0.7818608E-02  0.9790335E-01
         -1   -1    0    0    0  501 -0.00000000000E+00  0.00000000000E+00  0.99276222574E+02  0.99276222702E+02  0.50400000000E-02 0. -1.
          1   -1    0    0  501    0  0.00000000000E+00 -0.00000000000E+00 -0.10930810998E+04  0.10930810998E+04  0.50400000000E-02 0.  1.
   -5000001    1    1    2    0    0 -0.67664421122E+02 -0.19351024392E+03 -0.38255201008E+03  0.50086997195E+03  0.25000000000E+03 0.  0.
    5000001    1    1    2    0    0  0.67664421122E+02  0.19351024392E+03 -0.61125286711E+03  0.69148735052E+03  0.25000000000E+03 0.  0.
<mgrwt>
<rscale>  0 0.65883826E+03</rscale>
<asrwt>0</asrwt>
<pdfrwt beam="1">  1        1 0.16816631E+00 0.65883826E+03</pdfrwt>
<pdfrwt beam="2">  1       -1 0.15273266E-01 0.65883826E+03</pdfrwt>
<totfact> 0.41604784E+02</totfact>
</mgrwt>
</event>
<event>
 4    1  0.4047984E-006  0.5993593E+03  0.7818608E-02  0.9906736E-01
          1   -1    0    0  501    0  0.00000000000E+00  0.00000000000E+00  0.20691709891E+04  0.20691709891E+04  0.50400000000E-02 0.  1.
         -1   -1    0    0    0  501 -0.00000000000E+00 -0.00000000000E+00 -0.43402831706E+02  0.43402831999E+02  0.50400000000E-02 0. -1.
   -5000001    1    1    2    0    0  0.39168708139E+02  0.14887017721E+03  0.80106734993E+03  0.85317373171E+03  0.25000000000E+03 0.  0.
    5000001    1    1    2    0    0 -0.39168708139E+02 -0.14887017721E+03  0.12247008075E+04  0.12594000894E+04  0.25000000000E+03 0.  0.
<mgrwt>
<rscale>  0 0.59935926E+03</rscale>
<asrwt>0</asrwt>
<pdfrwt beam="1">  1        1 0.31833396E+00 0.59935926E+03</pdfrwt>
<pdfrwt beam="2">  1       -1 0.66773595E-02 0.59935926E+03</pdfrwt>
<totfact> 0.33170759E+02</totfact>
</mgrwt>
</event>
<event>
 4    1  0.4047984E-006  0.7396325E+03  0.7818608E-02  0.9651757E-01
          1   -1    0    0  501    0  0.00000000000E+00  0.00000000000E+00  0.11396154861E+04  0.11396154861E+04  0.50400000000E-02 0.  1.
         -1   -1    0    0    0  501 -0.00000000000E+00 -0.00000000000E+00 -0.12000893894E+03  0.12000893905E+03  0.50400000000E-02 0. -1.
   -5000001    1    1    2    0    0  0.48833620510E+02 -0.18796284479E+03  0.83538842617E+03  0.89335803354E+03  0.25000000000E+03 0.  0.
    5000001    1    1    2    0    0 -0.48833620510E+02  0.18796284479E+03  0.18421812093E+03  0.36626639157E+03  0.25000000000E+03 0.  0.
<mgrwt>
<rscale>  0 0.73963246E+03</rscale>
<asrwt>0</asrwt>
<pdfrwt beam="1">  1        1 0.17532546E+00 0.73963246E+03</pdfrwt>
<pdfrwt beam="2">  1       -1 0.18462913E-01 0.73963246E+03</pdfrwt>
<totfact> 0.28034871E+02</totfact>
</mgrwt>
</event>
<event>
 4    1  0.4047984E-006  0.7744350E+03  0.7818608E-02  0.9597777E-01
         -1   -1    0    0    0  501 -0.00000000000E+00  0.00000000000E+00  0.10862504178E+03  0.10862504190E+03  0.50400000000E-02 0. -1.
          1   -1    0    0  501    0  0.00000000000E+00 -0.00000000000E+00 -0.13803206290E+04  0.13803206290E+04  0.50400000000E-02 0.  1.
   -5000001    1    1    2    0    0 -0.14764146384E+03  0.11569018569E+03 -0.19634817710E+03  0.36910002379E+03  0.25000000000E+03 0.  0.
    5000001    1    1    2    0    0  0.14764146384E+03 -0.11569018569E+03 -0.10753474101E+04  0.11198456471E+04  0.25000000000E+03 0.  0.
<mgrwt>
<rscale>  0 0.77443498E+03</rscale>
<asrwt>0</asrwt>
<pdfrwt beam="1">  1        1 0.21235701E+00 0.77443498E+03</pdfrwt>
<pdfrwt beam="2">  1       -1 0.16711546E-01 0.77443498E+03</pdfrwt>
<totfact> 0.22184045E+02</totfact>
</mgrwt>
</event>
<event>
 4    1  0.4047984E-006  0.6627510E+03  0.7818608E-02  0.9783143E-01
         -1   -1    0    0    0  501 -0.00000000000E+00  0.00000000000E+00  0.74175710645E+03  0.74175710646E+03  0.50400000000E-02 0. -1.
          1   -1    0    0  501    0  0.00000000000E+00 -0.00000000000E+00 -0.14803999233E+03  0.14803999242E+03  0.50400000000E-02 0.  1.
   -5000001    1    1    2    0    0 -0.88354921872E+02 -0.93968198229E+02  0.53199473440E+03  0.60179316374E+03  0.25000000000E+03 0.  0.
    5000001    1    1    2    0    0  0.88354921872E+02  0.93968198229E+02  0.61722379716E+02  0.28800393514E+03  0.25000000000E+03 0.  0.
<mgrwt>
<rscale>  0 0.66275098E+03</rscale>
<asrwt>0</asrwt>
<pdfrwt beam="1">  1        1 0.22775384E-01 0.66275098E+03</pdfrwt>
<pdfrwt beam="2">  1       -1 0.11411648E+00 0.66275098E+03</pdfrwt>
<totfact> 0.15714130E+02</totfact>
</mgrwt>
</event>
<event>
 4    1  0.4047984E-006  0.1474280E+04  0.7818608E-02  0.8901739E-01
         -1   -1    0    0    0  501 -0.00000000000E+00  0.00000000000E+00  0.24503928942E+03  0.24503928947E+03  0.50400000000E-02 0. -1.
          1   -1    0    0  501    0  0.00000000000E+00 -0.00000000000E+00 -0.22175029945E+04  0.22175029945E+04  0.50400000000E-02 0.  1.
   -5000001    1    1    2    0    0  0.18338446199E+03 -0.65112938770E+03 -0.12410662628E+04  0.14353901243E+04  0.25000000000E+03 0.  0.
    5000001    1    1    2    0    0 -0.18338446199E+03  0.65112938770E+03 -0.73139744228E+03  0.10271521596E+04  0.25000000000E+03 0.  0.
<mgrwt>
<rscale>  0 0.14742800E+04</rscale>
<asrwt>0</asrwt>
<pdfrwt beam="1">  1        1 0.34115429E+00 0.14742800E+04</pdfrwt>
<pdfrwt beam="2">  1       -1 0.37698354E-01 0.14742800E+04</pdfrwt>
<totfact> 0.13962347E+01</totfact>
</mgrwt>
</event>
<event>
 4    1  0.4047984E-006  0.6650883E+03  0.7818608E-02  0.9778872E-01
          1   -1    0    0  501    0  0.00000000000E+00  0.00000000000E+00  0.15434228296E+03  0.15434228304E+03  0.50400000000E-02 0.  1.
         -1   -1    0    0    0  501 -0.00000000000E+00 -0.00000000000E+00 -0.71649589333E+03  0.71649589334E+03  0.50400000000E-02 0. -1.
   -5000001    1    1    2    0    0  0.14820837260E+03 -0.16132143667E+03 -0.29385792319E+03  0.44366970447E+03  0.25000000000E+03 0.  0.
    5000001    1    1    2    0    0 -0.14820837260E+03  0.16132143667E+03 -0.26829568718E+03  0.42716847192E+03  0.25000000000E+03 0.  0.
<mgrwt>
<rscale>  0 0.66508830E+03</rscale>
<asrwt>0</asrwt>
<pdfrwt beam="1">  1        1 0.23744967E-01 0.66508830E+03</pdfrwt>
<pdfrwt beam="2">  1       -1 0.11023014E+00 0.66508830E+03</pdfrwt>
<totfact> 0.16147230E+02</totfact>
</mgrwt>
</event>
<event>
 4    1  0.4047984E-006  0.5398390E+03  0.7818608E-02  0.1003874E+00
          1   -1    0    0  501    0  0.00000000000E+00  0.00000000000E+00  0.10632112374E+04  0.10632112374E+04  0.50400000000E-02 0.  1.
         -1   -1    0    0    0  501 -0.00000000000E+00 -0.00000000000E+00 -0.68524978032E+02  0.68524978217E+02  0.50400000000E-02 0. -1.
   -5000001    1    1    2    0    0 -0.76885849817E+02  0.19754310763E+02  0.36384692355E+03  0.44853790305E+03  0.25000000000E+03 0.  0.
    5000001    1    1    2    0    0  0.76885849817E+02 -0.19754310763E+02  0.63083933581E+03  0.68319831258E+03  0.25000000000E+03 0.  0.
<mgrwt>
<rscale>  0 0.53983896E+03</rscale>
<asrwt>0</asrwt>
<pdfrwt beam="1">  1        1 0.16357096E+00 0.53983896E+03</pdfrwt>
<pdfrwt beam="2">  1       -1 0.10542304E-01 0.53983896E+03</pdfrwt>
<totfact> 0.79731853E+02</totfact>
</mgrwt>
</event>
<event>
 4    1  0.4047984E-006  0.8675809E+03  0.7818608E-02  0.9467040E-01
         -1   -1    0    0    0  501 -0.00000000000E+00  0.00000000000E+00  0.44189583765E+03  0.44189583768E+03  0.50400000000E-02 0. -1.
          1   -1    0    0  501    0  0.00000000000E+00 -0.00000000000E+00 -0.42583372095E+03  0.42583372098E+03  0.50400000000E-02 0.  1.
   -5000001    1    1    2    0    0 -0.11009249061E+03 -0.33010597681E+03  0.75746695903E+02  0.43511823032E+03  0.25000000000E+03 0.  0.
    5000001    1    1    2    0    0  0.11009249061E+03  0.33010597681E+03 -0.59684579197E+02  0.43261132834E+03  0.25000000000E+03 0.  0.
<mgrwt>
<rscale>  0 0.86758089E+03</rscale>
<asrwt>0</asrwt>
<pdfrwt beam="1">  1        1 0.65512880E-01 0.86758089E+03</pdfrwt>
<pdfrwt beam="2">  1       -1 0.67983975E-01 0.86758089E+03</pdfrwt>
<totfact> 0.12203973E+02</totfact>
</mgrwt>
</event>
<event>
 4    1  0.4047984E-006  0.9329550E+03  0.7818608E-02  0.9385298E-01
         -1   -1    0    0    0  501 -0.00000000000E+00  0.00000000000E+00  0.60788327184E+03  0.60788327186E+03  0.50400000000E-02 0.  1.
          1   -1    0    0  501    0  0.00000000000E+00 -0.00000000000E+00 -0.35796555799E+03  0.35796555803E+03  0.50400000000E-02 0. -1.
   -5000001    1    1    2    0    0  0.28506135899E+03 -0.25380753440E+03  0.24464015023E+02  0.45692092416E+03  0.25000000000E+03 0.  0.
    5000001    1    1    2    0    0 -0.28506135899E+03  0.25380753440E+03  0.22545369882E+03  0.50892790572E+03  0.25000000000E+03 0.  0.
<mgrwt>
<rscale>  0 0.93295504E+03</rscale>
<asrwt>0</asrwt>
<pdfrwt beam="1">  1        1 0.55071625E-01 0.93295504E+03</pdfrwt>
<pdfrwt beam="2">  1       -1 0.93520503E-01 0.93295504E+03</pdfrwt>
<totfact> 0.77642834E+01</totfact>
</mgrwt>
</event>
<event>
 4    1  0.4047984E-006  0.5866102E+03  0.7818608E-02  0.9933582E-01
         -1   -1    0    0    0  501 -0.00000000000E+00  0.00000000000E+00  0.60071737120E+03  0.60071737122E+03  0.50400000000E-02 0. -1.
          1   -1    0    0  501    0  0.00000000000E+00 -0.00000000000E+00 -0.14320859815E+03  0.14320859824E+03  0.50400000000E-02 0.  1.
   -5000001    1    1    2    0    0  0.14370338913E+03  0.75634581749E+00  0.29677242265E+03  0.41379355596E+03  0.25000000000E+03 0.  0.
    5000001    1    1    2    0    0 -0.14370338913E+03 -0.75634581749E+00  0.16073635040E+03  0.33013241350E+03  0.25000000000E+03 0.  0.
<mgrwt>
<rscale>  0 0.58661024E+03</rscale>
<asrwt>0</asrwt>
<pdfrwt beam="1">  1        1 0.22032091E-01 0.58661024E+03</pdfrwt>
<pdfrwt beam="2">  1       -1 0.92418060E-01 0.58661024E+03</pdfrwt>
<totfact> 0.26718413E+02</totfact>
</mgrwt>
</event>
<event>
 4    1  0.4047984E-006  0.7723004E+03  0.7818608E-02  0.9601000E-01
          1   -1    0    0  501    0  0.00000000000E+00  0.00000000000E+00  0.18997090826E+04  0.18997090826E+04  0.50400000000E-02 0. -1.
         -1   -1    0    0    0  501 -0.00000000000E+00 -0.00000000000E+00 -0.78492014548E+02  0.78492014710E+02  0.50400000000E-02 0.  1.
   -5000001    1    1    2    0    0 -0.14581676632E+03  0.22838173525E+03  0.12047979728E+04  0.12599440073E+04  0.25000000000E+03 0.  0.
    5000001    1    1    2    0    0  0.14581676632E+03 -0.22838173525E+03  0.61641909530E+03  0.71825709003E+03  0.25000000000E+03 0.  0.
<mgrwt>
<rscale>  0 0.77230044E+03</rscale>
<asrwt>0</asrwt>
<pdfrwt beam="1">  1        1 0.29226295E+00 0.77230044E+03</pdfrwt>
<pdfrwt beam="2">  1       -1 0.12075694E-01 0.77230044E+03</pdfrwt>
<totfact> 0.16692169E+02</totfact>
</mgrwt>
</event>
<event>
 4    1  0.4047984E-006  0.8367408E+03  0.7818608E-02  0.9508308E-01
          1   -1    0    0  501    0  0.00000000000E+00  0.00000000000E+00  0.89888882337E+03  0.89888882338E+03  0.50400000000E-02 0.  1.
         -1   -1    0    0    0  501 -0.00000000000E+00 -0.00000000000E+00 -0.19472241726E+03  0.19472241732E+03  0.50400000000E-02 0. -1.
   -5000001    1    1    2    0    0  0.30321351826E+03 -0.93766845700E+02  0.21008891155E+03  0.45537677780E+03  0.25000000000E+03 0.  0.
    5000001    1    1    2    0    0 -0.30321351826E+03  0.93766845700E+02  0.49407749456E+03  0.63823446290E+03  0.25000000000E+03 0.  0.
<mgrwt>
<rscale>  0 0.83674083E+03</rscale>
<asrwt>0</asrwt>
<pdfrwt beam="1">  1        1 0.13829059E+00 0.83674083E+03</pdfrwt>
<pdfrwt beam="2">  1       -1 0.29957294E-01 0.83674083E+03</pdfrwt>
<totfact> 0.18813106E+02</totfact>
</mgrwt>
</event>
<event>
 4    1  0.4047984E-006  0.8182146E+03  0.7818608E-02  0.9534020E-01
         -1   -1    0    0    0  501 -0.00000000000E+00  0.00000000000E+00  0.13382691521E+03  0.13382691531E+03  0.50400000000E-02 0. -1.
          1   -1    0    0  501    0  0.00000000000E+00 -0.00000000000E+00 -0.12506361061E+04  0.12506361061E+04  0.50400000000E-02 0.  1.
   -5000001    1    1    2    0    0 -0.26937451271E+03 -0.55869387161E+02 -0.26934181175E+03  0.45905231519E+03  0.25000000000E+03 0.  0.
    5000001    1    1    2    0    0  0.26937451271E+03  0.55869387161E+02 -0.84746737914E+03  0.92541070624E+03  0.25000000000E+03 0.  0.
<mgrwt>
<rscale>  0 0.81821457E+03</rscale>
<asrwt>0</asrwt>
<pdfrwt beam="1">  1        1 0.19240555E+00 0.81821457E+03</pdfrwt>
<pdfrwt beam="2">  1       -1 0.20588757E-01 0.81821457E+03</pdfrwt>
<totfact> 0.19329843E+02</totfact>
</mgrwt>
</event>
<event>
 4    1  0.4047984E-006  0.6027943E+03  0.7818608E-02  0.9899626E-01
         -1   -1    0    0    0  501 -0.00000000000E+00  0.00000000000E+00  0.30075970200E+03  0.30075970205E+03  0.50400000000E-02 0. -1.
          1   -1    0    0  501    0  0.00000000000E+00 -0.00000000000E+00 -0.30203595059E+03  0.30203595064E+03  0.50400000000E-02 0.  1.
   -5000001    1    1    2    0    0 -0.29049854741E+02  0.13311752094E+03  0.98236128683E+02  0.30118848819E+03  0.25000000000E+03 0.  0.
    5000001    1    1    2    0    0  0.29049854741E+02 -0.13311752094E+03 -0.99512377272E+02  0.30160716449E+03  0.25000000000E+03 0.  0.
<mgrwt>
<rscale>  0 0.60279430E+03</rscale>
<asrwt>0</asrwt>
<pdfrwt beam="1">  1        1 0.46467069E-01 0.60279430E+03</pdfrwt>
<pdfrwt beam="2">  1       -1 0.46270724E-01 0.60279430E+03</pdfrwt>
<totfact> 0.40908893E+02</totfact>
</mgrwt>
</event>
<event>
 4    1  0.4047984E-006  0.6293483E+03  0.7818608E-02  0.9846321E-01
          1   -1    0    0  501    0  0.00000000000E+00  0.00000000000E+00  0.24519135262E+03  0.24519135267E+03  0.50400000000E-02 0. -1.
         -1   -1    0    0    0  501 -0.00000000000E+00 -0.00000000000E+00 -0.40384716320E+03  0.40384716323E+03  0.50400000000E-02 0.  1.
   -5000001    1    1    2    0    0 -0.16305787396E+03  0.26776299675E+02 -0.17832600455E+03  0.34871909093E+03  0.25000000000E+03 0.  0.
    5000001    1    1    2    0    0  0.16305787396E+03 -0.26776299675E+02  0.19670193965E+02  0.30031942497E+03  0.25000000000E+03 0.  0.
<mgrwt>
<rscale>  0 0.62934834E+03</rscale>
<asrwt>0</asrwt>
<pdfrwt beam="1">  1        1 0.37721747E-01 0.62934834E+03</pdfrwt>
<pdfrwt beam="2">  1       -1 0.62130333E-01 0.62934834E+03</pdfrwt>
<totfact> 0.30401322E+02</totfact>
</mgrwt>
</event>
<event>
 4    1  0.4047984E-006  0.5845033E+03  0.7818608E-02  0.9938089E-01
         -1   -1    0    0    0  501 -0.00000000000E+00  0.00000000000E+00  0.35237768417E+03  0.35237768421E+03  0.50400000000E-02 0. -1.
          1   -1    0    0  501    0  0.00000000000E+00 -0.00000000000E+00 -0.24238492504E+03  0.24238492509E+03  0.50400000000E-02 0.  1.
   -5000001    1    1    2    0    0 -0.71180504875E+02 -0.12404486028E+03  0.10543707476E+03  0.30670958311E+03  0.25000000000E+03 0.  0.
    5000001    1    1    2    0    0  0.71180504875E+02  0.12404486028E+03  0.45556843736E+01  0.28805302619E+03  0.25000000000E+03 0.  0.
<mgrwt>
<rscale>  0 0.58450334E+03</rscale>
<asrwt>0</asrwt>
<pdfrwt beam="1">  1        1 0.37289988E-01 0.58450334E+03</pdfrwt>
<pdfrwt beam="2">  1       -1 0.54211951E-01 0.58450334E+03</pdfrwt>
<totfact> 0.40300401E+02</totfact>
</mgrwt>
</event>
<event>
 4    1  0.4047984E-006  0.1070660E+04  0.7818608E-02  0.9234270E-01
          1   -1    0    0  501    0  0.00000000000E+00  0.00000000000E+00  0.56761492645E+03  0.56761492647E+03  0.50400000000E-02 0.  1.
         -1   -1    0    0    0  501 -0.00000000000E+00 -0.00000000000E+00 -0.50488150344E+03  0.50488150346E+03  0.50400000000E-02 0. -1.
   -5000001    1    1    2    0    0  0.25876054923E+03  0.25607267477E+03  0.33445471921E+03  0.55397671052E+03  0.25000000000E+03 0.  0.
    5000001    1    1    2    0    0 -0.25876054923E+03 -0.25607267477E+03 -0.27172129620E+03  0.51851971940E+03  0.25000000000E+03 0.  0.
<mgrwt>
<rscale>  0 0.10706601E+04</rscale>
<asrwt>0</asrwt>
<pdfrwt beam="1">  1        1 0.87325373E-01 0.10706601E+04</pdfrwt>
<pdfrwt beam="2">  1       -1 0.77674078E-01 0.10706601E+04</pdfrwt>
<totfact> 0.61533526E+01</totfact>
</mgrwt>
</event>
<event>
 4    1  0.4047984E-006  0.9500125E+03  0.7818608E-02  0.9365136E-01
          1   -1    0    0  501    0  0.00000000000E+00  0.00000000000E+00  0.64893405896E+03  0.64893405898E+03  0.50400000000E-02 0.  1.
         -1   -1    0    0    0  501 -0.00000000000E+00 -0.00000000000E+00 -0.34769471315E+03  0.34769471319E+03  0.50400000000E-02 0. -1.
   -5000001    1    1    2    0    0  0.17879414374E+03  0.11572896868E+03  0.51063598202E+03  0.60713231355E+03  0.25000000000E+03 0.  0.
    5000001    1    1    2    0    0 -0.17879414374E+03 -0.11572896868E+03 -0.20939663621E+03  0.38949645862E+03  0.25000000000E+03 0.  0.
<mgrwt>
<rscale>  0 0.95001251E+03</rscale>
<asrwt>0</asrwt>
<pdfrwt beam="1">  1        1 0.99836008E-01 0.95001251E+03</pdfrwt>
<pdfrwt beam="2">  1       -1 0.53491495E-01 0.95001251E+03</pdfrwt>
<totfact> 0.10821890E+02</totfact>
</mgrwt>
</event>
<event>
 4    1  0.4047984E-006  0.5801257E+03  0.7818608E-02  0.9947519E-01
         -1   -1    0    0    0  501 -0.00000000000E+00  0.00000000000E+00  0.77575379938E+02  0.77575380102E+02  0.50400000000E-02 0. -1.
          1   -1    0    0  501    0  0.00000000000E+00 -0.00000000000E+00 -0.10845768505E+04  0.10845768505E+04  0.50400000000E-02 0.  1.
   -5000001    1    1    2    0    0  0.13670618103E+03  0.30431544111E+01 -0.61209644423E+03  0.67517397592E+03  0.25000000000E+03 0.  0.
    5000001    1    1    2    0    0 -0.13670618103E+03 -0.30431544111E+01 -0.39490502634E+03  0.48697825470E+03  0.25000000000E+03 0.  0.
<mgrwt>
<rscale>  0 0.58012572E+03</rscale>
<asrwt>0</asrwt>
<pdfrwt beam="1">  1        1 0.16685797E+00 0.58012572E+03</pdfrwt>
<pdfrwt beam="2">  1       -1 0.11934675E-01 0.58012572E+03</pdfrwt>
<totfact> 0.63022626E+02</totfact>
</mgrwt>
</event>
<event>
 4    1  0.4047984E-006  0.1241383E+04  0.7818608E-02  0.9077386E-01
          1   -1    0    0  501    0  0.00000000000E+00  0.00000000000E+00  0.94249809600E+03  0.94249809601E+03  0.50400000000E-02 0.  1.
         -1   -1    0    0    0  501 -0.00000000000E+00 -0.00000000000E+00 -0.40876258206E+03  0.40876258209E+03  0.50400000000E-02 0. -1.
   -5000001    1    1    2    0    0 -0.41144835731E+03  0.22551456601E+03 -0.81815513343E+02  0.53790366092E+03  0.25000000000E+03 0.  0.
    5000001    1    1    2    0    0  0.41144835731E+03 -0.22551456601E+03  0.61555102728E+03  0.81335701718E+03  0.25000000000E+03 0.  0.
<mgrwt>
<rscale>  0 0.12413830E+04</rscale>
<asrwt>0</asrwt>
<pdfrwt beam="1">  1        1 0.14499970E+00 0.12413830E+04</pdfrwt>
<pdfrwt beam="2">  1       -1 0.62886552E-01 0.12413830E+04</pdfrwt>
<totfact> 0.42536652E+01</totfact>
</mgrwt>
</event>
<event>
 4    1  0.4047984E-006  0.6164950E+03  0.7818608E-02  0.9871763E-01
         -1   -1    0    0    0  501 -0.00000000000E+00  0.00000000000E+00  0.12232877265E+03  0.12232877275E+03  0.50400000000E-02 0. -1.
          1   -1    0    0  501    0  0.00000000000E+00 -0.00000000000E+00 -0.77673070551E+03  0.77673070552E+03  0.50400000000E-02 0.  1.
   -5000001    1    1    2    0    0 -0.14046683795E+03  0.10596685096E+03 -0.38473813585E+03  0.49140954330E+03  0.25000000000E+03 0.  0.
    5000001    1    1    2    0    0  0.14046683795E+03 -0.10596685096E+03 -0.26966379701E+03  0.40764993498E+03  0.25000000000E+03 0.  0.
<mgrwt>
<rscale>  0 0.61649498E+03</rscale>
<asrwt>0</asrwt>
<pdfrwt beam="1">  1        1 0.11949703E+00 0.61649498E+03</pdfrwt>
<pdfrwt beam="2">  1       -1 0.18819812E-01 0.61649498E+03</pdfrwt>
<totfact> 0.53050264E+02</totfact>
</mgrwt>
</event>
<event>
 4    1  0.4047984E-006  0.6165606E+03  0.7818608E-02  0.9871632E-01
          1   -1    0    0  501    0  0.00000000000E+00  0.00000000000E+00  0.29543748888E+03  0.29543748892E+03  0.50400000000E-02 0. -1.
         -1   -1    0    0    0  501 -0.00000000000E+00 -0.00000000000E+00 -0.32168136319E+03  0.32168136322E+03  0.50400000000E-02 0.  1.
   -5000001    1    1    2    0    0  0.14421469094E+03  0.31365147890E+02 -0.11692256528E+03  0.31297369835E+03  0.25000000000E+03 0.  0.
    5000001    1    1    2    0    0 -0.14421469094E+03 -0.31365147890E+02  0.90678690978E+02  0.30414515380E+03  0.25000000000E+03 0.  0.
<mgrwt>
<rscale>  0 0.61656057E+03</rscale>
<asrwt>0</asrwt>
<pdfrwt beam="1">  1        1 0.45451921E-01 0.61656057E+03</pdfrwt>
<pdfrwt beam="2">  1       -1 0.49489441E-01 0.61656057E+03</pdfrwt>
<totfact> 0.37099587E+02</totfact>
</mgrwt>
</event>
<event>
 4    1  0.4047984E-006  0.7001892E+03  0.7818608E-02  0.9716909E-01
         -1   -1    0    0    0  501 -0.00000000000E+00  0.00000000000E+00  0.55852194787E+03  0.55852194790E+03  0.50400000000E-02 0.  1.
          1   -1    0    0  501    0  0.00000000000E+00 -0.00000000000E+00 -0.21944748661E+03  0.21944748667E+03  0.50400000000E-02 0. -1.
   -5000001    1    1    2    0    0  0.44010551463E+02 -0.88653392561E+02  0.41865290675E+03  0.49756065860E+03  0.25000000000E+03 0.  0.
    5000001    1    1    2    0    0 -0.44010551463E+02  0.88653392561E+02 -0.79578445485E+02  0.28040877597E+03  0.25000000000E+03 0.  0.
<mgrwt>
<rscale>  0 0.70018923E+03</rscale>
<asrwt>0</asrwt>
<pdfrwt beam="1">  1        1 0.33761152E-01 0.70018923E+03</pdfrwt>
<pdfrwt beam="2">  1       -1 0.85926453E-01 0.70018923E+03</pdfrwt>
<totfact> 0.17891643E+02</totfact>
</mgrwt>
</event>
<event>
 4    1  0.4047984E-006  0.7959593E+03  0.7818608E-02  0.9565884E-01
         -1   -1    0    0    0  501 -0.00000000000E+00  0.00000000000E+00  0.41199311220E+03  0.41199311223E+03  0.50400000000E-02 0. -1.
          1   -1    0    0  501    0  0.00000000000E+00 -0.00000000000E+00 -0.38444283686E+03  0.38444283690E+03  0.50400000000E-02 0.  1.
   -5000001    1    1    2    0    0  0.12647607654E+03  0.16438997569E+03 -0.21629197441E+03  0.39025950371E+03  0.25000000000E+03 0.  0.
    5000001    1    1    2    0    0 -0.12647607654E+03 -0.16438997569E+03  0.24384224975E+03  0.40617644541E+03  0.25000000000E+03 0.  0.
<mgrwt>
<rscale>  0 0.79595930E+03</rscale>
<asrwt>0</asrwt>
<pdfrwt beam="1">  1        1 0.59145052E-01 0.79595930E+03</pdfrwt>
<pdfrwt beam="2">  1       -1 0.63383556E-01 0.79595930E+03</pdfrwt>
<totfact> 0.16165294E+02</totfact>
</mgrwt>
</event>
<event>
 4    1  0.4047984E-006  0.5872974E+03  0.7818608E-02  0.9932116E-01
         -1   -1    0    0    0  501 -0.00000000000E+00  0.00000000000E+00  0.10381047182E+03  0.10381047194E+03  0.50400000000E-02 0. -1.
          1   -1    0    0  501    0  0.00000000000E+00 -0.00000000000E+00 -0.83064405126E+03  0.83064405128E+03  0.50400000000E-02 0.  1.
   -5000001    1    1    2    0    0 -0.12920722087E+03  0.52505663946E+02 -0.25934556440E+03  0.38627900855E+03  0.25000000000E+03 0.  0.
    5000001    1    1    2    0    0  0.12920722087E+03 -0.52505663946E+02 -0.46748801505E+03  0.54817551467E+03  0.25000000000E+03 0.  0.
<mgrwt>
<rscale>  0 0.58729737E+03</rscale>
<asrwt>0</asrwt>
<pdfrwt beam="1">  1        1 0.12779139E+00 0.58729737E+03</pdfrwt>
<pdfrwt beam="2">  1       -1 0.15970842E-01 0.58729737E+03</pdfrwt>
<totfact> 0.62471983E+02</totfact>
</mgrwt>
</event>
<event>
 4    1  0.4047984E-006  0.2092105E+04  0.7818608E-02  0.8564729E-01
         -1   -1    0    0    0  501 -0.00000000000E+00  0.00000000000E+00  0.49610635375E+03  0.49610635377E+03  0.50400000000E-02 0.  1.
          1   -1    0    0  501    0  0.00000000000E+00 -0.00000000000E+00 -0.22056267684E+04  0.22056267684E+04  0.50400000000E-02 0. -1.
   -5000001    1    1    2    0    0 -0.73536760602E+03  0.68848319234E+03 -0.10228938224E+04  0.14572530302E+04  0.25000000000E+03 0.  0.
    5000001    1    1    2    0    0  0.73536760602E+03 -0.68848319234E+03 -0.68662659219E+03  0.12444800919E+04  0.25000000000E+03 0.  0.
<mgrwt>
<rscale>  0 0.20921046E+04</rscale>
<asrwt>0</asrwt>
<pdfrwt beam="1">  1        1 0.33932719E+00 0.20921046E+04</pdfrwt>
<pdfrwt beam="2">  1       -1 0.76324055E-01 0.20921046E+04</pdfrwt>
<totfact> 0.34247050E+00</totfact>
</mgrwt>
</event>
<event>
 4    1  0.4047984E-006  0.6221368E+03  0.7818608E-02  0.9860515E-01
          1   -1    0    0  501    0  0.00000000000E+00  0.00000000000E+00  0.36513792826E+03  0.36513792830E+03  0.50400000000E-02 0.  1.
         -1   -1    0    0    0  501 -0.00000000000E+00 -0.00000000000E+00 -0.26500546635E+03  0.26500546640E+03  0.50400000000E-02 0. -1.
   -5000001    1    1    2    0    0 -0.15926460300E+03 -0.83594320311E+02  0.94335962241E+02  0.32210634568E+03  0.25000000000E+03 0.  0.
    5000001    1    1    2    0    0  0.15926460300E+03  0.83594320311E+02  0.57964996691E+01  0.30803704902E+03  0.25000000000E+03 0.  0.
<mgrwt>
<rscale>  0 0.62213679E+03</rscale>
<asrwt>0</asrwt>
<pdfrwt beam="1">  1        1 0.56175066E-01 0.62213679E+03</pdfrwt>
<pdfrwt beam="2">  1       -1 0.40770072E-01 0.62213679E+03</pdfrwt>
<totfact> 0.40327172E+02</totfact>
</mgrwt>
</event>
<event>
 4    1  0.4047984E-006  0.5722215E+03  0.7818608E-02  0.9964775E-01
          1   -1    0    0  501    0  0.00000000000E+00  0.00000000000E+00  0.71713157955E+03  0.71713157957E+03  0.50400000000E-02 0.  1.
         -1   -1    0    0    0  501 -0.00000000000E+00 -0.00000000000E+00 -0.11414831922E+03  0.11414831933E+03  0.50400000000E-02 0. -1.
   -5000001    1    1    2    0    0  0.11747190577E+03 -0.53320736770E+02  0.37720928222E+03  0.47056305869E+03  0.25000000000E+03 0.  0.
    5000001    1    1    2    0    0 -0.11747190577E+03  0.53320736770E+02  0.22577397811E+03  0.36071684020E+03  0.25000000000E+03 0.  0.
<mgrwt>
<rscale>  0 0.57222151E+03</rscale>
<asrwt>0</asrwt>
<pdfrwt beam="1">  1        1 0.11032793E+00 0.57222151E+03</pdfrwt>
<pdfrwt beam="2">  1       -1 0.17561280E-01 0.57222151E+03</pdfrwt>
<totfact> 0.67319753E+02</totfact>
</mgrwt>
</event>
<event>
 4    1  0.4047984E-006  0.7405204E+03  0.7818608E-02  0.9650341E-01
          1   -1    0    0  501    0  0.00000000000E+00  0.00000000000E+00  0.13466286454E+04  0.13466286454E+04  0.50400000000E-02 0.  1.
         -1   -1    0    0    0  501 -0.00000000000E+00 -0.00000000000E+00 -0.10180432203E+03  0.10180432215E+03  0.50400000000E-02 0. -1.
   -5000001    1    1    2    0    0 -0.24434011245E+03 -0.30429942757E+02  0.85355197525E+03  0.92286458726E+03  0.25000000000E+03 0.  0.
    5000001    1    1    2    0    0  0.24434011245E+03  0.30429942757E+02  0.39127234815E+03  0.52556838032E+03  0.25000000000E+03 0.  0.
<mgrwt>
<rscale>  0 0.74052040E+03</rscale>
<asrwt>0</asrwt>
<pdfrwt beam="1">  1        1 0.20717364E+00 0.74052040E+03</pdfrwt>
<pdfrwt beam="2">  1       -1 0.15662203E-01 0.74052040E+03</pdfrwt>
<totfact> 0.26100435E+02</totfact>
</mgrwt>
</event>
<event>
 4    1  0.4047984E-006  0.9439973E+03  0.7818608E-02  0.9372194E-01
          1   -1    0    0  501    0  0.00000000000E+00  0.00000000000E+00  0.12975873953E+04  0.12975873953E+04  0.50400000000E-02 0.  1.
         -1   -1    0    0    0  501 -0.00000000000E+00 -0.00000000000E+00 -0.17168997319E+03  0.17168997326E+03  0.50400000000E-02 0. -1.
   -5000001    1    1    2    0    0 -0.32150812385E+03 -0.15300256806E+03  0.84784774497E+03  0.95295490879E+03  0.25000000000E+03 0.  0.
    5000001    1    1    2    0    0  0.32150812385E+03  0.15300256806E+03  0.27804967717E+03  0.51632245981E+03  0.25000000000E+03 0.  0.
<mgrwt>
<rscale>  0 0.94399734E+03</rscale>
<asrwt>0</asrwt>
<pdfrwt beam="1">  1        1 0.19962883E+00 0.94399734E+03</pdfrwt>
<pdfrwt beam="2">  1       -1 0.26413843E-01 0.94399734E+03</pdfrwt>
<totfact> 0.11625689E+02</totfact>
</mgrwt>
</event>
<event>
 4    1  0.4047984E-006  0.8089520E+03  0.7818608E-02  0.9547149E-01
         -1   -1    0    0    0  501 -0.00000000000E+00  0.00000000000E+00  0.12403954647E+03  0.12403954657E+03  0.50400000000E-02 0. -1.
          1   -1    0    0  501    0  0.00000000000E+00 -0.00000000000E+00 -0.13189410049E+04  0.13189410049E+04  0.50400000000E-02 0.  1.
   -5000001    1    1    2    0    0 -0.26716473905E+03  0.14547854073E+03 -0.43241782245E+03  0.58483004094E+03  0.25000000000E+03 0.  0.
    5000001    1    1    2    0    0  0.26716473905E+03 -0.14547854073E+03 -0.76248363594E+03  0.85815051051E+03  0.25000000000E+03 0.  0.
<mgrwt>
<rscale>  0 0.80895202E+03</rscale>
<asrwt>0</asrwt>
<pdfrwt beam="1">  1        1 0.20291399E+00 0.80895202E+03</pdfrwt>
<pdfrwt beam="2">  1       -1 0.19083008E-01 0.80895202E+03</pdfrwt>
<totfact> 0.19630559E+02</totfact>
</mgrwt>
</event>
<event>
 4    1  0.4047984E-006  0.6052812E+03  0.7818608E-02  0.9894510E-01
         -1   -1    0    0    0  501 -0.00000000000E+00  0.00000000000E+00  0.52668022805E+02  0.52668023046E+02  0.50400000000E-02 0.  1.
          1   -1    0    0  501    0  0.00000000000E+00 -0.00000000000E+00 -0.17390308880E+04  0.17390308880E+04  0.50400000000E-02 0. -1.
   -5000001    1    1    2    0    0  0.15200335352E+03  0.75325159815E+02 -0.79086032259E+03  0.84660436393E+03  0.25000000000E+03 0.  0.
    5000001    1    1    2    0    0 -0.15200335352E+03 -0.75325159815E+02 -0.89550254259E+03  0.94509454711E+03  0.25000000000E+03 0.  0.
<mgrwt>
<rscale>  0 0.60528115E+03</rscale>
<asrwt>0</asrwt>
<pdfrwt beam="1">  1        1 0.26754317E+00 0.60528115E+03</pdfrwt>
<pdfrwt beam="2">  1       -1 0.81027741E-02 0.60528115E+03</pdfrwt>
<totfact> 0.40703290E+02</totfact>
</mgrwt>
</event>
<event>
 4    1  0.4047984E-006  0.5539288E+03  0.7818608E-02  0.1000589E+00
         -1   -1    0    0    0  501 -0.00000000000E+00  0.00000000000E+00  0.14977777118E+03  0.14977777127E+03  0.50400000000E-02 0. -1.
          1   -1    0    0  501    0  0.00000000000E+00 -0.00000000000E+00 -0.51215391095E+03  0.51215391097E+03  0.50400000000E-02 0.  1.
   -5000001    1    1    2    0    0 -0.45669865747E+02  0.10744602763E+03 -0.20993925182E+03  0.34670574692E+03  0.25000000000E+03 0.  0.
    5000001    1    1    2    0    0  0.45669865747E+02 -0.10744602763E+03 -0.15243688795E+03  0.31522593532E+03  0.25000000000E+03 0.  0.
<mgrwt>
<rscale>  0 0.55392877E+03</rscale>
<asrwt>0</asrwt>
<pdfrwt beam="1">  1        1 0.78792909E-01 0.55392877E+03</pdfrwt>
<pdfrwt beam="2">  1       -1 0.23042734E-01 0.55392877E+03</pdfrwt>
<totfact> 0.69562524E+02</totfact>
</mgrwt>
</event>
<event>
 4    1  0.4047984E-006  0.6984795E+03  0.7818608E-02  0.9719836E-01
         -1   -1    0    0    0  501 -0.00000000000E+00  0.00000000000E+00  0.17592305782E+03  0.17592305789E+03  0.50400000000E-02 0. -1.
          1   -1    0    0  501    0  0.00000000000E+00 -0.00000000000E+00 -0.69330545423E+03  0.69330545425E+03  0.50400000000E-02 0.  1.
   -5000001    1    1    2    0    0 -0.11654727794E+03 -0.20677331468E+03 -0.18906886829E+03  0.39317363672E+03  0.25000000000E+03 0.  0.
    5000001    1    1    2    0    0  0.11654727794E+03  0.20677331468E+03 -0.32831352812E+03  0.47605487541E+03  0.25000000000E+03 0.  0.
<mgrwt>
<rscale>  0 0.69847954E+03</rscale>
<asrwt>0</asrwt>
<pdfrwt beam="1">  1        1 0.10666238E+00 0.69847954E+03</pdfrwt>
<pdfrwt beam="2">  1       -1 0.27065086E-01 0.69847954E+03</pdfrwt>
<totfact> 0.34141008E+02</totfact>
</mgrwt>
</event>
<event>
 4    1  0.4047984E-006  0.7666700E+03  0.7818608E-02  0.9609555E-01
         -1   -1    0    0    0  501 -0.00000000000E+00  0.00000000000E+00  0.11371087206E+04  0.11371087206E+04  0.50400000000E-02 0.  1.
          1   -1    0    0  501    0  0.00000000000E+00 -0.00000000000E+00 -0.12922749074E+03  0.12922749084E+03  0.50400000000E-02 0. -1.
   -5000001    1    1    2    0    0 -0.14106973468E+03 -0.23558556612E+03  0.66102475036E+03  0.75819189497E+03  0.25000000000E+03 0.  0.
    5000001    1    1    2    0    0  0.14106973468E+03  0.23558556612E+03  0.34685647951E+03  0.50814431649E+03  0.25000000000E+03 0.  0.
<mgrwt>
<rscale>  0 0.76666996E+03</rscale>
<asrwt>0</asrwt>
<pdfrwt beam="1">  1        1 0.19881152E-01 0.76666996E+03</pdfrwt>
<pdfrwt beam="2">  1       -1 0.17493980E+00 0.76666996E+03</pdfrwt>
<totfact> 0.60978481E+01</totfact>
</mgrwt>
</event>
<event>
 4    1  0.4047984E-006  0.8070275E+03  0.7818608E-02  0.9549900E-01
          1   -1    0    0  501    0  0.00000000000E+00  0.00000000000E+00  0.13590913162E+04  0.13590913162E+04  0.50400000000E-02 0. -1.
         -1   -1    0    0    0  501 -0.00000000000E+00 -0.00000000000E+00 -0.11980308699E+03  0.11980308709E+03  0.50400000000E-02 0.  1.
   -5000001    1    1    2    0    0  0.24651949517E+02  0.26812438690E+03  0.92532331257E+03  0.99560114416E+03  0.25000000000E+03 0.  0.
    5000001    1    1    2    0    0 -0.24651949517E+02 -0.26812438690E+03  0.31396491668E+03  0.48329325918E+03  0.25000000000E+03 0.  0.
<mgrwt>
<rscale>  0 0.80702747E+03</rscale>
<asrwt>0</asrwt>
<pdfrwt beam="1">  1        1 0.20909097E+00 0.80702747E+03</pdfrwt>
<pdfrwt beam="2">  1       -1 0.18431245E-01 0.80702747E+03</pdfrwt>
<totfact> 0.19489203E+02</totfact>
</mgrwt>
</event>
<event>
 4    1  0.4047984E-006  0.7292149E+03  0.7818608E-02  0.9668535E-01
          1   -1    0    0  501    0  0.00000000000E+00  0.00000000000E+00  0.96300362572E+03  0.96300362573E+03  0.50400000000E-02 0.  1.
         -1   -1    0    0    0  501 -0.00000000000E+00 -0.00000000000E+00 -0.13804579458E+03  0.13804579467E+03  0.50400000000E-02 0. -1.
   -5000001    1    1    2    0    0  0.25248481165E+03 -0.48147650551E+02  0.31264396225E+03  0.47572368398E+03  0.25000000000E+03 0.  0.
    5000001    1    1    2    0    0 -0.25248481165E+03  0.48147650551E+02  0.51231386889E+03  0.62532573642E+03  0.25000000000E+03 0.  0.
<mgrwt>
<rscale>  0 0.72921492E+03</rscale>
<asrwt>0</asrwt>
<pdfrwt beam="1">  1        1 0.14815441E+00 0.72921492E+03</pdfrwt>
<pdfrwt beam="2">  1       -1 0.21237814E-01 0.72921492E+03</pdfrwt>
<totfact> 0.30265222E+02</totfact>
</mgrwt>
</event>
<event>
 4    1  0.4047984E-006  0.6904512E+03  0.7818608E-02  0.9733703E-01
         -1   -1    0    0    0  501 -0.00000000000E+00  0.00000000000E+00  0.71402649787E+03  0.71402649789E+03  0.50400000000E-02 0. -1.
          1   -1    0    0  501    0  0.00000000000E+00 -0.00000000000E+00 -0.16691355590E+03  0.16691355597E+03  0.50400000000E-02 0.  1.
   -5000001    1    1    2    0    0  0.16708065627E+03 -0.16855776203E+03  0.24958341040E+03  0.42558141828E+03  0.25000000000E+03 0.  0.
    5000001    1    1    2    0    0 -0.16708065627E+03  0.16855776203E+03  0.29752953157E+03  0.45535863558E+03  0.25000000000E+03 0.  0.
<mgrwt>
<rscale>  0 0.69045116E+03</rscale>
<asrwt>0</asrwt>
<pdfrwt beam="1">  1        1 0.25679009E-01 0.69045116E+03</pdfrwt>
<pdfrwt beam="2">  1       -1 0.10985023E+00 0.69045116E+03</pdfrwt>
<totfact> 0.14674997E+02</totfact>
</mgrwt>
</event>
<event>
 4    1  0.4047984E-006  0.8228124E+03  0.7818608E-02  0.9527572E-01
         -1   -1    0    0    0  501 -0.00000000000E+00  0.00000000000E+00  0.66582947840E+03  0.66582947842E+03  0.50400000000E-02 0. -1.
          1   -1    0    0  501    0  0.00000000000E+00 -0.00000000000E+00 -0.25420181392E+03  0.25420181397E+03  0.50400000000E-02 0.  1.
   -5000001    1    1    2    0    0  0.23805183020E+03  0.22209413742E+03  0.17497665332E+03  0.44621890250E+03  0.25000000000E+03 0.  0.
    5000001    1    1    2    0    0 -0.23805183020E+03 -0.22209413742E+03  0.23665101116E+03  0.47381238990E+03  0.25000000000E+03 0.  0.
<mgrwt>
<rscale>  0 0.82281240E+03</rscale>
<asrwt>0</asrwt>
<pdfrwt beam="1">  1        1 0.39107971E-01 0.82281240E+03</pdfrwt>
<pdfrwt beam="2">  1       -1 0.10243530E+00 0.82281240E+03</pdfrwt>
<totfact> 0.99287280E+01</totfact>
</mgrwt>
</event>
<event>
 4    1  0.4047984E-006  0.8104106E+03  0.7818608E-02  0.9545069E-01
          1   -1    0    0  501    0  0.00000000000E+00  0.00000000000E+00  0.33756912988E+03  0.33756912992E+03  0.50400000000E-02 0. -1.
         -1   -1    0    0    0  501 -0.00000000000E+00 -0.00000000000E+00 -0.48639327557E+03  0.48639327559E+03  0.50400000000E-02 0.  1.
   -5000001    1    1    2    0    0 -0.17227767720E+03  0.21937965820E+02  0.19751211179E+03  0.36286623804E+03  0.25000000000E+03 0.  0.
    5000001    1    1    2    0    0  0.17227767720E+03 -0.21937965820E+02 -0.34633625748E+03  0.46109616747E+03  0.25000000000E+03 0.  0.
<mgrwt>
<rscale>  0 0.81041065E+03</rscale>
<asrwt>0</asrwt>
<pdfrwt beam="1">  1        1 0.51933713E-01 0.81041065E+03</pdfrwt>
<pdfrwt beam="2">  1       -1 0.74829734E-01 0.81041065E+03</pdfrwt>
<totfact> 0.13657188E+02</totfact>
</mgrwt>
</event>
<event>
 4    1  0.4047984E-006  0.5926637E+03  0.7818608E-02  0.9920745E-01
          1   -1    0    0  501    0  0.00000000000E+00  0.00000000000E+00  0.88488462267E+03  0.88488462268E+03  0.50400000000E-02 0.  1.
         -1   -1    0    0    0  501 -0.00000000000E+00 -0.00000000000E+00 -0.99236164067E+02  0.99236164195E+02  0.50400000000E-02 0. -1.
   -5000001    1    1    2    0    0 -0.84281455739E+02 -0.11542831701E+03  0.27676106400E+03  0.39940423970E+03  0.25000000000E+03 0.  0.
    5000001    1    1    2    0    0  0.84281455739E+02  0.11542831701E+03  0.50888739460E+03  0.58471654717E+03  0.25000000000E+03 0.  0.
<mgrwt>
<rscale>  0 0.59266367E+03</rscale>
<asrwt>0</asrwt>
<pdfrwt beam="1">  1        1 0.13613609E+00 0.59266367E+03</pdfrwt>
<pdfrwt beam="2">  1       -1 0.15267102E-01 0.59266367E+03</pdfrwt>
<totfact> 0.60598826E+02</totfact>
</mgrwt>
</event>
<event>
 4    1  0.4047984E-006  0.9383741E+03  0.7818608E-02  0.9378844E-01
         -1   -1    0    0    0  501 -0.00000000000E+00  0.00000000000E+00  0.10324291823E+03  0.10324291835E+03  0.50400000000E-02 0.  1.
          1   -1    0    0  501    0  0.00000000000E+00 -0.00000000000E+00 -0.21322187974E+04  0.21322187974E+04  0.50400000000E-02 0. -1.
   -5000001    1    1    2    0    0  0.45056201385E+02 -0.19559779694E+03 -0.18305608105E+04  0.18584244511E+04  0.25000000000E+03 0.  0.
    5000001    1    1    2    0    0 -0.45056201385E+02  0.19559779694E+03 -0.19841506862E+03  0.37703726461E+03  0.25000000000E+03 0.  0.
<mgrwt>
<rscale>  0 0.93837411E+03</rscale>
<asrwt>0</asrwt>
<pdfrwt beam="1">  1        1 0.32803363E+00 0.93837411E+03</pdfrwt>
<pdfrwt beam="2">  1       -1 0.15883528E-01 0.93837411E+03</pdfrwt>
<totfact> 0.73683400E+01</totfact>
</mgrwt>
</event>
<event>
 4    1  0.4047984E-006  0.8556415E+03  0.7818608E-02  0.9482796E-01
         -1   -1    0    0    0  501 -0.00000000000E+00  0.00000000000E+00  0.77495054073E+03  0.77495054075E+03  0.50400000000E-02 0. -1.
          1   -1    0    0  501    0  0.00000000000E+00 -0.00000000000E+00 -0.23618360837E+03  0.23618360842E+03  0.50400000000E-02 0.  1.
   -5000001    1    1    2    0    0 -0.66227633434E+02  0.33712654519E+03  0.21041297597E+03  0.47414557613E+03  0.25000000000E+03 0.  0.
    5000001    1    1    2    0    0  0.66227633434E+02 -0.33712654519E+03  0.32835395639E+03  0.53698857305E+03  0.25000000000E+03 0.  0.
<mgrwt>
<rscale>  0 0.85564155E+03</rscale>
<asrwt>0</asrwt>
<pdfrwt beam="1">  1        1 0.36335940E-01 0.85564155E+03</pdfrwt>
<pdfrwt beam="2">  1       -1 0.11922316E+00 0.85564155E+03</pdfrwt>
<totfact> 0.76128858E+01</totfact>
</mgrwt>
</event>
<event>
 4    1  0.4047984E-006  0.7531721E+03  0.7818608E-02  0.9630387E-01
         -1   -1    0    0    0  501 -0.00000000000E+00  0.00000000000E+00  0.56617912906E+03  0.56617912908E+03  0.50400000000E-02 0. -1.
          1   -1    0    0  501    0  0.00000000000E+00 -0.00000000000E+00 -0.25048091759E+03  0.25048091764E+03  0.50400000000E-02 0.  1.
   -5000001    1    1    2    0    0 -0.19146856161E+03 -0.11190052934E+03  0.34607683018E+03  0.48109366130E+03  0.25000000000E+03 0.  0.
    5000001    1    1    2    0    0  0.19146856161E+03  0.11190052934E+03 -0.30378618712E+02  0.33556638543E+03  0.25000000000E+03 0.  0.
<mgrwt>
<rscale>  0 0.75317214E+03</rscale>
<asrwt>0</asrwt>
<pdfrwt beam="1">  1        1 0.38535526E-01 0.75317214E+03</pdfrwt>
<pdfrwt beam="2">  1       -1 0.87104481E-01 0.75317214E+03</pdfrwt>
<totfact> 0.14600515E+02</totfact>
</mgrwt>
</event>
<event>
 4    1  0.4047984E-006  0.6536444E+03  0.7818608E-02  0.9799965E-01
         -1   -1    0    0    0  501 -0.00000000000E+00  0.00000000000E+00  0.92602654567E+02  0.92602654704E+02  0.50400000000E-02 0. -1.
          1   -1    0    0  501    0  0.00000000000E+00 -0.00000000000E+00 -0.11534521986E+04  0.11534521986E+04  0.50400000000E-02 0.  1.
   -5000001    1    1    2    0    0  0.17715285678E+03  0.81807060894E+02 -0.37987133284E+03  0.49485124976E+03  0.25000000000E+03 0.  0.
    5000001    1    1    2    0    0 -0.17715285678E+03 -0.81807060894E+02 -0.68097821123E+03  0.75120360359E+03  0.25000000000E+03 0.  0.
<mgrwt>
<rscale>  0 0.65364435E+03</rscale>
<asrwt>0</asrwt>
<pdfrwt beam="1">  1        1 0.17745417E+00 0.65364435E+03</pdfrwt>
<pdfrwt beam="2">  1       -1 0.14246563E-01 0.65364435E+03</pdfrwt>
<totfact> 0.42044526E+02</totfact>
</mgrwt>
</event>
<event>
 4    1  0.4047984E-006  0.5540752E+03  0.7818608E-02  0.1000555E+00
         -1   -1    0    0    0  501 -0.00000000000E+00  0.00000000000E+00  0.25179528334E+03  0.25179528339E+03  0.50400000000E-02 0.  1.
          1   -1    0    0  501    0  0.00000000000E+00 -0.00000000000E+00 -0.30481047467E+03  0.30481047472E+03  0.50400000000E-02 0. -1.
   -5000001    1    1    2    0    0 -0.22891259426E+01 -0.62386104356E+02  0.75704696234E+02  0.26856743501E+03  0.25000000000E+03 0.  0.
    5000001    1    1    2    0    0  0.22891259426E+01  0.62386104356E+02 -0.12871988757E+03  0.28803832309E+03  0.25000000000E+03 0.  0.
<mgrwt>
<rscale>  0 0.55407523E+03</rscale>
<asrwt>0</asrwt>
<pdfrwt beam="1">  1        1 0.46893919E-01 0.55407523E+03</pdfrwt>
<pdfrwt beam="2">  1       -1 0.38737736E-01 0.55407523E+03</pdfrwt>
<totfact> 0.56017125E+02</totfact>
</mgrwt>
</event>
<event>
 4    1  0.4047984E-006  0.7002587E+03  0.7818608E-02  0.9716790E-01
          1   -1    0    0  501    0  0.00000000000E+00  0.00000000000E+00  0.76949149718E+03  0.76949149719E+03  0.50400000000E-02 0.  1.
         -1   -1    0    0    0  501 -0.00000000000E+00 -0.00000000000E+00 -0.15931374457E+03  0.15931374465E+03  0.50400000000E-02 0. -1.
   -5000001    1    1    2    0    0  0.11659185608E+03 -0.21302454083E+03  0.26075034146E+03  0.43527446109E+03  0.25000000000E+03 0.  0.
    5000001    1    1    2    0    0 -0.11659185608E+03  0.21302454083E+03  0.34942741114E+03  0.49353078076E+03  0.25000000000E+03 0.  0.
<mgrwt>
<rscale>  0 0.70025873E+03</rscale>
<asrwt>0</asrwt>
<pdfrwt beam="1">  1        1 0.11838331E+00 0.70025873E+03</pdfrwt>
<pdfrwt beam="2">  1       -1 0.24509807E-01 0.70025873E+03</pdfrwt>
<totfact> 0.34466916E+02</totfact>
</mgrwt>
</event>
<event>
 4    1  0.4047984E-006  0.8413434E+03  0.7818608E-02  0.9502030E-01
         -1   -1    0    0    0  501 -0.00000000000E+00  0.00000000000E+00  0.46419342816E+03  0.46419342819E+03  0.50400000000E-02 0. -1.
          1   -1    0    0  501    0  0.00000000000E+00 -0.00000000000E+00 -0.38123049939E+03  0.38123049942E+03  0.50400000000E-02 0.  1.
   -5000001    1    1    2    0    0 -0.85536034278E+02  0.17063401836E+03 -0.23921598190E+03  0.39516663242E+03  0.25000000000E+03 0.  0.
    5000001    1    1    2    0    0  0.85536034278E+02 -0.17063401836E+03  0.32217891068E+03  0.45025729518E+03  0.25000000000E+03 0.  0.
<mgrwt>
<rscale>  0 0.84134343E+03</rscale>
<asrwt>0</asrwt>
<pdfrwt beam="1">  1        1 0.58650846E-01 0.84134343E+03</pdfrwt>
<pdfrwt beam="2">  1       -1 0.71414374E-01 0.84134343E+03</pdfrwt>
<totfact> 0.12801883E+02</totfact>
</mgrwt>
</event>
<event>
 4    1  0.4047984E-006  0.6313374E+03  0.7818608E-02  0.9842442E-01
          1   -1    0    0  501    0  0.00000000000E+00  0.00000000000E+00  0.43413410221E+03  0.43413410224E+03  0.50400000000E-02 0.  1.
         -1   -1    0    0    0  501 -0.00000000000E+00 -0.00000000000E+00 -0.22952980899E+03  0.22952980905E+03  0.50400000000E-02 0. -1.
   -5000001    1    1    2    0    0  0.12091568528E+03  0.12308044268E+03  0.12012906646E+02  0.30399623064E+03  0.25000000000E+03 0.  0.
    5000001    1    1    2    0    0 -0.12091568528E+03 -0.12308044268E+03  0.19259138657E+03  0.35966768064E+03  0.25000000000E+03 0.  0.
<mgrwt>
<rscale>  0 0.63133737E+03</rscale>
<asrwt>0</asrwt>
<pdfrwt beam="1">  1        1 0.66789860E-01 0.63133737E+03</pdfrwt>
<pdfrwt beam="2">  1       -1 0.35312279E-01 0.63133737E+03</pdfrwt>
<totfact> 0.41537934E+02</totfact>
</mgrwt>
</event>
<event>
 4    1  0.4047984E-006  0.1729596E+04  0.7818608E-02  0.8744662E-01
         -1   -1    0    0    0  501 -0.00000000000E+00  0.00000000000E+00  0.30194055275E+03  0.30194055279E+03  0.50400000000E-02 0. -1.
          1   -1    0    0  501    0  0.00000000000E+00 -0.00000000000E+00 -0.24768978933E+04  0.24768978933E+04  0.50400000000E-02 0.  1.
   -5000001    1    1    2    0    0 -0.27679852392E+03 -0.28589206822E+03  0.78884549567E+02  0.47652331493E+03  0.25000000000E+03 0.  0.
    5000001    1    1    2    0    0  0.27679852392E+03  0.28589206822E+03 -0.22538418901E+04  0.23023151311E+04  0.25000000000E+03 0.  0.
<mgrwt>
<rscale>  0 0.17295964E+04</rscale>
<asrwt>0</asrwt>
<pdfrwt beam="1">  1        1 0.38106120E+00 0.17295964E+04</pdfrwt>
<pdfrwt beam="2">  1       -1 0.46452394E-01 0.17295964E+04</pdfrwt>
<totfact> 0.61649623E+00</totfact>
</mgrwt>
</event>
<event>
 4    1  0.4047984E-006  0.1088722E+04  0.7818608E-02  0.9216254E-01
          1   -1    0    0  501    0  0.00000000000E+00  0.00000000000E+00  0.12920681774E+04  0.12920681774E+04  0.50400000000E-02 0.  1.
         -1   -1    0    0    0  501 -0.00000000000E+00 -0.00000000000E+00 -0.22934470502E+03  0.22934470507E+03  0.50400000000E-02 0. -1.
   -5000001    1    1    2    0    0 -0.30795269773E+03  0.35221615678E+03  0.36056682073E+03  0.64140433219E+03  0.25000000000E+03 0.  0.
    5000001    1    1    2    0    0  0.30795269773E+03 -0.35221615678E+03  0.70215665167E+03  0.88000855031E+03  0.25000000000E+03 0.  0.
<mgrwt>
<rscale>  0 0.10887222E+04</rscale>
<asrwt>0</asrwt>
<pdfrwt beam="1">  1        1 0.19877972E+00 0.10887222E+04</pdfrwt>
<pdfrwt beam="2">  1       -1 0.35283801E-01 0.10887222E+04</pdfrwt>
<totfact> 0.69846393E+01</totfact>
</mgrwt>
</event>
<event>
 4    1  0.4047984E-006  0.1084537E+04  0.7818608E-02  0.9220395E-01
          1   -1    0    0  501    0  0.00000000000E+00  0.00000000000E+00  0.68008424612E+03  0.68008424614E+03  0.50400000000E-02 0.  1.
         -1   -1    0    0    0  501 -0.00000000000E+00 -0.00000000000E+00 -0.43238075721E+03  0.43238075724E+03  0.50400000000E-02 0. -1.
   -5000001    1    1    2    0    0  0.35755982070E+03 -0.31483008111E+03  0.19333328376E+03  0.57170338810E+03  0.25000000000E+03 0.  0.
    5000001    1    1    2    0    0 -0.35755982070E+03  0.31483008111E+03  0.54370205145E+02  0.54076161528E+03  0.25000000000E+03 0.  0.
<mgrwt>
<rscale>  0 0.10845374E+04</rscale>
<asrwt>0</asrwt>
<pdfrwt beam="1">  1        1 0.10462835E+00 0.10845374E+04</pdfrwt>
<pdfrwt beam="2">  1       -1 0.66520116E-01 0.10845374E+04</pdfrwt>
<totfact> 0.65032432E+01</totfact>
</mgrwt>
</event>
<event>
 4    1  0.4047984E-006  0.7466992E+03  0.7818608E-02  0.9640543E-01
         -1   -1    0    0    0  501 -0.00000000000E+00  0.00000000000E+00  0.22212454632E+03  0.22212454638E+03  0.50400000000E-02 0.  1.
          1   -1    0    0  501    0  0.00000000000E+00 -0.00000000000E+00 -0.62753053347E+03  0.62753053349E+03  0.50400000000E-02 0. -1.
   -5000001    1    1    2    0    0 -0.25332352597E+03  0.92788145304E+02 -0.12977655249E+03  0.39003128374E+03  0.25000000000E+03 0.  0.
    5000001    1    1    2    0    0  0.25332352597E+03 -0.92788145304E+02 -0.27562943466E+03  0.45962379613E+03  0.25000000000E+03 0.  0.
<mgrwt>
<rscale>  0 0.74669923E+03</rscale>
<asrwt>0</asrwt>
<pdfrwt beam="1">  1        1 0.96543159E-01 0.74669923E+03</pdfrwt>
<pdfrwt beam="2">  1       -1 0.34173007E-01 0.74669923E+03</pdfrwt>
<totfact> 0.26276899E+02</totfact>
</mgrwt>
</event>
<event>
 4    1  0.4047984E-006  0.6930543E+03  0.7818608E-02  0.9729184E-01
          1   -1    0    0  501    0  0.00000000000E+00  0.00000000000E+00  0.35245347694E+03  0.35245347697E+03  0.50400000000E-02 0.  1.
         -1   -1    0    0    0  501 -0.00000000000E+00 -0.00000000000E+00 -0.34070050009E+03  0.34070050013E+03  0.50400000000E-02 0. -1.
   -5000001    1    1    2    0    0  0.13334480514E+03  0.10772372302E+03  0.17381679605E+03  0.34942455000E+03  0.25000000000E+03 0.  0.
    5000001    1    1    2    0    0 -0.13334480514E+03 -0.10772372302E+03 -0.16206381920E+03  0.34372942710E+03  0.25000000000E+03 0.  0.
<mgrwt>
<rscale>  0 0.69305433E+03</rscale>
<asrwt>0</asrwt>
<pdfrwt beam="1">  1        1 0.54223612E-01 0.69305433E+03</pdfrwt>
<pdfrwt beam="2">  1       -1 0.52415462E-01 0.69305433E+03</pdfrwt>
<totfact> 0.26383368E+02</totfact>
</mgrwt>
</event>
<event>
 4    1  0.4047984E-006  0.8589169E+03  0.7818608E-02  0.9478446E-01
         -1   -1    0    0    0  501 -0.00000000000E+00  0.00000000000E+00  0.65588700587E+02  0.65588700781E+02  0.50400000000E-02 0. -1.
          1   -1    0    0  501    0  0.00000000000E+00 -0.00000000000E+00 -0.28119870995E+04  0.28119870995E+04  0.50400000000E-02 0.  1.
   -5000001    1    1    2    0    0 -0.36183826220E+02 -0.27416491752E+03 -0.65889187228E+03  0.75704304411E+03  0.25000000000E+03 0.  0.
    5000001    1    1    2    0    0  0.36183826220E+02  0.27416491752E+03 -0.20875065266E+04  0.21205327562E+04  0.25000000000E+03 0.  0.
<mgrwt>
<rscale>  0 0.85891695E+03</rscale>
<asrwt>0</asrwt>
<pdfrwt beam="1">  1        1 0.43261331E+00 0.85891695E+03</pdfrwt>
<pdfrwt beam="2">  1       -1 0.10090572E-01 0.85891695E+03</pdfrwt>
<totfact> 0.52781580E+01</totfact>
</mgrwt>
</event>
<event>
 4    1  0.4047984E-006  0.7772953E+03  0.7818608E-02  0.9593475E-01
         -1   -1    0    0    0  501 -0.00000000000E+00  0.00000000000E+00  0.11080182294E+03  0.11080182305E+03  0.50400000000E-02 0.  1.
          1   -1    0    0  501    0  0.00000000000E+00 -0.00000000000E+00 -0.13632174609E+04  0.13632174610E+04  0.50400000000E-02 0. -1.
   -5000001    1    1    2    0    0 -0.11824911356E+03  0.80116600191E+02 -0.13117316515E+03  0.31639835925E+03  0.25000000000E+03 0.  0.
    5000001    1    1    2    0    0  0.11824911356E+03 -0.80116600191E+02 -0.11212424729E+04  0.11576209248E+04  0.25000000000E+03 0.  0.
<mgrwt>
<rscale>  0 0.77729526E+03</rscale>
<asrwt>0</asrwt>
<pdfrwt beam="1">  1        1 0.20972575E+00 0.77729526E+03</pdfrwt>
<pdfrwt beam="2">  1       -1 0.17046435E-01 0.77729526E+03</pdfrwt>
<totfact> 0.22067030E+02</totfact>
</mgrwt>
</event>
<event>
 4    1  0.4047984E-006  0.8062480E+03  0.7818608E-02  0.9551017E-01
         -1   -1    0    0    0  501 -0.00000000000E+00  0.00000000000E+00  0.93720486153E+02  0.93720486288E+02  0.50400000000E-02 0. -1.
          1   -1    0    0  501    0  0.00000000000E+00 -0.00000000000E+00 -0.17339749573E+04  0.17339749573E+04  0.50400000000E-02 0.  1.
   -5000001    1    1    2    0    0  0.12880160623E+03  0.20507491783E+03 -0.35908228115E+03  0.50008565299E+03  0.25000000000E+03 0.  0.
    5000001    1    1    2    0    0 -0.12880160623E+03 -0.20507491783E+03 -0.12811721900E+04  0.13276097906E+04  0.25000000000E+03 0.  0.
<mgrwt>
<rscale>  0 0.80624804E+03</rscale>
<asrwt>0</asrwt>
<pdfrwt beam="1">  1        1 0.26676536E+00 0.80624804E+03</pdfrwt>
<pdfrwt beam="2">  1       -1 0.14418538E-01 0.80624804E+03</pdfrwt>
<totfact> 0.16152456E+02</totfact>
</mgrwt>
</event>
<event>
 4    1  0.4047984E-006  0.7188490E+03  0.7818608E-02  0.9685530E-01
         -1   -1    0    0    0  501 -0.00000000000E+00  0.00000000000E+00  0.92589685680E+02  0.92589685817E+02  0.50400000000E-02 0.  1.
          1   -1    0    0  501    0  0.00000000000E+00 -0.00000000000E+00 -0.13952523932E+04  0.13952523932E+04  0.50400000000E-02 0. -1.
   -5000001    1    1    2    0    0  0.14337282034E+03  0.16974806593E+03 -0.37897309838E+03  0.50546095873E+03  0.25000000000E+03 0.  0.
    5000001    1    1    2    0    0 -0.14337282034E+03 -0.16974806593E+03 -0.92368960915E+03  0.98238112031E+03  0.25000000000E+03 0.  0.
<mgrwt>
<rscale>  0 0.71884903E+03</rscale>
<asrwt>0</asrwt>
<pdfrwt beam="1">  1        1 0.21465420E+00 0.71884903E+03</pdfrwt>
<pdfrwt beam="2">  1       -1 0.14244568E-01 0.71884903E+03</pdfrwt>
<totfact> 0.28205912E+02</totfact>
</mgrwt>
</event>
<event>
 4    1  0.4047984E-006  0.7963556E+03  0.7818608E-02  0.9565307E-01
          1   -1    0    0  501    0  0.00000000000E+00  0.00000000000E+00  0.12592904503E+03  0.12592904513E+03  0.50400000000E-02 0.  1.
         -1   -1    0    0    0  501 -0.00000000000E+00 -0.00000000000E+00 -0.12590071212E+04  0.12590071212E+04  0.50400000000E-02 0. -1.
   -5000001    1    1    2    0    0 -0.14006277320E+03  0.26909658176E+03 -0.67673514014E+03  0.78262443142E+03  0.25000000000E+03 0.  0.
    5000001    1    1    2    0    0  0.14006277320E+03 -0.26909658176E+03 -0.45634293600E+03  0.60231173489E+03  0.25000000000E+03 0.  0.
<mgrwt>
<rscale>  0 0.79635561E+03</rscale>
<asrwt>0</asrwt>
<pdfrwt beam="1">  1        1 0.19373700E-01 0.79635561E+03</pdfrwt>
<pdfrwt beam="2">  1       -1 0.19369339E+00 0.79635561E+03</pdfrwt>
<totfact> 0.46411274E+01</totfact>
</mgrwt>
</event>
<event>
 4    1  0.4047984E-006  0.8401383E+03  0.7818608E-02  0.9503669E-01
         -1   -1    0    0    0  501 -0.00000000000E+00  0.00000000000E+00  0.47375563565E+03  0.47375563568E+03  0.50400000000E-02 0. -1.
          1   -1    0    0  501    0  0.00000000000E+00 -0.00000000000E+00 -0.37246644185E+03  0.37246644189E+03  0.50400000000E-02 0.  1.
   -5000001    1    1    2    0    0  0.63977516688E+02 -0.20786217331E+03  0.31069684112E+03  0.45423818952E+03  0.25000000000E+03 0.  0.
    5000001    1    1    2    0    0 -0.63977516688E+02  0.20786217331E+03 -0.20940764732E+03  0.39198388805E+03  0.25000000000E+03 0.  0.
<mgrwt>
<rscale>  0 0.84013826E+03</rscale>
<asrwt>0</asrwt>
<pdfrwt beam="1">  1        1 0.57302530E-01 0.84013826E+03</pdfrwt>
<pdfrwt beam="2">  1       -1 0.72885482E-01 0.84013826E+03</pdfrwt>
<totfact> 0.12657237E+02</totfact>
</mgrwt>
</event>
<event>
 4    1  0.4047984E-006  0.6527389E+03  0.7818608E-02  0.9801653E-01
         -1   -1    0    0    0  501 -0.00000000000E+00  0.00000000000E+00  0.55564010614E+02  0.55564010843E+02  0.50400000000E-02 0. -1.
          1   -1    0    0  501    0  0.00000000000E+00 -0.00000000000E+00 -0.19170143432E+04  0.19170143432E+04  0.50400000000E-02 0.  1.
   -5000001    1    1    2    0    0  0.14023543720E+03  0.12884214798E+03 -0.66467345418E+03  0.73522586845E+03  0.25000000000E+03 0.  0.
    5000001    1    1    2    0    0 -0.14023543720E+03 -0.12884214798E+03 -0.11967768784E+04  0.12373524856E+04  0.25000000000E+03 0.  0.
<mgrwt>
<rscale>  0 0.65273886E+03</rscale>
<asrwt>0</asrwt>
<pdfrwt beam="1">  1        1 0.29492523E+00 0.65273886E+03</pdfrwt>
<pdfrwt beam="2">  1       -1 0.85483108E-02 0.65273886E+03</pdfrwt>
<totfact> 0.28380975E+02</totfact>
</mgrwt>
</event>
<event>
 4    1  0.4047984E-006  0.6167798E+03  0.7818608E-02  0.9871192E-01
         -1   -1    0    0    0  501 -0.00000000000E+00  0.00000000000E+00  0.40807489741E+02  0.40807490052E+02  0.50400000000E-02 0. -1.
          1   -1    0    0  501    0  0.00000000000E+00 -0.00000000000E+00 -0.23305610035E+04  0.23305610035E+04  0.50400000000E-02 0.  1.
   -5000001    1    1    2    0    0 -0.33803809089E+02  0.16280842498E+03 -0.87423581301E+03  0.92435790552E+03  0.25000000000E+03 0.  0.
    5000001    1    1    2    0    0  0.33803809089E+02 -0.16280842498E+03 -0.14155177008E+04  0.14470105880E+04  0.25000000000E+03 0.  0.
<mgrwt>
<rscale>  0 0.61677985E+03</rscale>
<asrwt>0</asrwt>
<pdfrwt beam="1">  1        1 0.35854774E+00 0.61677985E+03</pdfrwt>
<pdfrwt beam="2">  1       -1 0.62780772E-02 0.61677985E+03</pdfrwt>
<totfact> 0.24366817E+02</totfact>
</mgrwt>
</event>
<event>
 4    1  0.4047984E-006  0.1001600E+04  0.7818608E-02  0.9306792E-01
         -1   -1    0    0    0  501 -0.00000000000E+00  0.00000000000E+00  0.60049883345E+03  0.60049883347E+03  0.50400000000E-02 0. -1.
          1   -1    0    0  501    0  0.00000000000E+00 -0.00000000000E+00 -0.41765344966E+03  0.41765344969E+03  0.50400000000E-02 0.  1.
   -5000001    1    1    2    0    0 -0.28001617623E+03  0.30898681714E+03 -0.30638785532E+02  0.48715567050E+03  0.25000000000E+03 0.  0.
    5000001    1    1    2    0    0  0.28001617623E+03 -0.30898681714E+03  0.21348416932E+03  0.53099661267E+03  0.25000000000E+03 0.  0.
<mgrwt>
<rscale>  0 0.10015995E+04</rscale>
<asrwt>0</asrwt>
<pdfrwt beam="1">  1        1 0.64254377E-01 0.10015995E+04</pdfrwt>
<pdfrwt beam="2">  1       -1 0.92384436E-01 0.10015995E+04</pdfrwt>
<totfact> 0.64748330E+01</totfact>
</mgrwt>
</event>
<event>
 4    1  0.4047984E-006  0.1311880E+04  0.7818608E-02  0.9020197E-01
          1   -1    0    0  501    0  0.00000000000E+00  0.00000000000E+00  0.33382319643E+03  0.33382319647E+03  0.50400000000E-02 0.  1.
         -1   -1    0    0    0  501 -0.00000000000E+00 -0.00000000000E+00 -0.12888785010E+04  0.12888785010E+04  0.50400000000E-02 0. -1.
   -5000001    1    1    2    0    0 -0.42012508114E+03  0.37699414544E+03 -0.75169038724E+03  0.97271172902E+03  0.25000000000E+03 0.  0.
    5000001    1    1    2    0    0  0.42012508114E+03 -0.37699414544E+03 -0.20336491732E+03  0.64998996846E+03  0.25000000000E+03 0.  0.
<mgrwt>
<rscale>  0 0.13118804E+04</rscale>
<asrwt>0</asrwt>
<pdfrwt beam="1">  1        1 0.51357415E-01 0.13118804E+04</pdfrwt>
<pdfrwt beam="2">  1       -1 0.19828900E+00 0.13118804E+04</pdfrwt>
<totfact> 0.11572555E+01</totfact>
</mgrwt>
</event>
<event>
 4    1  0.4047984E-006  0.8856086E+03  0.7818608E-02  0.9443752E-01
         -1   -1    0    0    0  501 -0.00000000000E+00  0.00000000000E+00  0.79691831402E+03  0.79691831403E+03  0.50400000000E-02 0.  1.
          1   -1    0    0  501    0  0.00000000000E+00 -0.00000000000E+00 -0.24604232299E+03  0.24604232304E+03  0.50400000000E-02 0. -1.
   -5000001    1    1    2    0    0  0.22899694573E+03  0.24116416782E+03  0.96928159644E+02  0.42719413050E+03  0.25000000000E+03 0.  0.
    5000001    1    1    2    0    0 -0.22899694573E+03 -0.24116416782E+03  0.45394783139E+03  0.61576650657E+03  0.25000000000E+03 0.  0.
<mgrwt>
<rscale>  0 0.88560857E+03</rscale>
<asrwt>0</asrwt>
<pdfrwt beam="1">  1        1 0.37852666E-01 0.88560857E+03</pdfrwt>
<pdfrwt beam="2">  1       -1 0.12260282E+00 0.88560857E+03</pdfrwt>
<totfact> 0.67285105E+01</totfact>
</mgrwt>
</event>
<event>
 4    1  0.4047984E-006  0.8871006E+03  0.7818608E-02  0.9441851E-01
         -1   -1    0    0    0  501 -0.00000000000E+00  0.00000000000E+00  0.94832317513E+02  0.94832317646E+02  0.50400000000E-02 0. -1.
          1   -1    0    0  501    0  0.00000000000E+00 -0.00000000000E+00 -0.20745762118E+04  0.20745762118E+04  0.50400000000E-02 0.  1.
   -5000001    1    1    2    0    0  0.15192148064E+03  0.14015142607E+03 -0.25007424612E+03  0.40958477399E+03  0.25000000000E+03 0.  0.
    5000001    1    1    2    0    0 -0.15192148064E+03 -0.14015142607E+03 -0.17296696482E+04  0.17598237555E+04  0.25000000000E+03 0.  0.
<mgrwt>
<rscale>  0 0.88710060E+03</rscale>
<asrwt>0</asrwt>
<pdfrwt beam="1">  1        1 0.31916554E+00 0.88710060E+03</pdfrwt>
<pdfrwt beam="2">  1       -1 0.14589589E-01 0.88710060E+03</pdfrwt>
<totfact> 0.92977351E+01</totfact>
</mgrwt>
</event>
<event>
 4    1  0.4047984E-006  0.1189326E+04  0.7818608E-02  0.9122251E-01
          1   -1    0    0  501    0  0.00000000000E+00  0.00000000000E+00  0.57616791024E+03  0.57616791026E+03  0.50400000000E-02 0.  1.
         -1   -1    0    0    0  501 -0.00000000000E+00 -0.00000000000E+00 -0.61375160375E+03  0.61375160377E+03  0.50400000000E-02 0. -1.
   -5000001    1    1    2    0    0  0.16669822312E+03 -0.35904498337E+03  0.34802775091E+03  0.58337373362E+03  0.25000000000E+03 0.  0.
    5000001    1    1    2    0    0 -0.16669822312E+03  0.35904498337E+03 -0.38561144442E+03  0.60654578041E+03  0.25000000000E+03 0.  0.
<mgrwt>
<rscale>  0 0.11893258E+04</rscale>
<asrwt>0</asrwt>
<pdfrwt beam="1">  1        1 0.88641217E-01 0.11893258E+04</pdfrwt>
<pdfrwt beam="2">  1       -1 0.94423323E-01 0.11893258E+04</pdfrwt>
<totfact> 0.39058343E+01</totfact>
</mgrwt>
</event>
<event>
 4    1  0.4047984E-006  0.6288833E+03  0.7818608E-02  0.9847230E-01
         -1   -1    0    0    0  501 -0.00000000000E+00  0.00000000000E+00  0.63820651861E+03  0.63820651863E+03  0.50400000000E-02 0. -1.
          1   -1    0    0  501    0  0.00000000000E+00 -0.00000000000E+00 -0.15492405274E+03  0.15492405282E+03  0.50400000000E-02 0.  1.
   -5000001    1    1    2    0    0  0.15123130732E+03  0.22016242375E+02  0.38553613349E+03  0.48424553015E+03  0.25000000000E+03 0.  0.
    5000001    1    1    2    0    0 -0.15123130732E+03 -0.22016242375E+02  0.97746332378E+02  0.30888504130E+03  0.25000000000E+03 0.  0.
<mgrwt>
<rscale>  0 0.62888327E+03</rscale>
<asrwt>0</asrwt>
<pdfrwt beam="1">  1        1 0.23834470E-01 0.62888327E+03</pdfrwt>
<pdfrwt beam="2">  1       -1 0.98185617E-01 0.62888327E+03</pdfrwt>
<totfact> 0.21019576E+02</totfact>
</mgrwt>
</event>
<event>
 4    1  0.4047984E-006  0.5382289E+03  0.7818608E-02  0.1004256E+00
          1   -1    0    0  501    0  0.00000000000E+00  0.00000000000E+00  0.14105950261E+03  0.14105950270E+03  0.50400000000E-02 0.  1.
         -1   -1    0    0    0  501 -0.00000000000E+00 -0.00000000000E+00 -0.51341871596E+03  0.51341871598E+03  0.50400000000E-02 0. -1.
   -5000001    1    1    2    0    0 -0.25978771312E+02 -0.90629922356E+02 -0.14708026791E+03  0.30499390911E+03  0.25000000000E+03 0.  0.
    5000001    1    1    2    0    0  0.25978771312E+02  0.90629922356E+02 -0.22527894543E+03  0.34948430957E+03  0.25000000000E+03 0.  0.
<mgrwt>
<rscale>  0 0.53822891E+03</rscale>
<asrwt>0</asrwt>
<pdfrwt beam="1">  1        1 0.21701462E-01 0.53822891E+03</pdfrwt>
<pdfrwt beam="2">  1       -1 0.78987494E-01 0.53822891E+03</pdfrwt>
<totfact> 0.38280393E+02</totfact>
</mgrwt>
</event>
<event>
 4    1  0.4047984E-006  0.5601656E+03  0.7818608E-02  0.9991680E-01
         -1   -1    0    0    0  501 -0.00000000000E+00  0.00000000000E+00  0.51530260592E+03  0.51530260595E+03  0.50400000000E-02 0.  1.
          1   -1    0    0  501    0  0.00000000000E+00 -0.00000000000E+00 -0.15223358850E+03  0.15223358858E+03  0.50400000000E-02 0. -1.
   -5000001    1    1    2    0    0 -0.52594072638E+02 -0.78887891383E+02  0.28093011726E+03  0.38782878525E+03  0.25000000000E+03 0.  0.
    5000001    1    1    2    0    0  0.52594072638E+02  0.78887891383E+02  0.82138900165E+02  0.27970740928E+03  0.25000000000E+03 0.  0.
<mgrwt>
<rscale>  0 0.56016556E+03</rscale>
<asrwt>0</asrwt>
<pdfrwt beam="1">  1        1 0.23420552E-01 0.56016556E+03</pdfrwt>
<pdfrwt beam="2">  1       -1 0.79277325E-01 0.56016556E+03</pdfrwt>
<totfact> 0.34358076E+02</totfact>
</mgrwt>
</event>
<event>
 4    1  0.4047984E-006  0.7262076E+03  0.7818608E-02  0.9673434E-01
         -1   -1    0    0    0  501 -0.00000000000E+00  0.00000000000E+00  0.10635419617E+03  0.10635419629E+03  0.50400000000E-02 0. -1.
          1   -1    0    0  501    0  0.00000000000E+00 -0.00000000000E+00 -0.12396723357E+04  0.12396723357E+04  0.50400000000E-02 0.  1.
   -5000001    1    1    2    0    0 -0.52155406380E+02 -0.25457734302E+03 -0.64561353753E+03  0.73949080443E+03  0.25000000000E+03 0.  0.
    5000001    1    1    2    0    0  0.52155406380E+02  0.25457734302E+03 -0.48770460196E+03  0.60653572753E+03  0.25000000000E+03 0.  0.
<mgrwt>
<rscale>  0 0.72620756E+03</rscale>
<asrwt>0</asrwt>
<pdfrwt beam="1">  1        1 0.19071881E+00 0.72620756E+03</pdfrwt>
<pdfrwt beam="2">  1       -1 0.16362185E-01 0.72620756E+03</pdfrwt>
<totfact> 0.28955012E+02</totfact>
</mgrwt>
</event>
<event>
 4    1  0.4047984E-006  0.6180693E+03  0.7818608E-02  0.9868611E-01
         -1   -1    0    0    0  501 -0.00000000000E+00  0.00000000000E+00  0.33748214167E+03  0.33748214171E+03  0.50400000000E-02 0. -1.
          1   -1    0    0  501    0  0.00000000000E+00 -0.00000000000E+00 -0.28298508157E+03  0.28298508161E+03  0.50400000000E-02 0.  1.
   -5000001    1    1    2    0    0 -0.17188896333E+03  0.56559643473E+02  0.11136262778E+02  0.30881843425E+03  0.25000000000E+03 0.  0.
    5000001    1    1    2    0    0  0.17188896333E+03 -0.56559643473E+02  0.43360797324E+02  0.31164878907E+03  0.25000000000E+03 0.  0.
<mgrwt>
<rscale>  0 0.61806929E+03</rscale>
<asrwt>0</asrwt>
<pdfrwt beam="1">  1        1 0.43536167E-01 0.61806929E+03</pdfrwt>
<pdfrwt beam="2">  1       -1 0.51920329E-01 0.61806929E+03</pdfrwt>
<totfact> 0.35815059E+02</totfact>
</mgrwt>
</event>
<event>
 4    1  0.4047984E-006  0.8867044E+03  0.7818608E-02  0.9442356E-01
          1   -1    0    0  501    0  0.00000000000E+00  0.00000000000E+00  0.65366091454E+03  0.65366091456E+03  0.50400000000E-02 0.  1.
         -1   -1    0    0    0  501 -0.00000000000E+00 -0.00000000000E+00 -0.30070817630E+03  0.30070817635E+03  0.50400000000E-02 0. -1.
   -5000001    1    1    2    0    0  0.27479426546E+03 -0.20137868979E+03  0.32086216721E+03  0.53058250572E+03  0.25000000000E+03 0.  0.
    5000001    1    1    2    0    0 -0.27479426546E+03  0.20137868979E+03  0.32090571027E+02  0.42378658518E+03  0.25000000000E+03 0.  0.
<mgrwt>
<rscale>  0 0.88670442E+03</rscale>
<asrwt>0</asrwt>
<pdfrwt beam="1">  1        1 0.10056322E+00 0.88670442E+03</pdfrwt>
<pdfrwt beam="2">  1       -1 0.46262797E-01 0.88670442E+03</pdfrwt>
<totfact> 0.14154422E+02</totfact>
</mgrwt>
</event>
<event>
 4    1  0.4047984E-006  0.5797278E+03  0.7818608E-02  0.9948380E-01
         -1   -1    0    0    0  501 -0.00000000000E+00  0.00000000000E+00  0.18937985196E+03  0.18937985203E+03  0.50400000000E-02 0.  1.
          1   -1    0    0  501    0  0.00000000000E+00 -0.00000000000E+00 -0.44366432575E+03  0.44366432577E+03  0.50400000000E-02 0. -1.
   -5000001    1    1    2    0    0 -0.54341490860E+01  0.12369745616E+03 -0.41226538258E+02  0.28201102477E+03  0.25000000000E+03 0.  0.
    5000001    1    1    2    0    0  0.54341490860E+01 -0.12369745616E+03 -0.21305793552E+03  0.35103315303E+03  0.25000000000E+03 0.  0.
<mgrwt>
<rscale>  0 0.57972781E+03</rscale>
<asrwt>0</asrwt>
<pdfrwt beam="1">  1        1 0.68256050E-01 0.57972781E+03</pdfrwt>
<pdfrwt beam="2">  1       -1 0.29135362E-01 0.57972781E+03</pdfrwt>
<totfact> 0.56604914E+02</totfact>
</mgrwt>
</event>
<event>
 4    1  0.4047984E-006  0.8982276E+03  0.7818608E-02  0.9427800E-01
         -1   -1    0    0    0  501 -0.00000000000E+00  0.00000000000E+00  0.28364577972E+03  0.28364577976E+03  0.50400000000E-02 0.  1.
          1   -1    0    0  501    0  0.00000000000E+00 -0.00000000000E+00 -0.71110956421E+03  0.71110956423E+03  0.50400000000E-02 0. -1.
   -5000001    1    1    2    0    0  0.35079061605E+03  0.12702022470E+03 -0.20943797830E+03  0.49553250201E+03  0.25000000000E+03 0.  0.
    5000001    1    1    2    0    0 -0.35079061605E+03 -0.12702022470E+03 -0.21802580620E+03  0.49922284199E+03  0.25000000000E+03 0.  0.
<mgrwt>
<rscale>  0 0.89822765E+03</rscale>
<asrwt>0</asrwt>
<pdfrwt beam="1">  1        1 0.10940147E+00 0.89822765E+03</pdfrwt>
<pdfrwt beam="2">  1       -1 0.43637813E-01 0.89822765E+03</pdfrwt>
<totfact> 0.13892548E+02</totfact>
</mgrwt>
</event>
<event>
 4    1  0.4047984E-006  0.1630184E+04  0.7818608E-02  0.8802217E-01
         -1   -1    0    0    0  501 -0.00000000000E+00  0.00000000000E+00  0.44738678155E+03  0.44738678158E+03  0.50400000000E-02 0. -1.
          1   -1    0    0  501    0  0.00000000000E+00 -0.00000000000E+00 -0.14850119139E+04  0.14850119139E+04  0.50400000000E-02 0.  1.
   -5000001    1    1    2    0    0 -0.28921552183E+03 -0.70814900615E+03 -0.36537901702E+03  0.88381132549E+03  0.25000000000E+03 0.  0.
    5000001    1    1    2    0    0  0.28921552183E+03  0.70814900615E+03 -0.67224611537E+03  0.10485873700E+04  0.25000000000E+03 0.  0.
<mgrwt>
<rscale>  0 0.16301837E+04</rscale>
<asrwt>0</asrwt>
<pdfrwt beam="1">  1        1 0.22846337E+00 0.16301837E+04</pdfrwt>
<pdfrwt beam="2">  1       -1 0.68828736E-01 0.16301837E+04</pdfrwt>
<totfact> 0.13697907E+01</totfact>
</mgrwt>
</event>
<event>
 4    1  0.4047984E-006  0.6919359E+03  0.7818608E-02  0.9731123E-01
          1   -1    0    0  501    0  0.00000000000E+00  0.00000000000E+00  0.60297518896E+03  0.60297518898E+03  0.50400000000E-02 0.  1.
         -1   -1    0    0    0  501 -0.00000000000E+00 -0.00000000000E+00 -0.19850538378E+03  0.19850538384E+03  0.50400000000E-02 0. -1.
   -5000001    1    1    2    0    0  0.12875810506E+02 -0.23879816528E+03  0.20439294483E+03  0.40182934952E+03  0.25000000000E+03 0.  0.
    5000001    1    1    2    0    0 -0.12875810506E+02  0.23879816528E+03  0.20007686036E+03  0.39965122331E+03  0.25000000000E+03 0.  0.
<mgrwt>
<rscale>  0 0.69193590E+03</rscale>
<asrwt>0</asrwt>
<pdfrwt beam="1">  1        1 0.92765413E-01 0.69193590E+03</pdfrwt>
<pdfrwt beam="2">  1       -1 0.30539290E-01 0.69193590E+03</pdfrwt>
<totfact> 0.34011975E+02</totfact>
</mgrwt>
</event>
<event>
 4    1  0.4047984E-006  0.6766675E+03  0.7818608E-02  0.9757987E-01
         -1   -1    0    0    0  501 -0.00000000000E+00  0.00000000000E+00  0.11318635039E+03  0.11318635050E+03  0.50400000000E-02 0. -1.
          1   -1    0    0  501    0  0.00000000000E+00 -0.00000000000E+00 -0.10113385590E+04  0.10113385590E+04  0.50400000000E-02 0.  1.
   -5000001    1    1    2    0    0 -0.10756346050E+03  0.15332660117E+03 -0.23309359972E+03  0.38975834935E+03  0.25000000000E+03 0.  0.
    5000001    1    1    2    0    0  0.10756346050E+03 -0.15332660117E+03 -0.66505860889E+03  0.73476656015E+03  0.25000000000E+03 0.  0.
<mgrwt>
<rscale>  0 0.67666748E+03</rscale>
<asrwt>0</asrwt>
<pdfrwt beam="1">  1        1 0.15559054E+00 0.67666748E+03</pdfrwt>
<pdfrwt beam="2">  1       -1 0.17413285E-01 0.67666748E+03</pdfrwt>
<totfact> 0.38686682E+02</totfact>
</mgrwt>
</event>
<event>
 4    1  0.4047984E-006  0.7822661E+03  0.7818608E-02  0.9586047E-01
          1   -1    0    0  501    0  0.00000000000E+00  0.00000000000E+00  0.72945963211E+03  0.72945963213E+03  0.50400000000E-02 0.  1.
         -1   -1    0    0    0  501 -0.00000000000E+00 -0.00000000000E+00 -0.20972379879E+03  0.20972379885E+03  0.50400000000E-02 0. -1.
   -5000001    1    1    2    0    0  0.29229419023E+03 -0.40415354895E+02  0.18969993034E+03  0.43076137028E+03  0.25000000000E+03 0.  0.
    5000001    1    1    2    0    0 -0.29229419023E+03  0.40415354895E+02  0.33003590298E+03  0.50842206070E+03  0.25000000000E+03 0.  0.
<mgrwt>
<rscale>  0 0.78226605E+03</rscale>
<asrwt>0</asrwt>
<pdfrwt beam="1">  1        1 0.11222456E+00 0.78226605E+03</pdfrwt>
<pdfrwt beam="2">  1       -1 0.32265199E-01 0.78226605E+03</pdfrwt>
<totfact> 0.23182912E+02</totfact>
</mgrwt>
</event>
<event>
 4    1  0.4047984E-006  0.8772898E+03  0.7818608E-02  0.9454424E-01
          1   -1    0    0  501    0  0.00000000000E+00  0.00000000000E+00  0.12380242591E+04  0.12380242591E+04  0.50400000000E-02 0.  1.
         -1   -1    0    0    0  501 -0.00000000000E+00 -0.00000000000E+00 -0.15541646091E+03  0.15541646099E+03  0.50400000000E-02 0. -1.
   -5000001    1    1    2    0    0  0.32357002331E+03  0.11024392688E+03  0.72280733012E+03  0.83773606814E+03  0.25000000000E+03 0.  0.
    5000001    1    1    2    0    0 -0.32357002331E+03 -0.11024392688E+03  0.35980046809E+03  0.55570465198E+03  0.25000000000E+03 0.  0.
<mgrwt>
<rscale>  0 0.87728980E+03</rscale>
<asrwt>0</asrwt>
<pdfrwt beam="1">  1        1 0.19046527E+00 0.87728980E+03</pdfrwt>
<pdfrwt beam="2">  1       -1 0.23910224E-01 0.87728980E+03</pdfrwt>
<totfact> 0.15276097E+02</totfact>
</mgrwt>
</event>
<event>
 4    1  0.4047984E-006  0.6855315E+03  0.7818608E-02  0.9742300E-01
          1   -1    0    0  501    0  0.00000000000E+00  0.00000000000E+00  0.76115988158E+03  0.76115988159E+03  0.50400000000E-02 0.  1.
         -1   -1    0    0    0  501 -0.00000000000E+00 -0.00000000000E+00 -0.15435438954E+03  0.15435438962E+03  0.50400000000E-02 0. -1.
   -5000001    1    1    2    0    0 -0.75532800059E+02  0.20675241433E+03  0.41137540077E+03  0.52932172171E+03  0.25000000000E+03 0.  0.
    5000001    1    1    2    0    0  0.75532800059E+02 -0.20675241433E+03  0.19543009128E+03  0.38619254951E+03  0.25000000000E+03 0.  0.
<mgrwt>
<rscale>  0 0.68553153E+03</rscale>
<asrwt>0</asrwt>
<pdfrwt beam="1">  1        1 0.11710152E+00 0.68553153E+03</pdfrwt>
<pdfrwt beam="2">  1       -1 0.23746830E-01 0.68553153E+03</pdfrwt>
<totfact> 0.37013911E+02</totfact>
</mgrwt>
</event>
<event>
 4    1  0.4047984E-006  0.1262817E+04  0.7818608E-02  0.9059583E-01
          1   -1    0    0  501    0  0.00000000000E+00  0.00000000000E+00  0.12990471551E+04  0.12990471551E+04  0.50400000000E-02 0.  1.
         -1   -1    0    0    0  501 -0.00000000000E+00 -0.00000000000E+00 -0.30689909322E+03  0.30689909326E+03  0.50400000000E-02 0. -1.
   -5000001    1    1    2    0    0  0.57018917975E+03  0.10304822700E+03  0.46934506973E+03  0.78646006400E+03  0.25000000000E+03 0.  0.
    5000001    1    1    2    0    0 -0.57018917975E+03 -0.10304822700E+03  0.52280299217E+03  0.81948618439E+03  0.25000000000E+03 0.  0.
<mgrwt>
<rscale>  0 0.12628165E+04</rscale>
<asrwt>0</asrwt>
<pdfrwt beam="1">  1        1 0.19985341E+00 0.12628165E+04</pdfrwt>
<pdfrwt beam="2">  1       -1 0.47215245E-01 0.12628165E+04</pdfrwt>
<totfact> 0.39930295E+01</totfact>
</mgrwt>
</event>
<event>
 4    1  0.4047984E-006  0.6328505E+03  0.7818608E-02  0.9839502E-01
          1   -1    0    0  501    0  0.00000000000E+00  0.00000000000E+00  0.25953647585E+03  0.25953647590E+03  0.50400000000E-02 0.  1.
         -1   -1    0    0    0  501 -0.00000000000E+00 -0.00000000000E+00 -0.38578365538E+03  0.38578365541E+03  0.50400000000E-02 0. -1.
   -5000001    1    1    2    0    0  0.63068995685E+02 -0.17792925346E+03 -0.10859384519E+03  0.33155563736E+03  0.25000000000E+03 0.  0.
    5000001    1    1    2    0    0 -0.63068995685E+02  0.17792925346E+03 -0.17653334331E+02  0.31376449395E+03  0.25000000000E+03 0.  0.
<mgrwt>
<rscale>  0 0.63285047E+03</rscale>
<asrwt>0</asrwt>
<pdfrwt beam="1">  1        1 0.39928689E-01 0.63285047E+03</pdfrwt>
<pdfrwt beam="2">  1       -1 0.59351331E-01 0.63285047E+03</pdfrwt>
<totfact> 0.30914210E+02</totfact>
</mgrwt>
</event>
<event>
 4    1  0.4047984E-006  0.6566777E+03  0.7818608E-02  0.9794329E-01
          1   -1    0    0  501    0  0.00000000000E+00  0.00000000000E+00  0.93142950939E+02  0.93142951075E+02  0.50400000000E-02 0.  1.
         -1   -1    0    0    0  501 -0.00000000000E+00 -0.00000000000E+00 -0.11574294166E+04  0.11574294167E+04  0.50400000000E-02 0. -1.
   -5000001    1    1    2    0    0  0.21148733151E+03 -0.55782558100E+01 -0.48754695394E+03  0.58733298955E+03  0.25000000000E+03 0.  0.
    5000001    1    1    2    0    0 -0.21148733151E+03  0.55782558100E+01 -0.57673951177E+03  0.66323937817E+03  0.25000000000E+03 0.  0.
<mgrwt>
<rscale>  0 0.65667767E+03</rscale>
<asrwt>0</asrwt>
<pdfrwt beam="1">  1        1 0.14329686E-01 0.65667767E+03</pdfrwt>
<pdfrwt beam="2">  1       -1 0.17806605E+00 0.65667767E+03</pdfrwt>
<totfact> 0.90413013E+01</totfact>
</mgrwt>
</event>
<event>
 4    1  0.4047984E-006  0.8891409E+03  0.7818608E-02  0.9439259E-01
         -1   -1    0    0    0  501 -0.00000000000E+00  0.00000000000E+00  0.81825612911E+02  0.81825613066E+02  0.50400000000E-02 0. -1.
          1   -1    0    0  501    0  0.00000000000E+00 -0.00000000000E+00 -0.24154157481E+04  0.24154157481E+04  0.50400000000E-02 0.  1.
   -5000001    1    1    2    0    0  0.14134515702E+03 -0.33580593623E+03 -0.10292368878E+04  0.11200770739E+04  0.25000000000E+03 0.  0.
    5000001    1    1    2    0    0 -0.14134515702E+03  0.33580593623E+03 -0.13043532473E+04  0.13771642872E+04  0.25000000000E+03 0.  0.
<mgrwt>
<rscale>  0 0.88914088E+03</rscale>
<asrwt>0</asrwt>
<pdfrwt beam="1">  1        1 0.37160237E+00 0.88914088E+03</pdfrwt>
<pdfrwt beam="2">  1       -1 0.12588558E-01 0.88914088E+03</pdfrwt>
<totfact> 0.69463971E+01</totfact>
</mgrwt>
</event>
<event>
 4    1  0.4047984E-006  0.7227154E+03  0.7818608E-02  0.9679156E-01
         -1   -1    0    0    0  501 -0.00000000000E+00  0.00000000000E+00  0.90872452273E+02  0.90872452413E+02  0.50400000000E-02 0. -1.
          1   -1    0    0  501    0  0.00000000000E+00 -0.00000000000E+00 -0.14369522884E+04  0.14369522884E+04  0.50400000000E-02 0.  1.
   -5000001    1    1    2    0    0  0.25196751777E+02 -0.10777670512E+03 -0.17354055427E+03  0.32383177491E+03  0.25000000000E+03 0.  0.
    5000001    1    1    2    0    0 -0.25196751777E+02  0.10777670512E+03 -0.11725392819E+04  0.12039929659E+04  0.25000000000E+03 0.  0.
<mgrwt>
<rscale>  0 0.72271538E+03</rscale>
<asrwt>0</asrwt>
<pdfrwt beam="1">  1        1 0.22106957E+00 0.72271538E+03</pdfrwt>
<pdfrwt beam="2">  1       -1 0.13980378E-01 0.72271538E+03</pdfrwt>
<totfact> 0.27198000E+02</totfact>
</mgrwt>
</event>
<event>
 4    1  0.4047984E-006  0.1426295E+04  0.7818608E-02  0.8935002E-01
          1   -1    0    0  501    0  0.00000000000E+00  0.00000000000E+00  0.22649294454E+04  0.22649294454E+04  0.50400000000E-02 0.  1.
         -1   -1    0    0    0  501 -0.00000000000E+00 -0.00000000000E+00 -0.22454545419E+03  0.22454545424E+03  0.50400000000E-02 0. -1.
   -5000001    1    1    2    0    0  0.15011479139E+03  0.58090897674E+03  0.50806880947E+03  0.82499915455E+03  0.25000000000E+03 0.  0.
    5000001    1    1    2    0    0 -0.15011479139E+03 -0.58090897674E+03  0.15323151818E+04  0.16644757451E+04  0.25000000000E+03 0.  0.
<mgrwt>
<rscale>  0 0.14262954E+04</rscale>
<asrwt>0</asrwt>
<pdfrwt beam="1">  1        1 0.34845069E+00 0.14262954E+04</pdfrwt>
<pdfrwt beam="2">  1       -1 0.34545454E-01 0.14262954E+04</pdfrwt>
<totfact> 0.15233802E+01</totfact>
</mgrwt>
</event>
<event>
 4    1  0.4047984E-006  0.6318669E+03  0.7818608E-02  0.9841412E-01
          1   -1    0    0  501    0  0.00000000000E+00  0.00000000000E+00  0.12448041280E+04  0.12448041280E+04  0.50400000000E-02 0.  1.
         -1   -1    0    0    0  501 -0.00000000000E+00 -0.00000000000E+00 -0.80184461274E+02  0.80184461432E+02  0.50400000000E-02 0. -1.
   -5000001    1    1    2    0    0 -0.76864403938E+02  0.11745658835E+03  0.30404183449E+03  0.41790623812E+03  0.25000000000E+03 0.  0.
    5000001    1    1    2    0    0  0.76864403938E+02 -0.11745658835E+03  0.86057783219E+03  0.90708235128E+03  0.25000000000E+03 0.  0.
<mgrwt>
<rscale>  0 0.63186691E+03</rscale>
<asrwt>0</asrwt>
<pdfrwt beam="1">  1        1 0.19150833E+00 0.63186691E+03</pdfrwt>
<pdfrwt beam="2">  1       -1 0.12336071E-01 0.63186691E+03</pdfrwt>
<totfact> 0.45592940E+02</totfact>
</mgrwt>
</event>
<event>
 4    1  0.4047984E-006  0.6336514E+03  0.7818608E-02  0.9837949E-01
          1   -1    0    0  501    0  0.00000000000E+00  0.00000000000E+00  0.20514858454E+04  0.20514858454E+04  0.50400000000E-02 0. -1.
         -1   -1    0    0    0  501 -0.00000000000E+00 -0.00000000000E+00 -0.48929665824E+02  0.48929666083E+02  0.50400000000E-02 0.  1.
   -5000001    1    1    2    0    0  0.19169882501E+03 -0.32049068425E+02  0.10349087990E+04  0.10822715946E+04  0.25000000000E+03 0.  0.
    5000001    1    1    2    0    0 -0.19169882501E+03  0.32049068425E+02  0.96764738057E+03  0.10181439168E+04  0.25000000000E+03 0.  0.
<mgrwt>
<rscale>  0 0.63365138E+03</rscale>
<asrwt>0</asrwt>
<pdfrwt beam="1">  1        1 0.31561326E+00 0.63365138E+03</pdfrwt>
<pdfrwt beam="2">  1       -1 0.75276397E-02 0.63365138E+03</pdfrwt>
<totfact> 0.28213215E+02</totfact>
</mgrwt>
</event>
<event>
 4    1  0.4047984E-006  0.1071088E+04  0.7818608E-02  0.9233839E-01
          1   -1    0    0  501    0  0.00000000000E+00  0.00000000000E+00  0.12213893181E+04  0.12213893181E+04  0.50400000000E-02 0.  1.
         -1   -1    0    0    0  501 -0.00000000000E+00 -0.00000000000E+00 -0.23482052272E+03  0.23482052278E+03  0.50400000000E-02 0. -1.
   -5000001    1    1    2    0    0 -0.38470149410E+03  0.11146925188E+03  0.14964423091E+03  0.49529186297E+03  0.25000000000E+03 0.  0.
    5000001    1    1    2    0    0  0.38470149410E+03 -0.11146925188E+03  0.83692456444E+03  0.96091797790E+03  0.25000000000E+03 0.  0.
<mgrwt>
<rscale>  0 0.10710878E+04</rscale>
<asrwt>0</asrwt>
<pdfrwt beam="1">  1        1 0.18790605E+00 0.10710878E+04</pdfrwt>
<pdfrwt beam="2">  1       -1 0.36126233E-01 0.10710878E+04</pdfrwt>
<totfact> 0.75369195E+01</totfact>
</mgrwt>
</event>
<event>
 4    1  0.4047984E-006  0.8169815E+03  0.7818608E-02  0.9535757E-01
          1   -1    0    0  501    0  0.00000000000E+00  0.00000000000E+00  0.38441186274E+03  0.38441186277E+03  0.50400000000E-02 0.  1.
         -1   -1    0    0    0  501 -0.00000000000E+00 -0.00000000000E+00 -0.43407785817E+03  0.43407785820E+03  0.50400000000E-02 0. -1.
   -5000001    1    1    2    0    0  0.63826091284E+02 -0.28292075512E+03  0.11772078125E+03  0.40059469036E+03  0.25000000000E+03 0.  0.
    5000001    1    1    2    0    0 -0.63826091284E+02  0.28292075512E+03 -0.16738677668E+03  0.41789503062E+03  0.25000000000E+03 0.  0.
<mgrwt>
<rscale>  0 0.81698146E+03</rscale>
<asrwt>0</asrwt>
<pdfrwt beam="1">  1        1 0.59140287E-01 0.81698146E+03</pdfrwt>
<pdfrwt beam="2">  1       -1 0.66781209E-01 0.81698146E+03</pdfrwt>
<totfact> 0.14539699E+02</totfact>
</mgrwt>
</event>
<event>
 4    1  0.4047984E-006  0.9247125E+03  0.7818608E-02  0.9395206E-01
          1   -1    0    0  501    0  0.00000000000E+00  0.00000000000E+00  0.60620261877E+03  0.60620261879E+03  0.50400000000E-02 0.  1.
         -1   -1    0    0    0  501 -0.00000000000E+00 -0.00000000000E+00 -0.35264330535E+03  0.35264330538E+03  0.50400000000E-02 0. -1.
   -5000001    1    1    2    0    0 -0.28653480677E+03 -0.10380687708E+03  0.37735065259E+03  0.54568450430E+03  0.25000000000E+03 0.  0.
    5000001    1    1    2    0    0  0.28653480677E+03  0.10380687708E+03 -0.12379133917E+03  0.41316141988E+03  0.25000000000E+03 0.  0.
<mgrwt>
<rscale>  0 0.92471249E+03</rscale>
<asrwt>0</asrwt>
<pdfrwt beam="1">  1        1 0.93261941E-01 0.92471249E+03</pdfrwt>
<pdfrwt beam="2">  1       -1 0.54252817E-01 0.92471249E+03</pdfrwt>
<totfact> 0.11652802E+02</totfact>
</mgrwt>
</event>
<event>
 4    1  0.4047984E-006  0.8122201E+03  0.7818608E-02  0.9542496E-01
          1   -1    0    0  501    0  0.00000000000E+00  0.00000000000E+00  0.24886820147E+03  0.24886820152E+03  0.50400000000E-02 0. -1.
         -1   -1    0    0    0  501 -0.00000000000E+00 -0.00000000000E+00 -0.66270164719E+03  0.66270164721E+03  0.50400000000E-02 0.  1.
   -5000001    1    1    2    0    0 -0.15972864982E+03  0.19980034353E+03 -0.42277555789E+03  0.55378027339E+03  0.25000000000E+03 0.  0.
    5000001    1    1    2    0    0  0.15972864982E+03 -0.19980034353E+03  0.89421121644E+01  0.35778957534E+03  0.25000000000E+03 0.  0.
<mgrwt>
<rscale>  0 0.81222009E+03</rscale>
<asrwt>0</asrwt>
<pdfrwt beam="1">  1        1 0.38287416E-01 0.81222009E+03</pdfrwt>
<pdfrwt beam="2">  1       -1 0.10195410E+00 0.81222009E+03</pdfrwt>
<totfact> 0.10322856E+02</totfact>
</mgrwt>
</event>
<event>
 4    1  0.4047984E-006  0.1981310E+04  0.7818608E-02  0.8615409E-01
          1   -1    0    0  501    0  0.00000000000E+00  0.00000000000E+00  0.29873119446E+04  0.29873119446E+04  0.50400000000E-02 0.  1.
         -1   -1    0    0    0  501 -0.00000000000E+00 -0.00000000000E+00 -0.32852192866E+03  0.32852192870E+03  0.50400000000E-02 0. -1.
   -5000001    1    1    2    0    0  0.70749295831E+03  0.62094929195E+03  0.16323649472E+04  0.19008523431E+04  0.25000000000E+03 0.  0.
    5000001    1    1    2    0    0 -0.70749295831E+03 -0.62094929195E+03  0.10264250688E+04  0.14149815303E+04  0.25000000000E+03 0.  0.
<mgrwt>
<rscale>  0 0.19813102E+04</rscale>
<asrwt>0</asrwt>
<pdfrwt beam="1">  1        1 0.45958643E+00 0.19813102E+04</pdfrwt>
<pdfrwt beam="2">  1       -1 0.50541838E-01 0.19813102E+04</pdfrwt>
<totfact> 0.22352723E+00</totfact>
</mgrwt>
</event>
<event>
 4    1  0.4047984E-006  0.5429803E+03  0.7818608E-02  0.1003132E+00
          1   -1    0    0  501    0  0.00000000000E+00  0.00000000000E+00  0.29568381130E+03  0.29568381135E+03  0.50400000000E-02 0.  1.
         -1   -1    0    0    0  501 -0.00000000000E+00 -0.00000000000E+00 -0.24927605082E+03  0.24927605087E+03  0.50400000000E-02 0. -1.
   -5000001    1    1    2    0    0 -0.41400607822E+02 -0.80109440161E+02  0.78861990217E+02  0.27721967144E+03  0.25000000000E+03 0.  0.
    5000001    1    1    2    0    0  0.41400607822E+02  0.80109440161E+02 -0.32454229733E+02  0.26774019078E+03  0.25000000000E+03 0.  0.
<mgrwt>
<rscale>  0 0.54298027E+03</rscale>
<asrwt>0</asrwt>
<pdfrwt beam="1">  1        1 0.45489817E-01 0.54298027E+03</pdfrwt>
<pdfrwt beam="2">  1       -1 0.38350162E-01 0.54298027E+03</pdfrwt>
<totfact> 0.59328695E+02</totfact>
</mgrwt>
</event>
<event>
 4    1  0.4047984E-006  0.7057821E+03  0.7818608E-02  0.9707395E-01
         -1   -1    0    0    0  501 -0.00000000000E+00  0.00000000000E+00  0.58485676602E+03  0.58485676604E+03  0.50400000000E-02 0.  1.
          1   -1    0    0  501    0  0.00000000000E+00 -0.00000000000E+00 -0.21292748975E+03  0.21292748981E+03  0.50400000000E-02 0. -1.
   -5000001    1    1    2    0    0  0.20452061194E+03  0.15295646783E+02  0.26230463178E+02  0.32442360382E+03  0.25000000000E+03 0.  0.
    5000001    1    1    2    0    0 -0.20452061194E+03 -0.15295646783E+02  0.34569881309E+03  0.47336065203E+03  0.25000000000E+03 0.  0.
<mgrwt>
<rscale>  0 0.70578207E+03</rscale>
<asrwt>0</asrwt>
<pdfrwt beam="1">  1        1 0.32758076E-01 0.70578207E+03</pdfrwt>
<pdfrwt beam="2">  1       -1 0.89977963E-01 0.70578207E+03</pdfrwt>
<totfact> 0.16820745E+02</totfact>
</mgrwt>
</event>
<event>
 4    1  0.4047984E-006  0.6274471E+03  0.7818608E-02  0.9850043E-01
         -1   -1    0    0    0  501 -0.00000000000E+00  0.00000000000E+00  0.90672401739E+03  0.90672401740E+03  0.50400000000E-02 0. -1.
          1   -1    0    0  501    0  0.00000000000E+00 -0.00000000000E+00 -0.10854733833E+03  0.10854733845E+03  0.50400000000E-02 0.  1.
   -5000001    1    1    2    0    0  0.40158424328E+02  0.17969919143E+03  0.32640021714E+03  0.45049039967E+03  0.25000000000E+03 0.  0.
    5000001    1    1    2    0    0 -0.40158424328E+02 -0.17969919143E+03  0.47177646191E+03  0.56478095618E+03  0.25000000000E+03 0.  0.
<mgrwt>
<rscale>  0 0.62744714E+03</rscale>
<asrwt>0</asrwt>
<pdfrwt beam="1">  1        1 0.16699590E-01 0.62744714E+03</pdfrwt>
<pdfrwt beam="2">  1       -1 0.13949601E+00 0.62744714E+03</pdfrwt>
<totfact> 0.14426180E+02</totfact>
</mgrwt>
</event>
<event>
 4    1  0.4047984E-006  0.1183013E+04  0.7818608E-02  0.9127857E-01
         -1   -1    0    0    0  501 -0.00000000000E+00  0.00000000000E+00  0.16453476652E+04  0.16453476652E+04  0.50400000000E-02 0. -1.
          1   -1    0    0  501    0  0.00000000000E+00 -0.00000000000E+00 -0.21264799953E+03  0.21264799959E+03  0.50400000000E-02 0.  1.
   -5000001    1    1    2    0    0  0.47572497664E+03  0.20754993284E+03  0.92699652136E+03  0.10914274042E+04  0.25000000000E+03 0.  0.
    5000001    1    1    2    0    0 -0.47572497664E+03 -0.20754993284E+03  0.50570314433E+03  0.76656826063E+03  0.25000000000E+03 0.  0.
<mgrwt>
<rscale>  0 0.11830129E+04</rscale>
<asrwt>0</asrwt>
<pdfrwt beam="1">  1        1 0.32715076E-01 0.11830129E+04</pdfrwt>
<pdfrwt beam="2">  1       -1 0.25313042E+00 0.11830129E+04</pdfrwt>
<totfact> 0.90775996E+00</totfact>
</mgrwt>
</event>
<event>
 4    1  0.4047984E-006  0.7179674E+03  0.7818608E-02  0.9686990E-01
         -1   -1    0    0    0  501 -0.00000000000E+00  0.00000000000E+00  0.26668502795E+03  0.26668502800E+03  0.50400000000E-02 0. -1.
          1   -1    0    0  501    0  0.00000000000E+00 -0.00000000000E+00 -0.48322657312E+03  0.48322657315E+03  0.50400000000E-02 0.  1.
   -5000001    1    1    2    0    0  0.16487056226E+03  0.18121503168E+03 -0.25050849642E+02  0.35092554064E+03  0.25000000000E+03 0.  0.
    5000001    1    1    2    0    0 -0.16487056226E+03 -0.18121503168E+03 -0.19149069553E+03  0.39898606051E+03  0.25000000000E+03 0.  0.
<mgrwt>
<rscale>  0 0.71796739E+03</rscale>
<asrwt>0</asrwt>
<pdfrwt beam="1">  1        1 0.74342550E-01 0.71796739E+03</pdfrwt>
<pdfrwt beam="2">  1       -1 0.41028466E-01 0.71796739E+03</pdfrwt>
<totfact> 0.27347415E+02</totfact>
</mgrwt>
</event>
<event>
 4    1  0.4047984E-006  0.7290989E+03  0.7818608E-02  0.9668724E-01
          1   -1    0    0  501    0  0.00000000000E+00  0.00000000000E+00  0.69006252158E+03  0.69006252160E+03  0.50400000000E-02 0.  1.
         -1   -1    0    0    0  501 -0.00000000000E+00 -0.00000000000E+00 -0.19258587050E+03  0.19258587057E+03  0.50400000000E-02 0. -1.
   -5000001    1    1    2    0    0 -0.66949122207E+02 -0.17838675570E+03  0.25211690944E+02  0.31534052853E+03  0.25000000000E+03 0.  0.
    5000001    1    1    2    0    0  0.66949122207E+02  0.17838675570E+03  0.47226496014E+03  0.56730786364E+03  0.25000000000E+03 0.  0.
<mgrwt>
<rscale>  0 0.72909887E+03</rscale>
<asrwt>0</asrwt>
<pdfrwt beam="1">  1        1 0.10616346E+00 0.72909887E+03</pdfrwt>
<pdfrwt beam="2">  1       -1 0.29628596E-01 0.72909887E+03</pdfrwt>
<totfact> 0.29360557E+02</totfact>
</mgrwt>
</event>
<event>
 4    1  0.4047984E-006  0.7949624E+03  0.7818608E-02  0.9567338E-01
          1   -1    0    0  501    0  0.00000000000E+00  0.00000000000E+00  0.18085101738E+03  0.18085101745E+03  0.50400000000E-02 0.  1.
         -1   -1    0    0    0  501 -0.00000000000E+00 -0.00000000000E+00 -0.87359923239E+03  0.87359923241E+03  0.50400000000E-02 0. -1.
   -5000001    1    1    2    0    0  0.29208481154E+03  0.10037097600E+03 -0.35986447771E+03  0.53608797065E+03  0.25000000000E+03 0.  0.
    5000001    1    1    2    0    0 -0.29208481154E+03 -0.10037097600E+03 -0.33288373730E+03  0.51836227921E+03  0.25000000000E+03 0.  0.
<mgrwt>
<rscale>  0 0.79496241E+03</rscale>
<asrwt>0</asrwt>
<pdfrwt beam="1">  1        1 0.27823234E-01 0.79496241E+03</pdfrwt>
<pdfrwt beam="2">  1       -1 0.13439988E+00 0.79496241E+03</pdfrwt>
<totfact> 0.80167992E+01</totfact>
</mgrwt>
</event>
<event>
 4    1  0.4047984E-006  0.7967410E+03  0.7818608E-02  0.9564746E-01
         -1   -1    0    0    0  501 -0.00000000000E+00  0.00000000000E+00  0.90339281198E+02  0.90339281339E+02  0.50400000000E-02 0. -1.
          1   -1    0    0  501    0  0.00000000000E+00 -0.00000000000E+00 -0.17567003136E+04  0.17567003136E+04  0.50400000000E-02 0.  1.
   -5000001    1    1    2    0    0 -0.25666559209E+03  0.16362801598E+03 -0.97126086805E+03  0.10480930434E+04  0.25000000000E+03 0.  0.
    5000001    1    1    2    0    0  0.25666559209E+03 -0.16362801598E+03 -0.69510016435E+03  0.79894655156E+03  0.25000000000E+03 0.  0.
<mgrwt>
<rscale>  0 0.79674097E+03</rscale>
<asrwt>0</asrwt>
<pdfrwt beam="1">  1        1 0.27026156E+00 0.79674097E+03</pdfrwt>
<pdfrwt beam="2">  1       -1 0.13898352E-01 0.79674097E+03</pdfrwt>
<totfact> 0.16563764E+02</totfact>
</mgrwt>
</event>
<event>
 4    1  0.4047984E-006  0.1634628E+04  0.7818608E-02  0.8799552E-01
         -1   -1    0    0    0  501 -0.00000000000E+00  0.00000000000E+00  0.10060932396E+04  0.10060932397E+04  0.50400000000E-02 0. -1.
          1   -1    0    0  501    0  0.00000000000E+00 -0.00000000000E+00 -0.66395680508E+03  0.66395680510E+03  0.50400000000E-02 0.  1.
   -5000001    1    1    2    0    0  0.74767572334E+03 -0.23873676138E+02  0.38998584053E+03  0.87987379521E+03  0.25000000000E+03 0.  0.
    5000001    1    1    2    0    0 -0.74767572334E+03  0.23873676138E+02 -0.47849405967E+02  0.79017624954E+03  0.25000000000E+03 0.  0.
<mgrwt>
<rscale>  0 0.16346283E+04</rscale>
<asrwt>0</asrwt>
<pdfrwt beam="1">  1        1 0.10214720E+00 0.16346283E+04</pdfrwt>
<pdfrwt beam="2">  1       -1 0.15478358E+00 0.16346283E+04</pdfrwt>
<totfact> 0.90446135E+00</totfact>
</mgrwt>
</event>
<event>
 4    1  0.4047984E-006  0.6829106E+03  0.7818608E-02  0.9746912E-01
         -1   -1    0    0    0  501 -0.00000000000E+00  0.00000000000E+00  0.24388790385E+03  0.24388790390E+03  0.50400000000E-02 0. -1.
          1   -1    0    0  501    0  0.00000000000E+00 -0.00000000000E+00 -0.47805461134E+03  0.47805461137E+03  0.50400000000E-02 0.  1.
   -5000001    1    1    2    0    0 -0.21892568953E+03  0.78139102120E+02 -0.12510383170E+03  0.36357275135E+03  0.25000000000E+03 0.  0.
    5000001    1    1    2    0    0  0.21892568953E+03 -0.78139102120E+02 -0.10906287579E+03  0.35836976392E+03  0.25000000000E+03 0.  0.
<mgrwt>
<rscale>  0 0.68291064E+03</rscale>
<asrwt>0</asrwt>
<pdfrwt beam="1">  1        1 0.73546864E-01 0.68291064E+03</pdfrwt>
<pdfrwt beam="2">  1       -1 0.37521216E-01 0.68291064E+03</pdfrwt>
<totfact> 0.32672433E+02</totfact>
</mgrwt>
</event>
<event>
 4    1  0.4047984E-006  0.7477891E+03  0.7818608E-02  0.9638825E-01
          1   -1    0    0  501    0  0.00000000000E+00  0.00000000000E+00  0.28883620825E+03  0.28883620829E+03  0.50400000000E-02 0.  1.
         -1   -1    0    0    0  501 -0.00000000000E+00 -0.00000000000E+00 -0.48400136036E+03  0.48400136038E+03  0.50400000000E-02 0. -1.
   -5000001    1    1    2    0    0 -0.27286250427E+03  0.50940760962E+02 -0.11386500119E+03  0.39053059529E+03  0.25000000000E+03 0.  0.
    5000001    1    1    2    0    0  0.27286250427E+03 -0.50940760962E+02 -0.81300150916E+02  0.38230697339E+03  0.25000000000E+03 0.  0.
<mgrwt>
<rscale>  0 0.74778906E+03</rscale>
<asrwt>0</asrwt>
<pdfrwt beam="1">  1        1 0.44436340E-01 0.74778906E+03</pdfrwt>
<pdfrwt beam="2">  1       -1 0.74461747E-01 0.74778906E+03</pdfrwt>
<totfact> 0.16954324E+02</totfact>
</mgrwt>
</event>
<event>
 4    1  0.4047984E-006  0.9553382E+03  0.7818608E-02  0.9358933E-01
          1   -1    0    0  501    0  0.00000000000E+00  0.00000000000E+00  0.58362930450E+03  0.58362930453E+03  0.50400000000E-02 0.  1.
         -1   -1    0    0    0  501 -0.00000000000E+00 -0.00000000000E+00 -0.39094642841E+03  0.39094642844E+03  0.50400000000E-02 0. -1.
   -5000001    1    1    2    0    0  0.77420657684E+02  0.36455473600E+03  0.26326300328E+03  0.52028984487E+03  0.25000000000E+03 0.  0.
    5000001    1    1    2    0    0 -0.77420657684E+02 -0.36455473600E+03 -0.70580127187E+02  0.45428588810E+03  0.25000000000E+03 0.  0.
<mgrwt>
<rscale>  0 0.95533825E+03</rscale>
<asrwt>0</asrwt>
<pdfrwt beam="1">  1        1 0.89789124E-01 0.95533825E+03</pdfrwt>
<pdfrwt beam="2">  1       -1 0.60145605E-01 0.95533825E+03</pdfrwt>
<totfact> 0.10043523E+02</totfact>
</mgrwt>
</event>
<event>
 4    1  0.4047984E-006  0.8471980E+03  0.7818608E-02  0.9494105E-01
          1   -1    0    0  501    0  0.00000000000E+00  0.00000000000E+00  0.30099982388E+04  0.30099982388E+04  0.50400000000E-02 0. -1.
         -1   -1    0    0    0  501 -0.00000000000E+00 -0.00000000000E+00 -0.59613358332E+02  0.59613358545E+02  0.50400000000E-02 0.  1.
   -5000001    1    1    2    0    0 -0.37788605651E+02 -0.31000481080E+03  0.97046497970E+03  0.10496824464E+04  0.25000000000E+03 0.  0.
    5000001    1    1    2    0    0  0.37788605651E+02  0.31000481080E+03  0.19799199008E+04  0.20199291510E+04  0.25000000000E+03 0.  0.
<mgrwt>
<rscale>  0 0.84719798E+03</rscale>
<asrwt>0</asrwt>
<pdfrwt beam="1">  1        1 0.46307668E+00 0.84719798E+03</pdfrwt>
<pdfrwt beam="2">  1       -1 0.91712854E-02 0.84719798E+03</pdfrwt>
<totfact> 0.44451772E+01</totfact>
</mgrwt>
</event>
<event>
 4    1  0.4047984E-006  0.1495253E+04  0.7818608E-02  0.8887615E-01
          1   -1    0    0  501    0  0.00000000000E+00  0.00000000000E+00  0.74441878266E+03  0.74441878268E+03  0.50400000000E-02 0.  1.
         -1   -1    0    0    0  501 -0.00000000000E+00 -0.00000000000E+00 -0.75084846283E+03  0.75084846285E+03  0.50400000000E-02 0. -1.
   -5000001    1    1    2    0    0 -0.54096080168E+03 -0.40631963007E+03 -0.19996896012E+03  0.74847966956E+03  0.25000000000E+03 0.  0.
    5000001    1    1    2    0    0  0.54096080168E+03  0.40631963007E+03  0.19353927995E+03  0.74678757597E+03  0.25000000000E+03 0.  0.
<mgrwt>
<rscale>  0 0.14952534E+04</rscale>
<asrwt>0</asrwt>
<pdfrwt beam="1">  1        1 0.11452597E+00 0.14952534E+04</pdfrwt>
<pdfrwt beam="2">  1       -1 0.11551515E+00 0.14952534E+04</pdfrwt>
<totfact> 0.16289518E+01</totfact>
</mgrwt>
</event>
<event>
 4    1  0.4047984E-006  0.8614024E+03  0.7818608E-02  0.9475160E-01
         -1   -1    0    0    0  501 -0.00000000000E+00  0.00000000000E+00  0.46328892131E+03  0.46328892134E+03  0.50400000000E-02 0. -1.
          1   -1    0    0  501    0  0.00000000000E+00 -0.00000000000E+00 -0.40040568893E+03  0.40040568896E+03  0.50400000000E-02 0.  1.
   -5000001    1    1    2    0    0 -0.18827213744E+03  0.29192002133E+03  0.79942053370E+02  0.43537848877E+03  0.25000000000E+03 0.  0.
    5000001    1    1    2    0    0  0.18827213744E+03 -0.29192002133E+03 -0.17058820981E+02  0.42831612153E+03  0.25000000000E+03 0.  0.
<mgrwt>
<rscale>  0 0.86140239E+03</rscale>
<asrwt>0</asrwt>
<pdfrwt beam="1">  1        1 0.61600875E-01 0.86140239E+03</pdfrwt>
<pdfrwt beam="2">  1       -1 0.71275219E-01 0.86140239E+03</pdfrwt>
<totfact> 0.12030937E+02</totfact>
</mgrwt>
</event>
<event>
 4    1  0.4047984E-006  0.6680265E+03  0.7818608E-02  0.9773529E-01
         -1   -1    0    0    0  501 -0.00000000000E+00  0.00000000000E+00  0.33813248687E+03  0.33813248690E+03  0.50400000000E-02 0. -1.
          1   -1    0    0  501    0  0.00000000000E+00 -0.00000000000E+00 -0.32994423808E+03  0.32994423812E+03  0.50400000000E-02 0.  1.
   -5000001    1    1    2    0    0  0.13759350878E+03 -0.17288056871E+03  0.19754198405E+02  0.33423029942E+03  0.25000000000E+03 0.  0.
    5000001    1    1    2    0    0 -0.13759350878E+03  0.17288056871E+03 -0.11565949618E+02  0.33384642560E+03  0.25000000000E+03 0.  0.
<mgrwt>
<rscale>  0 0.66802654E+03</rscale>
<asrwt>0</asrwt>
<pdfrwt beam="1">  1        1 0.50760652E-01 0.66802654E+03</pdfrwt>
<pdfrwt beam="2">  1       -1 0.52020383E-01 0.66802654E+03</pdfrwt>
<totfact> 0.29200979E+02</totfact>
</mgrwt>
</event>
<event>
 4    1  0.4047984E-006  0.5475083E+03  0.7818608E-02  0.1002072E+00
         -1   -1    0    0    0  501 -0.00000000000E+00  0.00000000000E+00  0.17993041740E+03  0.17993041747E+03  0.50400000000E-02 0.  1.
          1   -1    0    0  501    0  0.00000000000E+00 -0.00000000000E+00 -0.41650174406E+03  0.41650174409E+03  0.50400000000E-02 0. -1.
   -5000001    1    1    2    0    0  0.67021304401E+02  0.78889865452E+02 -0.73029893097E+02  0.28026564435E+03  0.25000000000E+03 0.  0.
    5000001    1    1    2    0    0 -0.67021304401E+02 -0.78889865452E+02 -0.16354143357E+03  0.31616651722E+03  0.25000000000E+03 0.  0.
<mgrwt>
<rscale>  0 0.54750829E+03</rscale>
<asrwt>0</asrwt>
<pdfrwt beam="1">  1        1 0.64077191E-01 0.54750829E+03</pdfrwt>
<pdfrwt beam="2">  1       -1 0.27681603E-01 0.54750829E+03</pdfrwt>
<totfact> 0.67282264E+02</totfact>
</mgrwt>
</event>
<event>
 4    1  0.4047984E-006  0.6363475E+03  0.7818608E-02  0.9832740E-01
          1   -1    0    0  501    0  0.00000000000E+00  0.00000000000E+00  0.69952881943E+03  0.69952881945E+03  0.50400000000E-02 0.  1.
         -1   -1    0    0    0  501 -0.00000000000E+00 -0.00000000000E+00 -0.14471816173E+03  0.14471816182E+03  0.50400000000E-02 0. -1.
   -5000001    1    1    2    0    0 -0.72209156351E+01  0.18685793856E+03  0.19598294022E+03  0.36861544146E+03  0.25000000000E+03 0.  0.
    5000001    1    1    2    0    0  0.72209156351E+01 -0.18685793856E+03  0.35882771748E+03  0.47563153980E+03  0.25000000000E+03 0.  0.
<mgrwt>
<rscale>  0 0.63634747E+03</rscale>
<asrwt>0</asrwt>
<pdfrwt beam="1">  1        1 0.10761982E+00 0.63634747E+03</pdfrwt>
<pdfrwt beam="2">  1       -1 0.22264332E-01 0.63634747E+03</pdfrwt>
<totfact> 0.47050366E+02</totfact>
</mgrwt>
</event>
<event>
 4    1  0.4047984E-006  0.1096159E+04  0.7818608E-02  0.9208944E-01
         -1   -1    0    0    0  501 -0.00000000000E+00  0.00000000000E+00  0.20623789672E+03  0.20623789678E+03  0.50400000000E-02 0. -1.
          1   -1    0    0  501    0  0.00000000000E+00 -0.00000000000E+00 -0.14565268986E+04  0.14565268987E+04  0.50400000000E-02 0.  1.
   -5000001    1    1    2    0    0  0.41949275614E+03  0.82242137265E+02 -0.26890480700E+03  0.56351374146E+03  0.25000000000E+03 0.  0.
    5000001    1    1    2    0    0 -0.41949275614E+03 -0.82242137265E+02 -0.98138419493E+03  0.10992510540E+04  0.25000000000E+03 0.  0.
<mgrwt>
<rscale>  0 0.10961588E+04</rscale>
<asrwt>0</asrwt>
<pdfrwt beam="1">  1        1 0.22408105E+00 0.10961588E+04</pdfrwt>
<pdfrwt beam="2">  1       -1 0.31728908E-01 0.10961588E+04</pdfrwt>
<totfact> 0.64591456E+01</totfact>
</mgrwt>
</event>
<event>
 4    1  0.4047984E-006  0.1631305E+04  0.7818608E-02  0.8801544E-01
         -1   -1    0    0    0  501 -0.00000000000E+00  0.00000000000E+00  0.57211403100E+03  0.57211403102E+03  0.50400000000E-02 0. -1.
          1   -1    0    0  501    0  0.00000000000E+00 -0.00000000000E+00 -0.11628608722E+04  0.11628608722E+04  0.50400000000E-02 0.  1.
   -5000001    1    1    2    0    0 -0.25933726774E+03 -0.72486389058E+03 -0.40228822519E+03  0.90389119612E+03  0.25000000000E+03 0.  0.
    5000001    1    1    2    0    0  0.25933726774E+03  0.72486389058E+03 -0.18845861603E+03  0.83108370713E+03  0.25000000000E+03 0.  0.
<mgrwt>
<rscale>  0 0.16313050E+04</rscale>
<asrwt>0</asrwt>
<pdfrwt beam="1">  1        1 0.17890167E+00 0.16313050E+04</pdfrwt>
<pdfrwt beam="2">  1       -1 0.88017544E-01 0.16313050E+04</pdfrwt>
<totfact> 0.13819260E+01</totfact>
</mgrwt>
</event>
<event>
 4    1  0.4047984E-006  0.6879069E+03  0.7818608E-02  0.9738139E-01
         -1   -1    0    0    0  501 -0.00000000000E+00  0.00000000000E+00  0.11050481302E+03  0.11050481314E+03  0.50400000000E-02 0.  1.
          1   -1    0    0  501    0  0.00000000000E+00 -0.00000000000E+00 -0.10705776660E+04  0.10705776660E+04  0.50400000000E-02 0. -1.
   -5000001    1    1    2    0    0  0.48962065953E+02 -0.19579437263E+03 -0.26925837165E+03  0.41920495102E+03  0.25000000000E+03 0.  0.
    5000001    1    1    2    0    0 -0.48962065953E+02  0.19579437263E+03 -0.69081448128E+03  0.76187752808E+03  0.25000000000E+03 0.  0.
<mgrwt>
<rscale>  0 0.68790693E+03</rscale>
<asrwt>0</asrwt>
<pdfrwt beam="1">  1        1 0.16470425E+00 0.68790693E+03</pdfrwt>
<pdfrwt beam="2">  1       -1 0.17000741E-01 0.68790693E+03</pdfrwt>
<totfact> 0.36253110E+02</totfact>
</mgrwt>
</event>
<event>
 4    1  0.4047984E-006  0.6244141E+03  0.7818608E-02  0.9856010E-01
         -1   -1    0    0    0  501 -0.00000000000E+00  0.00000000000E+00  0.14786569998E+03  0.14786570006E+03  0.50400000000E-02 0.  1.
          1   -1    0    0  501    0  0.00000000000E+00 -0.00000000000E+00 -0.65920116812E+03  0.65920116814E+03  0.50400000000E-02 0. -1.
   -5000001    1    1    2    0    0  0.12467992700E+03  0.13618653703E+03 -0.21729527104E+03  0.37922169226E+03  0.25000000000E+03 0.  0.
    5000001    1    1    2    0    0 -0.12467992700E+03 -0.13618653703E+03 -0.29404019710E+03  0.42784517594E+03  0.25000000000E+03 0.  0.
<mgrwt>
<rscale>  0 0.62441410E+03</rscale>
<asrwt>0</asrwt>
<pdfrwt beam="1">  1        1 0.10141556E+00 0.62441410E+03</pdfrwt>
<pdfrwt beam="2">  1       -1 0.22748570E-01 0.62441410E+03</pdfrwt>
<totfact> 0.49596370E+02</totfact>
</mgrwt>
</event>
<event>
 4    1  0.4047984E-006  0.7881835E+03  0.7818608E-02  0.9577280E-01
         -1   -1    0    0    0  501 -0.00000000000E+00  0.00000000000E+00  0.53916321607E+02  0.53916321843E+02  0.50400000000E-02 0.  1.
          1   -1    0    0  501    0  0.00000000000E+00 -0.00000000000E+00 -0.28805433796E+04  0.28805433796E+04  0.50400000000E-02 0. -1.
   -5000001    1    1    2    0    0  0.10375357265E+02 -0.30089478772E+03 -0.15864654437E+04  0.16340189489E+04  0.25000000000E+03 0.  0.
    5000001    1    1    2    0    0 -0.10375357265E+02  0.30089478772E+03 -0.12401616143E+04  0.13004407525E+04  0.25000000000E+03 0.  0.
<mgrwt>
<rscale>  0 0.78818349E+03</rscale>
<asrwt>0</asrwt>
<pdfrwt beam="1">  1        1 0.44316040E+00 0.78818349E+03</pdfrwt>
<pdfrwt beam="2">  1       -1 0.82948210E-02 0.78818349E+03</pdfrwt>
<totfact> 0.64858262E+01</totfact>
</mgrwt>
</event>
<event>
 4    1  0.4047984E-006  0.1014223E+04  0.7818608E-02  0.9293081E-01
          1   -1    0    0  501    0  0.00000000000E+00  0.00000000000E+00  0.17688224221E+03  0.17688224228E+03  0.50400000000E-02 0.  1.
         -1   -1    0    0    0  501 -0.00000000000E+00 -0.00000000000E+00 -0.14538608174E+04  0.14538608174E+04  0.50400000000E-02 0. -1.
   -5000001    1    1    2    0    0 -0.10220213473E+03 -0.39274326564E+03 -0.91684015041E+03  0.10333384782E+04  0.25000000000E+03 0.  0.
    5000001    1    1    2    0    0  0.10220213473E+03  0.39274326564E+03 -0.36013842480E+03  0.59740458156E+03  0.25000000000E+03 0.  0.
<mgrwt>
<rscale>  0 0.10142232E+04</rscale>
<asrwt>0</asrwt>
<pdfrwt beam="1">  1        1 0.27212654E-01 0.10142232E+04</pdfrwt>
<pdfrwt beam="2">  1       -1 0.22367089E+00 0.10142232E+04</pdfrwt>
<totfact> 0.18265106E+01</totfact>
</mgrwt>
</event>
<event>
 4    1  0.4047984E-006  0.8061093E+03  0.7818608E-02  0.9551216E-01
          1   -1    0    0  501    0  0.00000000000E+00  0.00000000000E+00  0.69700230845E+03  0.69700230847E+03  0.50400000000E-02 0.  1.
         -1   -1    0    0    0  501 -0.00000000000E+00 -0.00000000000E+00 -0.23307390706E+03  0.23307390711E+03  0.50400000000E-02 0. -1.
   -5000001    1    1    2    0    0  0.11821303335E+03  0.28530342545E+03  0.15387520413E+03  0.42608678021E+03  0.25000000000E+03 0.  0.
    5000001    1    1    2    0    0 -0.11821303335E+03 -0.28530342545E+03  0.31005319727E+03  0.50398943537E+03  0.25000000000E+03 0.  0.
<mgrwt>
<rscale>  0 0.80610930E+03</rscale>
<asrwt>0</asrwt>
<pdfrwt beam="1">  1        1 0.10723112E+00 0.80610930E+03</pdfrwt>
<pdfrwt beam="2">  1       -1 0.35857524E-01 0.80610930E+03</pdfrwt>
<totfact> 0.20576686E+02</totfact>
</mgrwt>
</event>
<event>
 4    1  0.4047984E-006  0.5602855E+03  0.7818608E-02  0.9991409E-01
         -1   -1    0    0    0  501 -0.00000000000E+00  0.00000000000E+00  0.13736544578E+03  0.13736544587E+03  0.50400000000E-02 0. -1.
          1   -1    0    0  501    0  0.00000000000E+00 -0.00000000000E+00 -0.57132242040E+03  0.57132242042E+03  0.50400000000E-02 0.  1.
   -5000001    1    1    2    0    0  0.41949751535E+02  0.10541270998E+03 -0.14645890502E+03  0.31116206700E+03  0.25000000000E+03 0.  0.
    5000001    1    1    2    0    0 -0.41949751535E+02 -0.10541270998E+03 -0.28749806960E+03  0.39752579930E+03  0.25000000000E+03 0.  0.
<mgrwt>
<rscale>  0 0.56028550E+03</rscale>
<asrwt>0</asrwt>
<pdfrwt beam="1">  1        1 0.87895756E-01 0.56028550E+03</pdfrwt>
<pdfrwt beam="2">  1       -1 0.21133146E-01 0.56028550E+03</pdfrwt>
<totfact> 0.69065089E+02</totfact>
</mgrwt>
</event>
<event>
 4    1  0.4047984E-006  0.2041027E+04  0.7818608E-02  0.8587676E-01
          1   -1    0    0  501    0  0.00000000000E+00  0.00000000000E+00  0.11178171070E+04  0.11178171070E+04  0.50400000000E-02 0.  1.
         -1   -1    0    0    0  501 -0.00000000000E+00 -0.00000000000E+00 -0.93167966519E+03  0.93167966521E+03  0.50400000000E-02 0. -1.
   -5000001    1    1    2    0    0 -0.31458172182E+03 -0.70398116406E+03 -0.52950125781E+03  0.96820592907E+03  0.25000000000E+03 0.  0.
    5000001    1    1    2    0    0  0.31458172182E+03  0.70398116406E+03  0.71563869957E+03  0.10812908431E+04  0.25000000000E+03 0.  0.
<mgrwt>
<rscale>  0 0.20410267E+04</rscale>
<asrwt>0</asrwt>
<pdfrwt beam="1">  1        1 0.17197186E+00 0.20410267E+04</pdfrwt>
<pdfrwt beam="2">  1       -1 0.14333533E+00 0.20410267E+04</pdfrwt>
<totfact> 0.44774152E+00</totfact>
</mgrwt>
</event>
<event>
 4    1  0.4047984E-006  0.8326974E+03  0.7818608E-02  0.9513859E-01
         -1   -1    0    0    0  501 -0.00000000000E+00  0.00000000000E+00  0.26740238707E+03  0.26740238712E+03  0.50400000000E-02 0.  1.
          1   -1    0    0  501    0  0.00000000000E+00 -0.00000000000E+00 -0.64825981704E+03  0.64825981706E+03  0.50400000000E-02 0. -1.
   -5000001    1    1    2    0    0  0.19113871683E+03  0.15769735280E+03 -0.43494277629E+03  0.55953345101E+03  0.25000000000E+03 0.  0.
    5000001    1    1    2    0    0 -0.19113871683E+03 -0.15769735280E+03  0.54085346316E+02  0.35612875317E+03  0.25000000000E+03 0.  0.
<mgrwt>
<rscale>  0 0.83269736E+03</rscale>
<asrwt>0</asrwt>
<pdfrwt beam="1">  1        1 0.99732279E-01 0.83269736E+03</pdfrwt>
<pdfrwt beam="2">  1       -1 0.41138829E-01 0.83269736E+03</pdfrwt>
<totfact> 0.17858641E+02</totfact>
</mgrwt>
</event>
<event>
 4    1  0.4047984E-006  0.1016419E+04  0.7818608E-02  0.9290718E-01
          1   -1    0    0  501    0  0.00000000000E+00  0.00000000000E+00  0.22832161633E+04  0.22832161633E+04  0.50400000000E-02 0.  1.
         -1   -1    0    0    0  501 -0.00000000000E+00 -0.00000000000E+00 -0.11311975280E+03  0.11311975292E+03  0.50400000000E-02 0. -1.
   -5000001    1    1    2    0    0 -0.43346750353E+03  0.55244707383E+02  0.12489124550E+04  0.13465616861E+04  0.25000000000E+03 0.  0.
    5000001    1    1    2    0    0  0.43346750353E+03 -0.55244707383E+02  0.92118395559E+03  0.10497742302E+04  0.25000000000E+03 0.  0.
<mgrwt>
<rscale>  0 0.10164189E+04</rscale>
<asrwt>0</asrwt>
<pdfrwt beam="1">  1        1 0.35126404E+00 0.10164189E+04</pdfrwt>
<pdfrwt beam="2">  1       -1 0.17403038E-01 0.10164189E+04</pdfrwt>
<totfact> 0.49768204E+01</totfact>
</mgrwt>
</event>
<event>
 4    1  0.4047984E-006  0.6528283E+03  0.7818608E-02  0.9801487E-01
         -1   -1    0    0    0  501 -0.00000000000E+00  0.00000000000E+00  0.11127352348E+03  0.11127352360E+03  0.50400000000E-02 0. -1.
          1   -1    0    0  501    0  0.00000000000E+00 -0.00000000000E+00 -0.95751603711E+03  0.95751603712E+03  0.50400000000E-02 0.  1.
   -5000001    1    1    2    0    0 -0.68034992242E+02  0.23259968155E+02 -0.74592329139E+03  0.78998186241E+03  0.25000000000E+03 0.  0.
    5000001    1    1    2    0    0  0.68034992242E+02 -0.23259968155E+02 -0.10031922223E+03  0.27880769831E+03  0.25000000000E+03 0.  0.
<mgrwt>
<rscale>  0 0.65282826E+03</rscale>
<asrwt>0</asrwt>
<pdfrwt beam="1">  1        1 0.14731015E+00 0.65282826E+03</pdfrwt>
<pdfrwt beam="2">  1       -1 0.17119004E-01 0.65282826E+03</pdfrwt>
<totfact> 0.43862656E+02</totfact>
</mgrwt>
</event>
<event>
 4    1  0.4047984E-006  0.8371353E+03  0.7818608E-02  0.9507768E-01
         -1   -1    0    0    0  501 -0.00000000000E+00  0.00000000000E+00  0.10329560001E+03  0.10329560013E+03  0.50400000000E-02 0.  1.
          1   -1    0    0  501    0  0.00000000000E+00 -0.00000000000E+00 -0.16960923045E+04  0.16960923045E+04  0.50400000000E-02 0. -1.
   -5000001    1    1    2    0    0  0.10419198591E+03  0.23453010659E+03 -0.33120790980E+03  0.48791292291E+03  0.25000000000E+03 0.  0.
    5000001    1    1    2    0    0 -0.10419198591E+03 -0.23453010659E+03 -0.12615887947E+04  0.13114749817E+04  0.25000000000E+03 0.  0.
<mgrwt>
<rscale>  0 0.83713529E+03</rscale>
<asrwt>0</asrwt>
<pdfrwt beam="1">  1        1 0.26093726E+00 0.83713529E+03</pdfrwt>
<pdfrwt beam="2">  1       -1 0.15891632E-01 0.83713529E+03</pdfrwt>
<totfact> 0.14582866E+02</totfact>
</mgrwt>
</event>
<event>
 4    1  0.4047984E-006  0.5993417E+03  0.7818608E-02  0.9906773E-01
         -1   -1    0    0    0  501 -0.00000000000E+00  0.00000000000E+00  0.45472857290E+03  0.45472857293E+03  0.50400000000E-02 0. -1.
          1   -1    0    0  501    0  0.00000000000E+00 -0.00000000000E+00 -0.19748621843E+03  0.19748621849E+03  0.50400000000E-02 0.  1.
   -5000001    1    1    2    0    0 -0.11989013527E+03  0.76148315518E+02  0.36730054577E+02  0.28986429135E+03  0.25000000000E+03 0.  0.
    5000001    1    1    2    0    0  0.11989013527E+03 -0.76148315518E+02  0.22051229990E+03  0.36235050006E+03  0.25000000000E+03 0.  0.
<mgrwt>
<rscale>  0 0.59934173E+03</rscale>
<asrwt>0</asrwt>
<pdfrwt beam="1">  1        1 0.30382495E-01 0.59934173E+03</pdfrwt>
<pdfrwt beam="2">  1       -1 0.69958241E-01 0.59934173E+03</pdfrwt>
<totfact> 0.31703109E+02</totfact>
</mgrwt>
</event>
<event>
 4    1  0.4047984E-006  0.7994289E+03  0.7818608E-02  0.9560844E-01
          1   -1    0    0  501    0  0.00000000000E+00  0.00000000000E+00  0.44781374169E+04  0.44781374169E+04  0.50400000000E-02 0. -1.
         -1   -1    0    0    0  501 -0.00000000000E+00 -0.00000000000E+00 -0.35678148459E+02  0.35678148815E+02  0.50400000000E-02 0.  1.
   -5000001    1    1    2    0    0  0.11485062652E+03  0.16354467833E+03  0.86924877802E+03  0.92629960937E+03  0.25000000000E+03 0.  0.
    5000001    1    1    2    0    0 -0.11485062652E+03 -0.16354467833E+03  0.35732104905E+04  0.35875159564E+04  0.25000000000E+03 0.  0.
<mgrwt>
<rscale>  0 0.79942893E+03</rscale>
<asrwt>0</asrwt>
<pdfrwt beam="1">  1        1 0.68894468E+00 0.79942893E+03</pdfrwt>
<pdfrwt beam="2">  1       -1 0.54889423E-02 0.79942893E+03</pdfrwt>
<totfact> 0.60700585E+00</totfact>
</mgrwt>
</event>
<event>
 4    1  0.4047984E-006  0.6635384E+03  0.7818608E-02  0.9781702E-01
         -1   -1    0    0    0  501 -0.00000000000E+00  0.00000000000E+00  0.46999165348E+03  0.46999165351E+03  0.50400000000E-02 0. -1.
          1   -1    0    0  501    0  0.00000000000E+00 -0.00000000000E+00 -0.23419737545E+03  0.23419737551E+03  0.50400000000E-02 0.  1.
   -5000001    1    1    2    0    0 -0.19355420258E+03  0.59034676933E+02  0.20426134973E+03  0.38101315123E+03  0.25000000000E+03 0.  0.
    5000001    1    1    2    0    0  0.19355420258E+03 -0.59034676933E+02  0.31532928294E+02  0.32317587778E+03  0.25000000000E+03 0.  0.
<mgrwt>
<rscale>  0 0.66353843E+03</rscale>
<asrwt>0</asrwt>
<pdfrwt beam="1">  1        1 0.36030365E-01 0.66353843E+03</pdfrwt>
<pdfrwt beam="2">  1       -1 0.72306408E-01 0.66353843E+03</pdfrwt>
<totfact> 0.23715286E+02</totfact>
</mgrwt>
</event>
<event>
 4    1  0.4047984E-006  0.1401245E+04  0.7818608E-02  0.8952918E-01
         -1   -1    0    0    0  501 -0.00000000000E+00  0.00000000000E+00  0.44358448828E+03  0.44358448831E+03  0.50400000000E-02 0. -1.
          1   -1    0    0  501    0  0.00000000000E+00 -0.00000000000E+00 -0.11066022152E+04  0.11066022152E+04  0.50400000000E-02 0.  1.
   -5000001    1    1    2    0    0 -0.27408032430E+03  0.31895945139E+03  0.22331258460E+03  0.53779518987E+03  0.25000000000E+03 0.  0.
    5000001    1    1    2    0    0  0.27408032430E+03 -0.31895945139E+03 -0.88633031153E+03  0.10123915137E+04  0.25000000000E+03 0.  0.
<mgrwt>
<rscale>  0 0.14012446E+04</rscale>
<asrwt>0</asrwt>
<pdfrwt beam="1">  1        1 0.17024649E+00 0.14012446E+04</pdfrwt>
<pdfrwt beam="2">  1       -1 0.68243767E-01 0.14012446E+04</pdfrwt>
<totfact> 0.26564887E+01</totfact>
</mgrwt>
</event>
<event>
 4    1  0.4047984E-006  0.9788106E+03  0.7818608E-02  0.9332095E-01
          1   -1    0    0  501    0  0.00000000000E+00  0.00000000000E+00  0.76365604741E+03  0.76365604742E+03  0.50400000000E-02 0.  1.
         -1   -1    0    0    0  501 -0.00000000000E+00 -0.00000000000E+00 -0.31364584207E+03  0.31364584211E+03  0.50400000000E-02 0. -1.
   -5000001    1    1    2    0    0  0.40099893860E+03  0.11295951933E+03  0.28972271891E+03  0.56568476700E+03  0.25000000000E+03 0.  0.
    5000001    1    1    2    0    0 -0.40099893860E+03 -0.11295951933E+03  0.16028748643E+03  0.51161712253E+03  0.25000000000E+03 0.  0.
<mgrwt>
<rscale>  0 0.97881059E+03</rscale>
<asrwt>0</asrwt>
<pdfrwt beam="1">  1        1 0.11748555E+00 0.97881059E+03</pdfrwt>
<pdfrwt beam="2">  1       -1 0.48253207E-01 0.97881059E+03</pdfrwt>
<totfact> 0.10259009E+02</totfact>
</mgrwt>
</event>
<event>
 4    1  0.4047984E-006  0.7070187E+03  0.7818608E-02  0.9705304E-01
         -1   -1    0    0    0  501 -0.00000000000E+00  0.00000000000E+00  0.13835757910E+03  0.13835757919E+03  0.50400000000E-02 0. -1.
          1   -1    0    0  501    0  0.00000000000E+00 -0.00000000000E+00 -0.90323114523E+03  0.90323114524E+03  0.50400000000E-02 0.  1.
   -5000001    1    1    2    0    0 -0.10995443252E+03  0.13108391894E+03 -0.11402128233E+03  0.32368784942E+03  0.25000000000E+03 0.  0.
    5000001    1    1    2    0    0  0.10995443252E+03 -0.13108391894E+03 -0.65085228379E+03  0.71790087502E+03  0.25000000000E+03 0.  0.
<mgrwt>
<rscale>  0 0.70701874E+03</rscale>
<asrwt>0</asrwt>
<pdfrwt beam="1">  1        1 0.13895863E+00 0.70701874E+03</pdfrwt>
<pdfrwt beam="2">  1       -1 0.21285782E-01 0.70701874E+03</pdfrwt>
<totfact> 0.33695268E+02</totfact>
</mgrwt>
</event>
<event>
 4    1  0.4047984E-006  0.6544465E+03  0.7818608E-02  0.9798471E-01
          1   -1    0    0  501    0  0.00000000000E+00  0.00000000000E+00  0.95217677685E+03  0.95217677686E+03  0.50400000000E-02 0.  1.
         -1   -1    0    0    0  501 -0.00000000000E+00 -0.00000000000E+00 -0.11245293006E+03  0.11245293018E+03  0.50400000000E-02 0. -1.
   -5000001    1    1    2    0    0 -0.12215252145E+03  0.13338783092E+03  0.59703368981E+03  0.67205861255E+03  0.25000000000E+03 0.  0.
    5000001    1    1    2    0    0  0.12215252145E+03 -0.13338783092E+03  0.24269015698E+03  0.39257109449E+03  0.25000000000E+03 0.  0.
<mgrwt>
<rscale>  0 0.65444654E+03</rscale>
<asrwt>0</asrwt>
<pdfrwt beam="1">  1        1 0.14648873E+00 0.65444654E+03</pdfrwt>
<pdfrwt beam="2">  1       -1 0.17300451E-01 0.65444654E+03</pdfrwt>
<totfact> 0.43527098E+02</totfact>
</mgrwt>
</event>
<event>
 4    1  0.4047984E-006  0.7530810E+03  0.7818608E-02  0.9630529E-01
          1   -1    0    0  501    0  0.00000000000E+00  0.00000000000E+00  0.15925538309E+03  0.15925538317E+03  0.50400000000E-02 0.  1.
         -1   -1    0    0    0  501 -0.00000000000E+00 -0.00000000000E+00 -0.89028532524E+03  0.89028532526E+03  0.50400000000E-02 0. -1.
   -5000001    1    1    2    0    0 -0.18351877936E+03 -0.18410487580E+03 -0.21470946077E+03  0.41973074728E+03  0.25000000000E+03 0.  0.
    5000001    1    1    2    0    0  0.18351877936E+03  0.18410487580E+03 -0.51632048138E+03  0.62980996115E+03  0.25000000000E+03 0.  0.
<mgrwt>
<rscale>  0 0.75308095E+03</rscale>
<asrwt>0</asrwt>
<pdfrwt beam="1">  1        1 0.24500829E-01 0.75308095E+03</pdfrwt>
<pdfrwt beam="2">  1       -1 0.13696697E+00 0.75308095E+03</pdfrwt>
<totfact> 0.90426518E+01</totfact>
</mgrwt>
</event>
<event>
 4    1  0.4047984E-006  0.1664257E+04  0.7818608E-02  0.8782017E-01
          1   -1    0    0  501    0  0.00000000000E+00  0.00000000000E+00  0.76616991345E+03  0.76616991347E+03  0.50400000000E-02 0.  1.
         -1   -1    0    0    0  501 -0.00000000000E+00 -0.00000000000E+00 -0.90376549026E+03  0.90376549028E+03  0.50400000000E-02 0. -1.
   -5000001    1    1    2    0    0  0.72433660362E+02 -0.55860470668E+03 -0.62985856633E+03  0.88119672438E+03  0.25000000000E+03 0.  0.
    5000001    1    1    2    0    0 -0.72433660362E+02  0.55860470668E+03  0.49226298952E+03  0.78873867937E+03  0.25000000000E+03 0.  0.
<mgrwt>
<rscale>  0 0.16642571E+04</rscale>
<asrwt>0</asrwt>
<pdfrwt beam="1">  1        1 0.11787229E+00 0.16642571E+04</pdfrwt>
<pdfrwt beam="2">  1       -1 0.13904085E+00 0.16642571E+04</pdfrwt>
<totfact> 0.96492489E+00</totfact>
</mgrwt>
</event>
<event>
 4    1  0.4047984E-006  0.7924240E+03  0.7818608E-02  0.9571048E-01
          1   -1    0    0  501    0  0.00000000000E+00  0.00000000000E+00  0.31278458281E+03  0.31278458285E+03  0.50400000000E-02 0. -1.
         -1   -1    0    0    0  501 -0.00000000000E+00 -0.00000000000E+00 -0.50189163681E+03  0.50189163683E+03  0.50400000000E-02 0.  1.
   -5000001    1    1    2    0    0 -0.17845951520E+03  0.11587538021E+02  0.16247065953E+03  0.34767626438E+03  0.25000000000E+03 0.  0.
    5000001    1    1    2    0    0  0.17845951520E+03 -0.11587538021E+02 -0.35157771353E+03  0.46699995530E+03  0.25000000000E+03 0.  0.
<mgrwt>
<rscale>  0 0.79242404E+03</rscale>
<asrwt>0</asrwt>
<pdfrwt beam="1">  1        1 0.48120705E-01 0.79242404E+03</pdfrwt>
<pdfrwt beam="2">  1       -1 0.77214098E-01 0.79242404E+03</pdfrwt>
<totfact> 0.14139533E+02</totfact>
</mgrwt>
</event>
<event>
 4    1  0.4047984E-006  0.5920993E+03  0.7818608E-02  0.9921934E-01
         -1   -1    0    0    0  501 -0.00000000000E+00  0.00000000000E+00  0.44954039642E+03  0.44954039645E+03  0.50400000000E-02 0. -1.
          1   -1    0    0  501    0  0.00000000000E+00 -0.00000000000E+00 -0.19496669048E+03  0.19496669055E+03  0.50400000000E-02 0.  1.
   -5000001    1    1    2    0    0  0.39449394509E+02 -0.14511421038E+03  0.18204899820E+03  0.34388403064E+03  0.25000000000E+03 0.  0.
    5000001    1    1    2    0    0 -0.39449394509E+02  0.14511421038E+03  0.72524707729E+02  0.30062305636E+03  0.25000000000E+03 0.  0.
<mgrwt>
<rscale>  0 0.59209933E+03</rscale>
<asrwt>0</asrwt>
<pdfrwt beam="1">  1        1 0.29994876E-01 0.59209933E+03</pdfrwt>
<pdfrwt beam="2">  1       -1 0.69160060E-01 0.59209933E+03</pdfrwt>
<totfact> 0.33003159E+02</totfact>
</mgrwt>
</event>
<event>
 4    1  0.4047984E-006  0.1854442E+04  0.7818608E-02  0.8677872E-01
          1   -1    0    0  501    0  0.00000000000E+00  0.00000000000E+00  0.69883812235E+03  0.69883812237E+03  0.50400000000E-02 0.  1.
         -1   -1    0    0    0  501 -0.00000000000E+00 -0.00000000000E+00 -0.12302401177E+04  0.12302401177E+04  0.50400000000E-02 0. -1.
   -5000001    1    1    2    0    0  0.38075934435E+03 -0.77408233725E+03 -0.26088090160E+02  0.89853309989E+03  0.25000000000E+03 0.  0.
    5000001    1    1    2    0    0 -0.38075934435E+03  0.77408233725E+03 -0.50531390514E+03  0.10305451401E+04  0.25000000000E+03 0.  0.
<mgrwt>
<rscale>  0 0.18544419E+04</rscale>
<asrwt>0</asrwt>
<pdfrwt beam="1">  1        1 0.10751356E+00 0.18544419E+04</pdfrwt>
<pdfrwt beam="2">  1       -1 0.18926771E+00 0.18544419E+04</pdfrwt>
<totfact> 0.45864391E+00</totfact>
</mgrwt>
</event>
<event>
 4    1  0.4047984E-006  0.9089608E+03  0.7818608E-02  0.9414449E-01
         -1   -1    0    0    0  501 -0.00000000000E+00  0.00000000000E+00  0.12818416582E+04  0.12818416582E+04  0.50400000000E-02 0.  1.
          1   -1    0    0  501    0  0.00000000000E+00 -0.00000000000E+00 -0.16113723376E+03  0.16113723383E+03  0.50400000000E-02 0. -1.
   -5000001    1    1    2    0    0 -0.18253128643E+03  0.28214372718E+03  0.84044509148E+03  0.93902646667E+03  0.25000000000E+03 0.  0.
    5000001    1    1    2    0    0  0.18253128643E+03 -0.28214372718E+03  0.28025933293E+03  0.50395242534E+03  0.25000000000E+03 0.  0.
<mgrwt>
<rscale>  0 0.90896077E+03</rscale>
<asrwt>0</asrwt>
<pdfrwt beam="1">  1        1 0.24790343E-01 0.90896077E+03</pdfrwt>
<pdfrwt beam="2">  1       -1 0.19720642E+00 0.90896077E+03</pdfrwt>
<totfact> 0.31416539E+01</totfact>
</mgrwt>
</event>
<event>
 4    1  0.4047984E-006  0.6086113E+03  0.7818608E-02  0.9887700E-01
         -1   -1    0    0    0  501 -0.00000000000E+00  0.00000000000E+00  0.77041338754E+02  0.77041338919E+02  0.50400000000E-02 0. -1.
          1   -1    0    0  501    0  0.00000000000E+00 -0.00000000000E+00 -0.12019772246E+04  0.12019772246E+04  0.50400000000E-02 0.  1.
   -5000001    1    1    2    0    0  0.11101347227E+03  0.12037790243E+03 -0.68295587740E+03  0.74548209964E+03  0.25000000000E+03 0.  0.
    5000001    1    1    2    0    0 -0.11101347227E+03 -0.12037790243E+03 -0.44198000841E+03  0.53353646384E+03  0.25000000000E+03 0.  0.
<mgrwt>
<rscale>  0 0.60861132E+03</rscale>
<asrwt>0</asrwt>
<pdfrwt beam="1">  1        1 0.18491956E+00 0.60861132E+03</pdfrwt>
<pdfrwt beam="2">  1       -1 0.11852515E-01 0.60861132E+03</pdfrwt>
<totfact> 0.52218981E+02</totfact>
</mgrwt>
</event>
<event>
 4    1  0.4047984E-006  0.7696208E+03  0.7818608E-02  0.9605061E-01
         -1   -1    0    0    0  501 -0.00000000000E+00  0.00000000000E+00  0.31293506955E+03  0.31293506959E+03  0.50400000000E-02 0.  1.
          1   -1    0    0  501    0  0.00000000000E+00 -0.00000000000E+00 -0.47319415821E+03  0.47319415824E+03  0.50400000000E-02 0. -1.
   -5000001    1    1    2    0    0  0.61737257620E+02  0.76248113820E+02 -0.36163826125E+03  0.45045254560E+03  0.25000000000E+03 0.  0.
    5000001    1    1    2    0    0 -0.61737257620E+02 -0.76248113820E+02  0.20137917258E+03  0.33567668223E+03  0.25000000000E+03 0.  0.
<mgrwt>
<rscale>  0 0.76962081E+03</rscale>
<asrwt>0</asrwt>
<pdfrwt beam="1">  1        1 0.72799101E-01 0.76962081E+03</pdfrwt>
<pdfrwt beam="2">  1       -1 0.48143857E-01 0.76962081E+03</pdfrwt>
<totfact> 0.20875028E+02</totfact>
</mgrwt>
</event>
<event>
 4    1  0.4047984E-006  0.6235506E+03  0.7818608E-02  0.9857716E-01
          1   -1    0    0  501    0  0.00000000000E+00  0.00000000000E+00  0.16974898373E+04  0.16974898373E+04  0.50400000000E-02 0. -1.
         -1   -1    0    0    0  501 -0.00000000000E+00 -0.00000000000E+00 -0.57263278843E+02  0.57263279065E+02  0.50400000000E-02 0.  1.
   -5000001    1    1    2    0    0  0.17582293419E+02 -0.17101227721E+03  0.10220553380E+04  0.10661385698E+04  0.25000000000E+03 0.  0.
    5000001    1    1    2    0    0 -0.17582293419E+02  0.17101227721E+03  0.61817122041E+03  0.68861454656E+03  0.25000000000E+03 0.  0.
<mgrwt>
<rscale>  0 0.62355059E+03</rscale>
<asrwt>0</asrwt>
<pdfrwt beam="1">  1        1 0.26115225E+00 0.62355059E+03</pdfrwt>
<pdfrwt beam="2">  1       -1 0.88097364E-02 0.62355059E+03</pdfrwt>
<totfact> 0.38018761E+02</totfact>
</mgrwt>
</event>
<event>
 4    1  0.4047984E-006  0.6914974E+03  0.7818608E-02  0.9731884E-01
          1   -1    0    0  501    0  0.00000000000E+00  0.00000000000E+00  0.12155429638E+04  0.12155429638E+04  0.50400000000E-02 0.  1.
         -1   -1    0    0    0  501 -0.00000000000E+00 -0.00000000000E+00 -0.98344674260E+02  0.98344674390E+02  0.50400000000E-02 0. -1.
   -5000001    1    1    2    0    0  0.23032333313E+02 -0.22137291194E+03  0.39398623201E+03  0.51697350564E+03  0.25000000000E+03 0.  0.
    5000001    1    1    2    0    0 -0.23032333313E+02  0.22137291194E+03  0.72321205755E+03  0.79691413258E+03  0.25000000000E+03 0.  0.
<mgrwt>
<rscale>  0 0.69149744E+03</rscale>
<asrwt>0</asrwt>
<pdfrwt beam="1">  1        1 0.18700660E+00 0.69149744E+03</pdfrwt>
<pdfrwt beam="2">  1       -1 0.15129950E-01 0.69149744E+03</pdfrwt>
<totfact> 0.34309424E+02</totfact>
</mgrwt>
</event>
<event>
 4    1  0.4047984E-006  0.1872383E+04  0.7818608E-02  0.8668727E-01
          1   -1    0    0  501    0  0.00000000000E+00  0.00000000000E+00  0.13012120342E+04  0.13012120342E+04  0.50400000000E-02 0.  1.
         -1   -1    0    0    0  501 -0.00000000000E+00 -0.00000000000E+00 -0.67356753202E+03  0.67356753204E+03  0.50400000000E-02 0. -1.
   -5000001    1    1    2    0    0  0.21635654884E+03 -0.87573076946E+03  0.29749529426E+03  0.98220058385E+03  0.25000000000E+03 0.  0.
    5000001    1    1    2    0    0 -0.21635654884E+03  0.87573076946E+03  0.33014920792E+03  0.99257898240E+03  0.25000000000E+03 0.  0.
<mgrwt>
<rscale>  0 0.18723826E+04</rscale>
<asrwt>0</asrwt>
<pdfrwt beam="1">  1        1 0.20018647E+00 0.18723826E+04</pdfrwt>
<pdfrwt beam="2">  1       -1 0.10362577E+00 0.18723826E+04</pdfrwt>
<totfact> 0.74326597E+00</totfact>
</mgrwt>
</event>
<event>
 4    1  0.4047984E-006  0.5293012E+03  0.7818608E-02  0.1006402E+00
          1   -1    0    0  501    0  0.00000000000E+00  0.00000000000E+00  0.65792378234E+03  0.65792378236E+03  0.50400000000E-02 0.  1.
         -1   -1    0    0    0  501 -0.00000000000E+00 -0.00000000000E+00 -0.10645599453E+03  0.10645599465E+03  0.50400000000E-02 0. -1.
   -5000001    1    1    2    0    0 -0.23167618351E+01 -0.72877392383E+02  0.34382962986E+03  0.43131809152E+03  0.25000000000E+03 0.  0.
    5000001    1    1    2    0    0  0.23167618351E+01  0.72877392383E+02  0.20763815794E+03  0.33306168549E+03  0.25000000000E+03 0.  0.
<mgrwt>
<rscale>  0 0.52930116E+03</rscale>
<asrwt>0</asrwt>
<pdfrwt beam="1">  1        1 0.10121904E+00 0.52930116E+03</pdfrwt>
<pdfrwt beam="2">  1       -1 0.16377845E-01 0.52930116E+03</pdfrwt>
<totfact> 0.85863326E+02</totfact>
</mgrwt>
</event>
<event>
 4    1  0.4047984E-006  0.7167730E+03  0.7818608E-02  0.9688970E-01
          1   -1    0    0  501    0  0.00000000000E+00  0.00000000000E+00  0.65551976141E+03  0.65551976143E+03  0.50400000000E-02 0.  1.
         -1   -1    0    0    0  501 -0.00000000000E+00 -0.00000000000E+00 -0.19593745206E+03  0.19593745212E+03  0.50400000000E-02 0. -1.
   -5000001    1    1    2    0    0  0.23516927885E+03  0.10270614424E+03  0.21866473408E+03  0.41972301308E+03  0.25000000000E+03 0.  0.
    5000001    1    1    2    0    0 -0.23516927885E+03 -0.10270614424E+03  0.24091757527E+03  0.43173420047E+03  0.25000000000E+03 0.  0.
<mgrwt>
<rscale>  0 0.71677297E+03</rscale>
<asrwt>0</asrwt>
<pdfrwt beam="1">  1        1 0.10084919E+00 0.71677297E+03</pdfrwt>
<pdfrwt beam="2">  1       -1 0.30144223E-01 0.71677297E+03</pdfrwt>
<totfact> 0.30774408E+02</totfact>
</mgrwt>
</event>
<event>
 4    1  0.4047984E-006  0.7737419E+03  0.7818608E-02  0.9598822E-01
         -1   -1    0    0    0  501 -0.00000000000E+00  0.00000000000E+00  0.16183115977E+03  0.16183115985E+03  0.50400000000E-02 0.  1.
          1   -1    0    0  501    0  0.00000000000E+00 -0.00000000000E+00 -0.92484754690E+03  0.92484754691E+03  0.50400000000E-02 0. -1.
   -5000001    1    1    2    0    0 -0.26965604535E+03  0.37953899482E+02 -0.54172752616E+03  0.65583808511E+03  0.25000000000E+03 0.  0.
    5000001    1    1    2    0    0  0.26965604535E+03 -0.37953899482E+02 -0.22128886096E+03  0.43084062165E+03  0.25000000000E+03 0.  0.
<mgrwt>
<rscale>  0 0.77374195E+03</rscale>
<asrwt>0</asrwt>
<pdfrwt beam="1">  1        1 0.14228423E+00 0.77374195E+03</pdfrwt>
<pdfrwt beam="2">  1       -1 0.24897102E-01 0.77374195E+03</pdfrwt>
<totfact> 0.24750534E+02</totfact>
</mgrwt>
</event>
<event>
 4    1  0.4047984E-006  0.8426202E+03  0.7818608E-02  0.9500296E-01
          1   -1    0    0  501    0  0.00000000000E+00  0.00000000000E+00  0.45357481937E+03  0.45357481940E+03  0.50400000000E-02 0.  1.
         -1   -1    0    0    0  501 -0.00000000000E+00 -0.00000000000E+00 -0.39134053988E+03  0.39134053991E+03  0.50400000000E-02 0. -1.
   -5000001    1    1    2    0    0  0.49141093998E+02 -0.33553992144E+03  0.31692036693E+02  0.42250002508E+03  0.25000000000E+03 0.  0.
    5000001    1    1    2    0    0 -0.49141093998E+02  0.33553992144E+03  0.30542242798E+02  0.42241533423E+03  0.25000000000E+03 0.  0.
<mgrwt>
<rscale>  0 0.84262023E+03</rscale>
<asrwt>0</asrwt>
<pdfrwt beam="1">  1        1 0.69780741E-01 0.84262023E+03</pdfrwt>
<pdfrwt beam="2">  1       -1 0.60206237E-01 0.84262023E+03</pdfrwt>
<totfact> 0.14320824E+02</totfact>
</mgrwt>
</event>
<event>
 4    1  0.4047984E-006  0.7816172E+03  0.7818608E-02  0.9587013E-01
          1   -1    0    0  501    0  0.00000000000E+00  0.00000000000E+00  0.53055663343E+03  0.53055663345E+03  0.50400000000E-02 0.  1.
         -1   -1    0    0    0  501 -0.00000000000E+00 -0.00000000000E+00 -0.28787005827E+03  0.28787005831E+03  0.50400000000E-02 0. -1.
   -5000001    1    1    2    0    0  0.22661827709E+03  0.19575844672E+03  0.96694151617E+02  0.40190418252E+03  0.25000000000E+03 0.  0.
    5000001    1    1    2    0    0 -0.22661827709E+03 -0.19575844672E+03  0.14599242355E+03  0.41652250924E+03  0.25000000000E+03 0.  0.
<mgrwt>
<rscale>  0 0.78161722E+03</rscale>
<asrwt>0</asrwt>
<pdfrwt beam="1">  1        1 0.81624097E-01 0.78161722E+03</pdfrwt>
<pdfrwt beam="2">  1       -1 0.44287702E-01 0.78161722E+03</pdfrwt>
<totfact> 0.20828436E+02</totfact>
</mgrwt>
</event>
<event>
 4    1  0.4047984E-006  0.8501887E+03  0.7818608E-02  0.9490084E-01
          1   -1    0    0  501    0  0.00000000000E+00  0.00000000000E+00  0.82690960333E+03  0.82690960335E+03  0.50400000000E-02 0.  1.
         -1   -1    0    0    0  501 -0.00000000000E+00 -0.00000000000E+00 -0.21853081081E+03  0.21853081087E+03  0.50400000000E-02 0. -1.
   -5000001    1    1    2    0    0 -0.32195304001E+03  0.10252288422E+03  0.38235268022E+03  0.56820618954E+03  0.25000000000E+03 0.  0.
    5000001    1    1    2    0    0  0.32195304001E+03 -0.10252288422E+03  0.22602611230E+03  0.47723422468E+03  0.25000000000E+03 0.  0.
<mgrwt>
<rscale>  0 0.85018875E+03</rscale>
<asrwt>0</asrwt>
<pdfrwt beam="1">  1        1 0.12721687E+00 0.85018875E+03</pdfrwt>
<pdfrwt beam="2">  1       -1 0.33620124E-01 0.85018875E+03</pdfrwt>
<totfact> 0.17619848E+02</totfact>
</mgrwt>
</event>
<event>
 4    1  0.4047984E-006  0.1089169E+04  0.7818608E-02  0.9215813E-01
         -1   -1    0    0    0  501 -0.00000000000E+00  0.00000000000E+00  0.36234167166E+03  0.36234167169E+03  0.50400000000E-02 0. -1.
          1   -1    0    0  501    0  0.00000000000E+00 -0.00000000000E+00 -0.81848810080E+03  0.81848810081E+03  0.50400000000E-02 0.  1.
   -5000001    1    1    2    0    0  0.22736717082E+03  0.20530049794E+03 -0.63405793201E+03  0.74724399360E+03  0.25000000000E+03 0.  0.
    5000001    1    1    2    0    0 -0.22736717082E+03 -0.20530049794E+03  0.17791150287E+03  0.43358577891E+03  0.25000000000E+03 0.  0.
<mgrwt>
<rscale>  0 0.10891691E+04</rscale>
<asrwt>0</asrwt>
<pdfrwt beam="1">  1        1 0.12592125E+00 0.10891691E+04</pdfrwt>
<pdfrwt beam="2">  1       -1 0.55744873E-01 0.10891691E+04</pdfrwt>
<totfact> 0.69149250E+01</totfact>
</mgrwt>
</event>
<event>
 4    1  0.4047984E-006  0.7601491E+03  0.7818608E-02  0.9619561E-01
         -1   -1    0    0    0  501 -0.00000000000E+00  0.00000000000E+00  0.62940146660E+03  0.62940146662E+03  0.50400000000E-02 0. -1.
          1   -1    0    0  501    0  0.00000000000E+00 -0.00000000000E+00 -0.22951435143E+03  0.22951435148E+03  0.50400000000E-02 0.  1.
   -5000001    1    1    2    0    0  0.45329692182E+02 -0.17444392921E+03  0.45126413364E+03  0.54646572056E+03  0.25000000000E+03 0.  0.
    5000001    1    1    2    0    0 -0.45329692182E+02  0.17444392921E+03 -0.51377018467E+02  0.31245009755E+03  0.25000000000E+03 0.  0.
<mgrwt>
<rscale>  0 0.76014912E+03</rscale>
<asrwt>0</asrwt>
<pdfrwt beam="1">  1        1 0.35309901E-01 0.76014912E+03</pdfrwt>
<pdfrwt beam="2">  1       -1 0.96830993E-01 0.76014912E+03</pdfrwt>
<totfact> 0.12928516E+02</totfact>
</mgrwt>
</event>
<event>
 4    1  0.4047984E-006  0.7492020E+03  0.7818608E-02  0.9636603E-01
         -1   -1    0    0    0  501 -0.00000000000E+00  0.00000000000E+00  0.37069838915E+03  0.37069838918E+03  0.50400000000E-02 0. -1.
          1   -1    0    0  501    0  0.00000000000E+00 -0.00000000000E+00 -0.37854467031E+03  0.37854467034E+03  0.50400000000E-02 0.  1.
   -5000001    1    1    2    0    0 -0.27058778693E+03  0.51313578469E+02 -0.48367289634E+02  0.37508696122E+03  0.25000000000E+03 0.  0.
    5000001    1    1    2    0    0  0.27058778693E+03 -0.51313578469E+02  0.40521008473E+02  0.37415609830E+03  0.25000000000E+03 0.  0.
<mgrwt>
<rscale>  0 0.74920197E+03</rscale>
<asrwt>0</asrwt>
<pdfrwt beam="1">  1        1 0.58237642E-01 0.74920197E+03</pdfrwt>
<pdfrwt beam="2">  1       -1 0.57030521E-01 0.74920197E+03</pdfrwt>
<totfact> 0.20366184E+02</totfact>
</mgrwt>
</event>
<event>
 4    1  0.4047984E-006  0.7375542E+03  0.7818608E-02  0.9655081E-01
         -1   -1    0    0    0  501 -0.00000000000E+00  0.00000000000E+00  0.12817770758E+03  0.12817770768E+03  0.50400000000E-02 0. -1.
          1   -1    0    0  501    0  0.00000000000E+00 -0.00000000000E+00 -0.10610000763E+04  0.10610000763E+04  0.50400000000E-02 0.  1.
   -5000001    1    1    2    0    0  0.24289198355E+03 -0.11687572095E+03 -0.41967854243E+03  0.55793057704E+03  0.25000000000E+03 0.  0.
    5000001    1    1    2    0    0 -0.24289198355E+03  0.11687572095E+03 -0.51314382625E+03  0.63124720691E+03  0.25000000000E+03 0.  0.
<mgrwt>
<rscale>  0 0.73755422E+03</rscale>
<asrwt>0</asrwt>
<pdfrwt beam="1">  1        1 0.16323078E+00 0.73755422E+03</pdfrwt>
<pdfrwt beam="2">  1       -1 0.19719648E-01 0.73755422E+03</pdfrwt>
<totfact> 0.28770583E+02</totfact>
</mgrwt>
</event>
<event>
 4    1  0.4047984E-006  0.7517204E+03  0.7818608E-02  0.9632655E-01
          1   -1    0    0  501    0  0.00000000000E+00  0.00000000000E+00  0.11487752601E+04  0.11487752601E+04  0.50400000000E-02 0.  1.
         -1   -1    0    0    0  501 -0.00000000000E+00 -0.00000000000E+00 -0.12297522718E+03  0.12297522729E+03  0.50400000000E-02 0. -1.
   -5000001    1    1    2    0    0 -0.19646004830E+03  0.19536395349E+03  0.58869646677E+03  0.69701302347E+03  0.25000000000E+03 0.  0.
    5000001    1    1    2    0    0  0.19646004830E+03 -0.19536395349E+03  0.43710356613E+03  0.57473746392E+03  0.25000000000E+03 0.  0.
<mgrwt>
<rscale>  0 0.75172042E+03</rscale>
<asrwt>0</asrwt>
<pdfrwt beam="1">  1        1 0.17673466E+00 0.75172042E+03</pdfrwt>
<pdfrwt beam="2">  1       -1 0.18919265E-01 0.75172042E+03</pdfrwt>
<totfact> 0.26490458E+02</totfact>
</mgrwt>
</event>
<event>
 4    1  0.4047984E-006  0.7230836E+03  0.7818608E-02  0.9678551E-01
         -1   -1    0    0    0  501 -0.00000000000E+00  0.00000000000E+00  0.34047865745E+03  0.34047865749E+03  0.50400000000E-02 0.  1.
          1   -1    0    0  501    0  0.00000000000E+00 -0.00000000000E+00 -0.38390801441E+03  0.38390801444E+03  0.50400000000E-02 0. -1.
   -5000001    1    1    2    0    0 -0.25757997796E+03  0.10060935146E+02 -0.63788192998E+02  0.36471578116E+03  0.25000000000E+03 0.  0.
    5000001    1    1    2    0    0  0.25757997796E+03 -0.10060935146E+02  0.20358836039E+02  0.35967089077E+03  0.25000000000E+03 0.  0.
<mgrwt>
<rscale>  0 0.72308363E+03</rscale>
<asrwt>0</asrwt>
<pdfrwt beam="1">  1        1 0.59062771E-01 0.72308363E+03</pdfrwt>
<pdfrwt beam="2">  1       -1 0.52381332E-01 0.72308363E+03</pdfrwt>
<totfact> 0.23581926E+02</totfact>
</mgrwt>
</event>
<event>
 4    1  0.4047984E-006  0.8109182E+03  0.7818608E-02  0.9544347E-01
          1   -1    0    0  501    0  0.00000000000E+00  0.00000000000E+00  0.19922212499E+03  0.19922212505E+03  0.50400000000E-02 0.  1.
         -1   -1    0    0    0  501 -0.00000000000E+00 -0.00000000000E+00 -0.82519497548E+03  0.82519497549E+03  0.50400000000E-02 0. -1.
   -5000001    1    1    2    0    0 -0.14347117659E+03 -0.14894968260E+03 -0.58063242838E+01  0.32450531561E+03  0.25000000000E+03 0.  0.
    5000001    1    1    2    0    0  0.14347117659E+03  0.14894968260E+03 -0.62016652621E+03  0.69991178493E+03  0.25000000000E+03 0.  0.
<mgrwt>
<rscale>  0 0.81091824E+03</rscale>
<asrwt>0</asrwt>
<pdfrwt beam="1">  1        1 0.30649558E-01 0.81091824E+03</pdfrwt>
<pdfrwt beam="2">  1       -1 0.12695307E+00 0.81091824E+03</pdfrwt>
<totfact> 0.81534381E+01</totfact>
</mgrwt>
</event>
<event>
 4    1  0.4047984E-006  0.8293192E+03  0.7818608E-02  0.9518522E-01
          1   -1    0    0  501    0  0.00000000000E+00  0.00000000000E+00  0.37847154735E+03  0.37847154739E+03  0.50400000000E-02 0.  1.
         -1   -1    0    0    0  501 -0.00000000000E+00 -0.00000000000E+00 -0.45430779188E+03  0.45430779191E+03  0.50400000000E-02 0. -1.
   -5000001    1    1    2    0    0 -0.54816266879E+02 -0.31978224999E+03 -0.10281797644E+03  0.42229971205E+03  0.25000000000E+03 0.  0.
    5000001    1    1    2    0    0  0.54816266879E+02  0.31978224999E+03  0.26981731917E+02  0.41047962724E+03  0.25000000000E+03 0.  0.
<mgrwt>
<rscale>  0 0.82931917E+03</rscale>
<asrwt>0</asrwt>
<pdfrwt beam="1">  1        1 0.58226392E-01 0.82931917E+03</pdfrwt>
<pdfrwt beam="2">  1       -1 0.69893507E-01 0.82931917E+03</pdfrwt>
<totfact> 0.13518388E+02</totfact>
</mgrwt>
</event>
<event>
 4    1  0.4047984E-006  0.7758580E+03  0.7818608E-02  0.9595634E-01
         -1   -1    0    0    0  501 -0.00000000000E+00  0.00000000000E+00  0.47026975696E+03  0.47026975698E+03  0.50400000000E-02 0. -1.
          1   -1    0    0  501    0  0.00000000000E+00 -0.00000000000E+00 -0.32000552715E+03  0.32000552719E+03  0.50400000000E-02 0.  1.
   -5000001    1    1    2    0    0 -0.13479076593E+03  0.18417711665E+03  0.26812366137E+03  0.43183336909E+03  0.25000000000E+03 0.  0.
    5000001    1    1    2    0    0  0.13479076593E+03 -0.18417711665E+03 -0.11785943157E+03  0.35844191508E+03  0.25000000000E+03 0.  0.
<mgrwt>
<rscale>  0 0.77585803E+03</rscale>
<asrwt>0</asrwt>
<pdfrwt beam="1">  1        1 0.49231620E-01 0.77585803E+03</pdfrwt>
<pdfrwt beam="2">  1       -1 0.72349193E-01 0.77585803E+03</pdfrwt>
<totfact> 0.15732125E+02</totfact>
</mgrwt>
</event>
<event>
 4    1  0.4047984E-006  0.1249328E+04  0.7818608E-02  0.9070743E-01
         -1   -1    0    0    0  501 -0.00000000000E+00  0.00000000000E+00  0.25618732864E+03  0.25618732869E+03  0.50400000000E-02 0. -1.
          1   -1    0    0  501    0  0.00000000000E+00 -0.00000000000E+00 -0.15231230103E+04  0.15231230103E+04  0.50400000000E-02 0.  1.
   -5000001    1    1    2    0    0  0.16269447094E+03  0.42598426751E+03 -0.14057289432E+03  0.53869548509E+03  0.25000000000E+03 0.  0.
    5000001    1    1    2    0    0 -0.16269447094E+03 -0.42598426751E+03 -0.11263627874E+04  0.12406148539E+04  0.25000000000E+03 0.  0.
<mgrwt>
<rscale>  0 0.12493275E+04</rscale>
<asrwt>0</asrwt>
<pdfrwt beam="1">  1        1 0.23432661E+00 0.12493275E+04</pdfrwt>
<pdfrwt beam="2">  1       -1 0.39413436E-01 0.12493275E+04</pdfrwt>
<totfact> 0.38903891E+01</totfact>
</mgrwt>
</event>
<event>
 4    1  0.4047984E-006  0.5814683E+03  0.7818608E-02  0.9944617E-01
          1   -1    0    0  501    0  0.00000000000E+00  0.00000000000E+00  0.52227895104E+03  0.52227895107E+03  0.50400000000E-02 0.  1.
         -1   -1    0    0    0  501 -0.00000000000E+00 -0.00000000000E+00 -0.16184137601E+03  0.16184137609E+03  0.50400000000E-02 0. -1.
   -5000001    1    1    2    0    0 -0.12951751646E+03  0.19083518710E+02  0.26247038643E+03  0.38539547417E+03  0.25000000000E+03 0.  0.
    5000001    1    1    2    0    0  0.12951751646E+03 -0.19083518710E+02  0.97967188598E+02  0.29872485300E+03  0.25000000000E+03 0.  0.
<mgrwt>
<rscale>  0 0.58146829E+03</rscale>
<asrwt>0</asrwt>
<pdfrwt beam="1">  1        1 0.80350608E-01 0.58146829E+03</pdfrwt>
<pdfrwt beam="2">  1       -1 0.24898673E-01 0.58146829E+03</pdfrwt>
<totfact> 0.59376522E+02</totfact>
</mgrwt>
</event>
<event>
 4    1  0.4047984E-006  0.8971141E+03  0.7818608E-02  0.9429196E-01
          1   -1    0    0  501    0  0.00000000000E+00  0.00000000000E+00  0.97917237008E+03  0.97917237009E+03  0.50400000000E-02 0.  1.
         -1   -1    0    0    0  501 -0.00000000000E+00 -0.00000000000E+00 -0.20548315236E+03  0.20548315243E+03  0.50400000000E-02 0. -1.
   -5000001    1    1    2    0    0  0.22441462423E+03 -0.19070053593E+03  0.68789614454E+03  0.78894215482E+03  0.25000000000E+03 0.  0.
    5000001    1    1    2    0    0 -0.22441462423E+03  0.19070053593E+03  0.85793073171E+02  0.39571336770E+03  0.25000000000E+03 0.  0.
<mgrwt>
<rscale>  0 0.89711410E+03</rscale>
<asrwt>0</asrwt>
<pdfrwt beam="1">  1        1 0.15064191E+00 0.89711410E+03</pdfrwt>
<pdfrwt beam="2">  1       -1 0.31612792E-01 0.89711410E+03</pdfrwt>
<totfact> 0.14711135E+02</totfact>
</mgrwt>
</event>
<event>
 4    1  0.4047984E-006  0.9502762E+03  0.7818608E-02  0.9364828E-01
         -1   -1    0    0    0  501 -0.00000000000E+00  0.00000000000E+00  0.11625007032E+04  0.11625007032E+04  0.50400000000E-02 0. -1.
          1   -1    0    0  501    0  0.00000000000E+00 -0.00000000000E+00 -0.19419878332E+03  0.19419878338E+03  0.50400000000E-02 0.  1.
   -5000001    1    1    2    0    0  0.11487512220E+03 -0.38634941006E+03  0.52438197307E+03  0.70706337342E+03  0.25000000000E+03 0.  0.
    5000001    1    1    2    0    0 -0.11487512220E+03  0.38634941006E+03  0.44391994681E+03  0.64963611317E+03  0.25000000000E+03 0.  0.
<mgrwt>
<rscale>  0 0.95027622E+03</rscale>
<asrwt>0</asrwt>
<pdfrwt beam="1">  1        1 0.29876736E-01 0.95027622E+03</pdfrwt>
<pdfrwt beam="2">  1       -1 0.17884626E+00 0.95027622E+03</pdfrwt>
<totfact> 0.33023754E+01</totfact>
</mgrwt>
</event>
<event>
 4    1  0.4047984E-006  0.6333791E+03  0.7818608E-02  0.9838477E-01
          1   -1    0    0  501    0  0.00000000000E+00  0.00000000000E+00  0.99972001719E+03  0.99972001720E+03  0.50400000000E-02 0.  1.
         -1   -1    0    0    0  501 -0.00000000000E+00 -0.00000000000E+00 -0.10032035604E+03  0.10032035616E+03  0.50400000000E-02 0. -1.
   -5000001    1    1    2    0    0 -0.19179321291E+03  0.28031046545E+02  0.42382867819E+03  0.52886777605E+03  0.25000000000E+03 0.  0.
    5000001    1    1    2    0    0  0.19179321291E+03 -0.28031046545E+02  0.47557098296E+03  0.57117259731E+03  0.25000000000E+03 0.  0.
<mgrwt>
<rscale>  0 0.63337909E+03</rscale>
<asrwt>0</asrwt>
<pdfrwt beam="1">  1        1 0.15380309E+00 0.63337909E+03</pdfrwt>
<pdfrwt beam="2">  1       -1 0.15433900E-01 0.63337909E+03</pdfrwt>
<totfact> 0.48201960E+02</totfact>
</mgrwt>
</event>
<event>
 4    1  0.4047984E-006  0.7566660E+03  0.7818608E-02  0.9624950E-01
          1   -1    0    0  501    0  0.00000000000E+00  0.00000000000E+00  0.23055942495E+04  0.23055942495E+04  0.50400000000E-02 0.  1.
         -1   -1    0    0    0  501 -0.00000000000E+00 -0.00000000000E+00 -0.62081983473E+02  0.62081983677E+02  0.50400000000E-02 0. -1.
   -5000001    1    1    2    0    0  0.14594337379E+03 -0.19557582942E+03  0.15761372170E+04  0.16143908759E+04  0.25000000000E+03 0.  0.
    5000001    1    1    2    0    0 -0.14594337379E+03  0.19557582942E+03  0.66737504897E+03  0.75328535722E+03  0.25000000000E+03 0.  0.
<mgrwt>
<rscale>  0 0.75666601E+03</rscale>
<asrwt>0</asrwt>
<pdfrwt beam="1">  1        1 0.35470679E+00 0.75666601E+03</pdfrwt>
<pdfrwt beam="2">  1       -1 0.95510750E-02 0.75666601E+03</pdfrwt>
<totfact> 0.12975553E+02</totfact>
</mgrwt>
</event>
<event>
 4    1  0.4047984E-006  0.6450187E+03  0.7818608E-02  0.9816171E-01
         -1   -1    0    0    0  501 -0.00000000000E+00  0.00000000000E+00  0.31518535245E+03  0.31518535249E+03  0.50400000000E-02 0. -1.
          1   -1    0    0  501    0  0.00000000000E+00 -0.00000000000E+00 -0.33000357094E+03  0.33000357098E+03  0.50400000000E-02 0.  1.
   -5000001    1    1    2    0    0  0.19267375453E+03 -0.64114750452E+02 -0.24099282078E+02  0.32297778919E+03  0.25000000000E+03 0.  0.
    5000001    1    1    2    0    0 -0.19267375453E+03  0.64114750452E+02  0.92810635874E+01  0.32221113428E+03  0.25000000000E+03 0.  0.
<mgrwt>
<rscale>  0 0.64501873E+03</rscale>
<asrwt>0</asrwt>
<pdfrwt beam="1">  1        1 0.50769780E-01 0.64501873E+03</pdfrwt>
<pdfrwt beam="2">  1       -1 0.48490055E-01 0.64501873E+03</pdfrwt>
<totfact> 0.33372461E+02</totfact>
</mgrwt>
</event>
<event>
 4    1  0.4047984E-006  0.5442787E+03  0.7818608E-02  0.1002827E+00
          1   -1    0    0  501    0  0.00000000000E+00  0.00000000000E+00  0.33653754600E+03  0.33653754604E+03  0.50400000000E-02 0.  1.
         -1   -1    0    0    0  501 -0.00000000000E+00 -0.00000000000E+00 -0.22006405829E+03  0.22006405835E+03  0.50400000000E-02 0. -1.
   -5000001    1    1    2    0    0 -0.97549845096E+02 -0.42598759287E+02  0.42754907193E+02  0.27506109987E+03  0.25000000000E+03 0.  0.
    5000001    1    1    2    0    0  0.97549845096E+02  0.42598759287E+02  0.73718580522E+02  0.28154050452E+03  0.25000000000E+03 0.  0.
<mgrwt>
<rscale>  0 0.54427867E+03</rscale>
<asrwt>0</asrwt>
<pdfrwt beam="1">  1        1 0.51775007E-01 0.54427867E+03</pdfrwt>
<pdfrwt beam="2">  1       -1 0.33856009E-01 0.54427867E+03</pdfrwt>
<totfact> 0.62654257E+02</totfact>
</mgrwt>
</event>
<event>
 4    1  0.4047984E-006  0.6573403E+03  0.7818608E-02  0.9793102E-01
         -1   -1    0    0    0  501 -0.00000000000E+00  0.00000000000E+00  0.31948350746E+03  0.31948350750E+03  0.50400000000E-02 0. -1.
          1   -1    0    0  501    0  0.00000000000E+00 -0.00000000000E+00 -0.33812090552E+03  0.33812090556E+03  0.50400000000E-02 0.  1.
   -5000001    1    1    2    0    0 -0.91198714374E+02  0.18790448252E+03 -0.52910890731E+02  0.33003766817E+03  0.25000000000E+03 0.  0.
    5000001    1    1    2    0    0  0.91198714374E+02 -0.18790448252E+03  0.34273492668E+02  0.32756674489E+03  0.25000000000E+03 0.  0.
<mgrwt>
<rscale>  0 0.65734026E+03</rscale>
<asrwt>0</asrwt>
<pdfrwt beam="1">  1        1 0.52018601E-01 0.65734026E+03</pdfrwt>
<pdfrwt beam="2">  1       -1 0.49151309E-01 0.65734026E+03</pdfrwt>
<totfact> 0.31506948E+02</totfact>
</mgrwt>
</event>
<event>
 4    1  0.4047984E-006  0.7862449E+03  0.7818608E-02  0.9580143E-01
          1   -1    0    0  501    0  0.00000000000E+00  0.00000000000E+00  0.21395284240E+04  0.21395284240E+04  0.50400000000E-02 0.  1.
         -1   -1    0    0    0  501 -0.00000000000E+00 -0.00000000000E+00 -0.72233321089E+02  0.72233321265E+02  0.50400000000E-02 0. -1.
   -5000001    1    1    2    0    0  0.94139334812E+02  0.28593722610E+03  0.11397615376E+04  0.12050637636E+04  0.25000000000E+03 0.  0.
    5000001    1    1    2    0    0 -0.94139334812E+02 -0.28593722610E+03  0.92753356534E+03  0.10066979817E+04  0.25000000000E+03 0.  0.
<mgrwt>
<rscale>  0 0.78624486E+03</rscale>
<asrwt>0</asrwt>
<pdfrwt beam="1">  1        1 0.32915821E+00 0.78624486E+03</pdfrwt>
<pdfrwt beam="2">  1       -1 0.11112819E-01 0.78624486E+03</pdfrwt>
<totfact> 0.13157259E+02</totfact>
</mgrwt>
</event>
<event>
 4    1  0.4047984E-006  0.1456923E+04  0.7818608E-02  0.8913615E-01
          1   -1    0    0  501    0  0.00000000000E+00  0.00000000000E+00  0.81776727243E+03  0.81776727244E+03  0.50400000000E-02 0.  1.
         -1   -1    0    0    0  501 -0.00000000000E+00 -0.00000000000E+00 -0.64890840684E+03  0.64890840686E+03  0.50400000000E-02 0. -1.
   -5000001    1    1    2    0    0 -0.66677228215E+02 -0.61024867617E+03  0.38862227726E+03  0.76835966442E+03  0.25000000000E+03 0.  0.
    5000001    1    1    2    0    0  0.66677228215E+02  0.61024867617E+03 -0.21976341167E+03  0.69831601488E+03  0.25000000000E+03 0.  0.
<mgrwt>
<rscale>  0 0.14569229E+04</rscale>
<asrwt>0</asrwt>
<pdfrwt beam="1">  1        1 0.12581035E+00 0.14569229E+04</pdfrwt>
<pdfrwt beam="2">  1       -1 0.99832062E-01 0.14569229E+04</pdfrwt>
<totfact> 0.19825535E+01</totfact>
</mgrwt>
</event>
<event>
 4    1  0.4047984E-006  0.6742690E+03  0.7818608E-02  0.9762276E-01
          1   -1    0    0  501    0  0.00000000000E+00  0.00000000000E+00  0.10801354847E+04  0.10801354847E+04  0.50400000000E-02 0.  1.
         -1   -1    0    0    0  501 -0.00000000000E+00 -0.00000000000E+00 -0.10522724833E+03  0.10522724845E+03  0.50400000000E-02 0. -1.
   -5000001    1    1    2    0    0  0.19992414559E+02 -0.22128954388E+03  0.41305686861E+03  0.53149293088E+03  0.25000000000E+03 0.  0.
    5000001    1    1    2    0    0 -0.19992414559E+02  0.22128954388E+03  0.56185136776E+03  0.65386980227E+03  0.25000000000E+03 0.  0.
<mgrwt>
<rscale>  0 0.67426904E+03</rscale>
<asrwt>0</asrwt>
<pdfrwt beam="1">  1        1 0.16617468E+00 0.67426904E+03</pdfrwt>
<pdfrwt beam="2">  1       -1 0.16188808E-01 0.67426904E+03</pdfrwt>
<totfact> 0.38660890E+02</totfact>
</mgrwt>
</event>
<event>
 4    1  0.4047984E-006  0.7217388E+03  0.7818608E-02  0.9680762E-01
         -1   -1    0    0    0  501 -0.00000000000E+00  0.00000000000E+00  0.87712303082E+02  0.87712303227E+02  0.50400000000E-02 0. -1.
          1   -1    0    0  501    0  0.00000000000E+00 -0.00000000000E+00 -0.14847031631E+04  0.14847031631E+04  0.50400000000E-02 0.  1.
   -5000001    1    1    2    0    0 -0.67021901650E+02  0.25018651273E+03 -0.64331461572E+03  0.73718309887E+03  0.25000000000E+03 0.  0.
    5000001    1    1    2    0    0  0.67021901650E+02 -0.25018651273E+03 -0.75367624431E+03  0.83523236749E+03  0.25000000000E+03 0.  0.
<mgrwt>
<rscale>  0 0.72173883E+03</rscale>
<asrwt>0</asrwt>
<pdfrwt beam="1">  1        1 0.22841585E+00 0.72173883E+03</pdfrwt>
<pdfrwt beam="2">  1       -1 0.13494202E-01 0.72173883E+03</pdfrwt>
<totfact> 0.26703552E+02</totfact>
</mgrwt>
</event>
<event>
 4    1  0.4047984E-006  0.7370995E+03  0.7818608E-02  0.9655809E-01
         -1   -1    0    0    0  501 -0.00000000000E+00  0.00000000000E+00  0.10918519763E+03  0.10918519774E+03  0.50400000000E-02 0. -1.
          1   -1    0    0  501    0  0.00000000000E+00 -0.00000000000E+00 -0.12440232663E+04  0.12440232663E+04  0.50400000000E-02 0.  1.
   -5000001    1    1    2    0    0 -0.18780485413E+03  0.18193298811E+03 -0.43814230925E+03  0.56818919257E+03  0.25000000000E+03 0.  0.
    5000001    1    1    2    0    0  0.18780485413E+03 -0.18193298811E+03 -0.69669575940E+03  0.78501927146E+03  0.25000000000E+03 0.  0.
<mgrwt>
<rscale>  0 0.73709952E+03</rscale>
<asrwt>0</asrwt>
<pdfrwt beam="1">  1        1 0.19138818E+00 0.73709952E+03</pdfrwt>
<pdfrwt beam="2">  1       -1 0.16797724E-01 0.73709952E+03</pdfrwt>
<totfact> 0.27518370E+02</totfact>
</mgrwt>
</event>
<event>
 4    1  0.4047984E-006  0.7357772E+03  0.7818608E-02  0.9657932E-01
          1   -1    0    0  501    0  0.00000000000E+00  0.00000000000E+00  0.43968109312E+03  0.43968109315E+03  0.50400000000E-02 0.  1.
         -1   -1    0    0    0  501 -0.00000000000E+00 -0.00000000000E+00 -0.30781857757E+03  0.30781857761E+03  0.50400000000E-02 0. -1.
   -5000001    1    1    2    0    0 -0.23713914183E+03 -0.30306026970E+02  0.19318088858E+03  0.39619727860E+03  0.25000000000E+03 0.  0.
    5000001    1    1    2    0    0  0.23713914183E+03  0.30306026970E+02 -0.61318373031E+02  0.35130239215E+03  0.25000000000E+03 0.  0.
<mgrwt>
<rscale>  0 0.73577716E+03</rscale>
<asrwt>0</asrwt>
<pdfrwt beam="1">  1        1 0.67643245E-01 0.73577716E+03</pdfrwt>
<pdfrwt beam="2">  1       -1 0.47356704E-01 0.73577716E+03</pdfrwt>
<totfact> 0.23815137E+02</totfact>
</mgrwt>
</event>
<event>
 4    1  0.4047984E-006  0.7130357E+03  0.7818608E-02  0.9695195E-01
         -1   -1    0    0    0  501 -0.00000000000E+00  0.00000000000E+00  0.56597779510E+02  0.56597779734E+02  0.50400000000E-02 0. -1.
          1   -1    0    0  501    0  0.00000000000E+00 -0.00000000000E+00 -0.22457591814E+04  0.22457591814E+04  0.50400000000E-02 0.  1.
   -5000001    1    1    2    0    0 -0.28246471481E+02 -0.24509815213E+03 -0.89727053757E+03  0.96356908674E+03  0.25000000000E+03 0.  0.
    5000001    1    1    2    0    0  0.28246471481E+02  0.24509815213E+03 -0.12918908643E+04  0.13387878744E+04  0.25000000000E+03 0.  0.
<mgrwt>
<rscale>  0 0.71303572E+03</rscale>
<asrwt>0</asrwt>
<pdfrwt beam="1">  1        1 0.34550134E+00 0.71303572E+03</pdfrwt>
<pdfrwt beam="2">  1       -1 0.87073525E-02 0.71303572E+03</pdfrwt>
<totfact> 0.16539024E+02</totfact>
</mgrwt>
</event>
<event>
 4    1  0.4047984E-006  0.9937991E+03  0.7818608E-02  0.9315372E-01
         -1   -1    0    0    0  501 -0.00000000000E+00  0.00000000000E+00  0.56775378658E+03  0.56775378660E+03  0.50400000000E-02 0.  1.
          1   -1    0    0  501    0  0.00000000000E+00 -0.00000000000E+00 -0.43488776340E+03  0.43488776343E+03  0.50400000000E-02 0. -1.
   -5000001    1    1    2    0    0 -0.30913802117E+03 -0.11684502483E+03 -0.21021491239E+03  0.46466050548E+03  0.25000000000E+03 0.  0.
    5000001    1    1    2    0    0  0.30913802117E+03  0.11684502483E+03  0.34308093557E+03  0.53798104456E+03  0.25000000000E+03 0.  0.
<mgrwt>
<rscale>  0 0.99379912E+03</rscale>
<asrwt>0</asrwt>
<pdfrwt beam="1">  1        1 0.66905810E-01 0.99379912E+03</pdfrwt>
<pdfrwt beam="2">  1       -1 0.87346736E-01 0.99379912E+03</pdfrwt>
<totfact> 0.69436418E+01</totfact>
</mgrwt>
</event>
<event>
 4    1  0.4047984E-006  0.8050653E+03  0.7818608E-02  0.9552714E-01
          1   -1    0    0  501    0  0.00000000000E+00  0.00000000000E+00  0.86838196180E+03  0.86838196181E+03  0.50400000000E-02 0.  1.
         -1   -1    0    0    0  501 -0.00000000000E+00 -0.00000000000E+00 -0.18659133771E+03  0.18659133778E+03  0.50400000000E-02 0. -1.
   -5000001    1    1    2    0    0 -0.24102937108E+03 -0.14652045072E+03  0.52607363429E+03  0.64716062063E+03  0.25000000000E+03 0.  0.
    5000001    1    1    2    0    0  0.24102937108E+03  0.14652045072E+03  0.15571698980E+03  0.40781267896E+03  0.25000000000E+03 0.  0.
<mgrwt>
<rscale>  0 0.80506534E+03</rscale>
<asrwt>0</asrwt>
<pdfrwt beam="1">  1        1 0.13359722E+00 0.80506534E+03</pdfrwt>
<pdfrwt beam="2">  1       -1 0.28706360E-01 0.80506534E+03</pdfrwt>
<totfact> 0.21508237E+02</totfact>
</mgrwt>
</event>
<event>
 4    1  0.4047984E-006  0.5440141E+03  0.7818608E-02  0.1002889E+00
         -1   -1    0    0    0  501 -0.00000000000E+00  0.00000000000E+00  0.72693394951E+02  0.72693395125E+02  0.50400000000E-02 0. -1.
          1   -1    0    0  501    0  0.00000000000E+00 -0.00000000000E+00 -0.10178069874E+04  0.10178069874E+04  0.50400000000E-02 0.  1.
   -5000001    1    1    2    0    0  0.25038550102E+02 -0.61602669147E+02 -0.30405547889E+03  0.39921366720E+03  0.25000000000E+03 0.  0.
    5000001    1    1    2    0    0 -0.25038550102E+02  0.61602669147E+02 -0.64105811353E+03  0.69128671531E+03  0.25000000000E+03 0.  0.
<mgrwt>
<rscale>  0 0.54401414E+03</rscale>
<asrwt>0</asrwt>
<pdfrwt beam="1">  1        1 0.15658568E+00 0.54401414E+03</pdfrwt>
<pdfrwt beam="2">  1       -1 0.11183600E-01 0.54401414E+03</pdfrwt>
<totfact> 0.78574799E+02</totfact>
</mgrwt>
</event>
<event>
 4    1  0.4047984E-006  0.6295461E+03  0.7818608E-02  0.9845935E-01
          1   -1    0    0  501    0  0.00000000000E+00  0.00000000000E+00  0.12739017787E+04  0.12739017787E+04  0.50400000000E-02 0.  1.
         -1   -1    0    0    0  501 -0.00000000000E+00 -0.00000000000E+00 -0.77778426488E+02  0.77778426651E+02  0.50400000000E-02 0. -1.
   -5000001    1    1    2    0    0  0.59749639932E+02  0.17643776013E+03  0.50492300019E+03  0.59342020423E+03  0.25000000000E+03 0.  0.
    5000001    1    1    2    0    0 -0.59749639932E+02 -0.17643776013E+03  0.69120035197E+03  0.75826000108E+03  0.25000000000E+03 0.  0.
<mgrwt>
<rscale>  0 0.62954611E+03</rscale>
<asrwt>0</asrwt>
<pdfrwt beam="1">  1        1 0.19598487E+00 0.62954611E+03</pdfrwt>
<pdfrwt beam="2">  1       -1 0.11965913E-01 0.62954611E+03</pdfrwt>
<totfact> 0.45649658E+02</totfact>
</mgrwt>
</event>
<event>
 4    1  0.4047984E-006  0.6623761E+03  0.7818608E-02  0.9783830E-01
          1   -1    0    0  501    0  0.00000000000E+00  0.00000000000E+00  0.18096438051E+04  0.18096438051E+04  0.50400000000E-02 0.  1.
         -1   -1    0    0    0  501 -0.00000000000E+00 -0.00000000000E+00 -0.60611663980E+02  0.60611664189E+02  0.50400000000E-02 0. -1.
   -5000001    1    1    2    0    0  0.14081450374E+03 -0.15372379133E+03  0.10468638533E+04  0.10963045452E+04  0.25000000000E+03 0.  0.
    5000001    1    1    2    0    0 -0.14081450374E+03  0.15372379133E+03  0.70216828781E+03  0.77395092408E+03  0.25000000000E+03 0.  0.
<mgrwt>
<rscale>  0 0.66237609E+03</rscale>
<asrwt>0</asrwt>
<pdfrwt beam="1">  1        1 0.27840669E+00 0.66237609E+03</pdfrwt>
<pdfrwt beam="2">  1       -1 0.93248729E-02 0.66237609E+03</pdfrwt>
<totfact> 0.29170738E+02</totfact>
</mgrwt>
</event>
<event>
 4    1  0.4047984E-006  0.8906257E+03  0.7818608E-02  0.9437376E-01
          1   -1    0    0  501    0  0.00000000000E+00  0.00000000000E+00  0.33472318279E+03  0.33472318283E+03  0.50400000000E-02 0.  1.
         -1   -1    0    0    0  501 -0.00000000000E+00 -0.00000000000E+00 -0.59244046052E+03  0.59244046054E+03  0.50400000000E-02 0. -1.
   -5000001    1    1    2    0    0  0.34920241910E+03 -0.10451373572E+03 -0.18528666845E+03  0.47926673155E+03  0.25000000000E+03 0.  0.
    5000001    1    1    2    0    0 -0.34920241910E+03  0.10451373572E+03 -0.72430609271E+02  0.44789691182E+03  0.25000000000E+03 0.  0.
<mgrwt>
<rscale>  0 0.89062575E+03</rscale>
<asrwt>0</asrwt>
<pdfrwt beam="1">  1        1 0.51495874E-01 0.89062575E+03</pdfrwt>
<pdfrwt beam="2">  1       -1 0.91144686E-01 0.89062575E+03</pdfrwt>
<totfact> 0.90014193E+01</totfact>
</mgrwt>
</event>
<event>
 4    1  0.4047984E-006  0.1075281E+04  0.7818608E-02  0.9229625E-01
         -1   -1    0    0    0  501 -0.00000000000E+00  0.00000000000E+00  0.68727688850E+03  0.68727688852E+03  0.50400000000E-02 0. -1.
          1   -1    0    0  501    0  0.00000000000E+00 -0.00000000000E+00 -0.42058383601E+03  0.42058383604E+03  0.50400000000E-02 0.  1.
   -5000001    1    1    2    0    0  0.34367232839E+03 -0.31169828504E+03  0.23867640368E+02  0.52757573339E+03  0.25000000000E+03 0.  0.
    5000001    1    1    2    0    0 -0.34367232839E+03  0.31169828504E+03  0.24282541212E+03  0.58028499117E+03  0.25000000000E+03 0.  0.
<mgrwt>
<rscale>  0 0.10752815E+04</rscale>
<asrwt>0</asrwt>
<pdfrwt beam="1">  1        1 0.64705206E-01 0.10752815E+04</pdfrwt>
<pdfrwt beam="2">  1       -1 0.10573491E+00 0.10752815E+04</pdfrwt>
<totfact> 0.46921866E+01</totfact>
</mgrwt>
</event>
<event>
 4    1  0.4047984E-006  0.5682787E+03  0.7818608E-02  0.9973495E-01
         -1   -1    0    0    0  501 -0.00000000000E+00  0.00000000000E+00  0.76031627466E+02  0.76031627633E+02  0.50400000000E-02 0. -1.
          1   -1    0    0  501    0  0.00000000000E+00 -0.00000000000E+00 -0.10618631298E+04  0.10618631298E+04  0.50400000000E-02 0.  1.
   -5000001    1    1    2    0    0  0.10289159757E+03 -0.71605949569E+02 -0.59345480350E+03  0.65605083390E+03  0.25000000000E+03 0.  0.
    5000001    1    1    2    0    0 -0.10289159757E+03  0.71605949569E+02 -0.39237669881E+03  0.48184392352E+03  0.25000000000E+03 0.  0.
<mgrwt>
<rscale>  0 0.56827874E+03</rscale>
<asrwt>0</asrwt>
<pdfrwt beam="1">  1        1 0.16336355E+00 0.56827874E+03</pdfrwt>
<pdfrwt beam="2">  1       -1 0.11697174E-01 0.56827874E+03</pdfrwt>
<totfact> 0.67700663E+02</totfact>
</mgrwt>
</event>
<event>
 4    1  0.4047984E-006  0.6573800E+03  0.7818608E-02  0.9793029E-01
         -1   -1    0    0    0  501 -0.00000000000E+00  0.00000000000E+00  0.74575772585E+02  0.74575772755E+02  0.50400000000E-02 0. -1.
          1   -1    0    0  501    0  0.00000000000E+00 -0.00000000000E+00 -0.14486892255E+04  0.14486892255E+04  0.50400000000E-02 0.  1.
   -5000001    1    1    2    0    0  0.17873892550E+03 -0.30131390392E+02 -0.94800008012E+03  0.99702540393E+03  0.25000000000E+03 0.  0.
    5000001    1    1    2    0    0 -0.17873892550E+03  0.30131390392E+02 -0.42611337283E+03  0.52623959436E+03  0.25000000000E+03 0.  0.
<mgrwt>
<rscale>  0 0.65738001E+03</rscale>
<asrwt>0</asrwt>
<pdfrwt beam="1">  1        1 0.22287524E+00 0.65738001E+03</pdfrwt>
<pdfrwt beam="2">  1       -1 0.11473197E-01 0.65738001E+03</pdfrwt>
<totfact> 0.36823356E+02</totfact>
</mgrwt>
</event>
<event>
 4    1  0.4047984E-006  0.6760639E+03  0.7818608E-02  0.9759065E-01
          1   -1    0    0  501    0  0.00000000000E+00  0.00000000000E+00  0.12643613134E+04  0.12643613134E+04  0.50400000000E-02 0. -1.
         -1   -1    0    0    0  501 -0.00000000000E+00 -0.00000000000E+00 -0.90374164790E+02  0.90374164931E+02  0.50400000000E-02 0.  1.
   -5000001    1    1    2    0    0 -0.13515212464E+03  0.10648152437E+03  0.88530044742E+03  0.93587461448E+03  0.25000000000E+03 0.  0.
    5000001    1    1    2    0    0  0.13515212464E+03 -0.10648152437E+03  0.28868670118E+03  0.41886086385E+03  0.25000000000E+03 0.  0.
<mgrwt>
<rscale>  0 0.67606390E+03</rscale>
<asrwt>0</asrwt>
<pdfrwt beam="1">  1        1 0.19451712E+00 0.67606390E+03</pdfrwt>
<pdfrwt beam="2">  1       -1 0.13903718E-01 0.67606390E+03</pdfrwt>
<totfact> 0.36339544E+02</totfact>
</mgrwt>
</event>
<event>
 4    1  0.4047984E-006  0.5561911E+03  0.7818608E-02  0.1000071E+00
          1   -1    0    0  501    0  0.00000000000E+00  0.00000000000E+00  0.12702327978E+04  0.12702327978E+04  0.50400000000E-02 0.  1.
         -1   -1    0    0    0  501 -0.00000000000E+00 -0.00000000000E+00 -0.60884217121E+02  0.60884217330E+02  0.50400000000E-02 0. -1.
   -5000001    1    1    2    0    0  0.93778920823E+02 -0.44445073204E+02  0.75730580046E+03  0.80422753368E+03  0.25000000000E+03 0.  0.
    5000001    1    1    2    0    0 -0.93778920823E+02  0.44445073204E+02  0.45204278022E+03  0.52688948146E+03  0.25000000000E+03 0.  0.
<mgrwt>
<rscale>  0 0.55619108E+03</rscale>
<asrwt>0</asrwt>
<pdfrwt beam="1">  1        1 0.19542043E+00 0.55619108E+03</pdfrwt>
<pdfrwt beam="2">  1       -1 0.93668027E-02 0.55619108E+03</pdfrwt>
<totfact> 0.67930967E+02</totfact>
</mgrwt>
</event>
<event>
 4    1  0.4047984E-006  0.1095983E+04  0.7818608E-02  0.9209116E-01
         -1   -1    0    0    0  501 -0.00000000000E+00  0.00000000000E+00  0.18894484233E+03  0.18894484240E+03  0.50400000000E-02 0. -1.
          1   -1    0    0  501    0  0.00000000000E+00 -0.00000000000E+00 -0.15893247161E+04  0.15893247161E+04  0.50400000000E-02 0.  1.
   -5000001    1    1    2    0    0 -0.29901456537E+03  0.28852090659E+03 -0.28607593341E+03  0.56302172562E+03  0.25000000000E+03 0.  0.
    5000001    1    1    2    0    0  0.29901456537E+03 -0.28852090659E+03 -0.11143039404E+04  0.12152478329E+04  0.25000000000E+03 0.  0.
<mgrwt>
<rscale>  0 0.10959830E+04</rscale>
<asrwt>0</asrwt>
<pdfrwt beam="1">  1        1 0.24451149E+00 0.10959830E+04</pdfrwt>
<pdfrwt beam="2">  1       -1 0.29068438E-01 0.10959830E+04</pdfrwt>
<totfact> 0.61011771E+01</totfact>
</mgrwt>
</event>
<event>
 4    1  0.4047984E-006  0.8239600E+03  0.7818608E-02  0.9525969E-01
         -1   -1    0    0    0  501 -0.00000000000E+00  0.00000000000E+00  0.15735643321E+03  0.15735643329E+03  0.50400000000E-02 0. -1.
          1   -1    0    0  501    0  0.00000000000E+00 -0.00000000000E+00 -0.10786182060E+04  0.10786182060E+04  0.50400000000E-02 0.  1.
   -5000001    1    1    2    0    0 -0.20292181993E+03  0.23836248163E+03 -0.60477217667E+03  0.72542630455E+03  0.25000000000E+03 0.  0.
    5000001    1    1    2    0    0  0.20292181993E+03 -0.23836248163E+03 -0.31648959607E+03  0.51054833470E+03  0.25000000000E+03 0.  0.
<mgrwt>
<rscale>  0 0.82395998E+03</rscale>
<asrwt>0</asrwt>
<pdfrwt beam="1">  1        1 0.16594126E+00 0.82395998E+03</pdfrwt>
<pdfrwt beam="2">  1       -1 0.24208683E-01 0.82395998E+03</pdfrwt>
<totfact> 0.19660175E+02</totfact>
</mgrwt>
</event>
<event>
 4    1  0.4047984E-006  0.9166864E+03  0.7818608E-02  0.9404960E-01
          1   -1    0    0  501    0  0.00000000000E+00  0.00000000000E+00  0.63901938637E+03  0.63901938639E+03  0.50400000000E-02 0.  1.
         -1   -1    0    0    0  501 -0.00000000000E+00 -0.00000000000E+00 -0.32875138585E+03  0.32875138588E+03  0.50400000000E-02 0. -1.
   -5000001    1    1    2    0    0  0.56458218729E+01  0.38364436493E+03  0.17526588487E+03  0.49033968272E+03  0.25000000000E+03 0.  0.
    5000001    1    1    2    0    0 -0.56458218729E+01 -0.38364436493E+03  0.13500211565E+03  0.47743108956E+03  0.25000000000E+03 0.  0.
<mgrwt>
<rscale>  0 0.91668644E+03</rscale>
<asrwt>0</asrwt>
<pdfrwt beam="1">  1        1 0.98310673E-01 0.91668644E+03</pdfrwt>
<pdfrwt beam="2">  1       -1 0.50577137E-01 0.91668644E+03</pdfrwt>
<totfact> 0.12348482E+02</totfact>
</mgrwt>
</event>
<event>
 4    1  0.4047984E-006  0.8480667E+03  0.7818608E-02  0.9492935E-01
         -1   -1    0    0    0  501 -0.00000000000E+00  0.00000000000E+00  0.34316645898E+03  0.34316645901E+03  0.50400000000E-02 0.  1.
          1   -1    0    0  501    0  0.00000000000E+00 -0.00000000000E+00 -0.52395651115E+03  0.52395651118E+03  0.50400000000E-02 0. -1.
   -5000001    1    1    2    0    0 -0.26900860110E+03 -0.20217552319E+03 -0.25215209768E+02  0.41997187578E+03  0.25000000000E+03 0.  0.
    5000001    1    1    2    0    0  0.26900860110E+03  0.20217552319E+03 -0.15557484241E+03  0.44715109441E+03  0.25000000000E+03 0.  0.
<mgrwt>
<rscale>  0 0.84806674E+03</rscale>
<asrwt>0</asrwt>
<pdfrwt beam="1">  1        1 0.80608694E-01 0.84806674E+03</pdfrwt>
<pdfrwt beam="2">  1       -1 0.52794840E-01 0.84806674E+03</pdfrwt>
<totfact> 0.15168774E+02</totfact>
</mgrwt>
</event>
<event>
 4    1  0.4047984E-006  0.7506690E+03  0.7818608E-02  0.9634301E-01
          1   -1    0    0  501    0  0.00000000000E+00  0.00000000000E+00  0.76439308996E+03  0.76439308998E+03  0.50400000000E-02 0.  1.
         -1   -1    0    0    0  501 -0.00000000000E+00 -0.00000000000E+00 -0.18429781183E+03  0.18429781190E+03  0.50400000000E-02 0. -1.
   -5000001    1    1    2    0    0  0.17735841362E+03  0.12828237859E+03  0.51062801610E+03  0.60922356025E+03  0.25000000000E+03 0.  0.
    5000001    1    1    2    0    0 -0.17735841362E+03 -0.12828237859E+03  0.69467262033E+02  0.33946734163E+03  0.25000000000E+03 0.  0.
<mgrwt>
<rscale>  0 0.75066897E+03</rscale>
<asrwt>0</asrwt>
<pdfrwt beam="1">  1        1 0.11759894E+00 0.75066897E+03</pdfrwt>
<pdfrwt beam="2">  1       -1 0.28353509E-01 0.75066897E+03</pdfrwt>
<totfact> 0.27063494E+02</totfact>
</mgrwt>
</event>
<event>
 4    1  0.4047984E-006  0.6346816E+03  0.7818608E-02  0.9835955E-01
         -1   -1    0    0    0  501 -0.00000000000E+00  0.00000000000E+00  0.94872565774E+02  0.94872565908E+02  0.50400000000E-02 0.  1.
          1   -1    0    0  501    0  0.00000000000E+00 -0.00000000000E+00 -0.10614785292E+04  0.10614785293E+04  0.50400000000E-02 0. -1.
   -5000001    1    1    2    0    0 -0.11427224417E+03  0.10457549321E+03 -0.26610974633E+03  0.39662145260E+03  0.25000000000E+03 0.  0.
    5000001    1    1    2    0    0  0.11427224417E+03 -0.10457549321E+03 -0.70049621714E+03  0.75972964257E+03  0.25000000000E+03 0.  0.
<mgrwt>
<rscale>  0 0.63468163E+03</rscale>
<asrwt>0</asrwt>
<pdfrwt beam="1">  1        1 0.16330438E+00 0.63468163E+03</pdfrwt>
<pdfrwt beam="2">  1       -1 0.14595780E-01 0.63468163E+03</pdfrwt>
<totfact> 0.47348409E+02</totfact>
</mgrwt>
</event>
<event>
 4    1  0.4047984E-006  0.1055368E+04  0.7818608E-02  0.9249820E-01
          1   -1    0    0  501    0  0.00000000000E+00  0.00000000000E+00  0.98853748562E+02  0.98853748690E+02  0.50400000000E-02 0.  1.
         -1   -1    0    0    0  501 -0.00000000000E+00 -0.00000000000E+00 -0.28167905775E+04  0.28167905775E+04  0.50400000000E-02 0. -1.
   -5000001    1    1    2    0    0 -0.27120749408E+03 -0.30598041835E+03 -0.19690943426E+04  0.20265759427E+04  0.25000000000E+03 0.  0.
    5000001    1    1    2    0    0  0.27120749408E+03  0.30598041835E+03 -0.74884248628E+03  0.88906838349E+03  0.25000000000E+03 0.  0.
<mgrwt>
<rscale>  0 0.10553678E+04</rscale>
<asrwt>0</asrwt>
<pdfrwt beam="1">  1        1 0.15208271E-01 0.10553678E+04</pdfrwt>
<pdfrwt beam="2">  1       -1 0.43335233E+00 0.10553678E+04</pdfrwt>
<totfact> 0.16343706E+00</totfact>
</mgrwt>
</event>
<event>
 4    1  0.4047984E-006  0.6189677E+03  0.7818608E-02  0.9866817E-01
          1   -1    0    0  501    0  0.00000000000E+00  0.00000000000E+00  0.27096623320E+04  0.27096623320E+04  0.50400000000E-02 0.  1.
         -1   -1    0    0    0  501 -0.00000000000E+00 -0.00000000000E+00 -0.35347668494E+02  0.35347668854E+02  0.50400000000E-02 0. -1.
   -5000001    1    1    2    0    0  0.12262308838E+03 -0.46827403576E+02  0.18990162290E+04  0.19198937120E+04  0.25000000000E+03 0.  0.
    5000001    1    1    2    0    0 -0.12262308838E+03  0.46827403576E+02  0.77529843454E+03  0.82511628886E+03  0.25000000000E+03 0.  0.
<mgrwt>
<rscale>  0 0.61896768E+03</rscale>
<asrwt>0</asrwt>
<pdfrwt beam="1">  1        1 0.41687105E+00 0.61896768E+03</pdfrwt>
<pdfrwt beam="2">  1       -1 0.54381039E-02 0.61896768E+03</pdfrwt>
<totfact> 0.16770281E+02</totfact>
</mgrwt>
</event>
<event>
 4    1  0.4047984E-006  0.6269334E+03  0.7818608E-02  0.9851051E-01
         -1   -1    0    0    0  501 -0.00000000000E+00  0.00000000000E+00  0.34175813606E+02  0.34175813978E+02  0.50400000000E-02 0. -1.
          1   -1    0    0  501    0  0.00000000000E+00 -0.00000000000E+00 -0.28751725287E+04  0.28751725287E+04  0.50400000000E-02 0.  1.
   -5000001    1    1    2    0    0 -0.18592009141E+03  0.33186267075E+02 -0.13755653778E+04  0.14107968377E+04  0.25000000000E+03 0.  0.
    5000001    1    1    2    0    0  0.18592009141E+03 -0.33186267075E+02 -0.14654313374E+04  0.14985515050E+04  0.25000000000E+03 0.  0.
<mgrwt>
<rscale>  0 0.62693336E+03</rscale>
<asrwt>0</asrwt>
<pdfrwt beam="1">  1        1 0.44233404E+00 0.62693336E+03</pdfrwt>
<pdfrwt beam="2">  1       -1 0.52578198E-02 0.62693336E+03</pdfrwt>
<totfact> 0.13525110E+02</totfact>
</mgrwt>
</event>
<event>
 4    1  0.4047984E-006  0.5783883E+03  0.7818608E-02  0.9951286E-01
         -1   -1    0    0    0  501 -0.00000000000E+00  0.00000000000E+00  0.26549403279E+03  0.26549403284E+03  0.50400000000E-02 0.  1.
          1   -1    0    0  501    0  0.00000000000E+00 -0.00000000000E+00 -0.31500989819E+03  0.31500989823E+03  0.50400000000E-02 0. -1.
   -5000001    1    1    2    0    0 -0.73867153904E+01  0.14467229683E+03 -0.12522720537E+02  0.28920832554E+03  0.25000000000E+03 0.  0.
    5000001    1    1    2    0    0  0.73867153904E+01 -0.14467229683E+03 -0.36993144862E+02  0.29129560553E+03  0.25000000000E+03 0.  0.
<mgrwt>
<rscale>  0 0.57838827E+03</rscale>
<asrwt>0</asrwt>
<pdfrwt beam="1">  1        1 0.48463061E-01 0.57838827E+03</pdfrwt>
<pdfrwt beam="2">  1       -1 0.40845236E-01 0.57838827E+03</pdfrwt>
<totfact> 0.48757221E+02</totfact>
</mgrwt>
</event>
<event>
 4    1  0.4047984E-006  0.5558015E+03  0.7818608E-02  0.1000160E+00
          1   -1    0    0  501    0  0.00000000000E+00  0.00000000000E+00  0.20526627227E+03  0.20526627234E+03  0.50400000000E-02 0. -1.
         -1   -1    0    0    0  501 -0.00000000000E+00 -0.00000000000E+00 -0.37623733090E+03  0.37623733093E+03  0.50400000000E-02 0.  1.
   -5000001    1    1    2    0    0 -0.63483329650E+02  0.67148694098E+02 -0.31723503051E+01  0.26655045314E+03  0.25000000000E+03 0.  0.
    5000001    1    1    2    0    0  0.63483329650E+02 -0.67148694098E+02 -0.16779870832E+03  0.31495315013E+03  0.25000000000E+03 0.  0.
<mgrwt>
<rscale>  0 0.55580153E+03</rscale>
<asrwt>0</asrwt>
<pdfrwt beam="1">  1        1 0.31579427E-01 0.55580153E+03</pdfrwt>
<pdfrwt beam="2">  1       -1 0.57882666E-01 0.55580153E+03</pdfrwt>
<totfact> 0.44024392E+02</totfact>
</mgrwt>
</event>
<event>
 4    1  0.4047984E-006  0.6533266E+03  0.7818608E-02  0.9800557E-01
         -1   -1    0    0    0  501 -0.00000000000E+00  0.00000000000E+00  0.35623907640E+02  0.35623907997E+02  0.50400000000E-02 0. -1.
          1   -1    0    0  501    0  0.00000000000E+00 -0.00000000000E+00 -0.29954299314E+04  0.29954299314E+04  0.50400000000E-02 0.  1.
   -5000001    1    1    2    0    0 -0.72152843624E+02  0.18104951105E+03 -0.11138898180E+04  0.11581172155E+04  0.25000000000E+03 0.  0.
    5000001    1    1    2    0    0  0.72152843624E+02 -0.18104951105E+03 -0.18459162058E+04  0.18729366239E+04  0.25000000000E+03 0.  0.
<mgrwt>
<rscale>  0 0.65332663E+03</rscale>
<asrwt>0</asrwt>
<pdfrwt beam="1">  1        1 0.46083518E+00 0.65332663E+03</pdfrwt>
<pdfrwt beam="2">  1       -1 0.54806035E-02 0.65332663E+03</pdfrwt>
<totfact> 0.10394146E+02</totfact>
</mgrwt>
</event>
<event>
 4    1  0.4047984E-006  0.1007861E+04  0.7818608E-02  0.9299965E-01
          1   -1    0    0  501    0  0.00000000000E+00  0.00000000000E+00  0.62657446109E+03  0.62657446111E+03  0.50400000000E-02 0. -1.
         -1   -1    0    0    0  501 -0.00000000000E+00 -0.00000000000E+00 -0.40529266809E+03  0.40529266812E+03  0.50400000000E-02 0.  1.
   -5000001    1    1    2    0    0 -0.38622918984E+03  0.21810358124E+01  0.32113038315E+03  0.56107260402E+03  0.25000000000E+03 0.  0.
    5000001    1    1    2    0    0  0.38622918984E+03 -0.21810358124E+01 -0.99848590153E+02  0.47079452520E+03  0.25000000000E+03 0.  0.
<mgrwt>
<rscale>  0 0.10078612E+04</rscale>
<asrwt>0</asrwt>
<pdfrwt beam="1">  1        1 0.96396070E-01 0.10078612E+04</pdfrwt>
<pdfrwt beam="2">  1       -1 0.62352719E-01 0.10078612E+04</pdfrwt>
<totfact> 0.84080699E+01</totfact>
</mgrwt>
</event>
<event>
 4    1  0.4047984E-006  0.9994525E+03  0.7818608E-02  0.9309145E-01
          1   -1    0    0  501    0  0.00000000000E+00  0.00000000000E+00  0.10964321188E+04  0.10964321188E+04  0.50400000000E-02 0.  1.
         -1   -1    0    0    0  501 -0.00000000000E+00 -0.00000000000E+00 -0.22776270170E+03  0.22776270175E+03  0.50400000000E-02 0. -1.
   -5000001    1    1    2    0    0 -0.10153370847E+03 -0.29655636706E+03  0.39136164470E+02  0.40284787721E+03  0.25000000000E+03 0.  0.
    5000001    1    1    2    0    0  0.10153370847E+03  0.29655636706E+03  0.82953325260E+03  0.92134694332E+03  0.25000000000E+03 0.  0.
<mgrwt>
<rscale>  0 0.99945253E+03</rscale>
<asrwt>0</asrwt>
<pdfrwt beam="1">  1        1 0.16868187E+00 0.99945253E+03</pdfrwt>
<pdfrwt beam="2">  1       -1 0.35040415E-01 0.99945253E+03</pdfrwt>
<totfact> 0.98941815E+01</totfact>
</mgrwt>
</event>
<event>
 4    1  0.4047984E-006  0.6206337E+03  0.7818608E-02  0.9863499E-01
         -1   -1    0    0    0  501 -0.00000000000E+00  0.00000000000E+00  0.19058437463E+04  0.19058437463E+04  0.50400000000E-02 0. -1.
          1   -1    0    0  501    0  0.00000000000E+00 -0.00000000000E+00 -0.50526981767E+02  0.50526982019E+02  0.50400000000E-02 0.  1.
   -5000001    1    1    2    0    0 -0.36741569581E+02  0.14455579819E+03  0.58888382193E+03  0.65690979400E+03  0.25000000000E+03 0.  0.
    5000001    1    1    2    0    0  0.36741569581E+02 -0.14455579819E+03  0.12664329426E+04  0.12994609343E+04  0.25000000000E+03 0.  0.
<mgrwt>
<rscale>  0 0.62063365E+03</rscale>
<asrwt>0</asrwt>
<pdfrwt beam="1">  1        1 0.77733823E-02 0.62063365E+03</pdfrwt>
<pdfrwt beam="2">  1       -1 0.29320671E+00 0.62063365E+03</pdfrwt>
<totfact> 0.36655215E+01</totfact>
</mgrwt>
</event>
<event>
 4    1  0.4047984E-006  0.5761941E+03  0.7818608E-02  0.9956065E-01
         -1   -1    0    0    0  501 -0.00000000000E+00  0.00000000000E+00  0.28573318550E+03  0.28573318555E+03  0.50400000000E-02 0. -1.
          1   -1    0    0  501    0  0.00000000000E+00 -0.00000000000E+00 -0.29048045849E+03  0.29048045853E+03  0.50400000000E-02 0.  1.
   -5000001    1    1    2    0    0 -0.14088190305E+03  0.12449912311E+02 -0.24672281780E+02  0.28829053473E+03  0.25000000000E+03 0.  0.
    5000001    1    1    2    0    0  0.14088190305E+03 -0.12449912311E+02  0.19925008796E+02  0.28792310935E+03  0.25000000000E+03 0.  0.
<mgrwt>
<rscale>  0 0.57619409E+03</rscale>
<asrwt>0</asrwt>
<pdfrwt beam="1">  1        1 0.44689301E-01 0.57619409E+03</pdfrwt>
<pdfrwt beam="2">  1       -1 0.43958952E-01 0.57619409E+03</pdfrwt>
<totfact> 0.47331196E+02</totfact>
</mgrwt>
</event>
<event>
 4    1  0.4047984E-006  0.7174842E+03  0.7818608E-02  0.9687790E-01
         -1   -1    0    0    0  501 -0.00000000000E+00  0.00000000000E+00  0.26380533042E+03  0.26380533047E+03  0.50400000000E-02 0.  1.
          1   -1    0    0  501    0  0.00000000000E+00 -0.00000000000E+00 -0.48784421725E+03  0.48784421727E+03  0.50400000000E-02 0. -1.
   -5000001    1    1    2    0    0  0.19890617787E+03 -0.15366785292E+03 -0.16957582395E+03  0.39298019885E+03  0.25000000000E+03 0.  0.
    5000001    1    1    2    0    0 -0.19890617787E+03  0.15366785292E+03 -0.54463062878E+02  0.35866934889E+03  0.25000000000E+03 0.  0.
<mgrwt>
<rscale>  0 0.71748423E+03</rscale>
<asrwt>0</asrwt>
<pdfrwt beam="1">  1        1 0.75052957E-01 0.71748423E+03</pdfrwt>
<pdfrwt beam="2">  1       -1 0.40585435E-01 0.71748423E+03</pdfrwt>
<totfact> 0.27535200E+02</totfact>
</mgrwt>
</event>
<event>
 4    1  0.4047984E-006  0.8618579E+03  0.7818608E-02  0.9474558E-01
         -1   -1    0    0    0  501 -0.00000000000E+00  0.00000000000E+00  0.90808888443E+02  0.90808888583E+02  0.50400000000E-02 0. -1.
          1   -1    0    0  501    0  0.00000000000E+00 -0.00000000000E+00 -0.20449512075E+04  0.20449512075E+04  0.50400000000E-02 0.  1.
   -5000001    1    1    2    0    0  0.34441527855E+03 -0.67585343618E+02 -0.98494019650E+03  0.10750799289E+04  0.25000000000E+03 0.  0.
    5000001    1    1    2    0    0 -0.34441527855E+03  0.67585343618E+02 -0.96920212257E+03  0.10606801672E+04  0.25000000000E+03 0.  0.
<mgrwt>
<rscale>  0 0.86185787E+03</rscale>
<asrwt>0</asrwt>
<pdfrwt beam="1">  1        1 0.31460784E+00 0.86185787E+03</pdfrwt>
<pdfrwt beam="2">  1       -1 0.13970600E-01 0.86185787E+03</pdfrwt>
<totfact> 0.10466826E+02</totfact>
</mgrwt>
</event>
<event>
 4    1  0.4047984E-006  0.6003672E+03  0.7818608E-02  0.9904645E-01
          1   -1    0    0  501    0  0.00000000000E+00  0.00000000000E+00  0.13355673427E+03  0.13355673437E+03  0.50400000000E-02 0.  1.
         -1   -1    0    0    0  501 -0.00000000000E+00 -0.00000000000E+00 -0.67469596947E+03  0.67469596948E+03  0.50400000000E-02 0. -1.
   -5000001    1    1    2    0    0 -0.69602475235E+01  0.14276830945E+03 -0.38463683209E+03  0.48049633488E+03  0.25000000000E+03 0.  0.
    5000001    1    1    2    0    0  0.69602475235E+01 -0.14276830945E+03 -0.15650240310E+03  0.32775636898E+03  0.25000000000E+03 0.  0.
<mgrwt>
<rscale>  0 0.60036719E+03</rscale>
<asrwt>0</asrwt>
<pdfrwt beam="1">  1        1 0.20547190E-01 0.60036719E+03</pdfrwt>
<pdfrwt beam="2">  1       -1 0.10379938E+00 0.60036719E+03</pdfrwt>
<totfact> 0.22528197E+02</totfact>
</mgrwt>
</event>
<event>
 4    1  0.4047984E-006  0.9163352E+03  0.7818608E-02  0.9405389E-01
          1   -1    0    0  501    0  0.00000000000E+00  0.00000000000E+00  0.15413375663E+03  0.15413375671E+03  0.50400000000E-02 0.  1.
         -1   -1    0    0    0  501 -0.00000000000E+00 -0.00000000000E+00 -0.13619181590E+04  0.13619181590E+04  0.50400000000E-02 0. -1.
   -5000001    1    1    2    0    0 -0.35951950695E+03  0.15213211173E+02 -0.82544241447E+03  0.93452709820E+03  0.25000000000E+03 0.  0.
    5000001    1    1    2    0    0  0.35951950695E+03 -0.15213211173E+02 -0.38234198790E+03  0.58152481751E+03  0.25000000000E+03 0.  0.
<mgrwt>
<rscale>  0 0.91633523E+03</rscale>
<asrwt>0</asrwt>
<pdfrwt beam="1">  1        1 0.23712887E-01 0.91633523E+03</pdfrwt>
<pdfrwt beam="2">  1       -1 0.20952586E+00 0.91633523E+03</pdfrwt>
<totfact> 0.27432164E+01</totfact>
</mgrwt>
</event>
<event>
 4    1  0.4047984E-006  0.8706724E+03  0.7818608E-02  0.9463004E-01
         -1   -1    0    0    0  501 -0.00000000000E+00  0.00000000000E+00  0.16893153821E+03  0.16893153828E+03  0.50400000000E-02 0. -1.
          1   -1    0    0  501    0  0.00000000000E+00 -0.00000000000E+00 -0.11218604385E+04  0.11218604386E+04  0.50400000000E-02 0.  1.
   -5000001    1    1    2    0    0  0.11362731817E+03 -0.29502537329E+03 -0.23256136357E+03  0.46533420908E+03  0.25000000000E+03 0.  0.
    5000001    1    1    2    0    0 -0.11362731817E+03  0.29502537329E+03 -0.72036753676E+03  0.82545776775E+03  0.25000000000E+03 0.  0.
<mgrwt>
<rscale>  0 0.87067241E+03</rscale>
<asrwt>0</asrwt>
<pdfrwt beam="1">  1        1 0.17259391E+00 0.87067241E+03</pdfrwt>
<pdfrwt beam="2">  1       -1 0.25989468E-01 0.87067241E+03</pdfrwt>
<totfact> 0.16116410E+02</totfact>
</mgrwt>
</event>
<event>
 4    1  0.4047984E-006  0.7298585E+03  0.7818608E-02  0.9667490E-01
         -1   -1    0    0    0  501 -0.00000000000E+00  0.00000000000E+00  0.60982299028E+03  0.60982299030E+03  0.50400000000E-02 0.  1.
          1   -1    0    0  501    0  0.00000000000E+00 -0.00000000000E+00 -0.21838032757E+03  0.21838032763E+03  0.50400000000E-02 0. -1.
   -5000001    1    1    2    0    0 -0.18206833774E+03  0.19098318663E+03  0.15895336218E+03  0.39672361731E+03  0.25000000000E+03 0.  0.
    5000001    1    1    2    0    0  0.18206833774E+03 -0.19098318663E+03  0.23248930054E+03  0.43147970062E+03  0.25000000000E+03 0.  0.
<mgrwt>
<rscale>  0 0.72985846E+03</rscale>
<asrwt>0</asrwt>
<pdfrwt beam="1">  1        1 0.33596974E-01 0.72985846E+03</pdfrwt>
<pdfrwt beam="2">  1       -1 0.93818920E-01 0.72985846E+03</pdfrwt>
<totfact> 0.14823272E+02</totfact>
</mgrwt>
</event>
<event>
 4    1  0.4047984E-006  0.6425476E+03  0.7818608E-02  0.9820864E-01
         -1   -1    0    0    0  501 -0.00000000000E+00  0.00000000000E+00  0.11614154709E+03  0.11614154720E+03  0.50400000000E-02 0. -1.
          1   -1    0    0  501    0  0.00000000000E+00 -0.00000000000E+00 -0.88871595889E+03  0.88871595891E+03  0.50400000000E-02 0.  1.
   -5000001    1    1    2    0    0 -0.52887912462E+02  0.60577056244E+02 -0.96866006634E+02  0.27991022537E+03  0.25000000000E+03 0.  0.
    5000001    1    1    2    0    0  0.52887912462E+02 -0.60577056244E+02 -0.67570840517E+03  0.72494728073E+03  0.25000000000E+03 0.  0.
<mgrwt>
<rscale>  0 0.64254757E+03</rscale>
<asrwt>0</asrwt>
<pdfrwt beam="1">  1        1 0.13672553E+00 0.64254757E+03</pdfrwt>
<pdfrwt beam="2">  1       -1 0.17867931E-01 0.64254757E+03</pdfrwt>
<totfact> 0.46437296E+02</totfact>
</mgrwt>
</event>
<event>
 4    1  0.4047984E-006  0.5684987E+03  0.7818608E-02  0.9973006E-01
          1   -1    0    0  501    0  0.00000000000E+00  0.00000000000E+00  0.28208800496E+04  0.28208800497E+04  0.50400000000E-02 0.  1.
         -1   -1    0    0    0  501 -0.00000000000E+00 -0.00000000000E+00 -0.28642725308E+02  0.28642725751E+02  0.50400000000E-02 0. -1.
   -5000001    1    1    2    0    0 -0.10458096328E+03  0.49244986757E+02  0.17482509736E+04  0.17698145985E+04  0.25000000000E+03 0.  0.
    5000001    1    1    2    0    0  0.10458096328E+03 -0.49244986757E+02  0.10439863508E+04  0.10797081769E+04  0.25000000000E+03 0.  0.
<mgrwt>
<rscale>  0 0.56849870E+03</rscale>
<asrwt>0</asrwt>
<pdfrwt beam="1">  1        1 0.43398173E+00 0.56849870E+03</pdfrwt>
<pdfrwt beam="2">  1       -1 0.44065713E-02 0.56849870E+03</pdfrwt>
<totfact> 0.19473326E+02</totfact>
</mgrwt>
</event>
<event>
 4    1  0.4047984E-006  0.8297860E+03  0.7818608E-02  0.9517876E-01
          1   -1    0    0  501    0  0.00000000000E+00  0.00000000000E+00  0.71762703915E+03  0.71762703917E+03  0.50400000000E-02 0.  1.
         -1   -1    0    0    0  501 -0.00000000000E+00 -0.00000000000E+00 -0.23986861741E+03  0.23986861747E+03  0.50400000000E-02 0. -1.
   -5000001    1    1    2    0    0 -0.32255407207E+03 -0.61105147156E+02  0.28866112369E+03  0.50358734371E+03  0.25000000000E+03 0.  0.
    5000001    1    1    2    0    0  0.32255407207E+03  0.61105147156E+02  0.18909729805E+03  0.45390831293E+03  0.25000000000E+03 0.  0.
<mgrwt>
<rscale>  0 0.82978601E+03</rscale>
<asrwt>0</asrwt>
<pdfrwt beam="1">  1        1 0.11040416E+00 0.82978601E+03</pdfrwt>
<pdfrwt beam="2">  1       -1 0.36902865E-01 0.82978601E+03</pdfrwt>
<totfact> 0.18671784E+02</totfact>
</mgrwt>
</event>
<event>
 4    1  0.4047984E-006  0.1124194E+04  0.7818608E-02  0.9181926E-01
          1   -1    0    0  501    0  0.00000000000E+00  0.00000000000E+00  0.99647940692E+03  0.99647940693E+03  0.50400000000E-02 0.  1.
         -1   -1    0    0    0  501 -0.00000000000E+00 -0.00000000000E+00 -0.31706957759E+03  0.31706957763E+03  0.50400000000E-02 0. -1.
   -5000001    1    1    2    0    0 -0.27667285375E+03 -0.94202144920E+02 -0.13925596149E+03  0.40904050523E+03  0.25000000000E+03 0.  0.
    5000001    1    1    2    0    0  0.27667285375E+03  0.94202144920E+02  0.81866579082E+03  0.90450847933E+03  0.25000000000E+03 0.  0.
<mgrwt>
<rscale>  0 0.11241945E+04</rscale>
<asrwt>0</asrwt>
<pdfrwt beam="1">  1        1 0.15330452E+00 0.11241945E+04</pdfrwt>
<pdfrwt beam="2">  1       -1 0.48779935E-01 0.11241945E+04</pdfrwt>
<totfact> 0.63710625E+01</totfact>
</mgrwt>
</event>
<event>
 4    1  0.4047984E-006  0.7782847E+03  0.7818608E-02  0.9591992E-01
          1   -1    0    0  501    0  0.00000000000E+00  0.00000000000E+00  0.45659448993E+03  0.45659448996E+03  0.50400000000E-02 0.  1.
         -1   -1    0    0    0  501 -0.00000000000E+00 -0.00000000000E+00 -0.33165481632E+03  0.33165481636E+03  0.50400000000E-02 0. -1.
   -5000001    1    1    2    0    0  0.22244932592E+03  0.14154622951E+03  0.20358326881E+03  0.41649151856E+03  0.25000000000E+03 0.  0.
    5000001    1    1    2    0    0 -0.22244932592E+03 -0.14154622951E+03 -0.78643595195E+02  0.37175778776E+03  0.25000000000E+03 0.  0.
<mgrwt>
<rscale>  0 0.77828468E+03</rscale>
<asrwt>0</asrwt>
<pdfrwt beam="1">  1        1 0.70245306E-01 0.77828468E+03</pdfrwt>
<pdfrwt beam="2">  1       -1 0.51023818E-01 0.77828468E+03</pdfrwt>
<totfact> 0.19622344E+02</totfact>
</mgrwt>
</event>
<event>
 4    1  0.4047984E-006  0.1027038E+04  0.7818608E-02  0.9279378E-01
         -1   -1    0    0    0  501 -0.00000000000E+00  0.00000000000E+00  0.39265174320E+03  0.39265174323E+03  0.50400000000E-02 0. -1.
          1   -1    0    0  501    0  0.00000000000E+00 -0.00000000000E+00 -0.67159156768E+03  0.67159156770E+03  0.50400000000E-02 0.  1.
   -5000001    1    1    2    0    0  0.26658509936E+03  0.35937558874E+03 -0.17196135833E+03  0.54063771394E+03  0.25000000000E+03 0.  0.
    5000001    1    1    2    0    0 -0.26658509936E+03 -0.35937558874E+03 -0.10697846615E+03  0.52360559699E+03  0.25000000000E+03 0.  0.
<mgrwt>
<rscale>  0 0.10270377E+04</rscale>
<asrwt>0</asrwt>
<pdfrwt beam="1">  1        1 0.10332178E+00 0.10270377E+04</pdfrwt>
<pdfrwt beam="2">  1       -1 0.60407961E-01 0.10270377E+04</pdfrwt>
<totfact> 0.80700078E+01</totfact>
</mgrwt>
</event>
<event>
 4    1  0.4047984E-006  0.7392115E+03  0.7818608E-02  0.9652429E-01
          1   -1    0    0  501    0  0.00000000000E+00  0.00000000000E+00  0.10005492360E+04  0.10005492360E+04  0.50400000000E-02 0.  1.
         -1   -1    0    0    0  501 -0.00000000000E+00 -0.00000000000E+00 -0.13653343081E+03  0.13653343091E+03  0.50400000000E-02 0. -1.
   -5000001    1    1    2    0    0  0.10079509259E+03 -0.17384995159E+03  0.14952052017E+03  0.35389241629E+03  0.25000000000E+03 0.  0.
    5000001    1    1    2    0    0 -0.10079509259E+03  0.17384995159E+03  0.71449528500E+03  0.78319025061E+03  0.25000000000E+03 0.  0.
<mgrwt>
<rscale>  0 0.73921153E+03</rscale>
<asrwt>0</asrwt>
<pdfrwt beam="1">  1        1 0.15393066E+00 0.73921153E+03</pdfrwt>
<pdfrwt beam="2">  1       -1 0.21005142E-01 0.73921153E+03</pdfrwt>
<totfact> 0.28800177E+02</totfact>
</mgrwt>
</event>
<event>
 4    1  0.4047984E-006  0.6297484E+03  0.7818608E-02  0.9845540E-01
         -1   -1    0    0    0  501 -0.00000000000E+00  0.00000000000E+00  0.35777921723E+02  0.35777922078E+02  0.50400000000E-02 0. -1.
          1   -1    0    0  501    0  0.00000000000E+00 -0.00000000000E+00 -0.27711440145E+04  0.27711440145E+04  0.50400000000E-02 0.  1.
   -5000001    1    1    2    0    0  0.17581618137E+03 -0.31950107945E+02 -0.16736969895E+04  0.17016738088E+04  0.25000000000E+03 0.  0.
    5000001    1    1    2    0    0 -0.17581618137E+03  0.31950107945E+02 -0.10616691033E+04  0.11052481278E+04  0.25000000000E+03 0.  0.
<mgrwt>
<rscale>  0 0.62974844E+03</rscale>
<asrwt>0</asrwt>
<pdfrwt beam="1">  1        1 0.42632968E+00 0.62974844E+03</pdfrwt>
<pdfrwt beam="2">  1       -1 0.55042978E-02 0.62974844E+03</pdfrwt>
<totfact> 0.14902951E+02</totfact>
</mgrwt>
</event>
<event>
 4    1  0.4047984E-006  0.8036525E+03  0.7818608E-02  0.9554745E-01
          1   -1    0    0  501    0  0.00000000000E+00  0.00000000000E+00  0.68268884995E+03  0.68268884997E+03  0.50400000000E-02 0. -1.
         -1   -1    0    0    0  501 -0.00000000000E+00 -0.00000000000E+00 -0.23651234987E+03  0.23651234992E+03  0.50400000000E-02 0.  1.
   -5000001    1    1    2    0    0 -0.18177825879E+02 -0.79974811218E+02  0.57046205755E+03  0.62821442429E+03  0.25000000000E+03 0.  0.
    5000001    1    1    2    0    0  0.18177825879E+02  0.79974811218E+02 -0.12428555746E+03  0.29098677560E+03  0.25000000000E+03 0.  0.
<mgrwt>
<rscale>  0 0.80365252E+03</rscale>
<asrwt>0</asrwt>
<pdfrwt beam="1">  1        1 0.10502905E+00 0.80365252E+03</pdfrwt>
<pdfrwt beam="2">  1       -1 0.36386515E-01 0.80365252E+03</pdfrwt>
<totfact> 0.20683185E+02</totfact>
</mgrwt>
</event>
<event>
 4    1  0.4047984E-006  0.8556053E+03  0.7818608E-02  0.9482844E-01
          1   -1    0    0  501    0  0.00000000000E+00  0.00000000000E+00  0.59816562776E+03  0.59816562778E+03  0.50400000000E-02 0.  1.
         -1   -1    0    0    0  501 -0.00000000000E+00 -0.00000000000E+00 -0.30596057308E+03  0.30596057312E+03  0.50400000000E-02 0. -1.
   -5000001    1    1    2    0    0 -0.13432848600E+03 -0.30805968775E+03  0.23804344706E+03  0.48177753793E+03  0.25000000000E+03 0.  0.
    5000001    1    1    2    0    0  0.13432848600E+03  0.30805968775E+03  0.54161607617E+02  0.42234866297E+03  0.25000000000E+03 0.  0.
<mgrwt>
<rscale>  0 0.85560528E+03</rscale>
<asrwt>0</asrwt>
<pdfrwt beam="1">  1        1 0.92025480E-01 0.85560528E+03</pdfrwt>
<pdfrwt beam="2">  1       -1 0.47070858E-01 0.85560528E+03</pdfrwt>
<totfact> 0.15626054E+02</totfact>
</mgrwt>
</event>
<event>
 4    1  0.4047984E-006  0.5682680E+03  0.7818608E-02  0.9973519E-01
          1   -1    0    0  501    0  0.00000000000E+00  0.00000000000E+00  0.10893168666E+03  0.10893168678E+03  0.50400000000E-02 0. -1.
         -1   -1    0    0    0  501 -0.00000000000E+00 -0.00000000000E+00 -0.74112631681E+03  0.74112631682E+03  0.50400000000E-02 0.  1.
   -5000001    1    1    2    0    0  0.66037163767E+02  0.11593631816E+03 -0.34711654627E+03  0.44809824097E+03  0.25000000000E+03 0.  0.
    5000001    1    1    2    0    0 -0.66037163767E+02 -0.11593631816E+03 -0.28507808388E+03  0.40195976263E+03  0.25000000000E+03 0.  0.
<mgrwt>
<rscale>  0 0.56826803E+03</rscale>
<asrwt>0</asrwt>
<pdfrwt beam="1">  1        1 0.16758722E-01 0.56826803E+03</pdfrwt>
<pdfrwt beam="2">  1       -1 0.11401943E+00 0.56826803E+03</pdfrwt>
<totfact> 0.23729509E+02</totfact>
</mgrwt>
</event>
<event>
 4    1  0.4047984E-006  0.6896022E+03  0.7818608E-02  0.9735181E-01
          1   -1    0    0  501    0  0.00000000000E+00  0.00000000000E+00  0.68791317576E+03  0.68791317578E+03  0.50400000000E-02 0.  1.
         -1   -1    0    0    0  501 -0.00000000000E+00 -0.00000000000E+00 -0.17282383287E+03  0.17282383294E+03  0.50400000000E-02 0. -1.
   -5000001    1    1    2    0    0 -0.62784055981E+02 -0.21051300600E+03  0.37008889856E+03  0.49771814938E+03  0.25000000000E+03 0.  0.
    5000001    1    1    2    0    0  0.62784055981E+02  0.21051300600E+03  0.14500044434E+03  0.36301885934E+03  0.25000000000E+03 0.  0.
<mgrwt>
<rscale>  0 0.68960218E+03</rscale>
<asrwt>0</asrwt>
<pdfrwt beam="1">  1        1 0.10583280E+00 0.68960218E+03</pdfrwt>
<pdfrwt beam="2">  1       -1 0.26588282E-01 0.68960218E+03</pdfrwt>
<totfact> 0.35627552E+02</totfact>
</mgrwt>
</event>
<event>
 4    1  0.4047984E-006  0.7313357E+03  0.7818608E-02  0.9665095E-01
         -1   -1    0    0    0  501 -0.00000000000E+00  0.00000000000E+00  0.22145281148E+03  0.22145281154E+03  0.50400000000E-02 0. -1.
          1   -1    0    0  501    0  0.00000000000E+00 -0.00000000000E+00 -0.60379887799E+03  0.60379887801E+03  0.50400000000E-02 0.  1.
   -5000001    1    1    2    0    0 -0.20328568323E+02  0.23416656971E+03 -0.48591259445E+02  0.34656650668E+03  0.25000000000E+03 0.  0.
    5000001    1    1    2    0    0  0.20328568323E+02 -0.23416656971E+03 -0.33375480706E+03  0.47868518287E+03  0.25000000000E+03 0.  0.
<mgrwt>
<rscale>  0 0.73133565E+03</rscale>
<asrwt>0</asrwt>
<pdfrwt beam="1">  1        1 0.92892134E-01 0.73133565E+03</pdfrwt>
<pdfrwt beam="2">  1       -1 0.34069664E-01 0.73133565E+03</pdfrwt>
<totfact> 0.27955535E+02</totfact>
</mgrwt>
</event>
<event>
 4    1  0.4047984E-006  0.9884462E+03  0.7818608E-02  0.9321308E-01
          1   -1    0    0  501    0  0.00000000000E+00  0.00000000000E+00  0.42346316703E+03  0.42346316706E+03  0.50400000000E-02 0.  1.
         -1   -1    0    0    0  501 -0.00000000000E+00 -0.00000000000E+00 -0.57680691964E+03  0.57680691967E+03  0.50400000000E-02 0. -1.
   -5000001    1    1    2    0    0 -0.24596478594E+03  0.47515548241E+02 -0.42576224267E+03  0.55365141608E+03  0.25000000000E+03 0.  0.
    5000001    1    1    2    0    0  0.24596478594E+03 -0.47515548241E+02  0.27241849005E+03  0.44661867065E+03  0.25000000000E+03 0.  0.
<mgrwt>
<rscale>  0 0.98844623E+03</rscale>
<asrwt>0</asrwt>
<pdfrwt beam="1">  1        1 0.65148179E-01 0.98844623E+03</pdfrwt>
<pdfrwt beam="2">  1       -1 0.88739526E-01 0.98844623E+03</pdfrwt>
<totfact> 0.69536698E+01</totfact>
</mgrwt>
</event>
<event>
 4    1  0.4047984E-006  0.9722827E+03  0.7818608E-02  0.9339478E-01
         -1   -1    0    0    0  501 -0.00000000000E+00  0.00000000000E+00  0.20680310298E+03  0.20680310304E+03  0.50400000000E-02 0. -1.
          1   -1    0    0  501    0  0.00000000000E+00 -0.00000000000E+00 -0.11427944407E+04  0.11427944407E+04  0.50400000000E-02 0.  1.
   -5000001    1    1    2    0    0  0.32148750631E+03 -0.26547519572E+03 -0.46596500382E+03  0.67339043729E+03  0.25000000000E+03 0.  0.
    5000001    1    1    2    0    0 -0.32148750631E+03  0.26547519572E+03 -0.47002633389E+03  0.67620710644E+03  0.25000000000E+03 0.  0.
<mgrwt>
<rscale>  0 0.97228275E+03</rscale>
<asrwt>0</asrwt>
<pdfrwt beam="1">  1        1 0.17581452E+00 0.97228275E+03</pdfrwt>
<pdfrwt beam="2">  1       -1 0.31815863E-01 0.97228275E+03</pdfrwt>
<totfact> 0.10864817E+02</totfact>
</mgrwt>
</event>
<event>
 4    1  0.4047984E-006  0.5375018E+03  0.7818608E-02  0.1004429E+00
         -1   -1    0    0    0  501 -0.00000000000E+00  0.00000000000E+00  0.86907376174E+02  0.86907376320E+02  0.50400000000E-02 0. -1.
          1   -1    0    0  501    0  0.00000000000E+00 -0.00000000000E+00 -0.83108060454E+03  0.83108060456E+03  0.50400000000E-02 0.  1.
   -5000001    1    1    2    0    0  0.24417279741E+02 -0.95302209218E+02 -0.36021468374E+03  0.44936992891E+03  0.25000000000E+03 0.  0.
    5000001    1    1    2    0    0 -0.24417279741E+02  0.95302209218E+02 -0.38395854463E+03  0.46861805196E+03  0.25000000000E+03 0.  0.
<mgrwt>
<rscale>  0 0.53750176E+03</rscale>
<asrwt>0</asrwt>
<pdfrwt beam="1">  1        1 0.12785855E+00 0.53750176E+03</pdfrwt>
<pdfrwt beam="2">  1       -1 0.13370366E-01 0.53750176E+03</pdfrwt>
<totfact> 0.83302412E+02</totfact>
</mgrwt>
</event>
<event>
 4    1  0.4047984E-006  0.6985142E+03  0.7818608E-02  0.9719776E-01
         -1   -1    0    0    0  501 -0.00000000000E+00  0.00000000000E+00  0.27131773664E+03  0.27131773668E+03  0.50400000000E-02 0. -1.
          1   -1    0    0  501    0  0.00000000000E+00 -0.00000000000E+00 -0.44958549559E+03  0.44958549561E+03  0.50400000000E-02 0.  1.
   -5000001    1    1    2    0    0  0.48261066741E+02 -0.54073528896E+02  0.15119795298E+03  0.30102142461E+03  0.25000000000E+03 0.  0.
    5000001    1    1    2    0    0 -0.48261066741E+02  0.54073528896E+02 -0.32946571193E+03  0.41988180769E+03  0.25000000000E+03 0.  0.
<mgrwt>
<rscale>  0 0.69851419E+03</rscale>
<asrwt>0</asrwt>
<pdfrwt beam="1">  1        1 0.69166999E-01 0.69851419E+03</pdfrwt>
<pdfrwt beam="2">  1       -1 0.41741190E-01 0.69851419E+03</pdfrwt>
<totfact> 0.29244125E+02</totfact>
</mgrwt>
</event>
<event>
 4    1  0.4047984E-006  0.6861101E+03  0.7818608E-02  0.9741285E-01
         -1   -1    0    0    0  501 -0.00000000000E+00  0.00000000000E+00  0.76620383335E+02  0.76620383501E+02  0.50400000000E-02 0. -1.
          1   -1    0    0  501    0  0.00000000000E+00 -0.00000000000E+00 -0.15359721063E+04  0.15359721063E+04  0.50400000000E-02 0.  1.
   -5000001    1    1    2    0    0 -0.73387523109E+02 -0.21783333489E+03 -0.61574659541E+03  0.70319340163E+03  0.25000000000E+03 0.  0.
    5000001    1    1    2    0    0  0.73387523109E+02  0.21783333489E+03 -0.84360512753E+03  0.90939908815E+03  0.25000000000E+03 0.  0.
<mgrwt>
<rscale>  0 0.68611011E+03</rscale>
<asrwt>0</asrwt>
<pdfrwt beam="1">  1        1 0.23630338E+00 0.68611011E+03</pdfrwt>
<pdfrwt beam="2">  1       -1 0.11787752E-01 0.68611011E+03</pdfrwt>
<totfact> 0.30682575E+02</totfact>
</mgrwt>
</event>
<event>
 4    1  0.4047984E-006  0.6385976E+03  0.7818608E-02  0.9828413E-01
          1   -1    0    0  501    0  0.00000000000E+00  0.00000000000E+00  0.44428965000E+03  0.44428965003E+03  0.50400000000E-02 0.  1.
         -1   -1    0    0    0  501 -0.00000000000E+00 -0.00000000000E+00 -0.22947130561E+03  0.22947130567E+03  0.50400000000E-02 0. -1.
   -5000001    1    1    2    0    0  0.17084265270E+03  0.98675354950E+02  0.13164552906E+03  0.34460786842E+03  0.25000000000E+03 0.  0.
    5000001    1    1    2    0    0 -0.17084265270E+03 -0.98675354950E+02  0.83172815331E+02  0.32915308728E+03  0.25000000000E+03 0.  0.
<mgrwt>
<rscale>  0 0.63859761E+03</rscale>
<asrwt>0</asrwt>
<pdfrwt beam="1">  1        1 0.68352254E-01 0.63859761E+03</pdfrwt>
<pdfrwt beam="2">  1       -1 0.35303278E-01 0.63859761E+03</pdfrwt>
<totfact> 0.40281521E+02</totfact>
</mgrwt>
</event>
<event>
 4    1  0.4047984E-006  0.1189945E+04  0.7818608E-02  0.9121703E-01
         -1   -1    0    0    0  501 -0.00000000000E+00  0.00000000000E+00  0.29012978534E+03  0.29012978538E+03  0.50400000000E-02 0.  1.
          1   -1    0    0  501    0  0.00000000000E+00 -0.00000000000E+00 -0.12201178027E+04  0.12201178027E+04  0.50400000000E-02 0. -1.
   -5000001    1    1    2    0    0  0.19672406654E+03  0.24793373926E+03  0.90145909741E+02  0.41327688354E+03  0.25000000000E+03 0.  0.
    5000001    1    1    2    0    0 -0.19672406654E+03 -0.24793373926E+03 -0.10201339271E+04  0.10969707045E+04  0.25000000000E+03 0.  0.
<mgrwt>
<rscale>  0 0.11899454E+04</rscale>
<asrwt>0</asrwt>
<pdfrwt beam="1">  1        1 0.18771043E+00 0.11899454E+04</pdfrwt>
<pdfrwt beam="2">  1       -1 0.44635352E-01 0.11899454E+04</pdfrwt>
<totfact> 0.50852867E+01</totfact>
</mgrwt>
</event>
<event>
 4    1  0.4047984E-006  0.8863364E+03  0.7818608E-02  0.9442825E-01
          1   -1    0    0  501    0  0.00000000000E+00  0.00000000000E+00  0.24556406386E+04  0.24556406386E+04  0.50400000000E-02 0.  1.
         -1   -1    0    0    0  501 -0.00000000000E+00 -0.00000000000E+00 -0.79978337126E+02  0.79978337284E+02  0.50400000000E-02 0. -1.
   -5000001    1    1    2    0    0 -0.19783413151E+03 -0.30727809039E+03  0.11350896539E+04  0.12183951292E+04  0.25000000000E+03 0.  0.
    5000001    1    1    2    0    0  0.19783413151E+03  0.30727809039E+03  0.12405726475E+04  0.13172238467E+04  0.25000000000E+03 0.  0.
<mgrwt>
<rscale>  0 0.88633640E+03</rscale>
<asrwt>0</asrwt>
<pdfrwt beam="1">  1        1 0.37779085E+00 0.88633640E+03</pdfrwt>
<pdfrwt beam="2">  1       -1 0.12304360E-01 0.88633640E+03</pdfrwt>
<totfact> 0.67670371E+01</totfact>
</mgrwt>
</event>
<event>
 4    1  0.4047984E-006  0.6476891E+03  0.7818608E-02  0.9811125E-01
         -1   -1    0    0    0  501 -0.00000000000E+00  0.00000000000E+00  0.20909512245E+03  0.20909512252E+03  0.50400000000E-02 0. -1.
          1   -1    0    0  501    0  0.00000000000E+00 -0.00000000000E+00 -0.50156743449E+03  0.50156743451E+03  0.50400000000E-02 0.  1.
   -5000001    1    1    2    0    0 -0.43215282396E+02 -0.11579787929E+03 -0.32685797285E+03  0.42966596781E+03  0.25000000000E+03 0.  0.
    5000001    1    1    2    0    0  0.43215282396E+02  0.11579787929E+03  0.34385660817E+02  0.28099658922E+03  0.25000000000E+03 0.  0.
<mgrwt>
<rscale>  0 0.64768914E+03</rscale>
<asrwt>0</asrwt>
<pdfrwt beam="1">  1        1 0.77164220E-01 0.64768914E+03</pdfrwt>
<pdfrwt beam="2">  1       -1 0.32168481E-01 0.64768914E+03</pdfrwt>
<totfact> 0.40269807E+02</totfact>
</mgrwt>
</event>
<event>
 4    1  0.4047984E-006  0.1368368E+04  0.7818608E-02  0.8977039E-01
         -1   -1    0    0    0  501 -0.00000000000E+00  0.00000000000E+00  0.30400083158E+03  0.30400083162E+03  0.50400000000E-02 0.  1.
          1   -1    0    0  501    0  0.00000000000E+00 -0.00000000000E+00 -0.15398241444E+04  0.15398241444E+04  0.50400000000E-02 0. -1.
   -5000001    1    1    2    0    0  0.45501584587E+03 -0.41531359592E+03 -0.83553008290E+03  0.10677711938E+04  0.25000000000E+03 0.  0.
    5000001    1    1    2    0    0 -0.45501584587E+03  0.41531359592E+03 -0.40029322994E+03  0.77605378221E+03  0.25000000000E+03 0.  0.
<mgrwt>
<rscale>  0 0.13683681E+04</rscale>
<asrwt>0</asrwt>
<pdfrwt beam="1">  1        1 0.23689602E+00 0.13683681E+04</pdfrwt>
<pdfrwt beam="2">  1       -1 0.46769360E-01 0.13683681E+04</pdfrwt>
<totfact> 0.27334594E+01</totfact>
</mgrwt>
</event>
<event>
 4    1  0.4047984E-006  0.7480189E+03  0.7818608E-02  0.9638464E-01
          1   -1    0    0  501    0  0.00000000000E+00  0.00000000000E+00  0.31220391543E+03  0.31220391547E+03  0.50400000000E-02 0.  1.
         -1   -1    0    0    0  501 -0.00000000000E+00 -0.00000000000E+00 -0.44805033456E+03  0.44805033459E+03  0.50400000000E-02 0. -1.
   -5000001    1    1    2    0    0  0.25531607944E+03 -0.54369836749E+02  0.29777668624E+02  0.36266939369E+03  0.25000000000E+03 0.  0.
    5000001    1    1    2    0    0 -0.25531607944E+03  0.54369836749E+02 -0.16562408776E+03  0.39758485637E+03  0.25000000000E+03 0.  0.
<mgrwt>
<rscale>  0 0.74801890E+03</rscale>
<asrwt>0</asrwt>
<pdfrwt beam="1">  1        1 0.48031372E-01 0.74801890E+03</pdfrwt>
<pdfrwt beam="2">  1       -1 0.68930820E-01 0.74801890E+03</pdfrwt>
<totfact> 0.17965672E+02</totfact>
</mgrwt>
</event>
<event>
 4    1  0.4047984E-006  0.9144897E+03  0.7818608E-02  0.9407648E-01
         -1   -1    0    0    0  501 -0.00000000000E+00  0.00000000000E+00  0.59620025005E+03  0.59620025007E+03  0.50400000000E-02 0. -1.
          1   -1    0    0  501    0  0.00000000000E+00 -0.00000000000E+00 -0.35067551845E+03  0.35067551848E+03  0.50400000000E-02 0.  1.
   -5000001    1    1    2    0    0  0.33444725129E+03 -0.15026734334E+03  0.86899866747E+01  0.44385893507E+03  0.25000000000E+03 0.  0.
    5000001    1    1    2    0    0 -0.33444725129E+03  0.15026734334E+03  0.23683474493E+03  0.50301683349E+03  0.25000000000E+03 0.  0.
<mgrwt>
<rscale>  0 0.91448965E+03</rscale>
<asrwt>0</asrwt>
<pdfrwt beam="1">  1        1 0.53950081E-01 0.91448965E+03</pdfrwt>
<pdfrwt beam="2">  1       -1 0.91723114E-01 0.91448965E+03</pdfrwt>
<totfact> 0.83386827E+01</totfact>
</mgrwt>
</event>
<event>
 4    1  0.4047984E-006  0.6130848E+03  0.7818608E-02  0.9878625E-01
         -1   -1    0    0    0  501 -0.00000000000E+00  0.00000000000E+00  0.40447286827E+03  0.40447286830E+03  0.50400000000E-02 0.  1.
          1   -1    0    0  501    0  0.00000000000E+00 -0.00000000000E+00 -0.23232276262E+03  0.23232276268E+03  0.50400000000E-02 0. -1.
   -5000001    1    1    2    0    0  0.48895405342E+02 -0.16993012973E+03  0.71340344268E+02  0.31441446273E+03  0.25000000000E+03 0.  0.
    5000001    1    1    2    0    0 -0.48895405342E+02  0.16993012973E+03  0.10080976138E+03  0.32238116825E+03  0.25000000000E+03 0.  0.
<mgrwt>
<rscale>  0 0.61308484E+03</rscale>
<asrwt>0</asrwt>
<pdfrwt beam="1">  1        1 0.35741964E-01 0.61308484E+03</pdfrwt>
<pdfrwt beam="2">  1       -1 0.62226594E-01 0.61308484E+03</pdfrwt>
<totfact> 0.32508213E+02</totfact>
</mgrwt>
</event>
<event>
 4    1  0.4047984E-006  0.8513036E+03  0.7818608E-02  0.9488589E-01
         -1   -1    0    0    0  501 -0.00000000000E+00  0.00000000000E+00  0.16612340032E+03  0.16612340039E+03  0.50400000000E-02 0. -1.
          1   -1    0    0  501    0  0.00000000000E+00 -0.00000000000E+00 -0.10906318738E+04  0.10906318739E+04  0.50400000000E-02 0.  1.
   -5000001    1    1    2    0    0  0.27810952313E+03 -0.19252012440E+03 -0.55872798642E+03  0.69934674373E+03  0.25000000000E+03 0.  0.
    5000001    1    1    2    0    0 -0.27810952313E+03  0.19252012440E+03 -0.36578048710E+03  0.55740853052E+03  0.25000000000E+03 0.  0.
<mgrwt>
<rscale>  0 0.85130365E+03</rscale>
<asrwt>0</asrwt>
<pdfrwt beam="1">  1        1 0.16778951E+00 0.85130365E+03</pdfrwt>
<pdfrwt beam="2">  1       -1 0.25557447E-01 0.85130365E+03</pdfrwt>
<totfact> 0.17523458E+02</totfact>
</mgrwt>
</event>
<event>
 4    1  0.4047984E-006  0.6319086E+03  0.7818608E-02  0.9841331E-01
         -1   -1    0    0    0  501 -0.00000000000E+00  0.00000000000E+00  0.62726734598E+02  0.62726734801E+02  0.50400000000E-02 0. -1.
          1   -1    0    0  501    0  0.00000000000E+00 -0.00000000000E+00 -0.15914604212E+04  0.15914604212E+04  0.50400000000E-02 0.  1.
   -5000001    1    1    2    0    0  0.18098602791E+03 -0.25571702474E+02 -0.60052619331E+03  0.67567859454E+03  0.25000000000E+03 0.  0.
    5000001    1    1    2    0    0 -0.18098602791E+03  0.25571702474E+02 -0.92820749327E+03  0.97850856144E+03  0.25000000000E+03 0.  0.
<mgrwt>
<rscale>  0 0.63190859E+03</rscale>
<asrwt>0</asrwt>
<pdfrwt beam="1">  1        1 0.24484003E+00 0.63190859E+03</pdfrwt>
<pdfrwt beam="2">  1       -1 0.96502681E-02 0.63190859E+03</pdfrwt>
<totfact> 0.38796432E+02</totfact>
</mgrwt>
</event>
<event>
 4    1  0.4047984E-006  0.6616704E+03  0.7818608E-02  0.9785124E-01
         -1   -1    0    0    0  501 -0.00000000000E+00  0.00000000000E+00  0.24520224461E+03  0.24520224467E+03  0.50400000000E-02 0.  1.
          1   -1    0    0  501    0  0.00000000000E+00 -0.00000000000E+00 -0.44637405939E+03  0.44637405942E+03  0.50400000000E-02 0. -1.
   -5000001    1    1    2    0    0  0.21052211751E+03 -0.48822968438E+02 -0.11706815101E+03  0.35058265243E+03  0.25000000000E+03 0.  0.
    5000001    1    1    2    0    0 -0.21052211751E+03  0.48822968438E+02 -0.84103663770E+02  0.34099365165E+03  0.25000000000E+03 0.  0.
<mgrwt>
<rscale>  0 0.66167038E+03</rscale>
<asrwt>0</asrwt>
<pdfrwt beam="1">  1        1 0.68672932E-01 0.66167038E+03</pdfrwt>
<pdfrwt beam="2">  1       -1 0.37723422E-01 0.66167038E+03</pdfrwt>
<totfact> 0.35526483E+02</totfact>
</mgrwt>
</event>
<event>
 4    1  0.4047984E-006  0.7371019E+03  0.7818608E-02  0.9655806E-01
         -1   -1    0    0    0  501 -0.00000000000E+00  0.00000000000E+00  0.65409732006E+02  0.65409732200E+02  0.50400000000E-02 0. -1.
          1   -1    0    0  501    0  0.00000000000E+00 -0.00000000000E+00 -0.20765994245E+04  0.20765994245E+04  0.50400000000E-02 0.  1.
   -5000001    1    1    2    0    0 -0.58589036074E+02  0.25246602439E+03 -0.12336370092E+04  0.12851194649E+04  0.25000000000E+03 0.  0.
    5000001    1    1    2    0    0  0.58589036074E+02 -0.25246602439E+03 -0.77755268334E+03  0.85688969184E+03  0.25000000000E+03 0.  0.
<mgrwt>
<rscale>  0 0.73710193E+03</rscale>
<asrwt>0</asrwt>
<pdfrwt beam="1">  1        1 0.31947678E+00 0.73710193E+03</pdfrwt>
<pdfrwt beam="2">  1       -1 0.10063037E-01 0.73710193E+03</pdfrwt>
<totfact> 0.17050541E+02</totfact>
</mgrwt>
</event>
<event>
 4    1  0.4047984E-006  0.5653658E+03  0.7818608E-02  0.9979986E-01
         -1   -1    0    0    0  501 -0.00000000000E+00  0.00000000000E+00  0.21664202549E+03  0.21664202555E+03  0.50400000000E-02 0. -1.
          1   -1    0    0  501    0  0.00000000000E+00 -0.00000000000E+00 -0.36885555809E+03  0.36885555813E+03  0.50400000000E-02 0.  1.
   -5000001    1    1    2    0    0 -0.29177331216E+02  0.90614304102E+02  0.18510372702E+02  0.26815089532E+03  0.25000000000E+03 0.  0.
    5000001    1    1    2    0    0  0.29177331216E+02 -0.90614304102E+02 -0.17072390530E+03  0.31734668835E+03  0.25000000000E+03 0.  0.
<mgrwt>
<rscale>  0 0.56536578E+03</rscale>
<asrwt>0</asrwt>
<pdfrwt beam="1">  1        1 0.56747009E-01 0.56536578E+03</pdfrwt>
<pdfrwt beam="2">  1       -1 0.33329542E-01 0.56536578E+03</pdfrwt>
<totfact> 0.57142714E+02</totfact>
</mgrwt>
</event>
<event>
 4    1  0.4047984E-006  0.8449739E+03  0.7818608E-02  0.9497108E-01
          1   -1    0    0  501    0  0.00000000000E+00  0.00000000000E+00  0.58270593765E+03  0.58270593767E+03  0.50400000000E-02 0. -1.
         -1   -1    0    0    0  501 -0.00000000000E+00 -0.00000000000E+00 -0.30632127656E+03  0.30632127660E+03  0.50400000000E-02 0.  1.
   -5000001    1    1    2    0    0  0.16567153892E+03  0.27916261836E+03  0.29784562874E+02  0.41081132711E+03  0.25000000000E+03 0.  0.
    5000001    1    1    2    0    0 -0.16567153892E+03 -0.27916261836E+03  0.24660009822E+03  0.47821588717E+03  0.25000000000E+03 0.  0.
<mgrwt>
<rscale>  0 0.84497391E+03</rscale>
<asrwt>0</asrwt>
<pdfrwt beam="1">  1        1 0.89647067E-01 0.84497391E+03</pdfrwt>
<pdfrwt beam="2">  1       -1 0.47126350E-01 0.84497391E+03</pdfrwt>
<totfact> 0.16198142E+02</totfact>
</mgrwt>
</event>
<event>
 4    1  0.4047984E-006  0.6418895E+03  0.7818608E-02  0.9822118E-01
          1   -1    0    0  501    0  0.00000000000E+00  0.00000000000E+00  0.19826939796E+04  0.19826939796E+04  0.50400000000E-02 0. -1.
         -1   -1    0    0    0  501 -0.00000000000E+00 -0.00000000000E+00 -0.51952309535E+02  0.51952309779E+02  0.50400000000E-02 0.  1.
   -5000001    1    1    2    0    0  0.19407845896E+03  0.45324064453E+02  0.10541705597E+04  0.11015880755E+04  0.25000000000E+03 0.  0.
    5000001    1    1    2    0    0 -0.19407845896E+03 -0.45324064453E+02  0.87657111037E+03  0.93305821393E+03  0.25000000000E+03 0.  0.
<mgrwt>
<rscale>  0 0.64188950E+03</rscale>
<asrwt>0</asrwt>
<pdfrwt beam="1">  1        1 0.30502988E+00 0.64188950E+03</pdfrwt>
<pdfrwt beam="2">  1       -1 0.79926620E-02 0.64188950E+03</pdfrwt>
<totfact> 0.28533321E+02</totfact>
</mgrwt>
</event>
<event>
 4    1  0.4047984E-006  0.7377196E+03  0.7818608E-02  0.9654816E-01
          1   -1    0    0  501    0  0.00000000000E+00  0.00000000000E+00  0.44313914992E+03  0.44313914995E+03  0.50400000000E-02 0.  1.
         -1   -1    0    0    0  501 -0.00000000000E+00 -0.00000000000E+00 -0.30703120602E+03  0.30703120606E+03  0.50400000000E-02 0. -1.
   -5000001    1    1    2    0    0  0.19148135098E+03 -0.10765176412E+02  0.26306271423E+03  0.41046679332E+03  0.25000000000E+03 0.  0.
    5000001    1    1    2    0    0 -0.19148135098E+03  0.10765176412E+02 -0.12695477032E+03  0.33970356269E+03  0.25000000000E+03 0.  0.
<mgrwt>
<rscale>  0 0.73771959E+03</rscale>
<asrwt>0</asrwt>
<pdfrwt beam="1">  1        1 0.68175254E-01 0.73771959E+03</pdfrwt>
<pdfrwt beam="2">  1       -1 0.47235570E-01 0.73771959E+03</pdfrwt>
<totfact> 0.23677104E+02</totfact>
</mgrwt>
</event>
<event>
 4    1  0.4047984E-006  0.7547846E+03  0.7818608E-02  0.9627874E-01
          1   -1    0    0  501    0  0.00000000000E+00  0.00000000000E+00  0.63575425409E+02  0.63575425609E+02  0.50400000000E-02 0. -1.
         -1   -1    0    0    0  501 -0.00000000000E+00 -0.00000000000E+00 -0.22402517632E+04  0.22402517632E+04  0.50400000000E-02 0.  1.
   -5000001    1    1    2    0    0  0.24040937305E+03 -0.14769365836E+03 -0.11425003880E+04  0.12030865389E+04  0.25000000000E+03 0.  0.
    5000001    1    1    2    0    0 -0.24040937305E+03  0.14769365836E+03 -0.10341759498E+04  0.11007406499E+04  0.25000000000E+03 0.  0.
<mgrwt>
<rscale>  0 0.75478463E+03</rscale>
<asrwt>0</asrwt>
<pdfrwt beam="1">  1        1 0.97808364E-02 0.75478463E+03</pdfrwt>
<pdfrwt beam="2">  1       -1 0.34465406E+00 0.75478463E+03</pdfrwt>
<totfact> 0.12262680E+01</totfact>
</mgrwt>
</event>
<event>
 4    1  0.4047984E-006  0.6537519E+03  0.7818608E-02  0.9799764E-01
         -1   -1    0    0    0  501 -0.00000000000E+00  0.00000000000E+00  0.17319337741E+03  0.17319337748E+03  0.50400000000E-02 0. -1.
          1   -1    0    0  501    0  0.00000000000E+00 -0.00000000000E+00 -0.61692831442E+03  0.61692831444E+03  0.50400000000E-02 0.  1.
   -5000001    1    1    2    0    0 -0.88096931260E+02 -0.18072646621E+03 -0.14615135755E+03  0.35253842939E+03  0.25000000000E+03 0.  0.
    5000001    1    1    2    0    0  0.88096931260E+02  0.18072646621E+03 -0.29758357946E+03  0.43758326253E+03  0.25000000000E+03 0.  0.
<mgrwt>
<rscale>  0 0.65375194E+03</rscale>
<asrwt>0</asrwt>
<pdfrwt beam="1">  1        1 0.94912047E-01 0.65375194E+03</pdfrwt>
<pdfrwt beam="2">  1       -1 0.26645135E-01 0.65375194E+03</pdfrwt>
<totfact> 0.41726884E+02</totfact>
</mgrwt>
</event>
<event>
 4    1  0.4047984E-006  0.7960757E+03  0.7818608E-02  0.9565715E-01
          1   -1    0    0  501    0  0.00000000000E+00  0.00000000000E+00  0.46197140539E+03  0.46197140542E+03  0.50400000000E-02 0.  1.
         -1   -1    0    0    0  501 -0.00000000000E+00 -0.00000000000E+00 -0.34295223291E+03  0.34295223295E+03  0.50400000000E-02 0. -1.
   -5000001    1    1    2    0    0 -0.28092728491E+02 -0.29301477128E+03  0.15695116180E+03  0.41686991349E+03  0.25000000000E+03 0.  0.
    5000001    1    1    2    0    0  0.28092728491E+02  0.29301477128E+03 -0.37931989323E+02  0.38805372488E+03  0.25000000000E+03 0.  0.
<mgrwt>
<rscale>  0 0.79607569E+03</rscale>
<asrwt>0</asrwt>
<pdfrwt beam="1">  1        1 0.71072523E-01 0.79607569E+03</pdfrwt>
<pdfrwt beam="2">  1       -1 0.52761882E-01 0.79607569E+03</pdfrwt>
<totfact> 0.18101359E+02</totfact>
</mgrwt>
</event>
<event>
 4    1  0.4047984E-006  0.1023474E+04  0.7818608E-02  0.9283167E-01
         -1   -1    0    0    0  501 -0.00000000000E+00  0.00000000000E+00  0.16891356361E+03  0.16891356368E+03  0.50400000000E-02 0. -1.
          1   -1    0    0  501    0  0.00000000000E+00 -0.00000000000E+00 -0.15503490403E+04  0.15503490404E+04  0.50400000000E-02 0.  1.
   -5000001    1    1    2    0    0 -0.34473293586E+03 -0.23798027220E+03 -0.95041077170E+03  0.10682958588E+04  0.25000000000E+03 0.  0.
    5000001    1    1    2    0    0  0.34473293586E+03  0.23798027220E+03 -0.43102470504E+03  0.65096674521E+03  0.25000000000E+03 0.  0.
<mgrwt>
<rscale>  0 0.10234744E+04</rscale>
<asrwt>0</asrwt>
<pdfrwt beam="1">  1        1 0.23851523E+00 0.10234744E+04</pdfrwt>
<pdfrwt beam="2">  1       -1 0.25986703E-01 0.10234744E+04</pdfrwt>
<totfact> 0.79224121E+01</totfact>
</mgrwt>
</event>
<event>
 4    1  0.4047984E-006  0.1094309E+04  0.7818608E-02  0.9210757E-01
         -1   -1    0    0    0  501 -0.00000000000E+00  0.00000000000E+00  0.64648364534E+03  0.64648364536E+03  0.50400000000E-02 0. -1.
          1   -1    0    0  501    0  0.00000000000E+00 -0.00000000000E+00 -0.46308671513E+03  0.46308671516E+03  0.50400000000E-02 0.  1.
   -5000001    1    1    2    0    0  0.10406129310E+03 -0.45396960674E+03 -0.51554701097E+02  0.53110737499E+03  0.25000000000E+03 0.  0.
    5000001    1    1    2    0    0 -0.10406129310E+03  0.45396960674E+03  0.23495163130E+03  0.57846298552E+03  0.25000000000E+03 0.  0.
<mgrwt>
<rscale>  0 0.10943089E+04</rscale>
<asrwt>0</asrwt>
<pdfrwt beam="1">  1        1 0.71244110E-01 0.10943089E+04</pdfrwt>
<pdfrwt beam="2">  1       -1 0.99459023E-01 0.10943089E+04</pdfrwt>
<totfact> 0.47400793E+01</totfact>
</mgrwt>
</event>
<event>
 4    1  0.4047984E-006  0.7257957E+03  0.7818608E-02  0.9674107E-01
         -1   -1    0    0    0  501 -0.00000000000E+00  0.00000000000E+00  0.19224828179E+03  0.19224828186E+03  0.50400000000E-02 0. -1.
          1   -1    0    0  501    0  0.00000000000E+00 -0.00000000000E+00 -0.68502486616E+03  0.68502486617E+03  0.50400000000E-02 0.  1.
   -5000001    1    1    2    0    0  0.26186646001E+03  0.66856915081E+01 -0.27540004513E+03  0.45493288100E+03  0.25000000000E+03 0.  0.
    5000001    1    1    2    0    0 -0.26186646001E+03 -0.66856915081E+01 -0.21737653923E+03  0.42234026703E+03  0.25000000000E+03 0.  0.
<mgrwt>
<rscale>  0 0.72579571E+03</rscale>
<asrwt>0</asrwt>
<pdfrwt beam="1">  1        1 0.10538844E+00 0.72579571E+03</pdfrwt>
<pdfrwt beam="2">  1       -1 0.29576659E-01 0.72579571E+03</pdfrwt>
<totfact> 0.29780656E+02</totfact>
</mgrwt>
</event>
<event>
 4    1  0.4047984E-006  0.9021262E+03  0.7818608E-02  0.9422927E-01
          1   -1    0    0  501    0  0.00000000000E+00  0.00000000000E+00  0.19917405206E+03  0.19917405213E+03  0.50400000000E-02 0. -1.
         -1   -1    0    0    0  501 -0.00000000000E+00 -0.00000000000E+00 -0.10215082091E+04  0.10215082091E+04  0.50400000000E-02 0.  1.
   -5000001    1    1    2    0    0 -0.35461913234E+03  0.79723924615E+02 -0.28389281028E+03  0.52460057273E+03  0.25000000000E+03 0.  0.
    5000001    1    1    2    0    0  0.35461913234E+03 -0.79723924615E+02 -0.53844134674E+03  0.69608168849E+03  0.25000000000E+03 0.  0.
<mgrwt>
<rscale>  0 0.90212622E+03</rscale>
<asrwt>0</asrwt>
<pdfrwt beam="1">  1        1 0.30642162E-01 0.90212622E+03</pdfrwt>
<pdfrwt beam="2">  1       -1 0.15715511E+00 0.90212622E+03</pdfrwt>
<totfact> 0.46364349E+01</totfact>
</mgrwt>
</event>
<event>
 4    1  0.4047984E-006  0.8629755E+03  0.7818608E-02  0.9473085E-01
          1   -1    0    0  501    0  0.00000000000E+00  0.00000000000E+00  0.11989336738E+04  0.11989336739E+04  0.50400000000E-02 0.  1.
         -1   -1    0    0    0  501 -0.00000000000E+00 -0.00000000000E+00 -0.15528939150E+03  0.15528939159E+03  0.50400000000E-02 0. -1.
   -5000001    1    1    2    0    0 -0.28027522673E+03 -0.70747763818E+02  0.83615101720E+03  0.91935193064E+03  0.25000000000E+03 0.  0.
    5000001    1    1    2    0    0  0.28027522673E+03  0.70747763818E+02  0.20749326514E+03  0.43487113480E+03  0.25000000000E+03 0.  0.
<mgrwt>
<rscale>  0 0.86297551E+03</rscale>
<asrwt>0</asrwt>
<pdfrwt beam="1">  1        1 0.18445134E+00 0.86297551E+03</pdfrwt>
<pdfrwt beam="2">  1       -1 0.23890675E-01 0.86297551E+03</pdfrwt>
<totfact> 0.16341932E+02</totfact>
</mgrwt>
</event>
<event>
 4    1  0.4047984E-006  0.1295725E+04  0.7818608E-02  0.9032962E-01
         -1   -1    0    0    0  501 -0.00000000000E+00  0.00000000000E+00  0.29146164708E+03  0.29146164712E+03  0.50400000000E-02 0. -1.
          1   -1    0    0  501    0  0.00000000000E+00 -0.00000000000E+00 -0.14400718017E+04  0.14400718017E+04  0.50400000000E-02 0.  1.
   -5000001    1    1    2    0    0  0.41723708874E+03  0.75549324445E+02 -0.11402655694E+02  0.49236623483E+03  0.25000000000E+03 0.  0.
    5000001    1    1    2    0    0 -0.41723708874E+03 -0.75549324445E+02 -0.11372074989E+04  0.12391672140E+04  0.25000000000E+03 0.  0.
<mgrwt>
<rscale>  0 0.12957248E+04</rscale>
<asrwt>0</asrwt>
<pdfrwt beam="1">  1        1 0.22154950E+00 0.12957248E+04</pdfrwt>
<pdfrwt beam="2">  1       -1 0.44840254E-01 0.12957248E+04</pdfrwt>
<totfact> 0.34888182E+01</totfact>
</mgrwt>
</event>
<event>
 4    1  0.4047984E-006  0.8495983E+03  0.7818608E-02  0.9490876E-01
         -1   -1    0    0    0  501 -0.00000000000E+00  0.00000000000E+00  0.19825622417E+03  0.19825622424E+03  0.50400000000E-02 0.  1.
          1   -1    0    0  501    0  0.00000000000E+00 -0.00000000000E+00 -0.91020767730E+03  0.91020767731E+03  0.50400000000E-02 0. -1.
   -5000001    1    1    2    0    0  0.21233302452E+03  0.90729186306E+02 -0.68767864611E+03  0.76728027400E+03  0.25000000000E+03 0.  0.
    5000001    1    1    2    0    0 -0.21233302452E+03 -0.90729186306E+02 -0.24272807016E+02  0.34118362755E+03  0.25000000000E+03 0.  0.
<mgrwt>
<rscale>  0 0.84959835E+03</rscale>
<asrwt>0</asrwt>
<pdfrwt beam="1">  1        1 0.14003195E+00 0.84959835E+03</pdfrwt>
<pdfrwt beam="2">  1       -1 0.30500958E-01 0.84959835E+03</pdfrwt>
<totfact> 0.17834455E+02</totfact>
</mgrwt>
</event>
<event>
 4    1  0.4047984E-006  0.1232236E+04  0.7818608E-02  0.9085099E-01
         -1   -1    0    0    0  501 -0.00000000000E+00  0.00000000000E+00  0.15736572199E+04  0.15736572199E+04  0.50400000000E-02 0. -1.
          1   -1    0    0  501    0  0.00000000000E+00 -0.00000000000E+00 -0.24122243279E+03  0.24122243285E+03  0.50400000000E-02 0.  1.
   -5000001    1    1    2    0    0 -0.26311517108E+03 -0.21478317285E+03  0.46867778815E+01  0.42176222030E+03  0.25000000000E+03 0.  0.
    5000001    1    1    2    0    0  0.26311517108E+03  0.21478317285E+03  0.13277480092E+04  0.13931174324E+04  0.25000000000E+03 0.  0.
<mgrwt>
<rscale>  0 0.12322361E+04</rscale>
<asrwt>0</asrwt>
<pdfrwt beam="1">  1        1 0.37111144E-01 0.12322361E+04</pdfrwt>
<pdfrwt beam="2">  1       -1 0.24210111E+00 0.12322361E+04</pdfrwt>
<totfact> 0.90510744E+00</totfact>
</mgrwt>
</event>
<event>
 4    1  0.4047984E-006  0.1031204E+04  0.7818608E-02  0.9274967E-01
         -1   -1    0    0    0  501 -0.00000000000E+00  0.00000000000E+00  0.47707369271E+03  0.47707369273E+03  0.50400000000E-02 0. -1.
          1   -1    0    0  501    0  0.00000000000E+00 -0.00000000000E+00 -0.55724220578E+03  0.55724220580E+03  0.50400000000E-02 0.  1.
   -5000001    1    1    2    0    0 -0.43164898210E+03 -0.10688689475E+03 -0.11514283650E+03  0.52297564458E+03  0.25000000000E+03 0.  0.
    5000001    1    1    2    0    0  0.43164898210E+03  0.10688689475E+03  0.34974323431E+02  0.51134025396E+03  0.25000000000E+03 0.  0.
<mgrwt>
<rscale>  0 0.10312043E+04</rscale>
<asrwt>0</asrwt>
<pdfrwt beam="1">  1        1 0.85729570E-01 0.10312043E+04</pdfrwt>
<pdfrwt beam="2">  1       -1 0.73395953E-01 0.10312043E+04</pdfrwt>
<totfact> 0.71316808E+01</totfact>
</mgrwt>
</event>
<event>
 4    1  0.4047984E-006  0.5831862E+03  0.7818608E-02  0.9940917E-01
          1   -1    0    0  501    0  0.00000000000E+00  0.00000000000E+00  0.28373345815E+03  0.28373345819E+03  0.50400000000E-02 0.  1.
         -1   -1    0    0    0  501 -0.00000000000E+00 -0.00000000000E+00 -0.29967047658E+03  0.29967047663E+03  0.50400000000E-02 0. -1.
   -5000001    1    1    2    0    0  0.57138935709E+02  0.13699773703E+03  0.14250201816E+02  0.29109501229E+03  0.25000000000E+03 0.  0.
    5000001    1    1    2    0    0 -0.57138935709E+02 -0.13699773703E+03 -0.30187220254E+02  0.29230892253E+03  0.25000000000E+03 0.  0.
<mgrwt>
<rscale>  0 0.58318622E+03</rscale>
<asrwt>0</asrwt>
<pdfrwt beam="1">  1        1 0.43651301E-01 0.58318622E+03</pdfrwt>
<pdfrwt beam="2">  1       -1 0.46103150E-01 0.58318622E+03</pdfrwt>
<totfact> 0.44667258E+02</totfact>
</mgrwt>
</event>
<event>
 4    1  0.4047984E-006  0.1248837E+04  0.7818608E-02  0.9071152E-01
          1   -1    0    0  501    0  0.00000000000E+00  0.00000000000E+00  0.22346615185E+04  0.22346615185E+04  0.50400000000E-02 0.  1.
         -1   -1    0    0    0  501 -0.00000000000E+00 -0.00000000000E+00 -0.17447752772E+03  0.17447752779E+03  0.50400000000E-02 0. -1.
   -5000001    1    1    2    0    0  0.43732552202E+03  0.30371110425E+03  0.62588006073E+03  0.85890622159E+03  0.25000000000E+03 0.  0.
    5000001    1    1    2    0    0 -0.43732552202E+03 -0.30371110425E+03  0.14343039301E+04  0.15502328247E+04  0.25000000000E+03 0.  0.
<mgrwt>
<rscale>  0 0.12488366E+04</rscale>
<asrwt>0</asrwt>
<pdfrwt beam="1">  1        1 0.34379406E+00 0.12488366E+04</pdfrwt>
<pdfrwt beam="2">  1       -1 0.26842699E-01 0.12488366E+04</pdfrwt>
<totfact> 0.25286642E+01</totfact>
</mgrwt>
</event>
<event>
 4    1  0.4047984E-006  0.5345327E+03  0.7818608E-02  0.1005139E+00
         -1   -1    0    0    0  501 -0.00000000000E+00  0.00000000000E+00  0.12416872130E+03  0.12416872141E+03  0.50400000000E-02 0. -1.
          1   -1    0    0  501    0  0.00000000000E+00 -0.00000000000E+00 -0.57527607487E+03  0.57527607489E+03  0.50400000000E-02 0.  1.
   -5000001    1    1    2    0    0 -0.65957157035E+02  0.14432684950E+02 -0.13902673951E+03  0.29391679649E+03  0.25000000000E+03 0.  0.
    5000001    1    1    2    0    0  0.65957157035E+02 -0.14432684950E+02 -0.31208061406E+03  0.40552799981E+03  0.25000000000E+03 0.  0.
<mgrwt>
<rscale>  0 0.53453267E+03</rscale>
<asrwt>0</asrwt>
<pdfrwt beam="1">  1        1 0.88504010E-01 0.53453267E+03</pdfrwt>
<pdfrwt beam="2">  1       -1 0.19102881E-01 0.53453267E+03</pdfrwt>
<totfact> 0.80907780E+02</totfact>
</mgrwt>
</event>
<event>
 4    1  0.4047984E-006  0.8468633E+03  0.7818608E-02  0.9494557E-01
         -1   -1    0    0    0  501 -0.00000000000E+00  0.00000000000E+00  0.24874462585E+03  0.24874462590E+03  0.50400000000E-02 0. -1.
          1   -1    0    0  501    0  0.00000000000E+00 -0.00000000000E+00 -0.72079684862E+03  0.72079684864E+03  0.50400000000E-02 0.  1.
   -5000001    1    1    2    0    0 -0.18491414558E+03  0.86825449206E+02 -0.54968994747E+03  0.63748799065E+03  0.25000000000E+03 0.  0.
    5000001    1    1    2    0    0  0.18491414558E+03 -0.86825449206E+02  0.77637724697E+02  0.33205348389E+03  0.25000000000E+03 0.  0.
<mgrwt>
<rscale>  0 0.84686325E+03</rscale>
<asrwt>0</asrwt>
<pdfrwt beam="1">  1        1 0.11089182E+00 0.84686325E+03</pdfrwt>
<pdfrwt beam="2">  1       -1 0.38268404E-01 0.84686325E+03</pdfrwt>
<totfact> 0.17353899E+02</totfact>
</mgrwt>
</event>
<event>
 4    1  0.4047984E-006  0.6671591E+03  0.7818608E-02  0.9775104E-01
         -1   -1    0    0    0  501 -0.00000000000E+00  0.00000000000E+00  0.52604553755E+02  0.52604553996E+02  0.50400000000E-02 0. -1.
          1   -1    0    0  501    0  0.00000000000E+00 -0.00000000000E+00 -0.21153174530E+04  0.21153174530E+04  0.50400000000E-02 0.  1.
   -5000001    1    1    2    0    0 -0.20053683455E+03 -0.71326071349E+02 -0.83986015302E+03  0.90175800917E+03  0.25000000000E+03 0.  0.
    5000001    1    1    2    0    0  0.20053683455E+03  0.71326071349E+02 -0.12228527462E+04  0.12661639978E+04  0.25000000000E+03 0.  0.
<mgrwt>
<rscale>  0 0.66715914E+03</rscale>
<asrwt>0</asrwt>
<pdfrwt beam="1">  1        1 0.32543339E+00 0.66715914E+03</pdfrwt>
<pdfrwt beam="2">  1       -1 0.80930099E-02 0.66715914E+03</pdfrwt>
<totfact> 0.22778635E+02</totfact>
</mgrwt>
</event>
<event>
 4    1  0.4047984E-006  0.7582572E+03  0.7818608E-02  0.9622484E-01
         -1   -1    0    0    0  501 -0.00000000000E+00  0.00000000000E+00  0.31828629761E+03  0.31828629765E+03  0.50400000000E-02 0.  1.
          1   -1    0    0  501    0  0.00000000000E+00 -0.00000000000E+00 -0.45160131196E+03  0.45160131198E+03  0.50400000000E-02 0. -1.
   -5000001    1    1    2    0    0  0.15435417238E+03 -0.15466787935E+03 -0.25247036857E+03  0.41711946783E+03  0.25000000000E+03 0.  0.
    5000001    1    1    2    0    0 -0.15435417238E+03  0.15466787935E+03  0.11915535423E+03  0.35276814181E+03  0.25000000000E+03 0.  0.
<mgrwt>
<rscale>  0 0.75825724E+03</rscale>
<asrwt>0</asrwt>
<pdfrwt beam="1">  1        1 0.69477125E-01 0.75825724E+03</pdfrwt>
<pdfrwt beam="2">  1       -1 0.48967123E-01 0.75825724E+03</pdfrwt>
<totfact> 0.21550988E+02</totfact>
</mgrwt>
</event>
<event>
 4    1  0.4047984E-006  0.5964129E+03  0.7818608E-02  0.9912876E-01
          1   -1    0    0  501    0  0.00000000000E+00  0.00000000000E+00  0.12251851023E+04  0.12251851023E+04  0.50400000000E-02 0.  1.
         -1   -1    0    0    0  501 -0.00000000000E+00 -0.00000000000E+00 -0.72582565879E+02  0.72582566054E+02  0.50400000000E-02 0. -1.
   -5000001    1    1    2    0    0  0.99937769260E+02 -0.78820957052E+02  0.79635024134E+03  0.84431866489E+03  0.25000000000E+03 0.  0.
    5000001    1    1    2    0    0 -0.99937769260E+02  0.78820957052E+02  0.35625229504E+03  0.45344900343E+03  0.25000000000E+03 0.  0.
<mgrwt>
<rscale>  0 0.59641287E+03</rscale>
<asrwt>0</asrwt>
<pdfrwt beam="1">  1        1 0.18849000E+00 0.59641287E+03</pdfrwt>
<pdfrwt beam="2">  1       -1 0.11166550E-01 0.59641287E+03</pdfrwt>
<totfact> 0.55291531E+02</totfact>
</mgrwt>
</event>
<event>
 4    1  0.4047984E-006  0.7411191E+03  0.7818608E-02  0.9649387E-01
          1   -1    0    0  501    0  0.00000000000E+00  0.00000000000E+00  0.48961915348E+03  0.48961915351E+03  0.50400000000E-02 0.  1.
         -1   -1    0    0    0  501 -0.00000000000E+00 -0.00000000000E+00 -0.28045136850E+03  0.28045136854E+03  0.50400000000E-02 0. -1.
   -5000001    1    1    2    0    0  0.49125759297E+01 -0.27297692102E+03  0.12177809845E+03  0.38970557871E+03  0.25000000000E+03 0.  0.
    5000001    1    1    2    0    0 -0.49125759297E+01  0.27297692102E+03  0.87389686534E+02  0.38036494334E+03  0.25000000000E+03 0.  0.
<mgrwt>
<rscale>  0 0.74111905E+03</rscale>
<asrwt>0</asrwt>
<pdfrwt beam="1">  1        1 0.75326022E-01 0.74111905E+03</pdfrwt>
<pdfrwt beam="2">  1       -1 0.43146365E-01 0.74111905E+03</pdfrwt>
<totfact> 0.24467068E+02</totfact>
</mgrwt>
</event>
<event>
 4    1  0.4047984E-006  0.1197257E+04  0.7818608E-02  0.9115261E-01
         -1   -1    0    0    0  501 -0.00000000000E+00  0.00000000000E+00  0.64910461086E+03  0.64910461088E+03  0.50400000000E-02 0. -1.
          1   -1    0    0  501    0  0.00000000000E+00 -0.00000000000E+00 -0.55207779974E+03  0.55207779976E+03  0.50400000000E-02 0.  1.
   -5000001    1    1    2    0    0  0.11582609644E+03  0.12340641252E+03  0.56713307673E+03  0.64248327137E+03  0.25000000000E+03 0.  0.
    5000001    1    1    2    0    0 -0.11582609644E+03 -0.12340641252E+03 -0.47010626560E+03  0.55869913928E+03  0.25000000000E+03 0.  0.
<mgrwt>
<rscale>  0 0.11972573E+04</rscale>
<asrwt>0</asrwt>
<pdfrwt beam="1">  1        1 0.84935046E-01 0.11972573E+04</pdfrwt>
<pdfrwt beam="2">  1       -1 0.99862248E-01 0.11972573E+04</pdfrwt>
<totfact> 0.36540143E+01</totfact>
</mgrwt>
</event>
<event>
 4    1  0.4047984E-006  0.9320654E+03  0.7818608E-02  0.9386363E-01
         -1   -1    0    0    0  501 -0.00000000000E+00  0.00000000000E+00  0.20753874333E+03  0.20753874339E+03  0.50400000000E-02 0. -1.
          1   -1    0    0  501    0  0.00000000000E+00 -0.00000000000E+00 -0.10464864643E+04  0.10464864643E+04  0.50400000000E-02 0.  1.
   -5000001    1    1    2    0    0 -0.97672384048E+02 -0.38030094032E+03 -0.45008891246E+03  0.64749419221E+03  0.25000000000E+03 0.  0.
    5000001    1    1    2    0    0  0.97672384048E+02  0.38030094032E+03 -0.38885880852E+03  0.60653101551E+03  0.25000000000E+03 0.  0.
<mgrwt>
<rscale>  0 0.93206542E+03</rscale>
<asrwt>0</asrwt>
<pdfrwt beam="1">  1        1 0.16099791E+00 0.93206542E+03</pdfrwt>
<pdfrwt beam="2">  1       -1 0.31929038E-01 0.93206542E+03</pdfrwt>
<totfact> 0.12790829E+02</totfact>
</mgrwt>
</event>
<event>
 4    1  0.4047984E-006  0.1414170E+04  0.7818608E-02  0.8943625E-01
          1   -1    0    0  501    0  0.00000000000E+00  0.00000000000E+00  0.37952464913E+03  0.37952464917E+03  0.50400000000E-02 0.  1.
         -1   -1    0    0    0  501 -0.00000000000E+00 -0.00000000000E+00 -0.13173571903E+04  0.13173571903E+04  0.50400000000E-02 0. -1.
   -5000001    1    1    2    0    0  0.63558517534E+03  0.12173305260E+03 -0.30490926997E+03  0.75779754165E+03  0.25000000000E+03 0.  0.
    5000001    1    1    2    0    0 -0.63558517534E+03 -0.12173305260E+03 -0.63292327121E+03  0.93908429784E+03  0.25000000000E+03 0.  0.
<mgrwt>
<rscale>  0 0.14141705E+04</rscale>
<asrwt>0</asrwt>
<pdfrwt beam="1">  1        1 0.58388408E-01 0.14141705E+04</pdfrwt>
<pdfrwt beam="2">  1       -1 0.20267033E+00 0.14141705E+04</pdfrwt>
<totfact> 0.90401992E+00</totfact>
</mgrwt>
</event>
<event>
 4    1  0.4047984E-006  0.7604269E+03  0.7818608E-02  0.9619133E-01
         -1   -1    0    0    0  501 -0.00000000000E+00  0.00000000000E+00  0.15026055615E+03  0.15026055623E+03  0.50400000000E-02 0. -1.
          1   -1    0    0  501    0  0.00000000000E+00 -0.00000000000E+00 -0.96207729919E+03  0.96207729921E+03  0.50400000000E-02 0.  1.
   -5000001    1    1    2    0    0 -0.76819661567E+02  0.17304063609E+03 -0.72038224620E+03  0.78568117120E+03  0.25000000000E+03 0.  0.
    5000001    1    1    2    0    0  0.76819661567E+02 -0.17304063609E+03 -0.91434496850E+02  0.32665668424E+03  0.25000000000E+03 0.  0.
<mgrwt>
<rscale>  0 0.76042691E+03</rscale>
<asrwt>0</asrwt>
<pdfrwt beam="1">  1        1 0.14801189E+00 0.76042691E+03</pdfrwt>
<pdfrwt beam="2">  1       -1 0.23117009E-01 0.76042691E+03</pdfrwt>
<totfact> 0.26239765E+02</totfact>
</mgrwt>
</event>
<event>
 4    1  0.4047984E-006  0.7086229E+03  0.7818608E-02  0.9702598E-01
         -1   -1    0    0    0  501 -0.00000000000E+00  0.00000000000E+00  0.38569043441E+03  0.38569043445E+03  0.50400000000E-02 0. -1.
          1   -1    0    0  501    0  0.00000000000E+00 -0.00000000000E+00 -0.32548542609E+03  0.32548542613E+03  0.50400000000E-02 0.  1.
   -5000001    1    1    2    0    0  0.33169399601E+02 -0.24843609870E+03  0.15355649865E+02  0.35433952671E+03  0.25000000000E+03 0.  0.
    5000001    1    1    2    0    0 -0.33169399601E+02  0.24843609870E+03  0.44849358462E+02  0.35683633386E+03  0.25000000000E+03 0.  0.
<mgrwt>
<rscale>  0 0.70862293E+03</rscale>
<asrwt>0</asrwt>
<pdfrwt beam="1">  1        1 0.50074681E-01 0.70862293E+03</pdfrwt>
<pdfrwt beam="2">  1       -1 0.59336989E-01 0.70862293E+03</pdfrwt>
<totfact> 0.23007591E+02</totfact>
</mgrwt>
</event>
<event>
 4    1  0.4047984E-006  0.9511848E+03  0.7818608E-02  0.9363767E-01
         -1   -1    0    0    0  501 -0.00000000000E+00  0.00000000000E+00  0.42816868745E+03  0.42816868748E+03  0.50400000000E-02 0. -1.
          1   -1    0    0  501    0  0.00000000000E+00 -0.00000000000E+00 -0.52826877440E+03  0.52826877442E+03  0.50400000000E-02 0.  1.
   -5000001    1    1    2    0    0 -0.23223043610E+03 -0.20996420059E+03 -0.30773108407E+03  0.50518745143E+03  0.25000000000E+03 0.  0.
    5000001    1    1    2    0    0  0.23223043610E+03  0.20996420059E+03  0.20763099713E+03  0.45125001047E+03  0.25000000000E+03 0.  0.
<mgrwt>
<rscale>  0 0.95118484E+03</rscale>
<asrwt>0</asrwt>
<pdfrwt beam="1">  1        1 0.81272119E-01 0.95118484E+03</pdfrwt>
<pdfrwt beam="2">  1       -1 0.65872106E-01 0.95118484E+03</pdfrwt>
<totfact> 0.96446278E+01</totfact>
</mgrwt>
</event>
<event>
 4    1  0.4047984E-006  0.5821347E+03  0.7818608E-02  0.9943180E-01
         -1   -1    0    0    0  501 -0.00000000000E+00  0.00000000000E+00  0.54461609331E+02  0.54461609565E+02  0.50400000000E-02 0. -1.
          1   -1    0    0  501    0  0.00000000000E+00 -0.00000000000E+00 -0.15555951004E+04  0.15555951004E+04  0.50400000000E-02 0.  1.
   -5000001    1    1    2    0    0  0.48958281639E+02 -0.14033944938E+03 -0.78187489306E+03  0.83421845029E+03  0.25000000000E+03 0.  0.
    5000001    1    1    2    0    0 -0.48958281639E+02  0.14033944938E+03 -0.71925859803E+03  0.77583825971E+03  0.25000000000E+03 0.  0.
<mgrwt>
<rscale>  0 0.58213474E+03</rscale>
<asrwt>0</asrwt>
<pdfrwt beam="1">  1        1 0.23932229E+00 0.58213474E+03</pdfrwt>
<pdfrwt beam="2">  1       -1 0.83787103E-02 0.58213474E+03</pdfrwt>
<totfact> 0.51375664E+02</totfact>
</mgrwt>
</event>
<event>
 4    1  0.4047984E-006  0.7617202E+03  0.7818608E-02  0.9617141E-01
         -1   -1    0    0    0  501 -0.00000000000E+00  0.00000000000E+00  0.50404686111E+03  0.50404686113E+03  0.50400000000E-02 0. -1.
          1   -1    0    0  501    0  0.00000000000E+00 -0.00000000000E+00 -0.28777963728E+03  0.28777963732E+03  0.50400000000E-02 0.  1.
   -5000001    1    1    2    0    0 -0.27157467579E+03  0.92342466811E+02  0.12535608761E+03  0.40061712945E+03  0.25000000000E+03 0.  0.
    5000001    1    1    2    0    0  0.27157467579E+03 -0.92342466811E+02  0.90911136222E+02  0.39120936900E+03  0.25000000000E+03 0.  0.
<mgrwt>
<rscale>  0 0.76172022E+03</rscale>
<asrwt>0</asrwt>
<pdfrwt beam="1">  1        1 0.44273791E-01 0.76172022E+03</pdfrwt>
<pdfrwt beam="2">  1       -1 0.77545670E-01 0.76172022E+03</pdfrwt>
<totfact> 0.15637923E+02</totfact>
</mgrwt>
</event>
<event>
 4    1  0.4047984E-006  0.8701737E+03  0.7818608E-02  0.9463653E-01
          1   -1    0    0  501    0  0.00000000000E+00  0.00000000000E+00  0.19275049628E+03  0.19275049635E+03  0.50400000000E-02 0.  1.
         -1   -1    0    0    0  501 -0.00000000000E+00 -0.00000000000E+00 -0.98210161507E+03  0.98210161509E+03  0.50400000000E-02 0. -1.
   -5000001    1    1    2    0    0  0.24119521386E+02 -0.35208907018E+03 -0.45874810127E+03  0.63047465061E+03  0.25000000000E+03 0.  0.
    5000001    1    1    2    0    0 -0.24119521386E+02  0.35208907018E+03 -0.33060301753E+03  0.54437746082E+03  0.25000000000E+03 0.  0.
<mgrwt>
<rscale>  0 0.87017372E+03</rscale>
<asrwt>0</asrwt>
<pdfrwt beam="1">  1        1 0.29653923E-01 0.87017372E+03</pdfrwt>
<pdfrwt beam="2">  1       -1 0.15109255E+00 0.87017372E+03</pdfrwt>
<totfact> 0.53982468E+01</totfact>
</mgrwt>
</event>
<event>
 4    1  0.4047984E-006  0.9074889E+03  0.7818608E-02  0.9416268E-01
          1   -1    0    0  501    0  0.00000000000E+00  0.00000000000E+00  0.35515206110E+04  0.35515206110E+04  0.50400000000E-02 0.  1.
         -1   -1    0    0    0  501 -0.00000000000E+00 -0.00000000000E+00 -0.57970674155E+02  0.57970674374E+02  0.50400000000E-02 0. -1.
   -5000001    1    1    2    0    0  0.28749617602E+03 -0.14424077426E+03  0.95203528068E+03  0.10355339820E+04  0.25000000000E+03 0.  0.
    5000001    1    1    2    0    0 -0.28749617602E+03  0.14424077426E+03  0.25415146562E+04  0.25739573034E+04  0.25000000000E+03 0.  0.
<mgrwt>
<rscale>  0 0.90748894E+03</rscale>
<asrwt>0</asrwt>
<pdfrwt beam="1">  1        1 0.54638778E+00 0.90748894E+03</pdfrwt>
<pdfrwt beam="2">  1       -1 0.89185654E-02 0.90748894E+03</pdfrwt>
<totfact> 0.18117872E+01</totfact>
</mgrwt>
</event>
<event>
 4    1  0.4047984E-006  0.5756794E+03  0.7818608E-02  0.9957189E-01
         -1   -1    0    0    0  501 -0.00000000000E+00  0.00000000000E+00  0.10102430972E+03  0.10102430984E+03  0.50400000000E-02 0. -1.
          1   -1    0    0  501    0  0.00000000000E+00 -0.00000000000E+00 -0.82011626387E+03  0.82011626388E+03  0.50400000000E-02 0.  1.
   -5000001    1    1    2    0    0  0.51999461707E+02 -0.13139737590E+03 -0.39083854216E+03  0.48499894891E+03  0.25000000000E+03 0.  0.
    5000001    1    1    2    0    0 -0.51999461707E+02  0.13139737590E+03 -0.32825341199E+03  0.43614162481E+03  0.25000000000E+03 0.  0.
<mgrwt>
<rscale>  0 0.57567935E+03</rscale>
<asrwt>0</asrwt>
<pdfrwt beam="1">  1        1 0.12617173E+00 0.57567935E+03</pdfrwt>
<pdfrwt beam="2">  1       -1 0.15542202E-01 0.57567935E+03</pdfrwt>
<totfact> 0.66674033E+02</totfact>
</mgrwt>
</event>
<event>
 4    1  0.4047984E-006  0.7570547E+03  0.7818608E-02  0.9624347E-01
          1   -1    0    0  501    0  0.00000000000E+00  0.00000000000E+00  0.11677351984E+03  0.11677351994E+03  0.50400000000E-02 0.  1.
         -1   -1    0    0    0  501 -0.00000000000E+00 -0.00000000000E+00 -0.12270156717E+04  0.12270156717E+04  0.50400000000E-02 0. -1.
   -5000001    1    1    2    0    0  0.14904232778E+03 -0.50826735242E+02 -0.97511547361E+03  0.10188950679E+04  0.25000000000E+03 0.  0.
    5000001    1    1    2    0    0 -0.14904232778E+03  0.50826735242E+02 -0.13512667825E+03  0.32489412377E+03  0.25000000000E+03 0.  0.
<mgrwt>
<rscale>  0 0.75705466E+03</rscale>
<asrwt>0</asrwt>
<pdfrwt beam="1">  1        1 0.17965158E-01 0.75705466E+03</pdfrwt>
<pdfrwt beam="2">  1       -1 0.18877163E+00 0.75705466E+03</pdfrwt>
<totfact> 0.55689858E+01</totfact>
</mgrwt>
</event>
<event>
 4    1  0.4047984E-006  0.6751632E+03  0.7818608E-02  0.9760675E-01
         -1   -1    0    0    0  501 -0.00000000000E+00  0.00000000000E+00  0.35492001072E+02  0.35492001430E+02  0.50400000000E-02 0. -1.
          1   -1    0    0  501    0  0.00000000000E+00 -0.00000000000E+00 -0.32109015597E+04  0.32109015597E+04  0.50400000000E-02 0.  1.
   -5000001    1    1    2    0    0  0.22683816019E+03  0.16467199881E+01 -0.15792942484E+04  0.16149701501E+04  0.25000000000E+03 0.  0.
    5000001    1    1    2    0    0 -0.22683816019E+03 -0.16467199881E+01 -0.15961153102E+04  0.16314234110E+04  0.25000000000E+03 0.  0.
<mgrwt>
<rscale>  0 0.67516316E+03</rscale>
<asrwt>0</asrwt>
<pdfrwt beam="1">  1        1 0.49398463E+00 0.67516316E+03</pdfrwt>
<pdfrwt beam="2">  1       -1 0.54603104E-02 0.67516316E+03</pdfrwt>
<totfact> 0.72747440E+01</totfact>
</mgrwt>
</event>
<event>
 4    1  0.4047984E-006  0.7384085E+03  0.7818608E-02  0.9653713E-01
         -1   -1    0    0    0  501 -0.00000000000E+00  0.00000000000E+00  0.10342022245E+03  0.10342022257E+03  0.50400000000E-02 0. -1.
          1   -1    0    0  501    0  0.00000000000E+00 -0.00000000000E+00 -0.13180378272E+04  0.13180378272E+04  0.50400000000E-02 0.  1.
   -5000001    1    1    2    0    0 -0.20126617598E+03  0.17379186487E+03 -0.50012632388E+03  0.61914297680E+03  0.25000000000E+03 0.  0.
    5000001    1    1    2    0    0  0.20126617598E+03 -0.17379186487E+03 -0.71449128090E+03  0.80231507300E+03  0.25000000000E+03 0.  0.
<mgrwt>
<rscale>  0 0.73840847E+03</rscale>
<asrwt>0</asrwt>
<pdfrwt beam="1">  1        1 0.20277504E+00 0.73840847E+03</pdfrwt>
<pdfrwt beam="2">  1       -1 0.15910804E-01 0.73840847E+03</pdfrwt>
<totfact> 0.26645316E+02</totfact>
</mgrwt>
</event>
<event>
 4    1  0.4047984E-006  0.1072796E+04  0.7818608E-02  0.9232120E-01
          1   -1    0    0  501    0  0.00000000000E+00  0.00000000000E+00  0.11002991122E+04  0.11002991122E+04  0.50400000000E-02 0.  1.
         -1   -1    0    0    0  501 -0.00000000000E+00 -0.00000000000E+00 -0.26149491367E+03  0.26149491372E+03  0.50400000000E-02 0. -1.
   -5000001    1    1    2    0    0  0.46176493056E+03 -0.20531609043E+02  0.55596739636E+03  0.76501512657E+03  0.25000000000E+03 0.  0.
    5000001    1    1    2    0    0 -0.46176493056E+03  0.20531609043E+02  0.28283680218E+03  0.59677889937E+03  0.25000000000E+03 0.  0.
<mgrwt>
<rscale>  0 0.10727956E+04</rscale>
<asrwt>0</asrwt>
<pdfrwt beam="1">  1        1 0.16927678E+00 0.10727956E+04</pdfrwt>
<pdfrwt beam="2">  1       -1 0.40229988E-01 0.10727956E+04</pdfrwt>
<totfact> 0.76181904E+01</totfact>
</mgrwt>
</event>
<event>
 4    1  0.4047984E-006  0.6223908E+03  0.7818608E-02  0.9860011E-01
         -1   -1    0    0    0  501 -0.00000000000E+00  0.00000000000E+00  0.77094690696E+02  0.77094690861E+02  0.50400000000E-02 0. -1.
          1   -1    0    0  501    0  0.00000000000E+00 -0.00000000000E+00 -0.12561510399E+04  0.12561510399E+04  0.50400000000E-02 0.  1.
   -5000001    1    1    2    0    0  0.87056176882E+02 -0.16234967103E+03 -0.63271134071E+03  0.70481191411E+03  0.25000000000E+03 0.  0.
    5000001    1    1    2    0    0 -0.87056176882E+02  0.16234967103E+03 -0.54634500853E+03  0.62843381669E+03  0.25000000000E+03 0.  0.
<mgrwt>
<rscale>  0 0.62239080E+03</rscale>
<asrwt>0</asrwt>
<pdfrwt beam="1">  1        1 0.19325399E+00 0.62239080E+03</pdfrwt>
<pdfrwt beam="2">  1       -1 0.11860723E-01 0.62239080E+03</pdfrwt>
<totfact> 0.47677436E+02</totfact>
</mgrwt>
</event>
<event>
 4    1  0.4047984E-006  0.5847572E+03  0.7818608E-02  0.9937545E-01
          1   -1    0    0  501    0  0.00000000000E+00  0.00000000000E+00  0.14231973210E+03  0.14231973219E+03  0.50400000000E-02 0.  1.
         -1   -1    0    0    0  501 -0.00000000000E+00 -0.00000000000E+00 -0.60065627352E+03  0.60065627354E+03  0.50400000000E-02 0. -1.
   -5000001    1    1    2    0    0 -0.83118900388E+02  0.10737751039E+03 -0.31484060958E+03  0.42433865106E+03  0.25000000000E+03 0.  0.
    5000001    1    1    2    0    0  0.83118900388E+02 -0.10737751039E+03 -0.14349593183E+03  0.31863735467E+03  0.25000000000E+03 0.  0.
<mgrwt>
<rscale>  0 0.58475718E+03</rscale>
<asrwt>0</asrwt>
<pdfrwt beam="1">  1        1 0.21895344E-01 0.58475718E+03</pdfrwt>
<pdfrwt beam="2">  1       -1 0.92408656E-01 0.58475718E+03</pdfrwt>
<totfact> 0.26945530E+02</totfact>
</mgrwt>
</event>
<event>
 4    1  0.4047984E-006  0.5199898E+03  0.7818608E-02  0.1008689E+00
          1   -1    0    0  501    0  0.00000000000E+00  0.00000000000E+00  0.77199751825E+03  0.77199751827E+03  0.50400000000E-02 0.  1.
         -1   -1    0    0    0  501 -0.00000000000E+00 -0.00000000000E+00 -0.87561613619E+02  0.87561613764E+02  0.50400000000E-02 0. -1.
   -5000001    1    1    2    0    0 -0.75728099079E+01 -0.62248735082E+02  0.39864168193E+03  0.47470774487E+03  0.25000000000E+03 0.  0.
    5000001    1    1    2    0    0  0.75728099079E+01  0.62248735082E+02  0.28579422270E+03  0.38485138716E+03  0.25000000000E+03 0.  0.
<mgrwt>
<rscale>  0 0.51998980E+03</rscale>
<asrwt>0</asrwt>
<pdfrwt beam="1">  1        1 0.11876885E+00 0.51998980E+03</pdfrwt>
<pdfrwt beam="2">  1       -1 0.13471018E-01 0.51998980E+03</pdfrwt>
<totfact> 0.92521741E+02</totfact>
</mgrwt>
</event>
<event>
 4    1  0.4047984E-006  0.6227346E+03  0.7818608E-02  0.9859330E-01
          1   -1    0    0  501    0  0.00000000000E+00  0.00000000000E+00  0.17397102335E+04  0.17397102335E+04  0.50400000000E-02 0.  1.
         -1   -1    0    0    0  501 -0.00000000000E+00 -0.00000000000E+00 -0.55727447538E+02  0.55727447766E+02  0.50400000000E-02 0. -1.
   -5000001    1    1    2    0    0  0.17972902248E+03 -0.80176485780E+01  0.97357197258E+03  0.10211313285E+04  0.25000000000E+03 0.  0.
    5000001    1    1    2    0    0 -0.17972902248E+03  0.80176485780E+01  0.71041081341E+03  0.77430635282E+03  0.25000000000E+03 0.  0.
<mgrwt>
<rscale>  0 0.62273465E+03</rscale>
<asrwt>0</asrwt>
<pdfrwt beam="1">  1        1 0.26764774E+00 0.62273465E+03</pdfrwt>
<pdfrwt beam="2">  1       -1 0.85734530E-02 0.62273465E+03</pdfrwt>
<totfact> 0.37177448E+02</totfact>
</mgrwt>
</event>
<event>
 4    1  0.4047984E-006  0.7293381E+03  0.7818608E-02  0.9668335E-01
         -1   -1    0    0    0  501 -0.00000000000E+00  0.00000000000E+00  0.18178437484E+03  0.18178437491E+03  0.50400000000E-02 0. -1.
          1   -1    0    0  501    0  0.00000000000E+00 -0.00000000000E+00 -0.73154533347E+03  0.73154533349E+03  0.50400000000E-02 0.  1.
   -5000001    1    1    2    0    0 -0.11492149025E+03 -0.21608491105E+03 -0.40371166691E+03  0.53421226840E+03  0.25000000000E+03 0.  0.
    5000001    1    1    2    0    0  0.11492149025E+03  0.21608491105E+03 -0.14604929172E+03  0.37911744001E+03  0.25000000000E+03 0.  0.
<mgrwt>
<rscale>  0 0.72933809E+03</rscale>
<asrwt>0</asrwt>
<pdfrwt beam="1">  1        1 0.11254543E+00 0.72933809E+03</pdfrwt>
<pdfrwt beam="2">  1       -1 0.27966827E-01 0.72933809E+03</pdfrwt>
<totfact> 0.29696386E+02</totfact>
</mgrwt>
</event>
<event>
 4    1  0.4047984E-006  0.5688411E+03  0.7818608E-02  0.9972246E-01
          1   -1    0    0  501    0  0.00000000000E+00  0.00000000000E+00  0.10644365802E+04  0.10644365802E+04  0.50400000000E-02 0.  1.
         -1   -1    0    0    0  501 -0.00000000000E+00 -0.00000000000E+00 -0.75997996559E+02  0.75997996726E+02  0.50400000000E-02 0. -1.
   -5000001    1    1    2    0    0 -0.91810758810E+02 -0.99130869393E+02  0.47059084541E+03  0.54973801805E+03  0.25000000000E+03 0.  0.
    5000001    1    1    2    0    0  0.91810758810E+02  0.99130869393E+02  0.51784773824E+03  0.59069655890E+03  0.25000000000E+03 0.  0.
<mgrwt>
<rscale>  0 0.56884109E+03</rscale>
<asrwt>0</asrwt>
<pdfrwt beam="1">  1        1 0.16375947E+00 0.56884109E+03</pdfrwt>
<pdfrwt beam="2">  1       -1 0.11692000E-01 0.56884109E+03</pdfrwt>
<totfact> 0.67446354E+02</totfact>
</mgrwt>
</event>
<event>
 4    1  0.4047984E-006  0.5442332E+03  0.7818608E-02  0.1002838E+00
          1   -1    0    0  501    0  0.00000000000E+00  0.00000000000E+00  0.33677836477E+03  0.33677836481E+03  0.50400000000E-02 0. -1.
         -1   -1    0    0    0  501 -0.00000000000E+00 -0.00000000000E+00 -0.21986991484E+03  0.21986991490E+03  0.50400000000E-02 0.  1.
   -5000001    1    1    2    0    0  0.51370400689E+02 -0.64621057647E+02 -0.11909239256E+02  0.26354625616E+03  0.25000000000E+03 0.  0.
    5000001    1    1    2    0    0 -0.51370400689E+02  0.64621057647E+02  0.12881768919E+03  0.29310202355E+03  0.25000000000E+03 0.  0.
<mgrwt>
<rscale>  0 0.54423315E+03</rscale>
<asrwt>0</asrwt>
<pdfrwt beam="1">  1        1 0.51812056E-01 0.54423315E+03</pdfrwt>
<pdfrwt beam="2">  1       -1 0.33826141E-01 0.54423315E+03</pdfrwt>
<totfact> 0.62693675E+02</totfact>
</mgrwt>
</event>
<event>
 4    1  0.4047984E-006  0.1452380E+04  0.7818608E-02  0.8916752E-01
          1   -1    0    0  501    0  0.00000000000E+00  0.00000000000E+00  0.19171517140E+03  0.19171517146E+03  0.50400000000E-02 0.  1.
         -1   -1    0    0    0  501 -0.00000000000E+00 -0.00000000000E+00 -0.27507064631E+04  0.27507064631E+04  0.50400000000E-02 0. -1.
   -5000001    1    1    2    0    0  0.84528284253E+02 -0.56641912617E+03 -0.20290256044E+04  0.21230686661E+04  0.25000000000E+03 0.  0.
    5000001    1    1    2    0    0 -0.84528284253E+02  0.56641912617E+03 -0.52996568727E+03  0.81935296852E+03  0.25000000000E+03 0.  0.
<mgrwt>
<rscale>  0 0.14523803E+04</rscale>
<asrwt>0</asrwt>
<pdfrwt beam="1">  1        1 0.29494644E-01 0.14523803E+04</pdfrwt>
<pdfrwt beam="2">  1       -1 0.42318558E+00 0.14523803E+04</pdfrwt>
<totfact> 0.76295419E-01</totfact>
</mgrwt>
</event>
<event>
 4    1  0.4047984E-006  0.7205660E+03  0.7818608E-02  0.9682694E-01
          1   -1    0    0  501    0  0.00000000000E+00  0.00000000000E+00  0.83343068793E+03  0.83343068794E+03  0.50400000000E-02 0.  1.
         -1   -1    0    0    0  501 -0.00000000000E+00 -0.00000000000E+00 -0.15574643074E+03  0.15574643082E+03  0.50400000000E-02 0. -1.
   -5000001    1    1    2    0    0  0.16242834126E+03  0.99114046779E+02  0.96760643321E+02  0.32873877534E+03  0.25000000000E+03 0.  0.
    5000001    1    1    2    0    0 -0.16242834126E+03 -0.99114046779E+02  0.58092361387E+03  0.66043834342E+03  0.25000000000E+03 0.  0.
<mgrwt>
<rscale>  0 0.72056604E+03</rscale>
<asrwt>0</asrwt>
<pdfrwt beam="1">  1        1 0.12822010E+00 0.72056604E+03</pdfrwt>
<pdfrwt beam="2">  1       -1 0.23960990E-01 0.72056604E+03</pdfrwt>
<totfact> 0.31507333E+02</totfact>
</mgrwt>
</event>
<event>
 4    1  0.4047984E-006  0.6977157E+03  0.7818608E-02  0.9721147E-01
          1   -1    0    0  501    0  0.00000000000E+00  0.00000000000E+00  0.10100849432E+04  0.10100849432E+04  0.50400000000E-02 0.  1.
         -1   -1    0    0    0  501 -0.00000000000E+00 -0.00000000000E+00 -0.12048668664E+03  0.12048668675E+03  0.50400000000E-02 0. -1.
   -5000001    1    1    2    0    0  0.21862690463E+03  0.10502884867E+03  0.41350395979E+03  0.54066099105E+03  0.25000000000E+03 0.  0.
    5000001    1    1    2    0    0 -0.21862690463E+03 -0.10502884867E+03  0.47609429674E+03  0.58991063888E+03  0.25000000000E+03 0.  0.
<mgrwt>
<rscale>  0 0.69771567E+03</rscale>
<asrwt>0</asrwt>
<pdfrwt beam="1">  1        1 0.15539768E+00 0.69771567E+03</pdfrwt>
<pdfrwt beam="2">  1       -1 0.18536414E-01 0.69771567E+03</pdfrwt>
<totfact> 0.34940124E+02</totfact>
</mgrwt>
</event>
<event>
 4    1  0.4047984E-006  0.1208213E+04  0.7818608E-02  0.9105698E-01
          1   -1    0    0  501    0  0.00000000000E+00  0.00000000000E+00  0.16283472718E+04  0.16283472718E+04  0.50400000000E-02 0. -1.
         -1   -1    0    0    0  501 -0.00000000000E+00 -0.00000000000E+00 -0.22411976609E+03  0.22411976614E+03  0.50400000000E-02 0.  1.
   -5000001    1    1    2    0    0  0.46763024064E+03  0.12069328650E+03  0.11054429166E+04  0.12319695423E+04  0.25000000000E+03 0.  0.
    5000001    1    1    2    0    0 -0.46763024064E+03 -0.12069328650E+03  0.29878458912E+03  0.62049749562E+03  0.25000000000E+03 0.  0.
<mgrwt>
<rscale>  0 0.12082132E+04</rscale>
<asrwt>0</asrwt>
<pdfrwt beam="1">  1        1 0.25051497E+00 0.12082132E+04</pdfrwt>
<pdfrwt beam="2">  1       -1 0.34479964E-01 0.12082132E+04</pdfrwt>
<totfact> 0.42071444E+01</totfact>
</mgrwt>
</event>
<event>
 4    1  0.4047984E-006  0.6227449E+03  0.7818608E-02  0.9859310E-01
         -1   -1    0    0    0  501 -0.00000000000E+00  0.00000000000E+00  0.48090329618E+03  0.48090329620E+03  0.50400000000E-02 0.  1.
          1   -1    0    0  501    0  0.00000000000E+00 -0.00000000000E+00 -0.20160561707E+03  0.20160561713E+03  0.50400000000E-02 0. -1.
   -5000001    1    1    2    0    0 -0.35299872755E+02 -0.14538285398E+03  0.19239082381E+02  0.29198013209E+03  0.25000000000E+03 0.  0.
    5000001    1    1    2    0    0  0.35299872755E+02  0.14538285398E+03  0.26005859673E+03  0.39052878124E+03  0.25000000000E+03 0.  0.
<mgrwt>
<rscale>  0 0.62274491E+03</rscale>
<asrwt>0</asrwt>
<pdfrwt beam="1">  1        1 0.31016249E-01 0.62274491E+03</pdfrwt>
<pdfrwt beam="2">  1       -1 0.73985122E-01 0.62274491E+03</pdfrwt>
<totfact> 0.27493412E+02</totfact>
</mgrwt>
</event>
<event>
 4    1  0.4047984E-006  0.5549977E+03  0.7818608E-02  0.1000344E+00
         -1   -1    0    0    0  501 -0.00000000000E+00  0.00000000000E+00  0.69896779342E+02  0.69896779524E+02  0.50400000000E-02 0. -1.
          1   -1    0    0  501    0  0.00000000000E+00 -0.00000000000E+00 -0.11017046023E+04  0.11017046024E+04  0.50400000000E-02 0.  1.
   -5000001    1    1    2    0    0  0.67599020465E+02  0.98820167722E+02 -0.54347254226E+03  0.61007987781E+03  0.25000000000E+03 0.  0.
    5000001    1    1    2    0    0 -0.67599020465E+02 -0.98820167722E+02 -0.48833528074E+03  0.56152150407E+03  0.25000000000E+03 0.  0.
<mgrwt>
<rscale>  0 0.55499767E+03</rscale>
<asrwt>0</asrwt>
<pdfrwt beam="1">  1        1 0.16949300E+00 0.55499767E+03</pdfrwt>
<pdfrwt beam="2">  1       -1 0.10753352E-01 0.55499767E+03</pdfrwt>
<totfact> 0.72298549E+02</totfact>
</mgrwt>
</event>
<event>
 4    1  0.4047984E-006  0.7323655E+03  0.7818608E-02  0.9663430E-01
         -1   -1    0    0    0  501 -0.00000000000E+00  0.00000000000E+00  0.35669174739E+03  0.35669174743E+03  0.50400000000E-02 0. -1.
          1   -1    0    0  501    0  0.00000000000E+00 -0.00000000000E+00 -0.37592624526E+03  0.37592624530E+03  0.50400000000E-02 0.  1.
   -5000001    1    1    2    0    0 -0.24352673761E+03  0.79587342659E+02  0.67548006866E+02  0.36428306339E+03  0.25000000000E+03 0.  0.
    5000001    1    1    2    0    0  0.24352673761E+03 -0.79587342659E+02 -0.86782504739E+02  0.36833492934E+03  0.25000000000E+03 0.  0.
<mgrwt>
<rscale>  0 0.73236545E+03</rscale>
<asrwt>0</asrwt>
<pdfrwt beam="1">  1        1 0.57834807E-01 0.73236545E+03</pdfrwt>
<pdfrwt beam="2">  1       -1 0.54875653E-01 0.73236545E+03</pdfrwt>
<totfact> 0.22163065E+02</totfact>
</mgrwt>
</event>
<event>
 4    1  0.4047984E-006  0.6399571E+03  0.7818608E-02  0.9825809E-01
         -1   -1    0    0    0  501 -0.00000000000E+00  0.00000000000E+00  0.17453006475E+03  0.17453006482E+03  0.50400000000E-02 0. -1.
          1   -1    0    0  501    0  0.00000000000E+00 -0.00000000000E+00 -0.58663980266E+03  0.58663980268E+03  0.50400000000E-02 0.  1.
   -5000001    1    1    2    0    0  0.16070781541E+03  0.82891647116E+02 -0.30689710384E+03  0.43518255875E+03  0.25000000000E+03 0.  0.
    5000001    1    1    2    0    0 -0.16070781541E+03 -0.82891647116E+02 -0.10521263407E+03  0.32598730875E+03  0.25000000000E+03 0.  0.
<mgrwt>
<rscale>  0 0.63995713E+03</rscale>
<asrwt>0</asrwt>
<pdfrwt beam="1">  1        1 0.90252277E-01 0.63995713E+03</pdfrwt>
<pdfrwt beam="2">  1       -1 0.26850779E-01 0.63995713E+03</pdfrwt>
<totfact> 0.44285528E+02</totfact>
</mgrwt>
</event>
<event>
 4    1  0.4047984E-006  0.1898046E+04  0.7818608E-02  0.8655830E-01
         -1   -1    0    0    0  501 -0.00000000000E+00  0.00000000000E+00  0.53276658700E+03  0.53276658703E+03  0.50400000000E-02 0. -1.
          1   -1    0    0  501    0  0.00000000000E+00 -0.00000000000E+00 -0.16905045878E+04  0.16905045878E+04  0.50400000000E-02 0.  1.
   -5000001    1    1    2    0    0 -0.42296875625E+03 -0.80825280425E+03 -0.66936797680E+03  0.11587616893E+04  0.25000000000E+03 0.  0.
    5000001    1    1    2    0    0  0.42296875625E+03  0.80825280425E+03 -0.48837002399E+03  0.10645094855E+04  0.25000000000E+03 0.  0.
<mgrwt>
<rscale>  0 0.18980457E+04</rscale>
<asrwt>0</asrwt>
<pdfrwt beam="1">  1        1 0.26007763E+00 0.18980457E+04</pdfrwt>
<pdfrwt beam="2">  1       -1 0.81964091E-01 0.18980457E+04</pdfrwt>
<totfact> 0.67037571E+00</totfact>
</mgrwt>
</event>
<event>
 4    1  0.4047984E-006  0.9857437E+03  0.7818608E-02  0.9324320E-01
          1   -1    0    0  501    0  0.00000000000E+00  0.00000000000E+00  0.30338035616E+04  0.30338035616E+04  0.50400000000E-02 0.  1.
         -1   -1    0    0    0  501 -0.00000000000E+00 -0.00000000000E+00 -0.80071988243E+02  0.80071988401E+02  0.50400000000E-02 0. -1.
   -5000001    1    1    2    0    0 -0.38166961570E+03  0.57964278418E+02  0.91718461456E+03  0.10260405305E+04  0.25000000000E+03 0.  0.
    5000001    1    1    2    0    0  0.38166961570E+03 -0.57964278418E+02  0.20365469588E+04  0.20878350194E+04  0.25000000000E+03 0.  0.
<mgrwt>
<rscale>  0 0.98574375E+03</rscale>
<asrwt>0</asrwt>
<pdfrwt beam="1">  1        1 0.46673904E+00 0.98574375E+03</pdfrwt>
<pdfrwt beam="2">  1       -1 0.12318767E-01 0.98574375E+03</pdfrwt>
<totfact> 0.26274403E+01</totfact>
</mgrwt>
</event>
<event>
 4    1  0.4047984E-006  0.9286504E+03  0.7818608E-02  0.9390459E-01
         -1   -1    0    0    0  501 -0.00000000000E+00  0.00000000000E+00  0.49675383038E+03  0.49675383041E+03  0.50400000000E-02 0. -1.
          1   -1    0    0  501    0  0.00000000000E+00 -0.00000000000E+00 -0.43401352811E+03  0.43401352813E+03  0.50400000000E-02 0.  1.
   -5000001    1    1    2    0    0 -0.22903695649E+03  0.22253900793E+03 -0.19523448961E+03  0.45010892396E+03  0.25000000000E+03 0.  0.
    5000001    1    1    2    0    0  0.22903695649E+03 -0.22253900793E+03  0.25797479189E+03  0.48065843459E+03  0.25000000000E+03 0.  0.
<mgrwt>
<rscale>  0 0.92865038E+03</rscale>
<asrwt>0</asrwt>
<pdfrwt beam="1">  1        1 0.66771312E-01 0.92865038E+03</pdfrwt>
<pdfrwt beam="2">  1       -1 0.76423666E-01 0.92865038E+03</pdfrwt>
<totfact> 0.93071692E+01</totfact>
</mgrwt>
</event>
<event>
 4    1  0.4047984E-006  0.7594984E+03  0.7818608E-02  0.9620566E-01
         -1   -1    0    0    0  501 -0.00000000000E+00  0.00000000000E+00  0.11642308570E+04  0.11642308570E+04  0.50400000000E-02 0.  1.
          1   -1    0    0  501    0  0.00000000000E+00 -0.00000000000E+00 -0.12386670283E+03  0.12386670293E+03  0.50400000000E-02 0. -1.
   -5000001    1    1    2    0    0 -0.15458392164E+03  0.22793028044E+03  0.65002225978E+03  0.74891744524E+03  0.25000000000E+03 0.  0.
    5000001    1    1    2    0    0  0.15458392164E+03 -0.22793028044E+03  0.39034189440E+03  0.53918011471E+03  0.25000000000E+03 0.  0.
<mgrwt>
<rscale>  0 0.75949835E+03</rscale>
<asrwt>0</asrwt>
<pdfrwt beam="1">  1        1 0.19056416E-01 0.75949835E+03</pdfrwt>
<pdfrwt beam="2">  1       -1 0.17911244E+00 0.75949835E+03</pdfrwt>
<totfact> 0.60232960E+01</totfact>
</mgrwt>
</event>
<event>
 4    1  0.4047984E-006  0.6349077E+03  0.7818608E-02  0.9835518E-01
         -1   -1    0    0    0  501 -0.00000000000E+00  0.00000000000E+00  0.11980372847E+03  0.11980372858E+03  0.50400000000E-02 0. -1.
          1   -1    0    0  501    0  0.00000000000E+00 -0.00000000000E+00 -0.84118361826E+03  0.84118361827E+03  0.50400000000E-02 0.  1.
   -5000001    1    1    2    0    0  0.17987193138E+03 -0.72631666535E+02 -0.32217035054E+03  0.45157834918E+03  0.25000000000E+03 0.  0.
    5000001    1    1    2    0    0 -0.17987193138E+03  0.72631666535E+02 -0.39920953925E+03  0.50940899767E+03  0.25000000000E+03 0.  0.
<mgrwt>
<rscale>  0 0.63490766E+03</rscale>
<asrwt>0</asrwt>
<pdfrwt beam="1">  1        1 0.12941286E+00 0.63490766E+03</pdfrwt>
<pdfrwt beam="2">  1       -1 0.18431343E-01 0.63490766E+03</pdfrwt>
<totfact> 0.48316546E+02</totfact>
</mgrwt>
</event>
<event>
 4    1  0.4047984E-006  0.1012657E+04  0.7818608E-02  0.9294771E-01
         -1   -1    0    0    0  501 -0.00000000000E+00  0.00000000000E+00  0.24127495276E+03  0.24127495281E+03  0.50400000000E-02 0. -1.
          1   -1    0    0  501    0  0.00000000000E+00 -0.00000000000E+00 -0.10625566220E+04  0.10625566221E+04  0.50400000000E-02 0.  1.
   -5000001    1    1    2    0    0 -0.39914507817E+02 -0.37483430808E+03 -0.11767514650E+03  0.46737711385E+03  0.25000000000E+03 0.  0.
    5000001    1    1    2    0    0  0.39914507817E+02  0.37483430808E+03 -0.70360652278E+03  0.83645446102E+03  0.25000000000E+03 0.  0.
<mgrwt>
<rscale>  0 0.10126565E+04</rscale>
<asrwt>0</asrwt>
<pdfrwt beam="1">  1        1 0.16347025E+00 0.10126565E+04</pdfrwt>
<pdfrwt beam="2">  1       -1 0.37119224E-01 0.10126565E+04</pdfrwt>
<totfact> 0.94553774E+01</totfact>
</mgrwt>
</event>
<event>
 4    1  0.4047984E-006  0.8193046E+03  0.7818608E-02  0.9532487E-01
          1   -1    0    0  501    0  0.00000000000E+00  0.00000000000E+00  0.54598573028E+03  0.54598573030E+03  0.50400000000E-02 0.  1.
         -1   -1    0    0    0  501 -0.00000000000E+00 -0.00000000000E+00 -0.30736149231E+03  0.30736149235E+03  0.50400000000E-02 0. -1.
   -5000001    1    1    2    0    0  0.28998319543E+03  0.12365909920E+03  0.19953966867E+03  0.44910789997E+03  0.25000000000E+03 0.  0.
    5000001    1    1    2    0    0 -0.28998319543E+03 -0.12365909920E+03  0.39084569295E+02  0.40423932268E+03  0.25000000000E+03 0.  0.
<mgrwt>
<rscale>  0 0.81930456E+03</rscale>
<asrwt>0</asrwt>
<pdfrwt beam="1">  1        1 0.83997805E-01 0.81930456E+03</pdfrwt>
<pdfrwt beam="2">  1       -1 0.47286383E-01 0.81930456E+03</pdfrwt>
<totfact> 0.17675244E+02</totfact>
</mgrwt>
</event>
<event>
 4    1  0.4047984E-006  0.7121607E+03  0.7818608E-02  0.9696659E-01
          1   -1    0    0  501    0  0.00000000000E+00  0.00000000000E+00  0.31312126815E+03  0.31312126819E+03  0.50400000000E-02 0.  1.
         -1   -1    0    0    0  501 -0.00000000000E+00 -0.00000000000E+00 -0.40493321154E+03  0.40493321157E+03  0.50400000000E-02 0. -1.
   -5000001    1    1    2    0    0 -0.13357991939E+03 -0.21441884761E+03 -0.23950460581E+02  0.35621996244E+03  0.25000000000E+03 0.  0.
    5000001    1    1    2    0    0  0.13357991939E+03  0.21441884761E+03 -0.67861482804E+02  0.36183451732E+03  0.25000000000E+03 0.  0.
<mgrwt>
<rscale>  0 0.71216066E+03</rscale>
<asrwt>0</asrwt>
<pdfrwt beam="1">  1        1 0.48172503E-01 0.71216066E+03</pdfrwt>
<pdfrwt beam="2">  1       -1 0.62297417E-01 0.71216066E+03</pdfrwt>
<totfact> 0.21973797E+02</totfact>
</mgrwt>
</event>
<event>
 4    1  0.4047984E-006  0.9674329E+03  0.7818608E-02  0.9345003E-01
         -1   -1    0    0    0  501 -0.00000000000E+00  0.00000000000E+00  0.99552930442E+02  0.99552930570E+02  0.50400000000E-02 0. -1.
          1   -1    0    0  501    0  0.00000000000E+00 -0.00000000000E+00 -0.23503238561E+04  0.23503238561E+04  0.50400000000E-02 0.  1.
   -5000001    1    1    2    0    0 -0.10148063118E+03  0.40082860188E+03 -0.10676534328E+04  0.11718983485E+04  0.25000000000E+03 0.  0.
    5000001    1    1    2    0    0  0.10148063118E+03 -0.40082860188E+03 -0.11831174928E+04  0.12779784381E+04  0.25000000000E+03 0.  0.
<mgrwt>
<rscale>  0 0.96743295E+03</rscale>
<asrwt>0</asrwt>
<pdfrwt beam="1">  1        1 0.36158824E+00 0.96743295E+03</pdfrwt>
<pdfrwt beam="2">  1       -1 0.15315837E-01 0.96743295E+03</pdfrwt>
<totfact> 0.55538798E+01</totfact>
</mgrwt>
</event>
<event>
 4    1  0.4047984E-006  0.9936700E+03  0.7818608E-02  0.9315515E-01
          1   -1    0    0  501    0  0.00000000000E+00  0.00000000000E+00  0.35158817567E+04  0.35158817567E+04  0.50400000000E-02 0.  1.
         -1   -1    0    0    0  501 -0.00000000000E+00 -0.00000000000E+00 -0.70208564699E+02  0.70208564880E+02  0.50400000000E-02 0. -1.
   -5000001    1    1    2    0    0  0.19888698844E+03  0.35157284332E+03  0.11975473007E+04  0.12883241190E+04  0.25000000000E+03 0.  0.
    5000001    1    1    2    0    0 -0.19888698844E+03 -0.35157284332E+03  0.22481258913E+04  0.22977662026E+04  0.25000000000E+03 0.  0.
<mgrwt>
<rscale>  0 0.99366999E+03</rscale>
<asrwt>0</asrwt>
<pdfrwt beam="1">  1        1 0.54090487E+00 0.99366999E+03</pdfrwt>
<pdfrwt beam="2">  1       -1 0.10801318E-01 0.99366999E+03</pdfrwt>
<totfact> 0.14096850E+01</totfact>
</mgrwt>
</event>
<event>
 4    1  0.4047984E-006  0.7920371E+03  0.7818608E-02  0.9571615E-01
          1   -1    0    0  501    0  0.00000000000E+00  0.00000000000E+00  0.78570260748E+03  0.78570260749E+03  0.50400000000E-02 0.  1.
         -1   -1    0    0    0  501 -0.00000000000E+00 -0.00000000000E+00 -0.19960567568E+03  0.19960567574E+03  0.50400000000E-02 0. -1.
   -5000001    1    1    2    0    0  0.59732261317E+02 -0.29926077547E+03  0.24985138970E+03  0.46695896148E+03  0.25000000000E+03 0.  0.
    5000001    1    1    2    0    0 -0.59732261317E+02  0.29926077547E+03  0.33624554210E+03  0.51834932175E+03  0.25000000000E+03 0.  0.
<mgrwt>
<rscale>  0 0.79203712E+03</rscale>
<asrwt>0</asrwt>
<pdfrwt beam="1">  1        1 0.12087733E+00 0.79203712E+03</pdfrwt>
<pdfrwt beam="2">  1       -1 0.30708565E-01 0.79203712E+03</pdfrwt>
<totfact> 0.22507810E+02</totfact>
</mgrwt>
</event>
<event>
 4    1  0.4047984E-006  0.8607853E+03  0.7818608E-02  0.9475975E-01
          1   -1    0    0  501    0  0.00000000000E+00  0.00000000000E+00  0.38163708374E+04  0.38163708374E+04  0.50400000000E-02 0. -1.
         -1   -1    0    0    0  501 -0.00000000000E+00 -0.00000000000E+00 -0.48537695217E+02  0.48537695478E+02  0.50400000000E-02 0.  1.
   -5000001    1    1    2    0    0 -0.11737764566E+03 -0.31555983629E+03  0.14490064081E+04  0.15084677963E+04  0.25000000000E+03 0.  0.
    5000001    1    1    2    0    0  0.11737764566E+03  0.31555983629E+03  0.23188267342E+04  0.23564407366E+04  0.25000000000E+03 0.  0.
<mgrwt>
<rscale>  0 0.86078533E+03</rscale>
<asrwt>0</asrwt>
<pdfrwt beam="1">  1        1 0.58713436E+00 0.86078533E+03</pdfrwt>
<pdfrwt beam="2">  1       -1 0.74673328E-02 0.86078533E+03</pdfrwt>
<totfact> 0.14755146E+01</totfact>
</mgrwt>
</event>
<event>
 4    1  0.4047984E-006  0.7387402E+03  0.7818608E-02  0.9653183E-01
          1   -1    0    0  501    0  0.00000000000E+00  0.00000000000E+00  0.52339562669E+03  0.52339562672E+03  0.50400000000E-02 0. -1.
         -1   -1    0    0    0  501 -0.00000000000E+00 -0.00000000000E+00 -0.26067142746E+03  0.26067142750E+03  0.50400000000E-02 0.  1.
   -5000001    1    1    2    0    0  0.89141410427E+02  0.20082233386E+03  0.30137307123E+03  0.44900058897E+03  0.25000000000E+03 0.  0.
    5000001    1    1    2    0    0 -0.89141410427E+02 -0.20082233386E+03 -0.38648871994E+02  0.33506646525E+03  0.25000000000E+03 0.  0.
<mgrwt>
<rscale>  0 0.73874024E+03</rscale>
<asrwt>0</asrwt>
<pdfrwt beam="1">  1        1 0.80522404E-01 0.73874024E+03</pdfrwt>
<pdfrwt beam="2">  1       -1 0.40103297E-01 0.73874024E+03</pdfrwt>
<totfact> 0.25519719E+02</totfact>
</mgrwt>
</event>
<event>
 4    1  0.4047984E-006  0.1057678E+04  0.7818608E-02  0.9247452E-01
         -1   -1    0    0    0  501 -0.00000000000E+00  0.00000000000E+00  0.16631060817E+04  0.16631060817E+04  0.50400000000E-02 0. -1.
          1   -1    0    0  501    0  0.00000000000E+00 -0.00000000000E+00 -0.16816174513E+03  0.16816174520E+03  0.50400000000E-02 0.  1.
   -5000001    1    1    2    0    0 -0.37025415608E+03 -0.18005421701E+03  0.36947398996E+03  0.60705740290E+03  0.25000000000E+03 0.  0.
    5000001    1    1    2    0    0  0.37025415608E+03  0.18005421701E+03  0.11254703466E+04  0.12242104240E+04  0.25000000000E+03 0.  0.
<mgrwt>
<rscale>  0 0.10576783E+04</rscale>
<asrwt>0</asrwt>
<pdfrwt beam="1">  1        1 0.25871037E-01 0.10576783E+04</pdfrwt>
<pdfrwt beam="2">  1       -1 0.25586248E+00 0.10576783E+04</pdfrwt>
<totfact> 0.11973919E+01</totfact>
</mgrwt>
</event>
<event>
 4    1  0.4047984E-006  0.7794023E+03  0.7818608E-02  0.9590319E-01
         -1   -1    0    0    0  501 -0.00000000000E+00  0.00000000000E+00  0.24456021231E+03  0.24456021236E+03  0.50400000000E-02 0.  1.
          1   -1    0    0  501    0  0.00000000000E+00 -0.00000000000E+00 -0.62097999271E+03  0.62097999273E+03  0.50400000000E-02 0. -1.
   -5000001    1    1    2    0    0  0.10123812721E+03  0.20462747247E+03 -0.40252958785E+03  0.52597683407E+03  0.25000000000E+03 0.  0.
    5000001    1    1    2    0    0 -0.10123812721E+03 -0.20462747247E+03  0.26109807447E+02  0.33956337101E+03  0.25000000000E+03 0.  0.
<mgrwt>
<rscale>  0 0.77940233E+03</rscale>
<asrwt>0</asrwt>
<pdfrwt beam="1">  1        1 0.95535383E-01 0.77940233E+03</pdfrwt>
<pdfrwt beam="2">  1       -1 0.37624648E-01 0.77940233E+03</pdfrwt>
<totfact> 0.22429015E+02</totfact>
</mgrwt>
</event>
<event>
 4    1  0.4047984E-006  0.7480519E+03  0.7818608E-02  0.9638412E-01
          1   -1    0    0  501    0  0.00000000000E+00  0.00000000000E+00  0.83705711262E+03  0.83705711263E+03  0.50400000000E-02 0.  1.
         -1   -1    0    0    0  501 -0.00000000000E+00 -0.00000000000E+00 -0.16712767999E+03  0.16712768007E+03  0.50400000000E-02 0. -1.
   -5000001    1    1    2    0    0 -0.26227775361E+03 -0.15235048767E+02  0.45780484326E+03  0.58404366383E+03  0.25000000000E+03 0.  0.
    5000001    1    1    2    0    0  0.26227775361E+03  0.15235048767E+02  0.21212458937E+03  0.42014112887E+03  0.25000000000E+03 0.  0.
<mgrwt>
<rscale>  0 0.74805191E+03</rscale>
<asrwt>0</asrwt>
<pdfrwt beam="1">  1        1 0.12877802E+00 0.74805191E+03</pdfrwt>
<pdfrwt beam="2">  1       -1 0.25711951E-01 0.74805191E+03</pdfrwt>
<totfact> 0.27706405E+02</totfact>
</mgrwt>
</event>
<event>
 4    1  0.4047984E-006  0.6973455E+03  0.7818608E-02  0.9721782E-01
         -1   -1    0    0    0  501 -0.00000000000E+00  0.00000000000E+00  0.10816491122E+03  0.10816491134E+03  0.50400000000E-02 0. -1.
          1   -1    0    0  501    0  0.00000000000E+00 -0.00000000000E+00 -0.11239569022E+04  0.11239569022E+04  0.50400000000E-02 0.  1.
   -5000001    1    1    2    0    0 -0.22479540793E+03 -0.35475950764E+00 -0.34461925619E+03  0.48145148563E+03  0.25000000000E+03 0.  0.
    5000001    1    1    2    0    0  0.22479540793E+03  0.35475950764E+00 -0.67117273480E+03  0.75067032792E+03  0.25000000000E+03 0.  0.
<mgrwt>
<rscale>  0 0.69734553E+03</rscale>
<asrwt>0</asrwt>
<pdfrwt beam="1">  1        1 0.17291644E+00 0.69734553E+03</pdfrwt>
<pdfrwt beam="2">  1       -1 0.16640756E-01 0.69734553E+03</pdfrwt>
<totfact> 0.34242873E+02</totfact>
</mgrwt>
</event>
<event>
 4    1  0.4047984E-006  0.9316402E+03  0.7818608E-02  0.9386872E-01
         -1   -1    0    0    0  501 -0.00000000000E+00  0.00000000000E+00  0.16717049613E+03  0.16717049621E+03  0.50400000000E-02 0.  1.
          1   -1    0    0  501    0  0.00000000000E+00 -0.00000000000E+00 -0.12980063970E+04  0.12980063970E+04  0.50400000000E-02 0. -1.
   -5000001    1    1    2    0    0  0.30954875373E+03  0.23561843023E+03 -0.65371128076E+03  0.80073398466E+03  0.25000000000E+03 0.  0.
    5000001    1    1    2    0    0 -0.30954875373E+03 -0.23561843023E+03 -0.47712462009E+03  0.66444290853E+03  0.25000000000E+03 0.  0.
<mgrwt>
<rscale>  0 0.93164022E+03</rscale>
<asrwt>0</asrwt>
<pdfrwt beam="1">  1        1 0.19969329E+00 0.93164022E+03</pdfrwt>
<pdfrwt beam="2">  1       -1 0.25718539E-01 0.93164022E+03</pdfrwt>
<totfact> 0.12173197E+02</totfact>
</mgrwt>
</event>
<event>
 4    1  0.4047984E-006  0.9570414E+03  0.7818608E-02  0.9356958E-01
          1   -1    0    0  501    0  0.00000000000E+00  0.00000000000E+00  0.24877449895E+03  0.24877449900E+03  0.50400000000E-02 0. -1.
         -1   -1    0    0    0  501 -0.00000000000E+00 -0.00000000000E+00 -0.92044027187E+03  0.92044027188E+03  0.50400000000E-02 0.  1.
   -5000001    1    1    2    0    0 -0.13252187718E+03 -0.22690831960E+03  0.45510117443E+02  0.36554152189E+03  0.25000000000E+03 0.  0.
    5000001    1    1    2    0    0  0.13252187718E+03  0.22690831960E+03 -0.71717589036E+03  0.80367324899E+03  0.25000000000E+03 0.  0.
<mgrwt>
<rscale>  0 0.95704141E+03</rscale>
<asrwt>0</asrwt>
<pdfrwt beam="1">  1        1 0.38273000E-01 0.95704141E+03</pdfrwt>
<pdfrwt beam="2">  1       -1 0.14160619E+00 0.95704141E+03</pdfrwt>
<totfact> 0.45777755E+01</totfact>
</mgrwt>
</event>
<event>
 4    1  0.4047984E-006  0.9540076E+03  0.7818608E-02  0.9360479E-01
          1   -1    0    0  501    0  0.00000000000E+00  0.00000000000E+00  0.20049391734E+04  0.20049391734E+04  0.50400000000E-02 0. -1.
         -1   -1    0    0    0  501 -0.00000000000E+00 -0.00000000000E+00 -0.11348604622E+03  0.11348604634E+03  0.50400000000E-02 0.  1.
   -5000001    1    1    2    0    0  0.18944029297E+03  0.35601013163E+03  0.83690172105E+03  0.96204746719E+03  0.25000000000E+03 0.  0.
    5000001    1    1    2    0    0 -0.18944029297E+03 -0.35601013163E+03  0.10545514061E+04  0.11563777525E+04  0.25000000000E+03 0.  0.
<mgrwt>
<rscale>  0 0.95400759E+03</rscale>
<asrwt>0</asrwt>
<pdfrwt beam="1">  1        1 0.30845214E+00 0.95400759E+03</pdfrwt>
<pdfrwt beam="2">  1       -1 0.17459394E-01 0.95400759E+03</pdfrwt>
<totfact> 0.76696475E+01</totfact>
</mgrwt>
</event>
<event>
 4    1  0.4047984E-006  0.5880492E+03  0.7818608E-02  0.9930515E-01
         -1   -1    0    0    0  501 -0.00000000000E+00  0.00000000000E+00  0.42295664079E+03  0.42295664082E+03  0.50400000000E-02 0.  1.
          1   -1    0    0  501    0  0.00000000000E+00 -0.00000000000E+00 -0.20439558759E+03  0.20439558765E+03  0.50400000000E-02 0. -1.
   -5000001    1    1    2    0    0 -0.13299572646E+03 -0.78818187782E+02  0.10171417024E+03  0.31104009775E+03  0.25000000000E+03 0.  0.
    5000001    1    1    2    0    0  0.13299572646E+03  0.78818187782E+02  0.11684688296E+03  0.31631213072E+03  0.25000000000E+03 0.  0.
<mgrwt>
<rscale>  0 0.58804922E+03</rscale>
<asrwt>0</asrwt>
<pdfrwt beam="1">  1        1 0.31445475E-01 0.58804922E+03</pdfrwt>
<pdfrwt beam="2">  1       -1 0.65070252E-01 0.58804922E+03</pdfrwt>
<totfact> 0.35112867E+02</totfact>
</mgrwt>
</event>
<event>
 4    1  0.4047984E-006  0.9181933E+03  0.7818608E-02  0.9403120E-01
         -1   -1    0    0    0  501 -0.00000000000E+00  0.00000000000E+00  0.65663486005E+03  0.65663486007E+03  0.50400000000E-02 0. -1.
          1   -1    0    0  501    0  0.00000000000E+00 -0.00000000000E+00 -0.32098465912E+03  0.32098465916E+03  0.50400000000E-02 0.  1.
   -5000001    1    1    2    0    0 -0.32353953531E+03  0.15733986889E+03  0.21698023480E+02  0.43863933872E+03  0.25000000000E+03 0.  0.
    5000001    1    1    2    0    0  0.32353953531E+03 -0.15733986889E+03  0.31395217745E+03  0.53898018050E+03  0.25000000000E+03 0.  0.
<mgrwt>
<rscale>  0 0.91819326E+03</rscale>
<asrwt>0</asrwt>
<pdfrwt beam="1">  1        1 0.49382256E-01 0.91819326E+03</pdfrwt>
<pdfrwt beam="2">  1       -1 0.10102075E+00 0.91819326E+03</pdfrwt>
<totfact> 0.75290030E+01</totfact>
</mgrwt>
</event>
<event>
 4    1  0.4047984E-006  0.6563548E+03  0.7818608E-02  0.9794927E-01
         -1   -1    0    0    0  501 -0.00000000000E+00  0.00000000000E+00  0.14606022107E+03  0.14606022116E+03  0.50400000000E-02 0. -1.
          1   -1    0    0  501    0  0.00000000000E+00 -0.00000000000E+00 -0.73736981621E+03  0.73736981623E+03  0.50400000000E-02 0.  1.
   -5000001    1    1    2    0    0  0.18376814816E+03  0.40280178139E+02 -0.16236238224E+03  0.35249789814E+03  0.25000000000E+03 0.  0.
    5000001    1    1    2    0    0 -0.18376814816E+03 -0.40280178139E+02 -0.42894721290E+03  0.53093213925E+03  0.25000000000E+03 0.  0.
<mgrwt>
<rscale>  0 0.65635478E+03</rscale>
<asrwt>0</asrwt>
<pdfrwt beam="1">  1        1 0.11344151E+00 0.65635478E+03</pdfrwt>
<pdfrwt beam="2">  1       -1 0.22470804E-01 0.65635478E+03</pdfrwt>
<totfact> 0.42727127E+02</totfact>
</mgrwt>
</event>
<event>
 4    1  0.4047984E-006  0.9408128E+03  0.7818608E-02  0.9375954E-01
          1   -1    0    0  501    0  0.00000000000E+00  0.00000000000E+00  0.89266498200E+03  0.89266498201E+03  0.50400000000E-02 0. -1.
         -1   -1    0    0    0  501 -0.00000000000E+00 -0.00000000000E+00 -0.24788941710E+03  0.24788941715E+03  0.50400000000E-02 0.  1.
   -5000001    1    1    2    0    0 -0.25073870443E+02 -0.14079593463E+03 -0.12850259478E+03  0.31538089836E+03  0.25000000000E+03 0.  0.
    5000001    1    1    2    0    0  0.25073870443E+02  0.14079593463E+03  0.77327815967E+03  0.82517350080E+03  0.25000000000E+03 0.  0.
<mgrwt>
<rscale>  0 0.94081284E+03</rscale>
<asrwt>0</asrwt>
<pdfrwt beam="1">  1        1 0.13733308E+00 0.94081284E+03</pdfrwt>
<pdfrwt beam="2">  1       -1 0.38136832E-01 0.94081284E+03</pdfrwt>
<totfact> 0.12318345E+02</totfact>
</mgrwt>
</event>
<event>
 4    1  0.4047984E-006  0.8381667E+03  0.7818608E-02  0.9506358E-01
         -1   -1    0    0    0  501 -0.00000000000E+00  0.00000000000E+00  0.15139410717E+03  0.15139410725E+03  0.50400000000E-02 0.  1.
          1   -1    0    0  501    0  0.00000000000E+00 -0.00000000000E+00 -0.11600903246E+04  0.11600903246E+04  0.50400000000E-02 0. -1.
   -5000001    1    1    2    0    0 -0.23306696096E+03  0.21672433160E+03 -0.67461512223E+03  0.78669893056E+03  0.25000000000E+03 0.  0.
    5000001    1    1    2    0    0  0.23306696096E+03 -0.21672433160E+03 -0.33408109519E+03  0.52478550129E+03  0.25000000000E+03 0.  0.
<mgrwt>
<rscale>  0 0.83816666E+03</rscale>
<asrwt>0</asrwt>
<pdfrwt beam="1">  1        1 0.17847543E+00 0.83816666E+03</pdfrwt>
<pdfrwt beam="2">  1       -1 0.23291402E-01 0.83816666E+03</pdfrwt>
<totfact> 0.18243478E+02</totfact>
</mgrwt>
</event>
<event>
 4    1  0.4047984E-006  0.7015276E+03  0.7818608E-02  0.9714623E-01
         -1   -1    0    0    0  501 -0.00000000000E+00  0.00000000000E+00  0.68615596674E+03  0.68615596676E+03  0.50400000000E-02 0. -1.
          1   -1    0    0  501    0  0.00000000000E+00 -0.00000000000E+00 -0.17931091341E+03  0.17931091348E+03  0.50400000000E-02 0.  1.
   -5000001    1    1    2    0    0  0.13179233436E+03  0.20523804735E+03  0.21357269886E+03  0.40939610791E+03  0.25000000000E+03 0.  0.
    5000001    1    1    2    0    0 -0.13179233436E+03 -0.20523804735E+03  0.29327235447E+03  0.45607077233E+03  0.25000000000E+03 0.  0.
<mgrwt>
<rscale>  0 0.70152763E+03</rscale>
<asrwt>0</asrwt>
<pdfrwt beam="1">  1        1 0.27586294E-01 0.70152763E+03</pdfrwt>
<pdfrwt beam="2">  1       -1 0.10556246E+00 0.70152763E+03</pdfrwt>
<totfact> 0.14660964E+02</totfact>
</mgrwt>
</event>
<event>
 4    1  0.4047984E-006  0.7096550E+03  0.7818608E-02  0.9700862E-01
          1   -1    0    0  501    0  0.00000000000E+00  0.00000000000E+00  0.81063541948E+02  0.81063542105E+02  0.50400000000E-02 0.  1.
         -1   -1    0    0    0  501 -0.00000000000E+00 -0.00000000000E+00 -0.15531343311E+04  0.15531343311E+04  0.50400000000E-02 0. -1.
   -5000001    1    1    2    0    0  0.24906688599E+03  0.33761272582E+02 -0.77083999768E+03  0.84845061096E+03  0.25000000000E+03 0.  0.
    5000001    1    1    2    0    0 -0.24906688599E+03 -0.33761272582E+02 -0.70123079145E+03  0.78574726223E+03  0.25000000000E+03 0.  0.
<mgrwt>
<rscale>  0 0.70965504E+03</rscale>
<asrwt>0</asrwt>
<pdfrwt beam="1">  1        1 0.12471315E-01 0.70965504E+03</pdfrwt>
<pdfrwt beam="2">  1       -1 0.23894372E+00 0.70965504E+03</pdfrwt>
<totfact> 0.42150731E+01</totfact>
</mgrwt>
</event>
<event>
 4    1  0.4047984E-006  0.6586685E+03  0.7818608E-02  0.9790648E-01
         -1   -1    0    0    0  501 -0.00000000000E+00  0.00000000000E+00  0.10583442875E+03  0.10583442887E+03  0.50400000000E-02 0.  1.
          1   -1    0    0  501    0  0.00000000000E+00 -0.00000000000E+00 -0.10248181499E+04  0.10248181499E+04  0.50400000000E-02 0. -1.
   -5000001    1    1    2    0    0 -0.17852467692E+03  0.10342056386E+03 -0.55949856213E+03  0.64661079045E+03  0.25000000000E+03 0.  0.
    5000001    1    1    2    0    0  0.17852467692E+03 -0.10342056386E+03 -0.35948515902E+03  0.48404178833E+03  0.25000000000E+03 0.  0.
<mgrwt>
<rscale>  0 0.65866849E+03</rscale>
<asrwt>0</asrwt>
<pdfrwt beam="1">  1        1 0.15766432E+00 0.65866849E+03</pdfrwt>
<pdfrwt beam="2">  1       -1 0.16282221E-01 0.65866849E+03</pdfrwt>
<totfact> 0.42208043E+02</totfact>
</mgrwt>
</event>
<event>
 4    1  0.4047984E-006  0.8454440E+03  0.7818608E-02  0.9496472E-01
          1   -1    0    0  501    0  0.00000000000E+00  0.00000000000E+00  0.71072002950E+03  0.71072002951E+03  0.50400000000E-02 0. -1.
         -1   -1    0    0    0  501 -0.00000000000E+00 -0.00000000000E+00 -0.25142655796E+03  0.25142655801E+03  0.50400000000E-02 0.  1.
   -5000001    1    1    2    0    0  0.27072750223E+03  0.13620755878E+03  0.40722431941E+03  0.56584231536E+03  0.25000000000E+03 0.  0.
    5000001    1    1    2    0    0 -0.27072750223E+03 -0.13620755878E+03  0.52069152128E+02  0.39630427217E+03  0.25000000000E+03 0.  0.
<mgrwt>
<rscale>  0 0.84544400E+03</rscale>
<asrwt>0</asrwt>
<pdfrwt beam="1">  1        1 0.10934154E+00 0.84544400E+03</pdfrwt>
<pdfrwt beam="2">  1       -1 0.38681009E-01 0.84544400E+03</pdfrwt>
<totfact> 0.17391913E+02</totfact>
</mgrwt>
</event>
<event>
 4    1  0.4047984E-006  0.6300362E+03  0.7818608E-02  0.9844978E-01
          1   -1    0    0  501    0  0.00000000000E+00  0.00000000000E+00  0.35915838244E+03  0.35915838247E+03  0.50400000000E-02 0.  1.
         -1   -1    0    0    0  501 -0.00000000000E+00 -0.00000000000E+00 -0.27630259359E+03  0.27630259364E+03  0.50400000000E-02 0. -1.
   -5000001    1    1    2    0    0 -0.18162294200E+03 -0.56452715457E+02  0.17504676952E+02  0.31461121381E+03  0.25000000000E+03 0.  0.
    5000001    1    1    2    0    0  0.18162294200E+03  0.56452715457E+02  0.65351111893E+02  0.32084976230E+03  0.25000000000E+03 0.  0.
<mgrwt>
<rscale>  0 0.63003617E+03</rscale>
<asrwt>0</asrwt>
<pdfrwt beam="1">  1        1 0.55255136E-01 0.63003617E+03</pdfrwt>
<pdfrwt beam="2">  1       -1 0.42508091E-01 0.63003617E+03</pdfrwt>
<totfact> 0.38173360E+02</totfact>
</mgrwt>
</event>
<event>
 4    1  0.4047984E-006  0.5593021E+03  0.7818608E-02  0.9993635E-01
         -1   -1    0    0    0  501 -0.00000000000E+00  0.00000000000E+00  0.79234861762E+02  0.79234861922E+02  0.50400000000E-02 0. -1.
          1   -1    0    0  501    0  0.00000000000E+00 -0.00000000000E+00 -0.98699871397E+03  0.98699871398E+03  0.50400000000E-02 0.  1.
   -5000001    1    1    2    0    0  0.63224036231E+01  0.78663224031E+02 -0.26829922809E+03  0.37511645045E+03  0.25000000000E+03 0.  0.
    5000001    1    1    2    0    0 -0.63224036231E+01 -0.78663224031E+02 -0.63946462412E+03  0.69111712546E+03  0.25000000000E+03 0.  0.
<mgrwt>
<rscale>  0 0.55930209E+03</rscale>
<asrwt>0</asrwt>
<pdfrwt beam="1">  1        1 0.15184595E+00 0.55930209E+03</pdfrwt>
<pdfrwt beam="2">  1       -1 0.12189979E-01 0.55930209E+03</pdfrwt>
<totfact> 0.72309385E+02</totfact>
</mgrwt>
</event>
<event>
 4    1  0.4047984E-006  0.7060400E+03  0.7818608E-02  0.9706958E-01
          1   -1    0    0  501    0  0.00000000000E+00  0.00000000000E+00  0.11105059345E+04  0.11105059345E+04  0.50400000000E-02 0.  1.
         -1   -1    0    0    0  501 -0.00000000000E+00 -0.00000000000E+00 -0.11222193405E+03  0.11222193416E+03  0.50400000000E-02 0. -1.
   -5000001    1    1    2    0    0  0.31380389996E+02 -0.13544862338E+03  0.14089536275E+03  0.31887703225E+03  0.25000000000E+03 0.  0.
    5000001    1    1    2    0    0 -0.31380389996E+02  0.13544862338E+03  0.85738863771E+03  0.90385083644E+03  0.25000000000E+03 0.  0.
<mgrwt>
<rscale>  0 0.70604001E+03</rscale>
<asrwt>0</asrwt>
<pdfrwt beam="1">  1        1 0.17084706E+00 0.70604001E+03</pdfrwt>
<pdfrwt beam="2">  1       -1 0.17264913E-01 0.70604001E+03</pdfrwt>
<totfact> 0.32967557E+02</totfact>
</mgrwt>
</event>
<event>
 4    1  0.4047984E-006  0.5452716E+03  0.7818608E-02  0.1002594E+00
         -1   -1    0    0    0  501 -0.00000000000E+00  0.00000000000E+00  0.15961072540E+03  0.15961072548E+03  0.50400000000E-02 0. -1.
          1   -1    0    0  501    0  0.00000000000E+00 -0.00000000000E+00 -0.46569726951E+03  0.46569726954E+03  0.50400000000E-02 0.  1.
   -5000001    1    1    2    0    0  0.99100745063E+02  0.97176693622E+01 -0.20322583329E+03  0.33721822324E+03  0.25000000000E+03 0.  0.
    5000001    1    1    2    0    0 -0.99100745063E+02 -0.97176693622E+01 -0.10286071082E+03  0.28808977177E+03  0.25000000000E+03 0.  0.
<mgrwt>
<rscale>  0 0.54527160E+03</rscale>
<asrwt>0</asrwt>
<pdfrwt beam="1">  1        1 0.71645733E-01 0.54527160E+03</pdfrwt>
<pdfrwt beam="2">  1       -1 0.24555496E-01 0.54527160E+03</pdfrwt>
<totfact> 0.71110643E+02</totfact>
</mgrwt>
</event>
<event>
 4    1  0.4047984E-006  0.1174545E+04  0.7818608E-02  0.9135434E-01
         -1   -1    0    0    0  501 -0.00000000000E+00  0.00000000000E+00  0.66387840776E+03  0.66387840778E+03  0.50400000000E-02 0. -1.
          1   -1    0    0  501    0  0.00000000000E+00 -0.00000000000E+00 -0.51950633231E+03  0.51950633234E+03  0.50400000000E-02 0.  1.
   -5000001    1    1    2    0    0  0.37784778512E+03  0.91081497457E+02  0.43730024885E+03  0.63623603760E+03  0.25000000000E+03 0.  0.
    5000001    1    1    2    0    0 -0.37784778512E+03 -0.91081497457E+02 -0.29292817340E+03  0.54714870252E+03  0.25000000000E+03 0.  0.
<mgrwt>
<rscale>  0 0.11745451E+04</rscale>
<asrwt>0</asrwt>
<pdfrwt beam="1">  1        1 0.79924051E-01 0.11745451E+04</pdfrwt>
<pdfrwt beam="2">  1       -1 0.10213514E+00 0.11745451E+04</pdfrwt>
<totfact> 0.37850702E+01</totfact>
</mgrwt>
</event>
<event>
 4    1  0.4047984E-006  0.1151262E+04  0.7818608E-02  0.9156620E-01
         -1   -1    0    0    0  501 -0.00000000000E+00  0.00000000000E+00  0.22025513789E+03  0.22025513795E+03  0.50400000000E-02 0. -1.
          1   -1    0    0  501    0  0.00000000000E+00 -0.00000000000E+00 -0.15043957866E+04  0.15043957866E+04  0.50400000000E-02 0.  1.
   -5000001    1    1    2    0    0 -0.37804281535E+03  0.26268234535E+03 -0.28462689123E+03  0.59618021772E+03  0.25000000000E+03 0.  0.
    5000001    1    1    2    0    0  0.37804281535E+03 -0.26268234535E+03 -0.99951375749E+03  0.11284707068E+04  0.25000000000E+03 0.  0.
<mgrwt>
<rscale>  0 0.11512617E+04</rscale>
<asrwt>0</asrwt>
<pdfrwt beam="1">  1        1 0.23144550E+00 0.11512617E+04</pdfrwt>
<pdfrwt beam="2">  1       -1 0.33885407E-01 0.11512617E+04</pdfrwt>
<totfact> 0.53033218E+01</totfact>
</mgrwt>
</event>
<event>
 4    1  0.4047984E-006  0.6557159E+03  0.7818608E-02  0.9796112E-01
         -1   -1    0    0    0  501 -0.00000000000E+00  0.00000000000E+00  0.40514915495E+03  0.40514915498E+03  0.50400000000E-02 0. -1.
          1   -1    0    0  501    0  0.00000000000E+00 -0.00000000000E+00 -0.26531179869E+03  0.26531179874E+03  0.50400000000E-02 0.  1.
   -5000001    1    1    2    0    0 -0.10366325939E+03  0.89990366914E+02 -0.95416260254E+02  0.30074673765E+03  0.25000000000E+03 0.  0.
    5000001    1    1    2    0    0  0.10366325939E+03 -0.89990366914E+02  0.23525361651E+03  0.36971421607E+03  0.25000000000E+03 0.  0.
<mgrwt>
<rscale>  0 0.65571595E+03</rscale>
<asrwt>0</asrwt>
<pdfrwt beam="1">  1        1 0.40817200E-01 0.65571595E+03</pdfrwt>
<pdfrwt beam="2">  1       -1 0.62330639E-01 0.65571595E+03</pdfrwt>
<totfact> 0.27259991E+02</totfact>
</mgrwt>
</event>
<event>
 4    1  0.4047984E-006  0.5369836E+03  0.7818608E-02  0.1004552E+00
         -1   -1    0    0    0  501 -0.00000000000E+00  0.00000000000E+00  0.29002171772E+02  0.29002172210E+02  0.50400000000E-02 0.  1.
          1   -1    0    0  501    0  0.00000000000E+00 -0.00000000000E+00 -0.24856018522E+04  0.24856018522E+04  0.50400000000E-02 0. -1.
   -5000001    1    1    2    0    0 -0.97170468445E+02 -0.10949121750E+02 -0.12521175651E+04  0.12805703339E+04  0.25000000000E+03 0.  0.
    5000001    1    1    2    0    0  0.97170468445E+02  0.10949121750E+02 -0.12044821153E+04  0.12340336905E+04  0.25000000000E+03 0.  0.
<mgrwt>
<rscale>  0 0.53698362E+03</rscale>
<asrwt>0</asrwt>
<pdfrwt beam="1">  1        1 0.38240012E+00 0.53698362E+03</pdfrwt>
<pdfrwt beam="2">  1       -1 0.44618746E-02 0.53698362E+03</pdfrwt>
<totfact> 0.32581724E+02</totfact>
</mgrwt>
</event>
<event>
 4    1  0.4047984E-006  0.5743100E+03  0.7818608E-02  0.9960186E-01
         -1   -1    0    0    0  501 -0.00000000000E+00  0.00000000000E+00  0.15365492073E+03  0.15365492081E+03  0.50400000000E-02 0. -1.
          1   -1    0    0  501    0  0.00000000000E+00 -0.00000000000E+00 -0.53664394598E+03  0.53664394601E+03  0.50400000000E-02 0.  1.
   -5000001    1    1    2    0    0 -0.14158039609E+02 -0.12916215720E+03 -0.12484605987E+03  0.30817178911E+03  0.25000000000E+03 0.  0.
    5000001    1    1    2    0    0  0.14158039609E+02  0.12916215720E+03 -0.25814296539E+03  0.38212707771E+03  0.25000000000E+03 0.  0.
<mgrwt>
<rscale>  0 0.57430996E+03</rscale>
<asrwt>0</asrwt>
<pdfrwt beam="1">  1        1 0.82560606E-01 0.57430996E+03</pdfrwt>
<pdfrwt beam="2">  1       -1 0.23639219E-01 0.57430996E+03</pdfrwt>
<totfact> 0.62449664E+02</totfact>
</mgrwt>
</event>
<event>
 4    1  0.4047984E-006  0.7812482E+03  0.7818608E-02  0.9587563E-01
         -1   -1    0    0    0  501 -0.00000000000E+00  0.00000000000E+00  0.13208968884E+03  0.13208968893E+03  0.50400000000E-02 0.  1.
          1   -1    0    0  501    0  0.00000000000E+00 -0.00000000000E+00 -0.11551785239E+04  0.11551785239E+04  0.50400000000E-02 0. -1.
   -5000001    1    1    2    0    0 -0.16257611119E+03  0.24456201506E+03 -0.61372353130E+03  0.72484353071E+03  0.25000000000E+03 0.  0.
    5000001    1    1    2    0    0  0.16257611119E+03 -0.24456201506E+03 -0.40936530372E+03  0.56242468210E+03  0.25000000000E+03 0.  0.
<mgrwt>
<rscale>  0 0.78124816E+03</rscale>
<asrwt>0</asrwt>
<pdfrwt beam="1">  1        1 0.17771977E+00 0.78124816E+03</pdfrwt>
<pdfrwt beam="2">  1       -1 0.20321491E-01 0.78124816E+03</pdfrwt>
<totfact> 0.23223687E+02</totfact>
</mgrwt>
</event>
<event>
 4    1  0.4047984E-006  0.6732509E+03  0.7818608E-02  0.9764103E-01
          1   -1    0    0  501    0  0.00000000000E+00  0.00000000000E+00  0.51425447098E+03  0.51425447100E+03  0.50400000000E-02 0.  1.
         -1   -1    0    0    0  501 -0.00000000000E+00 -0.00000000000E+00 -0.22035142019E+03  0.22035142024E+03  0.50400000000E-02 0. -1.
   -5000001    1    1    2    0    0 -0.20717694590E+03 -0.74654535959E+02  0.19952006421E+03  0.38833470444E+03  0.25000000000E+03 0.  0.
    5000001    1    1    2    0    0  0.20717694590E+03  0.74654535959E+02  0.94382986583E+02  0.34627118680E+03  0.25000000000E+03 0.  0.
<mgrwt>
<rscale>  0 0.67325093E+03</rscale>
<asrwt>0</asrwt>
<pdfrwt beam="1">  1        1 0.79116071E-01 0.67325093E+03</pdfrwt>
<pdfrwt beam="2">  1       -1 0.33900219E-01 0.67325093E+03</pdfrwt>
<totfact> 0.35442670E+02</totfact>
</mgrwt>
</event>
<event>
 4    1  0.4047984E-006  0.1379222E+04  0.7818608E-02  0.8968997E-01
         -1   -1    0    0    0  501 -0.00000000000E+00  0.00000000000E+00  0.82868169348E+03  0.82868169350E+03  0.50400000000E-02 0.  1.
          1   -1    0    0  501    0  0.00000000000E+00 -0.00000000000E+00 -0.57387943200E+03  0.57387943202E+03  0.50400000000E-02 0. -1.
   -5000001    1    1    2    0    0 -0.38570417230E+03  0.24359722200E+03  0.58778276062E+03  0.78491775925E+03  0.25000000000E+03 0.  0.
    5000001    1    1    2    0    0  0.38570417230E+03 -0.24359722200E+03 -0.33298049914E+03  0.61764336627E+03  0.25000000000E+03 0.  0.
<mgrwt>
<rscale>  0 0.13792221E+04</rscale>
<asrwt>0</asrwt>
<pdfrwt beam="1">  1        1 0.88289144E-01 0.13792221E+04</pdfrwt>
<pdfrwt beam="2">  1       -1 0.12748949E+00 0.13792221E+04</pdfrwt>
<totfact> 0.19002220E+01</totfact>
</mgrwt>
</event>
<event>
 4    1  0.4047984E-006  0.7694934E+03  0.7818608E-02  0.9605255E-01
         -1   -1    0    0    0  501 -0.00000000000E+00  0.00000000000E+00  0.13024233939E+03  0.13024233949E+03  0.50400000000E-02 0. -1.
          1   -1    0    0  501    0  0.00000000000E+00 -0.00000000000E+00 -0.11365736898E+04  0.11365736898E+04  0.50400000000E-02 0.  1.
   -5000001    1    1    2    0    0  0.51346696075E+01 -0.29147847661E+03 -0.54156183714E+03  0.66390909815E+03  0.25000000000E+03 0.  0.
    5000001    1    1    2    0    0 -0.51346696075E+01  0.29147847661E+03 -0.46476951328E+03  0.60290693116E+03  0.25000000000E+03 0.  0.
<mgrwt>
<rscale>  0 0.76949338E+03</rscale>
<asrwt>0</asrwt>
<pdfrwt beam="1">  1        1 0.17485748E+00 0.76949338E+03</pdfrwt>
<pdfrwt beam="2">  1       -1 0.20037284E-01 0.76949338E+03</pdfrwt>
<totfact> 0.24555176E+02</totfact>
</mgrwt>
</event>
<event>
 4    1  0.4047984E-006  0.6054677E+03  0.7818608E-02  0.9894127E-01
          1   -1    0    0  501    0  0.00000000000E+00  0.00000000000E+00  0.80481813728E+03  0.80481813730E+03  0.50400000000E-02 0. -1.
         -1   -1    0    0    0  501 -0.00000000000E+00 -0.00000000000E+00 -0.11387389297E+03  0.11387389308E+03  0.50400000000E-02 0.  1.
   -5000001    1    1    2    0    0  0.15162460964E+03 -0.78047723733E+02  0.35782739429E+03  0.46863836114E+03  0.25000000000E+03 0.  0.
    5000001    1    1    2    0    0 -0.15162460964E+03  0.78047723733E+02  0.33311685002E+03  0.45005366924E+03  0.25000000000E+03 0.  0.
<mgrwt>
<rscale>  0 0.60546767E+03</rscale>
<asrwt>0</asrwt>
<pdfrwt beam="1">  1        1 0.12381818E+00 0.60546767E+03</pdfrwt>
<pdfrwt beam="2">  1       -1 0.17519060E-01 0.60546767E+03</pdfrwt>
<totfact> 0.56455530E+02</totfact>
</mgrwt>
</event>
<event>
 4    1  0.4047984E-006  0.1614470E+04  0.7818608E-02  0.8811708E-01
         -1   -1    0    0    0  501 -0.00000000000E+00  0.00000000000E+00  0.46594500704E+03  0.46594500707E+03  0.50400000000E-02 0. -1.
          1   -1    0    0  501    0  0.00000000000E+00 -0.00000000000E+00 -0.13985083602E+04  0.13985083602E+04  0.50400000000E-02 0.  1.
   -5000001    1    1    2    0    0 -0.74465526747E+03  0.37221998781E+02 -0.67680181776E+03  0.10375247684E+04  0.25000000000E+03 0.  0.
    5000001    1    1    2    0    0  0.74465526747E+03 -0.37221998781E+02 -0.25576153535E+03  0.82692859881E+03  0.25000000000E+03 0.  0.
<mgrwt>
<rscale>  0 0.16144696E+04</rscale>
<asrwt>0</asrwt>
<pdfrwt beam="1">  1        1 0.21515513E+00 0.16144696E+04</pdfrwt>
<pdfrwt beam="2">  1       -1 0.71683848E-01 0.16144696E+04</pdfrwt>
<totfact> 0.14499406E+01</totfact>
</mgrwt>
</event>
<event>
 4    1  0.4047984E-006  0.7565849E+03  0.7818608E-02  0.9625076E-01
          1   -1    0    0  501    0  0.00000000000E+00  0.00000000000E+00  0.32618854310E+03  0.32618854314E+03  0.50400000000E-02 0.  1.
         -1   -1    0    0    0  501 -0.00000000000E+00 -0.00000000000E+00 -0.43871925777E+03  0.43871925780E+03  0.50400000000E-02 0. -1.
   -5000001    1    1    2    0    0  0.12528676904E+03 -0.20460071656E+03  0.97216940160E+02  0.35987409071E+03  0.25000000000E+03 0.  0.
    5000001    1    1    2    0    0 -0.12528676904E+03  0.20460071656E+03 -0.20974765482E+03  0.40503371022E+03  0.25000000000E+03 0.  0.
<mgrwt>
<rscale>  0 0.75658495E+03</rscale>
<asrwt>0</asrwt>
<pdfrwt beam="1">  1        1 0.50182853E-01 0.75658495E+03</pdfrwt>
<pdfrwt beam="2">  1       -1 0.67495271E-01 0.75658495E+03</pdfrwt>
<totfact> 0.17704402E+02</totfact>
</mgrwt>
</event>
<event>
 4    1  0.4047984E-006  0.9681270E+03  0.7818608E-02  0.9344210E-01
         -1   -1    0    0    0  501 -0.00000000000E+00  0.00000000000E+00  0.99577647555E+02  0.99577647682E+02  0.50400000000E-02 0. -1.
          1   -1    0    0  501    0  0.00000000000E+00 -0.00000000000E+00 -0.23531131046E+04  0.23531131046E+04  0.50400000000E-02 0.  1.
   -5000001    1    1    2    0    0 -0.23890856551E+03  0.33873070323E+03 -0.11234883548E+04  0.12233322833E+04  0.25000000000E+03 0.  0.
    5000001    1    1    2    0    0  0.23890856551E+03 -0.33873070323E+03 -0.11300471022E+04  0.12293584689E+04  0.25000000000E+03 0.  0.
<mgrwt>
<rscale>  0 0.96812699E+03</rscale>
<asrwt>0</asrwt>
<pdfrwt beam="1">  1        1 0.36201736E+00 0.96812699E+03</pdfrwt>
<pdfrwt beam="2">  1       -1 0.15319640E-01 0.96812699E+03</pdfrwt>
<totfact> 0.55270725E+01</totfact>
</mgrwt>
</event>
<event>
 4    1  0.4047984E-006  0.7363674E+03  0.7818608E-02  0.9656984E-01
         -1   -1    0    0    0  501 -0.00000000000E+00  0.00000000000E+00  0.66350314177E+03  0.66350314179E+03  0.50400000000E-02 0. -1.
          1   -1    0    0  501    0  0.00000000000E+00 -0.00000000000E+00 -0.20430836426E+03  0.20430836432E+03  0.50400000000E-02 0.  1.
   -5000001    1    1    2    0    0  0.15063265471E+02 -0.26986742695E+03  0.23192818090E+03  0.43513907109E+03  0.25000000000E+03 0.  0.
    5000001    1    1    2    0    0 -0.15063265471E+02  0.26986742695E+03  0.22726659661E+03  0.43267243502E+03  0.25000000000E+03 0.  0.
<mgrwt>
<rscale>  0 0.73636741E+03</rscale>
<asrwt>0</asrwt>
<pdfrwt beam="1">  1        1 0.31432056E-01 0.73636741E+03</pdfrwt>
<pdfrwt beam="2">  1       -1 0.10207741E+00 0.73636741E+03</pdfrwt>
<totfact> 0.13348297E+02</totfact>
</mgrwt>
</event>
<event>
 4    1  0.4047984E-006  0.7381195E+03  0.7818608E-02  0.9654176E-01
          1   -1    0    0  501    0  0.00000000000E+00  0.00000000000E+00  0.73839316845E+03  0.73839316847E+03  0.50400000000E-02 0.  1.
         -1   -1    0    0    0  501 -0.00000000000E+00 -0.00000000000E+00 -0.18446149322E+03  0.18446149329E+03  0.50400000000E-02 0. -1.
   -5000001    1    1    2    0    0  0.23573535649E+03 -0.12036741749E+02  0.10927438936E+03  0.36077268969E+03  0.25000000000E+03 0.  0.
    5000001    1    1    2    0    0 -0.23573535649E+03  0.12036741749E+02  0.44465728587E+03  0.56208197207E+03  0.25000000000E+03 0.  0.
<mgrwt>
<rscale>  0 0.73811952E+03</rscale>
<asrwt>0</asrwt>
<pdfrwt beam="1">  1        1 0.11359895E+00 0.73811952E+03</pdfrwt>
<pdfrwt beam="2">  1       -1 0.28378691E-01 0.73811952E+03</pdfrwt>
<totfact> 0.28530916E+02</totfact>
</mgrwt>
</event>
<event>
 4    1  0.4047984E-006  0.6357820E+03  0.7818608E-02  0.9833830E-01
          1   -1    0    0  501    0  0.00000000000E+00  0.00000000000E+00  0.12006120694E+04  0.12006120694E+04  0.50400000000E-02 0.  1.
         -1   -1    0    0    0  501 -0.00000000000E+00 -0.00000000000E+00 -0.84169309303E+02  0.84169309454E+02  0.50400000000E-02 0. -1.
   -5000001    1    1    2    0    0 -0.13885374430E+02 -0.14855960501E+03  0.30028817419E+03  0.41825320970E+03  0.25000000000E+03 0.  0.
    5000001    1    1    2    0    0  0.13885374430E+02  0.14855960501E+03  0.81615458589E+03  0.86652816916E+03  0.25000000000E+03 0.  0.
<mgrwt>
<rscale>  0 0.63578200E+03</rscale>
<asrwt>0</asrwt>
<pdfrwt beam="1">  1        1 0.18470953E+00 0.63578200E+03</pdfrwt>
<pdfrwt beam="2">  1       -1 0.12949126E-01 0.63578200E+03</pdfrwt>
<totfact> 0.45364527E+02</totfact>
</mgrwt>
</event>
<event>
 4    1  0.4047984E-006  0.6636259E+03  0.7818608E-02  0.9781542E-01
          1   -1    0    0  501    0  0.00000000000E+00  0.00000000000E+00  0.85381193832E+02  0.85381193981E+02  0.50400000000E-02 0.  1.
         -1   -1    0    0    0  501 -0.00000000000E+00 -0.00000000000E+00 -0.12895092448E+04  0.12895092448E+04  0.50400000000E-02 0. -1.
   -5000001    1    1    2    0    0 -0.10248769026E+03 -0.17585366867E+03 -0.43930554741E+03  0.54490146213E+03  0.25000000000E+03 0.  0.
    5000001    1    1    2    0    0  0.10248769026E+03  0.17585366867E+03 -0.76482250358E+03  0.82998897668E+03  0.25000000000E+03 0.  0.
<mgrwt>
<rscale>  0 0.66362592E+03</rscale>
<asrwt>0</asrwt>
<pdfrwt beam="1">  1        1 0.13135569E-01 0.66362592E+03</pdfrwt>
<pdfrwt beam="2">  1       -1 0.19838602E+00 0.66362592E+03</pdfrwt>
<totfact> 0.73318369E+01</totfact>
</mgrwt>
</event>
<event>
 4    1  0.4047984E-006  0.6729466E+03  0.7818608E-02  0.9764649E-01
         -1   -1    0    0    0  501 -0.00000000000E+00  0.00000000000E+00  0.15827380121E+04  0.15827380121E+04  0.50400000000E-02 0.  1.
          1   -1    0    0  501    0  0.00000000000E+00 -0.00000000000E+00 -0.71530657961E+02  0.71530658138E+02  0.50400000000E-02 0. -1.
   -5000001    1    1    2    0    0  0.59832125827E+02  0.20993091532E+03  0.89166310070E+03  0.95142732651E+03  0.25000000000E+03 0.  0.
    5000001    1    1    2    0    0 -0.59832125827E+02 -0.20993091532E+03  0.61954425343E+03  0.70284134372E+03  0.25000000000E+03 0.  0.
<mgrwt>
<rscale>  0 0.67294663E+03</rscale>
<asrwt>0</asrwt>
<pdfrwt beam="1">  1        1 0.11004716E-01 0.67294663E+03</pdfrwt>
<pdfrwt beam="2">  1       -1 0.24349817E+00 0.67294663E+03</pdfrwt>
<totfact> 0.46875172E+01</totfact>
</mgrwt>
</event>
<event>
 4    1  0.4047984E-006  0.7295543E+03  0.7818608E-02  0.9667984E-01
         -1   -1    0    0    0  501 -0.00000000000E+00  0.00000000000E+00  0.98107839324E+02  0.98107839454E+02  0.50400000000E-02 0. -1.
          1   -1    0    0  501    0  0.00000000000E+00 -0.00000000000E+00 -0.13562866324E+04  0.13562866324E+04  0.50400000000E-02 0.  1.
   -5000001    1    1    2    0    0  0.80783258114E+02 -0.25098282126E+03 -0.56467497081E+03  0.67147310744E+03  0.25000000000E+03 0.  0.
    5000001    1    1    2    0    0 -0.80783258114E+02  0.25098282126E+03 -0.69350382223E+03  0.78292136439E+03  0.25000000000E+03 0.  0.
<mgrwt>
<rscale>  0 0.72955425E+03</rscale>
<asrwt>0</asrwt>
<pdfrwt beam="1">  1        1 0.20865947E+00 0.72955425E+03</pdfrwt>
<pdfrwt beam="2">  1       -1 0.15093515E-01 0.72955425E+03</pdfrwt>
<totfact> 0.27312937E+02</totfact>
</mgrwt>
</event>
<event>
 4    1  0.4047984E-006  0.1014076E+04  0.7818608E-02  0.9293240E-01
          1   -1    0    0  501    0  0.00000000000E+00  0.00000000000E+00  0.54352748939E+03  0.54352748941E+03  0.50400000000E-02 0. -1.
         -1   -1    0    0    0  501 -0.00000000000E+00 -0.00000000000E+00 -0.47299835285E+03  0.47299835288E+03  0.50400000000E-02 0.  1.
   -5000001    1    1    2    0    0 -0.41988595338E+03  0.89303728540E+02  0.13703932294E+03  0.51532431129E+03  0.25000000000E+03 0.  0.
    5000001    1    1    2    0    0  0.41988595338E+03 -0.89303728540E+02 -0.66510186405E+02  0.50120153100E+03  0.25000000000E+03 0.  0.
<mgrwt>
<rscale>  0 0.10140761E+04</rscale>
<asrwt>0</asrwt>
<pdfrwt beam="1">  1        1 0.83619614E-01 0.10140761E+04</pdfrwt>
<pdfrwt beam="2">  1       -1 0.72768977E-01 0.10140761E+04</pdfrwt>
<totfact> 0.75284139E+01</totfact>
</mgrwt>
</event>
<event>
 4    1  0.4047984E-006  0.7543068E+03  0.7818608E-02  0.9628618E-01
         -1   -1    0    0    0  501 -0.00000000000E+00  0.00000000000E+00  0.51261001836E+02  0.51261002084E+02  0.50400000000E-02 0.  1.
          1   -1    0    0  501    0  0.00000000000E+00 -0.00000000000E+00 -0.27749105482E+04  0.27749105482E+04  0.50400000000E-02 0. -1.
   -5000001    1    1    2    0    0  0.89239856066E+02 -0.25675208624E+03 -0.16486211759E+04  0.16894783714E+04  0.25000000000E+03 0.  0.
    5000001    1    1    2    0    0 -0.89239856066E+02  0.25675208624E+03 -0.10750283704E+04  0.11366931789E+04  0.25000000000E+03 0.  0.
<mgrwt>
<rscale>  0 0.75430682E+03</rscale>
<asrwt>0</asrwt>
<pdfrwt beam="1">  1        1 0.42690920E+00 0.75430682E+03</pdfrwt>
<pdfrwt beam="2">  1       -1 0.78863102E-02 0.75430682E+03</pdfrwt>
<totfact> 0.83621152E+01</totfact>
</mgrwt>
</event>
<event>
 4    1  0.4047984E-006  0.9232073E+03  0.7818608E-02  0.9397027E-01
         -1   -1    0    0    0  501 -0.00000000000E+00  0.00000000000E+00  0.24262454436E+03  0.24262454441E+03  0.50400000000E-02 0. -1.
          1   -1    0    0  501    0  0.00000000000E+00 -0.00000000000E+00 -0.87822075318E+03  0.87822075320E+03  0.50400000000E-02 0.  1.
   -5000001    1    1    2    0    0 -0.30397513245E+03  0.23987171062E+03 -0.34847829155E+03  0.57782042054E+03  0.25000000000E+03 0.  0.
    5000001    1    1    2    0    0  0.30397513245E+03 -0.23987171062E+03 -0.28711791727E+03  0.54302487707E+03  0.25000000000E+03 0.  0.
<mgrwt>
<rscale>  0 0.92320726E+03</rscale>
<asrwt>0</asrwt>
<pdfrwt beam="1">  1        1 0.13511088E+00 0.92320726E+03</pdfrwt>
<pdfrwt beam="2">  1       -1 0.37326853E-01 0.92320726E+03</pdfrwt>
<totfact> 0.13175902E+02</totfact>
</mgrwt>
</event>
<event>
 4    1  0.4047984E-006  0.1119109E+04  0.7818608E-02  0.9186765E-01
          1   -1    0    0  501    0  0.00000000000E+00  0.00000000000E+00  0.10396148185E+04  0.10396148185E+04  0.50400000000E-02 0. -1.
         -1   -1    0    0    0  501 -0.00000000000E+00 -0.00000000000E+00 -0.30117018173E+03  0.30117018177E+03  0.50400000000E-02 0.  1.
   -5000001    1    1    2    0    0  0.14843717741E+03 -0.40613471889E+03  0.67141957367E+03  0.83682928333E+03  0.25000000000E+03 0.  0.
    5000001    1    1    2    0    0 -0.14843717741E+03  0.40613471889E+03  0.67025063048E+02  0.50395571691E+03  0.25000000000E+03 0.  0.
<mgrwt>
<rscale>  0 0.11191085E+04</rscale>
<asrwt>0</asrwt>
<pdfrwt beam="1">  1        1 0.15994074E+00 0.11191085E+04</pdfrwt>
<pdfrwt beam="2">  1       -1 0.46333874E-01 0.11191085E+04</pdfrwt>
<totfact> 0.65011701E+01</totfact>
</mgrwt>
</event>
<event>
 4    1  0.4047984E-006  0.9150308E+03  0.7818608E-02  0.9406985E-01
         -1   -1    0    0    0  501 -0.00000000000E+00  0.00000000000E+00  0.35021207301E+03  0.35021207305E+03  0.50400000000E-02 0. -1.
          1   -1    0    0  501    0  0.00000000000E+00 -0.00000000000E+00 -0.59769600170E+03  0.59769600172E+03  0.50400000000E-02 0.  1.
   -5000001    1    1    2    0    0 -0.22721318346E+03  0.29695559890E+03 -0.36996201588E+02  0.45130607949E+03  0.25000000000E+03 0.  0.
    5000001    1    1    2    0    0  0.22721318346E+03 -0.29695559890E+03 -0.21048772710E+03  0.49660199528E+03  0.25000000000E+03 0.  0.
<mgrwt>
<rscale>  0 0.91503083E+03</rscale>
<asrwt>0</asrwt>
<pdfrwt beam="1">  1        1 0.91953231E-01 0.91503083E+03</pdfrwt>
<pdfrwt beam="2">  1       -1 0.53878780E-01 0.91503083E+03</pdfrwt>
<totfact> 0.12059950E+02</totfact>
</mgrwt>
</event>
<event>
 4    1  0.4047984E-006  0.1193750E+04  0.7818608E-02  0.9118345E-01
          1   -1    0    0  501    0  0.00000000000E+00  0.00000000000E+00  0.14568739745E+04  0.14568739745E+04  0.50400000000E-02 0.  1.
         -1   -1    0    0    0  501 -0.00000000000E+00 -0.00000000000E+00 -0.24453704479E+03  0.24453704484E+03  0.50400000000E-02 0. -1.
   -5000001    1    1    2    0    0 -0.37966022977E+03  0.99423095933E+02  0.73391884113E+02  0.47107665059E+03  0.25000000000E+03 0.  0.
    5000001    1    1    2    0    0  0.37966022977E+03 -0.99423095933E+02  0.11389450456E+04  0.12303343688E+04  0.25000000000E+03 0.  0.
<mgrwt>
<rscale>  0 0.11937498E+04</rscale>
<asrwt>0</asrwt>
<pdfrwt beam="1">  1        1 0.22413445E+00 0.11937498E+04</pdfrwt>
<pdfrwt beam="2">  1       -1 0.37621085E-01 0.11937498E+04</pdfrwt>
<totfact> 0.47261748E+01</totfact>
</mgrwt>
</event>
<event>
 4    1  0.4047984E-006  0.6932691E+03  0.7818608E-02  0.9728813E-01
          1   -1    0    0  501    0  0.00000000000E+00  0.00000000000E+00  0.61423425031E+03  0.61423425033E+03  0.50400000000E-02 0. -1.
         -1   -1    0    0    0  501 -0.00000000000E+00 -0.00000000000E+00 -0.19561839205E+03  0.19561839211E+03  0.50400000000E-02 0.  1.
   -5000001    1    1    2    0    0 -0.19021568924E+03  0.10656269131E+03  0.32681103861E+03  0.46566411776E+03  0.25000000000E+03 0.  0.
    5000001    1    1    2    0    0  0.19021568924E+03 -0.10656269131E+03  0.91804819648E+02  0.34418852468E+03  0.25000000000E+03 0.  0.
<mgrwt>
<rscale>  0 0.69326911E+03</rscale>
<asrwt>0</asrwt>
<pdfrwt beam="1">  1        1 0.94497577E-01 0.69326911E+03</pdfrwt>
<pdfrwt beam="2">  1       -1 0.30095137E-01 0.69326911E+03</pdfrwt>
<totfact> 0.33972090E+02</totfact>
</mgrwt>
</event>
<event>
 4    1  0.4047984E-006  0.5598883E+03  0.7818608E-02  0.9992307E-01
          1   -1    0    0  501    0  0.00000000000E+00  0.00000000000E+00  0.47303457421E+02  0.47303457690E+02  0.50400000000E-02 0.  1.
         -1   -1    0    0    0  501 -0.00000000000E+00 -0.00000000000E+00 -0.16567228257E+04  0.16567228257E+04  0.50400000000E-02 0. -1.
   -5000001    1    1    2    0    0 -0.54668351851E+02 -0.87261362718E+02 -0.58386012538E+03  0.64342506955E+03  0.25000000000E+03 0.  0.
    5000001    1    1    2    0    0  0.54668351851E+02  0.87261362718E+02 -0.10255592429E+04  0.10606012139E+04  0.25000000000E+03 0.  0.
<mgrwt>
<rscale>  0 0.55988827E+03</rscale>
<asrwt>0</asrwt>
<pdfrwt beam="1">  1        1 0.72774563E-02 0.55988827E+03</pdfrwt>
<pdfrwt beam="2">  1       -1 0.25488039E+00 0.55988827E+03</pdfrwt>
<totfact> 0.70874592E+01</totfact>
</mgrwt>
</event>
<event>
 4    1  0.4047984E-006  0.9607110E+03  0.7818608E-02  0.9352718E-01
          1   -1    0    0  501    0  0.00000000000E+00  0.00000000000E+00  0.62035519097E+03  0.62035519099E+03  0.50400000000E-02 0.  1.
         -1   -1    0    0    0  501 -0.00000000000E+00 -0.00000000000E+00 -0.37195044795E+03  0.37195044798E+03  0.50400000000E-02 0. -1.
   -5000001    1    1    2    0    0  0.16816672172E+03 -0.35302538024E+03  0.25210706156E+03  0.52817131300E+03  0.25000000000E+03 0.  0.
    5000001    1    1    2    0    0 -0.16816672172E+03  0.35302538024E+03 -0.37023185410E+01  0.46413432597E+03  0.25000000000E+03 0.  0.
<mgrwt>
<rscale>  0 0.96071097E+03</rscale>
<asrwt>0</asrwt>
<pdfrwt beam="1">  1        1 0.95439259E-01 0.96071097E+03</pdfrwt>
<pdfrwt beam="2">  1       -1 0.57223147E-01 0.96071097E+03</pdfrwt>
<totfact> 0.10138091E+02</totfact>
</mgrwt>
</event>
<event>
 4    1  0.4047984E-006  0.6136320E+03  0.7818608E-02  0.9877521E-01
          1   -1    0    0  501    0  0.00000000000E+00  0.00000000000E+00  0.28918526663E+03  0.28918526668E+03  0.50400000000E-02 0. -1.
         -1   -1    0    0    0  501 -0.00000000000E+00 -0.00000000000E+00 -0.32552159488E+03  0.32552159492E+03  0.50400000000E-02 0.  1.
   -5000001    1    1    2    0    0 -0.11980027490E+03  0.97830034948E+02  0.69810660499E+02  0.30215285854E+03  0.25000000000E+03 0.  0.
    5000001    1    1    2    0    0  0.11980027490E+03 -0.97830034948E+02 -0.10614698874E+03  0.31255400305E+03  0.25000000000E+03 0.  0.
<mgrwt>
<rscale>  0 0.61363197E+03</rscale>
<asrwt>0</asrwt>
<pdfrwt beam="1">  1        1 0.44490041E-01 0.61363197E+03</pdfrwt>
<pdfrwt beam="2">  1       -1 0.50080245E-01 0.61363197E+03</pdfrwt>
<totfact> 0.37297535E+02</totfact>
</mgrwt>
</event>
<event>
 4    1  0.4047984E-006  0.6342537E+03  0.7818608E-02  0.9836783E-01
         -1   -1    0    0    0  501 -0.00000000000E+00  0.00000000000E+00  0.10115452960E+03  0.10115452972E+03  0.50400000000E-02 0.  1.
          1   -1    0    0  501    0  0.00000000000E+00 -0.00000000000E+00 -0.99421578387E+03  0.99421578389E+03  0.50400000000E-02 0. -1.
   -5000001    1    1    2    0    0  0.11703150863E+03  0.12066896814E+03 -0.27545899908E+03  0.40820954675E+03  0.25000000000E+03 0.  0.
    5000001    1    1    2    0    0 -0.11703150863E+03 -0.12066896814E+03 -0.61760225519E+03  0.68716076686E+03  0.25000000000E+03 0.  0.
<mgrwt>
<rscale>  0 0.63425367E+03</rscale>
<asrwt>0</asrwt>
<pdfrwt beam="1">  1        1 0.15295627E+00 0.63425367E+03</pdfrwt>
<pdfrwt beam="2">  1       -1 0.15562236E-01 0.63425367E+03</pdfrwt>
<totfact> 0.48023307E+02</totfact>
</mgrwt>
</event>
<event>
 4    1  0.4047984E-006  0.6888269E+03  0.7818608E-02  0.9736533E-01
          1   -1    0    0  501    0  0.00000000000E+00  0.00000000000E+00  0.51939105245E+03  0.51939105248E+03  0.50400000000E-02 0.  1.
         -1   -1    0    0    0  501 -0.00000000000E+00 -0.00000000000E+00 -0.22838402018E+03  0.22838402024E+03  0.50400000000E-02 0. -1.
   -5000001    1    1    2    0    0 -0.22195339146E+03  0.19257143967E+02  0.58072577316E+02  0.33986257489E+03  0.25000000000E+03 0.  0.
    5000001    1    1    2    0    0  0.22195339146E+03 -0.19257143967E+02  0.23293445496E+03  0.40791249783E+03  0.25000000000E+03 0.  0.
<mgrwt>
<rscale>  0 0.68882688E+03</rscale>
<asrwt>0</asrwt>
<pdfrwt beam="1">  1        1 0.79906315E-01 0.68882688E+03</pdfrwt>
<pdfrwt beam="2">  1       -1 0.35136003E-01 0.68882688E+03</pdfrwt>
<totfact> 0.32787671E+02</totfact>
</mgrwt>
</event>
<event>
 4    1  0.4047984E-006  0.9766983E+03  0.7818608E-02  0.9334477E-01
          1   -1    0    0  501    0  0.00000000000E+00  0.00000000000E+00  0.14026382882E+04  0.14026382882E+04  0.50400000000E-02 0.  1.
         -1   -1    0    0    0  501 -0.00000000000E+00 -0.00000000000E+00 -0.17002594220E+03  0.17002594228E+03  0.50400000000E-02 0. -1.
   -5000001    1    1    2    0    0  0.55231073843E+02 -0.36666329424E+03  0.93221617162E+03  0.10339339599E+04  0.25000000000E+03 0.  0.
    5000001    1    1    2    0    0 -0.55231073843E+02  0.36666329424E+03  0.30039617441E+03  0.53873027060E+03  0.25000000000E+03 0.  0.
<mgrwt>
<rscale>  0 0.97669831E+03</rscale>
<asrwt>0</asrwt>
<pdfrwt beam="1">  1        1 0.21579049E+00 0.97669831E+03</pdfrwt>
<pdfrwt beam="2">  1       -1 0.26157839E-01 0.97669831E+03</pdfrwt>
<totfact> 0.99461957E+01</totfact>
</mgrwt>
</event>
<event>
 4    1  0.4047984E-006  0.6497156E+03  0.7818608E-02  0.9807313E-01
          1   -1    0    0  501    0  0.00000000000E+00  0.00000000000E+00  0.22899783324E+03  0.22899783329E+03  0.50400000000E-02 0. -1.
         -1   -1    0    0    0  501 -0.00000000000E+00 -0.00000000000E+00 -0.46084532784E+03  0.46084532786E+03  0.50400000000E-02 0.  1.
   -5000001    1    1    2    0    0  0.10915962968E+03  0.17520139837E+03 -0.13771514530E+03  0.35224539172E+03  0.25000000000E+03 0.  0.
    5000001    1    1    2    0    0 -0.10915962968E+03 -0.17520139837E+03 -0.94132349299E+02  0.33759776944E+03  0.25000000000E+03 0.  0.
<mgrwt>
<rscale>  0 0.64971557E+03</rscale>
<asrwt>0</asrwt>
<pdfrwt beam="1">  1        1 0.35230436E-01 0.64971557E+03</pdfrwt>
<pdfrwt beam="2">  1       -1 0.70899281E-01 0.64971557E+03</pdfrwt>
<totfact> 0.25432379E+02</totfact>
</mgrwt>
</event>
