<event>
 4    1  0.6782240E-004  0.4393473E+03  0.7818608E-02  0.1030947E+00
          2   -1    0    0  501    0  0.00000000000E+00  0.00000000000E+00  0.96125214589E+03  0.96125214589E+03  0.25500000000E-02 0.  1.
         -2   -1    0    0    0  501 -0.00000000000E+00 -0.00000000000E+00 -0.50201721671E+02  0.50201721736E+02  0.25500000000E-02 0. -1.
    5000001    1    1    2    0    0  0.12232722402E+03  0.11094176035E+03  0.73800380850E+03  0.76016488033E+03  0.77000000000E+02 0.  0.
   -5000001    1    1    2    0    0 -0.12232722402E+03 -0.11094176035E+03  0.17304661571E+03  0.25128898729E+03  0.77000000000E+02 0.  0.
<mgrwt>
<rscale>  0 0.43934730E+03</rscale>
<asrwt>0</asrwt>
<pdfrwt beam="1">  1        2 0.13732172E+00 0.43934730E+03</pdfrwt>
<pdfrwt beam="2">  1       -2 0.71716753E-02 0.43934730E+03</pdfrwt>
<totfact> 0.34666430E+03</totfact>
</mgrwt>
</event>
<event>
 4    1  0.6782240E-004  0.2069263E+03  0.7818608E-02  0.1144023E+00
          2   -1    0    0  501    0  0.00000000000E+00  0.00000000000E+00  0.70968599781E+03  0.70968599782E+03  0.25500000000E-02 0.  1.
         -2   -1    0    0    0  501 -0.00000000000E+00 -0.00000000000E+00 -0.15083604092E+02  0.15083604307E+02  0.25500000000E-02 0. -1.
    5000001    1    1    2    0    0  0.42923146160E+01  0.68924162986E+02  0.33826319896E+03  0.35372299328E+03  0.77000000000E+02 0.  0.
   -5000001    1    1    2    0    0 -0.42923146160E+01 -0.68924162986E+02  0.35633919476E+03  0.37104660884E+03  0.77000000000E+02 0.  0.
<mgrwt>
<rscale>  0 0.20692629E+03</rscale>
<asrwt>0</asrwt>
<pdfrwt beam="1">  1        2 0.10138373E+00 0.20692629E+03</pdfrwt>
<pdfrwt beam="2">  1       -2 0.21548002E-02 0.20692629E+03</pdfrwt>
<totfact> 0.30444188E+04</totfact>
</mgrwt>
</event>
<event>
 4    1  0.6782240E-004  0.5022258E+03  0.7818608E-02  0.1013200E+00
         -2   -1    0    0    0  501 -0.00000000000E+00  0.00000000000E+00  0.69690695237E+02  0.69690695283E+02  0.25500000000E-02 0.  1.
          2   -1    0    0  501    0  0.00000000000E+00 -0.00000000000E+00 -0.90482234336E+03  0.90482234336E+03  0.25500000000E-02 0. -1.
    5000001    1    1    2    0    0  0.45995767150E+01 -0.22410822768E+03 -0.57854840525E+03  0.62521429209E+03  0.77000000000E+02 0.  0.
   -5000001    1    1    2    0    0 -0.45995767150E+01  0.22410822768E+03 -0.25658324287E+03  0.34929874655E+03  0.77000000000E+02 0.  0.
<mgrwt>
<rscale>  0 0.50222584E+03</rscale>
<asrwt>0</asrwt>
<pdfrwt beam="1">  1        2 0.12926033E+00 0.50222584E+03</pdfrwt>
<pdfrwt beam="2">  1       -2 0.99558142E-02 0.50222584E+03</pdfrwt>
<totfact> 0.22326094E+03</totfact>
</mgrwt>
</event>
<event>
 4    1  0.6782240E-004  0.2602745E+03  0.7818608E-02  0.1106978E+00
         -2   -1    0    0    0  501 -0.00000000000E+00  0.00000000000E+00  0.90803730408E+02  0.90803730444E+02  0.25500000000E-02 0. -1.
          2   -1    0    0  501    0  0.00000000000E+00 -0.00000000000E+00 -0.18650896240E+03  0.18650896242E+03  0.25500000000E-02 0.  1.
    5000001    1    1    2    0    0  0.92598614367E+02 -0.20714530533E+02 -0.95538619836E+02  0.15511358109E+03  0.77000000000E+02 0.  0.
   -5000001    1    1    2    0    0 -0.92598614367E+02  0.20714530533E+02 -0.16661215397E+00  0.12219911177E+03  0.77000000000E+02 0.  0.
<mgrwt>
<rscale>  0 0.26027454E+03</rscale>
<asrwt>0</asrwt>
<pdfrwt beam="1">  1        2 0.26644137E-01 0.26027454E+03</pdfrwt>
<pdfrwt beam="2">  1       -2 0.12971962E-01 0.26027454E+03</pdfrwt>
<totfact> 0.86071624E+03</totfact>
</mgrwt>
</event>
<event>
 4    1  0.6782240E-004  0.1843000E+03  0.7818608E-02  0.1163705E+00
          2   -1    0    0  501    0  0.00000000000E+00  0.00000000000E+00  0.18472365723E+03  0.18472365725E+03  0.25500000000E-02 0.  1.
         -2   -1    0    0    0  501 -0.00000000000E+00 -0.00000000000E+00 -0.45969337588E+02  0.45969337659E+02  0.25500000000E-02 0. -1.
    5000001    1    1    2    0    0 -0.37544032374E+02  0.29166937447E+02  0.47611547785E+02  0.10225519101E+03  0.77000000000E+02 0.  0.
   -5000001    1    1    2    0    0  0.37544032374E+02 -0.29166937447E+02  0.91142771861E+02  0.12843780390E+03  0.77000000000E+02 0.  0.
<mgrwt>
<rscale>  0 0.18430002E+03</rscale>
<asrwt>0</asrwt>
<pdfrwt beam="1">  1        2 0.26389094E-01 0.18430002E+03</pdfrwt>
<pdfrwt beam="2">  1       -2 0.65670483E-02 0.18430002E+03</pdfrwt>
<totfact> 0.24855606E+04</totfact>
</mgrwt>
</event>
<event>
 4    1  0.6782240E-004  0.3097330E+03  0.7818608E-02  0.1080474E+00
          2   -1    0    0  501    0  0.00000000000E+00  0.00000000000E+00  0.48564983922E+02  0.48564983989E+02  0.25500000000E-02 0.  1.
         -2   -1    0    0    0  501 -0.00000000000E+00 -0.00000000000E+00 -0.49384608838E+03  0.49384608838E+03  0.25500000000E-02 0. -1.
    5000001    1    1    2    0    0 -0.48768753452E+02  0.12519120763E+03 -0.21941260845E+03  0.26855562278E+03  0.77000000000E+02 0.  0.
   -5000001    1    1    2    0    0  0.48768753452E+02 -0.12519120763E+03 -0.22586849601E+03  0.27385544959E+03  0.77000000000E+02 0.  0.
<mgrwt>
<rscale>  0 0.30973296E+03</rscale>
<asrwt>0</asrwt>
<pdfrwt beam="1">  1        2 0.69378551E-02 0.30973296E+03</pdfrwt>
<pdfrwt beam="2">  1       -2 0.70549438E-01 0.30973296E+03</pdfrwt>
<totfact> 0.19215987E+03</totfact>
</mgrwt>
</event>
<event>
 4    1  0.6782240E-004  0.4069943E+03  0.7818608E-02  0.1041384E+00
         -2   -1    0    0    0  501 -0.00000000000E+00  0.00000000000E+00  0.12889409443E+02  0.12889409695E+02  0.25500000000E-02 0. -1.
          2   -1    0    0  501    0  0.00000000000E+00 -0.00000000000E+00 -0.32127990943E+04  0.32127990943E+04  0.25500000000E-02 0.  1.
    5000001    1    1    2    0    0  0.15012090880E+03  0.77120939394E+02 -0.93693584822E+03  0.95512392402E+03  0.77000000000E+02 0.  0.
   -5000001    1    1    2    0    0 -0.15012090880E+03 -0.77120939394E+02 -0.22629738367E+04  0.22705645800E+04  0.77000000000E+02 0.  0.
<mgrwt>
<rscale>  0 0.40699427E+03</rscale>
<asrwt>0</asrwt>
<pdfrwt beam="1">  1        2 0.45897079E+00 0.40699427E+03</pdfrwt>
<pdfrwt beam="2">  1       -2 0.18413463E-02 0.40699427E+03</pdfrwt>
<totfact> 0.18326092E+03</totfact>
</mgrwt>
</event>
<event>
 4    1  0.6782240E-004  0.2056786E+03  0.7818608E-02  0.1145035E+00
         -2   -1    0    0    0  501 -0.00000000000E+00  0.00000000000E+00  0.15073566182E+02  0.15073566397E+02  0.25500000000E-02 0. -1.
          2   -1    0    0  501    0  0.00000000000E+00 -0.00000000000E+00 -0.70162015301E+03  0.70162015302E+03  0.25500000000E-02 0.  1.
    5000001    1    1    2    0    0 -0.12647047252E+02 -0.58940224216E+02 -0.23236766438E+03  0.25210638485E+03  0.77000000000E+02 0.  0.
   -5000001    1    1    2    0    0  0.12647047252E+02  0.58940224216E+02 -0.45417892246E+03  0.46458733456E+03  0.77000000000E+02 0.  0.
<mgrwt>
<rscale>  0 0.20567856E+03</rscale>
<asrwt>0</asrwt>
<pdfrwt beam="1">  1        2 0.10023143E+00 0.20567856E+03</pdfrwt>
<pdfrwt beam="2">  1       -2 0.21533671E-02 0.20567856E+03</pdfrwt>
<totfact> 0.30874035E+04</totfact>
</mgrwt>
</event>
<event>
 4    1  0.6782240E-004  0.2269725E+03  0.7818608E-02  0.1128789E+00
         -2   -1    0    0    0  501 -0.00000000000E+00  0.00000000000E+00  0.32803538895E+01  0.32803548806E+01  0.25500000000E-02 0. -1.
          2   -1    0    0  501    0  0.00000000000E+00 -0.00000000000E+00 -0.39261378895E+04  0.39261378895E+04  0.25500000000E-02 0.  1.
    5000001    1    1    2    0    0 -0.43332426938E+02 -0.64671723387E+02 -0.24779025816E+04  0.24803206113E+04  0.77000000000E+02 0.  0.
   -5000001    1    1    2    0    0  0.43332426938E+02  0.64671723387E+02 -0.14449549540E+04  0.14490976331E+04  0.77000000000E+02 0.  0.
<mgrwt>
<rscale>  0 0.22697245E+03</rscale>
<asrwt>0</asrwt>
<pdfrwt beam="1">  1        2 0.56087383E+00 0.22697245E+03</pdfrwt>
<pdfrwt beam="2">  1       -2 0.46862457E-03 0.22697245E+03</pdfrwt>
<totfact> 0.51792983E+03</totfact>
</mgrwt>
</event>
<event>
 4    1  0.6782240E-004  0.2541023E+03  0.7818608E-02  0.1110739E+00
          2   -1    0    0  501    0  0.00000000000E+00  0.00000000000E+00  0.97840516682E+03  0.97840516682E+03  0.25500000000E-02 0.  1.
         -2   -1    0    0    0  501 -0.00000000000E+00 -0.00000000000E+00 -0.16498268989E+02  0.16498269186E+02  0.25500000000E-02 0. -1.
    5000001    1    1    2    0    0  0.30197656782E+02  0.94946839205E+02  0.41471649688E+03  0.43341155214E+03  0.77000000000E+02 0.  0.
   -5000001    1    1    2    0    0 -0.30197656782E+02 -0.94946839205E+02  0.54719040095E+03  0.56149188387E+03  0.77000000000E+02 0.  0.
<mgrwt>
<rscale>  0 0.25410228E+03</rscale>
<asrwt>0</asrwt>
<pdfrwt beam="1">  1        2 0.13977217E+00 0.25410228E+03</pdfrwt>
<pdfrwt beam="2">  1       -2 0.23568955E-02 0.25410228E+03</pdfrwt>
<totfact> 0.18060412E+04</totfact>
</mgrwt>
</event>
<event>
 4    1  0.6782240E-004  0.2889187E+03  0.7818608E-02  0.1090915E+00
          2   -1    0    0  501    0  0.00000000000E+00  0.00000000000E+00  0.91853386577E+03  0.91853386578E+03  0.25500000000E-02 0.  1.
         -2   -1    0    0    0  501 -0.00000000000E+00 -0.00000000000E+00 -0.22719361568E+02  0.22719361711E+02  0.25500000000E-02 0. -1.
    5000001    1    1    2    0    0 -0.65052568007E+02  0.55497123044E+02  0.16337686476E+03  0.19983184733E+03  0.77000000000E+02 0.  0.
   -5000001    1    1    2    0    0  0.65052568007E+02 -0.55497123044E+02  0.73243763945E+03  0.74142138015E+03  0.77000000000E+02 0.  0.
<mgrwt>
<rscale>  0 0.28891869E+03</rscale>
<asrwt>0</asrwt>
<pdfrwt beam="1">  1        2 0.13121916E+00 0.28891869E+03</pdfrwt>
<pdfrwt beam="2">  1       -2 0.32456222E-02 0.28891869E+03</pdfrwt>
<totfact> 0.12276976E+04</totfact>
</mgrwt>
</event>
<event>
 4    1  0.6782240E-004  0.2743598E+03  0.7818608E-02  0.1098810E+00
         -2   -1    0    0    0  501 -0.00000000000E+00  0.00000000000E+00  0.67325616168E+01  0.67325620997E+01  0.25500000000E-02 0. -1.
          2   -1    0    0  501    0  0.00000000000E+00 -0.00000000000E+00 -0.27951216118E+04  0.27951216118E+04  0.25500000000E-02 0.  1.
    5000001    1    1    2    0    0  0.97347050532E+02 -0.33100371711E+02 -0.18857936498E+04  0.18901636894E+04  0.77000000000E+02 0.  0.
   -5000001    1    1    2    0    0 -0.97347050532E+02  0.33100371711E+02 -0.90259540037E+03  0.91169048455E+03  0.77000000000E+02 0.  0.
<mgrwt>
<rscale>  0 0.27435983E+03</rscale>
<asrwt>0</asrwt>
<pdfrwt beam="1">  1        2 0.39930235E+00 0.27435983E+03</pdfrwt>
<pdfrwt beam="2">  1       -2 0.96179634E-03 0.27435983E+03</pdfrwt>
<totfact> 0.80163307E+03</totfact>
</mgrwt>
</event>
<event>
 4    1  0.6782240E-004  0.5379490E+03  0.7818608E-02  0.1004322E+00
         -2   -1    0    0    0  501 -0.00000000000E+00  0.00000000000E+00  0.73616782622E+03  0.73616782622E+03  0.25500000000E-02 0.  1.
          2   -1    0    0  501    0  0.00000000000E+00 -0.00000000000E+00 -0.98275518111E+02  0.98275518144E+02  0.25500000000E-02 0. -1.
    5000001    1    1    2    0    0 -0.10683124719E+03 -0.69130561999E+02  0.66657953419E+03  0.68297088179E+03  0.77000000000E+02 0.  0.
   -5000001    1    1    2    0    0  0.10683124719E+03  0.69130561999E+02 -0.28687226082E+02  0.15147246257E+03  0.77000000000E+02 0.  0.
<mgrwt>
<rscale>  0 0.53794897E+03</rscale>
<asrwt>0</asrwt>
<pdfrwt beam="1">  1        2 0.14039360E-01 0.53794897E+03</pdfrwt>
<pdfrwt beam="2">  1       -2 0.10516683E+00 0.53794897E+03</pdfrwt>
<totfact> 0.32214623E+02</totfact>
</mgrwt>
</event>
<event>
 4    1  0.6782240E-004  0.1721118E+03  0.7818608E-02  0.1175663E+00
         -2   -1    0    0    0  501 -0.00000000000E+00  0.00000000000E+00  0.16281866081E+02  0.16281866281E+02  0.25500000000E-02 0. -1.
          2   -1    0    0  501    0  0.00000000000E+00 -0.00000000000E+00 -0.45483858028E+03  0.45483858028E+03  0.25500000000E-02 0.  1.
    5000001    1    1    2    0    0 -0.10767818761E+02 -0.35509695453E+02 -0.24661519648E+03  0.26100754688E+03  0.77000000000E+02 0.  0.
   -5000001    1    1    2    0    0  0.10767818761E+02  0.35509695453E+02 -0.19194151771E+03  0.21011289968E+03  0.77000000000E+02 0.  0.
<mgrwt>
<rscale>  0 0.17211183E+03</rscale>
<asrwt>0</asrwt>
<pdfrwt beam="1">  1        2 0.64976932E-01 0.17211183E+03</pdfrwt>
<pdfrwt beam="2">  1       -2 0.23259812E-02 0.17211183E+03</pdfrwt>
<totfact> 0.44157446E+04</totfact>
</mgrwt>
</event>
<event>
 4    1  0.6782240E-004  0.1965216E+03  0.7818608E-02  0.1152707E+00
         -2   -1    0    0    0  501 -0.00000000000E+00  0.00000000000E+00  0.52256653228E+01  0.52256659449E+01  0.25500000000E-02 0.  1.
          2   -1    0    0  501    0  0.00000000000E+00 -0.00000000000E+00 -0.18476463968E+04  0.18476463968E+04  0.25500000000E-02 0. -1.
    5000001    1    1    2    0    0  0.60391690629E+02 -0.40435003286E+01 -0.99585286087E+03  0.10006574972E+04  0.77000000000E+02 0.  0.
   -5000001    1    1    2    0    0 -0.60391690629E+02  0.40435003286E+01 -0.84656787060E+03  0.85221456554E+03  0.77000000000E+02 0.  0.
<mgrwt>
<rscale>  0 0.19652157E+03</rscale>
<asrwt>0</asrwt>
<pdfrwt beam="1">  1        2 0.26394907E+00 0.19652157E+03</pdfrwt>
<pdfrwt beam="2">  1       -2 0.74652485E-03 0.19652157E+03</pdfrwt>
<totfact> 0.33550495E+04</totfact>
</mgrwt>
</event>
<event>
 4    1  0.6782240E-004  0.2082510E+03  0.7818608E-02  0.1142959E+00
          2   -1    0    0  501    0  0.00000000000E+00  0.00000000000E+00  0.99087654732E+03  0.99087654732E+03  0.25500000000E-02 0.  1.
         -2   -1    0    0    0  501 -0.00000000000E+00 -0.00000000000E+00 -0.10941949272E+02  0.10941949569E+02  0.25500000000E-02 0. -1.
    5000001    1    1    2    0    0 -0.61068469187E+02 -0.33155067187E+02  0.44574490552E+03  0.45765285666E+03  0.77000000000E+02 0.  0.
   -5000001    1    1    2    0    0  0.61068469187E+02  0.33155067187E+02  0.53418969253E+03  0.54416564023E+03  0.77000000000E+02 0.  0.
<mgrwt>
<rscale>  0 0.20825101E+03</rscale>
<asrwt>0</asrwt>
<pdfrwt beam="1">  1        2 0.14155376E+00 0.20825101E+03</pdfrwt>
<pdfrwt beam="2">  1       -2 0.15631360E-02 0.20825101E+03</pdfrwt>
<totfact> 0.32034882E+04</totfact>
</mgrwt>
</event>
<event>
 4    1  0.6782240E-004  0.1563199E+03  0.7818608E-02  0.1192915E+00
          2   -1    0    0  501    0  0.00000000000E+00  0.00000000000E+00  0.35409185177E+03  0.35409185178E+03  0.25500000000E-02 0.  1.
         -2   -1    0    0    0  501 -0.00000000000E+00 -0.00000000000E+00 -0.17252520386E+02  0.17252520574E+02  0.25500000000E-02 0. -1.
    5000001    1    1    2    0    0  0.10079558592E+02 -0.40921265899E+01  0.18706939473E+03  0.20258899636E+03  0.77000000000E+02 0.  0.
   -5000001    1    1    2    0    0 -0.10079558592E+02  0.40921265899E+01  0.14976993666E+03  0.16875537600E+03  0.77000000000E+02 0.  0.
<mgrwt>
<rscale>  0 0.15631989E+03</rscale>
<asrwt>0</asrwt>
<pdfrwt beam="1">  1        2 0.50584548E-01 0.15631989E+03</pdfrwt>
<pdfrwt beam="2">  1       -2 0.24646459E-02 0.15631989E+03</pdfrwt>
<totfact> 0.52521700E+04</totfact>
</mgrwt>
</event>
<event>
 4    1  0.6782240E-004  0.2836866E+03  0.7818608E-02  0.1093692E+00
         -2   -1    0    0    0  501 -0.00000000000E+00  0.00000000000E+00  0.95103324141E+01  0.95103327559E+01  0.25500000000E-02 0. -1.
          2   -1    0    0  501    0  0.00000000000E+00 -0.00000000000E+00 -0.21155427674E+04  0.21155427674E+04  0.25500000000E-02 0.  1.
    5000001    1    1    2    0    0 -0.20316093793E+02 -0.95391549863E+02 -0.15653718723E+04  0.15702962746E+04  0.77000000000E+02 0.  0.
   -5000001    1    1    2    0    0  0.20316093793E+02  0.95391549863E+02 -0.54066056267E+03  0.55475682554E+03  0.77000000000E+02 0.  0.
<mgrwt>
<rscale>  0 0.28368655E+03</rscale>
<asrwt>0</asrwt>
<pdfrwt beam="1">  1        2 0.30222010E+00 0.28368655E+03</pdfrwt>
<pdfrwt beam="2">  1       -2 0.13586203E-02 0.28368655E+03</pdfrwt>
<totfact> 0.10585262E+04</totfact>
</mgrwt>
</event>
<event>
 4    1  0.6782240E-004  0.2891800E+03  0.7818608E-02  0.1090778E+00
         -2   -1    0    0    0  501 -0.00000000000E+00  0.00000000000E+00  0.15028911101E+03  0.15028911103E+03  0.25500000000E-02 0. -1.
          2   -1    0    0  501    0  0.00000000000E+00 -0.00000000000E+00 -0.13910703812E+03  0.13910703815E+03  0.25500000000E-02 0.  1.
    5000001    1    1    2    0    0  0.11784919786E+03 -0.57492461118E+01 -0.26926104841E+02  0.14344163408E+03  0.77000000000E+02 0.  0.
   -5000001    1    1    2    0    0 -0.11784919786E+03  0.57492461118E+01  0.38108177726E+02  0.14595451509E+03  0.77000000000E+02 0.  0.
<mgrwt>
<rscale>  0 0.28918003E+03</rscale>
<asrwt>0</asrwt>
<pdfrwt beam="1">  1        2 0.19872434E-01 0.28918003E+03</pdfrwt>
<pdfrwt beam="2">  1       -2 0.21469873E-01 0.28918003E+03</pdfrwt>
<totfact> 0.51760894E+03</totfact>
</mgrwt>
</event>
<event>
 4    1  0.6782240E-004  0.2653994E+03  0.7818608E-02  0.1103942E+00
          2   -1    0    0  501    0  0.00000000000E+00  0.00000000000E+00  0.83787936912E+03  0.83787936912E+03  0.25500000000E-02 0.  1.
         -2   -1    0    0    0  501 -0.00000000000E+00 -0.00000000000E+00 -0.21016405633E+02  0.21016405788E+02  0.25500000000E-02 0. -1.
    5000001    1    1    2    0    0 -0.91053861306E+02  0.57197552984E+02  0.44356323554E+03  0.46286035653E+03  0.77000000000E+02 0.  0.
   -5000001    1    1    2    0    0  0.91053861306E+02 -0.57197552984E+02  0.37329972795E+03  0.39603541838E+03  0.77000000000E+02 0.  0.
<mgrwt>
<rscale>  0 0.26539942E+03</rscale>
<asrwt>0</asrwt>
<pdfrwt beam="1">  1        2 0.11969705E+00 0.26539942E+03</pdfrwt>
<pdfrwt beam="2">  1       -2 0.30023437E-02 0.26539942E+03</pdfrwt>
<totfact> 0.15463227E+04</totfact>
</mgrwt>
</event>
<event>
 4    1  0.6782240E-004  0.2369076E+03  0.7818608E-02  0.1121870E+00
         -2   -1    0    0    0  501 -0.00000000000E+00  0.00000000000E+00  0.35781106183E+01  0.35781115269E+01  0.25500000000E-02 0. -1.
          2   -1    0    0  501    0  0.00000000000E+00 -0.00000000000E+00 -0.39214263231E+04  0.39214263231E+04  0.25500000000E-02 0.  1.
    5000001    1    1    2    0    0  0.83703885431E+02 -0.17423490171E+02 -0.14925567887E+04  0.14969851990E+04  0.77000000000E+02 0.  0.
   -5000001    1    1    2    0    0 -0.83703885431E+02  0.17423490171E+02 -0.24252914238E+04  0.24280192356E+04  0.77000000000E+02 0.  0.
<mgrwt>
<rscale>  0 0.23690757E+03</rscale>
<asrwt>0</asrwt>
<pdfrwt beam="1">  1        2 0.56020101E+00 0.23690757E+03</pdfrwt>
<pdfrwt beam="2">  1       -2 0.51116124E-03 0.23690757E+03</pdfrwt>
<totfact> 0.45997459E+03</totfact>
</mgrwt>
</event>
<event>
 4    1  0.6782240E-004  0.1999354E+03  0.7818608E-02  0.1149794E+00
         -2   -1    0    0    0  501 -0.00000000000E+00  0.00000000000E+00  0.33357297552E+02  0.33357297649E+02  0.25500000000E-02 0. -1.
          2   -1    0    0  501    0  0.00000000000E+00 -0.00000000000E+00 -0.29959084358E+03  0.29959084359E+03  0.25500000000E-02 0.  1.
    5000001    1    1    2    0    0 -0.44057881690E+02  0.10126022036E+01 -0.20983568333E+03  0.22782040361E+03  0.77000000000E+02 0.  0.
   -5000001    1    1    2    0    0  0.44057881690E+02 -0.10126022036E+01 -0.56397862696E+02  0.10512773763E+03  0.77000000000E+02 0.  0.
<mgrwt>
<rscale>  0 0.19993540E+03</rscale>
<asrwt>0</asrwt>
<pdfrwt beam="1">  1        2 0.42798690E-01 0.19993540E+03</pdfrwt>
<pdfrwt beam="2">  1       -2 0.47653284E-02 0.19993540E+03</pdfrwt>
<totfact> 0.24130043E+04</totfact>
</mgrwt>
</event>
<event>
 4    1  0.6782240E-004  0.3592006E+03  0.7818608E-02  0.1058901E+00
          2   -1    0    0  501    0  0.00000000000E+00  0.00000000000E+00  0.15283876948E+04  0.15283876948E+04  0.25500000000E-02 0. -1.
         -2   -1    0    0    0  501 -0.00000000000E+00 -0.00000000000E+00 -0.21104768485E+02  0.21104768639E+02  0.25500000000E-02 0.  1.
    5000001    1    1    2    0    0 -0.96737836048E+01  0.15082279198E+03  0.10083402102E+04  0.10225067610E+04  0.77000000000E+02 0.  0.
   -5000001    1    1    2    0    0  0.96737836048E+01 -0.15082279198E+03  0.49894271606E+03  0.52698570245E+03  0.77000000000E+02 0.  0.
<mgrwt>
<rscale>  0 0.35920060E+03</rscale>
<asrwt>0</asrwt>
<pdfrwt beam="1">  1        2 0.21834109E+00 0.35920060E+03</pdfrwt>
<pdfrwt beam="2">  1       -2 0.30149670E-02 0.35920060E+03</pdfrwt>
<totfact> 0.63694013E+03</totfact>
</mgrwt>
</event>
<event>
 4    1  0.6782240E-004  0.2445066E+03  0.7818608E-02  0.1116827E+00
         -2   -1    0    0    0  501 -0.00000000000E+00  0.00000000000E+00  0.26303313418E+02  0.26303313541E+02  0.25500000000E-02 0. -1.
          2   -1    0    0  501    0  0.00000000000E+00 -0.00000000000E+00 -0.56821228594E+03  0.56821228595E+03  0.25500000000E-02 0.  1.
    5000001    1    1    2    0    0  0.60313354074E+02 -0.69714205569E+02 -0.32635273487E+03  0.34775404914E+03  0.77000000000E+02 0.  0.
   -5000001    1    1    2    0    0 -0.60313354074E+02  0.69714205569E+02 -0.21555623765E+03  0.24676155035E+03  0.77000000000E+02 0.  0.
<mgrwt>
<rscale>  0 0.24450657E+03</rscale>
<asrwt>0</asrwt>
<pdfrwt beam="1">  1        2 0.81173176E-01 0.24450657E+03</pdfrwt>
<pdfrwt beam="2">  1       -2 0.37576166E-02 0.24450657E+03</pdfrwt>
<totfact> 0.17448069E+04</totfact>
</mgrwt>
</event>
<event>
 4    1  0.6782240E-004  0.2710897E+03  0.7818608E-02  0.1100658E+00
         -2   -1    0    0    0  501 -0.00000000000E+00  0.00000000000E+00  0.32260341024E+03  0.32260341025E+03  0.25500000000E-02 0. -1.
          2   -1    0    0  501    0  0.00000000000E+00 -0.00000000000E+00 -0.56950443901E+02  0.56950443959E+02  0.25500000000E-02 0.  1.
    5000001    1    1    2    0    0  0.76938937934E+02  0.80065695838E+02  0.14772898726E+03  0.20020731629E+03  0.77000000000E+02 0.  0.
   -5000001    1    1    2    0    0 -0.76938937934E+02 -0.80065695838E+02  0.11792397908E+03  0.17934653792E+03  0.77000000000E+02 0.  0.
<mgrwt>
<rscale>  0 0.27108971E+03</rscale>
<asrwt>0</asrwt>
<pdfrwt beam="1">  1        2 0.81357773E-02 0.27108971E+03</pdfrwt>
<pdfrwt beam="2">  1       -2 0.46086204E-01 0.27108971E+03</pdfrwt>
<totfact> 0.37414324E+03</totfact>
</mgrwt>
</event>
<event>
 4    1  0.6782240E-004  0.2333347E+03  0.7818608E-02  0.1124314E+00
          2   -1    0    0  501    0  0.00000000000E+00  0.00000000000E+00  0.22988644827E+04  0.22988644827E+04  0.25500000000E-02 0.  1.
         -2   -1    0    0    0  501 -0.00000000000E+00 -0.00000000000E+00 -0.59208651320E+01  0.59208656811E+01  0.25500000000E-02 0. -1.
    5000001    1    1    2    0    0  0.98060718815E+01  0.73001144220E+02  0.16157294149E+04  0.16192392869E+04  0.77000000000E+02 0.  0.
   -5000001    1    1    2    0    0 -0.98060718815E+01 -0.73001144220E+02  0.67721420264E+03  0.68554606144E+03  0.77000000000E+02 0.  0.
<mgrwt>
<rscale>  0 0.23333467E+03</rscale>
<asrwt>0</asrwt>
<pdfrwt beam="1">  1        2 0.32840859E+00 0.23333467E+03</pdfrwt>
<pdfrwt beam="2">  1       -2 0.84583950E-03 0.23333467E+03</pdfrwt>
<totfact> 0.17070816E+04</totfact>
</mgrwt>
</event>
<event>
 4    1  0.6782240E-004  0.4047858E+03  0.7818608E-02  0.1042135E+00
         -2   -1    0    0    0  501 -0.00000000000E+00  0.00000000000E+00  0.12285724998E+03  0.12285725000E+03  0.25500000000E-02 0. -1.
          2   -1    0    0  501    0  0.00000000000E+00 -0.00000000000E+00 -0.33341855236E+03  0.33341855237E+03  0.25500000000E-02 0.  1.
    5000001    1    1    2    0    0 -0.13195027054E+03 -0.17103219230E+02  0.43110367991E+02  0.15965869169E+03  0.77000000000E+02 0.  0.
   -5000001    1    1    2    0    0  0.13195027054E+03  0.17103219230E+02 -0.25367167037E+03  0.29661711069E+03  0.77000000000E+02 0.  0.
<mgrwt>
<rscale>  0 0.40478580E+03</rscale>
<asrwt>0</asrwt>
<pdfrwt beam="1">  1        2 0.47631221E-01 0.40478580E+03</pdfrwt>
<pdfrwt beam="2">  1       -2 0.17551036E-01 0.40478580E+03</pdfrwt>
<totfact> 0.27972211E+03</totfact>
</mgrwt>
</event>
<event>
 4    1  0.6782240E-004  0.1965959E+03  0.7818608E-02  0.1152643E+00
         -2   -1    0    0    0  501 -0.00000000000E+00  0.00000000000E+00  0.18082262566E+02  0.18082262746E+02  0.25500000000E-02 0. -1.
          2   -1    0    0  501    0  0.00000000000E+00 -0.00000000000E+00 -0.53436266520E+03  0.53436266520E+03  0.25500000000E-02 0.  1.
    5000001    1    1    2    0    0  0.51309299495E+02  0.23180055295E+02 -0.32484727310E+03  0.33856271210E+03  0.77000000000E+02 0.  0.
   -5000001    1    1    2    0    0 -0.51309299495E+02 -0.23180055295E+02 -0.19143312953E+03  0.21388221585E+03  0.77000000000E+02 0.  0.
<mgrwt>
<rscale>  0 0.19659589E+03</rscale>
<asrwt>0</asrwt>
<pdfrwt beam="1">  1        2 0.76337513E-01 0.19659589E+03</pdfrwt>
<pdfrwt beam="2">  1       -2 0.25831807E-02 0.19659589E+03</pdfrwt>
<totfact> 0.32116819E+04</totfact>
</mgrwt>
</event>
<event>
 4    1  0.6782240E-004  0.2134062E+03  0.7818608E-02  0.1138897E+00
         -2   -1    0    0    0  501 -0.00000000000E+00  0.00000000000E+00  0.78740808907E+02  0.78740808948E+02  0.25500000000E-02 0. -1.
          2   -1    0    0  501    0  0.00000000000E+00 -0.00000000000E+00 -0.14459527848E+03  0.14459527851E+03  0.25500000000E-02 0.  1.
    5000001    1    1    2    0    0  0.64681764777E+02 -0.31546162963E+02 -0.15488816337E+02  0.10652602745E+03  0.77000000000E+02 0.  0.
   -5000001    1    1    2    0    0 -0.64681764777E+02  0.31546162963E+02 -0.50365653240E+02  0.11681006001E+03  0.77000000000E+02 0.  0.
<mgrwt>
<rscale>  0 0.21340618E+03</rscale>
<asrwt>0</asrwt>
<pdfrwt beam="1">  1        2 0.20656468E-01 0.21340618E+03</pdfrwt>
<pdfrwt beam="2">  1       -2 0.11248687E-01 0.21340618E+03</pdfrwt>
<totfact> 0.14251490E+04</totfact>
</mgrwt>
</event>
<event>
 4    1  0.6782240E-004  0.3883135E+03  0.7818608E-02  0.1047903E+00
         -2   -1    0    0    0  501 -0.00000000000E+00  0.00000000000E+00  0.15310982322E+02  0.15310982534E+02  0.25500000000E-02 0. -1.
          2   -1    0    0  501    0  0.00000000000E+00 -0.00000000000E+00 -0.24620785721E+04  0.24620785721E+04  0.25500000000E-02 0.  1.
    5000001    1    1    2    0    0 -0.12843700192E+03 -0.10928065655E+03 -0.85525278483E+03  0.87511407903E+03  0.77000000000E+02 0.  0.
   -5000001    1    1    2    0    0  0.12843700192E+03  0.10928065655E+03 -0.15915148049E+04  0.16022754756E+04  0.77000000000E+02 0.  0.
<mgrwt>
<rscale>  0 0.38831349E+03</rscale>
<asrwt>0</asrwt>
<pdfrwt beam="1">  1        2 0.35172526E+00 0.38831349E+03</pdfrwt>
<pdfrwt beam="2">  1       -2 0.21872848E-02 0.38831349E+03</pdfrwt>
<totfact> 0.35296865E+03</totfact>
</mgrwt>
</event>
<event>
 4    1  0.6782240E-004  0.4768171E+03  0.7818608E-02  0.1020014E+00
          2   -1    0    0  501    0  0.00000000000E+00  0.00000000000E+00  0.57661044136E+03  0.57661044137E+03  0.25500000000E-02 0.  1.
         -2   -1    0    0    0  501 -0.00000000000E+00 -0.00000000000E+00 -0.98573701317E+02  0.98573701350E+02  0.25500000000E-02 0. -1.
    5000001    1    1    2    0    0 -0.18755284638E+03  0.12500814131E+03  0.25363293004E+03  0.34793931766E+03  0.77000000000E+02 0.  0.
   -5000001    1    1    2    0    0  0.18755284638E+03 -0.12500814131E+03  0.22440381001E+03  0.32724482505E+03  0.77000000000E+02 0.  0.
<mgrwt>
<rscale>  0 0.47681705E+03</rscale>
<asrwt>0</asrwt>
<pdfrwt beam="1">  1        2 0.82372915E-01 0.47681705E+03</pdfrwt>
<pdfrwt beam="2">  1       -2 0.14081958E-01 0.47681705E+03</pdfrwt>
<totfact> 0.22044173E+03</totfact>
</mgrwt>
</event>
<event>
 4    1  0.6782240E-004  0.2554680E+03  0.7818608E-02  0.1109897E+00
          2   -1    0    0  501    0  0.00000000000E+00  0.00000000000E+00  0.23080318817E+03  0.23080318818E+03  0.25500000000E-02 0.  1.
         -2   -1    0    0    0  501 -0.00000000000E+00 -0.00000000000E+00 -0.70692160630E+02  0.70692160676E+02  0.25500000000E-02 0. -1.
    5000001    1    1    2    0    0  0.54700120140E+02  0.77771330261E+02  0.36749704522E+02  0.12774984828E+03  0.77000000000E+02 0.  0.
   -5000001    1    1    2    0    0 -0.54700120140E+02 -0.77771330261E+02  0.12336132302E+03  0.17374550058E+03  0.77000000000E+02 0.  0.
<mgrwt>
<rscale>  0 0.25546801E+03</rscale>
<asrwt>0</asrwt>
<pdfrwt beam="1">  1        2 0.32971884E-01 0.25546801E+03</pdfrwt>
<pdfrwt beam="2">  1       -2 0.10098880E-01 0.25546801E+03</pdfrwt>
<totfact> 0.10175795E+04</totfact>
</mgrwt>
</event>
<event>
 4    1  0.6782240E-004  0.4681772E+03  0.7818608E-02  0.1022436E+00
          2   -1    0    0  501    0  0.00000000000E+00  0.00000000000E+00  0.36774898348E+03  0.36774898349E+03  0.25500000000E-02 0.  1.
         -2   -1    0    0    0  501 -0.00000000000E+00 -0.00000000000E+00 -0.14900779577E+03  0.14900779580E+03  0.25500000000E-02 0. -1.
    5000001    1    1    2    0    0 -0.28860259779E+02 -0.20657233709E+03  0.28536072542E+02  0.22416144289E+03  0.77000000000E+02 0.  0.
   -5000001    1    1    2    0    0  0.28860259779E+02  0.20657233709E+03  0.19020511516E+03  0.29259533639E+03  0.77000000000E+02 0.  0.
<mgrwt>
<rscale>  0 0.46817717E+03</rscale>
<asrwt>0</asrwt>
<pdfrwt beam="1">  1        2 0.52535568E-01 0.46817717E+03</pdfrwt>
<pdfrwt beam="2">  1       -2 0.21286828E-01 0.46817717E+03</pdfrwt>
<totfact> 0.18054285E+03</totfact>
</mgrwt>
</event>
<event>
 4    1  0.6782240E-004  0.2802485E+03  0.7818608E-02  0.1095553E+00
         -2   -1    0    0    0  501 -0.00000000000E+00  0.00000000000E+00  0.21042855615E+02  0.21042855769E+02  0.25500000000E-02 0. -1.
          2   -1    0    0  501    0  0.00000000000E+00 -0.00000000000E+00 -0.93308659846E+03  0.93308659847E+03  0.25500000000E-02 0.  1.
    5000001    1    1    2    0    0 -0.29402841889E+02  0.85664936308E+02 -0.70857676433E+03  0.71847967220E+03  0.77000000000E+02 0.  0.
   -5000001    1    1    2    0    0  0.29402841889E+02 -0.85664936308E+02 -0.20346697852E+03  0.23564978204E+03  0.77000000000E+02 0.  0.
<mgrwt>
<rscale>  0 0.28024851E+03</rscale>
<asrwt>0</asrwt>
<pdfrwt beam="1">  1        2 0.13329806E+00 0.28024851E+03</pdfrwt>
<pdfrwt beam="2">  1       -2 0.30061228E-02 0.28024851E+03</pdfrwt>
<totfact> 0.13468376E+04</totfact>
</mgrwt>
</event>
<event>
 4    1  0.6782240E-004  0.2163814E+03  0.7818608E-02  0.1136610E+00
          2   -1    0    0  501    0  0.00000000000E+00  0.00000000000E+00  0.40381419290E+03  0.40381419291E+03  0.25500000000E-02 0.  1.
         -2   -1    0    0    0  501 -0.00000000000E+00 -0.00000000000E+00 -0.28986677164E+02  0.28986677277E+02  0.25500000000E-02 0. -1.
    5000001    1    1    2    0    0 -0.94056805280E+01  0.73697842773E+02  0.21944111096E+03  0.24413774807E+03  0.77000000000E+02 0.  0.
   -5000001    1    1    2    0    0  0.94056805280E+01 -0.73697842773E+02  0.15538640478E+03  0.18866312212E+03  0.77000000000E+02 0.  0.
<mgrwt>
<rscale>  0 0.21638144E+03</rscale>
<asrwt>0</asrwt>
<pdfrwt beam="1">  1        2 0.57687738E-01 0.21638144E+03</pdfrwt>
<pdfrwt beam="2">  1       -2 0.41409542E-02 0.21638144E+03</pdfrwt>
<totfact> 0.21773155E+04</totfact>
</mgrwt>
</event>
<event>
 4    1  0.6782240E-004  0.2522640E+03  0.7818608E-02  0.1111882E+00
          2   -1    0    0  501    0  0.00000000000E+00  0.00000000000E+00  0.28773088364E+04  0.28773088364E+04  0.25500000000E-02 0.  1.
         -2   -1    0    0    0  501 -0.00000000000E+00 -0.00000000000E+00 -0.55292230851E+01  0.55292236731E+01  0.25500000000E-02 0. -1.
    5000001    1    1    2    0    0  0.69492680866E+02 -0.70419295384E+02  0.15943103942E+04  0.15992319228E+04  0.77000000000E+02 0.  0.
   -5000001    1    1    2    0    0 -0.69492680866E+02  0.70419295384E+02  0.12774692191E+04  0.12836061373E+04  0.77000000000E+02 0.  0.
<mgrwt>
<rscale>  0 0.25226401E+03</rscale>
<asrwt>0</asrwt>
<pdfrwt beam="1">  1        2 0.41104311E+00 0.25226401E+03</pdfrwt>
<pdfrwt beam="2">  1       -2 0.78989098E-03 0.25226401E+03</pdfrwt>
<totfact> 0.96665415E+03</totfact>
</mgrwt>
</event>
<event>
 4    1  0.6782240E-004  0.2940450E+03  0.7818608E-02  0.1088256E+00
          2   -1    0    0  501    0  0.00000000000E+00  0.00000000000E+00  0.26046772488E+04  0.26046772488E+04  0.25500000000E-02 0.  1.
         -2   -1    0    0    0  501 -0.00000000000E+00 -0.00000000000E+00 -0.82987689838E+01  0.82987693756E+01  0.25500000000E-02 0. -1.
    5000001    1    1    2    0    0  0.89598282783E+02 -0.86064121134E+02  0.14391795164E+04  0.14465827200E+04  0.77000000000E+02 0.  0.
   -5000001    1    1    2    0    0 -0.89598282783E+02  0.86064121134E+02  0.11571989634E+04  0.11663932983E+04  0.77000000000E+02 0.  0.
<mgrwt>
<rscale>  0 0.29404500E+03</rscale>
<asrwt>0</asrwt>
<pdfrwt beam="1">  1        2 0.37209680E+00 0.29404500E+03</pdfrwt>
<pdfrwt beam="2">  1       -2 0.11855383E-02 0.29404500E+03</pdfrwt>
<totfact> 0.73941670E+03</totfact>
</mgrwt>
</event>
<event>
 4    1  0.6782240E-004  0.1841871E+03  0.7818608E-02  0.1163811E+00
         -2   -1    0    0    0  501 -0.00000000000E+00  0.00000000000E+00  0.23771652658E+01  0.23771666335E+01  0.25500000000E-02 0. -1.
          2   -1    0    0  501    0  0.00000000000E+00 -0.00000000000E+00 -0.35677856275E+04  0.35677856275E+04  0.25500000000E-02 0.  1.
    5000001    1    1    2    0    0  0.37778001429E+02  0.27641389952E+02 -0.14144232428E+04  0.14172908430E+04  0.77000000000E+02 0.  0.
   -5000001    1    1    2    0    0 -0.37778001429E+02 -0.27641389952E+02 -0.21509852194E+04  0.21528719512E+04  0.77000000000E+02 0.  0.
<mgrwt>
<rscale>  0 0.18418706E+03</rscale>
<asrwt>0</asrwt>
<pdfrwt beam="1">  1        2 0.50968023E+00 0.18418706E+03</pdfrwt>
<pdfrwt beam="2">  1       -2 0.33959742E-03 0.18418706E+03</pdfrwt>
<totfact> 0.13543332E+04</totfact>
</mgrwt>
</event>
<event>
 4    1  0.6782240E-004  0.1722344E+03  0.7818608E-02  0.1175538E+00
          2   -1    0    0  501    0  0.00000000000E+00  0.00000000000E+00  0.70200188778E+01  0.70200193410E+01  0.25500000000E-02 0.  1.
         -2   -1    0    0    0  501 -0.00000000000E+00 -0.00000000000E+00 -0.10564323753E+04  0.10564323753E+04  0.25500000000E-02 0. -1.
    5000001    1    1    2    0    0  0.29375458233E+02 -0.17395493769E+01 -0.37081102961E+03  0.37986282163E+03  0.77000000000E+02 0.  0.
   -5000001    1    1    2    0    0 -0.29375458233E+02  0.17395493769E+01 -0.67860132683E+03  0.68358957303E+03  0.77000000000E+02 0.  0.
<mgrwt>
<rscale>  0 0.17223444E+03</rscale>
<asrwt>0</asrwt>
<pdfrwt beam="1">  1        2 0.10028605E-02 0.17223444E+03</pdfrwt>
<pdfrwt beam="2">  1       -2 0.15091881E+00 0.17223444E+03</pdfrwt>
<totfact> 0.43360746E+03</totfact>
</mgrwt>
</event>
<event>
 4    1  0.6782240E-004  0.1866367E+03  0.7818608E-02  0.1161530E+00
         -2   -1    0    0    0  501 -0.00000000000E+00  0.00000000000E+00  0.11184790731E+02  0.11184791021E+02  0.25500000000E-02 0. -1.
          2   -1    0    0  501    0  0.00000000000E+00 -0.00000000000E+00 -0.77858574134E+03  0.77858574134E+03  0.25500000000E-02 0.  1.
    5000001    1    1    2    0    0  0.26505266174E+02  0.14140560403E+02 -0.20037757602E+03  0.21675483283E+03  0.77000000000E+02 0.  0.
   -5000001    1    1    2    0    0 -0.26505266174E+02 -0.14140560403E+02 -0.56702337459E+03  0.57301569954E+03  0.77000000000E+02 0.  0.
<mgrwt>
<rscale>  0 0.18663675E+03</rscale>
<asrwt>0</asrwt>
<pdfrwt beam="1">  1        2 0.11122650E+00 0.18663675E+03</pdfrwt>
<pdfrwt beam="2">  1       -2 0.15978278E-02 0.18663675E+03</pdfrwt>
<totfact> 0.41815858E+04</totfact>
</mgrwt>
</event>
<event>
 4    1  0.6782240E-004  0.3363530E+03  0.7818608E-02  0.1068360E+00
         -2   -1    0    0    0  501 -0.00000000000E+00  0.00000000000E+00  0.18931258081E+02  0.18931258253E+02  0.25500000000E-02 0. -1.
          2   -1    0    0  501    0  0.00000000000E+00 -0.00000000000E+00 -0.14940019987E+04  0.14940019987E+04  0.25500000000E-02 0.  1.
    5000001    1    1    2    0    0  0.11997383425E+03 -0.73780690148E+02 -0.51186822718E+03  0.53644700869E+03  0.77000000000E+02 0.  0.
   -5000001    1    1    2    0    0 -0.11997383425E+03  0.73780690148E+02 -0.96320251342E+03  0.97648624824E+03  0.77000000000E+02 0.  0.
<mgrwt>
<rscale>  0 0.33635301E+03</rscale>
<asrwt>0</asrwt>
<pdfrwt beam="1">  1        2 0.21342878E+00 0.33635301E+03</pdfrwt>
<pdfrwt beam="2">  1       -2 0.27044664E-02 0.33635301E+03</pdfrwt>
<totfact> 0.77960845E+03</totfact>
</mgrwt>
</event>
<event>
 4    1  0.6782240E-004  0.1810440E+03  0.7818608E-02  0.1166796E+00
          2   -1    0    0  501    0  0.00000000000E+00  0.00000000000E+00  0.20513808735E+02  0.20513808893E+02  0.25500000000E-02 0.  1.
         -2   -1    0    0    0  501 -0.00000000000E+00 -0.00000000000E+00 -0.39944970972E+03  0.39944970973E+03  0.25500000000E-02 0. -1.
    5000001    1    1    2    0    0 -0.25108281075E+01  0.46572890705E+02 -0.21146168261E+03  0.22982685139E+03  0.77000000000E+02 0.  0.
   -5000001    1    1    2    0    0  0.25108281075E+01 -0.46572890705E+02 -0.16747421837E+03  0.19013666723E+03  0.77000000000E+02 0.  0.
<mgrwt>
<rscale>  0 0.18104403E+03</rscale>
<asrwt>0</asrwt>
<pdfrwt beam="1">  1        2 0.29305444E-02 0.18104403E+03</pdfrwt>
<pdfrwt beam="2">  1       -2 0.57064240E-01 0.18104403E+03</pdfrwt>
<totfact> 0.91457028E+03</totfact>
</mgrwt>
</event>
<event>
 4    1  0.6782240E-004  0.1961368E+03  0.7818608E-02  0.1153040E+00
         -2   -1    0    0    0  501 -0.00000000000E+00  0.00000000000E+00  0.10606067665E+02  0.10606067971E+02  0.25500000000E-02 0. -1.
          2   -1    0    0  501    0  0.00000000000E+00 -0.00000000000E+00 -0.90678375714E+03  0.90678375714E+03  0.25500000000E-02 0.  1.
    5000001    1    1    2    0    0  0.55374839335E+02  0.35243772036E+01 -0.56357316492E+03  0.57150897305E+03  0.77000000000E+02 0.  0.
   -5000001    1    1    2    0    0 -0.55374839335E+02 -0.35243772036E+01 -0.33260452456E+03  0.34588085206E+03  0.77000000000E+02 0.  0.
<mgrwt>
<rscale>  0 0.19613679E+03</rscale>
<asrwt>0</asrwt>
<pdfrwt beam="1">  1        2 0.12954049E+00 0.19613679E+03</pdfrwt>
<pdfrwt beam="2">  1       -2 0.15151531E-02 0.19613679E+03</pdfrwt>
<totfact> 0.37497352E+04</totfact>
</mgrwt>
</event>
<event>
 4    1  0.6782240E-004  0.2865490E+03  0.7818608E-02  0.1092165E+00
         -2   -1    0    0    0  501 -0.00000000000E+00  0.00000000000E+00  0.27545969804E+02  0.27545969922E+02  0.25500000000E-02 0. -1.
          2   -1    0    0  501    0  0.00000000000E+00 -0.00000000000E+00 -0.74521171919E+03  0.74521171920E+03  0.25500000000E-02 0.  1.
    5000001    1    1    2    0    0  0.16242330518E+02  0.48114360991E+02 -0.63172837015E+02  0.11179719304E+03  0.77000000000E+02 0.  0.
   -5000001    1    1    2    0    0 -0.16242330518E+02 -0.48114360991E+02 -0.65449291237E+03  0.66096049608E+03  0.77000000000E+02 0.  0.
<mgrwt>
<rscale>  0 0.28654898E+03</rscale>
<asrwt>0</asrwt>
<pdfrwt beam="1">  1        2 0.10645880E+00 0.28654898E+03</pdfrwt>
<pdfrwt beam="2">  1       -2 0.39351390E-02 0.28654898E+03</pdfrwt>
<totfact> 0.11959403E+04</totfact>
</mgrwt>
</event>
<event>
 4    1  0.6782240E-004  0.1671283E+03  0.7818608E-02  0.1180876E+00
         -2   -1    0    0    0  501 -0.00000000000E+00  0.00000000000E+00  0.37886936141E+02  0.37886936227E+02  0.25500000000E-02 0. -1.
          2   -1    0    0  501    0  0.00000000000E+00 -0.00000000000E+00 -0.18431062252E+03  0.18431062254E+03  0.25500000000E-02 0.  1.
    5000001    1    1    2    0    0  0.21769462704E+02 -0.24022124085E+02 -0.70911823849E+02  0.10958311327E+03  0.77000000000E+02 0.  0.
   -5000001    1    1    2    0    0 -0.21769462704E+02  0.24022124085E+02 -0.75511862534E+02  0.11261444550E+03  0.77000000000E+02 0.  0.
<mgrwt>
<rscale>  0 0.16712827E+03</rscale>
<asrwt>0</asrwt>
<pdfrwt beam="1">  1        2 0.26330088E-01 0.16712827E+03</pdfrwt>
<pdfrwt beam="2">  1       -2 0.54124195E-02 0.16712827E+03</pdfrwt>
<totfact> 0.33149686E+04</totfact>
</mgrwt>
</event>
<event>
 4    1  0.6782240E-004  0.3288489E+03  0.7818608E-02  0.1071647E+00
          2   -1    0    0  501    0  0.00000000000E+00  0.00000000000E+00  0.25437583271E+04  0.25437583271E+04  0.25500000000E-02 0.  1.
         -2   -1    0    0    0  501 -0.00000000000E+00 -0.00000000000E+00 -0.10628133873E+02  0.10628134179E+02  0.25500000000E-02 0. -1.
    5000001    1    1    2    0    0 -0.64571403979E+02 -0.10404266318E+03  0.18738382254E+04  0.18794129501E+04  0.77000000000E+02 0.  0.
   -5000001    1    1    2    0    0  0.64571403979E+02  0.10404266318E+03  0.65929196779E+03  0.67497351116E+03  0.77000000000E+02 0.  0.
<mgrwt>
<rscale>  0 0.32884893E+03</rscale>
<asrwt>0</asrwt>
<pdfrwt beam="1">  1        2 0.36339446E+00 0.32884893E+03</pdfrwt>
<pdfrwt beam="2">  1       -2 0.15183031E-02 0.32884893E+03</pdfrwt>
<totfact> 0.55213643E+03</totfact>
</mgrwt>
</event>
<event>
 4    1  0.6782240E-004  0.4288726E+03  0.7818608E-02  0.1034217E+00
          2   -1    0    0  501    0  0.00000000000E+00  0.00000000000E+00  0.49180524927E+03  0.49180524928E+03  0.25500000000E-02 0.  1.
         -2   -1    0    0    0  501 -0.00000000000E+00 -0.00000000000E+00 -0.93498243556E+02  0.93498243590E+02  0.25500000000E-02 0. -1.
    5000001    1    1    2    0    0  0.19542963902E+03  0.63789876090E+01  0.14092345253E+03  0.25302540340E+03  0.77000000000E+02 0.  0.
   -5000001    1    1    2    0    0 -0.19542963902E+03 -0.63789876090E+01  0.25738355319E+03  0.33227808947E+03  0.77000000000E+02 0.  0.
<mgrwt>
<rscale>  0 0.42887260E+03</rscale>
<asrwt>0</asrwt>
<pdfrwt beam="1">  1        2 0.70257891E-01 0.42887260E+03</pdfrwt>
<pdfrwt beam="2">  1       -2 0.13356892E-01 0.42887260E+03</pdfrwt>
<totfact> 0.28811817E+03</totfact>
</mgrwt>
</event>
<event>
 4    1  0.6782240E-004  0.2135092E+03  0.7818608E-02  0.1138817E+00
         -2   -1    0    0    0  501 -0.00000000000E+00  0.00000000000E+00  0.12925215513E+02  0.12925215765E+02  0.25500000000E-02 0. -1.
          2   -1    0    0  501    0  0.00000000000E+00 -0.00000000000E+00 -0.88172931855E+03  0.88172931855E+03  0.25500000000E-02 0.  1.
    5000001    1    1    2    0    0 -0.17028420566E+02  0.71564925552E+02 -0.40303512074E+03  0.41686666241E+03  0.77000000000E+02 0.  0.
   -5000001    1    1    2    0    0  0.17028420566E+02 -0.71564925552E+02 -0.46576898230E+03  0.47778787191E+03  0.77000000000E+02 0.  0.
<mgrwt>
<rscale>  0 0.21350917E+03</rscale>
<asrwt>0</asrwt>
<pdfrwt beam="1">  1        2 0.12596129E+00 0.21350917E+03</pdfrwt>
<pdfrwt beam="2">  1       -2 0.18464599E-02 0.21350917E+03</pdfrwt>
<totfact> 0.29316519E+04</totfact>
</mgrwt>
</event>
<event>
 4    1  0.6782240E-004  0.7347168E+03  0.7818608E-02  0.9659637E-01
         -2   -1    0    0    0  501 -0.00000000000E+00  0.00000000000E+00  0.34707873515E+03  0.34707873516E+03  0.25500000000E-02 0. -1.
          2   -1    0    0  501    0  0.00000000000E+00 -0.00000000000E+00 -0.38882300853E+03  0.38882300854E+03  0.25500000000E-02 0.  1.
    5000001    1    1    2    0    0 -0.77909406642E+02 -0.29055972907E+03  0.17573086836E+03  0.35679850041E+03  0.77000000000E+02 0.  0.
   -5000001    1    1    2    0    0  0.77909406642E+02  0.29055972907E+03 -0.21747514174E+03  0.37910324329E+03  0.77000000000E+02 0.  0.
<mgrwt>
<rscale>  0 0.73471681E+03</rscale>
<asrwt>0</asrwt>
<pdfrwt beam="1">  1        2 0.55546144E-01 0.73471681E+03</pdfrwt>
<pdfrwt beam="2">  1       -2 0.49582676E-01 0.73471681E+03</pdfrwt>
<totfact> 0.34630334E+02</totfact>
</mgrwt>
</event>
<event>
 4    1  0.6782240E-004  0.3230936E+03  0.7818608E-02  0.1074234E+00
         -2   -1    0    0    0  501 -0.00000000000E+00  0.00000000000E+00  0.75810730310E+02  0.75810730353E+02  0.25500000000E-02 0. -1.
          2   -1    0    0  501    0  0.00000000000E+00 -0.00000000000E+00 -0.34424366021E+03  0.34424366022E+03  0.25500000000E-02 0.  1.
    5000001    1    1    2    0    0  0.38777186166E+01 -0.10373395828E+03 -0.26021629444E+03  0.29054653791E+03  0.77000000000E+02 0.  0.
   -5000001    1    1    2    0    0 -0.38777186166E+01  0.10373395828E+03 -0.82166354615E+01  0.12950785266E+03  0.77000000000E+02 0.  0.
<mgrwt>
<rscale>  0 0.32309357E+03</rscale>
<asrwt>0</asrwt>
<pdfrwt beam="1">  1        2 0.49177665E-01 0.32309357E+03</pdfrwt>
<pdfrwt beam="2">  1       -2 0.10830104E-01 0.32309357E+03</pdfrwt>
<totfact> 0.59601341E+03</totfact>
</mgrwt>
</event>
<event>
 4    1  0.6782240E-004  0.4993628E+03  0.7818608E-02  0.1013945E+00
          2   -1    0    0  501    0  0.00000000000E+00  0.00000000000E+00  0.11895209915E+04  0.11895209915E+04  0.25500000000E-02 0.  1.
         -2   -1    0    0    0  501 -0.00000000000E+00 -0.00000000000E+00 -0.52408331055E+02  0.52408331117E+02  0.25500000000E-02 0. -1.
    5000001    1    1    2    0    0  0.18642675700E+03  0.11121088030E+03  0.80825492158E+03  0.84043311089E+03  0.77000000000E+02 0.  0.
   -5000001    1    1    2    0    0 -0.18642675700E+03 -0.11121088030E+03  0.32885773886E+03  0.40149621172E+03  0.77000000000E+02 0.  0.
<mgrwt>
<rscale>  0 0.49936283E+03</rscale>
<asrwt>0</asrwt>
<pdfrwt beam="1">  1        2 0.16993159E+00 0.49936283E+03</pdfrwt>
<pdfrwt beam="2">  1       -2 0.74869038E-02 0.49936283E+03</pdfrwt>
<totfact> 0.23840224E+03</totfact>
</mgrwt>
</event>
<event>
 4    1  0.6782240E-004  0.2187535E+03  0.7818608E-02  0.1134816E+00
         -2   -1    0    0    0  501 -0.00000000000E+00  0.00000000000E+00  0.19677780757E+02  0.19677780923E+02  0.25500000000E-02 0. -1.
          2   -1    0    0  501    0  0.00000000000E+00 -0.00000000000E+00 -0.60795844689E+03  0.60795844690E+03  0.25500000000E-02 0.  1.
    5000001    1    1    2    0    0 -0.54157170741E+02 -0.55591395399E+02 -0.28468053919E+03  0.30495149086E+03  0.77000000000E+02 0.  0.
   -5000001    1    1    2    0    0  0.54157170741E+02  0.55591395399E+02 -0.30360012694E+03  0.32268473696E+03  0.77000000000E+02 0.  0.
<mgrwt>
<rscale>  0 0.21875350E+03</rscale>
<asrwt>0</asrwt>
<pdfrwt beam="1">  1        2 0.86851195E-01 0.21875350E+03</pdfrwt>
<pdfrwt beam="2">  1       -2 0.28111119E-02 0.21875350E+03</pdfrwt>
<totfact> 0.24720857E+04</totfact>
</mgrwt>
</event>
<event>
 4    1  0.6782240E-004  0.2356011E+03  0.7818608E-02  0.1122758E+00
          2   -1    0    0  501    0  0.00000000000E+00  0.00000000000E+00  0.10339486688E+04  0.10339486688E+04  0.25500000000E-02 0.  1.
         -2   -1    0    0    0  501 -0.00000000000E+00 -0.00000000000E+00 -0.13421327620E+02  0.13421327863E+02  0.25500000000E-02 0. -1.
    5000001    1    1    2    0    0  0.78900771581E+02  0.38167921828E+02  0.58274641909E+03  0.59431011347E+03  0.77000000000E+02 0.  0.
   -5000001    1    1    2    0    0 -0.78900771581E+02 -0.38167921828E+02  0.43778092205E+03  0.45305988316E+03  0.77000000000E+02 0.  0.
<mgrwt>
<rscale>  0 0.23560105E+03</rscale>
<asrwt>0</asrwt>
<pdfrwt beam="1">  1        2 0.14770695E+00 0.23560105E+03</pdfrwt>
<pdfrwt beam="2">  1       -2 0.19173325E-02 0.23560105E+03</pdfrwt>
<totfact> 0.22610856E+04</totfact>
</mgrwt>
</event>
<event>
 4    1  0.6782240E-004  0.2183037E+03  0.7818608E-02  0.1135154E+00
         -2   -1    0    0    0  501 -0.00000000000E+00  0.00000000000E+00  0.65798513341E+01  0.65798518283E+01  0.25500000000E-02 0. -1.
          2   -1    0    0  501    0  0.00000000000E+00 -0.00000000000E+00 -0.18106978521E+04  0.18106978521E+04  0.25500000000E-02 0.  1.
    5000001    1    1    2    0    0  0.61762193065E+02  0.42665746391E+02 -0.74627913011E+03  0.75398705191E+03  0.77000000000E+02 0.  0.
   -5000001    1    1    2    0    0 -0.61762193065E+02 -0.42665746391E+02 -0.10578388707E+04  0.10632906521E+04  0.77000000000E+02 0.  0.
<mgrwt>
<rscale>  0 0.21830367E+03</rscale>
<asrwt>0</asrwt>
<pdfrwt beam="1">  1        2 0.25867080E+00 0.21830367E+03</pdfrwt>
<pdfrwt beam="2">  1       -2 0.93997996E-03 0.21830367E+03</pdfrwt>
<totfact> 0.25227376E+04</totfact>
</mgrwt>
</event>
<event>
 4    1  0.6782240E-004  0.4011016E+03  0.7818608E-02  0.1043399E+00
         -2   -1    0    0    0  501 -0.00000000000E+00  0.00000000000E+00  0.16312629725E+03  0.16312629727E+03  0.25500000000E-02 0. -1.
          2   -1    0    0  501    0  0.00000000000E+00 -0.00000000000E+00 -0.24656122096E+03  0.24656122097E+03  0.25500000000E-02 0.  1.
    5000001    1    1    2    0    0 -0.42890438228E+02 -0.15745012618E+03 -0.13112103970E+03  0.22305124743E+03  0.77000000000E+02 0.  0.
   -5000001    1    1    2    0    0  0.42890438228E+02  0.15745012618E+03  0.47686115990E+02  0.18663627082E+03  0.77000000000E+02 0.  0.
<mgrwt>
<rscale>  0 0.40110158E+03</rscale>
<asrwt>0</asrwt>
<pdfrwt beam="1">  1        2 0.35223031E-01 0.40110158E+03</pdfrwt>
<pdfrwt beam="2">  1       -2 0.23303757E-01 0.40110158E+03</pdfrwt>
<totfact> 0.23822264E+03</totfact>
</mgrwt>
</event>
<event>
 4    1  0.6782240E-004  0.2678890E+03  0.7818608E-02  0.1102494E+00
         -2   -1    0    0    0  501 -0.00000000000E+00  0.00000000000E+00  0.12696349673E+02  0.12696349929E+02  0.25500000000E-02 0. -1.
          2   -1    0    0  501    0  0.00000000000E+00 -0.00000000000E+00 -0.14130939069E+04  0.14130939069E+04  0.25500000000E-02 0.  1.
    5000001    1    1    2    0    0 -0.94486651364E+02  0.36751348419E+02 -0.47858672022E+03  0.49522988366E+03  0.77000000000E+02 0.  0.
   -5000001    1    1    2    0    0  0.94486651364E+02 -0.36751348419E+02 -0.92181083697E+03  0.93056037314E+03  0.77000000000E+02 0.  0.
<mgrwt>
<rscale>  0 0.26788904E+03</rscale>
<asrwt>0</asrwt>
<pdfrwt beam="1">  1        2 0.20187046E+00 0.26788904E+03</pdfrwt>
<pdfrwt beam="2">  1       -2 0.18137652E-02 0.26788904E+03</pdfrwt>
<totfact> 0.15399586E+04</totfact>
</mgrwt>
</event>
<event>
 4    1  0.6782240E-004  0.1621989E+03  0.7818608E-02  0.1186236E+00
         -2   -1    0    0    0  501 -0.00000000000E+00  0.00000000000E+00  0.42242209214E+02  0.42242209291E+02  0.25500000000E-02 0. -1.
          2   -1    0    0  501    0  0.00000000000E+00 -0.00000000000E+00 -0.15570024162E+03  0.15570024164E+03  0.25500000000E-02 0.  1.
    5000001    1    1    2    0    0 -0.21155169150E+02 -0.14090692567E+02 -0.54988806549E+02  0.97973759979E+02  0.77000000000E+02 0.  0.
   -5000001    1    1    2    0    0  0.21155169150E+02  0.14090692567E+02 -0.58469225860E+02  0.99968690956E+02  0.77000000000E+02 0.  0.
<mgrwt>
<rscale>  0 0.16219892E+03</rscale>
<asrwt>0</asrwt>
<pdfrwt beam="1">  1        2 0.22242891E-01 0.16219892E+03</pdfrwt>
<pdfrwt beam="2">  1       -2 0.60346014E-02 0.16219892E+03</pdfrwt>
<totfact> 0.33800488E+04</totfact>
</mgrwt>
</event>
<event>
 4    1  0.6782240E-004  0.2911551E+03  0.7818608E-02  0.1089748E+00
          2   -1    0    0  501    0  0.00000000000E+00  0.00000000000E+00  0.20650970087E+04  0.20650970087E+04  0.25500000000E-02 0.  1.
         -2   -1    0    0    0  501 -0.00000000000E+00 -0.00000000000E+00 -0.10262383267E+02  0.10262383583E+02  0.25500000000E-02 0. -1.
    5000001    1    1    2    0    0 -0.13028929420E+02 -0.90253760234E+02  0.16215849234E+04  0.16259711430E+04  0.77000000000E+02 0.  0.
   -5000001    1    1    2    0    0  0.13028929420E+02  0.90253760234E+02  0.43324970207E+03  0.44938824927E+03  0.77000000000E+02 0.  0.
<mgrwt>
<rscale>  0 0.29115506E+03</rscale>
<asrwt>0</asrwt>
<pdfrwt beam="1">  1        2 0.29501455E+00 0.29115506E+03</pdfrwt>
<pdfrwt beam="2">  1       -2 0.14660513E-02 0.29115506E+03</pdfrwt>
<totfact> 0.10026759E+04</totfact>
</mgrwt>
</event>
<event>
 4    1  0.6782240E-004  0.2150525E+03  0.7818608E-02  0.1137626E+00
         -2   -1    0    0    0  501 -0.00000000000E+00  0.00000000000E+00  0.12609386197E+02  0.12609386454E+02  0.25500000000E-02 0. -1.
          2   -1    0    0  501    0  0.00000000000E+00 -0.00000000000E+00 -0.91692753437E+03  0.91692753438E+03  0.25500000000E-02 0.  1.
    5000001    1    1    2    0    0  0.55209032559E+02  0.49024172294E+02 -0.39392936055E+03  0.40811854632E+03  0.77000000000E+02 0.  0.
   -5000001    1    1    2    0    0 -0.55209032559E+02 -0.49024172294E+02 -0.51038878763E+03  0.52141837451E+03  0.77000000000E+02 0.  0.
<mgrwt>
<rscale>  0 0.21505249E+03</rscale>
<asrwt>0</asrwt>
<pdfrwt beam="1">  1        2 0.13098961E+00 0.21505249E+03</pdfrwt>
<pdfrwt beam="2">  1       -2 0.18013415E-02 0.21505249E+03</pdfrwt>
<totfact> 0.28917595E+04</totfact>
</mgrwt>
</event>
<event>
 4    1  0.6782240E-004  0.2294575E+03  0.7818608E-02  0.1127022E+00
         -2   -1    0    0    0  501 -0.00000000000E+00  0.00000000000E+00  0.12819632553E+02  0.12819632806E+02  0.25500000000E-02 0. -1.
          2   -1    0    0  501    0  0.00000000000E+00 -0.00000000000E+00 -0.10267603276E+04  0.10267603276E+04  0.25500000000E-02 0.  1.
    5000001    1    1    2    0    0  0.68081205842E+02  0.36940355504E+02 -0.34781475066E+03  0.36455965387E+03  0.77000000000E+02 0.  0.
   -5000001    1    1    2    0    0 -0.68081205842E+02 -0.36940355504E+02 -0.66612594439E+03  0.67502030654E+03  0.77000000000E+02 0.  0.
<mgrwt>
<rscale>  0 0.22945754E+03</rscale>
<asrwt>0</asrwt>
<pdfrwt beam="1">  1        2 0.14668000E+00 0.22945754E+03</pdfrwt>
<pdfrwt beam="2">  1       -2 0.18313767E-02 0.22945754E+03</pdfrwt>
<totfact> 0.24377987E+04</totfact>
</mgrwt>
</event>
<event>
 4    1  0.6782240E-004  0.2982737E+03  0.7818608E-02  0.1086107E+00
          2   -1    0    0  501    0  0.00000000000E+00  0.00000000000E+00  0.70562765749E+02  0.70562765795E+02  0.25500000000E-02 0.  1.
         -2   -1    0    0    0  501 -0.00000000000E+00 -0.00000000000E+00 -0.31520587625E+03  0.31520587626E+03  0.25500000000E-02 0. -1.
    5000001    1    1    2    0    0  0.10184858427E+03  0.32816355707E+02 -0.21251043589E+03  0.25007945274E+03  0.77000000000E+02 0.  0.
   -5000001    1    1    2    0    0 -0.10184858427E+03 -0.32816355707E+02 -0.32132674609E+02  0.13568918932E+03  0.77000000000E+02 0.  0.
<mgrwt>
<rscale>  0 0.29827369E+03</rscale>
<asrwt>0</asrwt>
<pdfrwt beam="1">  1        2 0.10080395E-01 0.29827369E+03</pdfrwt>
<pdfrwt beam="2">  1       -2 0.45029410E-01 0.29827369E+03</pdfrwt>
<totfact> 0.29999010E+03</totfact>
</mgrwt>
</event>
<event>
 4    1  0.6782240E-004  0.2322035E+03  0.7818608E-02  0.1125098E+00
          2   -1    0    0  501    0  0.00000000000E+00  0.00000000000E+00  0.50808857952E+03  0.50808857952E+03  0.25500000000E-02 0.  1.
         -2   -1    0    0    0  501 -0.00000000000E+00 -0.00000000000E+00 -0.26530046154E+02  0.26530046277E+02  0.25500000000E-02 0. -1.
    5000001    1    1    2    0    0  0.61103263787E+02 -0.42772008358E+02  0.13813481273E+03  0.17485216622E+03  0.77000000000E+02 0.  0.
   -5000001    1    1    2    0    0 -0.61103263787E+02  0.42772008358E+02  0.34342372063E+03  0.35976645958E+03  0.77000000000E+02 0.  0.
<mgrwt>
<rscale>  0 0.23220348E+03</rscale>
<asrwt>0</asrwt>
<pdfrwt beam="1">  1        2 0.72584079E-01 0.23220348E+03</pdfrwt>
<pdfrwt beam="2">  1       -2 0.37900068E-02 0.23220348E+03</pdfrwt>
<totfact> 0.19454677E+04</totfact>
</mgrwt>
</event>
<event>
 4    1  0.6782240E-004  0.1979165E+03  0.7818608E-02  0.1151509E+00
          2   -1    0    0  501    0  0.00000000000E+00  0.00000000000E+00  0.67465685306E+01  0.67465690125E+01  0.25500000000E-02 0.  1.
         -2   -1    0    0    0  501 -0.00000000000E+00 -0.00000000000E+00 -0.14515129595E+04  0.14515129595E+04  0.25500000000E-02 0. -1.
    5000001    1    1    2    0    0 -0.28983421939E+02  0.25322966926E+02 -0.10820198373E+04  0.10854387222E+04  0.77000000000E+02 0.  0.
   -5000001    1    1    2    0    0  0.28983421939E+02 -0.25322966926E+02 -0.36274655367E+03  0.37282080628E+03  0.77000000000E+02 0.  0.
<mgrwt>
<rscale>  0 0.19791647E+03</rscale>
<asrwt>0</asrwt>
<pdfrwt beam="1">  1        2 0.96379647E-03 0.19791647E+03</pdfrwt>
<pdfrwt beam="2">  1       -2 0.20735879E+00 0.19791647E+03</pdfrwt>
<totfact> 0.19383934E+03</totfact>
</mgrwt>
</event>
<event>
 4    1  0.6782240E-004  0.3046755E+03  0.7818608E-02  0.1082926E+00
          2   -1    0    0  501    0  0.00000000000E+00  0.00000000000E+00  0.10318552669E+03  0.10318552672E+03  0.25500000000E-02 0.  1.
         -2   -1    0    0    0  501 -0.00000000000E+00 -0.00000000000E+00 -0.22490351029E+03  0.22490351031E+03  0.25500000000E-02 0. -1.
    5000001    1    1    2    0    0 -0.77394084984E+02  0.41485761092E+02 -0.16618587911E+03  0.20311981484E+03  0.77000000000E+02 0.  0.
   -5000001    1    1    2    0    0  0.77394084984E+02 -0.41485761092E+02  0.44467895502E+02  0.12496922219E+03  0.77000000000E+02 0.  0.
<mgrwt>
<rscale>  0 0.30467548E+03</rscale>
<asrwt>0</asrwt>
<pdfrwt beam="1">  1        2 0.14740790E-01 0.30467548E+03</pdfrwt>
<pdfrwt beam="2">  1       -2 0.32129073E-01 0.30467548E+03</pdfrwt>
<totfact> 0.35843553E+03</totfact>
</mgrwt>
</event>
<event>
 4    1  0.6782240E-004  0.2164172E+03  0.7818608E-02  0.1136583E+00
         -2   -1    0    0    0  501 -0.00000000000E+00  0.00000000000E+00  0.70908697664E+01  0.70908702249E+01  0.25500000000E-02 0. -1.
          2   -1    0    0  501    0  0.00000000000E+00 -0.00000000000E+00 -0.16512928329E+04  0.16512928329E+04  0.25500000000E-02 0.  1.
    5000001    1    1    2    0    0  0.69283501565E+02  0.26740082426E+02 -0.94681271436E+03  0.95283710658E+03  0.77000000000E+02 0.  0.
   -5000001    1    1    2    0    0 -0.69283501565E+02 -0.26740082426E+02 -0.69738924876E+03  0.70554659653E+03  0.77000000000E+02 0.  0.
<mgrwt>
<rscale>  0 0.21641722E+03</rscale>
<asrwt>0</asrwt>
<pdfrwt beam="1">  1        2 0.23589873E+00 0.21641722E+03</pdfrwt>
<pdfrwt beam="2">  1       -2 0.10129825E-02 0.21641722E+03</pdfrwt>
<totfact> 0.27073974E+04</totfact>
</mgrwt>
</event>
<event>
 4    1  0.6782240E-004  0.2309880E+03  0.7818608E-02  0.1125946E+00
          2   -1    0    0  501    0  0.00000000000E+00  0.00000000000E+00  0.53871583781E+03  0.53871583781E+03  0.25500000000E-02 0.  1.
         -2   -1    0    0    0  501 -0.00000000000E+00 -0.00000000000E+00 -0.24760472439E+02  0.24760472571E+02  0.25500000000E-02 0. -1.
    5000001    1    1    2    0    0  0.76557953438E+02 -0.32521822829E+01  0.35265022992E+03  0.36900254957E+03  0.77000000000E+02 0.  0.
   -5000001    1    1    2    0    0 -0.76557953438E+02  0.32521822829E+01  0.16130513544E+03  0.19447376081E+03  0.77000000000E+02 0.  0.
<mgrwt>
<rscale>  0 0.23098795E+03</rscale>
<asrwt>0</asrwt>
<pdfrwt beam="1">  1        2 0.76959400E-01 0.23098795E+03</pdfrwt>
<pdfrwt beam="2">  1       -2 0.35372106E-02 0.23098795E+03</pdfrwt>
<totfact> 0.20206525E+04</totfact>
</mgrwt>
</event>
<event>
 4    1  0.6782240E-004  0.2164273E+03  0.7818608E-02  0.1136575E+00
          2   -1    0    0  501    0  0.00000000000E+00  0.00000000000E+00  0.24894092998E+03  0.24894092999E+03  0.25500000000E-02 0.  1.
         -2   -1    0    0    0  501 -0.00000000000E+00 -0.00000000000E+00 -0.47040056577E+02  0.47040056646E+02  0.25500000000E-02 0. -1.
    5000001    1    1    2    0    0 -0.73068840581E+01  0.49711869545E+02  0.22908216591E+02  0.94754666986E+02  0.77000000000E+02 0.  0.
   -5000001    1    1    2    0    0  0.73068840581E+01 -0.49711869545E+02  0.17899265681E+03  0.20122631965E+03  0.77000000000E+02 0.  0.
<mgrwt>
<rscale>  0 0.21642731E+03</rscale>
<asrwt>0</asrwt>
<pdfrwt beam="1">  1        2 0.35562991E-01 0.21642731E+03</pdfrwt>
<pdfrwt beam="2">  1       -2 0.67200080E-02 0.21642731E+03</pdfrwt>
<totfact> 0.17544894E+04</totfact>
</mgrwt>
</event>
<event>
 4    1  0.6782240E-004  0.2451662E+03  0.7818608E-02  0.1116398E+00
         -2   -1    0    0    0  501 -0.00000000000E+00  0.00000000000E+00  0.98936750757E+02  0.98936750790E+02  0.25500000000E-02 0. -1.
          2   -1    0    0  501    0  0.00000000000E+00 -0.00000000000E+00 -0.15188102562E+03  0.15188102564E+03  0.25500000000E-02 0.  1.
    5000001    1    1    2    0    0 -0.19701951583E+02  0.86993013843E+02 -0.61039548659E+02  0.13270560596E+03  0.77000000000E+02 0.  0.
   -5000001    1    1    2    0    0  0.19701951583E+02 -0.86993013843E+02  0.80952738018E+01  0.11811217046E+03  0.77000000000E+02 0.  0.
<mgrwt>
<rscale>  0 0.24516619E+03</rscale>
<asrwt>0</asrwt>
<pdfrwt beam="1">  1        2 0.21697289E-01 0.24516619E+03</pdfrwt>
<pdfrwt beam="2">  1       -2 0.14133822E-01 0.24516619E+03</pdfrwt>
<totfact> 0.93915240E+03</totfact>
</mgrwt>
</event>
<event>
 4    1  0.6782240E-004  0.3869376E+03  0.7818608E-02  0.1048399E+00
         -2   -1    0    0    0  501 -0.00000000000E+00  0.00000000000E+00  0.43546171395E+03  0.43546171396E+03  0.25500000000E-02 0. -1.
          2   -1    0    0  501    0  0.00000000000E+00 -0.00000000000E+00 -0.85955151699E+02  0.85955151737E+02  0.25500000000E-02 0.  1.
    5000001    1    1    2    0    0 -0.59347683721E+02  0.15177291793E+03  0.80002266056E+02  0.19719667532E+03  0.77000000000E+02 0.  0.
   -5000001    1    1    2    0    0  0.59347683721E+02 -0.15177291793E+03  0.26950429620E+03  0.32422019038E+03  0.77000000000E+02 0.  0.
<mgrwt>
<rscale>  0 0.38693761E+03</rscale>
<asrwt>0</asrwt>
<pdfrwt beam="1">  1        2 0.12279307E-01 0.38693761E+03</pdfrwt>
<pdfrwt beam="2">  1       -2 0.62208817E-01 0.38693761E+03</pdfrwt>
<totfact> 0.12269855E+03</totfact>
</mgrwt>
</event>
<event>
 4    1  0.6782240E-004  0.2461274E+03  0.7818608E-02  0.1115777E+00
          2   -1    0    0  501    0  0.00000000000E+00  0.00000000000E+00  0.10668252928E+04  0.10668252928E+04  0.25500000000E-02 0.  1.
         -2   -1    0    0    0  501 -0.00000000000E+00 -0.00000000000E+00 -0.14196015910E+02  0.14196016139E+02  0.25500000000E-02 0. -1.
    5000001    1    1    2    0    0 -0.95810595547E+02 -0.59883580340E+01  0.52468123934E+03  0.53892015510E+03  0.77000000000E+02 0.  0.
   -5000001    1    1    2    0    0  0.95810595547E+02  0.59883580340E+01  0.52794803755E+03  0.54210115385E+03  0.77000000000E+02 0.  0.
<mgrwt>
<rscale>  0 0.24612736E+03</rscale>
<asrwt>0</asrwt>
<pdfrwt beam="1">  1        2 0.15240360E+00 0.24612736E+03</pdfrwt>
<pdfrwt beam="2">  1       -2 0.20280025E-02 0.24612736E+03</pdfrwt>
<totfact> 0.19984064E+04</totfact>
</mgrwt>
</event>
<event>
 4    1  0.6782240E-004  0.2551654E+03  0.7818608E-02  0.1110083E+00
          2   -1    0    0  501    0  0.00000000000E+00  0.00000000000E+00  0.18879059151E+03  0.18879059153E+03  0.25500000000E-02 0.  1.
         -2   -1    0    0    0  501 -0.00000000000E+00 -0.00000000000E+00 -0.86219048224E+02  0.86219048261E+02  0.25500000000E-02 0. -1.
    5000001    1    1    2    0    0  0.21622100041E+02 -0.85946656950E+02  0.10510959451E+03  0.15757972557E+03  0.77000000000E+02 0.  0.
   -5000001    1    1    2    0    0 -0.21622100041E+02  0.85946656950E+02 -0.25380512218E+01  0.11742991423E+03  0.77000000000E+02 0.  0.
<mgrwt>
<rscale>  0 0.25516540E+03</rscale>
<asrwt>0</asrwt>
<pdfrwt beam="1">  1        2 0.26970084E-01 0.25516540E+03</pdfrwt>
<pdfrwt beam="2">  1       -2 0.12317007E-01 0.25516540E+03</pdfrwt>
<totfact> 0.92274090E+03</totfact>
</mgrwt>
</event>
<event>
 4    1  0.6782240E-004  0.2225346E+03  0.7818608E-02  0.1132007E+00
          2   -1    0    0  501    0  0.00000000000E+00  0.00000000000E+00  0.85097668220E+03  0.85097668221E+03  0.25500000000E-02 0.  1.
         -2   -1    0    0    0  501 -0.00000000000E+00 -0.00000000000E+00 -0.14548472762E+02  0.14548472985E+02  0.25500000000E-02 0. -1.
    5000001    1    1    2    0    0  0.54688832497E+02 -0.59211984430E+01  0.19057701673E+03  0.21277811987E+03  0.77000000000E+02 0.  0.
   -5000001    1    1    2    0    0 -0.54688832497E+02  0.59211984430E+01  0.64585119271E+03  0.65274703532E+03  0.77000000000E+02 0.  0.
<mgrwt>
<rscale>  0 0.22253459E+03</rscale>
<asrwt>0</asrwt>
<pdfrwt beam="1">  1        2 0.12156806E+00 0.22253459E+03</pdfrwt>
<pdfrwt beam="2">  1       -2 0.20783539E-02 0.22253459E+03</pdfrwt>
<totfact> 0.25859008E+04</totfact>
</mgrwt>
</event>
<event>
 4    1  0.6782240E-004  0.5801626E+03  0.7818608E-02  0.9947439E-01
          2   -1    0    0  501    0  0.00000000000E+00  0.00000000000E+00  0.39422924532E+03  0.39422924533E+03  0.25500000000E-02 0.  1.
         -2   -1    0    0    0  501 -0.00000000000E+00 -0.00000000000E+00 -0.21344726970E+03  0.21344726972E+03  0.25500000000E-02 0. -1.
    5000001    1    1    2    0    0 -0.12776163271E+03 -0.23602613784E+03  0.80046505286E+01  0.27932856454E+03  0.77000000000E+02 0.  0.
   -5000001    1    1    2    0    0  0.12776163271E+03  0.23602613784E+03  0.17277732509E+03  0.32834795051E+03  0.77000000000E+02 0.  0.
<mgrwt>
<rscale>  0 0.58016258E+03</rscale>
<asrwt>0</asrwt>
<pdfrwt beam="1">  1        2 0.56318463E-01 0.58016258E+03</pdfrwt>
<pdfrwt beam="2">  1       -2 0.30492467E-01 0.58016258E+03</pdfrwt>
<totfact> 0.87682307E+02</totfact>
</mgrwt>
</event>
<event>
 4    1  0.6782240E-004  0.1846146E+03  0.7818608E-02  0.1163410E+00
         -2   -1    0    0    0  501 -0.00000000000E+00  0.00000000000E+00  0.66342402983E+01  0.66342407884E+01  0.25500000000E-02 0. -1.
          2   -1    0    0  501    0  0.00000000000E+00 -0.00000000000E+00 -0.12843430747E+04  0.12843430747E+04  0.25500000000E-02 0.  1.
    5000001    1    1    2    0    0  0.12414041035E+02  0.91349924108E+01 -0.29957032405E+03  0.30969167821E+03  0.77000000000E+02 0.  0.
   -5000001    1    1    2    0    0 -0.12414041035E+02 -0.91349924108E+01 -0.97813851037E+03  0.98128563730E+03  0.77000000000E+02 0.  0.
<mgrwt>
<rscale>  0 0.18461464E+03</rscale>
<asrwt>0</asrwt>
<pdfrwt beam="1">  1        2 0.18347742E+00 0.18461464E+03</pdfrwt>
<pdfrwt beam="2">  1       -2 0.94774947E-03 0.18461464E+03</pdfrwt>
<totfact> 0.45142093E+04</totfact>
</mgrwt>
</event>
<event>
 4    1  0.6782240E-004  0.3681412E+03  0.7818608E-02  0.1055406E+00
          2   -1    0    0  501    0  0.00000000000E+00  0.00000000000E+00  0.41091042331E+04  0.41091042331E+04  0.25500000000E-02 0.  1.
         -2   -1    0    0    0  501 -0.00000000000E+00 -0.00000000000E+00 -0.82455890201E+01  0.82455894144E+01  0.25500000000E-02 0. -1.
    5000001    1    1    2    0    0 -0.33830726914E+01 -0.16308738737E+03  0.16404044869E+04  0.16502923443E+04  0.77000000000E+02 0.  0.
   -5000001    1    1    2    0    0  0.33830726914E+01  0.16308738737E+03  0.24604541571E+04  0.24670574781E+04  0.77000000000E+02 0.  0.
<mgrwt>
<rscale>  0 0.36814120E+03</rscale>
<asrwt>0</asrwt>
<pdfrwt beam="1">  1        2 0.58701695E+00 0.36814120E+03</pdfrwt>
<pdfrwt beam="2">  1       -2 0.11779372E-02 0.36814120E+03</pdfrwt>
<totfact> 0.10118277E+03</totfact>
</mgrwt>
</event>
<event>
 4    1  0.6782240E-004  0.8788278E+03  0.7818608E-02  0.9452442E-01
         -2   -1    0    0    0  501 -0.00000000000E+00  0.00000000000E+00  0.47745015805E+03  0.47745015806E+03  0.25500000000E-02 0. -1.
          2   -1    0    0  501    0  0.00000000000E+00 -0.00000000000E+00 -0.40440784486E+03  0.40440784487E+03  0.25500000000E-02 0.  1.
    5000001    1    1    2    0    0  0.38828465834E+03  0.17904791153E+03 -0.29527210526E+02  0.43545836390E+03  0.77000000000E+02 0.  0.
   -5000001    1    1    2    0    0 -0.38828465834E+03 -0.17904791153E+03  0.10256952372E+03  0.44639963903E+03  0.77000000000E+02 0.  0.
<mgrwt>
<rscale>  0 0.87882783E+03</rscale>
<asrwt>0</asrwt>
<pdfrwt beam="1">  1        2 0.57772549E-01 0.87882783E+03</pdfrwt>
<pdfrwt beam="2">  1       -2 0.68207165E-01 0.87882783E+03</pdfrwt>
<totfact> 0.16882346E+02</totfact>
</mgrwt>
</event>
<event>
 4    1  0.6782240E-004  0.2589640E+03  0.7818608E-02  0.1107767E+00
          2   -1    0    0  501    0  0.00000000000E+00  0.00000000000E+00  0.15498947929E+03  0.15498947931E+03  0.25500000000E-02 0.  1.
         -2   -1    0    0    0  501 -0.00000000000E+00 -0.00000000000E+00 -0.10817239006E+03  0.10817239009E+03  0.25500000000E-02 0. -1.
    5000001    1    1    2    0    0  0.49213104924E+02  0.91611681213E+02  0.18647234466E+02  0.13073388690E+03  0.77000000000E+02 0.  0.
   -5000001    1    1    2    0    0 -0.49213104924E+02 -0.91611681213E+02  0.28169854761E+02  0.13242798250E+03  0.77000000000E+02 0.  0.
<mgrwt>
<rscale>  0 0.25896395E+03</rscale>
<asrwt>0</asrwt>
<pdfrwt beam="1">  1        2 0.22141354E-01 0.25896395E+03</pdfrwt>
<pdfrwt beam="2">  1       -2 0.15453199E-01 0.25896395E+03</pdfrwt>
<totfact> 0.79445621E+03</totfact>
</mgrwt>
</event>
<event>
 4    1  0.6782240E-004  0.1842332E+03  0.7818608E-02  0.1163768E+00
          2   -1    0    0  501    0  0.00000000000E+00  0.00000000000E+00  0.23251424816E+03  0.23251424817E+03  0.25500000000E-02 0.  1.
         -2   -1    0    0    0  501 -0.00000000000E+00 -0.00000000000E+00 -0.36494391785E+02  0.36494391874E+02  0.25500000000E-02 0. -1.
    5000001    1    1    2    0    0  0.35910590276E+02 -0.25570963058E+02  0.61857604817E+02  0.10816102773E+03  0.77000000000E+02 0.  0.
   -5000001    1    1    2    0    0 -0.35910590276E+02  0.25570963058E+02  0.13416225155E+03  0.16084761231E+03  0.77000000000E+02 0.  0.
<mgrwt>
<rscale>  0 0.18423318E+03</rscale>
<asrwt>0</asrwt>
<pdfrwt beam="1">  1        2 0.33216322E-01 0.18423318E+03</pdfrwt>
<pdfrwt beam="2">  1       -2 0.52134844E-02 0.18423318E+03</pdfrwt>
<totfact> 0.27475723E+04</totfact>
</mgrwt>
</event>
<event>
 4    1  0.6782240E-004  0.4460582E+03  0.7818608E-02  0.1028904E+00
          2   -1    0    0  501    0  0.00000000000E+00  0.00000000000E+00  0.93649980910E+03  0.93649980910E+03  0.25500000000E-02 0.  1.
         -2   -1    0    0    0  501 -0.00000000000E+00 -0.00000000000E+00 -0.53114774250E+02  0.53114774311E+02  0.25500000000E-02 0. -1.
    5000001    1    1    2    0    0 -0.10906769096E+03 -0.38925976548E+02  0.82852731236E+03  0.84011755141E+03  0.77000000000E+02 0.  0.
   -5000001    1    1    2    0    0  0.10906769096E+03  0.38925976548E+02  0.54857722487E+02  0.14949703200E+03  0.77000000000E+02 0.  0.
<mgrwt>
<rscale>  0 0.44605818E+03</rscale>
<asrwt>0</asrwt>
<pdfrwt beam="1">  1        2 0.13378568E+00 0.44605818E+03</pdfrwt>
<pdfrwt beam="2">  1       -2 0.75878251E-02 0.44605818E+03</pdfrwt>
<totfact> 0.32864861E+03</totfact>
</mgrwt>
</event>
<event>
 4    1  0.6782240E-004  0.2016863E+03  0.7818608E-02  0.1148324E+00
          2   -1    0    0  501    0  0.00000000000E+00  0.00000000000E+00  0.65433138993E+02  0.65433139042E+02  0.25500000000E-02 0.  1.
         -2   -1    0    0    0  501 -0.00000000000E+00 -0.00000000000E+00 -0.15541573876E+03  0.15541573878E+03  0.25500000000E-02 0. -1.
    5000001    1    1    2    0    0  0.16529709361E+01 -0.59236021388E+02 -0.74550558543E+02  0.12246805429E+03  0.77000000000E+02 0.  0.
   -5000001    1    1    2    0    0 -0.16529709361E+01  0.59236021388E+02 -0.15432041225E+02  0.98380823533E+02  0.77000000000E+02 0.  0.
<mgrwt>
<rscale>  0 0.20168629E+03</rscale>
<asrwt>0</asrwt>
<pdfrwt beam="1">  1        2 0.93475914E-02 0.20168629E+03</pdfrwt>
<pdfrwt beam="2">  1       -2 0.22202248E-01 0.20168629E+03</pdfrwt>
<totfact> 0.11824793E+04</totfact>
</mgrwt>
</event>
<event>
 4    1  0.6782240E-004  0.4573158E+03  0.7818608E-02  0.1025563E+00
         -2   -1    0    0    0  501 -0.00000000000E+00  0.00000000000E+00  0.22616507373E+02  0.22616507517E+02  0.25500000000E-02 0. -1.
          2   -1    0    0  501    0  0.00000000000E+00 -0.00000000000E+00 -0.23117815726E+04  0.23117815726E+04  0.25500000000E-02 0.  1.
    5000001    1    1    2    0    0  0.91737226013E+00 -0.17883200489E+03 -0.17565706714E+04  0.17673288463E+04  0.77000000000E+02 0.  0.
   -5000001    1    1    2    0    0 -0.91737226013E+00  0.17883200489E+03 -0.53259439388E+03  0.56706923382E+03  0.77000000000E+02 0.  0.
<mgrwt>
<rscale>  0 0.45731576E+03</rscale>
<asrwt>0</asrwt>
<pdfrwt beam="1">  1        2 0.33025436E+00 0.45731576E+03</pdfrwt>
<pdfrwt beam="2">  1       -2 0.32309311E-02 0.45731576E+03</pdfrwt>
<totfact> 0.23308144E+03</totfact>
</mgrwt>
</event>
<event>
 4    1  0.6782240E-004  0.1907327E+03  0.7818608E-02  0.1157802E+00
         -2   -1    0    0    0  501 -0.00000000000E+00  0.00000000000E+00  0.24934427279E+02  0.24934427410E+02  0.25500000000E-02 0. -1.
          2   -1    0    0  501    0  0.00000000000E+00 -0.00000000000E+00 -0.36474616728E+03  0.36474616729E+03  0.25500000000E-02 0.  1.
    5000001    1    1    2    0    0 -0.13423241670E+02 -0.51025697011E+02 -0.12997796407E+03  0.16002211196E+03  0.77000000000E+02 0.  0.
   -5000001    1    1    2    0    0  0.13423241670E+02  0.51025697011E+02 -0.20983377594E+03  0.22965848275E+03  0.77000000000E+02 0.  0.
<mgrwt>
<rscale>  0 0.19073266E+03</rscale>
<asrwt>0</asrwt>
<pdfrwt beam="1">  1        2 0.52106592E-01 0.19073266E+03</pdfrwt>
<pdfrwt beam="2">  1       -2 0.35620613E-02 0.19073266E+03</pdfrwt>
<totfact> 0.30121797E+04</totfact>
</mgrwt>
</event>
<event>
 4    1  0.6782240E-004  0.2895716E+03  0.7818608E-02  0.1090573E+00
          2   -1    0    0  501    0  0.00000000000E+00  0.00000000000E+00  0.76913075329E+03  0.76913075330E+03  0.25500000000E-02 0.  1.
         -2   -1    0    0    0  501 -0.00000000000E+00 -0.00000000000E+00 -0.27255351730E+02  0.27255351849E+02  0.25500000000E-02 0. -1.
    5000001    1    1    2    0    0  0.37869934198E+02 -0.11439508611E+03  0.30861245897E+03  0.34013382289E+03  0.77000000000E+02 0.  0.
   -5000001    1    1    2    0    0 -0.37869934198E+02  0.11439508611E+03  0.43326294259E+03  0.45625228225E+03  0.77000000000E+02 0.  0.
<mgrwt>
<rscale>  0 0.28957161E+03</rscale>
<asrwt>0</asrwt>
<pdfrwt beam="1">  1        2 0.10987583E+00 0.28957161E+03</pdfrwt>
<pdfrwt beam="2">  1       -2 0.38936213E-02 0.28957161E+03</pdfrwt>
<totfact> 0.11697694E+04</totfact>
</mgrwt>
</event>
<event>
 4    1  0.6782240E-004  0.2829217E+03  0.7818608E-02  0.1094104E+00
         -2   -1    0    0    0  501 -0.00000000000E+00  0.00000000000E+00  0.50768465891E+02  0.50768465955E+02  0.25500000000E-02 0. -1.
          2   -1    0    0  501    0  0.00000000000E+00 -0.00000000000E+00 -0.39416526944E+03  0.39416526945E+03  0.25500000000E-02 0.  1.
    5000001    1    1    2    0    0 -0.83343659173E+02 -0.26460298887E+02 -0.29786145885E+03  0.31983864934E+03  0.77000000000E+02 0.  0.
   -5000001    1    1    2    0    0  0.83343659173E+02  0.26460298887E+02 -0.45535344701E+02  0.12509508607E+03  0.77000000000E+02 0.  0.
<mgrwt>
<rscale>  0 0.28292166E+03</rscale>
<asrwt>0</asrwt>
<pdfrwt beam="1">  1        2 0.56309323E-01 0.28292166E+03</pdfrwt>
<pdfrwt beam="2">  1       -2 0.72526382E-02 0.28292166E+03</pdfrwt>
<totfact> 0.96486254E+03</totfact>
</mgrwt>
</event>
<event>
 4    1  0.6782240E-004  0.1946627E+03  0.7818608E-02  0.1154322E+00
         -2   -1    0    0    0  501 -0.00000000000E+00  0.00000000000E+00  0.45233033654E+02  0.45233033726E+02  0.25500000000E-02 0. -1.
          2   -1    0    0  501    0  0.00000000000E+00 -0.00000000000E+00 -0.20943533505E+03  0.20943533506E+03  0.25500000000E-02 0.  1.
    5000001    1    1    2    0    0 -0.41024660704E+02  0.27359445985E+02 -0.38458886892E+02  0.99195000133E+02  0.77000000000E+02 0.  0.
   -5000001    1    1    2    0    0  0.41024660704E+02 -0.27359445985E+02 -0.12574341450E+03  0.15547336865E+03  0.77000000000E+02 0.  0.
<mgrwt>
<rscale>  0 0.19466274E+03</rscale>
<asrwt>0</asrwt>
<pdfrwt beam="1">  1        2 0.29919333E-01 0.19466274E+03</pdfrwt>
<pdfrwt beam="2">  1       -2 0.64618621E-02 0.19466274E+03</pdfrwt>
<totfact> 0.22302221E+04</totfact>
</mgrwt>
</event>
<event>
 4    1  0.6782240E-004  0.2230307E+03  0.7818608E-02  0.1131643E+00
         -2   -1    0    0    0  501 -0.00000000000E+00  0.00000000000E+00  0.38535699399E+03  0.38535699400E+03  0.25500000000E-02 0. -1.
          2   -1    0    0  501    0  0.00000000000E+00 -0.00000000000E+00 -0.32270540283E+02  0.32270540384E+02  0.25500000000E-02 0.  1.
    5000001    1    1    2    0    0 -0.26090483382E+02  0.56413468131E+02  0.80268372414E+02  0.12741744119E+03  0.77000000000E+02 0.  0.
   -5000001    1    1    2    0    0  0.26090483382E+02 -0.56413468131E+02  0.27281808129E+03  0.29021009319E+03  0.77000000000E+02 0.  0.
<mgrwt>
<rscale>  0 0.22303075E+03</rscale>
<asrwt>0</asrwt>
<pdfrwt beam="1">  1        2 0.46100776E-02 0.22303075E+03</pdfrwt>
<pdfrwt beam="2">  1       -2 0.55050994E-01 0.22303075E+03</pdfrwt>
<totfact> 0.54389966E+03</totfact>
</mgrwt>
</event>
<event>
 4    1  0.6782240E-004  0.1877398E+03  0.7818608E-02  0.1160516E+00
          2   -1    0    0  501    0  0.00000000000E+00  0.00000000000E+00  0.17960829281E+04  0.17960829281E+04  0.25500000000E-02 0.  1.
         -2   -1    0    0    0  501 -0.00000000000E+00 -0.00000000000E+00 -0.49059870056E+01  0.49059876683E+01  0.25500000000E-02 0. -1.
    5000001    1    1    2    0    0 -0.15881485972E+02  0.46208230870E+02  0.68212786900E+03  0.68819681187E+03  0.77000000000E+02 0.  0.
   -5000001    1    1    2    0    0  0.15881485972E+02 -0.46208230870E+02  0.11090490721E+04  0.11127921039E+04  0.77000000000E+02 0.  0.
<mgrwt>
<rscale>  0 0.18773982E+03</rscale>
<asrwt>0</asrwt>
<pdfrwt beam="1">  1        2 0.25658406E+00 0.18773982E+03</pdfrwt>
<pdfrwt beam="2">  1       -2 0.70085319E-03 0.18773982E+03</pdfrwt>
<totfact> 0.38792231E+04</totfact>
</mgrwt>
</event>
<event>
 4    1  0.6782240E-004  0.4047874E+03  0.7818608E-02  0.1042134E+00
         -2   -1    0    0    0  501 -0.00000000000E+00  0.00000000000E+00  0.44008505684E+02  0.44008505758E+02  0.25500000000E-02 0. -1.
          2   -1    0    0  501    0  0.00000000000E+00 -0.00000000000E+00 -0.93080211523E+03  0.93080211523E+03  0.25500000000E-02 0.  1.
    5000001    1    1    2    0    0 -0.83919390333E+02  0.12506733029E+03 -0.71102085805E+03  0.73086521450E+03  0.77000000000E+02 0.  0.
   -5000001    1    1    2    0    0  0.83919390333E+02 -0.12506733029E+03 -0.17577275149E+03  0.24394540649E+03  0.77000000000E+02 0.  0.
<mgrwt>
<rscale>  0 0.40478740E+03</rscale>
<asrwt>0</asrwt>
<pdfrwt beam="1">  1        2 0.13297172E+00 0.40478740E+03</pdfrwt>
<pdfrwt beam="2">  1       -2 0.62869300E-02 0.40478740E+03</pdfrwt>
<totfact> 0.44439878E+03</totfact>
</mgrwt>
</event>
<event>
 4    1  0.6782240E-004  0.2087285E+03  0.7818608E-02  0.1142577E+00
          2   -1    0    0  501    0  0.00000000000E+00  0.00000000000E+00  0.10561405122E+04  0.10561405122E+04  0.25500000000E-02 0.  1.
         -2   -1    0    0    0  501 -0.00000000000E+00 -0.00000000000E+00 -0.10312923947E+02  0.10312924262E+02  0.25500000000E-02 0. -1.
    5000001    1    1    2    0    0 -0.24797778647E+02 -0.20252904223E+02  0.20229701230E+03  0.21881085700E+03  0.77000000000E+02 0.  0.
   -5000001    1    1    2    0    0  0.24797778647E+02  0.20252904223E+02  0.84353057591E+03  0.84764257942E+03  0.77000000000E+02 0.  0.
<mgrwt>
<rscale>  0 0.20872850E+03</rscale>
<asrwt>0</asrwt>
<pdfrwt beam="1">  1        2 0.15087729E+00 0.20872850E+03</pdfrwt>
<pdfrwt beam="2">  1       -2 0.14732741E-02 0.20872850E+03</pdfrwt>
<totfact> 0.32014971E+04</totfact>
</mgrwt>
</event>
<event>
 4    1  0.6782240E-004  0.2507076E+03  0.7818608E-02  0.1112858E+00
          2   -1    0    0  501    0  0.00000000000E+00  0.00000000000E+00  0.64006395387E+03  0.64006395387E+03  0.25500000000E-02 0.  1.
         -2   -1    0    0    0  501 -0.00000000000E+00 -0.00000000000E+00 -0.24550005169E+02  0.24550005301E+02  0.25500000000E-02 0. -1.
    5000001    1    1    2    0    0  0.89587564462E+02  0.38086921067E+02  0.35428313261E+03  0.37539590210E+03  0.77000000000E+02 0.  0.
   -5000001    1    1    2    0    0 -0.89587564462E+02 -0.38086921067E+02  0.26123081609E+03  0.28921805707E+03  0.77000000000E+02 0.  0.
<mgrwt>
<rscale>  0 0.25070759E+03</rscale>
<asrwt>0</asrwt>
<pdfrwt beam="1">  1        2 0.91437691E-01 0.25070759E+03</pdfrwt>
<pdfrwt beam="2">  1       -2 0.35071442E-02 0.25070759E+03</pdfrwt>
<totfact> 0.16910841E+04</totfact>
</mgrwt>
</event>
<event>
 4    1  0.6782240E-004  0.2516971E+03  0.7818608E-02  0.1112237E+00
         -2   -1    0    0    0  501 -0.00000000000E+00  0.00000000000E+00  0.28460715638E+02  0.28460715752E+02  0.25500000000E-02 0. -1.
          2   -1    0    0  501    0  0.00000000000E+00 -0.00000000000E+00 -0.55648149709E+03  0.55648149709E+03  0.25500000000E-02 0.  1.
    5000001    1    1    2    0    0  0.96425592588E+02 -0.34374706317E+01 -0.20712474609E+03  0.24112107240E+03  0.77000000000E+02 0.  0.
   -5000001    1    1    2    0    0 -0.96425592588E+02  0.34374706317E+01 -0.32089603536E+03  0.34382114045E+03  0.77000000000E+02 0.  0.
<mgrwt>
<rscale>  0 0.25169713E+03</rscale>
<asrwt>0</asrwt>
<pdfrwt beam="1">  1        2 0.79497350E-01 0.25169713E+03</pdfrwt>
<pdfrwt beam="2">  1       -2 0.40658169E-02 0.25169713E+03</pdfrwt>
<totfact> 0.15894724E+04</totfact>
</mgrwt>
</event>
<event>
 4    1  0.6782240E-004  0.1914171E+03  0.7818608E-02  0.1157189E+00
          2   -1    0    0  501    0  0.00000000000E+00  0.00000000000E+00  0.54915209980E+03  0.54915209981E+03  0.25500000000E-02 0.  1.
         -2   -1    0    0    0  501 -0.00000000000E+00 -0.00000000000E+00 -0.16680493140E+02  0.16680493335E+02  0.25500000000E-02 0. -1.
    5000001    1    1    2    0    0  0.55696698891E+02 -0.75582321597E+01  0.24117428075E+03  0.25933237908E+03  0.77000000000E+02 0.  0.
   -5000001    1    1    2    0    0 -0.55696698891E+02  0.75582321597E+01  0.29129732591E+03  0.30650021407E+03  0.77000000000E+02 0.  0.
<mgrwt>
<rscale>  0 0.19141711E+03</rscale>
<asrwt>0</asrwt>
<pdfrwt beam="1">  1        2 0.78450310E-01 0.19141711E+03</pdfrwt>
<pdfrwt beam="2">  1       -2 0.23829273E-02 0.19141711E+03</pdfrwt>
<totfact> 0.35005966E+04</totfact>
</mgrwt>
</event>
<event>
 4    1  0.6782240E-004  0.3064140E+03  0.7818608E-02  0.1082078E+00
         -2   -1    0    0    0  501 -0.00000000000E+00  0.00000000000E+00  0.28439834665E+02  0.28439834779E+02  0.25500000000E-02 0.  1.
          2   -1    0    0  501    0  0.00000000000E+00 -0.00000000000E+00 -0.82533454506E+03  0.82533454506E+03  0.25500000000E-02 0. -1.
    5000001    1    1    2    0    0  0.11268492690E+03  0.30409085031E+02 -0.57291721743E+03  0.58973362057E+03  0.77000000000E+02 0.  0.
   -5000001    1    1    2    0    0 -0.11268492690E+03 -0.30409085031E+02 -0.22397749296E+03  0.26404075927E+03  0.77000000000E+02 0.  0.
<mgrwt>
<rscale>  0 0.30641396E+03</rscale>
<asrwt>0</asrwt>
<pdfrwt beam="1">  1        2 0.11790492E+00 0.30641396E+03</pdfrwt>
<pdfrwt beam="2">  1       -2 0.40628340E-02 0.30641396E+03</pdfrwt>
<totfact> 0.10071497E+04</totfact>
</mgrwt>
</event>
<event>
 4    1  0.6782240E-004  0.5020646E+03  0.7818608E-02  0.1013241E+00
          2   -1    0    0  501    0  0.00000000000E+00  0.00000000000E+00  0.50393457950E+03  0.50393457950E+03  0.25500000000E-02 0.  1.
         -2   -1    0    0    0  501 -0.00000000000E+00 -0.00000000000E+00 -0.12505039196E+03  0.12505039198E+03  0.25500000000E-02 0. -1.
    5000001    1    1    2    0    0  0.43113011516E+02 -0.21206729443E+03  0.62563098131E+02  0.23806387877E+03  0.77000000000E+02 0.  0.
   -5000001    1    1    2    0    0 -0.43113011516E+02  0.21206729443E+03  0.31632108941E+03  0.39092109272E+03  0.77000000000E+02 0.  0.
<mgrwt>
<rscale>  0 0.50206460E+03</rscale>
<asrwt>0</asrwt>
<pdfrwt beam="1">  1        2 0.71990653E-01 0.50206460E+03</pdfrwt>
<pdfrwt beam="2">  1       -2 0.17864342E-01 0.50206460E+03</pdfrwt>
<totfact> 0.17224604E+03</totfact>
</mgrwt>
</event>
<event>
 4    1  0.6782240E-004  0.2866780E+03  0.7818608E-02  0.1092096E+00
          2   -1    0    0  501    0  0.00000000000E+00  0.00000000000E+00  0.71111094511E+03  0.71111094512E+03  0.25500000000E-02 0.  1.
         -2   -1    0    0    0  501 -0.00000000000E+00 -0.00000000000E+00 -0.28892924059E+02  0.28892924171E+02  0.25500000000E-02 0. -1.
    5000001    1    1    2    0    0 -0.10457786441E+03 -0.37965365694E+02  0.21896176816E+03  0.25739299647E+03  0.77000000000E+02 0.  0.
   -5000001    1    1    2    0    0  0.10457786441E+03  0.37965365694E+02  0.46325625289E+03  0.48261087282E+03  0.77000000000E+02 0.  0.
<mgrwt>
<rscale>  0 0.28667804E+03</rscale>
<asrwt>0</asrwt>
<pdfrwt beam="1">  1        2 0.10158728E+00 0.28667804E+03</pdfrwt>
<pdfrwt beam="2">  1       -2 0.41275604E-02 0.28667804E+03</pdfrwt>
<totfact> 0.11774722E+04</totfact>
</mgrwt>
</event>
<event>
 4    1  0.6782240E-004  0.2958919E+03  0.7818608E-02  0.1087312E+00
         -2   -1    0    0    0  501 -0.00000000000E+00  0.00000000000E+00  0.55927762626E+02  0.55927762685E+02  0.25500000000E-02 0. -1.
          2   -1    0    0  501    0  0.00000000000E+00 -0.00000000000E+00 -0.39136204866E+03  0.39136204867E+03  0.25500000000E-02 0.  1.
    5000001    1    1    2    0    0  0.10835360081E+03  0.64459497668E+02 -0.17976068668E+03  0.23267667293E+03  0.77000000000E+02 0.  0.
   -5000001    1    1    2    0    0 -0.10835360081E+03 -0.64459497668E+02 -0.15567359935E+03  0.21461313843E+03  0.77000000000E+02 0.  0.
<mgrwt>
<rscale>  0 0.29589190E+03</rscale>
<asrwt>0</asrwt>
<pdfrwt beam="1">  1        2 0.55908862E-01 0.29589190E+03</pdfrwt>
<pdfrwt beam="2">  1       -2 0.79896806E-02 0.29589190E+03</pdfrwt>
<totfact> 0.83758452E+03</totfact>
</mgrwt>
</event>
<event>
 4    1  0.6782240E-004  0.2801912E+03  0.7818608E-02  0.1095585E+00
          2   -1    0    0  501    0  0.00000000000E+00  0.00000000000E+00  0.10047344956E+04  0.10047344956E+04  0.25500000000E-02 0.  1.
         -2   -1    0    0    0  501 -0.00000000000E+00 -0.00000000000E+00 -0.19534285148E+02  0.19534285314E+02  0.25500000000E-02 0. -1.
    5000001    1    1    2    0    0  0.35812815389E+02 -0.11140001997E+03  0.50097457857E+03  0.52018943719E+03  0.77000000000E+02 0.  0.
   -5000001    1    1    2    0    0 -0.35812815389E+02  0.11140001997E+03  0.48422563184E+03  0.50407934368E+03  0.77000000000E+02 0.  0.
<mgrwt>
<rscale>  0 0.28019115E+03</rscale>
<asrwt>0</asrwt>
<pdfrwt beam="1">  1        2 0.14353352E+00 0.28019115E+03</pdfrwt>
<pdfrwt beam="2">  1       -2 0.27906117E-02 0.28019115E+03</pdfrwt>
<totfact> 0.13624361E+04</totfact>
</mgrwt>
</event>
<event>
 4    1  0.6782240E-004  0.2542067E+03  0.7818608E-02  0.1110675E+00
          2   -1    0    0  501    0  0.00000000000E+00  0.00000000000E+00  0.22730507193E+03  0.22730507195E+03  0.25500000000E-02 0.  1.
         -2   -1    0    0    0  501 -0.00000000000E+00 -0.00000000000E+00 -0.71073010885E+02  0.71073010931E+02  0.25500000000E-02 0. -1.
    5000001    1    1    2    0    0 -0.79211088392E+02 -0.61711856785E+02  0.92176995838E+02  0.15655142399E+03  0.77000000000E+02 0.  0.
   -5000001    1    1    2    0    0  0.79211088392E+02  0.61711856785E+02  0.64055065211E+02  0.14182665889E+03  0.77000000000E+02 0.  0.
<mgrwt>
<rscale>  0 0.25420665E+03</rscale>
<asrwt>0</asrwt>
<pdfrwt beam="1">  1        2 0.32472153E-01 0.25420665E+03</pdfrwt>
<pdfrwt beam="2">  1       -2 0.10153287E-01 0.25420665E+03</pdfrwt>
<totfact> 0.10255992E+04</totfact>
</mgrwt>
</event>
<event>
 4    1  0.6782240E-004  0.1125624E+04  0.7818608E-02  0.9180570E-01
          2   -1    0    0  501    0  0.00000000000E+00  0.00000000000E+00  0.19252776097E+04  0.19252776097E+04  0.25500000000E-02 0.  1.
         -2   -1    0    0    0  501 -0.00000000000E+00 -0.00000000000E+00 -0.16452565759E+03  0.16452565761E+03  0.25500000000E-02 0. -1.
    5000001    1    1    2    0    0  0.54383871394E+03  0.89423426127E+02  0.72425303368E+03  0.91336112941E+03  0.77000000000E+02 0.  0.
   -5000001    1    1    2    0    0 -0.54383871394E+03 -0.89423426127E+02  0.10364989185E+04  0.11764421379E+04  0.77000000000E+02 0.  0.
<mgrwt>
<rscale>  0 0.11256244E+04</rscale>
<asrwt>0</asrwt>
<pdfrwt beam="1">  1        2 0.27503965E+00 0.11256244E+04</pdfrwt>
<pdfrwt beam="2">  1       -2 0.23503666E-01 0.11256244E+04</pdfrwt>
<totfact> 0.13942562E+02</totfact>
</mgrwt>
</event>
<event>
 4    1  0.6782240E-004  0.1667858E+03  0.7818608E-02  0.1181242E+00
          2   -1    0    0  501    0  0.00000000000E+00  0.00000000000E+00  0.23409961198E+04  0.23409961198E+04  0.25500000000E-02 0.  1.
         -2   -1    0    0    0  501 -0.00000000000E+00 -0.00000000000E+00 -0.29706889053E+01  0.29706899997E+01  0.25500000000E-02 0. -1.
    5000001    1    1    2    0    0  0.31890589334E+02 -0.18383452249E+01  0.11376401318E+04  0.11406903430E+04  0.77000000000E+02 0.  0.
   -5000001    1    1    2    0    0 -0.31890589334E+02  0.18383452249E+01  0.12003852991E+04  0.12032764668E+04  0.77000000000E+02 0.  0.
<mgrwt>
<rscale>  0 0.16678576E+03</rscale>
<asrwt>0</asrwt>
<pdfrwt beam="1">  1        2 0.33442783E+00 0.16678576E+03</pdfrwt>
<pdfrwt beam="2">  1       -2 0.42438444E-03 0.16678576E+03</pdfrwt>
<totfact> 0.43084830E+04</totfact>
</mgrwt>
</event>
<event>
 4    1  0.6782240E-004  0.2064286E+03  0.7818608E-02  0.1144426E+00
          2   -1    0    0  501    0  0.00000000000E+00  0.00000000000E+00  0.48063754796E+03  0.48063754797E+03  0.25500000000E-02 0.  1.
         -2   -1    0    0    0  501 -0.00000000000E+00 -0.00000000000E+00 -0.22164720179E+02  0.22164720326E+02  0.25500000000E-02 0. -1.
    5000001    1    1    2    0    0  0.39786340716E+02  0.52743661291E+02  0.27540920544E+03  0.29350311269E+03  0.77000000000E+02 0.  0.
   -5000001    1    1    2    0    0 -0.39786340716E+02 -0.52743661291E+02  0.18306362234E+03  0.20929915561E+03  0.77000000000E+02 0.  0.
<mgrwt>
<rscale>  0 0.20642865E+03</rscale>
<asrwt>0</asrwt>
<pdfrwt beam="1">  1        2 0.68662502E-01 0.20642865E+03</pdfrwt>
<pdfrwt beam="2">  1       -2 0.31663888E-02 0.20642865E+03</pdfrwt>
<totfact> 0.26812422E+04</totfact>
</mgrwt>
</event>
<event>
 4    1  0.6782240E-004  0.2656259E+03  0.7818608E-02  0.1103809E+00
          2   -1    0    0  501    0  0.00000000000E+00  0.00000000000E+00  0.13971987747E+03  0.13971987749E+03  0.25500000000E-02 0.  1.
         -2   -1    0    0    0  501 -0.00000000000E+00 -0.00000000000E+00 -0.12624743316E+03  0.12624743318E+03  0.25500000000E-02 0. -1.
    5000001    1    1    2    0    0  0.83004391929E+02 -0.65925686158E+02  0.28543812155E+02  0.13408830817E+03  0.77000000000E+02 0.  0.
   -5000001    1    1    2    0    0 -0.83004391929E+02  0.65925686158E+02 -0.15071367842E+02  0.13187900251E+03  0.77000000000E+02 0.  0.
<mgrwt>
<rscale>  0 0.26562587E+03</rscale>
<asrwt>0</asrwt>
<pdfrwt beam="1">  1        2 0.19959982E-01 0.26562587E+03</pdfrwt>
<pdfrwt beam="2">  1       -2 0.18035348E-01 0.26562587E+03</pdfrwt>
<totfact> 0.69129649E+03</totfact>
</mgrwt>
</event>
<event>
 4    1  0.6782240E-004  0.2008171E+03  0.7818608E-02  0.1149051E+00
          2   -1    0    0  501    0  0.00000000000E+00  0.00000000000E+00  0.55741669192E+02  0.55741669250E+02  0.25500000000E-02 0.  1.
         -2   -1    0    0    0  501 -0.00000000000E+00 -0.00000000000E+00 -0.18086785407E+03  0.18086785409E+03  0.25500000000E-02 0. -1.
    5000001    1    1    2    0    0  0.58384520124E+02 -0.26468311418E+02 -0.70338758233E+02  0.12241676605E+03  0.77000000000E+02 0.  0.
   -5000001    1    1    2    0    0 -0.58384520124E+02  0.26468311418E+02 -0.54787426644E+02  0.11419275729E+03  0.77000000000E+02 0.  0.
<mgrwt>
<rscale>  0 0.20081709E+03</rscale>
<asrwt>0</asrwt>
<pdfrwt beam="1">  1        2 0.79630957E-02 0.20081709E+03</pdfrwt>
<pdfrwt beam="2">  1       -2 0.25838265E-01 0.20081709E+03</pdfrwt>
<totfact> 0.11093399E+04</totfact>
</mgrwt>
</event>
<event>
 4    1  0.6782240E-004  0.2405077E+03  0.7818608E-02  0.1119455E+00
          2   -1    0    0  501    0  0.00000000000E+00  0.00000000000E+00  0.44249623787E+02  0.44249623861E+02  0.25500000000E-02 0.  1.
         -2   -1    0    0    0  501 -0.00000000000E+00 -0.00000000000E+00 -0.32680484411E+03  0.32680484412E+03  0.25500000000E-02 0. -1.
    5000001    1    1    2    0    0 -0.28718688191E+02 -0.77869367853E+02 -0.20382444969E+03  0.23315618755E+03  0.77000000000E+02 0.  0.
   -5000001    1    1    2    0    0  0.28718688191E+02  0.77869367853E+02 -0.78730770632E+02  0.13789828043E+03  0.77000000000E+02 0.  0.
<mgrwt>
<rscale>  0 0.24050772E+03</rscale>
<asrwt>0</asrwt>
<pdfrwt beam="1">  1        2 0.63213750E-02 0.24050772E+03</pdfrwt>
<pdfrwt beam="2">  1       -2 0.46686405E-01 0.24050772E+03</pdfrwt>
<totfact> 0.50167027E+03</totfact>
</mgrwt>
</event>
<event>
 4    1  0.6782240E-004  0.2024909E+03  0.7818608E-02  0.1147654E+00
          2   -1    0    0  501    0  0.00000000000E+00  0.00000000000E+00  0.17670642320E+03  0.17670642322E+03  0.25500000000E-02 0.  1.
         -2   -1    0    0    0  501 -0.00000000000E+00 -0.00000000000E+00 -0.58009455272E+02  0.58009455328E+02  0.25500000000E-02 0. -1.
    5000001    1    1    2    0    0  0.14112649915E+02 -0.52625668525E+02  0.10198564666E+03  0.13891976101E+03  0.77000000000E+02 0.  0.
   -5000001    1    1    2    0    0 -0.14112649915E+02  0.52625668525E+02  0.16711321264E+02  0.95796117529E+02  0.77000000000E+02 0.  0.
<mgrwt>
<rscale>  0 0.20249092E+03</rscale>
<asrwt>0</asrwt>
<pdfrwt beam="1">  1        2 0.25243775E-01 0.20249092E+03</pdfrwt>
<pdfrwt beam="2">  1       -2 0.82870651E-02 0.20249092E+03</pdfrwt>
<totfact> 0.18361092E+04</totfact>
</mgrwt>
</event>
<event>
 4    1  0.6782240E-004  0.2866556E+03  0.7818608E-02  0.1092108E+00
         -2   -1    0    0    0  501 -0.00000000000E+00  0.00000000000E+00  0.27065700014E+02  0.27065700135E+02  0.25500000000E-02 0. -1.
          2   -1    0    0  501    0  0.00000000000E+00 -0.00000000000E+00 -0.75899988274E+03  0.75899988275E+03  0.25500000000E-02 0.  1.
    5000001    1    1    2    0    0  0.11126252792E+03 -0.46929520995E+02 -0.35042266171E+03  0.37855880904E+03  0.77000000000E+02 0.  0.
   -5000001    1    1    2    0    0 -0.11126252792E+03  0.46929520995E+02 -0.38151152102E+03  0.40750677384E+03  0.77000000000E+02 0.  0.
<mgrwt>
<rscale>  0 0.28665563E+03</rscale>
<asrwt>0</asrwt>
<pdfrwt beam="1">  1        2 0.10842854E+00 0.28665563E+03</pdfrwt>
<pdfrwt beam="2">  1       -2 0.38665291E-02 0.28665563E+03</pdfrwt>
<totfact> 0.12009747E+04</totfact>
</mgrwt>
</event>
<event>
 4    1  0.6782240E-004  0.1910642E+03  0.7818608E-02  0.1157505E+00
          2   -1    0    0  501    0  0.00000000000E+00  0.00000000000E+00  0.12321351250E+03  0.12321351253E+03  0.25500000000E-02 0.  1.
         -2   -1    0    0    0  501 -0.00000000000E+00 -0.00000000000E+00 -0.74069652760E+02  0.74069652803E+02  0.25500000000E-02 0. -1.
    5000001    1    1    2    0    0 -0.48344019452E+02  0.28685793031E+02  0.30883428280E+02  0.10021379686E+03  0.77000000000E+02 0.  0.
   -5000001    1    1    2    0    0  0.48344019452E+02 -0.28685793031E+02  0.18260431463E+02  0.97069368473E+02  0.77000000000E+02 0.  0.
<mgrwt>
<rscale>  0 0.19106420E+03</rscale>
<asrwt>0</asrwt>
<pdfrwt beam="1">  1        2 0.17601931E-01 0.19106420E+03</pdfrwt>
<pdfrwt beam="2">  1       -2 0.10581379E-01 0.19106420E+03</pdfrwt>
<totfact> 0.18721114E+04</totfact>
</mgrwt>
</event>
<event>
 4    1  0.6782240E-004  0.7616325E+03  0.7818608E-02  0.9617275E-01
          2   -1    0    0  501    0  0.00000000000E+00  0.00000000000E+00  0.72703378650E+03  0.72703378650E+03  0.25500000000E-02 0.  1.
         -2   -1    0    0    0  501 -0.00000000000E+00 -0.00000000000E+00 -0.19946943427E+03  0.19946943429E+03  0.25500000000E-02 0. -1.
    5000001    1    1    2    0    0  0.21516977725E+03  0.29598537273E+03  0.35139036265E+03  0.51313698062E+03  0.77000000000E+02 0.  0.
   -5000001    1    1    2    0    0 -0.21516977725E+03 -0.29598537273E+03  0.17617398957E+03  0.41336624017E+03  0.77000000000E+02 0.  0.
<mgrwt>
<rscale>  0 0.76163250E+03</rscale>
<asrwt>0</asrwt>
<pdfrwt beam="1">  1        2 0.10386197E+00 0.76163250E+03</pdfrwt>
<pdfrwt beam="2">  1       -2 0.28495634E-01 0.76163250E+03</pdfrwt>
<totfact> 0.48592036E+02</totfact>
</mgrwt>
</event>
<event>
 4    1  0.6782240E-004  0.1845269E+03  0.7818608E-02  0.1163492E+00
          2   -1    0    0  501    0  0.00000000000E+00  0.00000000000E+00  0.13642411267E+03  0.13642411269E+03  0.25500000000E-02 0.  1.
         -2   -1    0    0    0  501 -0.00000000000E+00 -0.00000000000E+00 -0.62397641088E+02  0.62397641140E+02  0.25500000000E-02 0. -1.
    5000001    1    1    2    0    0  0.24023737210E+02  0.37484248327E+02  0.10591452203E+02  0.89573364802E+02  0.77000000000E+02 0.  0.
   -5000001    1    1    2    0    0 -0.24023737210E+02 -0.37484248327E+02  0.63435019374E+02  0.10924838903E+03  0.77000000000E+02 0.  0.
<mgrwt>
<rscale>  0 0.18452689E+03</rscale>
<asrwt>0</asrwt>
<pdfrwt beam="1">  1        2 0.19489158E-01 0.18452689E+03</pdfrwt>
<pdfrwt beam="2">  1       -2 0.89139490E-02 0.18452689E+03</pdfrwt>
<totfact> 0.21760809E+04</totfact>
</mgrwt>
</event>
<event>
 4    1  0.6782240E-004  0.3593962E+03  0.7818608E-02  0.1058823E+00
         -2   -1    0    0    0  501 -0.00000000000E+00  0.00000000000E+00  0.19032932089E+02  0.19032932260E+02  0.25500000000E-02 0. -1.
          2   -1    0    0  501    0  0.00000000000E+00 -0.00000000000E+00 -0.16966067384E+04  0.16966067384E+04  0.25500000000E-02 0.  1.
    5000001    1    1    2    0    0 -0.15971063613E+03  0.24601846024E+02 -0.76335942088E+03  0.78406590512E+03  0.77000000000E+02 0.  0.
   -5000001    1    1    2    0    0  0.15971063613E+03 -0.24601846024E+02 -0.91421438546E+03  0.93157376557E+03  0.77000000000E+02 0.  0.
<mgrwt>
<rscale>  0 0.35939617E+03</rscale>
<asrwt>0</asrwt>
<pdfrwt beam="1">  1        2 0.24237230E+00 0.35939617E+03</pdfrwt>
<pdfrwt beam="2">  1       -2 0.27189914E-02 0.35939617E+03</pdfrwt>
<totfact> 0.61187859E+03</totfact>
</mgrwt>
</event>
<event>
 4    1  0.6782240E-004  0.2813426E+03  0.7818608E-02  0.1094958E+00
          2   -1    0    0  501    0  0.00000000000E+00  0.00000000000E+00  0.28602820951E+03  0.28602820952E+03  0.25500000000E-02 0.  1.
         -2   -1    0    0    0  501 -0.00000000000E+00 -0.00000000000E+00 -0.69183454926E+02  0.69183454973E+02  0.25500000000E-02 0. -1.
    5000001    1    1    2    0    0 -0.60467512146E+02  0.44559387286E+02  0.22287430906E+03  0.24747488086E+03  0.77000000000E+02 0.  0.
   -5000001    1    1    2    0    0  0.60467512146E+02 -0.44559387286E+02 -0.60295544715E+01  0.10773678363E+03  0.77000000000E+02 0.  0.
<mgrwt>
<rscale>  0 0.28134264E+03</rscale>
<asrwt>0</asrwt>
<pdfrwt beam="1">  1        2 0.40861173E-01 0.28134264E+03</pdfrwt>
<pdfrwt beam="2">  1       -2 0.98833507E-02 0.28134264E+03</pdfrwt>
<totfact> 0.83840333E+03</totfact>
</mgrwt>
</event>
<event>
 4    1  0.6782240E-004  0.7231265E+03  0.7818608E-02  0.9678480E-01
          2   -1    0    0  501    0  0.00000000000E+00  0.00000000000E+00  0.11565396903E+04  0.11565396903E+04  0.25500000000E-02 0.  1.
         -2   -1    0    0    0  501 -0.00000000000E+00 -0.00000000000E+00 -0.11303372440E+03  0.11303372443E+03  0.25500000000E-02 0. -1.
    5000001    1    1    2    0    0 -0.21269184217E+03  0.27011758216E+03  0.37914674478E+03  0.51757374546E+03  0.77000000000E+02 0.  0.
   -5000001    1    1    2    0    0  0.21269184217E+03 -0.27011758216E+03  0.66435922115E+03  0.75199966931E+03  0.77000000000E+02 0.  0.
<mgrwt>
<rscale>  0 0.72312651E+03</rscale>
<asrwt>0</asrwt>
<pdfrwt beam="1">  1        2 0.16521995E+00 0.72312651E+03</pdfrwt>
<pdfrwt beam="2">  1       -2 0.16147675E-01 0.72312651E+03</pdfrwt>
<totfact> 0.70346293E+02</totfact>
</mgrwt>
</event>
<event>
 4    1  0.6782240E-004  0.2446206E+03  0.7818608E-02  0.1116752E+00
          2   -1    0    0  501    0  0.00000000000E+00  0.00000000000E+00  0.14056211458E+04  0.14056211458E+04  0.25500000000E-02 0.  1.
         -2   -1    0    0    0  501 -0.00000000000E+00 -0.00000000000E+00 -0.10642842035E+02  0.10642842340E+02  0.25500000000E-02 0. -1.
    5000001    1    1    2    0    0 -0.60304001647E+02 -0.50512575201E+02  0.10061756487E+04  0.10121790992E+04  0.77000000000E+02 0.  0.
   -5000001    1    1    2    0    0  0.60304001647E+02  0.50512575201E+02  0.38880265509E+03  0.40408488894E+03  0.77000000000E+02 0.  0.
<mgrwt>
<rscale>  0 0.24462056E+03</rscale>
<asrwt>0</asrwt>
<pdfrwt beam="1">  1        2 0.20080318E+00 0.24462056E+03</pdfrwt>
<pdfrwt beam="2">  1       -2 0.15204048E-02 0.24462056E+03</pdfrwt>
<totfact> 0.20041138E+04</totfact>
</mgrwt>
</event>
<event>
 4    1  0.6782240E-004  0.2667231E+03  0.7818608E-02  0.1103170E+00
         -2   -1    0    0    0  501 -0.00000000000E+00  0.00000000000E+00  0.36712483671E+02  0.36712483759E+02  0.25500000000E-02 0. -1.
          2   -1    0    0  501    0  0.00000000000E+00 -0.00000000000E+00 -0.48444826584E+03  0.48444826585E+03  0.25500000000E-02 0.  1.
    5000001    1    1    2    0    0 -0.20589902282E+02  0.67461037061E+02 -0.38595495938E+03  0.39983142231E+03  0.77000000000E+02 0.  0.
   -5000001    1    1    2    0    0  0.20589902282E+02 -0.67461037061E+02 -0.61780822789E+02  0.12132932729E+03  0.77000000000E+02 0.  0.
<mgrwt>
<rscale>  0 0.26672307E+03</rscale>
<asrwt>0</asrwt>
<pdfrwt beam="1">  1        2 0.69206891E-01 0.26672307E+03</pdfrwt>
<pdfrwt beam="2">  1       -2 0.52446408E-02 0.26672307E+03</pdfrwt>
<totfact> 0.12651794E+04</totfact>
</mgrwt>
</event>
<event>
 4    1  0.6782240E-004  0.1764060E+03  0.7818608E-02  0.1171327E+00
         -2   -1    0    0    0  501 -0.00000000000E+00  0.00000000000E+00  0.19256319552E+02  0.19256319721E+02  0.25500000000E-02 0. -1.
          2   -1    0    0  501    0  0.00000000000E+00 -0.00000000000E+00 -0.40401114001E+03  0.40401114002E+03  0.25500000000E-02 0.  1.
    5000001    1    1    2    0    0  0.42619945936E+02  0.95477665978E+00 -0.17851143238E+03  0.19902940205E+03  0.77000000000E+02 0.  0.
   -5000001    1    1    2    0    0 -0.42619945936E+02 -0.95477665978E+00 -0.20624338808E+03  0.22423805769E+03  0.77000000000E+02 0.  0.
<mgrwt>
<rscale>  0 0.17640598E+03</rscale>
<asrwt>0</asrwt>
<pdfrwt beam="1">  1        2 0.57715872E-01 0.17640598E+03</pdfrwt>
<pdfrwt beam="2">  1       -2 0.27509031E-02 0.17640598E+03</pdfrwt>
<totfact> 0.39299011E+04</totfact>
</mgrwt>
</event>
<event>
 4    1  0.6782240E-004  0.2907111E+03  0.7818608E-02  0.1089978E+00
          2   -1    0    0  501    0  0.00000000000E+00  0.00000000000E+00  0.10193727134E+02  0.10193727453E+02  0.25500000000E-02 0.  1.
         -2   -1    0    0    0  501 -0.00000000000E+00 -0.00000000000E+00 -0.20726701221E+04  0.20726701221E+04  0.25500000000E-02 0. -1.
    5000001    1    1    2    0    0  0.22857064042E+02  0.11181689730E+03 -0.69719233804E+03  0.71065576767E+03  0.77000000000E+02 0.  0.
   -5000001    1    1    2    0    0 -0.22857064042E+02 -0.11181689730E+03 -0.13652840570E+04  0.13722080819E+04  0.77000000000E+02 0.  0.
<mgrwt>
<rscale>  0 0.29071109E+03</rscale>
<asrwt>0</asrwt>
<pdfrwt beam="1">  1        2 0.14562481E-02 0.29071109E+03</pdfrwt>
<pdfrwt beam="2">  1       -2 0.29609546E+00 0.29071109E+03</pdfrwt>
<totfact> 0.32873313E+02</totfact>
</mgrwt>
</event>
<event>
 4    1  0.6782240E-004  0.2050006E+03  0.7818608E-02  0.1145587E+00
          2   -1    0    0  501    0  0.00000000000E+00  0.00000000000E+00  0.23507295970E+02  0.23507296109E+02  0.25500000000E-02 0.  1.
         -2   -1    0    0    0  501 -0.00000000000E+00 -0.00000000000E+00 -0.44693820790E+03  0.44693820791E+03  0.25500000000E-02 0. -1.
    5000001    1    1    2    0    0 -0.34898031319E+02  0.50836788903E+02 -0.27560372010E+03  0.29272625818E+03  0.77000000000E+02 0.  0.
   -5000001    1    1    2    0    0  0.34898031319E+02 -0.50836788903E+02 -0.14782719183E+03  0.17771924584E+03  0.77000000000E+02 0.  0.
<mgrwt>
<rscale>  0 0.20500057E+03</rscale>
<asrwt>0</asrwt>
<pdfrwt beam="1">  1        2 0.33581854E-02 0.20500057E+03</pdfrwt>
<pdfrwt beam="2">  1       -2 0.63848310E-01 0.20500057E+03</pdfrwt>
<totfact> 0.60891974E+03</totfact>
</mgrwt>
</event>
<event>
 4    1  0.6782240E-004  0.1766621E+03  0.7818608E-02  0.1171073E+00
         -2   -1    0    0    0  501 -0.00000000000E+00  0.00000000000E+00  0.46527149077E+02  0.46527149147E+02  0.25500000000E-02 0. -1.
          2   -1    0    0  501    0  0.00000000000E+00 -0.00000000000E+00 -0.16769514032E+03  0.16769514034E+03  0.25500000000E-02 0.  1.
    5000001    1    1    2    0    0 -0.68629388356E+01  0.38285823531E+02 -0.37561238912E+02  0.94089058245E+02  0.77000000000E+02 0.  0.
   -5000001    1    1    2    0    0  0.68629388356E+01 -0.38285823531E+02 -0.83606752327E+02  0.12013323124E+03  0.77000000000E+02 0.  0.
<mgrwt>
<rscale>  0 0.17666213E+03</rscale>
<asrwt>0</asrwt>
<pdfrwt beam="1">  1        2 0.23956448E-01 0.17666213E+03</pdfrwt>
<pdfrwt beam="2">  1       -2 0.66467357E-02 0.17666213E+03</pdfrwt>
<totfact> 0.27060563E+04</totfact>
</mgrwt>
</event>
<event>
 4    1  0.6782240E-004  0.2288666E+03  0.7818608E-02  0.1127440E+00
         -2   -1    0    0    0  501 -0.00000000000E+00  0.00000000000E+00  0.61068899337E+01  0.61068904661E+01  0.25500000000E-02 0. -1.
          2   -1    0    0  501    0  0.00000000000E+00 -0.00000000000E+00 -0.21442968930E+04  0.21442968930E+04  0.25500000000E-02 0.  1.
    5000001    1    1    2    0    0 -0.74440268515E+02  0.29201365009E+02 -0.13301436876E+04  0.13347678836E+04  0.77000000000E+02 0.  0.
   -5000001    1    1    2    0    0  0.74440268515E+02 -0.29201365009E+02 -0.80804631542E+03  0.81563589987E+03  0.77000000000E+02 0.  0.
<mgrwt>
<rscale>  0 0.22886665E+03</rscale>
<asrwt>0</asrwt>
<pdfrwt beam="1">  1        2 0.30632765E+00 0.22886665E+03</pdfrwt>
<pdfrwt beam="2">  1       -2 0.87241426E-03 0.22886665E+03</pdfrwt>
<totfact> 0.19403300E+04</totfact>
</mgrwt>
</event>
<event>
 4    1  0.6782240E-004  0.1922349E+03  0.7818608E-02  0.1156461E+00
         -2   -1    0    0    0  501 -0.00000000000E+00  0.00000000000E+00  0.23953743468E+02  0.23953743603E+02  0.25500000000E-02 0. -1.
          2   -1    0    0  501    0  0.00000000000E+00 -0.00000000000E+00 -0.38568341364E+03  0.38568341365E+03  0.25500000000E-02 0.  1.
    5000001    1    1    2    0    0 -0.46729055241E+02 -0.33264674993E+02 -0.19025500809E+03  0.21311056124E+03  0.77000000000E+02 0.  0.
   -5000001    1    1    2    0    0  0.46729055241E+02  0.33264674993E+02 -0.17147466208E+03  0.19652659601E+03  0.77000000000E+02 0.  0.
<mgrwt>
<rscale>  0 0.19223487E+03</rscale>
<asrwt>0</asrwt>
<pdfrwt beam="1">  1        2 0.55097627E-01 0.19223487E+03</pdfrwt>
<pdfrwt beam="2">  1       -2 0.34219636E-02 0.19223487E+03</pdfrwt>
<totfact> 0.30138461E+04</totfact>
</mgrwt>
</event>
<event>
 4    1  0.6782240E-004  0.2675671E+03  0.7818608E-02  0.1102680E+00
          2   -1    0    0  501    0  0.00000000000E+00  0.00000000000E+00  0.42624578775E+03  0.42624578776E+03  0.25500000000E-02 0.  1.
         -2   -1    0    0    0  501 -0.00000000000E+00 -0.00000000000E+00 -0.41989955368E+02  0.41989955445E+02  0.25500000000E-02 0. -1.
    5000001    1    1    2    0    0  0.39376743324E+02 -0.99495944556E+02  0.23199780996E+03  0.26683694407E+03  0.77000000000E+02 0.  0.
   -5000001    1    1    2    0    0 -0.39376743324E+02  0.99495944556E+02  0.15225802243E+03  0.20139879913E+03  0.77000000000E+02 0.  0.
<mgrwt>
<rscale>  0 0.26756713E+03</rscale>
<asrwt>0</asrwt>
<pdfrwt beam="1">  1        2 0.60892252E-01 0.26756713E+03</pdfrwt>
<pdfrwt beam="2">  1       -2 0.59985654E-02 0.26756713E+03</pdfrwt>
<totfact> 0.11852746E+04</totfact>
</mgrwt>
</event>
<event>
 4    1  0.6782240E-004  0.2378158E+03  0.7818608E-02  0.1121256E+00
          2   -1    0    0  501    0  0.00000000000E+00  0.00000000000E+00  0.44019360598E+03  0.44019360599E+03  0.25500000000E-02 0.  1.
         -2   -1    0    0    0  501 -0.00000000000E+00 -0.00000000000E+00 -0.32120164625E+02  0.32120164726E+02  0.25500000000E-02 0. -1.
    5000001    1    1    2    0    0  0.76944135365E+02  0.31171333653E+02  0.27613983342E+03  0.29845311124E+03  0.77000000000E+02 0.  0.
   -5000001    1    1    2    0    0 -0.76944135365E+02 -0.31171333653E+02  0.13193360793E+03  0.17386065947E+03  0.77000000000E+02 0.  0.
<mgrwt>
<rscale>  0 0.23781582E+03</rscale>
<asrwt>0</asrwt>
<pdfrwt beam="1">  1        2 0.62884800E-01 0.23781582E+03</pdfrwt>
<pdfrwt beam="2">  1       -2 0.45885951E-02 0.23781582E+03</pdfrwt>
<totfact> 0.17099958E+04</totfact>
</mgrwt>
</event>
<event>
 4    1  0.6782240E-004  0.4478871E+03  0.7818608E-02  0.1028354E+00
         -2   -1    0    0    0  501 -0.00000000000E+00  0.00000000000E+00  0.51744312628E+02  0.51744312691E+02  0.25500000000E-02 0. -1.
          2   -1    0    0  501    0  0.00000000000E+00 -0.00000000000E+00 -0.96920255687E+03  0.96920255687E+03  0.25500000000E-02 0.  1.
    5000001    1    1    2    0    0  0.17348853650E+03  0.75086403411E+02 -0.24875162105E+03  0.32178037424E+03  0.77000000000E+02 0.  0.
   -5000001    1    1    2    0    0 -0.17348853650E+03 -0.75086403411E+02 -0.66870662320E+03  0.69916649532E+03  0.77000000000E+02 0.  0.
<mgrwt>
<rscale>  0 0.44788713E+03</rscale>
<asrwt>0</asrwt>
<pdfrwt beam="1">  1        2 0.13845750E+00 0.44788713E+03</pdfrwt>
<pdfrwt beam="2">  1       -2 0.73920452E-02 0.44788713E+03</pdfrwt>
<totfact> 0.32690040E+03</totfact>
</mgrwt>
</event>
<event>
 4    1  0.6782240E-004  0.2067646E+03  0.7818608E-02  0.1144154E+00
          2   -1    0    0  501    0  0.00000000000E+00  0.00000000000E+00  0.53680895712E+03  0.53680895712E+03  0.25500000000E-02 0.  1.
         -2   -1    0    0    0  501 -0.00000000000E+00 -0.00000000000E+00 -0.19910064839E+02  0.19910065002E+02  0.25500000000E-02 0. -1.
    5000001    1    1    2    0    0  0.50164366622E+02  0.60159850182E+01  0.13197966644E+03  0.16093566450E+03  0.77000000000E+02 0.  0.
   -5000001    1    1    2    0    0 -0.50164366622E+02 -0.60159850182E+01  0.38491922583E+03  0.39578335762E+03  0.77000000000E+02 0.  0.
<mgrwt>
<rscale>  0 0.20676461E+03</rscale>
<asrwt>0</asrwt>
<pdfrwt beam="1">  1        2 0.76687008E-01 0.20676461E+03</pdfrwt>
<pdfrwt beam="2">  1       -2 0.28442945E-02 0.20676461E+03</pdfrwt>
<totfact> 0.27830775E+04</totfact>
</mgrwt>
</event>
<event>
 4    1  0.6782240E-004  0.3497820E+03  0.7818608E-02  0.1062705E+00
          2   -1    0    0  501    0  0.00000000000E+00  0.00000000000E+00  0.15750763975E+04  0.15750763975E+04  0.25500000000E-02 0.  1.
         -2   -1    0    0    0  501 -0.00000000000E+00 -0.00000000000E+00 -0.19419288194E+02  0.19419288362E+02  0.25500000000E-02 0. -1.
    5000001    1    1    2    0    0 -0.11158105577E+03  0.81794796791E+02  0.43923166751E+03  0.46689846705E+03  0.77000000000E+02 0.  0.
   -5000001    1    1    2    0    0  0.11158105577E+03 -0.81794796791E+02  0.11164254418E+04  0.11275972189E+04  0.77000000000E+02 0.  0.
<mgrwt>
<rscale>  0 0.34978200E+03</rscale>
<asrwt>0</asrwt>
<pdfrwt beam="1">  1        2 0.22501091E+00 0.34978200E+03</pdfrwt>
<pdfrwt beam="2">  1       -2 0.27741841E-02 0.34978200E+03</pdfrwt>
<totfact> 0.68306822E+03</totfact>
</mgrwt>
</event>
<event>
 4    1  0.6782240E-004  0.1917419E+03  0.7818608E-02  0.1156900E+00
          2   -1    0    0  501    0  0.00000000000E+00  0.00000000000E+00  0.14681045685E+04  0.14681045685E+04  0.25500000000E-02 0.  1.
         -2   -1    0    0    0  501 -0.00000000000E+00 -0.00000000000E+00 -0.62606133648E+01  0.62606138841E+01  0.25500000000E-02 0. -1.
    5000001    1    1    2    0    0 -0.96497454970E+01  0.50090774192E+02  0.92846909304E+03  0.93305201355E+03  0.77000000000E+02 0.  0.
   -5000001    1    1    2    0    0  0.96497454970E+01 -0.50090774192E+02  0.53337486208E+03  0.54131316883E+03  0.77000000000E+02 0.  0.
<mgrwt>
<rscale>  0 0.19174186E+03</rscale>
<asrwt>0</asrwt>
<pdfrwt beam="1">  1        2 0.20972916E+00 0.19174186E+03</pdfrwt>
<pdfrwt beam="2">  1       -2 0.89437364E-03 0.19174186E+03</pdfrwt>
<totfact> 0.39643413E+04</totfact>
</mgrwt>
</event>
<event>
 4    1  0.6782240E-004  0.3458901E+03  0.7818608E-02  0.1064315E+00
          2   -1    0    0  501    0  0.00000000000E+00  0.00000000000E+00  0.19667439505E+03  0.19667439507E+03  0.25500000000E-02 0.  1.
         -2   -1    0    0    0  501 -0.00000000000E+00 -0.00000000000E+00 -0.15207870242E+03  0.15207870244E+03  0.25500000000E-02 0. -1.
    5000001    1    1    2    0    0  0.13122098337E+03  0.79499170443E+02  0.43493796489E+02  0.17708691344E+03  0.77000000000E+02 0.  0.
   -5000001    1    1    2    0    0 -0.13122098337E+03 -0.79499170443E+02  0.11018961421E+01  0.17166618407E+03  0.77000000000E+02 0.  0.
<mgrwt>
<rscale>  0 0.34589008E+03</rscale>
<asrwt>0</asrwt>
<pdfrwt beam="1">  1        2 0.28096342E-01 0.34589008E+03</pdfrwt>
<pdfrwt beam="2">  1       -2 0.21725529E-01 0.34589008E+03</pdfrwt>
<totfact> 0.34474617E+03</totfact>
</mgrwt>
</event>
<event>
 4    1  0.6782240E-004  0.3172169E+03  0.7818608E-02  0.1076937E+00
          2   -1    0    0  501    0  0.00000000000E+00  0.00000000000E+00  0.44596429847E+03  0.44596429848E+03  0.25500000000E-02 0.  1.
         -2   -1    0    0    0  501 -0.00000000000E+00 -0.00000000000E+00 -0.56409543449E+02  0.56409543506E+02  0.25500000000E-02 0. -1.
    5000001    1    1    2    0    0 -0.11095114106E+03  0.14243380631E+02  0.32454943001E+03  0.35181580709E+03  0.77000000000E+02 0.  0.
   -5000001    1    1    2    0    0  0.11095114106E+03 -0.14243380631E+02  0.65005325010E+02  0.15055803490E+03  0.77000000000E+02 0.  0.
<mgrwt>
<rscale>  0 0.31721691E+03</rscale>
<asrwt>0</asrwt>
<pdfrwt beam="1">  1        2 0.63709185E-01 0.31721691E+03</pdfrwt>
<pdfrwt beam="2">  1       -2 0.80585062E-02 0.31721691E+03</pdfrwt>
<totfact> 0.71855270E+03</totfact>
</mgrwt>
</event>
<event>
 4    1  0.6782240E-004  0.2367855E+03  0.7818608E-02  0.1121953E+00
         -2   -1    0    0    0  501 -0.00000000000E+00  0.00000000000E+00  0.40438237672E+02  0.40438237752E+02  0.25500000000E-02 0. -1.
          2   -1    0    0  501    0  0.00000000000E+00 -0.00000000000E+00 -0.34662362269E+03  0.34662362270E+03  0.25500000000E-02 0.  1.
    5000001    1    1    2    0    0 -0.89843330401E+02  0.10566202378E+01 -0.15940422393E+03  0.19852366880E+03  0.77000000000E+02 0.  0.
   -5000001    1    1    2    0    0  0.89843330401E+02 -0.10566202378E+01 -0.14678116109E+03  0.18853819166E+03  0.77000000000E+02 0.  0.
<mgrwt>
<rscale>  0 0.23678554E+03</rscale>
<asrwt>0</asrwt>
<pdfrwt beam="1">  1        2 0.49517659E-01 0.23678554E+03</pdfrwt>
<pdfrwt beam="2">  1       -2 0.57768913E-02 0.23678554E+03</pdfrwt>
<totfact> 0.15592989E+04</totfact>
</mgrwt>
</event>
<event>
 4    1  0.6782240E-004  0.2608064E+03  0.7818608E-02  0.1106660E+00
          2   -1    0    0  501    0  0.00000000000E+00  0.00000000000E+00  0.30946127363E+02  0.30946127468E+02  0.25500000000E-02 0.  1.
         -2   -1    0    0    0  501 -0.00000000000E+00 -0.00000000000E+00 -0.54950314288E+03  0.54950314289E+03  0.25500000000E-02 0. -1.
    5000001    1    1    2    0    0  0.43610982221E+02 -0.78962811878E+02 -0.13862437834E+03  0.18243563715E+03  0.77000000000E+02 0.  0.
   -5000001    1    1    2    0    0 -0.43610982221E+02  0.78962811878E+02 -0.37993263717E+03  0.39801363321E+03  0.77000000000E+02 0.  0.
<mgrwt>
<rscale>  0 0.26080640E+03</rscale>
<asrwt>0</asrwt>
<pdfrwt beam="1">  1        2 0.44208757E-02 0.26080640E+03</pdfrwt>
<pdfrwt beam="2">  1       -2 0.78500443E-01 0.26080640E+03</pdfrwt>
<totfact> 0.27395506E+03</totfact>
</mgrwt>
</event>
<event>
 4    1  0.6782240E-004  0.1892331E+03  0.7818608E-02  0.1159155E+00
          2   -1    0    0  501    0  0.00000000000E+00  0.00000000000E+00  0.94442120143E+02  0.94442120178E+02  0.25500000000E-02 0.  1.
         -2   -1    0    0    0  501 -0.00000000000E+00 -0.00000000000E+00 -0.94791342988E+02  0.94791343022E+02  0.25500000000E-02 0. -1.
    5000001    1    1    2    0    0 -0.34639707124E+02  0.41422748445E+02 -0.10544875519E+02  0.94635869511E+02  0.77000000000E+02 0.  0.
   -5000001    1    1    2    0    0  0.34639707124E+02 -0.41422748445E+02  0.10195652674E+02  0.94597593689E+02  0.77000000000E+02 0.  0.
<mgrwt>
<rscale>  0 0.18923314E+03</rscale>
<asrwt>0</asrwt>
<pdfrwt beam="1">  1        2 0.13491731E-01 0.18923314E+03</pdfrwt>
<pdfrwt beam="2">  1       -2 0.13541620E-01 0.18923314E+03</pdfrwt>
<totfact> 0.17203187E+04</totfact>
</mgrwt>
</event>
<event>
 4    1  0.6782240E-004  0.2410968E+03  0.7818608E-02  0.1119064E+00
          2   -1    0    0  501    0  0.00000000000E+00  0.00000000000E+00  0.46636326122E+03  0.46636326123E+03  0.25500000000E-02 0.  1.
         -2   -1    0    0    0  501 -0.00000000000E+00 -0.00000000000E+00 -0.31160073323E+02  0.31160073427E+02  0.25500000000E-02 0. -1.
    5000001    1    1    2    0    0  0.78695761046E+02  0.48108797219E+02  0.19744235063E+03  0.23112758598E+03  0.77000000000E+02 0.  0.
   -5000001    1    1    2    0    0 -0.78695761046E+02 -0.48108797219E+02  0.23776083727E+03  0.26639574868E+03  0.77000000000E+02 0.  0.
<mgrwt>
<rscale>  0 0.24109677E+03</rscale>
<asrwt>0</asrwt>
<pdfrwt beam="1">  1        2 0.66623318E-01 0.24109677E+03</pdfrwt>
<pdfrwt beam="2">  1       -2 0.44514394E-02 0.24109677E+03</pdfrwt>
<totfact> 0.16823101E+04</totfact>
</mgrwt>
</event>
<event>
 4    1  0.6782240E-004  0.3063162E+03  0.7818608E-02  0.1082125E+00
         -2   -1    0    0    0  501 -0.00000000000E+00  0.00000000000E+00  0.75984382376E+02  0.75984382419E+02  0.25500000000E-02 0. -1.
          2   -1    0    0  501    0  0.00000000000E+00 -0.00000000000E+00 -0.30871355103E+03  0.30871355105E+03  0.25500000000E-02 0.  1.
    5000001    1    1    2    0    0 -0.11367315561E+03  0.27725697376E+02 -0.38559418463E+02  0.14527948703E+03  0.77000000000E+02 0.  0.
   -5000001    1    1    2    0    0  0.11367315561E+03 -0.27725697376E+02 -0.19416975020E+03  0.23941844643E+03  0.77000000000E+02 0.  0.
<mgrwt>
<rscale>  0 0.30631623E+03</rscale>
<asrwt>0</asrwt>
<pdfrwt beam="1">  1        2 0.44101935E-01 0.30631623E+03</pdfrwt>
<pdfrwt beam="2">  1       -2 0.10854912E-01 0.30631623E+03</pdfrwt>
<totfact> 0.66684693E+03</totfact>
</mgrwt>
</event>
<event>
 4    1  0.6782240E-004  0.2542809E+03  0.7818608E-02  0.1110629E+00
         -2   -1    0    0    0  501 -0.00000000000E+00  0.00000000000E+00  0.92232971949E+01  0.92232975474E+01  0.25500000000E-02 0. -1.
          2   -1    0    0  501    0  0.00000000000E+00 -0.00000000000E+00 -0.17525932675E+04  0.17525932675E+04  0.25500000000E-02 0.  1.
    5000001    1    1    2    0    0  0.92997225918E+01  0.10072676121E+03 -0.85905355830E+03  0.86840910940E+03  0.77000000000E+02 0.  0.
   -5000001    1    1    2    0    0 -0.92997225918E+01 -0.10072676121E+03 -0.88431641202E+03  0.89340745566E+03  0.77000000000E+02 0.  0.
<mgrwt>
<rscale>  0 0.25428086E+03</rscale>
<asrwt>0</asrwt>
<pdfrwt beam="1">  1        2 0.25037025E+00 0.25428086E+03</pdfrwt>
<pdfrwt beam="2">  1       -2 0.13176150E-02 0.25428086E+03</pdfrwt>
<totfact> 0.16601435E+04</totfact>
</mgrwt>
</event>
<event>
 4    1  0.6782240E-004  0.3819480E+03  0.7818608E-02  0.1050216E+00
          2   -1    0    0  501    0  0.00000000000E+00  0.00000000000E+00  0.46799971001E+04  0.46799971001E+04  0.25500000000E-02 0.  1.
         -2   -1    0    0    0  501 -0.00000000000E+00 -0.00000000000E+00 -0.77929667170E+01  0.77929671342E+01  0.25500000000E-02 0. -1.
    5000001    1    1    2    0    0 -0.74211830417E+02 -0.14973738126E+03  0.17086717168E+04  0.17185507600E+04  0.77000000000E+02 0.  0.
   -5000001    1    1    2    0    0  0.74211830417E+02  0.14973738126E+03  0.29635324166E+04  0.29692393072E+04  0.77000000000E+02 0.  0.
<mgrwt>
<rscale>  0 0.38194797E+03</rscale>
<asrwt>0</asrwt>
<pdfrwt beam="1">  1        2 0.66856954E+00 0.38194797E+03</pdfrwt>
<pdfrwt beam="2">  1       -2 0.11132834E-02 0.38194797E+03</pdfrwt>
<totfact> 0.41384523E+02</totfact>
</mgrwt>
</event>
<event>
 4    1  0.6782240E-004  0.1837222E+03  0.7818608E-02  0.1164249E+00
         -2   -1    0    0    0  501 -0.00000000000E+00  0.00000000000E+00  0.43589200479E+01  0.43589207938E+01  0.25500000000E-02 0. -1.
          2   -1    0    0  501    0  0.00000000000E+00 -0.00000000000E+00 -0.19359064280E+04  0.19359064280E+04  0.25500000000E-02 0.  1.
    5000001    1    1    2    0    0  0.93303313978E+00 -0.50082763838E+02 -0.95991004059E+03  0.96429530736E+03  0.77000000000E+02 0.  0.
   -5000001    1    1    2    0    0 -0.93303313978E+00  0.50082763838E+02 -0.97163746739E+03  0.97597004145E+03  0.77000000000E+02 0.  0.
<mgrwt>
<rscale>  0 0.18372220E+03</rscale>
<asrwt>0</asrwt>
<pdfrwt beam="1">  1        2 0.27655751E+00 0.18372220E+03</pdfrwt>
<pdfrwt beam="2">  1       -2 0.62270416E-03 0.18372220E+03</pdfrwt>
<totfact> 0.39295709E+04</totfact>
</mgrwt>
</event>
<event>
 4    1  0.6782240E-004  0.1752562E+03  0.7818608E-02  0.1172475E+00
          2   -1    0    0  501    0  0.00000000000E+00  0.00000000000E+00  0.20992077763E+04  0.20992077763E+04  0.25500000000E-02 0.  1.
         -2   -1    0    0    0  501 -0.00000000000E+00 -0.00000000000E+00 -0.36578942575E+01  0.36578951464E+01  0.25500000000E-02 0. -1.
    5000001    1    1    2    0    0  0.22091692597E+02 -0.14058330262E+02  0.65638529039E+03  0.66140481475E+03  0.77000000000E+02 0.  0.
   -5000001    1    1    2    0    0 -0.22091692597E+02  0.14058330262E+02  0.14391645916E+04  0.14414608567E+04  0.77000000000E+02 0.  0.
<mgrwt>
<rscale>  0 0.17525617E+03</rscale>
<asrwt>0</asrwt>
<pdfrwt beam="1">  1        2 0.29988667E+00 0.17525617E+03</pdfrwt>
<pdfrwt beam="2">  1       -2 0.52255665E-03 0.17525617E+03</pdfrwt>
<totfact> 0.42019780E+04</totfact>
</mgrwt>
</event>
<event>
 4    1  0.6782240E-004  0.1767158E+03  0.7818608E-02  0.1171020E+00
         -2   -1    0    0    0  501 -0.00000000000E+00  0.00000000000E+00  0.44550502248E+01  0.44550509546E+01  0.25500000000E-02 0. -1.
          2   -1    0    0  501    0  0.00000000000E+00 -0.00000000000E+00 -0.17524205334E+04  0.17524205334E+04  0.25500000000E-02 0.  1.
    5000001    1    1    2    0    0  0.38768233421E+02  0.18434914550E+02 -0.81491454378E+03  0.81966916232E+03  0.77000000000E+02 0.  0.
   -5000001    1    1    2    0    0 -0.38768233421E+02 -0.18434914550E+02 -0.93305093942E+03  0.93720642206E+03  0.77000000000E+02 0.  0.
<mgrwt>
<rscale>  0 0.17671584E+03</rscale>
<asrwt>0</asrwt>
<pdfrwt beam="1">  1        2 0.25034535E+00 0.17671584E+03</pdfrwt>
<pdfrwt beam="2">  1       -2 0.63643692E-03 0.17671584E+03</pdfrwt>
<totfact> 0.46561833E+04</totfact>
</mgrwt>
</event>
<event>
 4    1  0.6782240E-004  0.1986174E+03  0.7818608E-02  0.1150911E+00
         -2   -1    0    0    0  501 -0.00000000000E+00  0.00000000000E+00  0.88499003257E+02  0.88499003294E+02  0.25500000000E-02 0. -1.
          2   -1    0    0  501    0  0.00000000000E+00 -0.00000000000E+00 -0.11143873570E+03  0.11143873573E+03  0.25500000000E-02 0.  1.
    5000001    1    1    2    0    0 -0.14265751800E+02  0.50920793751E+02 -0.45410141301E+02  0.10386298592E+03  0.77000000000E+02 0.  0.
   -5000001    1    1    2    0    0  0.14265751800E+02 -0.50920793751E+02  0.22470408856E+02  0.96074753108E+02  0.77000000000E+02 0.  0.
<mgrwt>
<rscale>  0 0.19861739E+03</rscale>
<asrwt>0</asrwt>
<pdfrwt beam="1">  1        2 0.15919819E-01 0.19861739E+03</pdfrwt>
<pdfrwt beam="2">  1       -2 0.12642715E-01 0.19861739E+03</pdfrwt>
<totfact> 0.15870883E+04</totfact>
</mgrwt>
</event>
<event>
 4    1  0.6782240E-004  0.2770951E+03  0.7818608E-02  0.1097286E+00
         -2   -1    0    0    0  501 -0.00000000000E+00  0.00000000000E+00  0.13347570105E+03  0.13347570107E+03  0.25500000000E-02 0. -1.
          2   -1    0    0  501    0  0.00000000000E+00 -0.00000000000E+00 -0.14381210393E+03  0.14381210395E+03  0.25500000000E-02 0.  1.
    5000001    1    1    2    0    0 -0.18320991055E+02 -0.10888630757E+03  0.27634693494E+02  0.13742111546E+03  0.77000000000E+02 0.  0.
   -5000001    1    1    2    0    0  0.18320991055E+02  0.10888630757E+03 -0.37971096378E+02  0.13986668957E+03  0.77000000000E+02 0.  0.
<mgrwt>
<rscale>  0 0.27709508E+03</rscale>
<asrwt>0</asrwt>
<pdfrwt beam="1">  1        2 0.20544586E-01 0.27709508E+03</pdfrwt>
<pdfrwt beam="2">  1       -2 0.19067957E-01 0.27709508E+03</pdfrwt>
<totfact> 0.60973314E+03</totfact>
</mgrwt>
</event>
<event>
 4    1  0.6782240E-004  0.1618913E+03  0.7818608E-02  0.1186578E+00
         -2   -1    0    0    0  501 -0.00000000000E+00  0.00000000000E+00  0.26560759195E+02  0.26560759317E+02  0.25500000000E-02 0. -1.
          2   -1    0    0  501    0  0.00000000000E+00 -0.00000000000E+00 -0.24668713299E+03  0.24668713300E+03  0.25500000000E-02 0.  1.
    5000001    1    1    2    0    0 -0.22532659230E+02  0.49460374432E+01 -0.12616542807E+03  0.14959578623E+03  0.77000000000E+02 0.  0.
   -5000001    1    1    2    0    0  0.22532659230E+02 -0.49460374432E+01 -0.93960945722E+02  0.12365210609E+03  0.77000000000E+02 0.  0.
<mgrwt>
<rscale>  0 0.16189129E+03</rscale>
<asrwt>0</asrwt>
<pdfrwt beam="1">  1        2 0.35241018E-01 0.16189129E+03</pdfrwt>
<pdfrwt beam="2">  1       -2 0.37943943E-02 0.16189129E+03</pdfrwt>
<totfact> 0.41009688E+04</totfact>
</mgrwt>
</event>
<event>
 4    1  0.6782240E-004  0.3710784E+03  0.7818608E-02  0.1054281E+00
         -2   -1    0    0    0  501 -0.00000000000E+00  0.00000000000E+00  0.86754223434E+02  0.86754223471E+02  0.25500000000E-02 0. -1.
          2   -1    0    0  501    0  0.00000000000E+00 -0.00000000000E+00 -0.39680827597E+03  0.39680827598E+03  0.25500000000E-02 0.  1.
    5000001    1    1    2    0    0  0.84039229763E+02  0.14639468274E+03 -0.15327939114E+03  0.24066068857E+03  0.77000000000E+02 0.  0.
   -5000001    1    1    2    0    0 -0.84039229763E+02 -0.14639468274E+03 -0.15677466140E+03  0.24290181089E+03  0.77000000000E+02 0.  0.
<mgrwt>
<rscale>  0 0.37107840E+03</rscale>
<asrwt>0</asrwt>
<pdfrwt beam="1">  1        2 0.56686896E-01 0.37107840E+03</pdfrwt>
<pdfrwt beam="2">  1       -2 0.12393461E-01 0.37107840E+03</pdfrwt>
<totfact> 0.41199444E+03</totfact>
</mgrwt>
</event>
<event>
 4    1  0.6782240E-004  0.2059248E+03  0.7818608E-02  0.1144834E+00
          2   -1    0    0  501    0  0.00000000000E+00  0.00000000000E+00  0.14869680734E+04  0.14869680734E+04  0.25500000000E-02 0.  1.
         -2   -1    0    0    0  501 -0.00000000000E+00 -0.00000000000E+00 -0.71294432159E+01  0.71294436720E+01  0.25500000000E-02 0. -1.
    5000001    1    1    2    0    0  0.50003190770E+02 -0.34753866260E+02  0.96520435971E+03  0.97018380028E+03  0.77000000000E+02 0.  0.
   -5000001    1    1    2    0    0 -0.50003190770E+02  0.34753866260E+02  0.51463427048E+03  0.52391371681E+03  0.77000000000E+02 0.  0.
<mgrwt>
<rscale>  0 0.20592479E+03</rscale>
<asrwt>0</asrwt>
<pdfrwt beam="1">  1        2 0.21242409E+00 0.20592479E+03</pdfrwt>
<pdfrwt beam="2">  1       -2 0.10184915E-02 0.20592479E+03</pdfrwt>
<totfact> 0.32312842E+04</totfact>
</mgrwt>
</event>
<event>
 4    1  0.6782240E-004  0.1917371E+03  0.7818608E-02  0.1156904E+00
          2   -1    0    0  501    0  0.00000000000E+00  0.00000000000E+00  0.15961313369E+04  0.15961313369E+04  0.25500000000E-02 0.  1.
         -2   -1    0    0    0  501 -0.00000000000E+00 -0.00000000000E+00 -0.57581614059E+01  0.57581619705E+01  0.25500000000E-02 0. -1.
    5000001    1    1    2    0    0  0.24720610142E+02  0.43051990061E+02  0.55929636675E+03  0.56675039327E+03  0.77000000000E+02 0.  0.
   -5000001    1    1    2    0    0 -0.24720610142E+02 -0.43051990061E+02  0.10310768087E+04  0.10351391056E+04  0.77000000000E+02 0.  0.
<mgrwt>
<rscale>  0 0.19173714E+03</rscale>
<asrwt>0</asrwt>
<pdfrwt beam="1">  1        2 0.22801847E+00 0.19173714E+03</pdfrwt>
<pdfrwt beam="2">  1       -2 0.82259560E-03 0.19173714E+03</pdfrwt>
<totfact> 0.38625616E+04</totfact>
</mgrwt>
</event>
<event>
 4    1  0.6782240E-004  0.1784992E+03  0.7818608E-02  0.1169263E+00
         -2   -1    0    0    0  501 -0.00000000000E+00  0.00000000000E+00  0.36432995242E+02  0.36432995331E+02  0.25500000000E-02 0. -1.
          2   -1    0    0  501    0  0.00000000000E+00 -0.00000000000E+00 -0.21863403904E+03  0.21863403905E+03  0.25500000000E-02 0.  1.
    5000001    1    1    2    0    0 -0.25088043799E+02  0.35352095925E+02 -0.73177991123E+02  0.11473098541E+03  0.77000000000E+02 0.  0.
   -5000001    1    1    2    0    0  0.25088043799E+02 -0.35352095925E+02 -0.10902305267E+03  0.14033604898E+03  0.77000000000E+02 0.  0.
<mgrwt>
<rscale>  0 0.17849922E+03</rscale>
<asrwt>0</asrwt>
<pdfrwt beam="1">  1        2 0.31233434E-01 0.17849922E+03</pdfrwt>
<pdfrwt beam="2">  1       -2 0.52047137E-02 0.17849922E+03</pdfrwt>
<totfact> 0.29362509E+04</totfact>
</mgrwt>
</event>
<event>
 4    1  0.6782240E-004  0.2445616E+03  0.7818608E-02  0.1116791E+00
          2   -1    0    0  501    0  0.00000000000E+00  0.00000000000E+00  0.10915861851E+04  0.10915861851E+04  0.25500000000E-02 0.  1.
         -2   -1    0    0    0  501 -0.00000000000E+00 -0.00000000000E+00 -0.13698040501E+02  0.13698040738E+02  0.25500000000E-02 0. -1.
    5000001    1    1    2    0    0  0.90507902190E+02  0.13158002464E+02  0.42294475033E+03  0.43951800330E+03  0.77000000000E+02 0.  0.
   -5000001    1    1    2    0    0 -0.90507902190E+02 -0.13158002464E+02  0.65494339427E+03  0.66576622254E+03  0.77000000000E+02 0.  0.
<mgrwt>
<rscale>  0 0.24456158E+03</rscale>
<asrwt>0</asrwt>
<pdfrwt beam="1">  1        2 0.15594096E+00 0.24456158E+03</pdfrwt>
<pdfrwt beam="2">  1       -2 0.19568620E-02 0.24456158E+03</pdfrwt>
<totfact> 0.20383966E+04</totfact>
</mgrwt>
</event>
<event>
 4    1  0.6782240E-004  0.5710476E+03  0.7818608E-02  0.9967363E-01
          2   -1    0    0  501    0  0.00000000000E+00  0.00000000000E+00  0.21224273802E+03  0.21224273804E+03  0.25500000000E-02 0.  1.
         -2   -1    0    0    0  501 -0.00000000000E+00 -0.00000000000E+00 -0.38410659172E+03  0.38410659173E+03  0.25500000000E-02 0. -1.
    5000001    1    1    2    0    0  0.16436901550E+03 -0.14371870265E+03 -0.26043630847E+03  0.34846565041E+03  0.77000000000E+02 0.  0.
   -5000001    1    1    2    0    0 -0.16436901550E+03  0.14371870265E+03  0.88572454771E+02  0.24788367936E+03  0.77000000000E+02 0.  0.
<mgrwt>
<rscale>  0 0.57104758E+03</rscale>
<asrwt>0</asrwt>
<pdfrwt beam="1">  1        2 0.30320391E-01 0.57104758E+03</pdfrwt>
<pdfrwt beam="2">  1       -2 0.54872370E-01 0.57104758E+03</pdfrwt>
<totfact> 0.55349144E+02</totfact>
</mgrwt>
</event>
<event>
 4    1  0.6782240E-004  0.2184633E+03  0.7818608E-02  0.1135034E+00
         -2   -1    0    0    0  501 -0.00000000000E+00  0.00000000000E+00  0.46071495539E+02  0.46071495609E+02  0.25500000000E-02 0. -1.
          2   -1    0    0  501    0  0.00000000000E+00 -0.00000000000E+00 -0.25897917188E+03  0.25897917189E+03  0.25500000000E-02 0.  1.
    5000001    1    1    2    0    0 -0.68163931892E+02  0.17690205577E+02 -0.15155591213E+03  0.18400396595E+03  0.77000000000E+02 0.  0.
   -5000001    1    1    2    0    0  0.68163931892E+02 -0.17690205577E+02 -0.61351764211E+02  0.12104670155E+03  0.77000000000E+02 0.  0.
<mgrwt>
<rscale>  0 0.21846334E+03</rscale>
<asrwt>0</asrwt>
<pdfrwt beam="1">  1        2 0.36997024E-01 0.21846334E+03</pdfrwt>
<pdfrwt beam="2">  1       -2 0.65816424E-02 0.21846334E+03</pdfrwt>
<totfact> 0.17369837E+04</totfact>
</mgrwt>
</event>
<event>
 4    1  0.6782240E-004  0.5320976E+03  0.7818608E-02  0.1005725E+00
          2   -1    0    0  501    0  0.00000000000E+00  0.00000000000E+00  0.41582199390E+03  0.41582199391E+03  0.25500000000E-02 0.  1.
         -2   -1    0    0    0  501 -0.00000000000E+00 -0.00000000000E+00 -0.17022177620E+03  0.17022177622E+03  0.25500000000E-02 0. -1.
    5000001    1    1    2    0    0 -0.20869232422E+03  0.11337597984E+03  0.21578426976E+02  0.25060173085E+03  0.77000000000E+02 0.  0.
   -5000001    1    1    2    0    0  0.20869232422E+03 -0.11337597984E+03  0.22402179072E+03  0.33544203928E+03  0.77000000000E+02 0.  0.
<mgrwt>
<rscale>  0 0.53209758E+03</rscale>
<asrwt>0</asrwt>
<pdfrwt beam="1">  1        2 0.59403142E-01 0.53209758E+03</pdfrwt>
<pdfrwt beam="2">  1       -2 0.24317397E-01 0.53209758E+03</pdfrwt>
<totfact> 0.12469039E+03</totfact>
</mgrwt>
</event>
<event>
 4    1  0.6782240E-004  0.1978284E+04  0.7818608E-02  0.8616841E-01
          2   -1    0    0  501    0  0.00000000000E+00  0.00000000000E+00  0.30924031467E+04  0.30924031467E+04  0.25500000000E-02 0.  1.
         -2   -1    0    0    0  501 -0.00000000000E+00 -0.00000000000E+00 -0.31638896222E+03  0.31638896223E+03  0.25500000000E-02 0. -1.
    5000001    1    1    2    0    0  0.64560826233E+03  0.53592997133E+03  0.49524190276E+03  0.97735587419E+03  0.77000000000E+02 0.  0.
   -5000001    1    1    2    0    0 -0.64560826233E+03 -0.53592997133E+03  0.22807722818E+04  0.24314362348E+04  0.77000000000E+02 0.  0.
<mgrwt>
<rscale>  0 0.19782843E+04</rscale>
<asrwt>0</asrwt>
<pdfrwt beam="1">  1        2 0.44177188E+00 0.19782843E+04</pdfrwt>
<pdfrwt beam="2">  1       -2 0.45198423E-01 0.19782843E+04</pdfrwt>
<totfact> 0.90807617E+00</totfact>
</mgrwt>
</event>
<event>
 4    1  0.6782240E-004  0.1782370E+03  0.7818608E-02  0.1169520E+00
          2   -1    0    0  501    0  0.00000000000E+00  0.00000000000E+00  0.22844666449E+02  0.22844666591E+02  0.25500000000E-02 0.  1.
         -2   -1    0    0    0  501 -0.00000000000E+00 -0.00000000000E+00 -0.34765695785E+03  0.34765695786E+03  0.25500000000E-02 0. -1.
    5000001    1    1    2    0    0  0.58390565932E+01  0.42482100508E+02 -0.18984846327E+03  0.20930901187E+03  0.77000000000E+02 0.  0.
   -5000001    1    1    2    0    0 -0.58390565932E+01 -0.42482100508E+02 -0.13496382813E+03  0.16119261257E+03  0.77000000000E+02 0.  0.
<mgrwt>
<rscale>  0 0.17823700E+03</rscale>
<asrwt>0</asrwt>
<pdfrwt beam="1">  1        2 0.32635240E-02 0.17823700E+03</pdfrwt>
<pdfrwt beam="2">  1       -2 0.49665276E-01 0.17823700E+03</pdfrwt>
<totfact> 0.10443528E+04</totfact>
</mgrwt>
</event>
<event>
 4    1  0.6782240E-004  0.1751958E+03  0.7818608E-02  0.1172535E+00
          2   -1    0    0  501    0  0.00000000000E+00  0.00000000000E+00  0.11236085691E+04  0.11236085691E+04  0.25500000000E-02 0.  1.
         -2   -1    0    0    0  501 -0.00000000000E+00 -0.00000000000E+00 -0.68292415922E+01  0.68292420683E+01  0.25500000000E-02 0. -1.
    5000001    1    1    2    0    0 -0.34235764648E+02 -0.23910036921E+02  0.56345881339E+03  0.57022680736E+03  0.77000000000E+02 0.  0.
   -5000001    1    1    2    0    0  0.34235764648E+02  0.23910036921E+02  0.55332051416E+03  0.56021100385E+03  0.77000000000E+02 0.  0.
<mgrwt>
<rscale>  0 0.17519583E+03</rscale>
<asrwt>0</asrwt>
<pdfrwt beam="1">  1        2 0.16051554E+00 0.17519583E+03</pdfrwt>
<pdfrwt beam="2">  1       -2 0.97560579E-03 0.17519583E+03</pdfrwt>
<totfact> 0.52547996E+04</totfact>
</mgrwt>
</event>
<event>
 4    1  0.6782240E-004  0.1710279E+03  0.7818608E-02  0.1176780E+00
          2   -1    0    0  501    0  0.00000000000E+00  0.00000000000E+00  0.32674219806E+03  0.32674219807E+03  0.25500000000E-02 0.  1.
         -2   -1    0    0    0  501 -0.00000000000E+00 -0.00000000000E+00 -0.22380446503E+02  0.22380446648E+02  0.25500000000E-02 0. -1.
    5000001    1    1    2    0    0  0.34218722301E+01 -0.33857819869E+02  0.18283978143E+03  0.20128946035E+03  0.77000000000E+02 0.  0.
   -5000001    1    1    2    0    0 -0.34218722301E+01  0.33857819869E+02  0.12152197013E+03  0.14783318436E+03  0.77000000000E+02 0.  0.
<mgrwt>
<rscale>  0 0.17102791E+03</rscale>
<asrwt>0</asrwt>
<pdfrwt beam="1">  1        2 0.46677454E-01 0.17102791E+03</pdfrwt>
<pdfrwt beam="2">  1       -2 0.31972069E-02 0.17102791E+03</pdfrwt>
<totfact> 0.39371840E+04</totfact>
</mgrwt>
</event>
<event>
 4    1  0.6782240E-004  0.2572384E+03  0.7818608E-02  0.1108814E+00
         -2   -1    0    0    0  501 -0.00000000000E+00  0.00000000000E+00  0.20653173998E+03  0.20653174000E+03  0.25500000000E-02 0. -1.
          2   -1    0    0  501    0  0.00000000000E+00 -0.00000000000E+00 -0.80098584875E+02  0.80098584915E+02  0.25500000000E-02 0.  1.
    5000001    1    1    2    0    0  0.10124566048E+03  0.86606434342E+01  0.82133066876E+02  0.15165926013E+03  0.77000000000E+02 0.  0.
   -5000001    1    1    2    0    0 -0.10124566048E+03 -0.86606434342E+01  0.44300088231E+02  0.13497106478E+03  0.77000000000E+02 0.  0.
<mgrwt>
<rscale>  0 0.25723841E+03</rscale>
<asrwt>0</asrwt>
<pdfrwt beam="1">  1        2 0.11442655E-01 0.25723841E+03</pdfrwt>
<pdfrwt beam="2">  1       -2 0.29504534E-01 0.25723841E+03</pdfrwt>
<totfact> 0.56512195E+03</totfact>
</mgrwt>
</event>
<event>
 4    1  0.6782240E-004  0.2761943E+03  0.7818608E-02  0.1097786E+00
          2   -1    0    0  501    0  0.00000000000E+00  0.00000000000E+00  0.61222959791E+03  0.61222959791E+03  0.25500000000E-02 0.  1.
         -2   -1    0    0    0  501 -0.00000000000E+00 -0.00000000000E+00 -0.31149798983E+02  0.31149799087E+02  0.25500000000E-02 0. -1.
    5000001    1    1    2    0    0 -0.69941715020E+02 -0.68919910425E+02  0.42835231275E+03  0.44615748496E+03  0.77000000000E+02 0.  0.
   -5000001    1    1    2    0    0  0.69941715020E+02  0.68919910425E+02  0.15272748617E+03  0.19722191203E+03  0.77000000000E+02 0.  0.
<mgrwt>
<rscale>  0 0.27619434E+03</rscale>
<asrwt>0</asrwt>
<pdfrwt beam="1">  1        2 0.87461372E-01 0.27619434E+03</pdfrwt>
<pdfrwt beam="2">  1       -2 0.44499713E-02 0.27619434E+03</pdfrwt>
<totfact> 0.12503535E+04</totfact>
</mgrwt>
</event>
<event>
 4    1  0.6782240E-004  0.4227942E+03  0.7818608E-02  0.1036161E+00
         -2   -1    0    0    0  501 -0.00000000000E+00  0.00000000000E+00  0.26955129657E+03  0.26955129658E+03  0.25500000000E-02 0. -1.
          2   -1    0    0  501    0  0.00000000000E+00 -0.00000000000E+00 -0.16578936270E+03  0.16578936272E+03  0.25500000000E-02 0.  1.
    5000001    1    1    2    0    0 -0.13862700938E+03  0.11218931865E+02  0.19535880758E+03  0.25186777456E+03  0.77000000000E+02 0.  0.
   -5000001    1    1    2    0    0  0.13862700938E+03 -0.11218931865E+02 -0.91596873712E+02  0.18347288474E+03  0.77000000000E+02 0.  0.
<mgrwt>
<rscale>  0 0.42279422E+03</rscale>
<asrwt>0</asrwt>
<pdfrwt beam="1">  1        2 0.23684195E-01 0.42279422E+03</pdfrwt>
<pdfrwt beam="2">  1       -2 0.38507328E-01 0.42279422E+03</pdfrwt>
<totfact> 0.14781311E+03</totfact>
</mgrwt>
</event>
<event>
 4    1  0.6782240E-004  0.3128707E+03  0.7818608E-02  0.1078978E+00
         -2   -1    0    0    0  501 -0.00000000000E+00  0.00000000000E+00  0.10711000921E+03  0.10711000924E+03  0.25500000000E-02 0. -1.
          2   -1    0    0  501    0  0.00000000000E+00 -0.00000000000E+00 -0.22847551150E+03  0.22847551151E+03  0.25500000000E-02 0.  1.
    5000001    1    1    2    0    0  0.68177524818E+02 -0.11132840041E+03 -0.10223586833E+03  0.18282056887E+03  0.77000000000E+02 0.  0.
   -5000001    1    1    2    0    0 -0.68177524818E+02  0.11132840041E+03 -0.19129633956E+02  0.15276495188E+03  0.77000000000E+02 0.  0.
<mgrwt>
<rscale>  0 0.31287067E+03</rscale>
<asrwt>0</asrwt>
<pdfrwt beam="1">  1        2 0.32639359E-01 0.31287067E+03</pdfrwt>
<pdfrwt beam="2">  1       -2 0.15301430E-01 0.31287067E+03</pdfrwt>
<totfact> 0.52844956E+03</totfact>
</mgrwt>
</event>
<event>
 4    1  0.6782240E-004  0.2006670E+03  0.7818608E-02  0.1149177E+00
          2   -1    0    0  501    0  0.00000000000E+00  0.00000000000E+00  0.34979295661E+03  0.34979295662E+03  0.25500000000E-02 0.  1.
         -2   -1    0    0    0  501 -0.00000000000E+00 -0.00000000000E+00 -0.28779353298E+02  0.28779353411E+02  0.25500000000E-02 0. -1.
    5000001    1    1    2    0    0 -0.46380398949E+02 -0.31507649148E+02  0.21998437869E+03  0.23972067126E+03  0.77000000000E+02 0.  0.
   -5000001    1    1    2    0    0  0.46380398949E+02  0.31507649148E+02  0.10102922462E+03  0.13885163877E+03  0.77000000000E+02 0.  0.
<mgrwt>
<rscale>  0 0.20066704E+03</rscale>
<asrwt>0</asrwt>
<pdfrwt beam="1">  1        2 0.49970427E-01 0.20066704E+03</pdfrwt>
<pdfrwt beam="2">  1       -2 0.41113358E-02 0.20066704E+03</pdfrwt>
<totfact> 0.25534290E+04</totfact>
</mgrwt>
</event>
<event>
 4    1  0.6782240E-004  0.2174018E+03  0.7818608E-02  0.1135835E+00
         -2   -1    0    0    0  501 -0.00000000000E+00  0.00000000000E+00  0.56409534878E+03  0.56409534878E+03  0.25500000000E-02 0. -1.
          2   -1    0    0  501    0  0.00000000000E+00 -0.00000000000E+00 -0.20946603770E+02  0.20946603925E+02  0.25500000000E-02 0.  1.
    5000001    1    1    2    0    0 -0.61994812397E+02 -0.11569662508E+02  0.15397557656E+03  0.18334309922E+03  0.77000000000E+02 0.  0.
   -5000001    1    1    2    0    0  0.61994812397E+02  0.11569662508E+02  0.38917316845E+03  0.40169885349E+03  0.77000000000E+02 0.  0.
<mgrwt>
<rscale>  0 0.21740176E+03</rscale>
<asrwt>0</asrwt>
<pdfrwt beam="1">  1        2 0.29923717E-02 0.21740176E+03</pdfrwt>
<pdfrwt beam="2">  1       -2 0.80585058E-01 0.21740176E+03</pdfrwt>
<totfact> 0.43328874E+03</totfact>
</mgrwt>
</event>
<event>
 4    1  0.6782240E-004  0.2385068E+03  0.7818608E-02  0.1120792E+00
         -2   -1    0    0    0  501 -0.00000000000E+00  0.00000000000E+00  0.79403378217E+02  0.79403378258E+02  0.25500000000E-02 0. -1.
          2   -1    0    0  501    0  0.00000000000E+00 -0.00000000000E+00 -0.17910286894E+03  0.17910286896E+03  0.25500000000E-02 0.  1.
    5000001    1    1    2    0    0 -0.30412047506E+02  0.76353229218E+02 -0.73485549173E+01  0.11286146156E+03  0.77000000000E+02 0.  0.
   -5000001    1    1    2    0    0  0.30412047506E+02 -0.76353229218E+02 -0.92350935806E+02  0.14564478566E+03  0.77000000000E+02 0.  0.
<mgrwt>
<rscale>  0 0.23850680E+03</rscale>
<asrwt>0</asrwt>
<pdfrwt beam="1">  1        2 0.25586124E-01 0.23850680E+03</pdfrwt>
<pdfrwt beam="2">  1       -2 0.11343340E-01 0.23850680E+03</pdfrwt>
<totfact> 0.11131580E+04</totfact>
</mgrwt>
</event>
<event>
 4    1  0.6782240E-004  0.1669917E+03  0.7818608E-02  0.1181022E+00
         -2   -1    0    0    0  501 -0.00000000000E+00  0.00000000000E+00  0.80759455886E+03  0.80759455886E+03  0.25500000000E-02 0. -1.
          2   -1    0    0  501    0  0.00000000000E+00 -0.00000000000E+00 -0.86324990857E+01  0.86324994624E+01  0.25500000000E-02 0.  1.
    5000001    1    1    2    0    0  0.13148260891E+02 -0.21960043776E+02  0.49569049085E+03  0.50228794830E+03  0.77000000000E+02 0.  0.
   -5000001    1    1    2    0    0 -0.13148260891E+02  0.21960043776E+02  0.30327156892E+03  0.31393911003E+03  0.77000000000E+02 0.  0.
<mgrwt>
<rscale>  0 0.16699173E+03</rscale>
<asrwt>0</asrwt>
<pdfrwt beam="1">  1        2 0.12332140E-02 0.16699173E+03</pdfrwt>
<pdfrwt beam="2">  1       -2 0.11537067E+00 0.16699173E+03</pdfrwt>
<totfact> 0.63065489E+03</totfact>
</mgrwt>
</event>
<event>
 4    1  0.6782240E-004  0.3556040E+03  0.7818608E-02  0.1060338E+00
         -2   -1    0    0    0  501 -0.00000000000E+00  0.00000000000E+00  0.23951056106E+02  0.23951056242E+02  0.25500000000E-02 0. -1.
          2   -1    0    0  501    0  0.00000000000E+00 -0.00000000000E+00 -0.13199228086E+04  0.13199228086E+04  0.25500000000E-02 0.  1.
    5000001    1    1    2    0    0 -0.58998595608E+02 -0.14763368855E+03 -0.72432104780E+03  0.74555115221E+03  0.77000000000E+02 0.  0.
   -5000001    1    1    2    0    0  0.58998595608E+02  0.14763368855E+03 -0.57165070470E+03  0.59832271264E+03  0.77000000000E+02 0.  0.
<mgrwt>
<rscale>  0 0.35560397E+03</rscale>
<asrwt>0</asrwt>
<pdfrwt beam="1">  1        2 0.18856036E+00 0.35560397E+03</pdfrwt>
<pdfrwt beam="2">  1       -2 0.34215803E-02 0.35560397E+03</pdfrwt>
<totfact> 0.67525322E+03</totfact>
</mgrwt>
</event>
<event>
 4    1  0.6782240E-004  0.2225764E+03  0.7818608E-02  0.1131977E+00
         -2   -1    0    0    0  501 -0.00000000000E+00  0.00000000000E+00  0.10728343006E+02  0.10728343309E+02  0.25500000000E-02 0. -1.
          2   -1    0    0  501    0  0.00000000000E+00 -0.00000000000E+00 -0.11544243414E+04  0.11544243414E+04  0.25500000000E-02 0.  1.
    5000001    1    1    2    0    0 -0.65119569791E+02  0.47069117010E+02 -0.57175136597E+03  0.58248148867E+03  0.77000000000E+02 0.  0.
   -5000001    1    1    2    0    0  0.65119569791E+02 -0.47069117010E+02 -0.57194463242E+03  0.58267119604E+03  0.77000000000E+02 0.  0.
<mgrwt>
<rscale>  0 0.22257637E+03</rscale>
<asrwt>0</asrwt>
<pdfrwt beam="1">  1        2 0.16491768E+00 0.22257637E+03</pdfrwt>
<pdfrwt beam="2">  1       -2 0.15326212E-02 0.22257637E+03</pdfrwt>
<totfact> 0.26749893E+04</totfact>
</mgrwt>
</event>
<event>
 4    1  0.6782240E-004  0.2055571E+03  0.7818608E-02  0.1145133E+00
         -2   -1    0    0    0  501 -0.00000000000E+00  0.00000000000E+00  0.11801781307E+03  0.11801781310E+03  0.25500000000E-02 0. -1.
          2   -1    0    0  501    0  0.00000000000E+00 -0.00000000000E+00 -0.89507084601E+02  0.89507084637E+02  0.25500000000E-02 0.  1.
    5000001    1    1    2    0    0 -0.65947420003E+02  0.16619899054E+02  0.11201988159E+02  0.10334296197E+03  0.77000000000E+02 0.  0.
   -5000001    1    1    2    0    0  0.65947420003E+02 -0.16619899054E+02  0.17308740314E+02  0.10418193577E+03  0.77000000000E+02 0.  0.
<mgrwt>
<rscale>  0 0.20555710E+03</rscale>
<asrwt>0</asrwt>
<pdfrwt beam="1">  1        2 0.12786727E-01 0.20555710E+03</pdfrwt>
<pdfrwt beam="2">  1       -2 0.16859687E-01 0.20555710E+03</pdfrwt>
<totfact> 0.12869222E+04</totfact>
</mgrwt>
</event>
<event>
 4    1  0.6782240E-004  0.1609986E+03  0.7818608E-02  0.1187574E+00
         -2   -1    0    0    0  501 -0.00000000000E+00  0.00000000000E+00  0.16531182772E+03  0.16531182774E+03  0.25500000000E-02 0. -1.
          2   -1    0    0  501    0  0.00000000000E+00 -0.00000000000E+00 -0.39199481779E+02  0.39199481862E+02  0.25500000000E-02 0.  1.
    5000001    1    1    2    0    0  0.12067135795E+02  0.18385303678E+01  0.88529457088E+02  0.11796381111E+03  0.77000000000E+02 0.  0.
   -5000001    1    1    2    0    0 -0.12067135795E+02 -0.18385303678E+01  0.37582888856E+02  0.86547498491E+02  0.77000000000E+02 0.  0.
<mgrwt>
<rscale>  0 0.16099861E+03</rscale>
<asrwt>0</asrwt>
<pdfrwt beam="1">  1        2 0.55999259E-02 0.16099861E+03</pdfrwt>
<pdfrwt beam="2">  1       -2 0.23615976E-01 0.16099861E+03</pdfrwt>
<totfact> 0.20028018E+04</totfact>
</mgrwt>
</event>
<event>
 4    1  0.6782240E-004  0.3525443E+03  0.7818608E-02  0.1061576E+00
          2   -1    0    0  501    0  0.00000000000E+00  0.00000000000E+00  0.84195830493E+02  0.84195830532E+02  0.25500000000E-02 0.  1.
         -2   -1    0    0    0  501 -0.00000000000E+00 -0.00000000000E+00 -0.36904296692E+03  0.36904296693E+03  0.25500000000E-02 0. -1.
    5000001    1    1    2    0    0 -0.63833022422E+02  0.10344820738E+03 -0.11525439821E+02  0.14435380884E+03  0.77000000000E+02 0.  0.
   -5000001    1    1    2    0    0  0.63833022422E+02 -0.10344820738E+03 -0.27332169660E+03  0.30888498862E+03  0.77000000000E+02 0.  0.
<mgrwt>
<rscale>  0 0.35254435E+03</rscale>
<asrwt>0</asrwt>
<pdfrwt beam="1">  1        2 0.12027976E-01 0.35254435E+03</pdfrwt>
<pdfrwt beam="2">  1       -2 0.52720423E-01 0.35254435E+03</pdfrwt>
<totfact> 0.17684973E+03</totfact>
</mgrwt>
</event>
<event>
 4    1  0.6782240E-004  0.3644334E+03  0.7818608E-02  0.1056842E+00
          2   -1    0    0  501    0  0.00000000000E+00  0.00000000000E+00  0.39508625307E+03  0.39508625308E+03  0.25500000000E-02 0.  1.
         -2   -1    0    0    0  501 -0.00000000000E+00 -0.00000000000E+00 -0.84039671376E+02  0.84039671415E+02  0.25500000000E-02 0. -1.
    5000001    1    1    2    0    0 -0.74491081593E+02 -0.11123469123E+03  0.28266267465E+03  0.32210132786E+03  0.77000000000E+02 0.  0.
   -5000001    1    1    2    0    0  0.74491081593E+02  0.11123469123E+03  0.28383907053E+02  0.15702459664E+03  0.77000000000E+02 0.  0.
<mgrwt>
<rscale>  0 0.36443336E+03</rscale>
<asrwt>0</asrwt>
<pdfrwt beam="1">  1        2 0.56440894E-01 0.36443336E+03</pdfrwt>
<pdfrwt beam="2">  1       -2 0.12005667E-01 0.36443336E+03</pdfrwt>
<totfact> 0.43578681E+03</totfact>
</mgrwt>
</event>
<event>
 4    1  0.6782240E-004  0.4549098E+03  0.7818608E-02  0.1026268E+00
          2   -1    0    0  501    0  0.00000000000E+00  0.00000000000E+00  0.73433402286E+03  0.73433402287E+03  0.25500000000E-02 0.  1.
         -2   -1    0    0    0  501 -0.00000000000E+00 -0.00000000000E+00 -0.70452580848E+02  0.70452580895E+02  0.25500000000E-02 0. -1.
    5000001    1    1    2    0    0 -0.63958612144E+02 -0.59410064037E+02 -0.13767897033E+02  0.11721269029E+03  0.77000000000E+02 0.  0.
   -5000001    1    1    2    0    0  0.63958612144E+02  0.59410064037E+02  0.67764933905E+03  0.68757391347E+03  0.77000000000E+02 0.  0.
<mgrwt>
<rscale>  0 0.45490978E+03</rscale>
<asrwt>0</asrwt>
<pdfrwt beam="1">  1        2 0.10490486E+00 0.45490978E+03</pdfrwt>
<pdfrwt beam="2">  1       -2 0.10064654E-01 0.45490978E+03</pdfrwt>
<totfact> 0.28629165E+03</totfact>
</mgrwt>
</event>
<event>
 4    1  0.6782240E-004  0.2281339E+03  0.7818608E-02  0.1127960E+00
         -2   -1    0    0    0  501 -0.00000000000E+00  0.00000000000E+00  0.14198029050E+03  0.14198029052E+03  0.25500000000E-02 0. -1.
          2   -1    0    0  501    0  0.00000000000E+00 -0.00000000000E+00 -0.91641367678E+02  0.91641367714E+02  0.25500000000E-02 0.  1.
    5000001    1    1    2    0    0 -0.13796072060E+02 -0.78247659216E+02 -0.32328896418E+01  0.11069091811E+03  0.77000000000E+02 0.  0.
   -5000001    1    1    2    0    0  0.13796072060E+02  0.78247659216E+02  0.53571812466E+02  0.12293074013E+03  0.77000000000E+02 0.  0.
<mgrwt>
<rscale>  0 0.22813389E+03</rscale>
<asrwt>0</asrwt>
<pdfrwt beam="1">  1        2 0.13091624E-01 0.22813389E+03</pdfrwt>
<pdfrwt beam="2">  1       -2 0.20282898E-01 0.22813389E+03</pdfrwt>
<totfact> 0.92184033E+03</totfact>
</mgrwt>
</event>
<event>
 4    1  0.6782240E-004  0.2314399E+03  0.7818608E-02  0.1125630E+00
          2   -1    0    0  501    0  0.00000000000E+00  0.00000000000E+00  0.84835954632E+03  0.84835954633E+03  0.25500000000E-02 0.  1.
         -2   -1    0    0    0  501 -0.00000000000E+00 -0.00000000000E+00 -0.15784704612E+02  0.15784704818E+02  0.25500000000E-02 0. -1.
    5000001    1    1    2    0    0 -0.59000322399E+02 -0.62960363390E+02  0.43170909805E+03  0.44693040928E+03  0.77000000000E+02 0.  0.
   -5000001    1    1    2    0    0  0.59000322399E+02  0.62960363390E+02  0.40086574366E+03  0.41721384186E+03  0.77000000000E+02 0.  0.
<mgrwt>
<rscale>  0 0.23143988E+03</rscale>
<asrwt>0</asrwt>
<pdfrwt beam="1">  1        2 0.12119421E+00 0.23143988E+03</pdfrwt>
<pdfrwt beam="2">  1       -2 0.22549580E-02 0.23143988E+03</pdfrwt>
<totfact> 0.23084645E+04</totfact>
</mgrwt>
</event>
<event>
 4    1  0.6782240E-004  0.3365524E+03  0.7818608E-02  0.1068274E+00
          2   -1    0    0  501    0  0.00000000000E+00  0.00000000000E+00  0.20601694971E+04  0.20601694971E+04  0.25500000000E-02 0.  1.
         -2   -1    0    0    0  501 -0.00000000000E+00 -0.00000000000E+00 -0.13744926088E+02  0.13744926324E+02  0.25500000000E-02 0. -1.
    5000001    1    1    2    0    0 -0.22789503564E+02  0.14784688846E+03  0.10039078537E+04  0.10179086613E+04  0.77000000000E+02 0.  0.
   -5000001    1    1    2    0    0  0.22789503564E+02 -0.14784688846E+03  0.10425167172E+04  0.10560057621E+04  0.77000000000E+02 0.  0.
<mgrwt>
<rscale>  0 0.33655239E+03</rscale>
<asrwt>0</asrwt>
<pdfrwt beam="1">  1        2 0.29430974E+00 0.33655239E+03</pdfrwt>
<pdfrwt beam="2">  1       -2 0.19635622E-02 0.33655239E+03</pdfrwt>
<totfact> 0.65659555E+03</totfact>
</mgrwt>
</event>
<event>
 4    1  0.6782240E-004  0.2924906E+03  0.7818608E-02  0.1089056E+00
          2   -1    0    0  501    0  0.00000000000E+00  0.00000000000E+00  0.29775469772E+04  0.29775469772E+04  0.25500000000E-02 0.  1.
         -2   -1    0    0    0  501 -0.00000000000E+00 -0.00000000000E+00 -0.71829898006E+01  0.71829902533E+01  0.25500000000E-02 0. -1.
    5000001    1    1    2    0    0  0.63331434872E+02  0.69306093115E+02  0.23169912946E+04  0.23201706542E+04  0.77000000000E+02 0.  0.
   -5000001    1    1    2    0    0 -0.63331434872E+02 -0.69306093115E+02  0.65337269276E+03  0.66455931325E+03  0.77000000000E+02 0.  0.
<mgrwt>
<rscale>  0 0.29249062E+03</rscale>
<asrwt>0</asrwt>
<pdfrwt beam="1">  1        2 0.42536492E+00 0.29249062E+03</pdfrwt>
<pdfrwt beam="2">  1       -2 0.10261389E-02 0.29249062E+03</pdfrwt>
<totfact> 0.58567162E+03</totfact>
</mgrwt>
</event>
<event>
 4    1  0.6782240E-004  0.2801949E+03  0.7818608E-02  0.1095583E+00
         -2   -1    0    0    0  501 -0.00000000000E+00  0.00000000000E+00  0.27903780664E+03  0.27903780665E+03  0.25500000000E-02 0. -1.
          2   -1    0    0  501    0  0.00000000000E+00 -0.00000000000E+00 -0.70339194260E+02  0.70339194307E+02  0.25500000000E-02 0.  1.
    5000001    1    1    2    0    0 -0.78863699963E+02 -0.64088085338E+02  0.31947812802E+02  0.13143982881E+03  0.77000000000E+02 0.  0.
   -5000001    1    1    2    0    0  0.78863699963E+02  0.64088085338E+02  0.17675079958E+03  0.21793717215E+03  0.77000000000E+02 0.  0.
<mgrwt>
<rscale>  0 0.28019489E+03</rscale>
<asrwt>0</asrwt>
<pdfrwt beam="1">  1        2 0.10048456E-01 0.28019489E+03</pdfrwt>
<pdfrwt beam="2">  1       -2 0.39862543E-01 0.28019489E+03</pdfrwt>
<totfact> 0.38048453E+03</totfact>
</mgrwt>
</event>
<event>
 4    1  0.6782240E-004  0.3661925E+03  0.7818608E-02  0.1056158E+00
         -2   -1    0    0    0  501 -0.00000000000E+00  0.00000000000E+00  0.16011136303E+02  0.16011136506E+02  0.25500000000E-02 0. -1.
          2   -1    0    0  501    0  0.00000000000E+00 -0.00000000000E+00 -0.20938080181E+04  0.20938080181E+04  0.25500000000E-02 0.  1.
    5000001    1    1    2    0    0  0.15938135346E+03 -0.43190322499E+02 -0.11431523399E+04  0.11575811384E+04  0.77000000000E+02 0.  0.
   -5000001    1    1    2    0    0 -0.15938135346E+03  0.43190322499E+02 -0.93464454190E+03  0.95223801620E+03  0.77000000000E+02 0.  0.
<mgrwt>
<rscale>  0 0.36619255E+03</rscale>
<asrwt>0</asrwt>
<pdfrwt beam="1">  1        2 0.29911526E+00 0.36619255E+03</pdfrwt>
<pdfrwt beam="2">  1       -2 0.22873065E-02 0.36619255E+03</pdfrwt>
<totfact> 0.50389669E+03</totfact>
</mgrwt>
</event>
<event>
 4    1  0.6782240E-004  0.2637506E+03  0.7818608E-02  0.1104911E+00
          2   -1    0    0  501    0  0.00000000000E+00  0.00000000000E+00  0.30277622538E+03  0.30277622539E+03  0.25500000000E-02 0.  1.
         -2   -1    0    0    0  501 -0.00000000000E+00 -0.00000000000E+00 -0.57438780378E+02  0.57438780435E+02  0.25500000000E-02 0. -1.
    5000001    1    1    2    0    0  0.10180313705E+03 -0.31873664517E+02  0.13505772562E+03  0.18854548112E+03  0.77000000000E+02 0.  0.
   -5000001    1    1    2    0    0 -0.10180313705E+03  0.31873664517E+02  0.11027971938E+03  0.17166952470E+03  0.77000000000E+02 0.  0.
<mgrwt>
<rscale>  0 0.26375062E+03</rscale>
<asrwt>0</asrwt>
<pdfrwt beam="1">  1        2 0.43253746E-01 0.26375062E+03</pdfrwt>
<pdfrwt beam="2">  1       -2 0.82055401E-02 0.26375062E+03</pdfrwt>
<totfact> 0.10542975E+04</totfact>
</mgrwt>
</event>
<event>
 4    1  0.6782240E-004  0.1023459E+04  0.7818608E-02  0.9283183E-01
         -2   -1    0    0    0  501 -0.00000000000E+00  0.00000000000E+00  0.22622653289E+03  0.22622653291E+03  0.25500000000E-02 0. -1.
          2   -1    0    0  501    0  0.00000000000E+00 -0.00000000000E+00 -0.11575429904E+04  0.11575429904E+04  0.25500000000E-02 0.  1.
    5000001    1    1    2    0    0 -0.24026484417E+02 -0.48243751085E+03 -0.26233407340E+03  0.55504179112E+03  0.77000000000E+02 0.  0.
   -5000001    1    1    2    0    0  0.24026484417E+02  0.48243751085E+03 -0.66898238409E+03  0.82872773216E+03  0.77000000000E+02 0.  0.
<mgrwt>
<rscale>  0 0.10234587E+04</rscale>
<asrwt>0</asrwt>
<pdfrwt beam="1">  1        2 0.16536328E+00 0.10234587E+04</pdfrwt>
<pdfrwt beam="2">  1       -2 0.32318077E-01 0.10234587E+04</pdfrwt>
<totfact> 0.20050194E+02</totfact>
</mgrwt>
</event>
<event>
 4    1  0.6782240E-004  0.5429124E+03  0.7818608E-02  0.1003148E+00
         -2   -1    0    0    0  501 -0.00000000000E+00  0.00000000000E+00  0.17451514327E+02  0.17451514513E+02  0.25500000000E-02 0. -1.
          2   -1    0    0  501    0  0.00000000000E+00 -0.00000000000E+00 -0.42224691874E+04  0.42224691874E+04  0.25500000000E-02 0.  1.
    5000001    1    1    2    0    0  0.41604143986E+01  0.22073523978E+03 -0.10255185090E+04  0.10518358082E+04  0.77000000000E+02 0.  0.
   -5000001    1    1    2    0    0 -0.41604143986E+01 -0.22073523978E+03 -0.31794991640E+04  0.31880848937E+04  0.77000000000E+02 0.  0.
<mgrwt>
<rscale>  0 0.54291245E+03</rscale>
<asrwt>0</asrwt>
<pdfrwt beam="1">  1        2 0.60320923E+00 0.54291245E+03</pdfrwt>
<pdfrwt beam="2">  1       -2 0.24930762E-02 0.54291245E+03</pdfrwt>
<totfact> 0.26890800E+02</totfact>
</mgrwt>
</event>
<event>
 4    1  0.6782240E-004  0.2170849E+03  0.7818608E-02  0.1136075E+00
         -2   -1    0    0    0  501 -0.00000000000E+00  0.00000000000E+00  0.23442935060E+02  0.23442935198E+02  0.25500000000E-02 0. -1.
          2   -1    0    0  501    0  0.00000000000E+00 -0.00000000000E+00 -0.50255938605E+03  0.50255938606E+03  0.25500000000E-02 0.  1.
    5000001    1    1    2    0    0 -0.68804918606E+02  0.89622268715E+01 -0.31762435898E+03  0.33410877234E+03  0.77000000000E+02 0.  0.
   -5000001    1    1    2    0    0  0.68804918606E+02 -0.89622268715E+01 -0.16149209202E+03  0.19189354892E+03  0.77000000000E+02 0.  0.
<mgrwt>
<rscale>  0 0.21708493E+03</rscale>
<asrwt>0</asrwt>
<pdfrwt beam="1">  1        2 0.71794191E-01 0.21708493E+03</pdfrwt>
<pdfrwt beam="2">  1       -2 0.33489911E-02 0.21708493E+03</pdfrwt>
<totfact> 0.23577357E+04</totfact>
</mgrwt>
</event>
<event>
 4    1  0.6782240E-004  0.2383211E+03  0.7818608E-02  0.1120916E+00
          2   -1    0    0  501    0  0.00000000000E+00  0.00000000000E+00  0.32365402729E+03  0.32365402730E+03  0.25500000000E-02 0.  1.
         -2   -1    0    0    0  501 -0.00000000000E+00 -0.00000000000E+00 -0.43871656834E+02  0.43871656908E+02  0.25500000000E-02 0. -1.
    5000001    1    1    2    0    0 -0.16817654255E+02  0.89350825364E+02  0.14291117022E+03  0.18606183397E+03  0.77000000000E+02 0.  0.
   -5000001    1    1    2    0    0  0.16817654255E+02 -0.89350825364E+02  0.13687120023E+03  0.18146385023E+03  0.77000000000E+02 0.  0.
<mgrwt>
<rscale>  0 0.23832111E+03</rscale>
<asrwt>0</asrwt>
<pdfrwt beam="1">  1        2 0.46236290E-01 0.23832111E+03</pdfrwt>
<pdfrwt beam="2">  1       -2 0.62673794E-02 0.23832111E+03</pdfrwt>
<totfact> 0.14820071E+04</totfact>
</mgrwt>
</event>
<event>
 4    1  0.6782240E-004  0.3208975E+03  0.7818608E-02  0.1075237E+00
          2   -1    0    0  501    0  0.00000000000E+00  0.00000000000E+00  0.13394704921E+04  0.13394704921E+04  0.25500000000E-02 0.  1.
         -2   -1    0    0    0  501 -0.00000000000E+00 -0.00000000000E+00 -0.19219384785E+02  0.19219384955E+02  0.25500000000E-02 0. -1.
    5000001    1    1    2    0    0 -0.42486793210E+02 -0.79494310212E+02  0.11179166452E+04  0.11241846372E+04  0.77000000000E+02 0.  0.
   -5000001    1    1    2    0    0  0.42486793210E+02  0.79494310212E+02  0.20233446216E+03  0.23450523988E+03  0.77000000000E+02 0.  0.
<mgrwt>
<rscale>  0 0.32089748E+03</rscale>
<asrwt>0</asrwt>
<pdfrwt beam="1">  1        2 0.19135290E+00 0.32089748E+03</pdfrwt>
<pdfrwt beam="2">  1       -2 0.27456268E-02 0.32089748E+03</pdfrwt>
<totfact> 0.91535925E+03</totfact>
</mgrwt>
</event>
<event>
 4    1  0.6782240E-004  0.2804150E+03  0.7818608E-02  0.1095462E+00
          2   -1    0    0  501    0  0.00000000000E+00  0.00000000000E+00  0.26421422602E+02  0.26421422725E+02  0.25500000000E-02 0.  1.
         -2   -1    0    0    0  501 -0.00000000000E+00 -0.00000000000E+00 -0.74402304611E+03  0.74402304612E+03  0.25500000000E-02 0. -1.
    5000001    1    1    2    0    0 -0.25536002856E+02 -0.10495623883E+03 -0.48354064585E+03  0.50140647752E+03  0.77000000000E+02 0.  0.
   -5000001    1    1    2    0    0  0.25536002856E+02  0.10495623883E+03 -0.23406097766E+03  0.26903799132E+03  0.77000000000E+02 0.  0.
<mgrwt>
<rscale>  0 0.28041503E+03</rscale>
<asrwt>0</asrwt>
<pdfrwt beam="1">  1        2 0.37744894E-02 0.28041503E+03</pdfrwt>
<pdfrwt beam="2">  1       -2 0.10628899E+00 0.28041503E+03</pdfrwt>
<totfact> 0.17037699E+03</totfact>
</mgrwt>
</event>
<event>
 4    1  0.6782240E-004  0.2175744E+03  0.7818608E-02  0.1135704E+00
          2   -1    0    0  501    0  0.00000000000E+00  0.00000000000E+00  0.15907949357E+04  0.15907949357E+04  0.25500000000E-02 0.  1.
         -2   -1    0    0    0  501 -0.00000000000E+00 -0.00000000000E+00 -0.74394596029E+01  0.74394600399E+01  0.25500000000E-02 0. -1.
    5000001    1    1    2    0    0 -0.10943851581E+02 -0.60484480016E+02  0.11304976858E+04  0.11347828681E+04  0.77000000000E+02 0.  0.
   -5000001    1    1    2    0    0  0.10943851581E+02  0.60484480016E+02  0.45285779032E+03  0.46345152763E+03  0.77000000000E+02 0.  0.
<mgrwt>
<rscale>  0 0.21757440E+03</rscale>
<asrwt>0</asrwt>
<pdfrwt beam="1">  1        2 0.22725639E+00 0.21757440E+03</pdfrwt>
<pdfrwt beam="2">  1       -2 0.10627801E-02 0.21757440E+03</pdfrwt>
<totfact> 0.27061237E+04</totfact>
</mgrwt>
</event>
<event>
 4    1  0.6782240E-004  0.3990969E+03  0.7818608E-02  0.1044093E+00
         -2   -1    0    0    0  501 -0.00000000000E+00  0.00000000000E+00  0.37861979782E+02  0.37861979868E+02  0.25500000000E-02 0. -1.
          2   -1    0    0  501    0  0.00000000000E+00 -0.00000000000E+00 -0.10517039115E+04  0.10517039115E+04  0.25500000000E-02 0.  1.
    5000001    1    1    2    0    0  0.10760432251E+03 -0.14724579933E+03 -0.43836519202E+03  0.48099174340E+03  0.77000000000E+02 0.  0.
   -5000001    1    1    2    0    0 -0.10760432251E+03  0.14724579933E+03 -0.57547673969E+03  0.60857414797E+03  0.77000000000E+02 0.  0.
<mgrwt>
<rscale>  0 0.39909694E+03</rscale>
<asrwt>0</asrwt>
<pdfrwt beam="1">  1        2 0.15024340E+00 0.39909694E+03</pdfrwt>
<pdfrwt beam="2">  1       -2 0.54088549E-02 0.39909694E+03</pdfrwt>
<totfact> 0.47413533E+03</totfact>
</mgrwt>
</event>
<event>
 4    1  0.6782240E-004  0.2269066E+03  0.7818608E-02  0.1128836E+00
          2   -1    0    0  501    0  0.00000000000E+00  0.00000000000E+00  0.45591736322E+03  0.45591736322E+03  0.25500000000E-02 0.  1.
         -2   -1    0    0    0  501 -0.00000000000E+00 -0.00000000000E+00 -0.28232420986E+02  0.28232421101E+02  0.25500000000E-02 0. -1.
    5000001    1    1    2    0    0  0.47290098336E+02  0.49111663716E+02  0.11163992810E+03  0.15179190512E+03  0.77000000000E+02 0.  0.
   -5000001    1    1    2    0    0 -0.47290098336E+02 -0.49111663716E+02  0.31604501413E+03  0.33235787920E+03  0.77000000000E+02 0.  0.
<mgrwt>
<rscale>  0 0.22690660E+03</rscale>
<asrwt>0</asrwt>
<pdfrwt beam="1">  1        2 0.65131053E-01 0.22690660E+03</pdfrwt>
<pdfrwt beam="2">  1       -2 0.40332029E-02 0.22690660E+03</pdfrwt>
<totfact> 0.19928724E+04</totfact>
</mgrwt>
</event>
<event>
 4    1  0.6782240E-004  0.2876519E+03  0.7818608E-02  0.1091582E+00
          2   -1    0    0  501    0  0.00000000000E+00  0.00000000000E+00  0.31843964472E+04  0.31843964473E+04  0.25500000000E-02 0.  1.
         -2   -1    0    0    0  501 -0.00000000000E+00 -0.00000000000E+00 -0.64960212212E+01  0.64960217217E+01  0.25500000000E-02 0. -1.
    5000001    1    1    2    0    0  0.95425997255E+02 -0.39773494072E+02  0.22965391556E+04  0.23001541568E+04  0.77000000000E+02 0.  0.
   -5000001    1    1    2    0    0 -0.95425997255E+02  0.39773494072E+02  0.88136127045E+03  0.89073831220E+03  0.77000000000E+02 0.  0.
<mgrwt>
<rscale>  0 0.28765193E+03</rscale>
<asrwt>0</asrwt>
<pdfrwt beam="1">  1        2 0.45491098E+00 0.28765193E+03</pdfrwt>
<pdfrwt beam="2">  1       -2 0.92800878E-03 0.28765193E+03</pdfrwt>
<totfact> 0.52475572E+03</totfact>
</mgrwt>
</event>
<event>
 4    1  0.6782240E-004  0.3013577E+03  0.7818608E-02  0.1084564E+00
          2   -1    0    0  501    0  0.00000000000E+00  0.00000000000E+00  0.19886064792E+04  0.19886064792E+04  0.25500000000E-02 0.  1.
         -2   -1    0    0    0  501 -0.00000000000E+00 -0.00000000000E+00 -0.11417098551E+02  0.11417098836E+02  0.25500000000E-02 0. -1.
    5000001    1    1    2    0    0  0.90000554169E+02  0.82458504219E+02  0.70116985463E+03  0.71586847235E+03  0.77000000000E+02 0.  0.
   -5000001    1    1    2    0    0 -0.90000554169E+02 -0.82458504219E+02  0.12760195260E+04  0.12841551056E+04  0.77000000000E+02 0.  0.
<mgrwt>
<rscale>  0 0.30135770E+03</rscale>
<asrwt>0</asrwt>
<pdfrwt beam="1">  1        2 0.28408662E+00 0.30135770E+03</pdfrwt>
<pdfrwt beam="2">  1       -2 0.16310142E-02 0.30135770E+03</pdfrwt>
<totfact> 0.93504565E+03</totfact>
</mgrwt>
</event>
<event>
 4    1  0.6782240E-004  0.2692508E+03  0.7818608E-02  0.1101709E+00
          2   -1    0    0  501    0  0.00000000000E+00  0.00000000000E+00  0.13390980865E+04  0.13390980865E+04  0.25500000000E-02 0.  1.
         -2   -1    0    0    0  501 -0.00000000000E+00 -0.00000000000E+00 -0.13534480046E+02  0.13534480287E+02  0.25500000000E-02 0. -1.
    5000001    1    1    2    0    0 -0.90152802725E+02  0.21753064002E+02  0.36160024138E+03  0.38116198420E+03  0.77000000000E+02 0.  0.
   -5000001    1    1    2    0    0  0.90152802725E+02 -0.21753064002E+02  0.96396336504E+03  0.97147058256E+03  0.77000000000E+02 0.  0.
<mgrwt>
<rscale>  0 0.26925079E+03</rscale>
<asrwt>0</asrwt>
<pdfrwt beam="1">  1        2 0.19129967E+00 0.26925079E+03</pdfrwt>
<pdfrwt beam="2">  1       -2 0.19334977E-02 0.26925079E+03</pdfrwt>
<totfact> 0.15312884E+04</totfact>
</mgrwt>
</event>
<event>
 4    1  0.6782240E-004  0.2601824E+03  0.7818608E-02  0.1107034E+00
          2   -1    0    0  501    0  0.00000000000E+00  0.00000000000E+00  0.13040807988E+04  0.13040807988E+04  0.25500000000E-02 0.  1.
         -2   -1    0    0    0  501 -0.00000000000E+00 -0.00000000000E+00 -0.12977509383E+02  0.12977509633E+02  0.25500000000E-02 0. -1.
    5000001    1    1    2    0    0 -0.94184286073E+02  0.38846191240E+02  0.52001520441E+03  0.53546663681E+03  0.77000000000E+02 0.  0.
   -5000001    1    1    2    0    0  0.94184286073E+02 -0.38846191240E+02  0.77108808500E+03  0.78159167162E+03  0.77000000000E+02 0.  0.
<mgrwt>
<rscale>  0 0.26018241E+03</rscale>
<asrwt>0</asrwt>
<pdfrwt beam="1">  1        2 0.18629720E+00 0.26018241E+03</pdfrwt>
<pdfrwt beam="2">  1       -2 0.18539305E-02 0.26018241E+03</pdfrwt>
<totfact> 0.16967769E+04</totfact>
</mgrwt>
</event>
<event>
 4    1  0.6782240E-004  0.3894900E+03  0.7818608E-02  0.1047481E+00
         -2   -1    0    0    0  501 -0.00000000000E+00  0.00000000000E+00  0.16610115961E+02  0.16610116157E+02  0.25500000000E-02 0. -1.
          2   -1    0    0  501    0  0.00000000000E+00 -0.00000000000E+00 -0.22832841462E+04  0.22832841462E+04  0.25500000000E-02 0.  1.
    5000001    1    1    2    0    0  0.13773597077E+03 -0.83611718612E+02 -0.15920405819E+04  0.16020250720E+04  0.77000000000E+02 0.  0.
   -5000001    1    1    2    0    0 -0.13773597077E+03  0.83611718612E+02 -0.67463344833E+03  0.69786919028E+03  0.77000000000E+02 0.  0.
<mgrwt>
<rscale>  0 0.38949000E+03</rscale>
<asrwt>0</asrwt>
<pdfrwt beam="1">  1        2 0.32618325E+00 0.38949000E+03</pdfrwt>
<pdfrwt beam="2">  1       -2 0.23728752E-02 0.38949000E+03</pdfrwt>
<totfact> 0.38413597E+03</totfact>
</mgrwt>
</event>
<event>
 4    1  0.6782240E-004  0.4355006E+03  0.7818608E-02  0.1032136E+00
         -2   -1    0    0    0  501 -0.00000000000E+00  0.00000000000E+00  0.13360373667E+02  0.13360373910E+02  0.25500000000E-02 0. -1.
          2   -1    0    0  501    0  0.00000000000E+00 -0.00000000000E+00 -0.35489428476E+04  0.35489428476E+04  0.25500000000E-02 0.  1.
    5000001    1    1    2    0    0  0.19114519089E+03 -0.65419881955E+02 -0.15560692875E+04  0.15710177824E+04  0.77000000000E+02 0.  0.
   -5000001    1    1    2    0    0 -0.19114519089E+03  0.65419881955E+02 -0.19795131864E+04  0.19912854392E+04  0.77000000000E+02 0.  0.
<mgrwt>
<rscale>  0 0.43550065E+03</rscale>
<asrwt>0</asrwt>
<pdfrwt beam="1">  1        2 0.50699123E+00 0.43550065E+03</pdfrwt>
<pdfrwt beam="2">  1       -2 0.19086271E-02 0.43550065E+03</pdfrwt>
<totfact> 0.11104825E+03</totfact>
</mgrwt>
</event>
<event>
 4    1  0.6782240E-004  0.2216188E+03  0.7818608E-02  0.1132682E+00
          2   -1    0    0  501    0  0.00000000000E+00  0.00000000000E+00  0.83438895747E+03  0.83438895747E+03  0.25500000000E-02 0.  1.
         -2   -1    0    0    0  501 -0.00000000000E+00 -0.00000000000E+00 -0.14715829496E+02  0.14715829717E+02  0.25500000000E-02 0. -1.
    5000001    1    1    2    0    0  0.14268216354E+02  0.52286569654E+02  0.63364455966E+03  0.64060275940E+03  0.77000000000E+02 0.  0.
   -5000001    1    1    2    0    0 -0.14268216354E+02 -0.52286569654E+02  0.18602856831E+03  0.20850202779E+03  0.77000000000E+02 0.  0.
<mgrwt>
<rscale>  0 0.22161882E+03</rscale>
<asrwt>0</asrwt>
<pdfrwt beam="1">  1        2 0.11919841E+00 0.22161882E+03</pdfrwt>
<pdfrwt beam="2">  1       -2 0.21022617E-02 0.22161882E+03</pdfrwt>
<totfact> 0.26057523E+04</totfact>
</mgrwt>
</event>
<event>
 4    1  0.6782240E-004  0.2274068E+03  0.7818608E-02  0.1128478E+00
          2   -1    0    0  501    0  0.00000000000E+00  0.00000000000E+00  0.54578454864E+03  0.54578454865E+03  0.25500000000E-02 0.  1.
         -2   -1    0    0    0  501 -0.00000000000E+00 -0.00000000000E+00 -0.23687844351E+02  0.23687844488E+02  0.25500000000E-02 0. -1.
    5000001    1    1    2    0    0 -0.34673813555E+02 -0.39269629176E+02  0.42439990802E+03  0.43449816921E+03  0.77000000000E+02 0.  0.
   -5000001    1    1    2    0    0  0.34673813555E+02  0.39269629176E+02  0.97696796272E+02  0.13497422392E+03  0.77000000000E+02 0.  0.
<mgrwt>
<rscale>  0 0.22740677E+03</rscale>
<asrwt>0</asrwt>
<pdfrwt beam="1">  1        2 0.77969212E-01 0.22740677E+03</pdfrwt>
<pdfrwt beam="2">  1       -2 0.33839782E-02 0.22740677E+03</pdfrwt>
<totfact> 0.21253036E+04</totfact>
</mgrwt>
</event>
<event>
 4    1  0.6782240E-004  0.2006910E+03  0.7818608E-02  0.1149157E+00
          2   -1    0    0  501    0  0.00000000000E+00  0.00000000000E+00  0.13414194099E+04  0.13414194099E+04  0.25500000000E-02 0.  1.
         -2   -1    0    0    0  501 -0.00000000000E+00 -0.00000000000E+00 -0.75063918711E+01  0.75063923042E+01  0.25500000000E-02 0. -1.
    5000001    1    1    2    0    0 -0.36811997168E+02  0.51210443825E+02  0.58125202705E+03  0.58971226174E+03  0.77000000000E+02 0.  0.
   -5000001    1    1    2    0    0  0.36811997168E+02 -0.51210443825E+02  0.75266099096E+03  0.75921354046E+03  0.77000000000E+02 0.  0.
<mgrwt>
<rscale>  0 0.20069101E+03</rscale>
<asrwt>0</asrwt>
<pdfrwt beam="1">  1        2 0.19163163E+00 0.20069101E+03</pdfrwt>
<pdfrwt beam="2">  1       -2 0.10723401E-02 0.20069101E+03</pdfrwt>
<totfact> 0.35502603E+04</totfact>
</mgrwt>
</event>
<event>
 4    1  0.6782240E-004  0.3288234E+03  0.7818608E-02  0.1071659E+00
         -2   -1    0    0    0  501 -0.00000000000E+00  0.00000000000E+00  0.18607189071E+02  0.18607189245E+02  0.25500000000E-02 0. -1.
          2   -1    0    0  501    0  0.00000000000E+00 -0.00000000000E+00 -0.14527289687E+04  0.14527289687E+04  0.25500000000E-02 0.  1.
    5000001    1    1    2    0    0 -0.88089841049E+02 -0.11535133329E+03 -0.69004538540E+03  0.70933587538E+03  0.77000000000E+02 0.  0.
   -5000001    1    1    2    0    0  0.88089841049E+02  0.11535133329E+03 -0.74407639425E+03  0.76200028259E+03  0.77000000000E+02 0.  0.
<mgrwt>
<rscale>  0 0.32882337E+03</rscale>
<asrwt>0</asrwt>
<pdfrwt beam="1">  1        2 0.20753264E+00 0.32882337E+03</pdfrwt>
<pdfrwt beam="2">  1       -2 0.26581708E-02 0.32882337E+03</pdfrwt>
<totfact> 0.83947379E+03</totfact>
</mgrwt>
</event>
<event>
 4    1  0.6782240E-004  0.4104020E+03  0.7818608E-02  0.1040236E+00
          2   -1    0    0  501    0  0.00000000000E+00  0.00000000000E+00  0.61004379279E+02  0.61004379333E+02  0.25500000000E-02 0.  1.
         -2   -1    0    0    0  501 -0.00000000000E+00 -0.00000000000E+00 -0.69023667234E+03  0.69023667234E+03  0.25500000000E-02 0. -1.
    5000001    1    1    2    0    0  0.56298673347E+01  0.18271021295E+03 -0.41084794001E+03  0.45622335224E+03  0.77000000000E+02 0.  0.
   -5000001    1    1    2    0    0 -0.56298673347E+01 -0.18271021295E+03 -0.21838435305E+03  0.29501769944E+03  0.77000000000E+02 0.  0.
<mgrwt>
<rscale>  0 0.41040205E+03</rscale>
<asrwt>0</asrwt>
<pdfrwt beam="1">  1        2 0.87149117E-02 0.41040205E+03</pdfrwt>
<pdfrwt beam="2">  1       -2 0.98605234E-01 0.41040205E+03</pdfrwt>
<totfact> 0.68045632E+02</totfact>
</mgrwt>
</event>
<event>
 4    1  0.6782240E-004  0.1673453E+03  0.7818608E-02  0.1180645E+00
         -2   -1    0    0    0  501 -0.00000000000E+00  0.00000000000E+00  0.42498432374E+01  0.42498440024E+01  0.25500000000E-02 0. -1.
          2   -1    0    0  501    0  0.00000000000E+00 -0.00000000000E+00 -0.16473812838E+04  0.16473812838E+04  0.25500000000E-02 0.  1.
    5000001    1    1    2    0    0 -0.29303549478E+02 -0.10844501977E+02 -0.91817271821E+03  0.92192539921E+03  0.77000000000E+02 0.  0.
   -5000001    1    1    2    0    0  0.29303549478E+02  0.10844501977E+02 -0.72495872237E+03  0.72970572862E+03  0.77000000000E+02 0.  0.
<mgrwt>
<rscale>  0 0.16734531E+03</rscale>
<asrwt>0</asrwt>
<pdfrwt beam="1">  1        2 0.23533978E+00 0.16734531E+03</pdfrwt>
<pdfrwt beam="2">  1       -2 0.60712157E-03 0.16734531E+03</pdfrwt>
<totfact> 0.55772536E+04</totfact>
</mgrwt>
</event>
<event>
 4    1  0.6782240E-004  0.5211169E+03  0.7818608E-02  0.1008409E+00
          2   -1    0    0  501    0  0.00000000000E+00  0.00000000000E+00  0.30459844823E+03  0.30459844824E+03  0.25500000000E-02 0.  1.
         -2   -1    0    0    0  501 -0.00000000000E+00 -0.00000000000E+00 -0.22288588591E+03  0.22288588592E+03  0.25500000000E-02 0. -1.
    5000001    1    1    2    0    0  0.18297266971E+03  0.11463370170E+03 -0.84519243989E+02  0.24432025301E+03  0.77000000000E+02 0.  0.
   -5000001    1    1    2    0    0 -0.18297266971E+03 -0.11463370170E+03  0.16623180631E+03  0.28316408115E+03  0.77000000000E+02 0.  0.
<mgrwt>
<rscale>  0 0.52111686E+03</rscale>
<asrwt>0</asrwt>
<pdfrwt beam="1">  1        2 0.43514064E-01 0.52111686E+03</pdfrwt>
<pdfrwt beam="2">  1       -2 0.31840841E-01 0.52111686E+03</pdfrwt>
<totfact> 0.10758042E+03</totfact>
</mgrwt>
</event>
<event>
 4    1  0.6782240E-004  0.1776883E+03  0.7818608E-02  0.1170059E+00
          2   -1    0    0  501    0  0.00000000000E+00  0.00000000000E+00  0.15062115309E+03  0.15062115311E+03  0.25500000000E-02 0.  1.
         -2   -1    0    0    0  501 -0.00000000000E+00 -0.00000000000E+00 -0.52404851833E+02  0.52404851896E+02  0.25500000000E-02 0. -1.
    5000001    1    1    2    0    0  0.22552460584E+02 -0.86158558699E+01  0.66405409483E+01  0.80968779384E+02  0.77000000000E+02 0.  0.
   -5000001    1    1    2    0    0 -0.22552460584E+02  0.86158558699E+01  0.91575760307E+02  0.12205722562E+03  0.77000000000E+02 0.  0.
<mgrwt>
<rscale>  0 0.17768826E+03</rscale>
<asrwt>0</asrwt>
<pdfrwt beam="1">  1        2 0.21517308E-01 0.17768826E+03</pdfrwt>
<pdfrwt beam="2">  1       -2 0.74864073E-02 0.17768826E+03</pdfrwt>
<totfact> 0.25428420E+04</totfact>
</mgrwt>
</event>
<event>
 4    1  0.6782240E-004  0.3729975E+03  0.7818608E-02  0.1053553E+00
          2   -1    0    0  501    0  0.00000000000E+00  0.00000000000E+00  0.27061541605E+04  0.27061541605E+04  0.25500000000E-02 0. -1.
         -2   -1    0    0    0  501 -0.00000000000E+00 -0.00000000000E+00 -0.12852845904E+02  0.12852846157E+02  0.25500000000E-02 0.  1.
    5000001    1    1    2    0    0  0.49219302336E+02  0.16215085999E+03  0.12612216163E+04  0.12748821147E+04  0.77000000000E+02 0.  0.
   -5000001    1    1    2    0    0 -0.49219302336E+02 -0.16215085999E+03  0.14320796983E+04  0.14441248919E+04  0.77000000000E+02 0.  0.
<mgrwt>
<rscale>  0 0.37299749E+03</rscale>
<asrwt>0</asrwt>
<pdfrwt beam="1">  1        2 0.38659353E+00 0.37299749E+03</pdfrwt>
<pdfrwt beam="2">  1       -2 0.18361205E-02 0.37299749E+03</pdfrwt>
<totfact> 0.34409446E+03</totfact>
</mgrwt>
</event>
<event>
 4    1  0.6782240E-004  0.2280712E+03  0.7818608E-02  0.1128005E+00
          2   -1    0    0  501    0  0.00000000000E+00  0.00000000000E+00  0.14003170217E+03  0.14003170219E+03  0.25500000000E-02 0.  1.
         -2   -1    0    0    0  501 -0.00000000000E+00 -0.00000000000E+00 -0.92865518332E+02  0.92865518367E+02  0.25500000000E-02 0. -1.
    5000001    1    1    2    0    0  0.50245629080E+02  0.67439389805E+02  0.21993859305E+02  0.11612675999E+03  0.77000000000E+02 0.  0.
   -5000001    1    1    2    0    0 -0.50245629080E+02 -0.67439389805E+02  0.25172324533E+02  0.11677046057E+03  0.77000000000E+02 0.  0.
<mgrwt>
<rscale>  0 0.22807119E+03</rscale>
<asrwt>0</asrwt>
<pdfrwt beam="1">  1        2 0.20004529E-01 0.22807119E+03</pdfrwt>
<pdfrwt beam="2">  1       -2 0.13266503E-01 0.22807119E+03</pdfrwt>
<totfact> 0.11376974E+04</totfact>
</mgrwt>
</event>
<event>
 4    1  0.6782240E-004  0.4977143E+03  0.7818608E-02  0.1014377E+00
          2   -1    0    0  501    0  0.00000000000E+00  0.00000000000E+00  0.14040133434E+04  0.14040133434E+04  0.25500000000E-02 0.  1.
         -2   -1    0    0    0  501 -0.00000000000E+00 -0.00000000000E+00 -0.44109187324E+02  0.44109187398E+02  0.25500000000E-02 0. -1.
    5000001    1    1    2    0    0  0.11549015074E+02 -0.22022751114E+03  0.43021624798E+03  0.48953912656E+03  0.77000000000E+02 0.  0.
   -5000001    1    1    2    0    0 -0.11549015074E+02  0.22022751114E+03  0.92968790810E+03  0.95858340424E+03  0.77000000000E+02 0.  0.
<mgrwt>
<rscale>  0 0.49771433E+03</rscale>
<asrwt>0</asrwt>
<pdfrwt beam="1">  1        2 0.20057333E+00 0.49771433E+03</pdfrwt>
<pdfrwt beam="2">  1       -2 0.63013127E-02 0.49771433E+03</pdfrwt>
<totfact> 0.23927886E+03</totfact>
</mgrwt>
</event>
<event>
 4    1  0.6782240E-004  0.2742928E+03  0.7818608E-02  0.1098848E+00
          2   -1    0    0  501    0  0.00000000000E+00  0.00000000000E+00  0.41417360136E+04  0.41417360136E+04  0.25500000000E-02 0.  1.
         -2   -1    0    0    0  501 -0.00000000000E+00 -0.00000000000E+00 -0.45413662958E+01  0.45413670117E+01  0.25500000000E-02 0. -1.
    5000001    1    1    2    0    0 -0.52532947995E+01  0.88709585304E+02  0.10015196603E+04  0.10083985411E+04  0.77000000000E+02 0.  0.
   -5000001    1    1    2    0    0  0.52532947995E+01 -0.88709585304E+02  0.31356749869E+04  0.31378788395E+04  0.77000000000E+02 0.  0.
<mgrwt>
<rscale>  0 0.27429285E+03</rscale>
<asrwt>0</asrwt>
<pdfrwt beam="1">  1        2 0.59167656E+00 0.27429285E+03</pdfrwt>
<pdfrwt beam="2">  1       -2 0.64876667E-03 0.27429285E+03</pdfrwt>
<totfact> 0.23277091E+03</totfact>
</mgrwt>
</event>
<event>
 4    1  0.6782240E-004  0.2508955E+03  0.7818608E-02  0.1112740E+00
         -2   -1    0    0    0  501 -0.00000000000E+00  0.00000000000E+00  0.66376230426E+01  0.66376235324E+01  0.25500000000E-02 0. -1.
          2   -1    0    0  501    0  0.00000000000E+00 -0.00000000000E+00 -0.23708992348E+04  0.23708992348E+04  0.25500000000E-02 0.  1.
    5000001    1    1    2    0    0  0.67774769420E+02  0.53663786557E+02 -0.72423157271E+03  0.73342592828E+03  0.77000000000E+02 0.  0.
   -5000001    1    1    2    0    0 -0.67774769420E+02 -0.53663786557E+02 -0.16400300390E+04  0.16441109300E+04  0.77000000000E+02 0.  0.
<mgrwt>
<rscale>  0 0.25089548E+03</rscale>
<asrwt>0</asrwt>
<pdfrwt beam="1">  1        2 0.33869935E+00 0.25089548E+03</pdfrwt>
<pdfrwt beam="2">  1       -2 0.94823342E-03 0.25089548E+03</pdfrwt>
<totfact> 0.13362539E+04</totfact>
</mgrwt>
</event>
<event>
 4    1  0.6782240E-004  0.1964772E+03  0.7818608E-02  0.1152746E+00
          2   -1    0    0  501    0  0.00000000000E+00  0.00000000000E+00  0.41340868674E+03  0.41340868675E+03  0.25500000000E-02 0.  1.
         -2   -1    0    0    0  501 -0.00000000000E+00 -0.00000000000E+00 -0.23344519210E+02  0.23344519349E+02  0.25500000000E-02 0. -1.
    5000001    1    1    2    0    0 -0.60025228906E+02 -0.10329561790E+02  0.20276423855E+03  0.22528218835E+03  0.77000000000E+02 0.  0.
   -5000001    1    1    2    0    0  0.60025228906E+02  0.10329561790E+02  0.18729992898E+03  0.21147101775E+03  0.77000000000E+02 0.  0.
<mgrwt>
<rscale>  0 0.19647725E+03</rscale>
<asrwt>0</asrwt>
<pdfrwt beam="1">  1        2 0.59058386E-01 0.19647725E+03</pdfrwt>
<pdfrwt beam="2">  1       -2 0.33349312E-02 0.19647725E+03</pdfrwt>
<totfact> 0.29116288E+04</totfact>
</mgrwt>
</event>
<event>
 4    1  0.6782240E-004  0.3456158E+03  0.7818608E-02  0.1064429E+00
         -2   -1    0    0    0  501 -0.00000000000E+00  0.00000000000E+00  0.62307523293E+02  0.62307523345E+02  0.25500000000E-02 0. -1.
          2   -1    0    0  501    0  0.00000000000E+00 -0.00000000000E+00 -0.47927723573E+03  0.47927723574E+03  0.25500000000E-02 0.  1.
    5000001    1    1    2    0    0  0.11327128233E+03  0.10056266646E+03 -0.25779836304E+03  0.30875917682E+03  0.77000000000E+02 0.  0.
   -5000001    1    1    2    0    0 -0.11327128233E+03 -0.10056266646E+03 -0.15917134940E+03  0.23282558226E+03  0.77000000000E+02 0.  0.
<mgrwt>
<rscale>  0 0.34561584E+03</rscale>
<asrwt>0</asrwt>
<pdfrwt beam="1">  1        2 0.68468174E-01 0.34561584E+03</pdfrwt>
<pdfrwt beam="2">  1       -2 0.89010751E-02 0.34561584E+03</pdfrwt>
<totfact> 0.56885484E+03</totfact>
</mgrwt>
</event>
<event>
 4    1  0.6782240E-004  0.1891582E+03  0.7818608E-02  0.1159223E+00
          2   -1    0    0  501    0  0.00000000000E+00  0.00000000000E+00  0.58479058099E+02  0.58479058154E+02  0.25500000000E-02 0.  1.
         -2   -1    0    0    0  501 -0.00000000000E+00 -0.00000000000E+00 -0.15296424045E+03  0.15296424047E+03  0.25500000000E-02 0. -1.
    5000001    1    1    2    0    0  0.35538825686E+02 -0.41866569446E+02 -0.47937924192E+02  0.10603236461E+03  0.77000000000E+02 0.  0.
   -5000001    1    1    2    0    0 -0.35538825686E+02  0.41866569446E+02 -0.46547258158E+02  0.10541093402E+03  0.77000000000E+02 0.  0.
<mgrwt>
<rscale>  0 0.18915818E+03</rscale>
<asrwt>0</asrwt>
<pdfrwt beam="1">  1        2 0.83541512E-02 0.18915818E+03</pdfrwt>
<pdfrwt beam="2">  1       -2 0.21852034E-01 0.18915818E+03</pdfrwt>
<totfact> 0.13923005E+04</totfact>
</mgrwt>
</event>
<event>
 4    1  0.6782240E-004  0.1969675E+03  0.7818608E-02  0.1152323E+00
         -2   -1    0    0    0  501 -0.00000000000E+00  0.00000000000E+00  0.10467267886E+02  0.10467268197E+02  0.25500000000E-02 0. -1.
          2   -1    0    0  501    0  0.00000000000E+00 -0.00000000000E+00 -0.92660716596E+03  0.92660716597E+03  0.25500000000E-02 0.  1.
    5000001    1    1    2    0    0 -0.26643785714E+02 -0.50620748721E+02 -0.35193441183E+03  0.36477278098E+03  0.77000000000E+02 0.  0.
   -5000001    1    1    2    0    0  0.26643785714E+02  0.50620748721E+02 -0.56420548625E+03  0.57230165318E+03  0.77000000000E+02 0.  0.
<mgrwt>
<rscale>  0 0.19696747E+03</rscale>
<asrwt>0</asrwt>
<pdfrwt beam="1">  1        2 0.13237240E+00 0.19696747E+03</pdfrwt>
<pdfrwt beam="2">  1       -2 0.14953246E-02 0.19696747E+03</pdfrwt>
<totfact> 0.37180094E+04</totfact>
</mgrwt>
</event>
<event>
 4    1  0.6782240E-004  0.2136498E+03  0.7818608E-02  0.1138708E+00
          2   -1    0    0  501    0  0.00000000000E+00  0.00000000000E+00  0.24628423798E+02  0.24628423930E+02  0.25500000000E-02 0.  1.
         -2   -1    0    0    0  501 -0.00000000000E+00 -0.00000000000E+00 -0.46334917381E+03  0.46334917382E+03  0.25500000000E-02 0. -1.
    5000001    1    1    2    0    0 -0.24811851115E+02 -0.68487911313E+02 -0.18903052822E+03  0.21672047100E+03  0.77000000000E+02 0.  0.
   -5000001    1    1    2    0    0  0.24811851115E+02  0.68487911313E+02 -0.24969022179E+03  0.27125712674E+03  0.77000000000E+02 0.  0.
<mgrwt>
<rscale>  0 0.21364981E+03</rscale>
<asrwt>0</asrwt>
<pdfrwt beam="1">  1        2 0.35183465E-02 0.21364981E+03</pdfrwt>
<pdfrwt beam="2">  1       -2 0.66192734E-01 0.21364981E+03</pdfrwt>
<totfact> 0.53156974E+03</totfact>
</mgrwt>
</event>
<event>
 4    1  0.6782240E-004  0.2388347E+03  0.7818608E-02  0.1120572E+00
          2   -1    0    0  501    0  0.00000000000E+00  0.00000000000E+00  0.67599274019E+03  0.67599274020E+03  0.25500000000E-02 0.  1.
         -2   -1    0    0    0  501 -0.00000000000E+00 -0.00000000000E+00 -0.21095641417E+02  0.21095641571E+02  0.25500000000E-02 0. -1.
    5000001    1    1    2    0    0 -0.30668263858E+02  0.68904228913E+02  0.17739280366E+03  0.20757057104E+03  0.77000000000E+02 0.  0.
   -5000001    1    1    2    0    0  0.30668263858E+02 -0.68904228913E+02  0.47750429511E+03  0.48951781073E+03  0.77000000000E+02 0.  0.
<mgrwt>
<rscale>  0 0.23883468E+03</rscale>
<asrwt>0</asrwt>
<pdfrwt beam="1">  1        2 0.96570400E-01 0.23883468E+03</pdfrwt>
<pdfrwt beam="2">  1       -2 0.30136628E-02 0.23883468E+03</pdfrwt>
<totfact> 0.19839116E+04</totfact>
</mgrwt>
</event>
<event>
 4    1  0.6782240E-004  0.2122578E+03  0.7818608E-02  0.1139790E+00
          2   -1    0    0  501    0  0.00000000000E+00  0.00000000000E+00  0.14363065070E+04  0.14363065070E+04  0.25500000000E-02 0.  1.
         -2   -1    0    0    0  501 -0.00000000000E+00 -0.00000000000E+00 -0.78418784182E+01  0.78418788328E+01  0.25500000000E-02 0. -1.
    5000001    1    1    2    0    0 -0.17681034770E+01 -0.72404328252E+02  0.77835681933E+03  0.78550229226E+03  0.77000000000E+02 0.  0.
   -5000001    1    1    2    0    0  0.17681034770E+01  0.72404328252E+02  0.65010780929E+03  0.65864609362E+03  0.77000000000E+02 0.  0.
<mgrwt>
<rscale>  0 0.21225778E+03</rscale>
<asrwt>0</asrwt>
<pdfrwt beam="1">  1        2 0.20518646E+00 0.21225778E+03</pdfrwt>
<pdfrwt beam="2">  1       -2 0.11202694E-02 0.21225778E+03</pdfrwt>
<totfact> 0.29914150E+04</totfact>
</mgrwt>
</event>
<event>
 4    1  0.6782240E-004  0.1655757E+03  0.7818608E-02  0.1182542E+00
          2   -1    0    0  501    0  0.00000000000E+00  0.00000000000E+00  0.71101105924E+03  0.71101105924E+03  0.25500000000E-02 0.  1.
         -2   -1    0    0    0  501 -0.00000000000E+00 -0.00000000000E+00 -0.96395566738E+01  0.96395570111E+01  0.25500000000E-02 0. -1.
    5000001    1    1    2    0    0  0.25035784701E+02  0.16264913750E+01  0.42549064622E+03  0.43312899466E+03  0.77000000000E+02 0.  0.
   -5000001    1    1    2    0    0 -0.25035784701E+02 -0.16264913750E+01  0.27588085634E+03  0.28752162160E+03  0.77000000000E+02 0.  0.
<mgrwt>
<rscale>  0 0.16557574E+03</rscale>
<asrwt>0</asrwt>
<pdfrwt beam="1">  1        2 0.10157297E+00 0.16557574E+03</pdfrwt>
<pdfrwt beam="2">  1       -2 0.13770801E-02 0.16557574E+03</pdfrwt>
<totfact> 0.57169835E+04</totfact>
</mgrwt>
</event>
<event>
 4    1  0.6782240E-004  0.4032284E+03  0.7818608E-02  0.1042667E+00
         -2   -1    0    0    0  501 -0.00000000000E+00  0.00000000000E+00  0.16286232299E+03  0.16286232301E+03  0.25500000000E-02 0. -1.
          2   -1    0    0  501    0  0.00000000000E+00 -0.00000000000E+00 -0.24958684558E+03  0.24958684559E+03  0.25500000000E-02 0.  1.
    5000001    1    1    2    0    0  0.12400478834E+03 -0.12368632734E+03  0.21682754622E+02  0.19254775239E+03  0.77000000000E+02 0.  0.
   -5000001    1    1    2    0    0 -0.12400478834E+03  0.12368632734E+03 -0.10840727721E+03  0.21990141622E+03  0.77000000000E+02 0.  0.
<mgrwt>
<rscale>  0 0.40322844E+03</rscale>
<asrwt>0</asrwt>
<pdfrwt beam="1">  1        2 0.35655264E-01 0.40322844E+03</pdfrwt>
<pdfrwt beam="2">  1       -2 0.23266046E-01 0.40322844E+03</pdfrwt>
<totfact> 0.23574295E+03</totfact>
</mgrwt>
</event>
<event>
 4    1  0.6782240E-004  0.2642303E+03  0.7818608E-02  0.1104628E+00
         -2   -1    0    0    0  501 -0.00000000000E+00  0.00000000000E+00  0.11234283892E+02  0.11234284182E+02  0.25500000000E-02 0. -1.
          2   -1    0    0  501    0  0.00000000000E+00 -0.00000000000E+00 -0.15536741405E+04  0.15536741405E+04  0.25500000000E-02 0.  1.
    5000001    1    1    2    0    0  0.68990466200E+02  0.64231210017E+02 -0.10755291567E+04  0.10823942441E+04  0.77000000000E+02 0.  0.
   -5000001    1    1    2    0    0 -0.68990466200E+02 -0.64231210017E+02 -0.46691069986E+03  0.48251418053E+03  0.77000000000E+02 0.  0.
<mgrwt>
<rscale>  0 0.26423033E+03</rscale>
<asrwt>0</asrwt>
<pdfrwt beam="1">  1        2 0.22195331E+00 0.26423033E+03</pdfrwt>
<pdfrwt beam="2">  1       -2 0.16048987E-02 0.26423033E+03</pdfrwt>
<totfact> 0.15631967E+04</totfact>
</mgrwt>
</event>
<event>
 4    1  0.6782240E-004  0.2963592E+03  0.7818608E-02  0.1087075E+00
         -2   -1    0    0    0  501 -0.00000000000E+00  0.00000000000E+00  0.52257175232E+02  0.52257175295E+02  0.25500000000E-02 0. -1.
          2   -1    0    0  501    0  0.00000000000E+00 -0.00000000000E+00 -0.42017574885E+03  0.42017574886E+03  0.25500000000E-02 0.  1.
    5000001    1    1    2    0    0 -0.96407727374E+02  0.72872001125E+02 -0.24410270818E+03  0.28305460707E+03  0.77000000000E+02 0.  0.
   -5000001    1    1    2    0    0  0.96407727374E+02 -0.72872001125E+02 -0.12381586544E+03  0.18937831708E+03  0.77000000000E+02 0.  0.
<mgrwt>
<rscale>  0 0.29635923E+03</rscale>
<asrwt>0</asrwt>
<pdfrwt beam="1">  1        2 0.60025105E-01 0.29635923E+03</pdfrwt>
<pdfrwt beam="2">  1       -2 0.74653110E-02 0.29635923E+03</pdfrwt>
<totfact> 0.86217906E+03</totfact>
</mgrwt>
</event>
<event>
 4    1  0.6782240E-004  0.2937335E+03  0.7818608E-02  0.1088416E+00
          2   -1    0    0  501    0  0.00000000000E+00  0.00000000000E+00  0.14395961643E+03  0.14395961645E+03  0.25500000000E-02 0.  1.
         -2   -1    0    0    0  501 -0.00000000000E+00 -0.00000000000E+00 -0.14983262995E+03  0.14983262997E+03  0.25500000000E-02 0. -1.
    5000001    1    1    2    0    0  0.10305443978E+03  0.66099643785E+02  0.22592455533E+02  0.14638579000E+03  0.77000000000E+02 0.  0.
   -5000001    1    1    2    0    0 -0.10305443978E+03 -0.66099643785E+02 -0.28465469054E+02  0.14740645642E+03  0.77000000000E+02 0.  0.
<mgrwt>
<rscale>  0 0.29373354E+03</rscale>
<asrwt>0</asrwt>
<pdfrwt beam="1">  1        2 0.20565660E-01 0.29373354E+03</pdfrwt>
<pdfrwt beam="2">  1       -2 0.21404661E-01 0.29373354E+03</pdfrwt>
<totfact> 0.50055172E+03</totfact>
</mgrwt>
</event>
<event>
 4    1  0.6782240E-004  0.3470653E+03  0.7818608E-02  0.1063826E+00
         -2   -1    0    0    0  501 -0.00000000000E+00  0.00000000000E+00  0.28399066141E+04  0.28399066141E+04  0.25500000000E-02 0. -1.
          2   -1    0    0  501    0  0.00000000000E+00 -0.00000000000E+00 -0.10603722661E+02  0.10603722968E+02  0.25500000000E-02 0.  1.
    5000001    1    1    2    0    0  0.14372855246E+03 -0.48938120533E+02  0.16909546488E+04  0.16995027098E+04  0.77000000000E+02 0.  0.
   -5000001    1    1    2    0    0 -0.14372855246E+03  0.48938120533E+02  0.11383482426E+04  0.11510076272E+04  0.77000000000E+02 0.  0.
<mgrwt>
<rscale>  0 0.34706531E+03</rscale>
<asrwt>0</asrwt>
<pdfrwt beam="1">  1        2 0.15148177E-02 0.34706531E+03</pdfrwt>
<pdfrwt beam="2">  1       -2 0.40570091E+00 0.34706531E+03</pdfrwt>
<totfact> 0.66276441E+01</totfact>
</mgrwt>
</event>
<event>
 4    1  0.6782240E-004  0.4698997E+03  0.7818608E-02  0.1021949E+00
         -2   -1    0    0    0  501 -0.00000000000E+00  0.00000000000E+00  0.25698082370E+02  0.25698082496E+02  0.25500000000E-02 0.  1.
          2   -1    0    0  501    0  0.00000000000E+00 -0.00000000000E+00 -0.21480756064E+04  0.21480756064E+04  0.25500000000E-02 0. -1.
    5000001    1    1    2    0    0  0.14683246898E+02 -0.94656280248E+02 -0.19875176595E+04  0.19913138517E+04  0.77000000000E+02 0.  0.
   -5000001    1    1    2    0    0 -0.14683246898E+02  0.94656280248E+02 -0.13485986452E+03  0.18245983719E+03  0.77000000000E+02 0.  0.
<mgrwt>
<rscale>  0 0.46989967E+03</rscale>
<asrwt>0</asrwt>
<pdfrwt beam="1">  1        2 0.30686783E+00 0.46989967E+03</pdfrwt>
<pdfrwt beam="2">  1       -2 0.36711560E-02 0.46989967E+03</pdfrwt>
<totfact> 0.23167632E+03</totfact>
</mgrwt>
</event>
<event>
 4    1  0.6782240E-004  0.3004337E+03  0.7818608E-02  0.1085024E+00
          2   -1    0    0  501    0  0.00000000000E+00  0.00000000000E+00  0.10072643286E+04  0.10072643286E+04  0.25500000000E-02 0.  1.
         -2   -1    0    0    0  501 -0.00000000000E+00 -0.00000000000E+00 -0.22402361276E+02  0.22402361421E+02  0.25500000000E-02 0. -1.
    5000001    1    1    2    0    0  0.12207428001E+03  0.18327419222E+02  0.36428254246E+03  0.39226113098E+03  0.77000000000E+02 0.  0.
   -5000001    1    1    2    0    0 -0.12207428001E+03 -0.18327419222E+02  0.62057942482E+03  0.63740555900E+03  0.77000000000E+02 0.  0.
<mgrwt>
<rscale>  0 0.30043368E+03</rscale>
<asrwt>0</asrwt>
<pdfrwt beam="1">  1        2 0.14389490E+00 0.30043368E+03</pdfrwt>
<pdfrwt beam="2">  1       -2 0.32003374E-02 0.30043368E+03</pdfrwt>
<totfact> 0.11095820E+04</totfact>
</mgrwt>
</event>
<event>
 4    1  0.6782240E-004  0.3171239E+03  0.7818608E-02  0.1076981E+00
          2   -1    0    0  501    0  0.00000000000E+00  0.00000000000E+00  0.19293150597E+03  0.19293150598E+03  0.25500000000E-02 0.  1.
         -2   -1    0    0    0  501 -0.00000000000E+00 -0.00000000000E+00 -0.13031511432E+03  0.13031511435E+03  0.25500000000E-02 0. -1.
    5000001    1    1    2    0    0 -0.94124177128E+02 -0.24632075735E+02  0.13194013943E+03  0.18111681388E+03  0.77000000000E+02 0.  0.
   -5000001    1    1    2    0    0  0.94124177128E+02  0.24632075735E+02 -0.69323747789E+02  0.14212980645E+03  0.77000000000E+02 0.  0.
<mgrwt>
<rscale>  0 0.31712390E+03</rscale>
<asrwt>0</asrwt>
<pdfrwt beam="1">  1        2 0.27561644E-01 0.31712390E+03</pdfrwt>
<pdfrwt beam="2">  1       -2 0.18616445E-01 0.31712390E+03</pdfrwt>
<totfact> 0.45823176E+03</totfact>
</mgrwt>
</event>
<event>
 4    1  0.6782240E-004  0.2464114E+03  0.7818608E-02  0.1115594E+00
         -2   -1    0    0    0  501 -0.00000000000E+00  0.00000000000E+00  0.12700207850E+02  0.12700208106E+02  0.25500000000E-02 0. -1.
          2   -1    0    0  501    0  0.00000000000E+00 -0.00000000000E+00 -0.11952276931E+04  0.11952276931E+04  0.25500000000E-02 0.  1.
    5000001    1    1    2    0    0 -0.14297264809E+02  0.80703770779E+02 -0.34454110081E+03  0.36242941457E+03  0.77000000000E+02 0.  0.
   -5000001    1    1    2    0    0  0.14297264809E+02 -0.80703770779E+02 -0.83798638439E+03  0.84549848659E+03  0.77000000000E+02 0.  0.
<mgrwt>
<rscale>  0 0.24641137E+03</rscale>
<asrwt>0</asrwt>
<pdfrwt beam="1">  1        2 0.17074674E+00 0.24641137E+03</pdfrwt>
<pdfrwt beam="2">  1       -2 0.18143162E-02 0.24641137E+03</pdfrwt>
<totfact> 0.19970489E+04</totfact>
</mgrwt>
</event>
<event>
 4    1  0.6782240E-004  0.2024704E+03  0.7818608E-02  0.1147671E+00
          2   -1    0    0  501    0  0.00000000000E+00  0.00000000000E+00  0.74423968471E+03  0.74423968471E+03  0.25500000000E-02 0.  1.
         -2   -1    0    0    0  501 -0.00000000000E+00 -0.00000000000E+00 -0.13770515019E+02  0.13770515255E+02  0.25500000000E-02 0. -1.
    5000001    1    1    2    0    0  0.59176244455E+02  0.26094603468E+02  0.40902395267E+03  0.42120345451E+03  0.77000000000E+02 0.  0.
   -5000001    1    1    2    0    0 -0.59176244455E+02 -0.26094603468E+02  0.32144521702E+03  0.33680674545E+03  0.77000000000E+02 0.  0.
<mgrwt>
<rscale>  0 0.20247038E+03</rscale>
<asrwt>0</asrwt>
<pdfrwt beam="1">  1        2 0.10631995E+00 0.20247038E+03</pdfrwt>
<pdfrwt beam="2">  1       -2 0.19672165E-02 0.20247038E+03</pdfrwt>
<totfact> 0.32820897E+04</totfact>
</mgrwt>
</event>
<event>
 4    1  0.6782240E-004  0.1732298E+03  0.7818608E-02  0.1174521E+00
         -2   -1    0    0    0  501 -0.00000000000E+00  0.00000000000E+00  0.15892988548E+02  0.15892988753E+02  0.25500000000E-02 0. -1.
          2   -1    0    0  501    0  0.00000000000E+00 -0.00000000000E+00 -0.47204068453E+03  0.47204068453E+03  0.25500000000E-02 0.  1.
    5000001    1    1    2    0    0  0.78762909755E+01  0.28953930835E+02 -0.30113255476E+03  0.31226620311E+03  0.77000000000E+02 0.  0.
   -5000001    1    1    2    0    0 -0.78762909755E+01 -0.28953930835E+02 -0.15501514122E+03  0.17566747017E+03  0.77000000000E+02 0.  0.
<mgrwt>
<rscale>  0 0.17322976E+03</rscale>
<asrwt>0</asrwt>
<pdfrwt beam="1">  1        2 0.67434374E-01 0.17322976E+03</pdfrwt>
<pdfrwt beam="2">  1       -2 0.22704273E-02 0.17322976E+03</pdfrwt>
<totfact> 0.43972354E+04</totfact>
</mgrwt>
</event>
<event>
 4    1  0.6782240E-004  0.1847595E+03  0.7818608E-02  0.1163275E+00
         -2   -1    0    0    0  501 -0.00000000000E+00  0.00000000000E+00  0.48209155424E+01  0.48209162168E+01  0.25500000000E-02 0. -1.
          2   -1    0    0  501    0  0.00000000000E+00 -0.00000000000E+00 -0.17702077297E+04  0.17702077297E+04  0.25500000000E-02 0.  1.
    5000001    1    1    2    0    0 -0.11622438976E+02 -0.49160402166E+02 -0.81262224692E+03  0.81782378445E+03  0.77000000000E+02 0.  0.
   -5000001    1    1    2    0    0  0.11622438976E+02  0.49160402166E+02 -0.95276456728E+03  0.95720486150E+03  0.77000000000E+02 0.  0.
<mgrwt>
<rscale>  0 0.18475955E+03</rscale>
<asrwt>0</asrwt>
<pdfrwt beam="1">  1        2 0.25288640E+00 0.18475955E+03</pdfrwt>
<pdfrwt beam="2">  1       -2 0.68870340E-03 0.18475955E+03</pdfrwt>
<totfact> 0.40897197E+04</totfact>
</mgrwt>
</event>
<event>
 4    1  0.6782240E-004  0.1848268E+03  0.7818608E-02  0.1163212E+00
          2   -1    0    0  501    0  0.00000000000E+00  0.00000000000E+00  0.16566984624E+04  0.16566984624E+04  0.25500000000E-02 0.  1.
         -2   -1    0    0    0  501 -0.00000000000E+00 -0.00000000000E+00 -0.51549730882E+01  0.51549737189E+01  0.25500000000E-02 0. -1.
    5000001    1    1    2    0    0 -0.36061828218E+02  0.28282025402E+02  0.10290070565E+04  0.10329011815E+04  0.77000000000E+02 0.  0.
   -5000001    1    1    2    0    0  0.36061828218E+02 -0.28282025402E+02  0.62253643275E+03  0.62895225456E+03  0.77000000000E+02 0.  0.
<mgrwt>
<rscale>  0 0.18482680E+03</rscale>
<asrwt>0</asrwt>
<pdfrwt beam="1">  1        2 0.23667128E+00 0.18482680E+03</pdfrwt>
<pdfrwt beam="2">  1       -2 0.73642454E-03 0.18482680E+03</pdfrwt>
<totfact> 0.42181425E+04</totfact>
</mgrwt>
</event>
<event>
 4    1  0.6782240E-004  0.3326940E+03  0.7818608E-02  0.1069951E+00
          2   -1    0    0  501    0  0.00000000000E+00  0.00000000000E+00  0.13922894304E+03  0.13922894306E+03  0.25500000000E-02 0.  1.
         -2   -1    0    0    0  501 -0.00000000000E+00 -0.00000000000E+00 -0.19874697895E+03  0.19874697896E+03  0.25500000000E-02 0. -1.
    5000001    1    1    2    0    0  0.11045732571E+03  0.19646733285E+02 -0.12696257747E+03  0.18610564476E+03  0.77000000000E+02 0.  0.
   -5000001    1    1    2    0    0 -0.11045732571E+03 -0.19646733285E+02  0.67444541564E+02  0.15187027727E+03  0.77000000000E+02 0.  0.
<mgrwt>
<rscale>  0 0.33269404E+03</rscale>
<asrwt>0</asrwt>
<pdfrwt beam="1">  1        2 0.19889849E-01 0.33269404E+03</pdfrwt>
<pdfrwt beam="2">  1       -2 0.28392425E-01 0.33269404E+03</pdfrwt>
<totfact> 0.31688800E+03</totfact>
</mgrwt>
</event>
<event>
 4    1  0.6782240E-004  0.1731519E+03  0.7818608E-02  0.1174600E+00
         -2   -1    0    0    0  501 -0.00000000000E+00  0.00000000000E+00  0.33750455156E+01  0.33750464789E+01  0.25500000000E-02 0. -1.
          2   -1    0    0  501    0  0.00000000000E+00 -0.00000000000E+00 -0.22208283063E+04  0.22208283063E+04  0.25500000000E-02 0.  1.
    5000001    1    1    2    0    0  0.17922699418E+02  0.25846762986E+02 -0.80013795551E+03  0.80444951747E+03  0.77000000000E+02 0.  0.
   -5000001    1    1    2    0    0 -0.17922699418E+02 -0.25846762986E+02 -0.14173153052E+04  0.14197538353E+04  0.77000000000E+02 0.  0.
<mgrwt>
<rscale>  0 0.17315193E+03</rscale>
<asrwt>0</asrwt>
<pdfrwt beam="1">  1        2 0.31726025E+00 0.17315193E+03</pdfrwt>
<pdfrwt beam="2">  1       -2 0.48215085E-03 0.17315193E+03</pdfrwt>
<totfact> 0.41161157E+04</totfact>
</mgrwt>
</event>
<event>
 4    1  0.6782240E-004  0.3671149E+03  0.7818608E-02  0.1055802E+00
          2   -1    0    0  501    0  0.00000000000E+00  0.00000000000E+00  0.21367372031E+04  0.21367372031E+04  0.25500000000E-02 0.  1.
         -2   -1    0    0    0  501 -0.00000000000E+00 -0.00000000000E+00 -0.15768593534E+02  0.15768593741E+02  0.25500000000E-02 0. -1.
    5000001    1    1    2    0    0 -0.14028591901E+03 -0.28909830731E+02  0.56129638050E+03  0.58437876771E+03  0.77000000000E+02 0.  0.
   -5000001    1    1    2    0    0  0.14028591901E+03  0.28909830731E+02  0.15596722290E+04  0.15681270291E+04  0.77000000000E+02 0.  0.
<mgrwt>
<rscale>  0 0.36711492E+03</rscale>
<asrwt>0</asrwt>
<pdfrwt beam="1">  1        2 0.30524828E+00 0.36711492E+03</pdfrwt>
<pdfrwt beam="2">  1       -2 0.22526554E-02 0.36711492E+03</pdfrwt>
<totfact> 0.49092621E+03</totfact>
</mgrwt>
</event>
<event>
 4    1  0.6782240E-004  0.1758074E+03  0.7818608E-02  0.1171923E+00
         -2   -1    0    0    0  501 -0.00000000000E+00  0.00000000000E+00  0.16297794753E+02  0.16297794953E+02  0.25500000000E-02 0. -1.
          2   -1    0    0  501    0  0.00000000000E+00 -0.00000000000E+00 -0.47411690188E+03  0.47411690189E+03  0.25500000000E-02 0.  1.
    5000001    1    1    2    0    0  0.39253399988E+02  0.13339842754E+02 -0.25374694285E+03  0.26839391167E+03  0.77000000000E+02 0.  0.
   -5000001    1    1    2    0    0 -0.39253399988E+02 -0.13339842754E+02 -0.20407216428E+03  0.22202078517E+03  0.77000000000E+02 0.  0.
<mgrwt>
<rscale>  0 0.17580739E+03</rscale>
<asrwt>0</asrwt>
<pdfrwt beam="1">  1        2 0.67730977E-01 0.17580739E+03</pdfrwt>
<pdfrwt beam="2">  1       -2 0.23282567E-02 0.17580739E+03</pdfrwt>
<totfact> 0.42240017E+04</totfact>
</mgrwt>
</event>
<event>
 4    1  0.6782240E-004  0.1724800E+03  0.7818608E-02  0.1175286E+00
          2   -1    0    0  501    0  0.00000000000E+00  0.00000000000E+00  0.34960201249E+02  0.34960201342E+02  0.25500000000E-02 0.  1.
         -2   -1    0    0    0  501 -0.00000000000E+00 -0.00000000000E+00 -0.21273716083E+03  0.21273716085E+03  0.25500000000E-02 0. -1.
    5000001    1    1    2    0    0  0.34764166987E+02 -0.10776028933E+02 -0.69426160103E+02  0.10988021575E+03  0.77000000000E+02 0.  0.
   -5000001    1    1    2    0    0 -0.34764166987E+02  0.10776028933E+02 -0.10835079948E+03  0.13781714645E+03  0.77000000000E+02 0.  0.
<mgrwt>
<rscale>  0 0.17247996E+03</rscale>
<asrwt>0</asrwt>
<pdfrwt beam="1">  1        2 0.49943146E-02 0.17247996E+03</pdfrwt>
<pdfrwt beam="2">  1       -2 0.30391022E-01 0.17247996E+03</pdfrwt>
<totfact> 0.14970292E+04</totfact>
</mgrwt>
</event>
<event>
 4    1  0.6782240E-004  0.1707031E+03  0.7818608E-02  0.1177117E+00
         -2   -1    0    0    0  501 -0.00000000000E+00  0.00000000000E+00  0.25817812911E+02  0.25817813037E+02  0.25500000000E-02 0. -1.
          2   -1    0    0  501    0  0.00000000000E+00 -0.00000000000E+00 -0.28216519642E+03  0.28216519643E+03  0.25500000000E-02 0.  1.
    5000001    1    1    2    0    0 -0.17207983680E+02  0.32553272729E+02 -0.12860821903E+03  0.15435318030E+03  0.77000000000E+02 0.  0.
   -5000001    1    1    2    0    0  0.17207983680E+02 -0.32553272729E+02 -0.12773916448E+03  0.15362982917E+03  0.77000000000E+02 0.  0.
<mgrwt>
<rscale>  0 0.17070311E+03</rscale>
<asrwt>0</asrwt>
<pdfrwt beam="1">  1        2 0.40309312E-01 0.17070311E+03</pdfrwt>
<pdfrwt beam="2">  1       -2 0.36882592E-02 0.17070311E+03</pdfrwt>
<totfact> 0.37235892E+04</totfact>
</mgrwt>
</event>
<event>
 4    1  0.6782240E-004  0.3517231E+03  0.7818608E-02  0.1061910E+00
         -2   -1    0    0    0  501 -0.00000000000E+00  0.00000000000E+00  0.60238837608E+02  0.60238837662E+02  0.25500000000E-02 0. -1.
          2   -1    0    0  501    0  0.00000000000E+00 -0.00000000000E+00 -0.51341103968E+03  0.51341103969E+03  0.25500000000E-02 0.  1.
    5000001    1    1    2    0    0  0.34330084363E+02  0.14733623564E+03 -0.30153558191E+03  0.34603356510E+03  0.77000000000E+02 0.  0.
   -5000001    1    1    2    0    0 -0.34330084363E+02 -0.14733623564E+03 -0.15163662017E+03  0.22761631225E+03  0.77000000000E+02 0.  0.
<mgrwt>
<rscale>  0 0.35172310E+03</rscale>
<asrwt>0</asrwt>
<pdfrwt beam="1">  1        2 0.73344432E-01 0.35172310E+03</pdfrwt>
<pdfrwt beam="2">  1       -2 0.86055485E-02 0.35172310E+03</pdfrwt>
<totfact> 0.55601130E+03</totfact>
</mgrwt>
</event>
<event>
 4    1  0.6782240E-004  0.2267715E+03  0.7818608E-02  0.1128933E+00
          2   -1    0    0  501    0  0.00000000000E+00  0.00000000000E+00  0.30308669799E+03  0.30308669800E+03  0.25500000000E-02 0.  1.
         -2   -1    0    0    0  501 -0.00000000000E+00 -0.00000000000E+00 -0.42418001881E+02  0.42418001957E+02  0.25500000000E-02 0. -1.
    5000001    1    1    2    0    0 -0.34593934996E+02  0.70119154160E+02  0.86868327121E+02  0.13995907393E+03  0.77000000000E+02 0.  0.
   -5000001    1    1    2    0    0  0.34593934996E+02 -0.70119154160E+02  0.17380036899E+03  0.20554562603E+03  0.77000000000E+02 0.  0.
<mgrwt>
<rscale>  0 0.22677153E+03</rscale>
<asrwt>0</asrwt>
<pdfrwt beam="1">  1        2 0.43298102E-01 0.22677153E+03</pdfrwt>
<pdfrwt beam="2">  1       -2 0.60597142E-02 0.22677153E+03</pdfrwt>
<totfact> 0.16692766E+04</totfact>
</mgrwt>
</event>
<event>
 4    1  0.6782240E-004  0.2350172E+03  0.7818608E-02  0.1123157E+00
         -2   -1    0    0    0  501 -0.00000000000E+00  0.00000000000E+00  0.36215704060E+02  0.36215704149E+02  0.25500000000E-02 0.  1.
          2   -1    0    0  501    0  0.00000000000E+00 -0.00000000000E+00 -0.38127862233E+03  0.38127862233E+03  0.25500000000E-02 0. -1.
    5000001    1    1    2    0    0  0.80193221923E+02  0.31834636981E+02 -0.13548608238E+03  0.17812881707E+03  0.77000000000E+02 0.  0.
   -5000001    1    1    2    0    0 -0.80193221923E+02 -0.31834636981E+02 -0.20957683589E+03  0.23936550941E+03  0.77000000000E+02 0.  0.
<mgrwt>
<rscale>  0 0.23501722E+03</rscale>
<asrwt>0</asrwt>
<pdfrwt beam="1">  1        2 0.54468372E-01 0.23501722E+03</pdfrwt>
<pdfrwt beam="2">  1       -2 0.51736722E-02 0.23501722E+03</pdfrwt>
<totfact> 0.16641615E+04</totfact>
</mgrwt>
</event>
<event>
 4    1  0.6782240E-004  0.3150967E+03  0.7818608E-02  0.1077928E+00
          2   -1    0    0  501    0  0.00000000000E+00  0.00000000000E+00  0.86223579410E+02  0.86223579448E+02  0.25500000000E-02 0.  1.
         -2   -1    0    0    0  501 -0.00000000000E+00 -0.00000000000E+00 -0.28787356241E+03  0.28787356243E+03  0.25500000000E-02 0. -1.
    5000001    1    1    2    0    0  0.56707430318E+02 -0.90658522804E+02  0.17037231247E+01  0.13178240809E+03  0.77000000000E+02 0.  0.
   -5000001    1    1    2    0    0 -0.56707430318E+02  0.90658522804E+02 -0.20335370613E+03  0.24231473378E+03  0.77000000000E+02 0.  0.
<mgrwt>
<rscale>  0 0.31509674E+03</rscale>
<asrwt>0</asrwt>
<pdfrwt beam="1">  1        2 0.12317654E-01 0.31509674E+03</pdfrwt>
<pdfrwt beam="2">  1       -2 0.41124794E-01 0.31509674E+03</pdfrwt>
<totfact> 0.27989983E+03</totfact>
</mgrwt>
</event>
<event>
 4    1  0.6782240E-004  0.2530687E+03  0.7818608E-02  0.1111381E+00
         -2   -1    0    0    0  501 -0.00000000000E+00  0.00000000000E+00  0.30324630244E+02  0.30324630351E+02  0.25500000000E-02 0. -1.
          2   -1    0    0  501    0  0.00000000000E+00 -0.00000000000E+00 -0.52798481859E+03  0.52798481860E+03  0.25500000000E-02 0.  1.
    5000001    1    1    2    0    0  0.61513386322E+02 -0.75322551794E+02 -0.19369553432E+03  0.23000944225E+03  0.77000000000E+02 0.  0.
   -5000001    1    1    2    0    0 -0.61513386322E+02  0.75322551794E+02 -0.30396465403E+03  0.32830000671E+03  0.77000000000E+02 0.  0.
<mgrwt>
<rscale>  0 0.25306872E+03</rscale>
<asrwt>0</asrwt>
<pdfrwt beam="1">  1        2 0.75426397E-01 0.25306872E+03</pdfrwt>
<pdfrwt beam="2">  1       -2 0.43320904E-02 0.25306872E+03</pdfrwt>
<totfact> 0.15326043E+04</totfact>
</mgrwt>
</event>
<event>
 4    1  0.6782240E-004  0.5387570E+03  0.7818608E-02  0.1004130E+00
         -2   -1    0    0    0  501 -0.00000000000E+00  0.00000000000E+00  0.29451813706E+03  0.29451813707E+03  0.25500000000E-02 0. -1.
          2   -1    0    0  501    0  0.00000000000E+00 -0.00000000000E+00 -0.24638477531E+03  0.24638477533E+03  0.25500000000E-02 0.  1.
    5000001    1    1    2    0    0  0.12472275270E+03 -0.21802610040E+03  0.83840692814E+02  0.27577056999E+03  0.77000000000E+02 0.  0.
   -5000001    1    1    2    0    0 -0.12472275270E+03  0.21802610040E+03 -0.35707331072E+02  0.26513234241E+03  0.77000000000E+02 0.  0.
<mgrwt>
<rscale>  0 0.53875703E+03</rscale>
<asrwt>0</asrwt>
<pdfrwt beam="1">  1        2 0.35197825E-01 0.53875703E+03</pdfrwt>
<pdfrwt beam="2">  1       -2 0.42074019E-01 0.53875703E+03</pdfrwt>
<totfact> 0.79911725E+02</totfact>
</mgrwt>
</event>
<event>
 4    1  0.6782240E-004  0.1802197E+03  0.7818608E-02  0.1167591E+00
          2   -1    0    0  501    0  0.00000000000E+00  0.00000000000E+00  0.54262413046E+03  0.54262413046E+03  0.25500000000E-02 0.  1.
         -2   -1    0    0    0  501 -0.00000000000E+00 -0.00000000000E+00 -0.14963923014E+02  0.14963923232E+02  0.25500000000E-02 0. -1.
    5000001    1    1    2    0    0  0.20698131479E+02  0.41608318914E+02  0.28108997045E+03  0.29512749167E+03  0.77000000000E+02 0.  0.
   -5000001    1    1    2    0    0 -0.20698131479E+02 -0.41608318914E+02  0.24657023699E+03  0.26246056203E+03  0.77000000000E+02 0.  0.
<mgrwt>
<rscale>  0 0.18021971E+03</rscale>
<asrwt>0</asrwt>
<pdfrwt beam="1">  1        2 0.77517735E-01 0.18021971E+03</pdfrwt>
<pdfrwt beam="2">  1       -2 0.21377032E-02 0.18021971E+03</pdfrwt>
<totfact> 0.41371821E+04</totfact>
</mgrwt>
</event>
<event>
 4    1  0.6782240E-004  0.2723354E+03  0.7818608E-02  0.1099950E+00
          2   -1    0    0  501    0  0.00000000000E+00  0.00000000000E+00  0.37651992892E+03  0.37651992892E+03  0.25500000000E-02 0.  1.
         -2   -1    0    0    0  501 -0.00000000000E+00 -0.00000000000E+00 -0.49244772076E+02  0.49244772142E+02  0.25500000000E-02 0. -1.
    5000001    1    1    2    0    0 -0.57159043464E+01  0.11127503003E+03  0.14164802942E+03  0.19597950941E+03  0.77000000000E+02 0.  0.
   -5000001    1    1    2    0    0  0.57159043464E+01 -0.11127503003E+03  0.18562712742E+03  0.22978519165E+03  0.77000000000E+02 0.  0.
<mgrwt>
<rscale>  0 0.27233537E+03</rscale>
<asrwt>0</asrwt>
<pdfrwt beam="1">  1        2 0.53788564E-01 0.27233537E+03</pdfrwt>
<pdfrwt beam="2">  1       -2 0.70349670E-02 0.27233537E+03</pdfrwt>
<totfact> 0.10611678E+04</totfact>
</mgrwt>
</event>
<event>
 4    1  0.6782240E-004  0.2138370E+03  0.7818608E-02  0.1138563E+00
          2   -1    0    0  501    0  0.00000000000E+00  0.00000000000E+00  0.25203048653E+03  0.25203048654E+03  0.25500000000E-02 0.  1.
         -2   -1    0    0    0  501 -0.00000000000E+00 -0.00000000000E+00 -0.45357885168E+02  0.45357885240E+02  0.25500000000E-02 0. -1.
    5000001    1    1    2    0    0  0.71852719666E+02 -0.78975850693E+01  0.80173967432E+02  0.13259732360E+03  0.77000000000E+02 0.  0.
   -5000001    1    1    2    0    0 -0.71852719666E+02  0.78975850693E+01  0.12649863393E+03  0.16479104818E+03  0.77000000000E+02 0.  0.
<mgrwt>
<rscale>  0 0.21383704E+03</rscale>
<asrwt>0</asrwt>
<pdfrwt beam="1">  1        2 0.36004355E-01 0.21383704E+03</pdfrwt>
<pdfrwt beam="2">  1       -2 0.64796980E-02 0.21383704E+03</pdfrwt>
<totfact> 0.18294196E+04</totfact>
</mgrwt>
</event>
<event>
 4    1  0.6782240E-004  0.2786367E+03  0.7818608E-02  0.1096436E+00
          2   -1    0    0  501    0  0.00000000000E+00  0.00000000000E+00  0.97107648983E+03  0.97107648983E+03  0.25500000000E-02 0.  1.
         -2   -1    0    0    0  501 -0.00000000000E+00 -0.00000000000E+00 -0.19987715531E+02  0.19987715693E+02  0.25500000000E-02 0. -1.
    5000001    1    1    2    0    0  0.21971382678E+02 -0.11021658104E+03  0.37183574856E+03  0.39600664174E+03  0.77000000000E+02 0.  0.
   -5000001    1    1    2    0    0 -0.21971382678E+02  0.11021658104E+03  0.57925302574E+03  0.59505756379E+03  0.77000000000E+02 0.  0.
<mgrwt>
<rscale>  0 0.27863669E+03</rscale>
<asrwt>0</asrwt>
<pdfrwt beam="1">  1        2 0.13872521E+00 0.27863669E+03</pdfrwt>
<pdfrwt beam="2">  1       -2 0.28553880E-02 0.27863669E+03</pdfrwt>
<totfact> 0.13785576E+04</totfact>
</mgrwt>
</event>
<event>
 4    1  0.6782240E-004  0.2457899E+03  0.7818608E-02  0.1115995E+00
          2   -1    0    0  501    0  0.00000000000E+00  0.00000000000E+00  0.95847363746E+02  0.95847363780E+02  0.25500000000E-02 0.  1.
         -2   -1    0    0    0  501 -0.00000000000E+00 -0.00000000000E+00 -0.15757527385E+03  0.15757527387E+03  0.25500000000E-02 0. -1.
    5000001    1    1    2    0    0 -0.73871958114E+02  0.11299152865E+02  0.30908447118E+02  0.11166498625E+03  0.77000000000E+02 0.  0.
   -5000001    1    1    2    0    0  0.73871958114E+02 -0.11299152865E+02 -0.92636357219E+02  0.14175765140E+03  0.77000000000E+02 0.  0.
<mgrwt>
<rscale>  0 0.24578995E+03</rscale>
<asrwt>0</asrwt>
<pdfrwt beam="1">  1        2 0.13692481E-01 0.24578995E+03</pdfrwt>
<pdfrwt beam="2">  1       -2 0.22510753E-01 0.24578995E+03</pdfrwt>
<totfact> 0.73290481E+03</totfact>
</mgrwt>
</event>
<event>
 4    1  0.6782240E-004  0.2961716E+03  0.7818608E-02  0.1087170E+00
         -2   -1    0    0    0  501 -0.00000000000E+00  0.00000000000E+00  0.97306883154E+01  0.97306886495E+01  0.25500000000E-02 0. -1.
          2   -1    0    0  501    0  0.00000000000E+00 -0.00000000000E+00 -0.22536331272E+04  0.22536331272E+04  0.25500000000E-02 0.  1.
    5000001    1    1    2    0    0  0.99509268636E+01  0.12003066672E+03 -0.82656570928E+03  0.83883624961E+03  0.77000000000E+02 0.  0.
   -5000001    1    1    2    0    0 -0.99509268636E+01 -0.12003066672E+03 -0.14173367296E+04  0.14245275662E+04  0.77000000000E+02 0.  0.
<mgrwt>
<rscale>  0 0.29617158E+03</rscale>
<asrwt>0</asrwt>
<pdfrwt beam="1">  1        2 0.32194726E+00 0.29617158E+03</pdfrwt>
<pdfrwt beam="2">  1       -2 0.13900998E-02 0.29617158E+03</pdfrwt>
<totfact> 0.87632281E+03</totfact>
</mgrwt>
</event>
<event>
 4    1  0.6782240E-004  0.8205582E+03  0.7818608E-02  0.9530728E-01
          2   -1    0    0  501    0  0.00000000000E+00  0.00000000000E+00  0.25393795775E+04  0.25393795775E+04  0.25500000000E-02 0.  1.
         -2   -1    0    0    0  501 -0.00000000000E+00 -0.00000000000E+00 -0.66287433010E+02  0.66287433060E+02  0.25500000000E-02 0. -1.
    5000001    1    1    2    0    0  0.36936070424E+03  0.13313872770E+02  0.72653413324E+03  0.81877068573E+03  0.77000000000E+02 0.  0.
   -5000001    1    1    2    0    0 -0.36936070424E+03 -0.13313872770E+02  0.17465580113E+04  0.17868963249E+04  0.77000000000E+02 0.  0.
<mgrwt>
<rscale>  0 0.82055823E+03</rscale>
<asrwt>0</asrwt>
<pdfrwt beam="1">  1        2 0.36276859E+00 0.82055823E+03</pdfrwt>
<pdfrwt beam="2">  1       -2 0.94696312E-02 0.82055823E+03</pdfrwt>
<totfact> 0.32377600E+02</totfact>
</mgrwt>
</event>
<event>
 4    1  0.6782240E-004  0.1791671E+03  0.7818608E-02  0.1168612E+00
         -2   -1    0    0    0  501 -0.00000000000E+00  0.00000000000E+00  0.81506403124E+01  0.81506407113E+01  0.25500000000E-02 0. -1.
          2   -1    0    0  501    0  0.00000000000E+00 -0.00000000000E+00 -0.98461093348E+03  0.98461093348E+03  0.25500000000E-02 0.  1.
    5000001    1    1    2    0    0 -0.34471006827E+02 -0.10587200454E+02 -0.64454779353E+03  0.65013167687E+03  0.77000000000E+02 0.  0.
   -5000001    1    1    2    0    0  0.34471006827E+02  0.10587200454E+02 -0.33191249964E+03  0.34262989733E+03  0.77000000000E+02 0.  0.
<mgrwt>
<rscale>  0 0.17916707E+03</rscale>
<asrwt>0</asrwt>
<pdfrwt beam="1">  1        2 0.14065863E+00 0.17916707E+03</pdfrwt>
<pdfrwt beam="2">  1       -2 0.11643778E-02 0.17916707E+03</pdfrwt>
<totfact> 0.48928591E+04</totfact>
</mgrwt>
</event>
<event>
 4    1  0.6782240E-004  0.3433670E+03  0.7818608E-02  0.1065371E+00
         -2   -1    0    0    0  501 -0.00000000000E+00  0.00000000000E+00  0.37982721708E+03  0.37982721709E+03  0.25500000000E-02 0. -1.
          2   -1    0    0  501    0  0.00000000000E+00 -0.00000000000E+00 -0.77601650950E+02  0.77601650992E+02  0.25500000000E-02 0.  1.
    5000001    1    1    2    0    0 -0.10665374092E+03 -0.10921204777E+03  0.13030646377E+03  0.21496759367E+03  0.77000000000E+02 0.  0.
   -5000001    1    1    2    0    0  0.10665374092E+03  0.10921204777E+03  0.17191910237E+03  0.24246127441E+03  0.77000000000E+02 0.  0.
<mgrwt>
<rscale>  0 0.34336697E+03</rscale>
<asrwt>0</asrwt>
<pdfrwt beam="1">  1        2 0.11085950E-01 0.34336697E+03</pdfrwt>
<pdfrwt beam="2">  1       -2 0.54261031E-01 0.34336697E+03</pdfrwt>
<totfact> 0.18432967E+03</totfact>
</mgrwt>
</event>
<event>
 4    1  0.6782240E-004  0.1712581E+03  0.7818608E-02  0.1176542E+00
         -2   -1    0    0    0  501 -0.00000000000E+00  0.00000000000E+00  0.11028506225E+02  0.11028506520E+02  0.25500000000E-02 0. -1.
          2   -1    0    0  501    0  0.00000000000E+00 -0.00000000000E+00 -0.66485326020E+03  0.66485326020E+03  0.25500000000E-02 0.  1.
    5000001    1    1    2    0    0  0.10242221359E+01 -0.31329792263E+02 -0.24596122491E+03  0.25963152558E+03  0.77000000000E+02 0.  0.
   -5000001    1    1    2    0    0 -0.10242221359E+01  0.31329792263E+02 -0.40786352906E+03  0.41625024115E+03  0.77000000000E+02 0.  0.
<mgrwt>
<rscale>  0 0.17125815E+03</rscale>
<asrwt>0</asrwt>
<pdfrwt beam="1">  1        2 0.94979012E-01 0.17125815E+03</pdfrwt>
<pdfrwt beam="2">  1       -2 0.15755013E-02 0.17125815E+03</pdfrwt>
<totfact> 0.51040508E+04</totfact>
</mgrwt>
</event>
<event>
 4    1  0.6782240E-004  0.1912720E+03  0.7818608E-02  0.1157319E+00
          2   -1    0    0  501    0  0.00000000000E+00  0.00000000000E+00  0.20166952888E+04  0.20166952888E+04  0.25500000000E-02 0.  1.
         -2   -1    0    0    0  501 -0.00000000000E+00 -0.00000000000E+00 -0.45352616385E+01  0.45352623553E+01  0.25500000000E-02 0. -1.
    5000001    1    1    2    0    0 -0.83516665361E+01  0.56085539153E+02  0.99150068502E+03  0.99610137357E+03  0.77000000000E+02 0.  0.
   -5000001    1    1    2    0    0  0.83516665361E+01 -0.56085539153E+02  0.10206593421E+04  0.10251291776E+04  0.77000000000E+02 0.  0.
<mgrwt>
<rscale>  0 0.19127197E+03</rscale>
<asrwt>0</asrwt>
<pdfrwt beam="1">  1        2 0.28809857E+00 0.19127197E+03</pdfrwt>
<pdfrwt beam="2">  1       -2 0.64789627E-03 0.19127197E+03</pdfrwt>
<totfact> 0.34030863E+04</totfact>
</mgrwt>
</event>
<event>
 4    1  0.6782240E-004  0.2100016E+03  0.7818608E-02  0.1141565E+00
          2   -1    0    0  501    0  0.00000000000E+00  0.00000000000E+00  0.10968063561E+04  0.10968063561E+04  0.25500000000E-02 0.  1.
         -2   -1    0    0    0  501 -0.00000000000E+00 -0.00000000000E+00 -0.10052064280E+02  0.10052064603E+02  0.25500000000E-02 0. -1.
    5000001    1    1    2    0    0 -0.50013856490E+02 -0.50400227485E+02  0.50443109619E+03  0.51519054686E+03  0.77000000000E+02 0.  0.
   -5000001    1    1    2    0    0  0.50013856490E+02  0.50400227485E+02  0.58232319563E+03  0.59166787385E+03  0.77000000000E+02 0.  0.
<mgrwt>
<rscale>  0 0.21000160E+03</rscale>
<asrwt>0</asrwt>
<pdfrwt beam="1">  1        2 0.15668653E+00 0.21000160E+03</pdfrwt>
<pdfrwt beam="2">  1       -2 0.14360101E-02 0.21000160E+03</pdfrwt>
<totfact> 0.31532745E+04</totfact>
</mgrwt>
</event>
<event>
 4    1  0.6782240E-004  0.2935271E+03  0.7818608E-02  0.1088522E+00
          2   -1    0    0  501    0  0.00000000000E+00  0.00000000000E+00  0.16886222357E+03  0.16886222359E+03  0.25500000000E-02 0.  1.
         -2   -1    0    0    0  501 -0.00000000000E+00 -0.00000000000E+00 -0.12755690609E+03  0.12755690612E+03  0.25500000000E-02 0. -1.
    5000001    1    1    2    0    0 -0.93346455425E+02  0.79998007671E+02  0.43172617115E+02  0.15134766876E+03  0.77000000000E+02 0.  0.
   -5000001    1    1    2    0    0  0.93346455425E+02 -0.79998007671E+02 -0.18672996377E+01  0.14507146094E+03  0.77000000000E+02 0.  0.
<mgrwt>
<rscale>  0 0.29352712E+03</rscale>
<asrwt>0</asrwt>
<pdfrwt beam="1">  1        2 0.24123175E-01 0.29352712E+03</pdfrwt>
<pdfrwt beam="2">  1       -2 0.18222415E-01 0.29352712E+03</pdfrwt>
<totfact> 0.55011572E+03</totfact>
</mgrwt>
</event>
<event>
 4    1  0.6782240E-004  0.2390777E+03  0.7818608E-02  0.1120409E+00
         -2   -1    0    0    0  501 -0.00000000000E+00  0.00000000000E+00  0.66257104921E+01  0.66257109828E+01  0.25500000000E-02 0. -1.
          2   -1    0    0  501    0  0.00000000000E+00 -0.00000000000E+00 -0.21566796897E+04  0.21566796897E+04  0.25500000000E-02 0.  1.
    5000001    1    1    2    0    0 -0.48350140351E+02  0.77351311055E+02 -0.11319497402E+04  0.11382267681E+04  0.77000000000E+02 0.  0.
   -5000001    1    1    2    0    0  0.48350140351E+02 -0.77351311055E+02 -0.10181042391E+04  0.10250786326E+04  0.77000000000E+02 0.  0.
<mgrwt>
<rscale>  0 0.23907769E+03</rscale>
<asrwt>0</asrwt>
<pdfrwt beam="1">  1        2 0.30809665E+00 0.23907769E+03</pdfrwt>
<pdfrwt beam="2">  1       -2 0.94653149E-03 0.23907769E+03</pdfrwt>
<totfact> 0.17032345E+04</totfact>
</mgrwt>
</event>
<event>
 4    1  0.6782240E-004  0.1948326E+03  0.7818608E-02  0.1154173E+00
          2   -1    0    0  501    0  0.00000000000E+00  0.00000000000E+00  0.31683575486E+03  0.31683575487E+03  0.25500000000E-02 0.  1.
         -2   -1    0    0    0  501 -0.00000000000E+00 -0.00000000000E+00 -0.29952219006E+02  0.29952219114E+02  0.25500000000E-02 0. -1.
    5000001    1    1    2    0    0 -0.57781003683E+02  0.57891503727E+01  0.11898635436E+03  0.15316302156E+03  0.77000000000E+02 0.  0.
   -5000001    1    1    2    0    0  0.57781003683E+02 -0.57891503727E+01  0.16789718149E+03  0.19362495242E+03  0.77000000000E+02 0.  0.
<mgrwt>
<rscale>  0 0.19483258E+03</rscale>
<asrwt>0</asrwt>
<pdfrwt beam="1">  1        2 0.45262253E-01 0.19483258E+03</pdfrwt>
<pdfrwt beam="2">  1       -2 0.42788882E-02 0.19483258E+03</pdfrwt>
<totfact> 0.26671065E+04</totfact>
</mgrwt>
</event>
<event>
 4    1  0.6782240E-004  0.2909465E+03  0.7818608E-02  0.1089856E+00
          2   -1    0    0  501    0  0.00000000000E+00  0.00000000000E+00  0.11393834269E+04  0.11393834269E+04  0.25500000000E-02 0.  1.
         -2   -1    0    0    0  501 -0.00000000000E+00 -0.00000000000E+00 -0.18573608126E+02  0.18573608301E+02  0.25500000000E-02 0. -1.
    5000001    1    1    2    0    0 -0.70385716723E+02  0.32104444198E+02  0.94315716299E+03  0.94945209387E+03  0.77000000000E+02 0.  0.
   -5000001    1    1    2    0    0  0.70385716723E+02 -0.32104444198E+02  0.17765265582E+03  0.20850494137E+03  0.77000000000E+02 0.  0.
<mgrwt>
<rscale>  0 0.29094647E+03</rscale>
<asrwt>0</asrwt>
<pdfrwt beam="1">  1        2 0.16276906E+00 0.29094647E+03</pdfrwt>
<pdfrwt beam="2">  1       -2 0.26533726E-02 0.29094647E+03</pdfrwt>
<totfact> 0.12314664E+04</totfact>
</mgrwt>
</event>
<event>
 4    1  0.6782240E-004  0.2181574E+03  0.7818608E-02  0.1135264E+00
          2   -1    0    0  501    0  0.00000000000E+00  0.00000000000E+00  0.30402604737E+03  0.30402604738E+03  0.25500000000E-02 0.  1.
         -2   -1    0    0    0  501 -0.00000000000E+00 -0.00000000000E+00 -0.39135332786E+02  0.39135332869E+02  0.25500000000E-02 0. -1.
    5000001    1    1    2    0    0 -0.45106242141E+01  0.53538799710E+02  0.45113273349E+02  0.10416792327E+03  0.77000000000E+02 0.  0.
   -5000001    1    1    2    0    0  0.45106242141E+01 -0.53538799710E+02  0.21977744123E+03  0.23899345698E+03  0.77000000000E+02 0.  0.
<mgrwt>
<rscale>  0 0.21815738E+03</rscale>
<asrwt>0</asrwt>
<pdfrwt beam="1">  1        2 0.43432293E-01 0.21815738E+03</pdfrwt>
<pdfrwt beam="2">  1       -2 0.55907618E-02 0.21815738E+03</pdfrwt>
<totfact> 0.18765558E+04</totfact>
</mgrwt>
</event>
<event>
 4    1  0.6782240E-004  0.2074788E+03  0.7818608E-02  0.1143578E+00
         -2   -1    0    0    0  501 -0.00000000000E+00  0.00000000000E+00  0.71711087227E+03  0.71711087228E+03  0.25500000000E-02 0. -1.
          2   -1    0    0  501    0  0.00000000000E+00 -0.00000000000E+00 -0.15007258247E+02  0.15007258464E+02  0.25500000000E-02 0.  1.
    5000001    1    1    2    0    0 -0.55424823881E+02  0.18237224443E+02  0.48441201861E+03  0.49395193211E+03  0.77000000000E+02 0.  0.
   -5000001    1    1    2    0    0  0.55424823881E+02 -0.18237224443E+02  0.21769159541E+03  0.23816619863E+03  0.77000000000E+02 0.  0.
<mgrwt>
<rscale>  0 0.20747885E+03</rscale>
<asrwt>0</asrwt>
<pdfrwt beam="1">  1        2 0.21438930E-02 0.20747885E+03</pdfrwt>
<pdfrwt beam="2">  1       -2 0.10244446E+00 0.20747885E+03</pdfrwt>
<totfact> 0.39557570E+03</totfact>
</mgrwt>
</event>
<event>
 4    1  0.6782240E-004  0.2742497E+03  0.7818608E-02  0.1098872E+00
          2   -1    0    0  501    0  0.00000000000E+00  0.00000000000E+00  0.67993355596E+03  0.67993355597E+03  0.25500000000E-02 0.  1.
         -2   -1    0    0    0  501 -0.00000000000E+00 -0.00000000000E+00 -0.27654501136E+02  0.27654501253E+02  0.25500000000E-02 0. -1.
    5000001    1    1    2    0    0 -0.35528847805E+02 -0.85508279678E+02  0.49533222846E+03  0.50976169086E+03  0.77000000000E+02 0.  0.
   -5000001    1    1    2    0    0  0.35528847805E+02  0.85508279678E+02  0.15694682637E+03  0.19782636636E+03  0.77000000000E+02 0.  0.
<mgrwt>
<rscale>  0 0.27424969E+03</rscale>
<asrwt>0</asrwt>
<pdfrwt beam="1">  1        2 0.97133367E-01 0.27424969E+03</pdfrwt>
<pdfrwt beam="2">  1       -2 0.39506430E-02 0.27424969E+03</pdfrwt>
<totfact> 0.13240451E+04</totfact>
</mgrwt>
</event>
<event>
 4    1  0.6782240E-004  0.3486982E+03  0.7818608E-02  0.1063151E+00
         -2   -1    0    0    0  501 -0.00000000000E+00  0.00000000000E+00  0.11192490594E+02  0.11192490884E+02  0.25500000000E-02 0. -1.
          2   -1    0    0  501    0  0.00000000000E+00 -0.00000000000E+00 -0.27158933058E+04  0.27158933058E+04  0.25500000000E-02 0.  1.
    5000001    1    1    2    0    0  0.14660528335E+03  0.91480914423E+01 -0.17729165034E+04  0.17806568240E+04  0.77000000000E+02 0.  0.
   -5000001    1    1    2    0    0 -0.14660528335E+03 -0.91480914423E+01 -0.93178431174E+03  0.94642897266E+03  0.77000000000E+02 0.  0.
<mgrwt>
<rscale>  0 0.34869821E+03</rscale>
<asrwt>0</asrwt>
<pdfrwt beam="1">  1        2 0.38798434E+00 0.34869821E+03</pdfrwt>
<pdfrwt beam="2">  1       -2 0.15989290E-02 0.34869821E+03</pdfrwt>
<totfact> 0.41780183E+03</totfact>
</mgrwt>
</event>
<event>
 4    1  0.6782240E-004  0.2790997E+03  0.7818608E-02  0.1096182E+00
          2   -1    0    0  501    0  0.00000000000E+00  0.00000000000E+00  0.67110897574E+02  0.67110897622E+02  0.25500000000E-02 0.  1.
         -2   -1    0    0    0  501 -0.00000000000E+00 -0.00000000000E+00 -0.29017879108E+03  0.29017879109E+03  0.25500000000E-02 0. -1.
    5000001    1    1    2    0    0  0.44770282107E+02 -0.50927018809E+02  0.95551895189E+01  0.10304484971E+03  0.77000000000E+02 0.  0.
   -5000001    1    1    2    0    0 -0.44770282107E+02  0.50927018809E+02 -0.23262308302E+03  0.25424483900E+03  0.77000000000E+02 0.  0.
<mgrwt>
<rscale>  0 0.27909969E+03</rscale>
<asrwt>0</asrwt>
<pdfrwt beam="1">  1        2 0.95872713E-02 0.27909969E+03</pdfrwt>
<pdfrwt beam="2">  1       -2 0.41454112E-01 0.27909969E+03</pdfrwt>
<totfact> 0.37420157E+03</totfact>
</mgrwt>
</event>
<event>
 4    1  0.6782240E-004  0.2587953E+03  0.7818608E-02  0.1107869E+00
         -2   -1    0    0    0  501 -0.00000000000E+00  0.00000000000E+00  0.27972549299E+03  0.27972549300E+03  0.25500000000E-02 0. -1.
          2   -1    0    0  501    0  0.00000000000E+00 -0.00000000000E+00 -0.59857811247E+02  0.59857811301E+02  0.25500000000E-02 0.  1.
    5000001    1    1    2    0    0 -0.62430226585E+02  0.78677958527E+02  0.14531381607E+03  0.19269888295E+03  0.77000000000E+02 0.  0.
   -5000001    1    1    2    0    0  0.62430226585E+02 -0.78677958527E+02  0.74553865674E+02  0.14688442135E+03  0.77000000000E+02 0.  0.
<mgrwt>
<rscale>  0 0.25879533E+03</rscale>
<asrwt>0</asrwt>
<pdfrwt beam="1">  1        2 0.85511158E-02 0.25879533E+03</pdfrwt>
<pdfrwt beam="2">  1       -2 0.39960785E-01 0.25879533E+03</pdfrwt>
<totfact> 0.46211356E+03</totfact>
</mgrwt>
</event>
<event>
 4    1  0.6782240E-004  0.2299883E+03  0.7818608E-02  0.1126648E+00
         -2   -1    0    0    0  501 -0.00000000000E+00  0.00000000000E+00  0.52577374760E+01  0.52577380944E+01  0.25500000000E-02 0. -1.
          2   -1    0    0  501    0  0.00000000000E+00 -0.00000000000E+00 -0.25150849524E+04  0.25150849524E+04  0.25500000000E-02 0.  1.
    5000001    1    1    2    0    0 -0.65079271058E+02 -0.55275001162E+02 -0.12329419779E+04  0.12382913866E+04  0.77000000000E+02 0.  0.
   -5000001    1    1    2    0    0  0.65079271058E+02  0.55275001162E+02 -0.12768852370E+04  0.12820513038E+04  0.77000000000E+02 0.  0.
<mgrwt>
<rscale>  0 0.22998832E+03</rscale>
<asrwt>0</asrwt>
<pdfrwt beam="1">  1        2 0.35929708E+00 0.22998832E+03</pdfrwt>
<pdfrwt beam="2">  1       -2 0.75110701E-03 0.22998832E+03</pdfrwt>
<totfact> 0.15849191E+04</totfact>
</mgrwt>
</event>
<event>
 4    1  0.6782240E-004  0.2520835E+03  0.7818608E-02  0.1111995E+00
          2   -1    0    0  501    0  0.00000000000E+00  0.00000000000E+00  0.80877343810E+02  0.80877343850E+02  0.25500000000E-02 0.  1.
         -2   -1    0    0    0  501 -0.00000000000E+00 -0.00000000000E+00 -0.19642740985E+03  0.19642740987E+03  0.25500000000E-02 0. -1.
    5000001    1    1    2    0    0 -0.91369116129E+02  0.29856201184E+02 -0.87247759926E+02  0.15093336193E+03  0.77000000000E+02 0.  0.
   -5000001    1    1    2    0    0  0.91369116129E+02 -0.29856201184E+02 -0.28302306116E+02  0.12637139179E+03  0.77000000000E+02 0.  0.
<mgrwt>
<rscale>  0 0.25208354E+03</rscale>
<asrwt>0</asrwt>
<pdfrwt beam="1">  1        2 0.11553906E-01 0.25208354E+03</pdfrwt>
<pdfrwt beam="2">  1       -2 0.28061058E-01 0.25208354E+03</pdfrwt>
<totfact> 0.61077645E+03</totfact>
</mgrwt>
</event>
<event>
 4    1  0.6782240E-004  0.1983393E+03  0.7818608E-02  0.1151148E+00
         -2   -1    0    0    0  501 -0.00000000000E+00  0.00000000000E+00  0.35354036069E+02  0.35354036161E+02  0.25500000000E-02 0. -1.
          2   -1    0    0  501    0  0.00000000000E+00 -0.00000000000E+00 -0.27817524731E+03  0.27817524732E+03  0.25500000000E-02 0.  1.
    5000001    1    1    2    0    0 -0.34059064902E+02 -0.46267583396E+02 -0.16028952989E+03  0.18687547343E+03  0.77000000000E+02 0.  0.
   -5000001    1    1    2    0    0  0.34059064902E+02  0.46267583396E+02 -0.82531681346E+02  0.12665381005E+03  0.77000000000E+02 0.  0.
<mgrwt>
<rscale>  0 0.19833928E+03</rscale>
<asrwt>0</asrwt>
<pdfrwt beam="1">  1        2 0.39739320E-01 0.19833928E+03</pdfrwt>
<pdfrwt beam="2">  1       -2 0.50505767E-02 0.19833928E+03</pdfrwt>
<totfact> 0.23912584E+04</totfact>
</mgrwt>
</event>
<event>
 4    1  0.6782240E-004  0.2962310E+03  0.7818608E-02  0.1087140E+00
         -2   -1    0    0    0  501 -0.00000000000E+00  0.00000000000E+00  0.57460769616E+02  0.57460769672E+02  0.25500000000E-02 0. -1.
          2   -1    0    0  501    0  0.00000000000E+00 -0.00000000000E+00 -0.38179446582E+03  0.38179446583E+03  0.25500000000E-02 0.  1.
    5000001    1    1    2    0    0 -0.15595561342E+02  0.12343005230E+03 -0.19633610407E+03  0.24485723413E+03  0.77000000000E+02 0.  0.
   -5000001    1    1    2    0    0  0.15595561342E+02 -0.12343005230E+03 -0.12799759214E+03  0.19439800137E+03  0.77000000000E+02 0.  0.
<mgrwt>
<rscale>  0 0.29623102E+03</rscale>
<asrwt>0</asrwt>
<pdfrwt beam="1">  1        2 0.54542065E-01 0.29623102E+03</pdfrwt>
<pdfrwt beam="2">  1       -2 0.82086816E-02 0.29623102E+03</pdfrwt>
<totfact> 0.82470197E+03</totfact>
</mgrwt>
</event>
<event>
 4    1  0.6782240E-004  0.2575264E+03  0.7818608E-02  0.1108639E+00
          2   -1    0    0  501    0  0.00000000000E+00  0.00000000000E+00  0.29746400138E+04  0.29746400138E+04  0.25500000000E-02 0.  1.
         -2   -1    0    0    0  501 -0.00000000000E+00 -0.00000000000E+00 -0.55737688149E+01  0.55737693982E+01  0.25500000000E-02 0. -1.
    5000001    1    1    2    0    0  0.50854418615E+02 -0.89581872150E+02  0.14114588222E+04  0.14173059269E+04  0.77000000000E+02 0.  0.
   -5000001    1    1    2    0    0 -0.50854418615E+02  0.89581872150E+02  0.15576074228E+04  0.15629078563E+04  0.77000000000E+02 0.  0.
<mgrwt>
<rscale>  0 0.25752636E+03</rscale>
<asrwt>0</asrwt>
<pdfrwt beam="1">  1        2 0.42495023E+00 0.25752636E+03</pdfrwt>
<pdfrwt beam="2">  1       -2 0.79624962E-03 0.25752636E+03</pdfrwt>
<totfact> 0.84981759E+03</totfact>
</mgrwt>
</event>
<event>
 4    1  0.6782240E-004  0.3732211E+03  0.7818608E-02  0.1053468E+00
         -2   -1    0    0    0  501 -0.00000000000E+00  0.00000000000E+00  0.44470029531E+02  0.44470029604E+02  0.25500000000E-02 0. -1.
          2   -1    0    0  501    0  0.00000000000E+00 -0.00000000000E+00 -0.78307775279E+03  0.78307775279E+03  0.25500000000E-02 0.  1.
    5000001    1    1    2    0    0  0.14324337355E+03 -0.41177586083E+02 -0.18807692807E+03  0.25202418244E+03  0.77000000000E+02 0.  0.
   -5000001    1    1    2    0    0 -0.14324337355E+03  0.41177586083E+02 -0.55053079519E+03  0.57552359996E+03  0.77000000000E+02 0.  0.
<mgrwt>
<rscale>  0 0.37322106E+03</rscale>
<asrwt>0</asrwt>
<pdfrwt beam="1">  1        2 0.11186824E+00 0.37322106E+03</pdfrwt>
<pdfrwt beam="2">  1       -2 0.63528618E-02 0.37322106E+03</pdfrwt>
<totfact> 0.54556187E+03</totfact>
</mgrwt>
</event>
<event>
 4    1  0.6782240E-004  0.2191257E+03  0.7818608E-02  0.1134537E+00
          2   -1    0    0  501    0  0.00000000000E+00  0.00000000000E+00  0.17057205927E+04  0.17057205927E+04  0.25500000000E-02 0.  1.
         -2   -1    0    0    0  501 -0.00000000000E+00 -0.00000000000E+00 -0.70375039280E+01  0.70375043900E+01  0.25500000000E-02 0. -1.
    5000001    1    1    2    0    0  0.66794605345E+02  0.16512602867E+02  0.11355547587E+04  0.11402402358E+04  0.77000000000E+02 0.  0.
   -5000001    1    1    2    0    0 -0.66794605345E+02 -0.16512602867E+02  0.56312833012E+03  0.57251786133E+03  0.77000000000E+02 0.  0.
<mgrwt>
<rscale>  0 0.21912568E+03</rscale>
<asrwt>0</asrwt>
<pdfrwt beam="1">  1        2 0.24367475E+00 0.21912568E+03</pdfrwt>
<pdfrwt beam="2">  1       -2 0.10053562E-02 0.21912568E+03</pdfrwt>
<totfact> 0.25757021E+04</totfact>
</mgrwt>
</event>
<event>
 4    1  0.6782240E-004  0.2838164E+03  0.7818608E-02  0.1093623E+00
          2   -1    0    0  501    0  0.00000000000E+00  0.00000000000E+00  0.26212422795E+03  0.26212422796E+03  0.25500000000E-02 0.  1.
         -2   -1    0    0    0  501 -0.00000000000E+00 -0.00000000000E+00 -0.76825921938E+02  0.76825921980E+02  0.25500000000E-02 0. -1.
    5000001    1    1    2    0    0  0.63653666138E+02 -0.10073936758E+03  0.96176987497E+02  0.17140368233E+03  0.77000000000E+02 0.  0.
   -5000001    1    1    2    0    0 -0.63653666138E+02  0.10073936758E+03  0.89121318514E+02  0.16754646761E+03  0.77000000000E+02 0.  0.
<mgrwt>
<rscale>  0 0.28381639E+03</rscale>
<asrwt>0</asrwt>
<pdfrwt beam="1">  1        2 0.37446318E-01 0.28381639E+03</pdfrwt>
<pdfrwt beam="2">  1       -2 0.10975132E-01 0.28381639E+03</pdfrwt>
<totfact> 0.77970921E+03</totfact>
</mgrwt>
</event>
<event>
 4    1  0.6782240E-004  0.3628994E+03  0.7818608E-02  0.1057442E+00
          2   -1    0    0  501    0  0.00000000000E+00  0.00000000000E+00  0.16324655034E+03  0.16324655036E+03  0.25500000000E-02 0.  1.
         -2   -1    0    0    0  501 -0.00000000000E+00 -0.00000000000E+00 -0.20168264332E+03  0.20168264334E+03  0.25500000000E-02 0. -1.
    5000001    1    1    2    0    0 -0.15468036195E+03 -0.15132823064E+02  0.34371479300E+02  0.17682029096E+03  0.77000000000E+02 0.  0.
   -5000001    1    1    2    0    0  0.15468036195E+03  0.15132823064E+02 -0.72807572286E+02  0.18810890274E+03  0.77000000000E+02 0.  0.
<mgrwt>
<rscale>  0 0.36289941E+03</rscale>
<asrwt>0</asrwt>
<pdfrwt beam="1">  1        2 0.23320936E-01 0.36289941E+03</pdfrwt>
<pdfrwt beam="2">  1       -2 0.28811806E-01 0.36289941E+03</pdfrwt>
<totfact> 0.25771058E+03</totfact>
</mgrwt>
</event>
<event>
 4    1  0.6782240E-004  0.5553039E+03  0.7818608E-02  0.1000274E+00
         -2   -1    0    0    0  501 -0.00000000000E+00  0.00000000000E+00  0.35666978597E+02  0.35666978688E+02  0.25500000000E-02 0. -1.
          2   -1    0    0  501    0  0.00000000000E+00 -0.00000000000E+00 -0.21613997845E+04  0.21613997845E+04  0.25500000000E-02 0.  1.
    5000001    1    1    2    0    0 -0.24987165624E+03 -0.44629496393E+02 -0.73819209613E+03  0.78440054011E+03  0.77000000000E+02 0.  0.
   -5000001    1    1    2    0    0  0.24987165624E+03  0.44629496393E+02 -0.13875407097E+04  0.14126662230E+04  0.77000000000E+02 0.  0.
<mgrwt>
<rscale>  0 0.55530388E+03</rscale>
<asrwt>0</asrwt>
<pdfrwt beam="1">  1        2 0.30877132E+00 0.55530388E+03</pdfrwt>
<pdfrwt beam="2">  1       -2 0.50952840E-02 0.55530388E+03</pdfrwt>
<totfact> 0.13731242E+03</totfact>
</mgrwt>
</event>
<event>
 4    1  0.6782240E-004  0.2276087E+03  0.7818608E-02  0.1128334E+00
         -2   -1    0    0    0  501 -0.00000000000E+00  0.00000000000E+00  0.43491688237E+02  0.43491688312E+02  0.25500000000E-02 0. -1.
          2   -1    0    0  501    0  0.00000000000E+00 -0.00000000000E+00 -0.29779083378E+03  0.29779083379E+03  0.25500000000E-02 0.  1.
    5000001    1    1    2    0    0 -0.38478412514E+00 -0.61986739892E+02 -0.42595701062E+02  0.10763780809E+03  0.77000000000E+02 0.  0.
   -5000001    1    1    2    0    0  0.38478412514E+00  0.61986739892E+02 -0.21170344448E+03  0.23364471401E+03  0.77000000000E+02 0.  0.
<mgrwt>
<rscale>  0 0.22760867E+03</rscale>
<asrwt>0</asrwt>
<pdfrwt beam="1">  1        2 0.42541547E-01 0.22760867E+03</pdfrwt>
<pdfrwt beam="2">  1       -2 0.62130985E-02 0.22760867E+03</pdfrwt>
<totfact> 0.16376101E+04</totfact>
</mgrwt>
</event>
<event>
 4    1  0.6782240E-004  0.4939910E+03  0.7818608E-02  0.1015359E+00
          2   -1    0    0  501    0  0.00000000000E+00  0.00000000000E+00  0.28842920741E+04  0.28842920741E+04  0.25500000000E-02 0.  1.
         -2   -1    0    0    0  501 -0.00000000000E+00 -0.00000000000E+00 -0.21151386808E+02  0.21151386961E+02  0.25500000000E-02 0. -1.
    5000001    1    1    2    0    0 -0.10569959642E+03 -0.11912457508E+03  0.41770768700E+03  0.45362074561E+03  0.77000000000E+02 0.  0.
   -5000001    1    1    2    0    0  0.10569959642E+03  0.11912457508E+03  0.24454330003E+04  0.24518227155E+04  0.77000000000E+02 0.  0.
<mgrwt>
<rscale>  0 0.49399100E+03</rscale>
<asrwt>0</asrwt>
<pdfrwt beam="1">  1        2 0.41204160E+00 0.49399100E+03</pdfrwt>
<pdfrwt beam="2">  1       -2 0.30216276E-02 0.49399100E+03</pdfrwt>
<totfact> 0.13052899E+03</totfact>
</mgrwt>
</event>
<event>
 4    1  0.6782240E-004  0.1880313E+03  0.7818608E-02  0.1160249E+00
          2   -1    0    0  501    0  0.00000000000E+00  0.00000000000E+00  0.87433982105E+03  0.87433982105E+03  0.25500000000E-02 0.  1.
         -2   -1    0    0    0  501 -0.00000000000E+00 -0.00000000000E+00 -0.10109279568E+02  0.10109279889E+02  0.25500000000E-02 0. -1.
    5000001    1    1    2    0    0 -0.24765574999E+01  0.29028368682E+02  0.21856548982E+03  0.23355653034E+03  0.77000000000E+02 0.  0.
   -5000001    1    1    2    0    0  0.24765574999E+01 -0.29028368682E+02  0.64566505166E+03  0.65089257060E+03  0.77000000000E+02 0.  0.
<mgrwt>
<rscale>  0 0.18803134E+03</rscale>
<asrwt>0</asrwt>
<pdfrwt beam="1">  1        2 0.12490571E+00 0.18803134E+03</pdfrwt>
<pdfrwt beam="2">  1       -2 0.14441826E-02 0.18803134E+03</pdfrwt>
<totfact> 0.41972732E+04</totfact>
</mgrwt>
</event>
<event>
 4    1  0.6782240E-004  0.2911148E+03  0.7818608E-02  0.1089769E+00
          2   -1    0    0  501    0  0.00000000000E+00  0.00000000000E+00  0.29336697667E+03  0.29336697668E+03  0.25500000000E-02 0.  1.
         -2   -1    0    0    0  501 -0.00000000000E+00 -0.00000000000E+00 -0.72219959604E+02  0.72219959649E+02  0.25500000000E-02 0. -1.
    5000001    1    1    2    0    0  0.24040941332E+02 -0.11849489665E+03  0.78829791646E+02  0.16359139172E+03  0.77000000000E+02 0.  0.
   -5000001    1    1    2    0    0 -0.24040941332E+02  0.11849489665E+03  0.14231722542E+03  0.20199554461E+03  0.77000000000E+02 0.  0.
<mgrwt>
<rscale>  0 0.29111476E+03</rscale>
<asrwt>0</asrwt>
<pdfrwt beam="1">  1        2 0.41909568E-01 0.29111476E+03</pdfrwt>
<pdfrwt beam="2">  1       -2 0.10317137E-01 0.29111476E+03</pdfrwt>
<totfact> 0.76286334E+03</totfact>
</mgrwt>
</event>
<event>
 4    1  0.6782240E-004  0.1694970E+03  0.7818608E-02  0.1178373E+00
          2   -1    0    0  501    0  0.00000000000E+00  0.00000000000E+00  0.19566476046E+04  0.19566476046E+04  0.25500000000E-02 0.  1.
         -2   -1    0    0    0  501 -0.00000000000E+00 -0.00000000000E+00 -0.36707191737E+01  0.36707200594E+01  0.25500000000E-02 0. -1.
    5000001    1    1    2    0    0  0.30824643092E+02 -0.12940001080E+02  0.11112166749E+04  0.11143828340E+04  0.77000000000E+02 0.  0.
   -5000001    1    1    2    0    0 -0.30824643092E+02  0.12940001080E+02  0.84176021052E+03  0.84593549060E+03  0.77000000000E+02 0.  0.
<mgrwt>
<rscale>  0 0.16949696E+03</rscale>
<asrwt>0</asrwt>
<pdfrwt beam="1">  1        2 0.27952147E+00 0.16949696E+03</pdfrwt>
<pdfrwt beam="2">  1       -2 0.52438781E-03 0.16949696E+03</pdfrwt>
<totfact> 0.48824603E+04</totfact>
</mgrwt>
</event>
<event>
 4    1  0.6782240E-004  0.5855410E+03  0.7818608E-02  0.9935866E-01
         -2   -1    0    0    0  501 -0.00000000000E+00  0.00000000000E+00  0.51939403161E+02  0.51939403224E+02  0.25500000000E-02 0. -1.
          2   -1    0    0  501    0  0.00000000000E+00 -0.00000000000E+00 -0.16502799969E+04  0.16502799969E+04  0.25500000000E-02 0.  1.
    5000001    1    1    2    0    0 -0.20818000439E+03 -0.18569989002E+03 -0.67039596624E+03  0.73019388859E+03  0.77000000000E+02 0.  0.
   -5000001    1    1    2    0    0  0.20818000439E+03  0.18569989002E+03 -0.92794462752E+03  0.97202551156E+03  0.77000000000E+02 0.  0.
<mgrwt>
<rscale>  0 0.58554097E+03</rscale>
<asrwt>0</asrwt>
<pdfrwt beam="1">  1        2 0.23575425E+00 0.58554097E+03</pdfrwt>
<pdfrwt beam="2">  1       -2 0.74199158E-02 0.58554097E+03</pdfrwt>
<totfact> 0.13759622E+03</totfact>
</mgrwt>
</event>
<event>
 4    1  0.6782240E-004  0.1777663E+03  0.7818608E-02  0.1169983E+00
         -2   -1    0    0    0  501 -0.00000000000E+00  0.00000000000E+00  0.32424971864E+01  0.32424981891E+01  0.25500000000E-02 0. -1.
          2   -1    0    0  501    0  0.00000000000E+00 -0.00000000000E+00 -0.24364588921E+04  0.24364588921E+04  0.25500000000E-02 0.  1.
    5000001    1    1    2    0    0  0.28432265443E+02 -0.34044971163E+02 -0.12432152838E+04  0.12463870569E+04  0.77000000000E+02 0.  0.
   -5000001    1    1    2    0    0 -0.28432265443E+02  0.34044971163E+02 -0.11900011111E+04  0.11933143334E+04  0.77000000000E+02 0.  0.
<mgrwt>
<rscale>  0 0.17776628E+03</rscale>
<asrwt>0</asrwt>
<pdfrwt beam="1">  1        2 0.34806438E+00 0.17776628E+03</pdfrwt>
<pdfrwt beam="2">  1       -2 0.46321552E-03 0.17776628E+03</pdfrwt>
<totfact> 0.34304893E+04</totfact>
</mgrwt>
</event>
<event>
 4    1  0.6782240E-004  0.2801114E+03  0.7818608E-02  0.1095628E+00
          2   -1    0    0  501    0  0.00000000000E+00  0.00000000000E+00  0.25869749485E+03  0.25869749486E+03  0.25500000000E-02 0.  1.
         -2   -1    0    0    0  501 -0.00000000000E+00 -0.00000000000E+00 -0.75824487667E+02  0.75824487710E+02  0.25500000000E-02 0. -1.
    5000001    1    1    2    0    0  0.98209374326E+02 -0.51716025329E+02  0.47282067532E+02  0.14312310223E+03  0.77000000000E+02 0.  0.
   -5000001    1    1    2    0    0 -0.98209374326E+02  0.51716025329E+02  0.13559093965E+03  0.19139888034E+03  0.77000000000E+02 0.  0.
<mgrwt>
<rscale>  0 0.28011144E+03</rscale>
<asrwt>0</asrwt>
<pdfrwt beam="1">  1        2 0.36956784E-01 0.28011144E+03</pdfrwt>
<pdfrwt beam="2">  1       -2 0.10832070E-01 0.28011144E+03</pdfrwt>
<totfact> 0.80729194E+03</totfact>
</mgrwt>
</event>
<event>
 4    1  0.6782240E-004  0.3382396E+03  0.7818608E-02  0.1067548E+00
         -2   -1    0    0    0  501 -0.00000000000E+00  0.00000000000E+00  0.22360118322E+02  0.22360118468E+02  0.25500000000E-02 0. -1.
          2   -1    0    0  501    0  0.00000000000E+00 -0.00000000000E+00 -0.12791303981E+04  0.12791303981E+04  0.25500000000E-02 0.  1.
    5000001    1    1    2    0    0  0.71439364671E+02  0.13245054976E+03 -0.60884957710E+03  0.63188095279E+03  0.77000000000E+02 0.  0.
   -5000001    1    1    2    0    0 -0.71439364671E+02 -0.13245054976E+03 -0.64792070270E+03  0.66960956381E+03  0.77000000000E+02 0.  0.
<mgrwt>
<rscale>  0 0.33823960E+03</rscale>
<asrwt>0</asrwt>
<pdfrwt beam="1">  1        2 0.18273287E+00 0.33823960E+03</pdfrwt>
<pdfrwt beam="2">  1       -2 0.31943034E-02 0.33823960E+03</pdfrwt>
<totfact> 0.78649667E+03</totfact>
</mgrwt>
</event>
<event>
 4    1  0.6782240E-004  0.3901628E+03  0.7818608E-02  0.1047240E+00
         -2   -1    0    0    0  501 -0.00000000000E+00  0.00000000000E+00  0.32031216596E+02  0.32031216698E+02  0.25500000000E-02 0. -1.
          2   -1    0    0  501    0  0.00000000000E+00 -0.00000000000E+00 -0.11881146052E+04  0.11881146052E+04  0.25500000000E-02 0.  1.
    5000001    1    1    2    0    0  0.10984020184E+03  0.13273854638E+03 -0.42345930937E+03  0.46360670652E+03  0.77000000000E+02 0.  0.
   -5000001    1    1    2    0    0 -0.10984020184E+03 -0.13273854638E+03 -0.73262407920E+03  0.75653911536E+03  0.77000000000E+02 0.  0.
<mgrwt>
<rscale>  0 0.39016282E+03</rscale>
<asrwt>0</asrwt>
<pdfrwt beam="1">  1        2 0.16973063E+00 0.39016282E+03</pdfrwt>
<pdfrwt beam="2">  1       -2 0.45758888E-02 0.39016282E+03</pdfrwt>
<totfact> 0.51258836E+03</totfact>
</mgrwt>
</event>
<event>
 4    1  0.6782240E-004  0.2399387E+03  0.7818608E-02  0.1119834E+00
         -2   -1    0    0    0  501 -0.00000000000E+00  0.00000000000E+00  0.54780953818E+02  0.54780953878E+02  0.25500000000E-02 0. -1.
          2   -1    0    0  501    0  0.00000000000E+00 -0.00000000000E+00 -0.26273075260E+03  0.26273075261E+03  0.25500000000E-02 0.  1.
    5000001    1    1    2    0    0 -0.28640116613E+02 -0.84144032565E+02 -0.13537839517E+03  0.17932312838E+03  0.77000000000E+02 0.  0.
   -5000001    1    1    2    0    0  0.28640116613E+02  0.84144032565E+02 -0.72571403614E+02  0.13818857810E+03  0.77000000000E+02 0.  0.
<mgrwt>
<rscale>  0 0.23993867E+03</rscale>
<asrwt>0</asrwt>
<pdfrwt beam="1">  1        2 0.37532964E-01 0.23993867E+03</pdfrwt>
<pdfrwt beam="2">  1       -2 0.78258507E-02 0.23993867E+03</pdfrwt>
<totfact> 0.13160771E+04</totfact>
</mgrwt>
</event>
<event>
 4    1  0.6782240E-004  0.1798690E+03  0.7818608E-02  0.1167930E+00
         -2   -1    0    0    0  501 -0.00000000000E+00  0.00000000000E+00  0.44287003280E+01  0.44287010621E+01  0.25500000000E-02 0. -1.
          2   -1    0    0  501    0  0.00000000000E+00 -0.00000000000E+00 -0.18263178521E+04  0.18263178521E+04  0.25500000000E-02 0.  1.
    5000001    1    1    2    0    0 -0.15291924630E+02  0.20670641015E+02 -0.51699392885E+03  0.52332861647E+03  0.77000000000E+02 0.  0.
   -5000001    1    1    2    0    0  0.15291924630E+02 -0.20670641015E+02 -0.13048952230E+04  0.13074179367E+04  0.77000000000E+02 0.  0.
<mgrwt>
<rscale>  0 0.17986901E+03</rscale>
<asrwt>0</asrwt>
<pdfrwt beam="1">  1        2 0.26090207E+00 0.17986901E+03</pdfrwt>
<pdfrwt beam="2">  1       -2 0.63267270E-03 0.17986901E+03</pdfrwt>
<totfact> 0.43310640E+04</totfact>
</mgrwt>
</event>
<event>
 4    1  0.6782240E-004  0.5503616E+03  0.7818608E-02  0.1001410E+00
          2   -1    0    0  501    0  0.00000000000E+00  0.00000000000E+00  0.14668265260E+04  0.14668265260E+04  0.25500000000E-02 0.  1.
         -2   -1    0    0    0  501 -0.00000000000E+00 -0.00000000000E+00 -0.51624689431E+02  0.51624689494E+02  0.25500000000E-02 0. -1.
    5000001    1    1    2    0    0 -0.16893994474E+03  0.19858714853E+03  0.58996548771E+03  0.64958897557E+03  0.77000000000E+02 0.  0.
   -5000001    1    1    2    0    0  0.16893994474E+03 -0.19858714853E+03  0.82523634883E+03  0.86886223990E+03  0.77000000000E+02 0.  0.
<mgrwt>
<rscale>  0 0.55036157E+03</rscale>
<asrwt>0</asrwt>
<pdfrwt beam="1">  1        2 0.20954664E+00 0.55036157E+03</pdfrwt>
<pdfrwt beam="2">  1       -2 0.73749559E-02 0.55036157E+03</pdfrwt>
<totfact> 0.17296621E+03</totfact>
</mgrwt>
</event>
<event>
 4    1  0.6782240E-004  0.2605431E+03  0.7818608E-02  0.1106817E+00
         -2   -1    0    0    0  501 -0.00000000000E+00  0.00000000000E+00  0.16162758742E+03  0.16162758744E+03  0.25500000000E-02 0. -1.
          2   -1    0    0  501    0  0.00000000000E+00 -0.00000000000E+00 -0.10499862291E+03  0.10499862294E+03  0.25500000000E-02 0.  1.
    5000001    1    1    2    0    0 -0.84823207891E+02 -0.61825214730E+02  0.23265700573E+02  0.13224079021E+03  0.77000000000E+02 0.  0.
   -5000001    1    1    2    0    0  0.84823207891E+02  0.61825214730E+02  0.33363263938E+02  0.13438542017E+03  0.77000000000E+02 0.  0.
<mgrwt>
<rscale>  0 0.26054308E+03</rscale>
<asrwt>0</asrwt>
<pdfrwt beam="1">  1        2 0.14999803E-01 0.26054308E+03</pdfrwt>
<pdfrwt beam="2">  1       -2 0.23089655E-01 0.26054308E+03</pdfrwt>
<totfact> 0.63077461E+03</totfact>
</mgrwt>
</event>
<event>
 4    1  0.6782240E-004  0.2024056E+03  0.7818608E-02  0.1147725E+00
         -2   -1    0    0    0  501 -0.00000000000E+00  0.00000000000E+00  0.39359003174E+02  0.39359003257E+02  0.25500000000E-02 0. -1.
          2   -1    0    0  501    0  0.00000000000E+00 -0.00000000000E+00 -0.26022012908E+03  0.26022012909E+03  0.25500000000E-02 0.  1.
    5000001    1    1    2    0    0 -0.48816582294E+02  0.38447363093E+02 -0.14188895023E+03  0.17298188528E+03  0.77000000000E+02 0.  0.
   -5000001    1    1    2    0    0  0.48816582294E+02 -0.38447363093E+02 -0.78972175669E+02  0.12659724707E+03  0.77000000000E+02 0.  0.
<mgrwt>
<rscale>  0 0.20240558E+03</rscale>
<asrwt>0</asrwt>
<pdfrwt beam="1">  1        2 0.37174303E-01 0.20240558E+03</pdfrwt>
<pdfrwt beam="2">  1       -2 0.56227149E-02 0.20240558E+03</pdfrwt>
<totfact> 0.21865145E+04</totfact>
</mgrwt>
</event>
<event>
 4    1  0.6782240E-004  0.2206916E+03  0.7818608E-02  0.1133368E+00
         -2   -1    0    0    0  501 -0.00000000000E+00  0.00000000000E+00  0.90559677647E+01  0.90559681237E+01  0.25500000000E-02 0. -1.
          2   -1    0    0  501    0  0.00000000000E+00 -0.00000000000E+00 -0.13445492321E+04  0.13445492321E+04  0.25500000000E-02 0.  1.
    5000001    1    1    2    0    0  0.56588261857E+02  0.19693047534E+01 -0.32951009453E+03  0.34309184184E+03  0.77000000000E+02 0.  0.
   -5000001    1    1    2    0    0 -0.56588261857E+02 -0.19693047534E+01 -0.10059831698E+04  0.10105133584E+04  0.77000000000E+02 0.  0.
<mgrwt>
<rscale>  0 0.22069159E+03</rscale>
<asrwt>0</asrwt>
<pdfrwt beam="1">  1        2 0.19207833E+00 0.22069159E+03</pdfrwt>
<pdfrwt beam="2">  1       -2 0.12937106E-02 0.22069159E+03</pdfrwt>
<totfact> 0.27112007E+04</totfact>
</mgrwt>
</event>
<event>
 4    1  0.6782240E-004  0.2905580E+03  0.7818608E-02  0.1090058E+00
         -2   -1    0    0    0  501 -0.00000000000E+00  0.00000000000E+00  0.12725431165E+02  0.12725431420E+02  0.25500000000E-02 0. -1.
          2   -1    0    0  501    0  0.00000000000E+00 -0.00000000000E+00 -0.16585679370E+04  0.16585679370E+04  0.25500000000E-02 0.  1.
    5000001    1    1    2    0    0 -0.85441830921E+00  0.12255042677E+03 -0.75069851410E+03  0.76452377085E+03  0.77000000000E+02 0.  0.
   -5000001    1    1    2    0    0  0.85441830921E+00 -0.12255042677E+03 -0.89514399173E+03  0.90676959756E+03  0.77000000000E+02 0.  0.
<mgrwt>
<rscale>  0 0.29055803E+03</rscale>
<asrwt>0</asrwt>
<pdfrwt beam="1">  1        2 0.23693814E+00 0.29055803E+03</pdfrwt>
<pdfrwt beam="2">  1       -2 0.18179198E-02 0.29055803E+03</pdfrwt>
<totfact> 0.11574348E+04</totfact>
</mgrwt>
</event>
<event>
 4    1  0.6782240E-004  0.2515992E+03  0.7818608E-02  0.1112298E+00
          2   -1    0    0  501    0  0.00000000000E+00  0.00000000000E+00  0.31158109504E+03  0.31158109505E+03  0.25500000000E-02 0.  1.
         -2   -1    0    0    0  501 -0.00000000000E+00 -0.00000000000E+00 -0.50791068190E+02  0.50791068254E+02  0.25500000000E-02 0. -1.
    5000001    1    1    2    0    0 -0.51922155805E+02 -0.70167018310E+02  0.19912523074E+03  0.23064947050E+03  0.77000000000E+02 0.  0.
   -5000001    1    1    2    0    0  0.51922155805E+02  0.70167018310E+02  0.61664796108E+02  0.13172269281E+03  0.77000000000E+02 0.  0.
<mgrwt>
<rscale>  0 0.25159918E+03</rscale>
<asrwt>0</asrwt>
<pdfrwt beam="1">  1        2 0.44511584E-01 0.25159918E+03</pdfrwt>
<pdfrwt beam="2">  1       -2 0.72558670E-02 0.25159918E+03</pdfrwt>
<totfact> 0.12352280E+04</totfact>
</mgrwt>
</event>
<event>
 4    1  0.6782240E-004  0.3117682E+03  0.7818608E-02  0.1079501E+00
          2   -1    0    0  501    0  0.00000000000E+00  0.00000000000E+00  0.12373457887E+04  0.12373457887E+04  0.25500000000E-02 0.  1.
         -2   -1    0    0    0  501 -0.00000000000E+00 -0.00000000000E+00 -0.19638687430E+02  0.19638687595E+02  0.25500000000E-02 0. -1.
    5000001    1    1    2    0    0  0.10410527693E+03  0.25933176590E+02  0.27490993188E+03  0.30498345689E+03  0.77000000000E+02 0.  0.
   -5000001    1    1    2    0    0 -0.10410527693E+03 -0.25933176590E+02  0.94279716934E+03  0.95200101936E+03  0.77000000000E+02 0.  0.
<mgrwt>
<rscale>  0 0.31176817E+03</rscale>
<asrwt>0</asrwt>
<pdfrwt beam="1">  1        2 0.17676372E+00 0.31176817E+03</pdfrwt>
<pdfrwt beam="2">  1       -2 0.28055262E-02 0.31176817E+03</pdfrwt>
<totfact> 0.10037709E+04</totfact>
</mgrwt>
</event>
<event>
 4    1  0.6782240E-004  0.2538345E+03  0.7818608E-02  0.1110905E+00
          2   -1    0    0  501    0  0.00000000000E+00  0.00000000000E+00  0.90140954756E+01  0.90140958363E+01  0.25500000000E-02 0.  1.
         -2   -1    0    0    0  501 -0.00000000000E+00 -0.00000000000E+00 -0.17869779180E+04  0.17869779180E+04  0.25500000000E-02 0. -1.
    5000001    1    1    2    0    0  0.64059978306E+02  0.62613083152E+02 -0.56053257456E+03  0.57284364896E+03  0.77000000000E+02 0.  0.
   -5000001    1    1    2    0    0 -0.64059978306E+02 -0.62613083152E+02 -0.12174312480E+04  0.12231483649E+04  0.77000000000E+02 0.  0.
<mgrwt>
<rscale>  0 0.25383451E+03</rscale>
<asrwt>0</asrwt>
<pdfrwt beam="1">  1        2 0.12877291E-02 0.25383451E+03</pdfrwt>
<pdfrwt beam="2">  1       -2 0.25528233E+00 0.25383451E+03</pdfrwt>
<totfact> 0.67495507E+02</totfact>
</mgrwt>
</event>
<event>
 4    1  0.6782240E-004  0.3844085E+03  0.7818608E-02  0.1049316E+00
         -2   -1    0    0    0  501 -0.00000000000E+00  0.00000000000E+00  0.14661346949E+02  0.14661347171E+02  0.25500000000E-02 0. -1.
          2   -1    0    0  501    0  0.00000000000E+00 -0.00000000000E+00 -0.25197191558E+04  0.25197191558E+04  0.25500000000E-02 0.  1.
    5000001    1    1    2    0    0 -0.41144141289E+02  0.15849752027E+03 -0.82529994066E+03  0.84490431195E+03  0.77000000000E+02 0.  0.
   -5000001    1    1    2    0    0  0.41144141289E+02 -0.15849752027E+03 -0.16797578682E+04  0.16894761910E+04  0.77000000000E+02 0.  0.
<mgrwt>
<rscale>  0 0.38440852E+03</rscale>
<asrwt>0</asrwt>
<pdfrwt beam="1">  1        2 0.35995960E+00 0.38440852E+03</pdfrwt>
<pdfrwt beam="2">  1       -2 0.20944798E-02 0.38440852E+03</pdfrwt>
<totfact> 0.35215544E+03</totfact>
</mgrwt>
</event>
<event>
 4    1  0.6782240E-004  0.2122268E+03  0.7818608E-02  0.1139815E+00
          2   -1    0    0  501    0  0.00000000000E+00  0.00000000000E+00  0.44068941636E+03  0.44068941637E+03  0.25500000000E-02 0.  1.
         -2   -1    0    0    0  501 -0.00000000000E+00 -0.00000000000E+00 -0.25550987799E+02  0.25550987926E+02  0.25500000000E-02 0. -1.
    5000001    1    1    2    0    0  0.56531394204E+02 -0.19997050334E+02  0.29908704511E+03  0.31460728075E+03  0.77000000000E+02 0.  0.
   -5000001    1    1    2    0    0 -0.56531394204E+02  0.19997050334E+02  0.11605138345E+03  0.15163312354E+03  0.77000000000E+02 0.  0.
<mgrwt>
<rscale>  0 0.21222676E+03</rscale>
<asrwt>0</asrwt>
<pdfrwt beam="1">  1        2 0.62955624E-01 0.21222676E+03</pdfrwt>
<pdfrwt beam="2">  1       -2 0.36501415E-02 0.21222676E+03</pdfrwt>
<totfact> 0.23896722E+04</totfact>
</mgrwt>
</event>
<event>
 4    1  0.6782240E-004  0.2467173E+03  0.7818608E-02  0.1115397E+00
          2   -1    0    0  501    0  0.00000000000E+00  0.00000000000E+00  0.24155888055E+04  0.24155888055E+04  0.25500000000E-02 0.  1.
         -2   -1    0    0    0  501 -0.00000000000E+00 -0.00000000000E+00 -0.62996455622E+01  0.62996460783E+01  0.25500000000E-02 0. -1.
    5000001    1    1    2    0    0 -0.61273230117E+02 -0.17544308185E+02  0.49499297167E+03  0.50498440915E+03  0.77000000000E+02 0.  0.
   -5000001    1    1    2    0    0  0.61273230117E+02  0.17544308185E+02  0.19142961883E+04  0.19169040425E+04  0.77000000000E+02 0.  0.
<mgrwt>
<rscale>  0 0.24671728E+03</rscale>
<asrwt>0</asrwt>
<pdfrwt beam="1">  1        2 0.34508422E+00 0.24671728E+03</pdfrwt>
<pdfrwt beam="2">  1       -2 0.89994914E-03 0.24671728E+03</pdfrwt>
<totfact> 0.13695117E+04</totfact>
</mgrwt>
</event>
<event>
 4    1  0.6782240E-004  0.2587467E+03  0.7818608E-02  0.1107899E+00
          2   -1    0    0  501    0  0.00000000000E+00  0.00000000000E+00  0.26968600298E+02  0.26968600419E+02  0.25500000000E-02 0.  1.
         -2   -1    0    0    0  501 -0.00000000000E+00 -0.00000000000E+00 -0.62062794149E+03  0.62062794150E+03  0.25500000000E-02 0. -1.
    5000001    1    1    2    0    0 -0.47865186802E+02  0.66361431400E+02 -0.45735298391E+03  0.47095187395E+03  0.77000000000E+02 0.  0.
   -5000001    1    1    2    0    0  0.47865186802E+02 -0.66361431400E+02 -0.13630635728E+03  0.17664466797E+03  0.77000000000E+02 0.  0.
<mgrwt>
<rscale>  0 0.25874673E+03</rscale>
<asrwt>0</asrwt>
<pdfrwt beam="1">  1        2 0.38526576E-02 0.25874673E+03</pdfrwt>
<pdfrwt beam="2">  1       -2 0.88661126E-01 0.25874673E+03</pdfrwt>
<totfact> 0.25111756E+03</totfact>
</mgrwt>
</event>
<event>
 4    1  0.6782240E-004  0.8504199E+03  0.7818608E-02  0.9489774E-01
         -2   -1    0    0    0  501 -0.00000000000E+00  0.00000000000E+00  0.32548535897E+03  0.32548535898E+03  0.25500000000E-02 0. -1.
          2   -1    0    0  501    0  0.00000000000E+00 -0.00000000000E+00 -0.55548887949E+03  0.55548887950E+03  0.25500000000E-02 0.  1.
    5000001    1    1    2    0    0 -0.12476264961E+03  0.32557070828E+03 -0.35419246236E+03  0.50293469279E+03  0.77000000000E+02 0.  0.
   -5000001    1    1    2    0    0  0.12476264961E+03 -0.32557070828E+03  0.12418894184E+03  0.37803954568E+03  0.77000000000E+02 0.  0.
<mgrwt>
<rscale>  0 0.85041989E+03</rscale>
<asrwt>0</asrwt>
<pdfrwt beam="1">  1        2 0.79355554E-01 0.85041989E+03</pdfrwt>
<pdfrwt beam="2">  1       -2 0.46497908E-01 0.85041989E+03</pdfrwt>
<totfact> 0.26170074E+02</totfact>
</mgrwt>
</event>
<event>
 4    1  0.6782240E-004  0.1945163E+03  0.7818608E-02  0.1154450E+00
          2   -1    0    0  501    0  0.00000000000E+00  0.00000000000E+00  0.17199623336E+04  0.17199623336E+04  0.25500000000E-02 0.  1.
         -2   -1    0    0    0  501 -0.00000000000E+00 -0.00000000000E+00 -0.54996257824E+01  0.54996263736E+01  0.25500000000E-02 0. -1.
    5000001    1    1    2    0    0  0.13040414544E+02  0.52294008595E+02  0.10790714647E+04  0.10831569331E+04  0.77000000000E+02 0.  0.
   -5000001    1    1    2    0    0 -0.13040414544E+02 -0.52294008595E+02  0.63539124310E+03  0.64230502688E+03  0.77000000000E+02 0.  0.
<mgrwt>
<rscale>  0 0.19451632E+03</rscale>
<asrwt>0</asrwt>
<pdfrwt beam="1">  1        2 0.24570939E+00 0.19451632E+03</pdfrwt>
<pdfrwt beam="2">  1       -2 0.78565933E-03 0.19451632E+03</pdfrwt>
<totfact> 0.35925663E+04</totfact>
</mgrwt>
</event>
<event>
 4    1  0.6782240E-004  0.2739043E+03  0.7818608E-02  0.1099066E+00
         -2   -1    0    0    0  501 -0.00000000000E+00  0.00000000000E+00  0.11615025406E+03  0.11615025409E+03  0.25500000000E-02 0. -1.
          2   -1    0    0  501    0  0.00000000000E+00 -0.00000000000E+00 -0.16147956427E+03  0.16147956429E+03  0.25500000000E-02 0.  1.
    5000001    1    1    2    0    0  0.33590753594E+00 -0.11235634429E+03 -0.82290519952E+01  0.13645797240E+03  0.77000000000E+02 0.  0.
   -5000001    1    1    2    0    0 -0.33590753594E+00  0.11235634429E+03 -0.37100258211E+02  0.14117184597E+03  0.77000000000E+02 0.  0.
<mgrwt>
<rscale>  0 0.27390431E+03</rscale>
<asrwt>0</asrwt>
<pdfrwt beam="1">  1        2 0.23068509E-01 0.27390431E+03</pdfrwt>
<pdfrwt beam="2">  1       -2 0.16592893E-01 0.27390431E+03</pdfrwt>
<totfact> 0.67546919E+03</totfact>
</mgrwt>
</event>
<event>
 4    1  0.6782240E-004  0.2679125E+03  0.7818608E-02  0.1102480E+00
         -2   -1    0    0    0  501 -0.00000000000E+00  0.00000000000E+00  0.10925042552E+02  0.10925042849E+02  0.25500000000E-02 0. -1.
          2   -1    0    0  501    0  0.00000000000E+00 -0.00000000000E+00 -0.16424904870E+04  0.16424904870E+04  0.25500000000E-02 0.  1.
    5000001    1    1    2    0    0  0.10400373058E+03  0.10823595122E+02 -0.61284038263E+03  0.62644733279E+03  0.77000000000E+02 0.  0.
   -5000001    1    1    2    0    0 -0.10400373058E+03 -0.10823595122E+02 -0.10187250618E+04  0.10269681970E+04  0.77000000000E+02 0.  0.
<mgrwt>
<rscale>  0 0.26791251E+03</rscale>
<asrwt>0</asrwt>
<pdfrwt beam="1">  1        2 0.23464134E+00 0.26791251E+03</pdfrwt>
<pdfrwt beam="2">  1       -2 0.15607214E-02 0.26791251E+03</pdfrwt>
<totfact> 0.14713879E+04</totfact>
</mgrwt>
</event>
<event>
 4    1  0.6782240E-004  0.3008133E+03  0.7818608E-02  0.1084835E+00
          2   -1    0    0  501    0  0.00000000000E+00  0.00000000000E+00  0.11511951415E+04  0.11511951415E+04  0.25500000000E-02 0.  1.
         -2   -1    0    0    0  501 -0.00000000000E+00 -0.00000000000E+00 -0.19651023179E+02  0.19651023344E+02  0.25500000000E-02 0. -1.
    5000001    1    1    2    0    0 -0.12374912099E+03 -0.18941088225E+02  0.69011482096E+03  0.70559200384E+03  0.77000000000E+02 0.  0.
   -5000001    1    1    2    0    0  0.12374912099E+03  0.18941088225E+02  0.44142929732E+03  0.46525416097E+03  0.77000000000E+02 0.  0.
<mgrwt>
<rscale>  0 0.30081331E+03</rscale>
<asrwt>0</asrwt>
<pdfrwt beam="1">  1        2 0.16445647E+00 0.30081331E+03</pdfrwt>
<pdfrwt beam="2">  1       -2 0.28072887E-02 0.30081331E+03</pdfrwt>
<totfact> 0.11165740E+04</totfact>
</mgrwt>
</event>
<event>
 4    1  0.6782240E-004  0.1909615E+03  0.7818608E-02  0.1157597E+00
         -2   -1    0    0    0  501 -0.00000000000E+00  0.00000000000E+00  0.22285665834E+01  0.22285680423E+01  0.25500000000E-02 0. -1.
          2   -1    0    0  501    0  0.00000000000E+00 -0.00000000000E+00 -0.40907768866E+04  0.40907768866E+04  0.25500000000E-02 0.  1.
    5000001    1    1    2    0    0  0.20667668172E+02  0.50577531997E+02 -0.23491543988E+04  0.23510509626E+04  0.77000000000E+02 0.  0.
   -5000001    1    1    2    0    0 -0.20667668172E+02 -0.50577531997E+02 -0.17393939212E+04  0.17419544921E+04  0.77000000000E+02 0.  0.
<mgrwt>
<rscale>  0 0.19096148E+03</rscale>
<asrwt>0</asrwt>
<pdfrwt beam="1">  1        2 0.58439188E+00 0.19096148E+03</pdfrwt>
<pdfrwt beam="2">  1       -2 0.31836938E-03 0.19096148E+03</pdfrwt>
<totfact> 0.70515085E+03</totfact>
</mgrwt>
</event>
<event>
 4    1  0.6782240E-004  0.2000338E+03  0.7818608E-02  0.1149710E+00
         -2   -1    0    0    0  501 -0.00000000000E+00  0.00000000000E+00  0.15387758206E+02  0.15387758418E+02  0.25500000000E-02 0. -1.
          2   -1    0    0  501    0  0.00000000000E+00 -0.00000000000E+00 -0.65008697463E+03  0.65008697464E+03  0.25500000000E-02 0.  1.
    5000001    1    1    2    0    0 -0.42391542923E+02  0.10810363592E+02 -0.47198280156E+03  0.48021939970E+03  0.77000000000E+02 0.  0.
   -5000001    1    1    2    0    0  0.42391542923E+02 -0.10810363592E+02 -0.16271641486E+03  0.18525533336E+03  0.77000000000E+02 0.  0.
<mgrwt>
<rscale>  0 0.20003381E+03</rscale>
<asrwt>0</asrwt>
<pdfrwt beam="1">  1        2 0.92869550E-01 0.20003381E+03</pdfrwt>
<pdfrwt beam="2">  1       -2 0.21982516E-02 0.20003381E+03</pdfrwt>
<totfact> 0.32670620E+04</totfact>
</mgrwt>
</event>
<event>
 4    1  0.6782240E-004  0.2635319E+03  0.7818608E-02  0.1105040E+00
         -2   -1    0    0    0  501 -0.00000000000E+00  0.00000000000E+00  0.35032614849E+02  0.35032614942E+02  0.25500000000E-02 0. -1.
          2   -1    0    0  501    0  0.00000000000E+00 -0.00000000000E+00 -0.49560284897E+03  0.49560284897E+03  0.25500000000E-02 0.  1.
    5000001    1    1    2    0    0 -0.76420052236E+02  0.57264184176E+02 -0.32714628753E+03  0.34938933100E+03  0.77000000000E+02 0.  0.
   -5000001    1    1    2    0    0  0.76420052236E+02 -0.57264184176E+02 -0.13342394659E+03  0.18124613291E+03  0.77000000000E+02 0.  0.
<mgrwt>
<rscale>  0 0.26353189E+03</rscale>
<asrwt>0</asrwt>
<pdfrwt beam="1">  1        2 0.70800403E-01 0.26353189E+03</pdfrwt>
<pdfrwt beam="2">  1       -2 0.50046596E-02 0.26353189E+03</pdfrwt>
<totfact> 0.13241555E+04</totfact>
</mgrwt>
</event>
<event>
 4    1  0.6782240E-004  0.3008573E+03  0.7818608E-02  0.1084813E+00
          2   -1    0    0  501    0  0.00000000000E+00  0.00000000000E+00  0.23146053668E+04  0.23146053668E+04  0.25500000000E-02 0.  1.
         -2   -1    0    0    0  501 -0.00000000000E+00 -0.00000000000E+00 -0.97765171002E+01  0.97765174327E+01  0.25500000000E-02 0. -1.
    5000001    1    1    2    0    0 -0.96329976520E+02  0.30280287156E+02  0.52937174764E+03  0.54438938947E+03  0.77000000000E+02 0.  0.
   -5000001    1    1    2    0    0  0.96329976520E+02 -0.30280287156E+02  0.17754571020E+04  0.17799924947E+04  0.77000000000E+02 0.  0.
<mgrwt>
<rscale>  0 0.30085730E+03</rscale>
<asrwt>0</asrwt>
<pdfrwt beam="1">  1        2 0.33065769E+00 0.30085730E+03</pdfrwt>
<pdfrwt beam="2">  1       -2 0.13966463E-02 0.30085730E+03</pdfrwt>
<totfact> 0.81219844E+03</totfact>
</mgrwt>
</event>
<event>
 4    1  0.6782240E-004  0.2036230E+03  0.7818608E-02  0.1146718E+00
         -2   -1    0    0    0  501 -0.00000000000E+00  0.00000000000E+00  0.73668934370E+02  0.73668934415E+02  0.25500000000E-02 0. -1.
          2   -1    0    0  501    0  0.00000000000E+00 -0.00000000000E+00 -0.14070493008E+03  0.14070493010E+03  0.25500000000E-02 0.  1.
    5000001    1    1    2    0    0 -0.64628713583E+02  0.10860911457E+02 -0.20983412561E+02  0.10326729211E+03  0.77000000000E+02 0.  0.
   -5000001    1    1    2    0    0  0.64628713583E+02 -0.10860911457E+02 -0.46052583146E+02  0.11110657240E+03  0.77000000000E+02 0.  0.
<mgrwt>
<rscale>  0 0.20362301E+03</rscale>
<asrwt>0</asrwt>
<pdfrwt beam="1">  1        2 0.20100704E-01 0.20362301E+03</pdfrwt>
<pdfrwt beam="2">  1       -2 0.10524133E-01 0.20362301E+03</pdfrwt>
<totfact> 0.16293263E+04</totfact>
</mgrwt>
</event>
<event>
 4    1  0.6782240E-004  0.1972918E+03  0.7818608E-02  0.1152044E+00
          2   -1    0    0  501    0  0.00000000000E+00  0.00000000000E+00  0.69187056175E+02  0.69187056222E+02  0.25500000000E-02 0.  1.
         -2   -1    0    0    0  501 -0.00000000000E+00 -0.00000000000E+00 -0.14064793518E+03  0.14064793521E+03  0.25500000000E-02 0. -1.
    5000001    1    1    2    0    0  0.13471636624E+02 -0.52634468782E+02 -0.47194850297E+01  0.94356482746E+02  0.77000000000E+02 0.  0.
   -5000001    1    1    2    0    0 -0.13471636624E+02  0.52634468782E+02 -0.66741393978E+02  0.11547850868E+03  0.77000000000E+02 0.  0.
<mgrwt>
<rscale>  0 0.19729183E+03</rscale>
<asrwt>0</asrwt>
<pdfrwt beam="1">  1        2 0.98838653E-02 0.19729183E+03</pdfrwt>
<pdfrwt beam="2">  1       -2 0.20092562E-01 0.19729183E+03</pdfrwt>
<totfact> 0.13074369E+04</totfact>
</mgrwt>
</event>
<event>
 4    1  0.6782240E-004  0.3473941E+03  0.7818608E-02  0.1063690E+00
          2   -1    0    0  501    0  0.00000000000E+00  0.00000000000E+00  0.27433383110E+04  0.27433383110E+04  0.25500000000E-02 0.  1.
         -2   -1    0    0    0  501 -0.00000000000E+00 -0.00000000000E+00 -0.10997793684E+02  0.10997793980E+02  0.25500000000E-02 0. -1.
    5000001    1    1    2    0    0  0.10958302030E+03  0.76800017416E+02  0.73511502718E+03  0.75115230426E+03  0.77000000000E+02 0.  0.
   -5000001    1    1    2    0    0 -0.10958302030E+03 -0.76800017416E+02  0.19972254902E+04  0.20031838007E+04  0.77000000000E+02 0.  0.
<mgrwt>
<rscale>  0 0.34739412E+03</rscale>
<asrwt>0</asrwt>
<pdfrwt beam="1">  1        2 0.39190557E+00 0.34739412E+03</pdfrwt>
<pdfrwt beam="2">  1       -2 0.15711130E-02 0.34739412E+03</pdfrwt>
<totfact> 0.41503114E+03</totfact>
</mgrwt>
</event>
<event>
 4    1  0.6782240E-004  0.3531922E+03  0.7818608E-02  0.1061312E+00
         -2   -1    0    0    0  501 -0.00000000000E+00  0.00000000000E+00  0.28659885809E+03  0.28659885810E+03  0.25500000000E-02 0. -1.
          2   -1    0    0  501    0  0.00000000000E+00 -0.00000000000E+00 -0.10881472798E+03  0.10881472801E+03  0.25500000000E-02 0.  1.
    5000001    1    1    2    0    0 -0.91945311012E+02  0.98122346986E+02  0.18372491179E+03  0.24034512354E+03  0.77000000000E+02 0.  0.
   -5000001    1    1    2    0    0  0.91945311012E+02 -0.98122346986E+02 -0.59407816844E+01  0.15506846256E+03  0.77000000000E+02 0.  0.
<mgrwt>
<rscale>  0 0.35319217E+03</rscale>
<asrwt>0</asrwt>
<pdfrwt beam="1">  1        2 0.15544961E-01 0.35319217E+03</pdfrwt>
<pdfrwt beam="2">  1       -2 0.40942694E-01 0.35319217E+03</pdfrwt>
<totfact> 0.21386830E+03</totfact>
</mgrwt>
</event>
<event>
 4    1  0.6782240E-004  0.2169867E+03  0.7818608E-02  0.1136150E+00
          2   -1    0    0  501    0  0.00000000000E+00  0.00000000000E+00  0.24475266488E+04  0.24475266488E+04  0.25500000000E-02 0.  1.
         -2   -1    0    0    0  501 -0.00000000000E+00 -0.00000000000E+00 -0.48092657241E+01  0.48092664001E+01  0.25500000000E-02 0. -1.
    5000001    1    1    2    0    0 -0.75635356738E+02  0.60648241564E+01  0.11175805502E+04  0.11227968540E+04  0.77000000000E+02 0.  0.
   -5000001    1    1    2    0    0  0.75635356738E+02 -0.60648241564E+01  0.13251368329E+04  0.13295390612E+04  0.77000000000E+02 0.  0.
<mgrwt>
<rscale>  0 0.21698670E+03</rscale>
<asrwt>0</asrwt>
<pdfrwt beam="1">  1        2 0.34964630E+00 0.21698670E+03</pdfrwt>
<pdfrwt beam="2">  1       -2 0.68703872E-03 0.21698670E+03</pdfrwt>
<totfact> 0.19431021E+04</totfact>
</mgrwt>
</event>
<event>
 4    1  0.6782240E-004  0.3080842E+03  0.7818608E-02  0.1081268E+00
          2   -1    0    0  501    0  0.00000000000E+00  0.00000000000E+00  0.11498355768E+04  0.11498355768E+04  0.25500000000E-02 0.  1.
         -2   -1    0    0    0  501 -0.00000000000E+00 -0.00000000000E+00 -0.20636831079E+02  0.20636831237E+02  0.25500000000E-02 0. -1.
    5000001    1    1    2    0    0  0.98691308108E+02  0.28079378802E+02  0.88856946015E+03  0.89778232959E+03  0.77000000000E+02 0.  0.
   -5000001    1    1    2    0    0 -0.98691308108E+02 -0.28079378802E+02  0.24062928555E+03  0.27269007843E+03  0.77000000000E+02 0.  0.
<mgrwt>
<rscale>  0 0.30808416E+03</rscale>
<asrwt>0</asrwt>
<pdfrwt beam="1">  1        2 0.16426232E+00 0.30808416E+03</pdfrwt>
<pdfrwt beam="2">  1       -2 0.29481171E-02 0.30808416E+03</pdfrwt>
<totfact> 0.10405079E+04</totfact>
</mgrwt>
</event>
<event>
 4    1  0.6782240E-004  0.4195991E+03  0.7818608E-02  0.1037197E+00
         -2   -1    0    0    0  501 -0.00000000000E+00  0.00000000000E+00  0.16737528869E+02  0.16737529064E+02  0.25500000000E-02 0. -1.
          2   -1    0    0  501    0  0.00000000000E+00 -0.00000000000E+00 -0.26297698086E+04  0.26297698086E+04  0.25500000000E-02 0.  1.
    5000001    1    1    2    0    0  0.10574708335E+03  0.64077130342E+02 -0.35417633958E+03  0.38295979395E+03  0.77000000000E+02 0.  0.
   -5000001    1    1    2    0    0 -0.10574708335E+03 -0.64077130342E+02 -0.22588559402E+04  0.22635475437E+04  0.77000000000E+02 0.  0.
<mgrwt>
<rscale>  0 0.41959909E+03</rscale>
<asrwt>0</asrwt>
<pdfrwt beam="1">  1        2 0.37568114E+00 0.41959909E+03</pdfrwt>
<pdfrwt beam="2">  1       -2 0.23910772E-02 0.41959909E+03</pdfrwt>
<totfact> 0.25351434E+03</totfact>
</mgrwt>
</event>
<event>
 4    1  0.6782240E-004  0.3303444E+03  0.7818608E-02  0.1070985E+00
         -2   -1    0    0    0  501 -0.00000000000E+00  0.00000000000E+00  0.32600955066E+02  0.32600955166E+02  0.25500000000E-02 0. -1.
          2   -1    0    0  501    0  0.00000000000E+00 -0.00000000000E+00 -0.83684238433E+03  0.83684238433E+03  0.25500000000E-02 0.  1.
    5000001    1    1    2    0    0  0.11024435976E+03 -0.87824831110E+02 -0.50357268604E+03  0.52856548312E+03  0.77000000000E+02 0.  0.
   -5000001    1    1    2    0    0 -0.11024435976E+03  0.87824831110E+02 -0.30066874323E+03  0.34087785638E+03  0.77000000000E+02 0.  0.
<mgrwt>
<rscale>  0 0.33034443E+03</rscale>
<asrwt>0</asrwt>
<pdfrwt beam="1">  1        2 0.11954890E+00 0.33034443E+03</pdfrwt>
<pdfrwt beam="2">  1       -2 0.46572798E-02 0.33034443E+03</pdfrwt>
<totfact> 0.80644569E+03</totfact>
</mgrwt>
</event>
<event>
 4    1  0.6782240E-004  0.1967846E+03  0.7818608E-02  0.1152481E+00
         -2   -1    0    0    0  501 -0.00000000000E+00  0.00000000000E+00  0.28929945160E+02  0.28929945272E+02  0.25500000000E-02 0. -1.
          2   -1    0    0  501    0  0.00000000000E+00 -0.00000000000E+00 -0.33463733530E+03  0.33463733531E+03  0.25500000000E-02 0.  1.
    5000001    1    1    2    0    0 -0.46335957652E+02 -0.39049042345E+02 -0.16939831833E+03  0.19569527059E+03  0.77000000000E+02 0.  0.
   -5000001    1    1    2    0    0  0.46335957652E+02  0.39049042345E+02 -0.13630907181E+03  0.16787200999E+03  0.77000000000E+02 0.  0.
<mgrwt>
<rscale>  0 0.19678455E+03</rscale>
<asrwt>0</asrwt>
<pdfrwt beam="1">  1        2 0.47805331E-01 0.19678455E+03</pdfrwt>
<pdfrwt beam="2">  1       -2 0.41328495E-02 0.19678455E+03</pdfrwt>
<totfact> 0.26523506E+04</totfact>
</mgrwt>
</event>
<event>
 4    1  0.6782240E-004  0.2368164E+03  0.7818608E-02  0.1121932E+00
          2   -1    0    0  501    0  0.00000000000E+00  0.00000000000E+00  0.21283335738E+03  0.21283335740E+03  0.25500000000E-02 0.  1.
         -2   -1    0    0    0  501 -0.00000000000E+00 -0.00000000000E+00 -0.65875485701E+02  0.65875485751E+02  0.25500000000E-02 0. -1.
    5000001    1    1    2    0    0  0.88001637785E+02 -0.11495329186E+01  0.51590803954E+02  0.12781322596E+03  0.77000000000E+02 0.  0.
   -5000001    1    1    2    0    0 -0.88001637785E+02  0.11495329186E+01  0.95367067730E+02  0.15089561719E+03  0.77000000000E+02 0.  0.
<mgrwt>
<rscale>  0 0.23681639E+03</rscale>
<asrwt>0</asrwt>
<pdfrwt beam="1">  1        2 0.30404765E-01 0.23681639E+03</pdfrwt>
<pdfrwt beam="2">  1       -2 0.94107838E-02 0.23681639E+03</pdfrwt>
<totfact> 0.12381667E+04</totfact>
</mgrwt>
</event>
<event>
 4    1  0.6782240E-004  0.2012630E+03  0.7818608E-02  0.1148678E+00
         -2   -1    0    0    0  501 -0.00000000000E+00  0.00000000000E+00  0.23628055880E+01  0.23628069640E+01  0.25500000000E-02 0. -1.
          2   -1    0    0  501    0  0.00000000000E+00 -0.00000000000E+00 -0.42858770651E+04  0.42858770651E+04  0.25500000000E-02 0.  1.
    5000001    1    1    2    0    0  0.37684259201E+02  0.32962841329E+02 -0.12655783403E+04  0.12689066899E+04  0.77000000000E+02 0.  0.
   -5000001    1    1    2    0    0 -0.37684259201E+02 -0.32962841329E+02 -0.30179359192E+04  0.30193331822E+04  0.77000000000E+02 0.  0.
<mgrwt>
<rscale>  0 0.20126298E+03</rscale>
<asrwt>0</asrwt>
<pdfrwt beam="1">  1        2 0.61226317E+00 0.20126298E+03</pdfrwt>
<pdfrwt beam="2">  1       -2 0.33754650E-03 0.20126298E+03</pdfrwt>
<totfact> 0.47760730E+03</totfact>
</mgrwt>
</event>
<event>
 4    1  0.6782240E-004  0.2264246E+03  0.7818608E-02  0.1129182E+00
         -2   -1    0    0    0  501 -0.00000000000E+00  0.00000000000E+00  0.79207400839E+01  0.79207404944E+01  0.25500000000E-02 0. -1.
          2   -1    0    0  501    0  0.00000000000E+00 -0.00000000000E+00 -0.16181593153E+04  0.16181593153E+04  0.25500000000E-02 0.  1.
    5000001    1    1    2    0    0  0.47576563748E+02 -0.67939392373E+02 -0.82633738474E+03  0.83405141560E+03  0.77000000000E+02 0.  0.
   -5000001    1    1    2    0    0 -0.47576563748E+02  0.67939392373E+02 -0.78390119052E+03  0.79202864023E+03  0.77000000000E+02 0.  0.
<mgrwt>
<rscale>  0 0.22642455E+03</rscale>
<asrwt>0</asrwt>
<pdfrwt beam="1">  1        2 0.23116541E+00 0.22642455E+03</pdfrwt>
<pdfrwt beam="2">  1       -2 0.11315354E-02 0.22642455E+03</pdfrwt>
<totfact> 0.24003501E+04</totfact>
</mgrwt>
</event>
<event>
 4    1  0.6782240E-004  0.3039974E+03  0.7818608E-02  0.1083259E+00
          2   -1    0    0  501    0  0.00000000000E+00  0.00000000000E+00  0.72725070241E+03  0.72725070242E+03  0.25500000000E-02 0.  1.
         -2   -1    0    0    0  501 -0.00000000000E+00 -0.00000000000E+00 -0.31768408265E+02  0.31768408367E+02  0.25500000000E-02 0. -1.
    5000001    1    1    2    0    0 -0.63133623004E+02 -0.11016680715E+03  0.42872424708E+03  0.45371363192E+03  0.77000000000E+02 0.  0.
   -5000001    1    1    2    0    0  0.63133623004E+02  0.11016680715E+03  0.26675804707E+03  0.30530547887E+03  0.77000000000E+02 0.  0.
<mgrwt>
<rscale>  0 0.30399735E+03</rscale>
<asrwt>0</asrwt>
<pdfrwt beam="1">  1        2 0.10389295E+00 0.30399735E+03</pdfrwt>
<pdfrwt beam="2">  1       -2 0.45383443E-02 0.30399735E+03</pdfrwt>
<totfact> 0.99505891E+03</totfact>
</mgrwt>
</event>
<event>
 4    1  0.6782240E-004  0.3469240E+03  0.7818608E-02  0.1063885E+00
          2   -1    0    0  501    0  0.00000000000E+00  0.00000000000E+00  0.19382809903E+04  0.19382809903E+04  0.25500000000E-02 0.  1.
         -2   -1    0    0    0  501 -0.00000000000E+00 -0.00000000000E+00 -0.15523586836E+02  0.15523587045E+02  0.25500000000E-02 0. -1.
    5000001    1    1    2    0    0  0.10824738011E+03  0.11152742114E+03  0.94981979041E+03  0.96552705567E+03  0.77000000000E+02 0.  0.
   -5000001    1    1    2    0    0 -0.10824738011E+03 -0.11152742114E+03  0.97293761305E+03  0.98827752168E+03  0.77000000000E+02 0.  0.
<mgrwt>
<rscale>  0 0.34692405E+03</rscale>
<asrwt>0</asrwt>
<pdfrwt beam="1">  1        2 0.27689692E+00 0.34692405E+03</pdfrwt>
<pdfrwt beam="2">  1       -2 0.22176582E-02 0.34692405E+03</pdfrwt>
<totfact> 0.62939318E+03</totfact>
</mgrwt>
</event>
<event>
 4    1  0.6782240E-004  0.7753073E+03  0.7818608E-02  0.9596463E-01
          2   -1    0    0  501    0  0.00000000000E+00  0.00000000000E+00  0.15569772651E+04  0.15569772651E+04  0.25500000000E-02 0.  1.
         -2   -1    0    0    0  501 -0.00000000000E+00 -0.00000000000E+00 -0.96517363516E+02  0.96517363550E+02  0.25500000000E-02 0. -1.
    5000001    1    1    2    0    0 -0.11524126390E+03  0.35083366780E+03  0.53969616816E+03  0.65845710968E+03  0.77000000000E+02 0.  0.
   -5000001    1    1    2    0    0  0.11524126390E+03 -0.35083366780E+03  0.92076373338E+03  0.99503751893E+03  0.77000000000E+02 0.  0.
<mgrwt>
<rscale>  0 0.77530727E+03</rscale>
<asrwt>0</asrwt>
<pdfrwt beam="1">  1        2 0.22242530E+00 0.77530727E+03</pdfrwt>
<pdfrwt beam="2">  1       -2 0.13788196E-01 0.77530727E+03</pdfrwt>
<totfact> 0.55575297E+02</totfact>
</mgrwt>
</event>
<event>
 4    1  0.6782240E-004  0.2129411E+03  0.7818608E-02  0.1139258E+00
         -2   -1    0    0    0  501 -0.00000000000E+00  0.00000000000E+00  0.47598557875E+02  0.47598557944E+02  0.25500000000E-02 0. -1.
          2   -1    0    0  501    0  0.00000000000E+00 -0.00000000000E+00 -0.23815803571E+03  0.23815803572E+03  0.25500000000E-02 0.  1.
    5000001    1    1    2    0    0  0.20502447653E+02  0.58073037557E+02 -0.41364835959E+02  0.10692463563E+03  0.77000000000E+02 0.  0.
   -5000001    1    1    2    0    0 -0.20502447653E+02 -0.58073037557E+02 -0.14919464188E+03  0.17883195804E+03  0.77000000000E+02 0.  0.
<mgrwt>
<rscale>  0 0.21294111E+03</rscale>
<asrwt>0</asrwt>
<pdfrwt beam="1">  1        2 0.34022576E-01 0.21294111E+03</pdfrwt>
<pdfrwt beam="2">  1       -2 0.67997941E-02 0.21294111E+03</pdfrwt>
<totfact> 0.18053888E+04</totfact>
</mgrwt>
</event>
<event>
 4    1  0.6782240E-004  0.3580209E+03  0.7818608E-02  0.1059370E+00
         -2   -1    0    0    0  501 -0.00000000000E+00  0.00000000000E+00  0.11354397270E+02  0.11354397556E+02  0.25500000000E-02 0. -1.
          2   -1    0    0  501    0  0.00000000000E+00 -0.00000000000E+00 -0.28222317155E+04  0.28222317155E+04  0.25500000000E-02 0.  1.
    5000001    1    1    2    0    0 -0.14693493861E+03 -0.62255033012E+02 -0.12036284039E+04  0.12166001397E+04  0.77000000000E+02 0.  0.
   -5000001    1    1    2    0    0  0.14693493861E+03  0.62255033012E+02 -0.16072489144E+04  0.16169859734E+04  0.77000000000E+02 0.  0.
<mgrwt>
<rscale>  0 0.35802090E+03</rscale>
<asrwt>0</asrwt>
<pdfrwt beam="1">  1        2 0.40317551E+00 0.35802090E+03</pdfrwt>
<pdfrwt beam="2">  1       -2 0.16220586E-02 0.35802090E+03</pdfrwt>
<totfact> 0.36012749E+03</totfact>
</mgrwt>
</event>
<event>
 4    1  0.6782240E-004  0.2766042E+03  0.7818608E-02  0.1097558E+00
          2   -1    0    0  501    0  0.00000000000E+00  0.00000000000E+00  0.30018048232E+04  0.30018048232E+04  0.25500000000E-02 0.  1.
         -2   -1    0    0    0  501 -0.00000000000E+00 -0.00000000000E+00 -0.63719880814E+01  0.63719885916E+01  0.25500000000E-02 0. -1.
    5000001    1    1    2    0    0 -0.72065194771E+02 -0.82823663642E+02  0.18657664774E+04  0.18705792418E+04  0.77000000000E+02 0.  0.
   -5000001    1    1    2    0    0  0.72065194771E+02  0.82823663642E+02  0.11296663577E+04  0.11375975700E+04  0.77000000000E+02 0.  0.
<mgrwt>
<rscale>  0 0.27660416E+03</rscale>
<asrwt>0</asrwt>
<pdfrwt beam="1">  1        2 0.42883019E+00 0.27660416E+03</pdfrwt>
<pdfrwt beam="2">  1       -2 0.91028208E-03 0.27660416E+03</pdfrwt>
<totfact> 0.67706064E+03</totfact>
</mgrwt>
</event>
<event>
 4    1  0.6782240E-004  0.2022978E+03  0.7818608E-02  0.1147815E+00
          2   -1    0    0  501    0  0.00000000000E+00  0.00000000000E+00  0.27599789326E+04  0.27599789326E+04  0.25500000000E-02 0.  1.
         -2   -1    0    0    0  501 -0.00000000000E+00 -0.00000000000E+00 -0.37069483287E+01  0.37069492058E+01  0.25500000000E-02 0. -1.
    5000001    1    1    2    0    0 -0.35589961048E+02 -0.34595143783E+01  0.62694294911E+03  0.63266505752E+03  0.77000000000E+02 0.  0.
   -5000001    1    1    2    0    0  0.35589961048E+02  0.34595143783E+01  0.21293290352E+04  0.21310208243E+04  0.77000000000E+02 0.  0.
<mgrwt>
<rscale>  0 0.20229781E+03</rscale>
<asrwt>0</asrwt>
<pdfrwt beam="1">  1        2 0.39428000E+00 0.20229781E+03</pdfrwt>
<pdfrwt beam="2">  1       -2 0.52956775E-03 0.20229781E+03</pdfrwt>
<totfact> 0.19661237E+04</totfact>
</mgrwt>
</event>
<event>
 4    1  0.6782240E-004  0.5239406E+03  0.7818608E-02  0.1007712E+00
          2   -1    0    0  501    0  0.00000000000E+00  0.00000000000E+00  0.32305632174E+03  0.32305632175E+03  0.25500000000E-02 0.  1.
         -2   -1    0    0    0  501 -0.00000000000E+00 -0.00000000000E+00 -0.21243493553E+03  0.21243493554E+03  0.25500000000E-02 0. -1.
    5000001    1    1    2    0    0 -0.24326249034E+03  0.28533860950E+02  0.10850253342E+03  0.27873395951E+03  0.77000000000E+02 0.  0.
   -5000001    1    1    2    0    0  0.24326249034E+03 -0.28533860950E+02  0.21188527851E+01  0.25675729778E+03  0.77000000000E+02 0.  0.
<mgrwt>
<rscale>  0 0.52394064E+03</rscale>
<asrwt>0</asrwt>
<pdfrwt beam="1">  1        2 0.46150903E-01 0.52394064E+03</pdfrwt>
<pdfrwt beam="2">  1       -2 0.30347848E-01 0.52394064E+03</pdfrwt>
<totfact> 0.11022892E+03</totfact>
</mgrwt>
</event>
<event>
 4    1  0.6782240E-004  0.5475867E+03  0.7818608E-02  0.1002054E+00
         -2   -1    0    0    0  501 -0.00000000000E+00  0.00000000000E+00  0.48343706840E+02  0.48343706907E+02  0.25500000000E-02 0. -1.
          2   -1    0    0  501    0  0.00000000000E+00 -0.00000000000E+00 -0.15506218395E+04  0.15506218395E+04  0.25500000000E-02 0.  1.
    5000001    1    1    2    0    0  0.12856728529E+03  0.22425023061E+03 -0.88860034067E+03  0.92863193905E+03  0.77000000000E+02 0.  0.
   -5000001    1    1    2    0    0 -0.12856728529E+03 -0.22425023061E+03 -0.61367779197E+03  0.67033360734E+03  0.77000000000E+02 0.  0.
<mgrwt>
<rscale>  0 0.54758673E+03</rscale>
<asrwt>0</asrwt>
<pdfrwt beam="1">  1        2 0.22151737E+00 0.54758673E+03</pdfrwt>
<pdfrwt beam="2">  1       -2 0.69062448E-02 0.54758673E+03</pdfrwt>
<totfact> 0.17359887E+03</totfact>
</mgrwt>
</event>
<event>
 4    1  0.6782240E-004  0.1958016E+03  0.7818608E-02  0.1153330E+00
         -2   -1    0    0    0  501 -0.00000000000E+00  0.00000000000E+00  0.89662100084E+01  0.89662103710E+01  0.25500000000E-02 0. -1.
          2   -1    0    0  501    0  0.00000000000E+00 -0.00000000000E+00 -0.10689649542E+04  0.10689649542E+04  0.25500000000E-02 0.  1.
    5000001    1    1    2    0    0 -0.15406959334E+01 -0.34114940731E+02 -0.80467417983E+03  0.80907091074E+03  0.77000000000E+02 0.  0.
   -5000001    1    1    2    0    0  0.15406959334E+01  0.34114940731E+02 -0.25532456441E+03  0.26886025388E+03  0.77000000000E+02 0.  0.
<mgrwt>
<rscale>  0 0.19580158E+03</rscale>
<asrwt>0</asrwt>
<pdfrwt beam="1">  1        2 0.15270920E+00 0.19580158E+03</pdfrwt>
<pdfrwt beam="2">  1       -2 0.12808878E-02 0.19580158E+03</pdfrwt>
<totfact> 0.38395842E+04</totfact>
</mgrwt>
</event>
<event>
 4    1  0.6782240E-004  0.1992920E+03  0.7818608E-02  0.1150338E+00
         -2   -1    0    0    0  501 -0.00000000000E+00  0.00000000000E+00  0.12906073255E+03  0.12906073258E+03  0.25500000000E-02 0. -1.
          2   -1    0    0  501    0  0.00000000000E+00 -0.00000000000E+00 -0.76935264475E+02  0.76935264517E+02  0.25500000000E-02 0.  1.
    5000001    1    1    2    0    0  0.38268903683E+02  0.49680576092E+02  0.17560903806E+02  0.10084668548E+03  0.77000000000E+02 0.  0.
   -5000001    1    1    2    0    0 -0.38268903683E+02 -0.49680576092E+02  0.34564564273E+02  0.10514931162E+03  0.77000000000E+02 0.  0.
<mgrwt>
<rscale>  0 0.19929196E+03</rscale>
<asrwt>0</asrwt>
<pdfrwt beam="1">  1        2 0.10990752E-01 0.19929196E+03</pdfrwt>
<pdfrwt beam="2">  1       -2 0.18437247E-01 0.19929196E+03</pdfrwt>
<totfact> 0.13282142E+04</totfact>
</mgrwt>
</event>
<event>
 4    1  0.6782240E-004  0.2794422E+03  0.7818608E-02  0.1095994E+00
          2   -1    0    0  501    0  0.00000000000E+00  0.00000000000E+00  0.91734734812E+03  0.91734734813E+03  0.25500000000E-02 0.  1.
         -2   -1    0    0    0  501 -0.00000000000E+00 -0.00000000000E+00 -0.21280903759E+02  0.21280903912E+02  0.25500000000E-02 0. -1.
    5000001    1    1    2    0    0  0.82647293864E+02 -0.82190711621E+02  0.45697861883E+03  0.47785389643E+03  0.77000000000E+02 0.  0.
   -5000001    1    1    2    0    0 -0.82647293864E+02  0.82190711621E+02  0.43908782553E+03  0.46077435561E+03  0.77000000000E+02 0.  0.
<mgrwt>
<rscale>  0 0.27944216E+03</rscale>
<asrwt>0</asrwt>
<pdfrwt beam="1">  1        2 0.13104961E+00 0.27944216E+03</pdfrwt>
<pdfrwt beam="2">  1       -2 0.30401293E-02 0.27944216E+03</pdfrwt>
<totfact> 0.13542113E+04</totfact>
</mgrwt>
</event>
<event>
 4    1  0.6782240E-004  0.2585427E+03  0.7818608E-02  0.1108022E+00
          2   -1    0    0  501    0  0.00000000000E+00  0.00000000000E+00  0.81929821604E+03  0.81929821605E+03  0.25500000000E-02 0.  1.
         -2   -1    0    0    0  501 -0.00000000000E+00 -0.00000000000E+00 -0.20396827787E+02  0.20396827946E+02  0.25500000000E-02 0. -1.
    5000001    1    1    2    0    0 -0.73974206537E+02  0.63859480163E+02  0.28545947334E+03  0.31139416719E+03  0.77000000000E+02 0.  0.
   -5000001    1    1    2    0    0  0.73974206537E+02 -0.63859480163E+02  0.51344191492E+03  0.52830087680E+03  0.77000000000E+02 0.  0.
<mgrwt>
<rscale>  0 0.25854272E+03</rscale>
<asrwt>0</asrwt>
<pdfrwt beam="1">  1        2 0.11704260E+00 0.25854272E+03</pdfrwt>
<pdfrwt beam="2">  1       -2 0.29138325E-02 0.25854272E+03</pdfrwt>
<totfact> 0.16607141E+04</totfact>
</mgrwt>
</event>
<event>
 4    1  0.6782240E-004  0.2500420E+03  0.7818608E-02  0.1113278E+00
         -2   -1    0    0    0  501 -0.00000000000E+00  0.00000000000E+00  0.21491622117E+02  0.21491622268E+02  0.25500000000E-02 0. -1.
          2   -1    0    0  501    0  0.00000000000E+00 -0.00000000000E+00 -0.72727176640E+03  0.72727176640E+03  0.25500000000E-02 0.  1.
    5000001    1    1    2    0    0  0.74087636749E+02  0.16448941411E+01 -0.15860012639E+03  0.19124508801E+03  0.77000000000E+02 0.  0.
   -5000001    1    1    2    0    0 -0.74087636749E+02 -0.16448941411E+01 -0.54718001789E+03  0.55751830066E+03  0.77000000000E+02 0.  0.
<mgrwt>
<rscale>  0 0.25004200E+03</rscale>
<asrwt>0</asrwt>
<pdfrwt beam="1">  1        2 0.10389595E+00 0.25004200E+03</pdfrwt>
<pdfrwt beam="2">  1       -2 0.30702322E-02 0.25004200E+03</pdfrwt>
<totfact> 0.17742231E+04</totfact>
</mgrwt>
</event>
<event>
 4    1  0.6782240E-004  0.4022937E+03  0.7818608E-02  0.1042988E+00
          2   -1    0    0  501    0  0.00000000000E+00  0.00000000000E+00  0.52814524654E+03  0.52814524655E+03  0.25500000000E-02 0.  1.
         -2   -1    0    0    0  501 -0.00000000000E+00 -0.00000000000E+00 -0.76607801165E+02  0.76607801207E+02  0.25500000000E-02 0. -1.
    5000001    1    1    2    0    0  0.41776602436E+02  0.18084316734E+03  0.21219680259E+03  0.29224308155E+03  0.77000000000E+02 0.  0.
   -5000001    1    1    2    0    0 -0.41776602436E+02 -0.18084316734E+03  0.23934064279E+03  0.31250996620E+03  0.77000000000E+02 0.  0.
<mgrwt>
<rscale>  0 0.40229365E+03</rscale>
<asrwt>0</asrwt>
<pdfrwt beam="1">  1        2 0.75449323E-01 0.40229365E+03</pdfrwt>
<pdfrwt beam="2">  1       -2 0.10943971E-01 0.40229365E+03</pdfrwt>
<totfact> 0.36778723E+03</totfact>
</mgrwt>
</event>
<event>
 4    1  0.6782240E-004  0.4609907E+03  0.7818608E-02  0.1024494E+00
          2   -1    0    0  501    0  0.00000000000E+00  0.00000000000E+00  0.80395862816E+03  0.80395862816E+03  0.25500000000E-02 0.  1.
         -2   -1    0    0    0  501 -0.00000000000E+00 -0.00000000000E+00 -0.66083131071E+02  0.66083131120E+02  0.25500000000E-02 0. -1.
    5000001    1    1    2    0    0 -0.14881864088E+03  0.50148293835E+02  0.65227165116E+03  0.67531410925E+03  0.77000000000E+02 0.  0.
   -5000001    1    1    2    0    0  0.14881864088E+03 -0.50148293835E+02  0.85603845929E+02  0.19472765003E+03  0.77000000000E+02 0.  0.
<mgrwt>
<rscale>  0 0.46099069E+03</rscale>
<asrwt>0</asrwt>
<pdfrwt beam="1">  1        2 0.11485123E+00 0.46099069E+03</pdfrwt>
<pdfrwt beam="2">  1       -2 0.94404474E-02 0.46099069E+03</pdfrwt>
<totfact> 0.28344475E+03</totfact>
</mgrwt>
</event>
<event>
 4    1  0.6782240E-004  0.2010400E+03  0.7818608E-02  0.1148865E+00
         -2   -1    0    0    0  501 -0.00000000000E+00  0.00000000000E+00  0.36719482274E+01  0.36719491128E+01  0.25500000000E-02 0. -1.
          2   -1    0    0  501    0  0.00000000000E+00 -0.00000000000E+00 -0.27517466218E+04  0.27517466218E+04  0.25500000000E-02 0.  1.
    5000001    1    1    2    0    0 -0.85132422343E+01 -0.58305189891E+02 -0.17375135174E+04  0.17402167088E+04  0.77000000000E+02 0.  0.
   -5000001    1    1    2    0    0  0.85132422343E+01  0.58305189891E+02 -0.10105611562E+04  0.10152018621E+04  0.77000000000E+02 0.  0.
<mgrwt>
<rscale>  0 0.20104002E+03</rscale>
<asrwt>0</asrwt>
<pdfrwt beam="1">  1        2 0.39310534E+00 0.20104002E+03</pdfrwt>
<pdfrwt beam="2">  1       -2 0.52456586E-03 0.20104002E+03</pdfrwt>
<totfact> 0.20118580E+04</totfact>
</mgrwt>
</event>
<event>
 4    1  0.6782240E-004  0.2236817E+03  0.7818608E-02  0.1131168E+00
         -2   -1    0    0    0  501 -0.00000000000E+00  0.00000000000E+00  0.25659313798E+02  0.25659313925E+02  0.25500000000E-02 0. -1.
          2   -1    0    0  501    0  0.00000000000E+00 -0.00000000000E+00 -0.48747906546E+03  0.48747906547E+03  0.25500000000E-02 0.  1.
    5000001    1    1    2    0    0  0.62897996307E+02  0.47085996698E+02 -0.27714118270E+03  0.29817693434E+03  0.77000000000E+02 0.  0.
   -5000001    1    1    2    0    0 -0.62897996307E+02 -0.47085996698E+02 -0.18467856896E+03  0.21496144505E+03  0.77000000000E+02 0.  0.
<mgrwt>
<rscale>  0 0.22368172E+03</rscale>
<asrwt>0</asrwt>
<pdfrwt beam="1">  1        2 0.69639861E-01 0.22368172E+03</pdfrwt>
<pdfrwt beam="2">  1       -2 0.36656166E-02 0.22368172E+03</pdfrwt>
<totfact> 0.21351582E+04</totfact>
</mgrwt>
</event>
<event>
 4    1  0.6782240E-004  0.4959207E+03  0.7818608E-02  0.1014849E+00
          2   -1    0    0  501    0  0.00000000000E+00  0.00000000000E+00  0.18108348225E+04  0.18108348225E+04  0.25500000000E-02 0.  1.
         -2   -1    0    0    0  501 -0.00000000000E+00 -0.00000000000E+00 -0.33953590041E+02  0.33953590137E+02  0.25500000000E-02 0. -1.
    5000001    1    1    2    0    0  0.11882361186E+03 -0.20353147828E+03  0.90090647562E+03  0.93440119392E+03  0.77000000000E+02 0.  0.
   -5000001    1    1    2    0    0 -0.11882361186E+03  0.20353147828E+03  0.87597475684E+03  0.91038721872E+03  0.77000000000E+02 0.  0.
<mgrwt>
<rscale>  0 0.49592073E+03</rscale>
<asrwt>0</asrwt>
<pdfrwt beam="1">  1        2 0.25869072E+00 0.49592073E+03</pdfrwt>
<pdfrwt beam="2">  1       -2 0.48505123E-02 0.49592073E+03</pdfrwt>
<totfact> 0.22251038E+03</totfact>
</mgrwt>
</event>
<event>
 4    1  0.6782240E-004  0.4172663E+03  0.7818608E-02  0.1037960E+00
          2   -1    0    0  501    0  0.00000000000E+00  0.00000000000E+00  0.10966898403E+03  0.10966898406E+03  0.25500000000E-02 0.  1.
         -2   -1    0    0    0  501 -0.00000000000E+00 -0.00000000000E+00 -0.39690153979E+03  0.39690153979E+03  0.25500000000E-02 0. -1.
    5000001    1    1    2    0    0 -0.61946492619E+02  0.77804144643E+02 -0.34569877696E+03  0.36786885878E+03  0.77000000000E+02 0.  0.
   -5000001    1    1    2    0    0  0.61946492619E+02 -0.77804144643E+02  0.58466221208E+02  0.13870166507E+03  0.77000000000E+02 0.  0.
<mgrwt>
<rscale>  0 0.41726629E+03</rscale>
<asrwt>0</asrwt>
<pdfrwt beam="1">  1        2 0.15666998E-01 0.41726629E+03</pdfrwt>
<pdfrwt beam="2">  1       -2 0.56700219E-01 0.41726629E+03</pdfrwt>
<totfact> 0.11090843E+03</totfact>
</mgrwt>
</event>
<event>
 4    1  0.6782240E-004  0.2629054E+03  0.7818608E-02  0.1105410E+00
          2   -1    0    0  501    0  0.00000000000E+00  0.00000000000E+00  0.27826258382E+03  0.27826258383E+03  0.25500000000E-02 0.  1.
         -2   -1    0    0    0  501 -0.00000000000E+00 -0.00000000000E+00 -0.62098951523E+02  0.62098951575E+02  0.25500000000E-02 0. -1.
    5000001    1    1    2    0    0 -0.84779144528E+02 -0.44275382044E+02  0.16884609874E+03  0.20877216736E+03  0.77000000000E+02 0.  0.
   -5000001    1    1    2    0    0  0.84779144528E+02  0.44275382044E+02  0.47317533554E+02  0.13158936805E+03  0.77000000000E+02 0.  0.
<mgrwt>
<rscale>  0 0.26290542E+03</rscale>
<asrwt>0</asrwt>
<pdfrwt beam="1">  1        2 0.39751799E-01 0.26290542E+03</pdfrwt>
<pdfrwt beam="2">  1       -2 0.88712786E-02 0.26290542E+03</pdfrwt>
<totfact> 0.10214200E+04</totfact>
</mgrwt>
</event>
<event>
 4    1  0.6782240E-004  0.3899325E+03  0.7818608E-02  0.1047323E+00
          2   -1    0    0  501    0  0.00000000000E+00  0.00000000000E+00  0.76919084444E+03  0.76919084445E+03  0.25500000000E-02 0.  1.
         -2   -1    0    0    0  501 -0.00000000000E+00 -0.00000000000E+00 -0.49417960080E+02  0.49417960145E+02  0.25500000000E-02 0. -1.
    5000001    1    1    2    0    0  0.10254763415E+03 -0.14609220734E+03  0.39129922373E+03  0.43692451614E+03  0.77000000000E+02 0.  0.
   -5000001    1    1    2    0    0 -0.10254763415E+03  0.14609220734E+03  0.32847366064E+03  0.38168428845E+03  0.77000000000E+02 0.  0.
<mgrwt>
<rscale>  0 0.38993252E+03</rscale>
<asrwt>0</asrwt>
<pdfrwt beam="1">  1        2 0.10988440E+00 0.38993252E+03</pdfrwt>
<pdfrwt beam="2">  1       -2 0.70597088E-02 0.38993252E+03</pdfrwt>
<totfact> 0.47365288E+03</totfact>
</mgrwt>
</event>
<event>
 4    1  0.6782240E-004  0.2062057E+03  0.7818608E-02  0.1144606E+00
         -2   -1    0    0    0  501 -0.00000000000E+00  0.00000000000E+00  0.88507087904E+03  0.88507087905E+03  0.25500000000E-02 0. -1.
          2   -1    0    0  501    0  0.00000000000E+00 -0.00000000000E+00 -0.12010558845E+02  0.12010559116E+02  0.25500000000E-02 0.  1.
    5000001    1    1    2    0    0  0.43845240513E+02 -0.50770365858E+02  0.37482763300E+03  0.38849039837E+03  0.77000000000E+02 0.  0.
   -5000001    1    1    2    0    0 -0.43845240513E+02  0.50770365858E+02  0.49823268720E+03  0.50859103980E+03  0.77000000000E+02 0.  0.
<mgrwt>
<rscale>  0 0.20620568E+03</rscale>
<asrwt>0</asrwt>
<pdfrwt beam="1">  1        2 0.17157934E-02 0.20620568E+03</pdfrwt>
<pdfrwt beam="2">  1       -2 0.12643875E+00 0.20620568E+03</pdfrwt>
<totfact> 0.32515931E+03</totfact>
</mgrwt>
</event>
<event>
 4    1  0.6782240E-004  0.3818613E+03  0.7818608E-02  0.1050248E+00
          2   -1    0    0  501    0  0.00000000000E+00  0.00000000000E+00  0.68561706209E+03  0.68561706209E+03  0.25500000000E-02 0.  1.
         -2   -1    0    0    0  501 -0.00000000000E+00 -0.00000000000E+00 -0.53170359867E+02  0.53170359928E+02  0.25500000000E-02 0. -1.
    5000001    1    1    2    0    0  0.14956052786E+03  0.33328874801E+02  0.47862697034E+03  0.50842102841E+03  0.77000000000E+02 0.  0.
   -5000001    1    1    2    0    0 -0.14956052786E+03 -0.33328874801E+02  0.15381973188E+03  0.23036639361E+03  0.77000000000E+02 0.  0.
<mgrwt>
<rscale>  0 0.38186126E+03</rscale>
<asrwt>0</asrwt>
<pdfrwt beam="1">  1        2 0.97945299E-01 0.38186126E+03</pdfrwt>
<pdfrwt beam="2">  1       -2 0.75957654E-02 0.38186126E+03</pdfrwt>
<totfact> 0.48558637E+03</totfact>
</mgrwt>
</event>
<event>
 4    1  0.6782240E-004  0.2010387E+03  0.7818608E-02  0.1148866E+00
         -2   -1    0    0    0  501 -0.00000000000E+00  0.00000000000E+00  0.46025044408E+01  0.46025051472E+01  0.25500000000E-02 0. -1.
          2   -1    0    0  501    0  0.00000000000E+00 -0.00000000000E+00 -0.21953559527E+04  0.21953559527E+04  0.25500000000E-02 0.  1.
    5000001    1    1    2    0    0  0.51784228216E+02  0.37852996704E+02 -0.10101334752E+04  0.10150926526E+04  0.77000000000E+02 0.  0.
   -5000001    1    1    2    0    0 -0.51784228216E+02 -0.37852996704E+02 -0.11806199731E+04  0.11848658053E+04  0.77000000000E+02 0.  0.
<mgrwt>
<rscale>  0 0.20103867E+03</rscale>
<asrwt>0</asrwt>
<pdfrwt beam="1">  1        2 0.31362161E+00 0.20103867E+03</pdfrwt>
<pdfrwt beam="2">  1       -2 0.65750209E-03 0.20103867E+03</pdfrwt>
<totfact> 0.27394456E+04</totfact>
</mgrwt>
</event>
<event>
 4    1  0.6782240E-004  0.3371251E+03  0.7818608E-02  0.1068027E+00
         -2   -1    0    0    0  501 -0.00000000000E+00  0.00000000000E+00  0.16224432518E+02  0.16224432719E+02  0.25500000000E-02 0. -1.
          2   -1    0    0  501    0  0.00000000000E+00 -0.00000000000E+00 -0.17512677541E+04  0.17512677541E+04  0.25500000000E-02 0.  1.
    5000001    1    1    2    0    0  0.62205011972E+02 -0.13512546169E+03 -0.96643941521E+03  0.98084784609E+03  0.77000000000E+02 0.  0.
   -5000001    1    1    2    0    0 -0.62205011972E+02  0.13512546169E+03 -0.76860390633E+03  0.78664434069E+03  0.77000000000E+02 0.  0.
<mgrwt>
<rscale>  0 0.33712505E+03</rscale>
<asrwt>0</asrwt>
<pdfrwt beam="1">  1        2 0.25018099E+00 0.33712505E+03</pdfrwt>
<pdfrwt beam="2">  1       -2 0.23177772E-02 0.33712505E+03</pdfrwt>
<totfact> 0.72882617E+03</totfact>
</mgrwt>
</event>
<event>
 4    1  0.6782240E-004  0.3408759E+03  0.7818608E-02  0.1066423E+00
          2   -1    0    0  501    0  0.00000000000E+00  0.00000000000E+00  0.23198324830E+03  0.23198324831E+03  0.25500000000E-02 0.  1.
         -2   -1    0    0    0  501 -0.00000000000E+00 -0.00000000000E+00 -0.12522063884E+03  0.12522063886E+03  0.25500000000E-02 0. -1.
    5000001    1    1    2    0    0  0.73460937290E+02  0.47494390916E+02  0.18370851051E+03  0.21755469039E+03  0.77000000000E+02 0.  0.
   -5000001    1    1    2    0    0 -0.73460937290E+02 -0.47494390916E+02 -0.76945901044E+02  0.13964919679E+03  0.77000000000E+02 0.  0.
<mgrwt>
<rscale>  0 0.34087588E+03</rscale>
<asrwt>0</asrwt>
<pdfrwt beam="1">  1        2 0.33140464E-01 0.34087588E+03</pdfrwt>
<pdfrwt beam="2">  1       -2 0.17888663E-01 0.34087588E+03</pdfrwt>
<totfact> 0.40089274E+03</totfact>
</mgrwt>
</event>
<event>
 4    1  0.6782240E-004  0.3648424E+03  0.7818608E-02  0.1056683E+00
          2   -1    0    0  501    0  0.00000000000E+00  0.00000000000E+00  0.11684962232E+04  0.11684962232E+04  0.25500000000E-02 0.  1.
         -2   -1    0    0    0  501 -0.00000000000E+00 -0.00000000000E+00 -0.28478913017E+02  0.28478913131E+02  0.25500000000E-02 0. -1.
    5000001    1    1    2    0    0  0.11528420680E+03  0.92092987131E+02  0.32500216266E+03  0.36513966143E+03  0.77000000000E+02 0.  0.
   -5000001    1    1    2    0    0 -0.11528420680E+03 -0.92092987131E+02  0.81501514750E+03  0.83183547489E+03  0.77000000000E+02 0.  0.
<mgrwt>
<rscale>  0 0.36484244E+03</rscale>
<asrwt>0</asrwt>
<pdfrwt beam="1">  1        2 0.16692806E+00 0.36484244E+03</pdfrwt>
<pdfrwt beam="2">  1       -2 0.40684155E-02 0.36484244E+03</pdfrwt>
<totfact> 0.62804833E+03</totfact>
</mgrwt>
</event>
<event>
 4    1  0.6782240E-004  0.2093698E+03  0.7818608E-02  0.1142066E+00
         -2   -1    0    0    0  501 -0.00000000000E+00  0.00000000000E+00  0.15338413915E+02  0.15338414127E+02  0.25500000000E-02 0. -1.
          2   -1    0    0  501    0  0.00000000000E+00 -0.00000000000E+00 -0.71447611778E+03  0.71447611778E+03  0.25500000000E-02 0.  1.
    5000001    1    1    2    0    0 -0.57650114535E+02 -0.23018185182E+02 -0.46913413216E+03  0.47944677131E+03  0.77000000000E+02 0.  0.
   -5000001    1    1    2    0    0  0.57650114535E+02  0.23018185182E+02 -0.23000357170E+03  0.25036776060E+03  0.77000000000E+02 0.  0.
<mgrwt>
<rscale>  0 0.20936982E+03</rscale>
<asrwt>0</asrwt>
<pdfrwt beam="1">  1        2 0.10206800E+00 0.20936982E+03</pdfrwt>
<pdfrwt beam="2">  1       -2 0.21912025E-02 0.20936982E+03</pdfrwt>
<totfact> 0.29494788E+04</totfact>
</mgrwt>
</event>
<event>
 4    1  0.6782240E-004  0.1568032E+03  0.7818608E-02  0.1192354E+00
          2   -1    0    0  501    0  0.00000000000E+00  0.00000000000E+00  0.22647171512E+04  0.22647171512E+04  0.25500000000E-02 0.  1.
         -2   -1    0    0    0  501 -0.00000000000E+00 -0.00000000000E+00 -0.27141637487E+01  0.27141649466E+01  0.25500000000E-02 0. -1.
    5000001    1    1    2    0    0  0.13227459390E+02  0.23201335154E+01  0.12195124211E+04  0.12220146864E+04  0.77000000000E+02 0.  0.
   -5000001    1    1    2    0    0 -0.13227459390E+02 -0.23201335154E+01  0.10424905664E+04  0.10454166297E+04  0.77000000000E+02 0.  0.
<mgrwt>
<rscale>  0 0.15680325E+03</rscale>
<asrwt>0</asrwt>
<pdfrwt beam="1">  1        2 0.32353194E+00 0.15680325E+03</pdfrwt>
<pdfrwt beam="2">  1       -2 0.38773666E-03 0.15680325E+03</pdfrwt>
<totfact> 0.53093447E+04</totfact>
</mgrwt>
</event>
<event>
 4    1  0.6782240E-004  0.2491159E+03  0.7818608E-02  0.1113865E+00
          2   -1    0    0  501    0  0.00000000000E+00  0.00000000000E+00  0.36593930287E+02  0.36593930376E+02  0.25500000000E-02 0.  1.
         -2   -1    0    0    0  501 -0.00000000000E+00 -0.00000000000E+00 -0.42396872211E+03  0.42396872211E+03  0.25500000000E-02 0. -1.
    5000001    1    1    2    0    0  0.39201076413E+01  0.96181729778E+02 -0.22672797108E+03  0.25807143441E+03  0.77000000000E+02 0.  0.
   -5000001    1    1    2    0    0 -0.39201076413E+01 -0.96181729778E+02 -0.16064682074E+03  0.20249121808E+03  0.77000000000E+02 0.  0.
<mgrwt>
<rscale>  0 0.24911589E+03</rscale>
<asrwt>0</asrwt>
<pdfrwt beam="1">  1        2 0.52277046E-02 0.24911589E+03</pdfrwt>
<pdfrwt beam="2">  1       -2 0.60566957E-01 0.24911589E+03</pdfrwt>
<totfact> 0.38083781E+03</totfact>
</mgrwt>
</event>
<event>
 4    1  0.6782240E-004  0.2581627E+03  0.7818608E-02  0.1108252E+00
         -2   -1    0    0    0  501 -0.00000000000E+00  0.00000000000E+00  0.12339277914E+03  0.12339277916E+03  0.25500000000E-02 0. -1.
          2   -1    0    0  501    0  0.00000000000E+00 -0.00000000000E+00 -0.13503218839E+03  0.13503218841E+03  0.25500000000E-02 0.  1.
    5000001    1    1    2    0    0 -0.21246381973E+02 -0.85224405837E+02 -0.60815380899E+02  0.13168947813E+03  0.77000000000E+02 0.  0.
   -5000001    1    1    2    0    0  0.21246381973E+02  0.85224405837E+02  0.49175971646E+02  0.12673548944E+03  0.77000000000E+02 0.  0.
<mgrwt>
<rscale>  0 0.25816272E+03</rscale>
<asrwt>0</asrwt>
<pdfrwt beam="1">  1        2 0.19290313E-01 0.25816272E+03</pdfrwt>
<pdfrwt beam="2">  1       -2 0.17627540E-01 0.25816272E+03</pdfrwt>
<totfact> 0.74617628E+03</totfact>
</mgrwt>
</event>
<event>
 4    1  0.6782240E-004  0.2802885E+03  0.7818608E-02  0.1095531E+00
         -2   -1    0    0    0  501 -0.00000000000E+00  0.00000000000E+00  0.10572183164E+03  0.10572183167E+03  0.25500000000E-02 0. -1.
          2   -1    0    0  501    0  0.00000000000E+00 -0.00000000000E+00 -0.18577442896E+03  0.18577442898E+03  0.25500000000E-02 0.  1.
    5000001    1    1    2    0    0 -0.10725200601E+03 -0.15347848607E+02 -0.86219304333E+02  0.15843395371E+03  0.77000000000E+02 0.  0.
   -5000001    1    1    2    0    0  0.10725200601E+03  0.15347848607E+02  0.61667070085E+01  0.13306230693E+03  0.77000000000E+02 0.  0.
<mgrwt>
<rscale>  0 0.28028851E+03</rscale>
<asrwt>0</asrwt>
<pdfrwt beam="1">  1        2 0.26539204E-01 0.28028851E+03</pdfrwt>
<pdfrwt beam="2">  1       -2 0.15103119E-01 0.28028851E+03</pdfrwt>
<totfact> 0.67578649E+03</totfact>
</mgrwt>
</event>
<event>
 4    1  0.6782240E-004  0.1795076E+03  0.7818608E-02  0.1168280E+00
         -2   -1    0    0    0  501 -0.00000000000E+00  0.00000000000E+00  0.32506328599E+02  0.32506328699E+02  0.25500000000E-02 0. -1.
          2   -1    0    0  501    0  0.00000000000E+00 -0.00000000000E+00 -0.24782068310E+03  0.24782068311E+03  0.25500000000E-02 0.  1.
    5000001    1    1    2    0    0 -0.15213471783E+02  0.30637548156E+02 -0.59356351755E+02  0.10306447290E+03  0.77000000000E+02 0.  0.
   -5000001    1    1    2    0    0  0.15213471783E+02 -0.30637548156E+02 -0.15595800274E+03  0.17726253891E+03  0.77000000000E+02 0.  0.
<mgrwt>
<rscale>  0 0.17950755E+03</rscale>
<asrwt>0</asrwt>
<pdfrwt beam="1">  1        2 0.35402954E-01 0.17950755E+03</pdfrwt>
<pdfrwt beam="2">  1       -2 0.46437614E-02 0.17950755E+03</pdfrwt>
<totfact> 0.30469302E+04</totfact>
</mgrwt>
</event>
<event>
 4    1  0.6782240E-004  0.2123423E+03  0.7818608E-02  0.1139724E+00
          2   -1    0    0  501    0  0.00000000000E+00  0.00000000000E+00  0.42903939520E+04  0.42903939520E+04  0.25500000000E-02 0.  1.
         -2   -1    0    0    0  501 -0.00000000000E+00 -0.00000000000E+00 -0.26273363028E+01  0.26273375403E+01  0.25500000000E-02 0. -1.
    5000001    1    1    2    0    0 -0.38228049221E+01  0.46095491139E+02  0.32882526337E+04  0.32894792583E+04  0.77000000000E+02 0.  0.
   -5000001    1    1    2    0    0  0.38228049221E+01 -0.46095491139E+02  0.99951398203E+03  0.10035420312E+04  0.77000000000E+02 0.  0.
<mgrwt>
<rscale>  0 0.21234228E+03</rscale>
<asrwt>0</asrwt>
<pdfrwt beam="1">  1        2 0.61290746E+00 0.21234228E+03</pdfrwt>
<pdfrwt beam="2">  1       -2 0.37533750E-03 0.21234228E+03</pdfrwt>
<totfact> 0.40704196E+03</totfact>
</mgrwt>
</event>
<event>
 4    1  0.6782240E-004  0.7068520E+03  0.7818608E-02  0.9705586E-01
         -2   -1    0    0    0  501 -0.00000000000E+00  0.00000000000E+00  0.47539311019E+03  0.47539311019E+03  0.25500000000E-02 0. -1.
          2   -1    0    0  501    0  0.00000000000E+00 -0.00000000000E+00 -0.26275080251E+03  0.26275080252E+03  0.25500000000E-02 0.  1.
    5000001    1    1    2    0    0  0.16311051739E+03  0.30392014192E+03  0.10328959297E+03  0.36819863330E+03  0.77000000000E+02 0.  0.
   -5000001    1    1    2    0    0 -0.16311051739E+03 -0.30392014192E+03  0.10935271470E+03  0.36994527941E+03  0.77000000000E+02 0.  0.
<mgrwt>
<rscale>  0 0.70685195E+03</rscale>
<asrwt>0</asrwt>
<pdfrwt beam="1">  1        2 0.37535829E-01 0.70685195E+03</pdfrwt>
<pdfrwt beam="2">  1       -2 0.67913302E-01 0.70685195E+03</pdfrwt>
<totfact> 0.27710114E+02</totfact>
</mgrwt>
</event>
<event>
 4    1  0.6782240E-004  0.3185828E+03  0.7818608E-02  0.1076303E+00
         -2   -1    0    0    0  501 -0.00000000000E+00  0.00000000000E+00  0.65562514222E+02  0.65562514271E+02  0.25500000000E-02 0. -1.
          2   -1    0    0  501    0  0.00000000000E+00 -0.00000000000E+00 -0.38701622825E+03  0.38701622826E+03  0.25500000000E-02 0.  1.
    5000001    1    1    2    0    0  0.12015732645E+03 -0.17978363390E+02 -0.63503921707E+02  0.15723470584E+03  0.77000000000E+02 0.  0.
   -5000001    1    1    2    0    0 -0.12015732645E+03  0.17978363390E+02 -0.25794979232E+03  0.29534403669E+03  0.77000000000E+02 0.  0.
<mgrwt>
<rscale>  0 0.31858284E+03</rscale>
<asrwt>0</asrwt>
<pdfrwt beam="1">  1        2 0.55288032E-01 0.31858284E+03</pdfrwt>
<pdfrwt beam="2">  1       -2 0.93660736E-02 0.31858284E+03</pdfrwt>
<totfact> 0.66164976E+03</totfact>
</mgrwt>
</event>
<event>
 4    1  0.6782240E-004  0.2216712E+03  0.7818608E-02  0.1132643E+00
         -2   -1    0    0    0  501 -0.00000000000E+00  0.00000000000E+00  0.17955307645E+02  0.17955307826E+02  0.25500000000E-02 0. -1.
          2   -1    0    0  501    0  0.00000000000E+00 -0.00000000000E+00 -0.68417283153E+03  0.68417283154E+03  0.25500000000E-02 0.  1.
    5000001    1    1    2    0    0  0.73644698898E+02  0.11822957721E+02 -0.42225994919E+03  0.43565558495E+03  0.77000000000E+02 0.  0.
   -5000001    1    1    2    0    0 -0.73644698898E+02 -0.11822957721E+02 -0.24395757470E+03  0.26647255442E+03  0.77000000000E+02 0.  0.
<mgrwt>
<rscale>  0 0.22167123E+03</rscale>
<asrwt>0</asrwt>
<pdfrwt beam="1">  1        2 0.97738960E-01 0.22167123E+03</pdfrwt>
<pdfrwt beam="2">  1       -2 0.25650444E-02 0.22167123E+03</pdfrwt>
<totfact> 0.24716856E+04</totfact>
</mgrwt>
</event>
<event>
 4    1  0.6782240E-004  0.1841132E+03  0.7818608E-02  0.1163881E+00
          2   -1    0    0  501    0  0.00000000000E+00  0.00000000000E+00  0.45304407630E+03  0.45304407631E+03  0.25500000000E-02 0.  1.
         -2   -1    0    0    0  501 -0.00000000000E+00 -0.00000000000E+00 -0.18705494629E+02  0.18705494803E+02  0.25500000000E-02 0. -1.
    5000001    1    1    2    0    0 -0.14739375995E+02  0.37891967718E+02  0.14062769613E+03  0.16540314187E+03  0.77000000000E+02 0.  0.
   -5000001    1    1    2    0    0  0.14739375995E+02 -0.37891967718E+02  0.29371088554E+03  0.30634642924E+03  0.77000000000E+02 0.  0.
<mgrwt>
<rscale>  0 0.18411316E+03</rscale>
<asrwt>0</asrwt>
<pdfrwt beam="1">  1        2 0.64720585E-01 0.18411316E+03</pdfrwt>
<pdfrwt beam="2">  1       -2 0.26722134E-02 0.18411316E+03</pdfrwt>
<totfact> 0.36399785E+04</totfact>
</mgrwt>
</event>
<event>
 4    1  0.6782240E-004  0.2547942E+03  0.7818608E-02  0.1110312E+00
          2   -1    0    0  501    0  0.00000000000E+00  0.00000000000E+00  0.29121796574E+02  0.29121796685E+02  0.25500000000E-02 0.  1.
         -2   -1    0    0    0  501 -0.00000000000E+00 -0.00000000000E+00 -0.55731534890E+03  0.55731534890E+03  0.25500000000E-02 0. -1.
    5000001    1    1    2    0    0 -0.97118159076E+02  0.27051368583E+02 -0.23712656299E+03  0.26892697938E+03  0.77000000000E+02 0.  0.
   -5000001    1    1    2    0    0  0.97118159076E+02 -0.27051368583E+02 -0.29106698933E+03  0.31751016621E+03  0.77000000000E+02 0.  0.
<mgrwt>
<rscale>  0 0.25479422E+03</rscale>
<asrwt>0</asrwt>
<pdfrwt beam="1">  1        2 0.41602570E-02 0.25479422E+03</pdfrwt>
<pdfrwt beam="2">  1       -2 0.79616472E-01 0.25479422E+03</pdfrwt>
<totfact> 0.28774766E+03</totfact>
</mgrwt>
</event>
<event>
 4    1  0.6782240E-004  0.7175797E+03  0.7818608E-02  0.9687632E-01
         -2   -1    0    0    0  501 -0.00000000000E+00  0.00000000000E+00  0.45282244088E+03  0.45282244089E+03  0.25500000000E-02 0. -1.
          2   -1    0    0  501    0  0.00000000000E+00 -0.00000000000E+00 -0.28428395375E+03  0.28428395377E+03  0.25500000000E-02 0.  1.
    5000001    1    1    2    0    0 -0.34657243115E+03  0.37664051967E+02  0.12087782751E+03  0.37692370584E+03  0.77000000000E+02 0.  0.
   -5000001    1    1    2    0    0  0.34657243115E+03 -0.37664051967E+02  0.47660659613E+02  0.36018268881E+03  0.77000000000E+02 0.  0.
<mgrwt>
<rscale>  0 0.71757969E+03</rscale>
<asrwt>0</asrwt>
<pdfrwt beam="1">  1        2 0.40611993E-01 0.71757969E+03</pdfrwt>
<pdfrwt beam="2">  1       -2 0.64688921E-01 0.71757969E+03</pdfrwt>
<totfact> 0.28181414E+02</totfact>
</mgrwt>
</event>
<event>
 4    1  0.6782240E-004  0.2165295E+03  0.7818608E-02  0.1136497E+00
         -2   -1    0    0    0  501 -0.00000000000E+00  0.00000000000E+00  0.43828827125E+02  0.43828827199E+02  0.25500000000E-02 0. -1.
          2   -1    0    0  501    0  0.00000000000E+00 -0.00000000000E+00 -0.26743252248E+03  0.26743252249E+03  0.25500000000E-02 0.  1.
    5000001    1    1    2    0    0 -0.66603910984E+02 -0.34785082687E+02 -0.94422295334E+02  0.14314556504E+03  0.77000000000E+02 0.  0.
   -5000001    1    1    2    0    0  0.66603910984E+02  0.34785082687E+02 -0.12918140002E+03  0.16811578465E+03  0.77000000000E+02 0.  0.
<mgrwt>
<rscale>  0 0.21652948E+03</rscale>
<asrwt>0</asrwt>
<pdfrwt beam="1">  1        2 0.38204645E-01 0.21652948E+03</pdfrwt>
<pdfrwt beam="2">  1       -2 0.62612612E-02 0.21652948E+03</pdfrwt>
<totfact> 0.18103632E+04</totfact>
</mgrwt>
</event>
<event>
 4    1  0.6782240E-004  0.2451112E+03  0.7818608E-02  0.1116434E+00
          2   -1    0    0  501    0  0.00000000000E+00  0.00000000000E+00  0.56900890653E+03  0.56900890653E+03  0.25500000000E-02 0.  1.
         -2   -1    0    0    0  501 -0.00000000000E+00 -0.00000000000E+00 -0.26396554955E+02  0.26396555078E+02  0.25500000000E-02 0. -1.
    5000001    1    1    2    0    0  0.74914437321E+02 -0.54326794441E+02  0.21552609731E+03  0.24686853208E+03  0.77000000000E+02 0.  0.
   -5000001    1    1    2    0    0 -0.74914437321E+02  0.54326794441E+02  0.32708625427E+03  0.34853692953E+03  0.77000000000E+02 0.  0.
<mgrwt>
<rscale>  0 0.24511120E+03</rscale>
<asrwt>0</asrwt>
<pdfrwt beam="1">  1        2 0.81286981E-01 0.24511120E+03</pdfrwt>
<pdfrwt beam="2">  1       -2 0.37709367E-02 0.24511120E+03</pdfrwt>
<totfact> 0.17330822E+04</totfact>
</mgrwt>
</event>
<event>
 4    1  0.6782240E-004  0.2938346E+03  0.7818608E-02  0.1088364E+00
         -2   -1    0    0    0  501 -0.00000000000E+00  0.00000000000E+00  0.93501769327E+02  0.93501769362E+02  0.25500000000E-02 0. -1.
          2   -1    0    0  501    0  0.00000000000E+00 -0.00000000000E+00 -0.23084802530E+03  0.23084802531E+03  0.25500000000E-02 0.  1.
    5000001    1    1    2    0    0 -0.57247945997E+02 -0.10952250794E+03 -0.47064921979E+02  0.15302488016E+03  0.77000000000E+02 0.  0.
   -5000001    1    1    2    0    0  0.57247945997E+02  0.10952250794E+03 -0.90281333993E+02  0.17132491452E+03  0.77000000000E+02 0.  0.
<mgrwt>
<rscale>  0 0.29383464E+03</rscale>
<asrwt>0</asrwt>
<pdfrwt beam="1">  1        2 0.32978289E-01 0.29383464E+03</pdfrwt>
<pdfrwt beam="2">  1       -2 0.13357396E-01 0.29383464E+03</pdfrwt>
<totfact> 0.65226226E+03</totfact>
</mgrwt>
</event>
<event>
 4    1  0.6782240E-004  0.3257129E+03  0.7818608E-02  0.1073050E+00
         -2   -1    0    0    0  501 -0.00000000000E+00  0.00000000000E+00  0.30135521664E+02  0.30135521772E+02  0.25500000000E-02 0. -1.
          2   -1    0    0  501    0  0.00000000000E+00 -0.00000000000E+00 -0.88009862105E+03  0.88009862105E+03  0.25500000000E-02 0.  1.
    5000001    1    1    2    0    0  0.12169901761E+03  0.20397833137E+02 -0.62970331346E+03  0.64628320840E+03  0.77000000000E+02 0.  0.
   -5000001    1    1    2    0    0 -0.12169901761E+03 -0.20397833137E+02 -0.22025978592E+03  0.26395093442E+03  0.77000000000E+02 0.  0.
<mgrwt>
<rscale>  0 0.32571295E+03</rscale>
<asrwt>0</asrwt>
<pdfrwt beam="1">  1        2 0.12572836E+00 0.32571295E+03</pdfrwt>
<pdfrwt beam="2">  1       -2 0.43050751E-02 0.32571295E+03</pdfrwt>
<totfact> 0.85163664E+03</totfact>
</mgrwt>
</event>
<event>
 4    1  0.6782240E-004  0.7059359E+03  0.7818608E-02  0.9707135E-01
         -2   -1    0    0    0  501 -0.00000000000E+00  0.00000000000E+00  0.14387940878E+04  0.14387940878E+04  0.25500000000E-02 0. -1.
          2   -1    0    0  501    0  0.00000000000E+00 -0.00000000000E+00 -0.86590818624E+02  0.86590818661E+02  0.25500000000E-02 0.  1.
    5000001    1    1    2    0    0 -0.16460078893E+03 -0.48567102461E+02  0.30730958647E+02  0.19059269392E+03  0.77000000000E+02 0.  0.
   -5000001    1    1    2    0    0  0.16460078893E+03  0.48567102461E+02  0.13214723105E+04  0.13347922125E+04  0.77000000000E+02 0.  0.
<mgrwt>
<rscale>  0 0.70593586E+03</rscale>
<asrwt>0</asrwt>
<pdfrwt beam="1">  1        2 0.12370117E-01 0.70593586E+03</pdfrwt>
<pdfrwt beam="2">  1       -2 0.20554201E+00 0.70593586E+03</pdfrwt>
<totfact> 0.63540167E+01</totfact>
</mgrwt>
</event>
<event>
 4    1  0.6782240E-004  0.2322978E+03  0.7818608E-02  0.1125033E+00
          2   -1    0    0  501    0  0.00000000000E+00  0.00000000000E+00  0.20502730848E+04  0.20502730848E+04  0.25500000000E-02 0.  1.
         -2   -1    0    0    0  501 -0.00000000000E+00 -0.00000000000E+00 -0.65798859794E+01  0.65798864736E+01  0.25500000000E-02 0. -1.
    5000001    1    1    2    0    0 -0.78126915658E+02  0.29137658521E+02  0.12403086981E+04  0.12454908609E+04  0.77000000000E+02 0.  0.
   -5000001    1    1    2    0    0  0.78126915658E+02 -0.29137658521E+02  0.80338450069E+03  0.81136211031E+03  0.77000000000E+02 0.  0.
<mgrwt>
<rscale>  0 0.23229777E+03</rscale>
<asrwt>0</asrwt>
<pdfrwt beam="1">  1        2 0.29289612E+00 0.23229777E+03</pdfrwt>
<pdfrwt beam="2">  1       -2 0.93998386E-03 0.23229777E+03</pdfrwt>
<totfact> 0.19358732E+04</totfact>
</mgrwt>
</event>
<event>
 4    1  0.6782240E-004  0.2536757E+03  0.7818608E-02  0.1111004E+00
         -2   -1    0    0    0  501 -0.00000000000E+00  0.00000000000E+00  0.10587285927E+03  0.10587285930E+03  0.25500000000E-02 0. -1.
          2   -1    0    0  501    0  0.00000000000E+00 -0.00000000000E+00 -0.15195438976E+03  0.15195438978E+03  0.25500000000E-02 0.  1.
    5000001    1    1    2    0    0 -0.78140643435E+02  0.57886088134E+01 -0.87476869517E+02  0.14043030602E+03  0.77000000000E+02 0.  0.
   -5000001    1    1    2    0    0  0.78140643435E+02 -0.57886088134E+01  0.41395339025E+02  0.11739694307E+03  0.77000000000E+02 0.  0.
<mgrwt>
<rscale>  0 0.25367574E+03</rscale>
<asrwt>0</asrwt>
<pdfrwt beam="1">  1        2 0.21707770E-01 0.25367574E+03</pdfrwt>
<pdfrwt beam="2">  1       -2 0.15124694E-01 0.25367574E+03</pdfrwt>
<totfact> 0.84102422E+03</totfact>
</mgrwt>
</event>
<event>
 4    1  0.6782240E-004  0.5153173E+03  0.7818608E-02  0.1009856E+00
          2   -1    0    0  501    0  0.00000000000E+00  0.00000000000E+00  0.24495535156E+03  0.24495535157E+03  0.25500000000E-02 0.  1.
         -2   -1    0    0    0  501 -0.00000000000E+00 -0.00000000000E+00 -0.27102074348E+03  0.27102074350E+03  0.25500000000E-02 0. -1.
    5000001    1    1    2    0    0  0.19741062985E+03  0.14615303466E+03 -0.17348679352E+01  0.25741731893E+03  0.77000000000E+02 0.  0.
   -5000001    1    1    2    0    0 -0.19741062985E+03 -0.14615303466E+03 -0.24330523988E+02  0.25855877614E+03  0.77000000000E+02 0.  0.
<mgrwt>
<rscale>  0 0.51531731E+03</rscale>
<asrwt>0</asrwt>
<pdfrwt beam="1">  1        2 0.34993622E-01 0.51531731E+03</pdfrwt>
<pdfrwt beam="2">  1       -2 0.38717249E-01 0.51531731E+03</pdfrwt>
<totfact> 0.94512395E+02</totfact>
</mgrwt>
</event>
<event>
 4    1  0.6782240E-004  0.3048431E+03  0.7818608E-02  0.1082844E+00
          2   -1    0    0  501    0  0.00000000000E+00  0.00000000000E+00  0.39223822699E+04  0.39223822699E+04  0.25500000000E-02 0.  1.
         -2   -1    0    0    0  501 -0.00000000000E+00 -0.00000000000E+00 -0.59230162639E+01  0.59230168128E+01  0.25500000000E-02 0. -1.
    5000001    1    1    2    0    0 -0.12510457546E+03  0.20539209183E+02  0.15062300291E+04  0.15135160767E+04  0.77000000000E+02 0.  0.
   -5000001    1    1    2    0    0  0.12510457546E+03 -0.20539209183E+02  0.24102292246E+04  0.24147892101E+04  0.77000000000E+02 0.  0.
<mgrwt>
<rscale>  0 0.30484314E+03</rscale>
<asrwt>0</asrwt>
<pdfrwt beam="1">  1        2 0.56033925E+00 0.30484314E+03</pdfrwt>
<pdfrwt beam="2">  1       -2 0.84614684E-03 0.30484314E+03</pdfrwt>
<totfact> 0.21996231E+03</totfact>
</mgrwt>
</event>
<event>
 4    1  0.6782240E-004  0.3050734E+03  0.7818608E-02  0.1082732E+00
          2   -1    0    0  501    0  0.00000000000E+00  0.00000000000E+00  0.10479127431E+04  0.10479127431E+04  0.25500000000E-02 0. -1.
         -2   -1    0    0    0  501 -0.00000000000E+00 -0.00000000000E+00 -0.22203608415E+02  0.22203608561E+02  0.25500000000E-02 0.  1.
    5000001    1    1    2    0    0  0.62982760895E+02 -0.10979098677E+03  0.64017880819E+03  0.65709877142E+03  0.77000000000E+02 0.  0.
   -5000001    1    1    2    0    0 -0.62982760895E+02  0.10979098677E+03  0.38553032650E+03  0.41301758026E+03  0.77000000000E+02 0.  0.
<mgrwt>
<rscale>  0 0.30507340E+03</rscale>
<asrwt>0</asrwt>
<pdfrwt beam="1">  1        2 0.14970174E+00 0.30507340E+03</pdfrwt>
<pdfrwt beam="2">  1       -2 0.31719457E-02 0.30507340E+03</pdfrwt>
<totfact> 0.10650940E+04</totfact>
</mgrwt>
</event>
<event>
 4    1  0.6782240E-004  0.1890212E+03  0.7818608E-02  0.1159347E+00
         -2   -1    0    0    0  501 -0.00000000000E+00  0.00000000000E+00  0.18107394840E+02  0.18107395020E+02  0.25500000000E-02 0. -1.
          2   -1    0    0  501    0  0.00000000000E+00 -0.00000000000E+00 -0.49329323014E+03  0.49329323015E+03  0.25500000000E-02 0.  1.
    5000001    1    1    2    0    0  0.51669912513E+02  0.17592394688E+02 -0.25084254320E+03  0.26801166708E+03  0.77000000000E+02 0.  0.
   -5000001    1    1    2    0    0 -0.51669912513E+02 -0.17592394688E+02 -0.22434329210E+03  0.24338895809E+03  0.77000000000E+02 0.  0.
<mgrwt>
<rscale>  0 0.18902122E+03</rscale>
<asrwt>0</asrwt>
<pdfrwt beam="1">  1        2 0.70470453E-01 0.18902122E+03</pdfrwt>
<pdfrwt beam="2">  1       -2 0.25867710E-02 0.18902122E+03</pdfrwt>
<totfact> 0.34886788E+04</totfact>
</mgrwt>
</event>
<event>
 4    1  0.6782240E-004  0.4748305E+03  0.7818608E-02  0.1020566E+00
          2   -1    0    0  501    0  0.00000000000E+00  0.00000000000E+00  0.25082034922E+04  0.25082034922E+04  0.25500000000E-02 0.  1.
         -2   -1    0    0    0  501 -0.00000000000E+00 -0.00000000000E+00 -0.22472662991E+02  0.22472663135E+02  0.25500000000E-02 0. -1.
    5000001    1    1    2    0    0 -0.18972078940E+03  0.30837972541E+02  0.18619314114E+04  0.18734093357E+04  0.77000000000E+02 0.  0.
   -5000001    1    1    2    0    0  0.18972078940E+03 -0.30837972541E+02  0.62379941782E+03  0.65726681961E+03  0.77000000000E+02 0.  0.
<mgrwt>
<rscale>  0 0.47483055E+03</rscale>
<asrwt>0</asrwt>
<pdfrwt beam="1">  1        2 0.35831493E+00 0.47483055E+03</pdfrwt>
<pdfrwt beam="2">  1       -2 0.32103792E-02 0.47483055E+03</pdfrwt>
<totfact> 0.18707387E+03</totfact>
</mgrwt>
</event>
<event>
 4    1  0.6782240E-004  0.2726739E+03  0.7818608E-02  0.1099759E+00
         -2   -1    0    0    0  501 -0.00000000000E+00  0.00000000000E+00  0.32141423443E+02  0.32141423544E+02  0.25500000000E-02 0. -1.
          2   -1    0    0  501    0  0.00000000000E+00 -0.00000000000E+00 -0.57831157414E+03  0.57831157415E+03  0.25500000000E-02 0.  1.
    5000001    1    1    2    0    0 -0.39355625365E+02 -0.37482353598E+02 -0.52535752226E+02  0.10790179489E+03  0.77000000000E+02 0.  0.
   -5000001    1    1    2    0    0  0.39355625365E+02  0.37482353598E+02 -0.49363439847E+03  0.50255120280E+03  0.77000000000E+02 0.  0.
<mgrwt>
<rscale>  0 0.27267385E+03</rscale>
<asrwt>0</asrwt>
<pdfrwt beam="1">  1        2 0.82615933E-01 0.27267385E+03</pdfrwt>
<pdfrwt beam="2">  1       -2 0.45916323E-02 0.27267385E+03</pdfrwt>
<totfact> 0.12718031E+04</totfact>
</mgrwt>
</event>
<event>
 4    1  0.6782240E-004  0.5438997E+03  0.7818608E-02  0.1002916E+00
         -2   -1    0    0    0  501 -0.00000000000E+00  0.00000000000E+00  0.16702801147E+02  0.16702801341E+02  0.25500000000E-02 0. -1.
          2   -1    0    0  501    0  0.00000000000E+00 -0.00000000000E+00 -0.44278033675E+04  0.44278033675E+04  0.25500000000E-02 0.  1.
    5000001    1    1    2    0    0 -0.10196607607E+03  0.20526772265E+03 -0.32227628402E+04  0.32318201130E+04  0.77000000000E+02 0.  0.
   -5000001    1    1    2    0    0  0.10196607607E+03 -0.20526772265E+03 -0.11883377262E+04  0.12126860559E+04  0.77000000000E+02 0.  0.
<mgrwt>
<rscale>  0 0.54389970E+03</rscale>
<asrwt>0</asrwt>
<pdfrwt beam="1">  1        2 0.63254259E+00 0.54389970E+03</pdfrwt>
<pdfrwt beam="2">  1       -2 0.23861173E-02 0.54389970E+03</pdfrwt>
<totfact> 0.20336607E+02</totfact>
</mgrwt>
</event>
<event>
 4    1  0.6782240E-004  0.3123418E+03  0.7818608E-02  0.1079229E+00
         -2   -1    0    0    0  501 -0.00000000000E+00  0.00000000000E+00  0.32224756947E+02  0.32224757047E+02  0.25500000000E-02 0. -1.
          2   -1    0    0  501    0  0.00000000000E+00 -0.00000000000E+00 -0.75685110278E+03  0.75685110278E+03  0.25500000000E-02 0.  1.
    5000001    1    1    2    0    0  0.13371576400E+03 -0.23344462890E+02 -0.34726651575E+03  0.38072024171E+03  0.77000000000E+02 0.  0.
   -5000001    1    1    2    0    0 -0.13371576400E+03  0.23344462890E+02 -0.37735983008E+03  0.40835561812E+03  0.77000000000E+02 0.  0.
<mgrwt>
<rscale>  0 0.31234175E+03</rscale>
<asrwt>0</asrwt>
<pdfrwt beam="1">  1        2 0.10812157E+00 0.31234175E+03</pdfrwt>
<pdfrwt beam="2">  1       -2 0.46035372E-02 0.31234175E+03</pdfrwt>
<totfact> 0.92856055E+03</totfact>
</mgrwt>
</event>
<event>
 4    1  0.6782240E-004  0.2078025E+03  0.7818608E-02  0.1143318E+00
         -2   -1    0    0    0  501 -0.00000000000E+00  0.00000000000E+00  0.39472641989E+02  0.39472642071E+02  0.25500000000E-02 0. -1.
          2   -1    0    0  501    0  0.00000000000E+00 -0.00000000000E+00 -0.27349235639E+03  0.27349235640E+03  0.25500000000E-02 0.  1.
    5000001    1    1    2    0    0 -0.31169771988E+02 -0.62357024272E+02 -0.12085335280E+03  0.15935647475E+03  0.77000000000E+02 0.  0.
   -5000001    1    1    2    0    0  0.31169771988E+02  0.62357024272E+02 -0.11316636160E+03  0.15360852372E+03  0.77000000000E+02 0.  0.
<mgrwt>
<rscale>  0 0.20780246E+03</rscale>
<asrwt>0</asrwt>
<pdfrwt beam="1">  1        2 0.39070336E-01 0.20780246E+03</pdfrwt>
<pdfrwt beam="2">  1       -2 0.56389490E-02 0.20780246E+03</pdfrwt>
<totfact> 0.20675591E+04</totfact>
</mgrwt>
</event>
<event>
 4    1  0.6782240E-004  0.5208239E+03  0.7818608E-02  0.1008482E+00
         -2   -1    0    0    0  501 -0.00000000000E+00  0.00000000000E+00  0.26872605481E+02  0.26872605602E+02  0.25500000000E-02 0. -1.
          2   -1    0    0  501    0  0.00000000000E+00 -0.00000000000E+00 -0.25235511233E+04  0.25235511233E+04  0.25500000000E-02 0.  1.
    5000001    1    1    2    0    0  0.21939409341E+03  0.10018679505E+03 -0.94990003410E+03  0.98306166486E+03  0.77000000000E+02 0.  0.
   -5000001    1    1    2    0    0 -0.21939409341E+03 -0.10018679505E+03 -0.15467784838E+04  0.15673620641E+04  0.77000000000E+02 0.  0.
<mgrwt>
<rscale>  0 0.52082394E+03</rscale>
<asrwt>0</asrwt>
<pdfrwt beam="1">  1        2 0.36050715E+00 0.52082394E+03</pdfrwt>
<pdfrwt beam="2">  1       -2 0.38389452E-02 0.52082394E+03</pdfrwt>
<totfact> 0.13953286E+03</totfact>
</mgrwt>
</event>
<event>
 4    1  0.6782240E-004  0.3597703E+03  0.7818608E-02  0.1058675E+00
          2   -1    0    0  501    0  0.00000000000E+00  0.00000000000E+00  0.26513106036E+03  0.26513106037E+03  0.25500000000E-02 0.  1.
         -2   -1    0    0    0  501 -0.00000000000E+00 -0.00000000000E+00 -0.12204780147E+03  0.12204780149E+03  0.25500000000E-02 0. -1.
    5000001    1    1    2    0    0  0.83734266682E+02 -0.11962090772E+03  0.14846484970E+03  0.22201666734E+03  0.77000000000E+02 0.  0.
   -5000001    1    1    2    0    0 -0.83734266682E+02  0.11962090772E+03 -0.53815908081E+01  0.16516219452E+03  0.77000000000E+02 0.  0.
<mgrwt>
<rscale>  0 0.35977028E+03</rscale>
<asrwt>0</asrwt>
<pdfrwt beam="1">  1        2 0.37875865E-01 0.35977028E+03</pdfrwt>
<pdfrwt beam="2">  1       -2 0.17435400E-01 0.35977028E+03</pdfrwt>
<totfact> 0.36222972E+03</totfact>
</mgrwt>
</event>
<event>
 4    1  0.6782240E-004  0.3056196E+03  0.7818608E-02  0.1082465E+00
         -2   -1    0    0    0  501 -0.00000000000E+00  0.00000000000E+00  0.16901781052E+02  0.16901781244E+02  0.25500000000E-02 0. -1.
          2   -1    0    0  501    0  0.00000000000E+00 -0.00000000000E+00 -0.13815602984E+04  0.13815602984E+04  0.25500000000E-02 0.  1.
    5000001    1    1    2    0    0 -0.10263449408E+03 -0.82878512376E+02 -0.66230897530E+03  0.67969468584E+03  0.77000000000E+02 0.  0.
   -5000001    1    1    2    0    0  0.10263449408E+03  0.82878512376E+02 -0.70234954201E+03  0.71876739377E+03  0.77000000000E+02 0.  0.
<mgrwt>
<rscale>  0 0.30561957E+03</rscale>
<asrwt>0</asrwt>
<pdfrwt beam="1">  1        2 0.19736569E+00 0.30561957E+03</pdfrwt>
<pdfrwt beam="2">  1       -2 0.24145410E-02 0.30561957E+03</pdfrwt>
<totfact> 0.10522812E+04</totfact>
</mgrwt>
</event>
<event>
 4    1  0.6782240E-004  0.2015391E+03  0.7818608E-02  0.1148447E+00
         -2   -1    0    0    0  501 -0.00000000000E+00  0.00000000000E+00  0.22412664334E+03  0.22412664335E+03  0.25500000000E-02 0. -1.
          2   -1    0    0  501    0  0.00000000000E+00 -0.00000000000E+00 -0.45306995049E+02  0.45306995120E+02  0.25500000000E-02 0.  1.
    5000001    1    1    2    0    0  0.55872404694E+02 -0.33222593304E+02  0.89147783364E+02  0.13454290613E+03  0.77000000000E+02 0.  0.
   -5000001    1    1    2    0    0 -0.55872404694E+02  0.33222593304E+02  0.89671864926E+02  0.13489073234E+03  0.77000000000E+02 0.  0.
<mgrwt>
<rscale>  0 0.20153913E+03</rscale>
<asrwt>0</asrwt>
<pdfrwt beam="1">  1        2 0.64724278E-02 0.20153913E+03</pdfrwt>
<pdfrwt beam="2">  1       -2 0.32018092E-01 0.20153913E+03</pdfrwt>
<totfact> 0.98373266E+03</totfact>
</mgrwt>
</event>
<event>
 4    1  0.6782240E-004  0.3114465E+03  0.7818608E-02  0.1079655E+00
         -2   -1    0    0    0  501 -0.00000000000E+00  0.00000000000E+00  0.45616103058E+02  0.45616103129E+02  0.25500000000E-02 0. -1.
          2   -1    0    0  501    0  0.00000000000E+00 -0.00000000000E+00 -0.53160456943E+03  0.53160456943E+03  0.25500000000E-02 0.  1.
    5000001    1    1    2    0    0  0.12236705144E+03  0.35321030397E+02 -0.32791464124E+03  0.36010870915E+03  0.77000000000E+02 0.  0.
   -5000001    1    1    2    0    0 -0.12236705144E+03 -0.35321030397E+02 -0.15807382513E+03  0.21711196342E+03  0.77000000000E+02 0.  0.
<mgrwt>
<rscale>  0 0.31144649E+03</rscale>
<asrwt>0</asrwt>
<pdfrwt beam="1">  1        2 0.75943506E-01 0.31144649E+03</pdfrwt>
<pdfrwt beam="2">  1       -2 0.65165865E-02 0.31144649E+03</pdfrwt>
<totfact> 0.82286567E+03</totfact>
</mgrwt>
</event>
<event>
 4    1  0.6782240E-004  0.4575784E+03  0.7818608E-02  0.1025486E+00
         -2   -1    0    0    0  501 -0.00000000000E+00  0.00000000000E+00  0.44896026237E+03  0.44896026238E+03  0.25500000000E-02 0. -1.
          2   -1    0    0  501    0  0.00000000000E+00 -0.00000000000E+00 -0.11659048828E+03  0.11659048831E+03  0.25500000000E-02 0.  1.
    5000001    1    1    2    0    0 -0.11531484100E+03  0.17664256132E+03  0.22027708041E+03  0.31456493634E+03  0.77000000000E+02 0.  0.
   -5000001    1    1    2    0    0  0.11531484100E+03 -0.17664256132E+03  0.11209269369E+03  0.25098581435E+03  0.77000000000E+02 0.  0.
<mgrwt>
<rscale>  0 0.45757839E+03</rscale>
<asrwt>0</asrwt>
<pdfrwt beam="1">  1        2 0.16655784E-01 0.45757839E+03</pdfrwt>
<pdfrwt beam="2">  1       -2 0.64137182E-01 0.45757839E+03</pdfrwt>
<totfact> 0.79704638E+02</totfact>
</mgrwt>
</event>
<event>
 4    1  0.6782240E-004  0.1794537E+03  0.7818608E-02  0.1168333E+00
         -2   -1    0    0    0  501 -0.00000000000E+00  0.00000000000E+00  0.14448227686E+02  0.14448227911E+02  0.25500000000E-02 0. -1.
          2   -1    0    0  501    0  0.00000000000E+00 -0.00000000000E+00 -0.55722454082E+03  0.55722454082E+03  0.25500000000E-02 0.  1.
    5000001    1    1    2    0    0 -0.38718164878E+02  0.17612852881E+02 -0.21506482234E+03  0.23236003677E+03  0.77000000000E+02 0.  0.
   -5000001    1    1    2    0    0  0.38718164878E+02 -0.17612852881E+02 -0.32771149079E+03  0.33931273197E+03  0.77000000000E+02 0.  0.
<mgrwt>
<rscale>  0 0.17945369E+03</rscale>
<asrwt>0</asrwt>
<pdfrwt beam="1">  1        2 0.79603492E-01 0.17945369E+03</pdfrwt>
<pdfrwt beam="2">  1       -2 0.20640329E-02 0.17945369E+03</pdfrwt>
<totfact> 0.42265313E+04</totfact>
</mgrwt>
</event>
<event>
 4    1  0.6782240E-004  0.4084591E+03  0.7818608E-02  0.1040889E+00
         -2   -1    0    0    0  501 -0.00000000000E+00  0.00000000000E+00  0.59701857808E+02  0.59701857862E+02  0.25500000000E-02 0. -1.
          2   -1    0    0  501    0  0.00000000000E+00 -0.00000000000E+00 -0.69863347745E+03  0.69863347745E+03  0.25500000000E-02 0.  1.
    5000001    1    1    2    0    0 -0.15506499254E+03  0.70190037487E+02 -0.16626823218E+03  0.25009181975E+03  0.77000000000E+02 0.  0.
   -5000001    1    1    2    0    0  0.15506499254E+03 -0.70190037487E+02 -0.47266338746E+03  0.50824351557E+03  0.77000000000E+02 0.  0.
<mgrwt>
<rscale>  0 0.40845914E+03</rscale>
<asrwt>0</asrwt>
<pdfrwt beam="1">  1        2 0.99804778E-01 0.40845914E+03</pdfrwt>
<pdfrwt beam="2">  1       -2 0.85288372E-02 0.40845914E+03</pdfrwt>
<totfact> 0.39588611E+03</totfact>
</mgrwt>
</event>
<event>
 4    1  0.6782240E-004  0.3056207E+03  0.7818608E-02  0.1082464E+00
         -2   -1    0    0    0  501 -0.00000000000E+00  0.00000000000E+00  0.13520824550E+03  0.13520824552E+03  0.25500000000E-02 0. -1.
          2   -1    0    0  501    0  0.00000000000E+00 -0.00000000000E+00 -0.17270402973E+03  0.17270402975E+03  0.25500000000E-02 0.  1.
    5000001    1    1    2    0    0  0.67540785467E+02 -0.11010109654E+03 -0.46117733126E+02  0.15728907931E+03  0.77000000000E+02 0.  0.
   -5000001    1    1    2    0    0 -0.67540785467E+02  0.11010109654E+03  0.86219488931E+01  0.15062319597E+03  0.77000000000E+02 0.  0.
<mgrwt>
<rscale>  0 0.30562074E+03</rscale>
<asrwt>0</asrwt>
<pdfrwt beam="1">  1        2 0.24672004E-01 0.30562074E+03</pdfrwt>
<pdfrwt beam="2">  1       -2 0.19315464E-01 0.30562074E+03</pdfrwt>
<totfact> 0.48646203E+03</totfact>
</mgrwt>
</event>
<event>
 4    1  0.6782240E-004  0.2038750E+03  0.7818608E-02  0.1146510E+00
         -2   -1    0    0    0  501 -0.00000000000E+00  0.00000000000E+00  0.65129365604E+01  0.65129370596E+01  0.25500000000E-02 0. -1.
          2   -1    0    0  501    0  0.00000000000E+00 -0.00000000000E+00 -0.15954790258E+04  0.15954790258E+04  0.25500000000E-02 0.  1.
    5000001    1    1    2    0    0 -0.26425993318E+02 -0.35534856310E+02 -0.11874627532E+04  0.11907803532E+04  0.77000000000E+02 0.  0.
   -5000001    1    1    2    0    0  0.26425993318E+02  0.35534856310E+02 -0.40150333600E+03  0.41121160970E+03  0.77000000000E+02 0.  0.
<mgrwt>
<rscale>  0 0.20387500E+03</rscale>
<asrwt>0</asrwt>
<pdfrwt beam="1">  1        2 0.22792533E+00 0.20387500E+03</pdfrwt>
<pdfrwt beam="2">  1       -2 0.93042056E-03 0.20387500E+03</pdfrwt>
<totfact> 0.32499260E+04</totfact>
</mgrwt>
</event>
<event>
 4    1  0.6782240E-004  0.1903373E+03  0.7818608E-02  0.1158157E+00
         -2   -1    0    0    0  501 -0.00000000000E+00  0.00000000000E+00  0.10994947027E+02  0.10994947322E+02  0.25500000000E-02 0. -1.
          2   -1    0    0  501    0  0.00000000000E+00 -0.00000000000E+00 -0.82374849985E+03  0.82374849986E+03  0.25500000000E-02 0.  1.
    5000001    1    1    2    0    0  0.47839686625E+02  0.11102758837E+02 -0.28901261842E+03  0.30309932444E+03  0.77000000000E+02 0.  0.
   -5000001    1    1    2    0    0 -0.47839686625E+02 -0.11102758837E+02 -0.52374093441E+03  0.53164412274E+03  0.77000000000E+02 0.  0.
<mgrwt>
<rscale>  0 0.19033729E+03</rscale>
<asrwt>0</asrwt>
<pdfrwt beam="1">  1        2 0.11767832E+00 0.19033729E+03</pdfrwt>
<pdfrwt beam="2">  1       -2 0.15707073E-02 0.19033729E+03</pdfrwt>
<totfact> 0.40073901E+04</totfact>
</mgrwt>
</event>
<event>
 4    1  0.6782240E-004  0.2813715E+03  0.7818608E-02  0.1094942E+00
         -2   -1    0    0    0  501 -0.00000000000E+00  0.00000000000E+00  0.12628501590E+03  0.12628501592E+03  0.25500000000E-02 0. -1.
          2   -1    0    0  501    0  0.00000000000E+00 -0.00000000000E+00 -0.15672869241E+03  0.15672869243E+03  0.25500000000E-02 0.  1.
    5000001    1    1    2    0    0 -0.93100198660E+02 -0.71775181501E+02 -0.85376228098E+01  0.14078783567E+03  0.77000000000E+02 0.  0.
   -5000001    1    1    2    0    0  0.93100198660E+02  0.71775181501E+02 -0.21906053698E+02  0.14222587268E+03  0.77000000000E+02 0.  0.
<mgrwt>
<rscale>  0 0.28137154E+03</rscale>
<asrwt>0</asrwt>
<pdfrwt beam="1">  1        2 0.22389813E-01 0.28137154E+03</pdfrwt>
<pdfrwt beam="2">  1       -2 0.18040717E-01 0.28137154E+03</pdfrwt>
<totfact> 0.60770375E+03</totfact>
</mgrwt>
</event>
<event>
 4    1  0.6782240E-004  0.2581638E+03  0.7818608E-02  0.1108251E+00
          2   -1    0    0  501    0  0.00000000000E+00  0.00000000000E+00  0.17859510244E+04  0.17859510244E+04  0.25500000000E-02 0.  1.
         -2   -1    0    0    0  501 -0.00000000000E+00 -0.00000000000E+00 -0.93295595163E+01  0.93295598648E+01  0.25500000000E-02 0. -1.
    5000001    1    1    2    0    0  0.28430747517E+02 -0.86806506058E+02  0.54838279794E+03  0.56124537413E+03  0.77000000000E+02 0.  0.
   -5000001    1    1    2    0    0 -0.28430747517E+02  0.86806506058E+02  0.12282386670E+04  0.12340352102E+04  0.77000000000E+02 0.  0.
<mgrwt>
<rscale>  0 0.25816380E+03</rscale>
<asrwt>0</asrwt>
<pdfrwt beam="1">  1        2 0.25513628E+00 0.25816380E+03</pdfrwt>
<pdfrwt beam="2">  1       -2 0.13327921E-02 0.25816380E+03</pdfrwt>
<totfact> 0.15731646E+04</totfact>
</mgrwt>
</event>
<event>
 4    1  0.6782240E-004  0.1783903E+03  0.7818608E-02  0.1169370E+00
          2   -1    0    0  501    0  0.00000000000E+00  0.00000000000E+00  0.58544738725E+03  0.58544738726E+03  0.25500000000E-02 0.  1.
         -2   -1    0    0    0  501 -0.00000000000E+00 -0.00000000000E+00 -0.13589226998E+02  0.13589227237E+02  0.25500000000E-02 0. -1.
    5000001    1    1    2    0    0 -0.12816942601E+02 -0.42913800930E+02  0.27057405182E+03  0.28485994075E+03  0.77000000000E+02 0.  0.
   -5000001    1    1    2    0    0  0.12816942601E+02  0.42913800930E+02  0.30128410844E+03  0.31417667374E+03  0.77000000000E+02 0.  0.
<mgrwt>
<rscale>  0 0.17839033E+03</rscale>
<asrwt>0</asrwt>
<pdfrwt beam="1">  1        2 0.83635343E-01 0.17839033E+03</pdfrwt>
<pdfrwt beam="2">  1       -2 0.19413181E-02 0.17839033E+03</pdfrwt>
<totfact> 0.43711749E+04</totfact>
</mgrwt>
</event>
<event>
 4    1  0.6782240E-004  0.1884111E+03  0.7818608E-02  0.1159902E+00
         -2   -1    0    0    0  501 -0.00000000000E+00  0.00000000000E+00  0.72869980880E+01  0.72869985342E+01  0.25500000000E-02 0. -1.
          2   -1    0    0  501    0  0.00000000000E+00 -0.00000000000E+00 -0.12178794699E+04  0.12178794699E+04  0.25500000000E-02 0.  1.
    5000001    1    1    2    0    0 -0.14409384967E+02  0.43238454269E+02 -0.41366276596E+03  0.42322934473E+03  0.77000000000E+02 0.  0.
   -5000001    1    1    2    0    0  0.14409384967E+02 -0.43238454269E+02 -0.79692970586E+03  0.80193712371E+03  0.77000000000E+02 0.  0.
<mgrwt>
<rscale>  0 0.18841110E+03</rscale>
<asrwt>0</asrwt>
<pdfrwt beam="1">  1        2 0.17398265E+00 0.18841110E+03</pdfrwt>
<pdfrwt beam="2">  1       -2 0.10410005E-02 0.18841110E+03</pdfrwt>
<totfact> 0.42813705E+04</totfact>
</mgrwt>
</event>
<event>
 4    1  0.6782240E-004  0.1817338E+03  0.7818608E-02  0.1166136E+00
         -2   -1    0    0    0  501 -0.00000000000E+00  0.00000000000E+00  0.11764174128E+02  0.11764174404E+02  0.25500000000E-02 0. -1.
          2   -1    0    0  501    0  0.00000000000E+00 -0.00000000000E+00 -0.70185915997E+03  0.70185915997E+03  0.25500000000E-02 0.  1.
    5000001    1    1    2    0    0 -0.22630093456E+02 -0.23795039997E+02 -0.48384957368E+03  0.49103740693E+03  0.77000000000E+02 0.  0.
   -5000001    1    1    2    0    0  0.22630093456E+02  0.23795039997E+02 -0.20624541216E+03  0.22258592744E+03  0.77000000000E+02 0.  0.
<mgrwt>
<rscale>  0 0.18173380E+03</rscale>
<asrwt>0</asrwt>
<pdfrwt beam="1">  1        2 0.10026557E+00 0.18173380E+03</pdfrwt>
<pdfrwt beam="2">  1       -2 0.16805968E-02 0.18173380E+03</pdfrwt>
<totfact> 0.43872595E+04</totfact>
</mgrwt>
</event>
<event>
 4    1  0.6782240E-004  0.1938250E+03  0.7818608E-02  0.1155056E+00
         -2   -1    0    0    0  501 -0.00000000000E+00  0.00000000000E+00  0.45806037824E+02  0.45806037894E+02  0.25500000000E-02 0. -1.
          2   -1    0    0  501    0  0.00000000000E+00 -0.00000000000E+00 -0.20503920290E+03  0.20503920292E+03  0.25500000000E-02 0.  1.
    5000001    1    1    2    0    0  0.20436246930E+02  0.54372130113E+02 -0.91830332815E+02  0.13317574384E+03  0.77000000000E+02 0.  0.
   -5000001    1    1    2    0    0 -0.20436246930E+02 -0.54372130113E+02 -0.67402832267E+02  0.11766949698E+03  0.77000000000E+02 0.  0.
<mgrwt>
<rscale>  0 0.19382501E+03</rscale>
<asrwt>0</asrwt>
<pdfrwt beam="1">  1        2 0.29291314E-01 0.19382501E+03</pdfrwt>
<pdfrwt beam="2">  1       -2 0.65437198E-02 0.19382501E+03</pdfrwt>
<totfact> 0.22381074E+04</totfact>
</mgrwt>
</event>
<event>
 4    1  0.6782240E-004  0.1779359E+03  0.7818608E-02  0.1169816E+00
          2   -1    0    0  501    0  0.00000000000E+00  0.00000000000E+00  0.51593727066E+01  0.51593733368E+01  0.25500000000E-02 0.  1.
         -2   -1    0    0    0  501 -0.00000000000E+00 -0.00000000000E+00 -0.15341582117E+04  0.15341582117E+04  0.25500000000E-02 0. -1.
    5000001    1    1    2    0    0 -0.15836907102E+02 -0.34308228150E+02 -0.56006690078E+03  0.56659667797E+03  0.77000000000E+02 0.  0.
   -5000001    1    1    2    0    0  0.15836907102E+02  0.34308228150E+02 -0.96893193821E+03  0.97272090706E+03  0.77000000000E+02 0.  0.
<mgrwt>
<rscale>  0 0.17793588E+03</rscale>
<asrwt>0</asrwt>
<pdfrwt beam="1">  1        2 0.73705427E-03 0.17793588E+03</pdfrwt>
<pdfrwt beam="2">  1       -2 0.21916517E+00 0.17793588E+03</pdfrwt>
<totfact> 0.23726221E+03</totfact>
</mgrwt>
</event>
<event>
 4    1  0.6782240E-004  0.4401644E+03  0.7818608E-02  0.1030696E+00
          2   -1    0    0  501    0  0.00000000000E+00  0.00000000000E+00  0.42212783099E+03  0.42212783100E+03  0.25500000000E-02 0.  1.
         -2   -1    0    0    0  501 -0.00000000000E+00 -0.00000000000E+00 -0.11474292648E+03  0.11474292651E+03  0.25500000000E-02 0. -1.
    5000001    1    1    2    0    0 -0.20118509778E+03  0.27315510711E+02  0.10995957335E+03  0.24339615541E+03  0.77000000000E+02 0.  0.
   -5000001    1    1    2    0    0  0.20118509778E+03 -0.27315510711E+02  0.19742533116E+03  0.29347460210E+03  0.77000000000E+02 0.  0.
<mgrwt>
<rscale>  0 0.44016444E+03</rscale>
<asrwt>0</asrwt>
<pdfrwt beam="1">  1        2 0.60303975E-01 0.44016444E+03</pdfrwt>
<pdfrwt beam="2">  1       -2 0.16391847E-01 0.44016444E+03</pdfrwt>
<totfact> 0.24273144E+03</totfact>
</mgrwt>
</event>
<event>
 4    1  0.6782240E-004  0.3318964E+03  0.7818608E-02  0.1070301E+00
          2   -1    0    0  501    0  0.00000000000E+00  0.00000000000E+00  0.26802268673E+04  0.26802268673E+04  0.25500000000E-02 0.  1.
         -2   -1    0    0    0  501 -0.00000000000E+00 -0.00000000000E+00 -0.10274804599E+02  0.10274804915E+02  0.25500000000E-02 0. -1.
    5000001    1    1    2    0    0 -0.48723065500E+02 -0.12768087351E+03  0.89591876065E+03  0.90954701267E+03  0.77000000000E+02 0.  0.
   -5000001    1    1    2    0    0  0.48723065500E+02  0.12768087351E+03  0.17740333021E+04  0.17809546596E+04  0.77000000000E+02 0.  0.
<mgrwt>
<rscale>  0 0.33189642E+03</rscale>
<asrwt>0</asrwt>
<pdfrwt beam="1">  1        2 0.38289008E+00 0.33189642E+03</pdfrwt>
<pdfrwt beam="2">  1       -2 0.14678272E-02 0.33189642E+03</pdfrwt>
<totfact> 0.49461798E+03</totfact>
</mgrwt>
</event>
<event>
 4    1  0.6782240E-004  0.2884448E+03  0.7818608E-02  0.1091164E+00
          2   -1    0    0  501    0  0.00000000000E+00  0.00000000000E+00  0.10945876723E+04  0.10945876723E+04  0.25500000000E-02 0.  1.
         -2   -1    0    0    0  501 -0.00000000000E+00 -0.00000000000E+00 -0.19002686960E+02  0.19002687131E+02  0.25500000000E-02 0. -1.
    5000001    1    1    2    0    0 -0.22777800019E+02  0.11626420734E+03  0.42623897526E+03  0.44904883711E+03  0.77000000000E+02 0.  0.
   -5000001    1    1    2    0    0  0.22777800019E+02 -0.11626420734E+03  0.64934601008E+03  0.66454152232E+03  0.77000000000E+02 0.  0.
<mgrwt>
<rscale>  0 0.28844484E+03</rscale>
<asrwt>0</asrwt>
<pdfrwt beam="1">  1        2 0.15636974E+00 0.28844484E+03</pdfrwt>
<pdfrwt beam="2">  1       -2 0.27146684E-02 0.28844484E+03</pdfrwt>
<totfact> 0.12609382E+04</totfact>
</mgrwt>
</event>
<event>
 4    1  0.6782240E-004  0.4084201E+03  0.7818608E-02  0.1040902E+00
         -2   -1    0    0    0  501 -0.00000000000E+00  0.00000000000E+00  0.16870473709E+02  0.16870473901E+02  0.25500000000E-02 0. -1.
          2   -1    0    0  501    0  0.00000000000E+00 -0.00000000000E+00 -0.24718773576E+04  0.24718773576E+04  0.25500000000E-02 0.  1.
    5000001    1    1    2    0    0 -0.15854783790E+03  0.10181801889E+03 -0.11276694872E+04  0.11458934498E+04  0.77000000000E+02 0.  0.
   -5000001    1    1    2    0    0  0.15854783790E+03 -0.10181801889E+03 -0.13273373967E+04  0.13428543817E+04  0.77000000000E+02 0.  0.
<mgrwt>
<rscale>  0 0.40842009E+03</rscale>
<asrwt>0</asrwt>
<pdfrwt beam="1">  1        2 0.35312511E+00 0.40842009E+03</pdfrwt>
<pdfrwt beam="2">  1       -2 0.24100693E-02 0.40842009E+03</pdfrwt>
<totfact> 0.30164729E+03</totfact>
</mgrwt>
</event>
<event>
 4    1  0.6782240E-004  0.2091678E+03  0.7818608E-02  0.1142227E+00
         -2   -1    0    0    0  501 -0.00000000000E+00  0.00000000000E+00  0.76848207834E+02  0.76848207876E+02  0.25500000000E-02 0. -1.
          2   -1    0    0  501    0  0.00000000000E+00 -0.00000000000E+00 -0.14232980970E+03  0.14232980972E+03  0.25500000000E-02 0.  1.
    5000001    1    1    2    0    0  0.97709028649E+01  0.51150925424E+02 -0.82960433215E+02  0.12459262094E+03  0.77000000000E+02 0.  0.
   -5000001    1    1    2    0    0 -0.97709028649E+01 -0.51150925424E+02  0.17478831351E+02  0.94585396653E+02  0.77000000000E+02 0.  0.
<mgrwt>
<rscale>  0 0.20916779E+03</rscale>
<asrwt>0</asrwt>
<pdfrwt beam="1">  1        2 0.20332830E-01 0.20916779E+03</pdfrwt>
<pdfrwt beam="2">  1       -2 0.10978315E-01 0.20916779E+03</pdfrwt>
<totfact> 0.15063991E+04</totfact>
</mgrwt>
</event>
<event>
 4    1  0.6782240E-004  0.9236256E+03  0.7818608E-02  0.9396521E-01
          2   -1    0    0  501    0  0.00000000000E+00  0.00000000000E+00  0.45389803457E+03  0.45389803458E+03  0.25500000000E-02 0.  1.
         -2   -1    0    0    0  501 -0.00000000000E+00 -0.00000000000E+00 -0.46986557718E+03  0.46986557719E+03  0.25500000000E-02 0. -1.
    5000001    1    1    2    0    0 -0.52271492188E+02 -0.30532278291E+03  0.32581413455E+03  0.45611200480E+03  0.77000000000E+02 0.  0.
   -5000001    1    1    2    0    0  0.52271492188E+02  0.30532278291E+03 -0.34178167715E+03  0.46765160696E+03  0.77000000000E+02 0.  0.
<mgrwt>
<rscale>  0 0.92362560E+03</rscale>
<asrwt>0</asrwt>
<pdfrwt beam="1">  1        2 0.64842576E-01 0.92362560E+03</pdfrwt>
<pdfrwt beam="2">  1       -2 0.67123654E-01 0.92362560E+03</pdfrwt>
<totfact> 0.15315642E+02</totfact>
</mgrwt>
</event>
<event>
 4    1  0.6782240E-004  0.2700227E+03  0.7818608E-02  0.1101267E+00
          2   -1    0    0  501    0  0.00000000000E+00  0.00000000000E+00  0.34782151953E+03  0.34782151954E+03  0.25500000000E-02 0.  1.
         -2   -1    0    0    0  501 -0.00000000000E+00 -0.00000000000E+00 -0.52406381807E+02  0.52406381869E+02  0.25500000000E-02 0. -1.
    5000001    1    1    2    0    0  0.84649524252E+02  0.69613333681E+02  0.12257522948E+03  0.18156333624E+03  0.77000000000E+02 0.  0.
   -5000001    1    1    2    0    0 -0.84649524252E+02 -0.69613333681E+02  0.17283990824E+03  0.21866456518E+03  0.77000000000E+02 0.  0.
<mgrwt>
<rscale>  0 0.27002272E+03</rscale>
<asrwt>0</asrwt>
<pdfrwt beam="1">  1        2 0.49688787E-01 0.27002272E+03</pdfrwt>
<pdfrwt beam="2">  1       -2 0.74866262E-02 0.27002272E+03</pdfrwt>
<totfact> 0.10490106E+04</totfact>
</mgrwt>
</event>
<event>
 4    1  0.6782240E-004  0.2023713E+03  0.7818608E-02  0.1147754E+00
         -2   -1    0    0    0  501 -0.00000000000E+00  0.00000000000E+00  0.65100135783E+01  0.65100140777E+01  0.25500000000E-02 0. -1.
          2   -1    0    0  501    0  0.00000000000E+00 -0.00000000000E+00 -0.15727368087E+04  0.15727368087E+04  0.25500000000E-02 0.  1.
    5000001    1    1    2    0    0  0.74206293688E+01  0.64437168205E+02 -0.70417473444E+03  0.71133555444E+03  0.77000000000E+02 0.  0.
   -5000001    1    1    2    0    0 -0.74206293688E+01 -0.64437168205E+02 -0.86205206072E+03  0.86791126838E+03  0.77000000000E+02 0.  0.
<mgrwt>
<rscale>  0 0.20237133E+03</rscale>
<asrwt>0</asrwt>
<pdfrwt beam="1">  1        2 0.22467644E+00 0.20237133E+03</pdfrwt>
<pdfrwt beam="2">  1       -2 0.93000298E-03 0.20237133E+03</pdfrwt>
<totfact> 0.33357240E+04</totfact>
</mgrwt>
</event>
<event>
 4    1  0.6782240E-004  0.3908148E+03  0.7818608E-02  0.1047007E+00
         -2   -1    0    0    0  501 -0.00000000000E+00  0.00000000000E+00  0.52939638059E+02  0.52939638120E+02  0.25500000000E-02 0. -1.
          2   -1    0    0  501    0  0.00000000000E+00 -0.00000000000E+00 -0.72127513448E+03  0.72127513449E+03  0.25500000000E-02 0.  1.
    5000001    1    1    2    0    0 -0.16876987752E+03 -0.59889407499E+02 -0.36111495743E+03  0.41036937650E+03  0.77000000000E+02 0.  0.
   -5000001    1    1    2    0    0  0.16876987752E+03  0.59889407499E+02 -0.30722053899E+03  0.36384539611E+03  0.77000000000E+02 0.  0.
<mgrwt>
<rscale>  0 0.39081476E+03</rscale>
<asrwt>0</asrwt>
<pdfrwt beam="1">  1        2 0.10303930E+00 0.39081476E+03</pdfrwt>
<pdfrwt beam="2">  1       -2 0.75628059E-02 0.39081476E+03</pdfrwt>
<totfact> 0.46013494E+03</totfact>
</mgrwt>
</event>
<event>
 4    1  0.6782240E-004  0.3652267E+03  0.7818608E-02  0.1056533E+00
         -2   -1    0    0    0  501 -0.00000000000E+00  0.00000000000E+00  0.10154657481E+03  0.10154657484E+03  0.25500000000E-02 0. -1.
          2   -1    0    0  501    0  0.00000000000E+00 -0.00000000000E+00 -0.32839743617E+03  0.32839743618E+03  0.25500000000E-02 0.  1.
    5000001    1    1    2    0    0 -0.11978388978E+03 -0.94967231796E+02 -0.38493498834E+02  0.17543575696E+03  0.77000000000E+02 0.  0.
   -5000001    1    1    2    0    0  0.11978388978E+03  0.94967231796E+02 -0.18835736253E+03  0.25450825406E+03  0.77000000000E+02 0.  0.
<mgrwt>
<rscale>  0 0.36522670E+03</rscale>
<asrwt>0</asrwt>
<pdfrwt beam="1">  1        2 0.46913919E-01 0.36522670E+03</pdfrwt>
<pdfrwt beam="2">  1       -2 0.14506654E-01 0.36522670E+03</pdfrwt>
<totfact> 0.39065878E+03</totfact>
</mgrwt>
</event>
<event>
 4    1  0.6782240E-004  0.1800473E+03  0.7818608E-02  0.1167757E+00
         -2   -1    0    0    0  501 -0.00000000000E+00  0.00000000000E+00  0.23193911573E+02  0.23193911713E+02  0.25500000000E-02 0. -1.
          2   -1    0    0  501    0  0.00000000000E+00 -0.00000000000E+00 -0.34941298437E+03  0.34941298438E+03  0.25500000000E-02 0.  1.
    5000001    1    1    2    0    0 -0.45160960918E+02  0.38625179668E+01 -0.18585727344E+03  0.20621919776E+03  0.77000000000E+02 0.  0.
   -5000001    1    1    2    0    0  0.45160960918E+02 -0.38625179668E+01 -0.14036179936E+03  0.16638769833E+03  0.77000000000E+02 0.  0.
<mgrwt>
<rscale>  0 0.18004726E+03</rscale>
<asrwt>0</asrwt>
<pdfrwt beam="1">  1        2 0.49916137E-01 0.18004726E+03</pdfrwt>
<pdfrwt beam="2">  1       -2 0.33134162E-02 0.18004726E+03</pdfrwt>
<totfact> 0.34935430E+04</totfact>
</mgrwt>
</event>
<event>
 4    1  0.6782240E-004  0.2585902E+03  0.7818608E-02  0.1107993E+00
          2   -1    0    0  501    0  0.00000000000E+00  0.00000000000E+00  0.20107981953E+04  0.20107981953E+04  0.25500000000E-02 0.  1.
         -2   -1    0    0    0  501 -0.00000000000E+00 -0.00000000000E+00 -0.83137216335E+01  0.83137220246E+01  0.25500000000E-02 0. -1.
    5000001    1    1    2    0    0  0.10333043295E+03 -0.80376624760E+01  0.10544492181E+04  0.10623247789E+04  0.77000000000E+02 0.  0.
   -5000001    1    1    2    0    0 -0.10333043295E+03  0.80376624760E+01  0.94803525557E+03  0.95678713840E+03  0.77000000000E+02 0.  0.
<mgrwt>
<rscale>  0 0.25859015E+03</rscale>
<asrwt>0</asrwt>
<pdfrwt beam="1">  1        2 0.28725712E+00 0.25859015E+03</pdfrwt>
<pdfrwt beam="2">  1       -2 0.11876736E-02 0.25859015E+03</pdfrwt>
<totfact> 0.14458666E+04</totfact>
</mgrwt>
</event>
<event>
 4    1  0.6782240E-004  0.3745763E+03  0.7818608E-02  0.1052957E+00
          2   -1    0    0  501    0  0.00000000000E+00  0.00000000000E+00  0.24170371348E+02  0.24170371483E+02  0.25500000000E-02 0.  1.
         -2   -1    0    0    0  501 -0.00000000000E+00 -0.00000000000E+00 -0.14512333712E+04  0.14512333712E+04  0.25500000000E-02 0. -1.
    5000001    1    1    2    0    0  0.85006463708E+02 -0.14789337945E+03 -0.74118752899E+03  0.76445176674E+03  0.77000000000E+02 0.  0.
   -5000001    1    1    2    0    0 -0.85006463708E+02  0.14789337945E+03 -0.68587547085E+03  0.71095197592E+03  0.77000000000E+02 0.  0.
<mgrwt>
<rscale>  0 0.37457629E+03</rscale>
<asrwt>0</asrwt>
<pdfrwt beam="1">  1        2 0.34529111E-02 0.37457629E+03</pdfrwt>
<pdfrwt beam="2">  1       -2 0.20731900E+00 0.37457629E+03</pdfrwt>
<totfact> 0.33605498E+02</totfact>
</mgrwt>
</event>
<event>
 4    1  0.6782240E-004  0.3465522E+03  0.7818608E-02  0.1064039E+00
          2   -1    0    0  501    0  0.00000000000E+00  0.00000000000E+00  0.88703678575E+03  0.88703678575E+03  0.25500000000E-02 0.  1.
         -2   -1    0    0    0  501 -0.00000000000E+00 -0.00000000000E+00 -0.33848218574E+02  0.33848218670E+02  0.25500000000E-02 0. -1.
    5000001    1    1    2    0    0  0.92951910496E+02  0.22103914433E+02  0.10150422510E+03  0.15925058371E+03  0.77000000000E+02 0.  0.
   -5000001    1    1    2    0    0 -0.92951910496E+02 -0.22103914433E+02  0.75168434207E+03  0.76163442071E+03  0.77000000000E+02 0.  0.
<mgrwt>
<rscale>  0 0.34655225E+03</rscale>
<asrwt>0</asrwt>
<pdfrwt beam="1">  1        2 0.12671954E+00 0.34655225E+03</pdfrwt>
<pdfrwt beam="2">  1       -2 0.48354598E-02 0.34655225E+03</pdfrwt>
<totfact> 0.70752695E+03</totfact>
</mgrwt>
</event>
<event>
 4    1  0.6782240E-004  0.2471317E+03  0.7818608E-02  0.1115131E+00
          2   -1    0    0  501    0  0.00000000000E+00  0.00000000000E+00  0.62695827531E+03  0.62695827532E+03  0.25500000000E-02 0.  1.
         -2   -1    0    0    0  501 -0.00000000000E+00 -0.00000000000E+00 -0.24353333510E+02  0.24353333643E+02  0.25500000000E-02 0. -1.
    5000001    1    1    2    0    0 -0.29213093511E+02 -0.72452428009E+02  0.15136303570E+03  0.18692920513E+03  0.77000000000E+02 0.  0.
   -5000001    1    1    2    0    0  0.29213093511E+02  0.72452428009E+02  0.45124190610E+03  0.46438240382E+03  0.77000000000E+02 0.  0.
<mgrwt>
<rscale>  0 0.24713174E+03</rscale>
<asrwt>0</asrwt>
<pdfrwt beam="1">  1        2 0.89565449E-01 0.24713174E+03</pdfrwt>
<pdfrwt beam="2">  1       -2 0.34790484E-02 0.24713174E+03</pdfrwt>
<totfact> 0.17515136E+04</totfact>
</mgrwt>
</event>
<event>
 4    1  0.6782240E-004  0.2072002E+03  0.7818608E-02  0.1143803E+00
         -2   -1    0    0    0  501 -0.00000000000E+00  0.00000000000E+00  0.65991833181E+01  0.65991838107E+01  0.25500000000E-02 0. -1.
          2   -1    0    0  501    0  0.00000000000E+00 -0.00000000000E+00 -0.16264102774E+04  0.16264102774E+04  0.25500000000E-02 0.  1.
    5000001    1    1    2    0    0 -0.24220699712E+02 -0.22705794737E+02 -0.33038842850E+03  0.34086318238E+03  0.77000000000E+02 0.  0.
   -5000001    1    1    2    0    0  0.24220699712E+02  0.22705794737E+02 -0.12894226656E+04  0.12921462788E+04  0.77000000000E+02 0.  0.
<mgrwt>
<rscale>  0 0.20720019E+03</rscale>
<asrwt>0</asrwt>
<pdfrwt beam="1">  1        2 0.23234407E+00 0.20720019E+03</pdfrwt>
<pdfrwt beam="2">  1       -2 0.94274155E-03 0.20720019E+03</pdfrwt>
<totfact> 0.30818776E+04</totfact>
</mgrwt>
</event>
<event>
 4    1  0.6782240E-004  0.2602435E+03  0.7818608E-02  0.1106997E+00
          2   -1    0    0  501    0  0.00000000000E+00  0.00000000000E+00  0.32091649145E+04  0.32091649145E+04  0.25500000000E-02 0.  1.
         -2   -1    0    0    0  501 -0.00000000000E+00 -0.00000000000E+00 -0.52760345480E+01  0.52760351642E+01  0.25500000000E-02 0. -1.
    5000001    1    1    2    0    0  0.35901328228E+02 -0.95504670548E+02  0.13012584398E+04  0.13075215389E+04  0.77000000000E+02 0.  0.
   -5000001    1    1    2    0    0 -0.35901328228E+02  0.95504670548E+02  0.19026304402E+04  0.19069194108E+04  0.77000000000E+02 0.  0.
<mgrwt>
<rscale>  0 0.26024347E+03</rscale>
<asrwt>0</asrwt>
<pdfrwt beam="1">  1        2 0.45845328E+00 0.26024347E+03</pdfrwt>
<pdfrwt beam="2">  1       -2 0.75371738E-03 0.26024347E+03</pdfrwt>
<totfact> 0.68840426E+03</totfact>
</mgrwt>
</event>
<event>
 4    1  0.6782240E-004  0.2845419E+03  0.7818608E-02  0.1093234E+00
         -2   -1    0    0    0  501 -0.00000000000E+00  0.00000000000E+00  0.17934216119E+04  0.17934216120E+04  0.25500000000E-02 0.  1.
          2   -1    0    0  501    0  0.00000000000E+00 -0.00000000000E+00 -0.11286263995E+02  0.11286264283E+02  0.25500000000E-02 0. -1.
    5000001    1    1    2    0    0  0.84973003225E+02 -0.70172246225E+02  0.11863501154E+04  0.11939431107E+04  0.77000000000E+02 0.  0.
   -5000001    1    1    2    0    0 -0.84973003225E+02  0.70172246225E+02  0.59578523258E+03  0.61076476551E+03  0.77000000000E+02 0.  0.
<mgrwt>
<rscale>  0 0.28454195E+03</rscale>
<asrwt>0</asrwt>
<pdfrwt beam="1">  1        2 0.16123248E-02 0.28454195E+03</pdfrwt>
<pdfrwt beam="2">  1       -2 0.25620288E+00 0.28454195E+03</pdfrwt>
<totfact> 0.48780450E+02</totfact>
</mgrwt>
</event>
<event>
 4    1  0.6782240E-004  0.7844137E+03  0.7818608E-02  0.9582856E-01
          2   -1    0    0  501    0  0.00000000000E+00  0.00000000000E+00  0.62260113659E+03  0.62260113660E+03  0.25500000000E-02 0.  1.
         -2   -1    0    0    0  501 -0.00000000000E+00 -0.00000000000E+00 -0.24707023424E+03  0.24707023426E+03  0.25500000000E-02 0. -1.
    5000001    1    1    2    0    0 -0.28827346789E+03 -0.23891583206E+03  0.28514629101E+03  0.47688549399E+03  0.77000000000E+02 0.  0.
   -5000001    1    1    2    0    0  0.28827346789E+03  0.23891583206E+03  0.90384611336E+02  0.39278587687E+03  0.77000000000E+02 0.  0.
<mgrwt>
<rscale>  0 0.78441369E+03</rscale>
<asrwt>0</asrwt>
<pdfrwt beam="1">  1        2 0.88943019E-01 0.78441369E+03</pdfrwt>
<pdfrwt beam="2">  1       -2 0.35295748E-01 0.78441369E+03</pdfrwt>
<totfact> 0.39299659E+02</totfact>
</mgrwt>
</event>
<event>
 4    1  0.6782240E-004  0.2559903E+03  0.7818608E-02  0.1109577E+00
          2   -1    0    0  501    0  0.00000000000E+00  0.00000000000E+00  0.41708346796E+03  0.41708346796E+03  0.25500000000E-02 0.  1.
         -2   -1    0    0    0  501 -0.00000000000E+00 -0.00000000000E+00 -0.39279341751E+02  0.39279341834E+02  0.25500000000E-02 0. -1.
    5000001    1    1    2    0    0 -0.89796807965E+02 -0.14567186269E+01  0.10178168204E+03  0.15605800059E+03  0.77000000000E+02 0.  0.
   -5000001    1    1    2    0    0  0.89796807965E+02  0.14567186269E+01  0.27602244416E+03  0.30030480920E+03  0.77000000000E+02 0.  0.
<mgrwt>
<rscale>  0 0.25599034E+03</rscale>
<asrwt>0</asrwt>
<pdfrwt beam="1">  1        2 0.59583353E-01 0.25599034E+03</pdfrwt>
<pdfrwt beam="2">  1       -2 0.56113345E-02 0.25599034E+03</pdfrwt>
<totfact> 0.13410885E+04</totfact>
</mgrwt>
</event>
<event>
 4    1  0.6782240E-004  0.2683886E+03  0.7818608E-02  0.1102205E+00
          2   -1    0    0  501    0  0.00000000000E+00  0.00000000000E+00  0.10229476813E+04  0.10229476813E+04  0.25500000000E-02 0.  1.
         -2   -1    0    0    0  501 -0.00000000000E+00 -0.00000000000E+00 -0.17604135396E+02  0.17604135581E+02  0.25500000000E-02 0. -1.
    5000001    1    1    2    0    0  0.93177291657E+02 -0.37381066841E+02  0.67604752088E+03  0.68778528796E+03  0.77000000000E+02 0.  0.
   -5000001    1    1    2    0    0 -0.93177291657E+02  0.37381066841E+02  0.32929602507E+03  0.35276652897E+03  0.77000000000E+02 0.  0.
<mgrwt>
<rscale>  0 0.26838860E+03</rscale>
<asrwt>0</asrwt>
<pdfrwt beam="1">  1        2 0.14613541E+00 0.26838860E+03</pdfrwt>
<pdfrwt beam="2">  1       -2 0.25148761E-02 0.26838860E+03</pdfrwt>
<totfact> 0.15484448E+04</totfact>
</mgrwt>
</event>
<event>
 4    1  0.6782240E-004  0.2290911E+03  0.7818608E-02  0.1127281E+00
          2   -1    0    0  501    0  0.00000000000E+00  0.00000000000E+00  0.24822509566E+04  0.24822509566E+04  0.25500000000E-02 0.  1.
         -2   -1    0    0    0  501 -0.00000000000E+00 -0.00000000000E+00 -0.52857991293E+01  0.52857997444E+01  0.25500000000E-02 0. -1.
    5000001    1    1    2    0    0 -0.74486597512E+02  0.33459130917E+01  0.16771671096E+04  0.16805885761E+04  0.77000000000E+02 0.  0.
   -5000001    1    1    2    0    0  0.74486597512E+02 -0.33459130917E+01  0.79979804780E+03  0.80694818025E+03  0.77000000000E+02 0.  0.
<mgrwt>
<rscale>  0 0.22909108E+03</rscale>
<asrwt>0</asrwt>
<pdfrwt beam="1">  1        2 0.35460727E+00 0.22909108E+03</pdfrwt>
<pdfrwt beam="2">  1       -2 0.75511422E-03 0.22909108E+03</pdfrwt>
<totfact> 0.16327521E+04</totfact>
</mgrwt>
</event>
<event>
 4    1  0.6782240E-004  0.2460209E+03  0.7818608E-02  0.1115846E+00
          2   -1    0    0  501    0  0.00000000000E+00  0.00000000000E+00  0.32743947174E+03  0.32743947175E+03  0.25500000000E-02 0.  1.
         -2   -1    0    0    0  501 -0.00000000000E+00 -0.00000000000E+00 -0.46211819143E+02  0.46211819213E+02  0.25500000000E-02 0. -1.
    5000001    1    1    2    0    0  0.95709539981E+02 -0.51754814710E+01  0.14658786226E+03  0.19132198780E+03  0.77000000000E+02 0.  0.
   -5000001    1    1    2    0    0 -0.95709539981E+02  0.51754814710E+01  0.13463979034E+03  0.18232930317E+03  0.77000000000E+02 0.  0.
<mgrwt>
<rscale>  0 0.24602092E+03</rscale>
<asrwt>0</asrwt>
<pdfrwt beam="1">  1        2 0.46777068E-01 0.24602092E+03</pdfrwt>
<pdfrwt beam="2">  1       -2 0.66016883E-02 0.24602092E+03</pdfrwt>
<totfact> 0.13536188E+04</totfact>
</mgrwt>
</event>
<event>
 4    1  0.6782240E-004  0.2042723E+03  0.7818608E-02  0.1146184E+00
          2   -1    0    0  501    0  0.00000000000E+00  0.00000000000E+00  0.14885256931E+03  0.14885256933E+03  0.25500000000E-02 0.  1.
         -2   -1    0    0    0  501 -0.00000000000E+00 -0.00000000000E+00 -0.70081410718E+02  0.70081410764E+02  0.25500000000E-02 0. -1.
    5000001    1    1    2    0    0  0.43585982572E+02 -0.50645513935E+02  0.46000444848E+02  0.11184697977E+03  0.77000000000E+02 0.  0.
   -5000001    1    1    2    0    0 -0.43585982572E+02  0.50645513935E+02  0.32770713744E+02  0.10708700032E+03  0.77000000000E+02 0.  0.
<mgrwt>
<rscale>  0 0.20427235E+03</rscale>
<asrwt>0</asrwt>
<pdfrwt beam="1">  1        2 0.21264653E-01 0.20427235E+03</pdfrwt>
<pdfrwt beam="2">  1       -2 0.10011630E-01 0.20427235E+03</pdfrwt>
<totfact> 0.16547712E+04</totfact>
</mgrwt>
</event>
<event>
 4    1  0.6782240E-004  0.1747572E+03  0.7818608E-02  0.1172976E+00
         -2   -1    0    0    0  501 -0.00000000000E+00  0.00000000000E+00  0.17294322942E+01  0.17294341742E+01  0.25500000000E-02 0. -1.
          2   -1    0    0  501    0  0.00000000000E+00 -0.00000000000E+00 -0.44147543017E+04  0.44147543017E+04  0.25500000000E-02 0.  1.
    5000001    1    1    2    0    0 -0.27351278084E+02  0.30769757513E+02 -0.21221156130E+04  0.21239111434E+04  0.77000000000E+02 0.  0.
   -5000001    1    1    2    0    0  0.27351278084E+02 -0.30769757513E+02 -0.22909092564E+04  0.22925725924E+04  0.77000000000E+02 0.  0.
<mgrwt>
<rscale>  0 0.17475724E+03</rscale>
<asrwt>0</asrwt>
<pdfrwt beam="1">  1        2 0.63067196E+00 0.17475724E+03</pdfrwt>
<pdfrwt beam="2">  1       -2 0.24706472E-03 0.17475724E+03</pdfrwt>
<totfact> 0.60352812E+03</totfact>
</mgrwt>
</event>
<event>
 4    1  0.6782240E-004  0.1837863E+03  0.7818608E-02  0.1164188E+00
         -2   -1    0    0    0  501 -0.00000000000E+00  0.00000000000E+00  0.22577413657E+02  0.22577413801E+02  0.25500000000E-02 0. -1.
          2   -1    0    0  501    0  0.00000000000E+00 -0.00000000000E+00 -0.37401768669E+03  0.37401768670E+03  0.25500000000E-02 0.  1.
    5000001    1    1    2    0    0  0.28296213889E+02 -0.39572420028E+02 -0.20203429807E+03  0.22161568027E+03  0.77000000000E+02 0.  0.
   -5000001    1    1    2    0    0 -0.28296213889E+02  0.39572420028E+02 -0.14940597497E+03  0.17497942023E+03  0.77000000000E+02 0.  0.
<mgrwt>
<rscale>  0 0.18378631E+03</rscale>
<asrwt>0</asrwt>
<pdfrwt beam="1">  1        2 0.53431094E-01 0.18378631E+03</pdfrwt>
<pdfrwt beam="2">  1       -2 0.32253450E-02 0.18378631E+03</pdfrwt>
<totfact> 0.33871835E+04</totfact>
</mgrwt>
</event>
<event>
 4    1  0.6782240E-004  0.2990781E+03  0.7818608E-02  0.1085702E+00
          2   -1    0    0  501    0  0.00000000000E+00  0.00000000000E+00  0.17041337143E+04  0.17041337143E+04  0.25500000000E-02 0.  1.
         -2   -1    0    0    0  501 -0.00000000000E+00 -0.00000000000E+00 -0.13122168865E+02  0.13122169112E+02  0.25500000000E-02 0. -1.
    5000001    1    1    2    0    0 -0.69333544391E+02  0.73835547409E+02  0.12966727193E+04  0.13028998309E+04  0.77000000000E+02 0.  0.
   -5000001    1    1    2    0    0  0.69333544391E+02 -0.73835547409E+02  0.39433882613E+03  0.41435605248E+03  0.77000000000E+02 0.  0.
<mgrwt>
<rscale>  0 0.29907812E+03</rscale>
<asrwt>0</asrwt>
<pdfrwt beam="1">  1        2 0.24344759E+00 0.29907812E+03</pdfrwt>
<pdfrwt beam="2">  1       -2 0.18745962E-02 0.29907812E+03</pdfrwt>
<totfact> 0.10508931E+04</totfact>
</mgrwt>
</event>
<event>
 4    1  0.6782240E-004  0.3609297E+03  0.7818608E-02  0.1058216E+00
          2   -1    0    0  501    0  0.00000000000E+00  0.00000000000E+00  0.21462635922E+03  0.21462635923E+03  0.25500000000E-02 0.  1.
         -2   -1    0    0    0  501 -0.00000000000E+00 -0.00000000000E+00 -0.15174076513E+03  0.15174076515E+03  0.25500000000E-02 0. -1.
    5000001    1    1    2    0    0 -0.16130776011E+03  0.24848219412E+02  0.32427196603E+02  0.18335253082E+03  0.77000000000E+02 0.  0.
   -5000001    1    1    2    0    0  0.16130776011E+03 -0.24848219412E+02  0.30458397486E+02  0.18301459356E+03  0.77000000000E+02 0.  0.
<mgrwt>
<rscale>  0 0.36092973E+03</rscale>
<asrwt>0</asrwt>
<pdfrwt beam="1">  1        2 0.30660908E-01 0.36092973E+03</pdfrwt>
<pdfrwt beam="2">  1       -2 0.21677252E-01 0.36092973E+03</pdfrwt>
<totfact> 0.31443592E+03</totfact>
</mgrwt>
</event>
<event>
 4    1  0.6782240E-004  0.2827925E+03  0.7818608E-02  0.1094173E+00
          2   -1    0    0  501    0  0.00000000000E+00  0.00000000000E+00  0.57497009973E+03  0.57497009973E+03  0.25500000000E-02 0.  1.
         -2   -1    0    0    0  501 -0.00000000000E+00 -0.00000000000E+00 -0.34772061015E+02  0.34772061108E+02  0.25500000000E-02 0. -1.
    5000001    1    1    2    0    0 -0.37823003581E+01 -0.11814320115E+03  0.29075459833E+03  0.32317078801E+03  0.77000000000E+02 0.  0.
   -5000001    1    1    2    0    0  0.37823003581E+01  0.11814320115E+03  0.24944344038E+03  0.28657137283E+03  0.77000000000E+02 0.  0.
<mgrwt>
<rscale>  0 0.28279247E+03</rscale>
<asrwt>0</asrwt>
<pdfrwt beam="1">  1        2 0.82138587E-01 0.28279247E+03</pdfrwt>
<pdfrwt beam="2">  1       -2 0.49674372E-02 0.28279247E+03</pdfrwt>
<totfact> 0.11379625E+04</totfact>
</mgrwt>
</event>
<event>
 4    1  0.6782240E-004  0.2286297E+03  0.7818608E-02  0.1127608E+00
         -2   -1    0    0    0  501 -0.00000000000E+00  0.00000000000E+00  0.13171435134E+03  0.13171435136E+03  0.25500000000E-02 0. -1.
          2   -1    0    0  501    0  0.00000000000E+00 -0.00000000000E+00 -0.99213852545E+02  0.99213852578E+02  0.25500000000E-02 0.  1.
    5000001    1    1    2    0    0  0.71192737953E+02 -0.45388488259E+02  0.12998029341E+02  0.11500638926E+03  0.77000000000E+02 0.  0.
   -5000001    1    1    2    0    0 -0.71192737953E+02  0.45388488259E+02  0.19502469448E+02  0.11592181468E+03  0.77000000000E+02 0.  0.
<mgrwt>
<rscale>  0 0.22862973E+03</rscale>
<asrwt>0</asrwt>
<pdfrwt beam="1">  1        2 0.14173407E-01 0.22862973E+03</pdfrwt>
<pdfrwt beam="2">  1       -2 0.18816336E-01 0.22862973E+03</pdfrwt>
<totfact> 0.95263146E+03</totfact>
</mgrwt>
</event>
<event>
 4    1  0.6782240E-004  0.3462126E+03  0.7818608E-02  0.1064180E+00
          2   -1    0    0  501    0  0.00000000000E+00  0.00000000000E+00  0.16690256862E+03  0.16690256864E+03  0.25500000000E-02 0.  1.
         -2   -1    0    0    0  501 -0.00000000000E+00 -0.00000000000E+00 -0.17954066934E+03  0.17954066936E+03  0.25500000000E-02 0. -1.
    5000001    1    1    2    0    0  0.27732829741E+02  0.31613859733E+02 -0.15564395146E+03  0.17866892734E+03  0.77000000000E+02 0.  0.
   -5000001    1    1    2    0    0 -0.27732829741E+02 -0.31613859733E+02  0.14300585073E+03  0.16777431065E+03  0.77000000000E+02 0.  0.
<mgrwt>
<rscale>  0 0.34621265E+03</rscale>
<asrwt>0</asrwt>
<pdfrwt beam="1">  1        2 0.23843224E-01 0.34621265E+03</pdfrwt>
<pdfrwt beam="2">  1       -2 0.25648667E-01 0.34621265E+03</pdfrwt>
<totfact> 0.30947202E+03</totfact>
</mgrwt>
</event>
<event>
 4    1  0.6782240E-004  0.2152401E+03  0.7818608E-02  0.1137482E+00
          2   -1    0    0  501    0  0.00000000000E+00  0.00000000000E+00  0.13636035429E+03  0.13636035431E+03  0.25500000000E-02 0.  1.
         -2   -1    0    0    0  501 -0.00000000000E+00 -0.00000000000E+00 -0.84937273308E+02  0.84937273346E+02  0.25500000000E-02 0. -1.
    5000001    1    1    2    0    0  0.15068155872E+02  0.66710082931E+02 -0.64052557139E+01  0.10318581195E+03  0.77000000000E+02 0.  0.
   -5000001    1    1    2    0    0 -0.15068155872E+02 -0.66710082931E+02  0.57828336692E+02  0.11811181571E+03  0.77000000000E+02 0.  0.
<mgrwt>
<rscale>  0 0.21524011E+03</rscale>
<asrwt>0</asrwt>
<pdfrwt beam="1">  1        2 0.19480051E-01 0.21524011E+03</pdfrwt>
<pdfrwt beam="2">  1       -2 0.12133896E-01 0.21524011E+03</pdfrwt>
<totfact> 0.13500197E+04</totfact>
</mgrwt>
</event>
<event>
 4    1  0.6782240E-004  0.3476898E+03  0.7818608E-02  0.1063567E+00
         -2   -1    0    0    0  501 -0.00000000000E+00  0.00000000000E+00  0.59900163476E+02  0.59900163531E+02  0.25500000000E-02 0. -1.
          2   -1    0    0  501    0  0.00000000000E+00 -0.00000000000E+00 -0.50454029840E+03  0.50454029840E+03  0.25500000000E-02 0.  1.
    5000001    1    1    2    0    0 -0.24894875065E+02 -0.14107149315E+03 -0.32202560274E+03  0.36076364812E+03  0.77000000000E+02 0.  0.
   -5000001    1    1    2    0    0  0.24894875065E+02  0.14107149315E+03 -0.12261453218E+03  0.20367681381E+03  0.77000000000E+02 0.  0.
<mgrwt>
<rscale>  0 0.34768978E+03</rscale>
<asrwt>0</asrwt>
<pdfrwt beam="1">  1        2 0.72077183E-01 0.34768978E+03</pdfrwt>
<pdfrwt beam="2">  1       -2 0.85571665E-02 0.34768978E+03</pdfrwt>
<totfact> 0.57187044E+03</totfact>
</mgrwt>
</event>
<event>
 4    1  0.6782240E-004  0.3062306E+03  0.7818608E-02  0.1082167E+00
          2   -1    0    0  501    0  0.00000000000E+00  0.00000000000E+00  0.30180379664E+03  0.30180379665E+03  0.25500000000E-02 0.  1.
         -2   -1    0    0    0  501 -0.00000000000E+00 -0.00000000000E+00 -0.77680574153E+02  0.77680574195E+02  0.25500000000E-02 0. -1.
    5000001    1    1    2    0    0 -0.89633030220E+02 -0.59639579410E+02  0.20744331032E+03  0.24607455483E+03  0.77000000000E+02 0.  0.
   -5000001    1    1    2    0    0  0.89633030220E+02  0.59639579410E+02  0.16679912164E+02  0.13340981601E+03  0.77000000000E+02 0.  0.
<mgrwt>
<rscale>  0 0.30623058E+03</rscale>
<asrwt>0</asrwt>
<pdfrwt beam="1">  1        2 0.43114828E-01 0.30623058E+03</pdfrwt>
<pdfrwt beam="2">  1       -2 0.11097225E-01 0.30623058E+03</pdfrwt>
<totfact> 0.65952987E+03</totfact>
</mgrwt>
</event>
<event>
 4    1  0.6782240E-004  0.1920550E+03  0.7818608E-02  0.1156621E+00
          2   -1    0    0  501    0  0.00000000000E+00  0.00000000000E+00  0.31147142117E+03  0.31147142118E+03  0.25500000000E-02 0.  1.
         -2   -1    0    0    0  501 -0.00000000000E+00 -0.00000000000E+00 -0.29605550863E+02  0.29605550973E+02  0.25500000000E-02 0. -1.
    5000001    1    1    2    0    0 -0.39609142292E+02  0.37690123378E+02  0.17183894963E+03  0.19607920381E+03  0.77000000000E+02 0.  0.
   -5000001    1    1    2    0    0  0.39609142292E+02 -0.37690123378E+02  0.11002692068E+03  0.14499776835E+03  0.77000000000E+02 0.  0.
<mgrwt>
<rscale>  0 0.19205502E+03</rscale>
<asrwt>0</asrwt>
<pdfrwt beam="1">  1        2 0.44495919E-01 0.19205502E+03</pdfrwt>
<pdfrwt beam="2">  1       -2 0.42293642E-02 0.19205502E+03</pdfrwt>
<totfact> 0.27607780E+04</totfact>
</mgrwt>
</event>
<event>
 4    1  0.6782240E-004  0.5126349E+03  0.7818608E-02  0.1010533E+00
          2   -1    0    0  501    0  0.00000000000E+00  0.00000000000E+00  0.28745351938E+04  0.28745351938E+04  0.25500000000E-02 0.  1.
         -2   -1    0    0    0  501 -0.00000000000E+00 -0.00000000000E+00 -0.22855392229E+02  0.22855392371E+02  0.25500000000E-02 0. -1.
    5000001    1    1    2    0    0 -0.20980508633E+03 -0.12071088912E+03  0.12316610981E+04  0.12575799591E+04  0.77000000000E+02 0.  0.
   -5000001    1    1    2    0    0  0.20980508633E+03  0.12071088912E+03  0.16200187035E+04  0.16398106271E+04  0.77000000000E+02 0.  0.
<mgrwt>
<rscale>  0 0.51263488E+03</rscale>
<asrwt>0</asrwt>
<pdfrwt beam="1">  1        2 0.41064817E+00 0.51263488E+03</pdfrwt>
<pdfrwt beam="2">  1       -2 0.32650538E-02 0.51263488E+03</pdfrwt>
<totfact> 0.11727213E+03</totfact>
</mgrwt>
</event>
<event>
 4    1  0.6782240E-004  0.2323749E+03  0.7818608E-02  0.1124979E+00
         -2   -1    0    0    0  501 -0.00000000000E+00  0.00000000000E+00  0.68856300412E+02  0.68856300459E+02  0.25500000000E-02 0. -1.
          2   -1    0    0  501    0  0.00000000000E+00 -0.00000000000E+00 -0.19605361032E+03  0.19605361034E+03  0.25500000000E-02 0.  1.
    5000001    1    1    2    0    0  0.63009895751E+02 -0.42357699595E+02 -0.11204716192E+03  0.15571765530E+03  0.77000000000E+02 0.  0.
   -5000001    1    1    2    0    0 -0.63009895751E+02  0.42357699595E+02 -0.15150147995E+02  0.10919225550E+03  0.77000000000E+02 0.  0.
<mgrwt>
<rscale>  0 0.23237492E+03</rscale>
<asrwt>0</asrwt>
<pdfrwt beam="1">  1        2 0.28007658E-01 0.23237492E+03</pdfrwt>
<pdfrwt beam="2">  1       -2 0.98366144E-02 0.23237492E+03</pdfrwt>
<totfact> 0.12620049E+04</totfact>
</mgrwt>
</event>
<event>
 4    1  0.6782240E-004  0.2441186E+03  0.7818608E-02  0.1117079E+00
          2   -1    0    0  501    0  0.00000000000E+00  0.00000000000E+00  0.51488361424E+03  0.51488361425E+03  0.25500000000E-02 0.  1.
         -2   -1    0    0    0  501 -0.00000000000E+00 -0.00000000000E+00 -0.28935613402E+02  0.28935613514E+02  0.25500000000E-02 0. -1.
    5000001    1    1    2    0    0 -0.52837139142E+02  0.31176401615E+02  0.82244720636E+02  0.12828454842E+03  0.77000000000E+02 0.  0.
   -5000001    1    1    2    0    0  0.52837139142E+02 -0.31176401615E+02  0.40370328020E+03  0.41553467934E+03  0.77000000000E+02 0.  0.
<mgrwt>
<rscale>  0 0.24411860E+03</rscale>
<asrwt>0</asrwt>
<pdfrwt beam="1">  1        2 0.73554801E-01 0.24411860E+03</pdfrwt>
<pdfrwt beam="2">  1       -2 0.41336591E-02 0.24411860E+03</pdfrwt>
<totfact> 0.16879635E+04</totfact>
</mgrwt>
</event>
<event>
 4    1  0.6782240E-004  0.1792266E+03  0.7818608E-02  0.1168554E+00
         -2   -1    0    0    0  501 -0.00000000000E+00  0.00000000000E+00  0.39856480433E+01  0.39856488591E+01  0.25500000000E-02 0. -1.
          2   -1    0    0  501    0  0.00000000000E+00 -0.00000000000E+00 -0.20148644632E+04  0.20148644632E+04  0.25500000000E-02 0.  1.
    5000001    1    1    2    0    0 -0.37082158357E+02 -0.19570193516E+02 -0.12141965401E+04  0.12173579248E+04  0.77000000000E+02 0.  0.
   -5000001    1    1    2    0    0  0.37082158357E+02  0.19570193516E+02 -0.79668227505E+03  0.80149218731E+03  0.77000000000E+02 0.  0.
<mgrwt>
<rscale>  0 0.17922658E+03</rscale>
<asrwt>0</asrwt>
<pdfrwt beam="1">  1        2 0.28783713E+00 0.17922658E+03</pdfrwt>
<pdfrwt beam="2">  1       -2 0.56937964E-03 0.17922658E+03</pdfrwt>
<totfact> 0.40864260E+04</totfact>
</mgrwt>
</event>
<event>
 4    1  0.6782240E-004  0.2212319E+03  0.7818608E-02  0.1132968E+00
         -2   -1    0    0    0  501 -0.00000000000E+00  0.00000000000E+00  0.18709474501E+03  0.18709474503E+03  0.25500000000E-02 0. -1.
          2   -1    0    0  501    0  0.00000000000E+00 -0.00000000000E+00 -0.65399422428E+02  0.65399422478E+02  0.25500000000E-02 0.  1.
    5000001    1    1    2    0    0  0.57499770522E+02  0.30513651267E+02  0.11276888222E+03  0.15127170033E+03  0.77000000000E+02 0.  0.
   -5000001    1    1    2    0    0 -0.57499770522E+02 -0.30513651267E+02  0.89264403633E+01  0.10122246718E+03  0.77000000000E+02 0.  0.
<mgrwt>
<rscale>  0 0.22123190E+03</rscale>
<asrwt>0</asrwt>
<pdfrwt beam="1">  1        2 0.93427744E-02 0.22123190E+03</pdfrwt>
<pdfrwt beam="2">  1       -2 0.26727821E-01 0.22123190E+03</pdfrwt>
<totfact> 0.86011546E+03</totfact>
</mgrwt>
</event>
<event>
 4    1  0.6782240E-004  0.6347150E+03  0.7818608E-02  0.9835891E-01
         -2   -1    0    0    0  501 -0.00000000000E+00  0.00000000000E+00  0.21183741172E+03  0.21183741174E+03  0.25500000000E-02 0. -1.
          2   -1    0    0  501    0  0.00000000000E+00 -0.00000000000E+00 -0.47543906533E+03  0.47543906533E+03  0.25500000000E-02 0.  1.
    5000001    1    1    2    0    0 -0.26059971019E+03 -0.11362536658E+03 -0.25975524327E+03  0.39271455191E+03  0.77000000000E+02 0.  0.
   -5000001    1    1    2    0    0  0.26059971019E+03  0.11362536658E+03 -0.38464103373E+01  0.29456192516E+03  0.77000000000E+02 0.  0.
<mgrwt>
<rscale>  0 0.63471499E+03</rscale>
<asrwt>0</asrwt>
<pdfrwt beam="1">  1        2 0.67919866E-01 0.63471499E+03</pdfrwt>
<pdfrwt beam="2">  1       -2 0.30262487E-01 0.63471499E+03</pdfrwt>
<totfact> 0.72046318E+02</totfact>
</mgrwt>
</event>
<event>
 4    1  0.6782240E-004  0.2942346E+03  0.7818608E-02  0.1088159E+00
          2   -1    0    0  501    0  0.00000000000E+00  0.00000000000E+00  0.11052118647E+04  0.11052118647E+04  0.25500000000E-02 0.  1.
         -2   -1    0    0    0  501 -0.00000000000E+00 -0.00000000000E+00 -0.19583127114E+02  0.19583127280E+02  0.25500000000E-02 0. -1.
    5000001    1    1    2    0    0 -0.25874037507E+02 -0.48252099638E+02  0.11172426190E+03  0.14631828878E+03  0.77000000000E+02 0.  0.
   -5000001    1    1    2    0    0  0.25874037507E+02  0.48252099638E+02  0.97390447573E+03  0.97847670324E+03  0.77000000000E+02 0.  0.
<mgrwt>
<rscale>  0 0.29423463E+03</rscale>
<asrwt>0</asrwt>
<pdfrwt beam="1">  1        2 0.15788739E+00 0.29423463E+03</pdfrwt>
<pdfrwt beam="2">  1       -2 0.27975900E-02 0.29423463E+03</pdfrwt>
<totfact> 0.11899824E+04</totfact>
</mgrwt>
</event>
<event>
 4    1  0.6782240E-004  0.4299718E+03  0.7818608E-02  0.1033869E+00
         -2   -1    0    0    0  501 -0.00000000000E+00  0.00000000000E+00  0.95483479198E+02  0.95483479232E+02  0.25500000000E-02 0. -1.
          2   -1    0    0  501    0  0.00000000000E+00 -0.00000000000E+00 -0.48405164992E+03  0.48405164993E+03  0.25500000000E-02 0.  1.
    5000001    1    1    2    0    0  0.14538047292E+03 -0.13569426345E+03 -0.23098707290E+03  0.31437627596E+03  0.77000000000E+02 0.  0.
   -5000001    1    1    2    0    0 -0.14538047292E+03  0.13569426345E+03 -0.15758109782E+03  0.26515885320E+03  0.77000000000E+02 0.  0.
<mgrwt>
<rscale>  0 0.42997179E+03</rscale>
<asrwt>0</asrwt>
<pdfrwt beam="1">  1        2 0.69150234E-01 0.42997179E+03</pdfrwt>
<pdfrwt beam="2">  1       -2 0.13640497E-01 0.42997179E+03</pdfrwt>
<totfact> 0.28329837E+03</totfact>
</mgrwt>
</event>
<event>
 4    1  0.6782240E-004  0.2469618E+03  0.7818608E-02  0.1115240E+00
          2   -1    0    0  501    0  0.00000000000E+00  0.00000000000E+00  0.11158322373E+04  0.11158322373E+04  0.25500000000E-02 0.  1.
         -2   -1    0    0    0  501 -0.00000000000E+00 -0.00000000000E+00 -0.13664713654E+02  0.13664713892E+02  0.25500000000E-02 0. -1.
    5000001    1    1    2    0    0 -0.85430104855E+02 -0.29078288915E+02  0.70783639493E+03  0.71770830544E+03  0.77000000000E+02 0.  0.
   -5000001    1    1    2    0    0  0.85430104855E+02  0.29078288915E+02  0.39433112867E+03  0.41178864572E+03  0.77000000000E+02 0.  0.
<mgrwt>
<rscale>  0 0.24696176E+03</rscale>
<asrwt>0</asrwt>
<pdfrwt beam="1">  1        2 0.15940458E+00 0.24696176E+03</pdfrwt>
<pdfrwt beam="2">  1       -2 0.19521023E-02 0.24696176E+03</pdfrwt>
<totfact> 0.19836052E+04</totfact>
</mgrwt>
</event>
<event>
 4    1  0.6782240E-004  0.2100179E+03  0.7818608E-02  0.1141552E+00
         -2   -1    0    0    0  501 -0.00000000000E+00  0.00000000000E+00  0.14539783672E+02  0.14539783896E+02  0.25500000000E-02 0. -1.
          2   -1    0    0  501    0  0.00000000000E+00 -0.00000000000E+00 -0.75839367830E+03  0.75839367831E+03  0.25500000000E-02 0.  1.
    5000001    1    1    2    0    0  0.70796322077E+02  0.66513290140E+01 -0.34821221749E+03  0.36364420497E+03  0.77000000000E+02 0.  0.
   -5000001    1    1    2    0    0 -0.70796322077E+02 -0.66513290140E+01 -0.39564167714E+03  0.40928925723E+03  0.77000000000E+02 0.  0.
<mgrwt>
<rscale>  0 0.21001791E+03</rscale>
<asrwt>0</asrwt>
<pdfrwt beam="1">  1        2 0.10834193E+00 0.21001791E+03</pdfrwt>
<pdfrwt beam="2">  1       -2 0.20771125E-02 0.21001791E+03</pdfrwt>
<totfact> 0.29711053E+04</totfact>
</mgrwt>
</event>
<event>
 4    1  0.6782240E-004  0.2040895E+03  0.7818608E-02  0.1146334E+00
          2   -1    0    0  501    0  0.00000000000E+00  0.00000000000E+00  0.35088640344E+03  0.35088640345E+03  0.25500000000E-02 0.  1.
         -2   -1    0    0    0  501 -0.00000000000E+00 -0.00000000000E+00 -0.29676637489E+02  0.29676637598E+02  0.25500000000E-02 0. -1.
    5000001    1    1    2    0    0  0.24838650773E+02  0.52255238112E+02  0.22346891120E+03  0.24334116535E+03  0.77000000000E+02 0.  0.
   -5000001    1    1    2    0    0 -0.24838650773E+02 -0.52255238112E+02  0.97740854760E+02  0.13722187570E+03  0.77000000000E+02 0.  0.
<mgrwt>
<rscale>  0 0.20408948E+03</rscale>
<asrwt>0</asrwt>
<pdfrwt beam="1">  1        2 0.50126630E-01 0.20408948E+03</pdfrwt>
<pdfrwt beam="2">  1       -2 0.42395196E-02 0.20408948E+03</pdfrwt>
<totfact> 0.24335741E+04</totfact>
</mgrwt>
</event>
<event>
 4    1  0.6782240E-004  0.2104224E+03  0.7818608E-02  0.1141232E+00
          2   -1    0    0  501    0  0.00000000000E+00  0.00000000000E+00  0.88529331489E+03  0.88529331489E+03  0.25500000000E-02 0.  1.
         -2   -1    0    0    0  501 -0.00000000000E+00 -0.00000000000E+00 -0.12503645704E+02  0.12503645964E+02  0.25500000000E-02 0. -1.
    5000001    1    1    2    0    0 -0.14386682470E+02  0.51132086954E+02  0.23093366259E+03  0.24916023653E+03  0.77000000000E+02 0.  0.
   -5000001    1    1    2    0    0  0.14386682470E+02 -0.51132086954E+02  0.64185600659E+03  0.64863672433E+03  0.77000000000E+02 0.  0.
<mgrwt>
<rscale>  0 0.21042238E+03</rscale>
<asrwt>0</asrwt>
<pdfrwt beam="1">  1        2 0.12647050E+00 0.21042238E+03</pdfrwt>
<pdfrwt beam="2">  1       -2 0.17862348E-02 0.21042238E+03</pdfrwt>
<totfact> 0.30582821E+04</totfact>
</mgrwt>
</event>
<event>
 4    1  0.6782240E-004  0.2326159E+03  0.7818608E-02  0.1124812E+00
         -2   -1    0    0    0  501 -0.00000000000E+00  0.00000000000E+00  0.12795412025E+02  0.12795412279E+02  0.25500000000E-02 0. -1.
          2   -1    0    0  501    0  0.00000000000E+00 -0.00000000000E+00 -0.10572181640E+04  0.10572181640E+04  0.25500000000E-02 0.  1.
    5000001    1    1    2    0    0  0.28215585429E+02 -0.78054717581E+02 -0.39965285183E+03  0.41537941713E+03  0.77000000000E+02 0.  0.
   -5000001    1    1    2    0    0 -0.28215585429E+02  0.78054717581E+02 -0.64476990012E+03  0.65463415913E+03  0.77000000000E+02 0.  0.
<mgrwt>
<rscale>  0 0.23261593E+03</rscale>
<asrwt>0</asrwt>
<pdfrwt beam="1">  1        2 0.15103111E+00 0.23261593E+03</pdfrwt>
<pdfrwt beam="2">  1       -2 0.18279167E-02 0.23261593E+03</pdfrwt>
<totfact> 0.23497802E+04</totfact>
</mgrwt>
</event>
<event>
 4    1  0.6782240E-004  0.2443200E+03  0.7818608E-02  0.1116948E+00
         -2   -1    0    0    0  501 -0.00000000000E+00  0.00000000000E+00  0.16171120051E+02  0.16171120252E+02  0.25500000000E-02 0. -1.
          2   -1    0    0  501    0  0.00000000000E+00 -0.00000000000E+00 -0.92282214943E+03  0.92282214944E+03  0.25500000000E-02 0.  1.
    5000001    1    1    2    0    0  0.36933208380E+02 -0.81278572925E+02 -0.57629883423E+03  0.58823431949E+03  0.77000000000E+02 0.  0.
   -5000001    1    1    2    0    0 -0.36933208380E+02  0.81278572925E+02 -0.33035219515E+03  0.35075895019E+03  0.77000000000E+02 0.  0.
<mgrwt>
<rscale>  0 0.24432002E+03</rscale>
<asrwt>0</asrwt>
<pdfrwt beam="1">  1        2 0.13183170E+00 0.24432002E+03</pdfrwt>
<pdfrwt beam="2">  1       -2 0.23101606E-02 0.24432002E+03</pdfrwt>
<totfact> 0.20059670E+04</totfact>
</mgrwt>
</event>
<event>
 4    1  0.6782240E-004  0.3083154E+03  0.7818608E-02  0.1081156E+00
          2   -1    0    0  501    0  0.00000000000E+00  0.00000000000E+00  0.26361581299E+03  0.26361581300E+03  0.25500000000E-02 0.  1.
         -2   -1    0    0    0  501 -0.00000000000E+00 -0.00000000000E+00 -0.90148622056E+02  0.90148622092E+02  0.25500000000E-02 0. -1.
    5000001    1    1    2    0    0  0.13145908336E+03  0.18564860614E+02  0.70127519687E+02  0.16873948461E+03  0.77000000000E+02 0.  0.
   -5000001    1    1    2    0    0 -0.13145908336E+03 -0.18564860614E+02  0.10333967124E+03  0.18502495048E+03  0.77000000000E+02 0.  0.
<mgrwt>
<rscale>  0 0.30831544E+03</rscale>
<asrwt>0</asrwt>
<pdfrwt beam="1">  1        2 0.37659402E-01 0.30831544E+03</pdfrwt>
<pdfrwt beam="2">  1       -2 0.12878374E-01 0.30831544E+03</pdfrwt>
<totfact> 0.60015850E+03</totfact>
</mgrwt>
</event>
<event>
 4    1  0.6782240E-004  0.2837758E+03  0.7818608E-02  0.1093644E+00
          2   -1    0    0  501    0  0.00000000000E+00  0.00000000000E+00  0.31017294290E+04  0.31017294290E+04  0.25500000000E-02 0.  1.
         -2   -1    0    0    0  501 -0.00000000000E+00 -0.00000000000E+00 -0.64906274201E+01  0.64906279210E+01  0.25500000000E-02 0. -1.
    5000001    1    1    2    0    0 -0.75370304110E+02 -0.91227502248E+02  0.17025314012E+04  0.17083750501E+04  0.77000000000E+02 0.  0.
   -5000001    1    1    2    0    0  0.75370304110E+02  0.91227502248E+02  0.13927074004E+04  0.13998450068E+04  0.77000000000E+02 0.  0.
<mgrwt>
<rscale>  0 0.28377576E+03</rscale>
<asrwt>0</asrwt>
<pdfrwt beam="1">  1        2 0.44310441E+00 0.28377576E+03</pdfrwt>
<pdfrwt beam="2">  1       -2 0.92723210E-03 0.28377576E+03</pdfrwt>
<totfact> 0.58269741E+03</totfact>
</mgrwt>
</event>
<event>
 4    1  0.6782240E-004  0.1927983E+03  0.7818608E-02  0.1155961E+00
         -2   -1    0    0    0  501 -0.00000000000E+00  0.00000000000E+00  0.44056679412E+01  0.44056686791E+01  0.25500000000E-02 0. -1.
          2   -1    0    0  501    0  0.00000000000E+00 -0.00000000000E+00 -0.21092825195E+04  0.21092825195E+04  0.25500000000E-02 0.  1.
    5000001    1    1    2    0    0  0.11760364369E+02  0.48936323477E+02 -0.73645275016E+03  0.74217566865E+03  0.77000000000E+02 0.  0.
   -5000001    1    1    2    0    0 -0.11760364369E+02 -0.48936323477E+02 -0.13684241014E+04  0.13715125195E+04  0.77000000000E+02 0.  0.
<mgrwt>
<rscale>  0 0.19279833E+03</rscale>
<asrwt>0</asrwt>
<pdfrwt beam="1">  1        2 0.30132543E+00 0.19279833E+03</pdfrwt>
<pdfrwt beam="2">  1       -2 0.62938254E-03 0.19279833E+03</pdfrwt>
<totfact> 0.32027488E+04</totfact>
</mgrwt>
</event>
<event>
 4    1  0.6782240E-004  0.1847109E+03  0.7818608E-02  0.1163320E+00
         -2   -1    0    0    0  501 -0.00000000000E+00  0.00000000000E+00  0.59073554918E+01  0.59073560422E+01  0.25500000000E-02 0. -1.
          2   -1    0    0  501    0  0.00000000000E+00 -0.00000000000E+00 -0.14438830520E+04  0.14438830520E+04  0.25500000000E-02 0.  1.
    5000001    1    1    2    0    0 -0.12370348178E+02 -0.49244854950E+02 -0.68179861772E+03  0.68800903801E+03  0.77000000000E+02 0.  0.
   -5000001    1    1    2    0    0  0.12370348178E+02  0.49244854950E+02 -0.75617707882E+03  0.76178137007E+03  0.77000000000E+02 0.  0.
<mgrwt>
<rscale>  0 0.18471092E+03</rscale>
<asrwt>0</asrwt>
<pdfrwt beam="1">  1        2 0.20626878E+00 0.18471092E+03</pdfrwt>
<pdfrwt beam="2">  1       -2 0.84390889E-03 0.18471092E+03</pdfrwt>
<totfact> 0.44201509E+04</totfact>
</mgrwt>
</event>
<event>
 4    1  0.6782240E-004  0.2577567E+03  0.7818608E-02  0.1108499E+00
         -2   -1    0    0    0  501 -0.00000000000E+00  0.00000000000E+00  0.20507967886E+02  0.20507968044E+02  0.25500000000E-02 0. -1.
          2   -1    0    0  501    0  0.00000000000E+00 -0.00000000000E+00 -0.80991082107E+03  0.80991082107E+03  0.25500000000E-02 0.  1.
    5000001    1    1    2    0    0 -0.74265553982E+02 -0.63225703034E+02 -0.50479567664E+03  0.51986588384E+03  0.77000000000E+02 0.  0.
   -5000001    1    1    2    0    0  0.74265553982E+02  0.63225703034E+02 -0.28460717654E+03  0.31055290527E+03  0.77000000000E+02 0.  0.
<mgrwt>
<rscale>  0 0.25775667E+03</rscale>
<asrwt>0</asrwt>
<pdfrwt beam="1">  1        2 0.11570153E+00 0.25775667E+03</pdfrwt>
<pdfrwt beam="2">  1       -2 0.29297102E-02 0.25775667E+03</pdfrwt>
<totfact> 0.16709076E+04</totfact>
</mgrwt>
</event>
<event>
 4    1  0.6782240E-004  0.2731732E+03  0.7818608E-02  0.1099477E+00
          2   -1    0    0  501    0  0.00000000000E+00  0.00000000000E+00  0.49777576269E+03  0.49777576269E+03  0.25500000000E-02 0.  1.
         -2   -1    0    0    0  501 -0.00000000000E+00 -0.00000000000E+00 -0.37478508352E+02  0.37478508439E+02  0.25500000000E-02 0. -1.
    5000001    1    1    2    0    0  0.35617734082E+02  0.94323591026E+02  0.13098442616E+03  0.18234989087E+03  0.77000000000E+02 0.  0.
   -5000001    1    1    2    0    0 -0.35617734082E+02 -0.94323591026E+02  0.32931282817E+03  0.35290438026E+03  0.77000000000E+02 0.  0.
<mgrwt>
<rscale>  0 0.27317315E+03</rscale>
<asrwt>0</asrwt>
<pdfrwt beam="1">  1        2 0.71110823E-01 0.27317315E+03</pdfrwt>
<pdfrwt beam="2">  1       -2 0.53540727E-02 0.27317315E+03</pdfrwt>
<totfact> 0.11911460E+04</totfact>
</mgrwt>
</event>
<event>
 4    1  0.6782240E-004  0.2958787E+03  0.7818608E-02  0.1087319E+00
         -2   -1    0    0    0  501 -0.00000000000E+00  0.00000000000E+00  0.11582706393E+02  0.11582706674E+02  0.25500000000E-02 0. -1.
          2   -1    0    0  501    0  0.00000000000E+00 -0.00000000000E+00 -0.18895453534E+04  0.18895453534E+04  0.25500000000E-02 0.  1.
    5000001    1    1    2    0    0 -0.10334669168E+03 -0.45853604306E+02 -0.13009727213E+04  0.13081445307E+04  0.77000000000E+02 0.  0.
   -5000001    1    1    2    0    0  0.10334669168E+03  0.45853604306E+02 -0.57698992571E+03  0.59298352935E+03  0.77000000000E+02 0.  0.
<mgrwt>
<rscale>  0 0.29587869E+03</rscale>
<asrwt>0</asrwt>
<pdfrwt beam="1">  1        2 0.26993485E+00 0.29587869E+03</pdfrwt>
<pdfrwt beam="2">  1       -2 0.16546736E-02 0.29587869E+03</pdfrwt>
<totfact> 0.10233086E+04</totfact>
</mgrwt>
</event>
<event>
 4    1  0.6782240E-004  0.2806252E+03  0.7818608E-02  0.1095348E+00
          2   -1    0    0  501    0  0.00000000000E+00  0.00000000000E+00  0.86825135163E+03  0.86825135163E+03  0.25500000000E-02 0.  1.
         -2   -1    0    0    0  501 -0.00000000000E+00 -0.00000000000E+00 -0.22675037740E+02  0.22675037883E+02  0.25500000000E-02 0. -1.
    5000001    1    1    2    0    0  0.10587419988E+03 -0.48078350270E+02  0.47174156099E+03  0.49192476491E+03  0.77000000000E+02 0.  0.
   -5000001    1    1    2    0    0 -0.10587419988E+03  0.48078350270E+02  0.37383475289E+03  0.39900162460E+03  0.77000000000E+02 0.  0.
<mgrwt>
<rscale>  0 0.28062525E+03</rscale>
<asrwt>0</asrwt>
<pdfrwt beam="1">  1        2 0.12403591E+00 0.28062525E+03</pdfrwt>
<pdfrwt beam="2">  1       -2 0.32392910E-02 0.28062525E+03</pdfrwt>
<totfact> 0.13229295E+04</totfact>
</mgrwt>
</event>
<event>
 4    1  0.6782240E-004  0.1807315E+03  0.7818608E-02  0.1167097E+00
         -2   -1    0    0    0  501 -0.00000000000E+00  0.00000000000E+00  0.17811387116E+02  0.17811387298E+02  0.25500000000E-02 0. -1.
          2   -1    0    0  501    0  0.00000000000E+00 -0.00000000000E+00 -0.45846914693E+03  0.45846914694E+03  0.25500000000E-02 0.  1.
    5000001    1    1    2    0    0 -0.41628670164E+02 -0.18861901533E+02 -0.25241610094E+03  0.26782756677E+03  0.77000000000E+02 0.  0.
   -5000001    1    1    2    0    0  0.41628670164E+02  0.18861901533E+02 -0.18824165888E+03  0.20845296747E+03  0.77000000000E+02 0.  0.
<mgrwt>
<rscale>  0 0.18073153E+03</rscale>
<asrwt>0</asrwt>
<pdfrwt beam="1">  1        2 0.65495585E-01 0.18073153E+03</pdfrwt>
<pdfrwt beam="2">  1       -2 0.25444842E-02 0.18073153E+03</pdfrwt>
<totfact> 0.38553158E+04</totfact>
</mgrwt>
</event>
<event>
 4    1  0.6782240E-004  0.2834301E+03  0.7818608E-02  0.1093830E+00
         -2   -1    0    0    0  501 -0.00000000000E+00  0.00000000000E+00  0.10950163697E+03  0.10950163700E+03  0.25500000000E-02 0. -1.
          2   -1    0    0  501    0  0.00000000000E+00 -0.00000000000E+00 -0.18340508817E+03  0.18340508819E+03  0.25500000000E-02 0.  1.
    5000001    1    1    2    0    0  0.64188537730E+02 -0.99816390840E+02 -0.28263665495E+02  0.14426127354E+03  0.77000000000E+02 0.  0.
   -5000001    1    1    2    0    0 -0.64188537730E+02  0.99816390840E+02 -0.45639785707E+02  0.14864545165E+03  0.77000000000E+02 0.  0.
<mgrwt>
<rscale>  0 0.28343011E+03</rscale>
<asrwt>0</asrwt>
<pdfrwt beam="1">  1        2 0.26200727E-01 0.28343011E+03</pdfrwt>
<pdfrwt beam="2">  1       -2 0.15643091E-01 0.28343011E+03</pdfrwt>
<totfact> 0.64699930E+03</totfact>
</mgrwt>
</event>
<event>
 4    1  0.6782240E-004  0.1900119E+03  0.7818608E-02  0.1158451E+00
          2   -1    0    0  501    0  0.00000000000E+00  0.00000000000E+00  0.51985439642E+02  0.51985439704E+02  0.25500000000E-02 0.  1.
         -2   -1    0    0    0  501 -0.00000000000E+00 -0.00000000000E+00 -0.17362807267E+03  0.17362807268E+03  0.25500000000E-02 0. -1.
    5000001    1    1    2    0    0  0.28360156921E+02  0.47809775409E+02 -0.57666727309E+02  0.11110591597E+03  0.77000000000E+02 0.  0.
   -5000001    1    1    2    0    0 -0.28360156921E+02 -0.47809775409E+02 -0.63975905715E+02  0.11450759642E+03  0.77000000000E+02 0.  0.
<mgrwt>
<rscale>  0 0.19001191E+03</rscale>
<asrwt>0</asrwt>
<pdfrwt beam="1">  1        2 0.74264915E-02 0.19001191E+03</pdfrwt>
<pdfrwt beam="2">  1       -2 0.24804010E-01 0.19001191E+03</pdfrwt>
<totfact> 0.12970986E+04</totfact>
</mgrwt>
</event>
<event>
 4    1  0.6782240E-004  0.3308831E+03  0.7818608E-02  0.1070747E+00
          2   -1    0    0  501    0  0.00000000000E+00  0.00000000000E+00  0.42412562179E+03  0.42412562180E+03  0.25500000000E-02 0.  1.
         -2   -1    0    0    0  501 -0.00000000000E+00 -0.00000000000E+00 -0.64534904020E+02  0.64534904071E+02  0.25500000000E-02 0. -1.
    5000001    1    1    2    0    0 -0.13815919623E+03  0.19914519372E+01  0.25138735513E+03  0.29701267936E+03  0.77000000000E+02 0.  0.
   -5000001    1    1    2    0    0  0.13815919623E+03 -0.19914519372E+01  0.10820336264E+03  0.19164784651E+03  0.77000000000E+02 0.  0.
<mgrwt>
<rscale>  0 0.33088310E+03</rscale>
<asrwt>0</asrwt>
<pdfrwt beam="1">  1        2 0.60589375E-01 0.33088310E+03</pdfrwt>
<pdfrwt beam="2">  1       -2 0.92192719E-02 0.33088310E+03</pdfrwt>
<totfact> 0.61477416E+03</totfact>
</mgrwt>
</event>
<event>
 4    1  0.6782240E-004  0.1979939E+03  0.7818608E-02  0.1151443E+00
         -2   -1    0    0    0  501 -0.00000000000E+00  0.00000000000E+00  0.96086345721E+01  0.96086349105E+01  0.25500000000E-02 0. -1.
          2   -1    0    0  501    0  0.00000000000E+00 -0.00000000000E+00 -0.10199570366E+04  0.10199570366E+04  0.25500000000E-02 0.  1.
    5000001    1    1    2    0    0  0.28737936771E+02 -0.21668406983E+02 -0.76909625975E+03  0.77377868001E+03  0.77000000000E+02 0.  0.
   -5000001    1    1    2    0    0 -0.28737936771E+02  0.21668406983E+02 -0.24125214229E+03  0.25578699152E+03  0.77000000000E+02 0.  0.
<mgrwt>
<rscale>  0 0.19799388E+03</rscale>
<asrwt>0</asrwt>
<pdfrwt beam="1">  1        2 0.14570808E+00 0.19799388E+03</pdfrwt>
<pdfrwt beam="2">  1       -2 0.13726628E-02 0.19799388E+03</pdfrwt>
<totfact> 0.37076017E+04</totfact>
</mgrwt>
</event>
<event>
 4    1  0.6782240E-004  0.2168419E+03  0.7818608E-02  0.1136260E+00
          2   -1    0    0  501    0  0.00000000000E+00  0.00000000000E+00  0.41206716644E+04  0.41206716644E+04  0.25500000000E-02 0.  1.
         -2   -1    0    0    0  501 -0.00000000000E+00 -0.00000000000E+00 -0.28527134444E+01  0.28527145841E+01  0.25500000000E-02 0. -1.
    5000001    1    1    2    0    0  0.19858320114E+02  0.44180838579E+02  0.31806760406E+04  0.31819766458E+04  0.77000000000E+02 0.  0.
   -5000001    1    1    2    0    0 -0.19858320114E+02 -0.44180838579E+02  0.93714291036E+03  0.94154773316E+03  0.77000000000E+02 0.  0.
<mgrwt>
<rscale>  0 0.21684186E+03</rscale>
<asrwt>0</asrwt>
<pdfrwt beam="1">  1        2 0.58866076E+00 0.21684186E+03</pdfrwt>
<pdfrwt beam="2">  1       -2 0.40753515E-03 0.21684186E+03</pdfrwt>
<totfact> 0.47284203E+03</totfact>
</mgrwt>
</event>
<event>
 4    1  0.6782240E-004  0.5438631E+03  0.7818608E-02  0.1002924E+00
         -2   -1    0    0    0  501 -0.00000000000E+00  0.00000000000E+00  0.18687042916E+03  0.18687042918E+03  0.25500000000E-02 0. -1.
          2   -1    0    0  501    0  0.00000000000E+00 -0.00000000000E+00 -0.39571144327E+03  0.39571144328E+03  0.25500000000E-02 0.  1.
    5000001    1    1    2    0    0 -0.23657000581E+03 -0.56236020092E+01  0.13024241820E+02  0.24918993444E+03  0.77000000000E+02 0.  0.
   -5000001    1    1    2    0    0  0.23657000581E+03  0.56236020092E+01 -0.22186525593E+03  0.33339193802E+03  0.77000000000E+02 0.  0.
<mgrwt>
<rscale>  0 0.54386310E+03</rscale>
<asrwt>0</asrwt>
<pdfrwt beam="1">  1        2 0.56530206E-01 0.54386310E+03</pdfrwt>
<pdfrwt beam="2">  1       -2 0.26695776E-01 0.54386310E+03</pdfrwt>
<totfact> 0.11140155E+03</totfact>
</mgrwt>
</event>
<event>
 4    1  0.6782240E-004  0.3777924E+03  0.7818608E-02  0.1051753E+00
         -2   -1    0    0    0  501 -0.00000000000E+00  0.00000000000E+00  0.12153842723E+02  0.12153842991E+02  0.25500000000E-02 0. -1.
          2   -1    0    0  501    0  0.00000000000E+00 -0.00000000000E+00 -0.29358435725E+04  0.29358435725E+04  0.25500000000E-02 0.  1.
    5000001    1    1    2    0    0 -0.75393757039E+02  0.96207247521E+02 -0.51213408455E+03  0.53211875896E+03  0.77000000000E+02 0.  0.
   -5000001    1    1    2    0    0  0.75393757039E+02 -0.96207247521E+02 -0.24115556452E+04  0.24158786565E+04  0.77000000000E+02 0.  0.
<mgrwt>
<rscale>  0 0.37779244E+03</rscale>
<asrwt>0</asrwt>
<pdfrwt beam="1">  1        2 0.41940577E+00 0.37779244E+03</pdfrwt>
<pdfrwt beam="2">  1       -2 0.17362651E-02 0.37779244E+03</pdfrwt>
<totfact> 0.28341231E+03</totfact>
</mgrwt>
</event>
<event>
 4    1  0.6782240E-004  0.2303537E+03  0.7818608E-02  0.1126391E+00
          2   -1    0    0  501    0  0.00000000000E+00  0.00000000000E+00  0.17112026496E+04  0.17112026496E+04  0.25500000000E-02 0. -1.
         -2   -1    0    0    0  501 -0.00000000000E+00 -0.00000000000E+00 -0.77522681303E+01  0.77522685497E+01  0.25500000000E-02 0.  1.
    5000001    1    1    2    0    0  0.59980973914E+02  0.41273445810E+02  0.11883945540E+04  0.11931101502E+04  0.77000000000E+02 0.  0.
   -5000001    1    1    2    0    0 -0.59980973914E+02 -0.41273445810E+02  0.51505582753E+03  0.52584476800E+03  0.77000000000E+02 0.  0.
<mgrwt>
<rscale>  0 0.23035366E+03</rscale>
<asrwt>0</asrwt>
<pdfrwt beam="1">  1        2 0.24445730E+00 0.23035366E+03</pdfrwt>
<pdfrwt beam="2">  1       -2 0.11074679E-02 0.23035366E+03</pdfrwt>
<totfact> 0.22305487E+04</totfact>
</mgrwt>
</event>
<event>
 4    1  0.6782240E-004  0.3472983E+03  0.7818608E-02  0.1063729E+00
         -2   -1    0    0    0  501 -0.00000000000E+00  0.00000000000E+00  0.93755333546E+01  0.93755337014E+01  0.25500000000E-02 0. -1.
          2   -1    0    0  501    0  0.00000000000E+00 -0.00000000000E+00 -0.32162458062E+04  0.32162458062E+04  0.25500000000E-02 0.  1.
    5000001    1    1    2    0    0  0.15431089061E+03  0.99125276987E+01 -0.14386170571E+04  0.14489507052E+04  0.77000000000E+02 0.  0.
   -5000001    1    1    2    0    0 -0.15431089061E+03 -0.99125276987E+01 -0.17682532157E+04  0.17766706347E+04  0.77000000000E+02 0.  0.
<mgrwt>
<rscale>  0 0.34729826E+03</rscale>
<asrwt>0</asrwt>
<pdfrwt beam="1">  1        2 0.45946298E+00 0.34729826E+03</pdfrwt>
<pdfrwt beam="2">  1       -2 0.13393640E-02 0.34729826E+03</pdfrwt>
<totfact> 0.29360481E+03</totfact>
</mgrwt>
</event>
<event>
 4    1  0.6782240E-004  0.3919909E+03  0.7818608E-02  0.1046589E+00
          2   -1    0    0  501    0  0.00000000000E+00  0.00000000000E+00  0.24464481472E+04  0.24464481472E+04  0.25500000000E-02 0.  1.
         -2   -1    0    0    0  501 -0.00000000000E+00 -0.00000000000E+00 -0.15702032512E+02  0.15702032720E+02  0.25500000000E-02 0. -1.
    5000001    1    1    2    0    0 -0.14076515401E+03 -0.90904609177E+02  0.79841063155E+03  0.81943090809E+03  0.77000000000E+02 0.  0.
   -5000001    1    1    2    0    0  0.14076515401E+03  0.90904609177E+02  0.16323354831E+04  0.16427192718E+04  0.77000000000E+02 0.  0.
<mgrwt>
<rscale>  0 0.39199086E+03</rscale>
<asrwt>0</asrwt>
<pdfrwt beam="1">  1        2 0.34949214E+00 0.39199086E+03</pdfrwt>
<pdfrwt beam="2">  1       -2 0.22431504E-02 0.39199086E+03</pdfrwt>
<totfact> 0.34611037E+03</totfact>
</mgrwt>
</event>
<event>
 4    1  0.6782240E-004  0.1774853E+03  0.7818608E-02  0.1170259E+00
          2   -1    0    0  501    0  0.00000000000E+00  0.00000000000E+00  0.97252097285E+03  0.97252097285E+03  0.25500000000E-02 0.  1.
         -2   -1    0    0    0  501 -0.00000000000E+00 -0.00000000000E+00 -0.80977782253E+01  0.80977786268E+01  0.25500000000E-02 0. -1.
    5000001    1    1    2    0    0 -0.72571880822E+01 -0.38654083132E+02  0.59263760946E+03  0.59891163043E+03  0.77000000000E+02 0.  0.
   -5000001    1    1    2    0    0  0.72571880822E+01  0.38654083132E+02  0.37178558516E+03  0.38170712104E+03  0.77000000000E+02 0.  0.
<mgrwt>
<rscale>  0 0.17748532E+03</rscale>
<asrwt>0</asrwt>
<pdfrwt beam="1">  1        2 0.13893163E+00 0.17748532E+03</pdfrwt>
<pdfrwt beam="2">  1       -2 0.11568250E-02 0.17748532E+03</pdfrwt>
<totfact> 0.50164854E+04</totfact>
</mgrwt>
</event>
<event>
 4    1  0.6782240E-004  0.5390208E+03  0.7818608E-02  0.1004068E+00
         -2   -1    0    0    0  501 -0.00000000000E+00  0.00000000000E+00  0.23131552032E+03  0.23131552034E+03  0.25500000000E-02 0. -1.
          2   -1    0    0  501    0  0.00000000000E+00 -0.00000000000E+00 -0.31401202442E+03  0.31401202443E+03  0.25500000000E-02 0.  1.
    5000001    1    1    2    0    0  0.25652086683E+03 -0.23209386505E+02 -0.60682692835E+02  0.27559575460E+03  0.77000000000E+02 0.  0.
   -5000001    1    1    2    0    0 -0.25652086683E+03  0.23209386505E+02 -0.22013811263E+02  0.26973179017E+03  0.77000000000E+02 0.  0.
<mgrwt>
<rscale>  0 0.53902080E+03</rscale>
<asrwt>0</asrwt>
<pdfrwt beam="1">  1        2 0.44858860E-01 0.53902080E+03</pdfrwt>
<pdfrwt beam="2">  1       -2 0.33045075E-01 0.53902080E+03</pdfrwt>
<totfact> 0.97071512E+02</totfact>
</mgrwt>
</event>
<event>
 4    1  0.6782240E-004  0.3526603E+03  0.7818608E-02  0.1061528E+00
         -2   -1    0    0    0  501 -0.00000000000E+00  0.00000000000E+00  0.39090724534E+02  0.39090724617E+02  0.25500000000E-02 0. -1.
          2   -1    0    0  501    0  0.00000000000E+00 -0.00000000000E+00 -0.79538876577E+03  0.79538876578E+03  0.25500000000E-02 0.  1.
    5000001    1    1    2    0    0 -0.14870065911E+03 -0.54569496030E+02 -0.35784792806E+03  0.39884063927E+03  0.77000000000E+02 0.  0.
   -5000001    1    1    2    0    0  0.14870065911E+03  0.54569496030E+02 -0.39845011317E+03  0.43563885112E+03  0.77000000000E+02 0.  0.
<mgrwt>
<rscale>  0 0.35266031E+03</rscale>
<asrwt>0</asrwt>
<pdfrwt beam="1">  1        2 0.11362696E+00 0.35266031E+03</pdfrwt>
<pdfrwt beam="2">  1       -2 0.55843897E-02 0.35266031E+03</pdfrwt>
<totfact> 0.65223160E+03</totfact>
</mgrwt>
</event>
<event>
 4    1  0.6782240E-004  0.3027936E+03  0.7818608E-02  0.1083852E+00
         -2   -1    0    0    0  501 -0.00000000000E+00  0.00000000000E+00  0.27827362713E+03  0.27827362714E+03  0.25500000000E-02 0. -1.
          2   -1    0    0  501    0  0.00000000000E+00 -0.00000000000E+00 -0.82368541595E+02  0.82368541635E+02  0.25500000000E-02 0.  1.
    5000001    1    1    2    0    0  0.20192870935E+02 -0.79140793727E+02  0.21895388079E+03  0.24605044032E+03  0.77000000000E+02 0.  0.
   -5000001    1    1    2    0    0 -0.20192870935E+02  0.79140793727E+02 -0.23048795254E+02  0.11459172846E+03  0.77000000000E+02 0.  0.
<mgrwt>
<rscale>  0 0.30279361E+03</rscale>
<asrwt>0</asrwt>
<pdfrwt beam="1">  1        2 0.11766934E-01 0.30279361E+03</pdfrwt>
<pdfrwt beam="2">  1       -2 0.39753376E-01 0.30279361E+03</pdfrwt>
<totfact> 0.31554594E+03</totfact>
</mgrwt>
</event>
<event>
 4    1  0.6782240E-004  0.2040351E+03  0.7818608E-02  0.1146379E+00
          2   -1    0    0  501    0  0.00000000000E+00  0.00000000000E+00  0.44217759768E+02  0.44217759842E+02  0.25500000000E-02 0.  1.
         -2   -1    0    0    0  501 -0.00000000000E+00 -0.00000000000E+00 -0.23537108993E+03  0.23537108995E+03  0.25500000000E-02 0. -1.
    5000001    1    1    2    0    0  0.42161579590E+02  0.44872973144E+02 -0.13150355544E+03  0.16435743854E+03  0.77000000000E+02 0.  0.
   -5000001    1    1    2    0    0 -0.42161579590E+02 -0.44872973144E+02 -0.59649774728E+02  0.11523141124E+03  0.77000000000E+02 0.  0.
<mgrwt>
<rscale>  0 0.20403512E+03</rscale>
<asrwt>0</asrwt>
<pdfrwt beam="1">  1        2 0.63168230E-02 0.20403512E+03</pdfrwt>
<pdfrwt beam="2">  1       -2 0.33624441E-01 0.20403512E+03</pdfrwt>
<totfact> 0.92863419E+03</totfact>
</mgrwt>
</event>
<event>
 4    1  0.6782240E-004  0.2745739E+03  0.7818608E-02  0.1098690E+00
         -2   -1    0    0    0  501 -0.00000000000E+00  0.00000000000E+00  0.34819364313E+02  0.34819364406E+02  0.25500000000E-02 0. -1.
          2   -1    0    0  501    0  0.00000000000E+00 -0.00000000000E+00 -0.54129951842E+03  0.54129951843E+03  0.25500000000E-02 0.  1.
    5000001    1    1    2    0    0  0.74719358960E+02  0.47051427256E+02 -0.40340476502E+03  0.42007287921E+03  0.77000000000E+02 0.  0.
   -5000001    1    1    2    0    0 -0.74719358960E+02 -0.47051427256E+02 -0.10307538909E+03  0.15604600362E+03  0.77000000000E+02 0.  0.
<mgrwt>
<rscale>  0 0.27457389E+03</rscale>
<asrwt>0</asrwt>
<pdfrwt beam="1">  1        2 0.77328498E-01 0.27457389E+03</pdfrwt>
<pdfrwt beam="2">  1       -2 0.49741952E-02 0.27457389E+03</pdfrwt>
<totfact> 0.12139878E+04</totfact>
</mgrwt>
</event>
<event>
 4    1  0.6782240E-004  0.2940706E+03  0.7818608E-02  0.1088243E+00
         -2   -1    0    0    0  501 -0.00000000000E+00  0.00000000000E+00  0.13095788040E+02  0.13095788289E+02  0.25500000000E-02 0. -1.
          2   -1    0    0  501    0  0.00000000000E+00 -0.00000000000E+00 -0.16508649529E+04  0.16508649529E+04  0.25500000000E-02 0.  1.
    5000001    1    1    2    0    0  0.60330125467E+02 -0.10964020756E+03 -0.84971028027E+03  0.86232085649E+03  0.77000000000E+02 0.  0.
   -5000001    1    1    2    0    0 -0.60330125467E+02  0.10964020756E+03 -0.78805888458E+03  0.80163988469E+03  0.77000000000E+02 0.  0.
<mgrwt>
<rscale>  0 0.29407059E+03</rscale>
<asrwt>0</asrwt>
<pdfrwt beam="1">  1        2 0.23583772E+00 0.29407059E+03</pdfrwt>
<pdfrwt beam="2">  1       -2 0.18708279E-02 0.29407059E+03</pdfrwt>
<totfact> 0.11197026E+04</totfact>
</mgrwt>
</event>
<event>
 4    1  0.6782240E-004  0.2134454E+03  0.7818608E-02  0.1138866E+00
         -2   -1    0    0    0  501 -0.00000000000E+00  0.00000000000E+00  0.53182661774E+03  0.53182661775E+03  0.25500000000E-02 0. -1.
          2   -1    0    0  501    0  0.00000000000E+00 -0.00000000000E+00 -0.21416261163E+02  0.21416261315E+02  0.25500000000E-02 0.  1.
    5000001    1    1    2    0    0  0.69969023635E+02  0.30503844761E+01  0.31631007357E+03  0.33299554315E+03  0.77000000000E+02 0.  0.
   -5000001    1    1    2    0    0 -0.69969023635E+02 -0.30503844761E+01  0.19410028301E+03  0.22024733592E+03  0.77000000000E+02 0.  0.
<mgrwt>
<rscale>  0 0.21344543E+03</rscale>
<asrwt>0</asrwt>
<pdfrwt beam="1">  1        2 0.30594662E-02 0.21344543E+03</pdfrwt>
<pdfrwt beam="2">  1       -2 0.75975224E-01 0.21344543E+03</pdfrwt>
<totfact> 0.47780828E+03</totfact>
</mgrwt>
</event>
<event>
 4    1  0.6782240E-004  0.2042563E+03  0.7818608E-02  0.1146197E+00
          2   -1    0    0  501    0  0.00000000000E+00  0.00000000000E+00  0.32314968937E+03  0.32314968938E+03  0.25500000000E-02 0.  1.
         -2   -1    0    0    0  501 -0.00000000000E+00 -0.00000000000E+00 -0.32276569809E+02  0.32276569909E+02  0.25500000000E-02 0. -1.
    5000001    1    1    2    0    0  0.67068975455E+02  0.32826185217E+00  0.14835261621E+03  0.18009956680E+03  0.77000000000E+02 0.  0.
   -5000001    1    1    2    0    0 -0.67068975455E+02 -0.32826185217E+00  0.14252050335E+03  0.17532669249E+03  0.77000000000E+02 0.  0.
<mgrwt>
<rscale>  0 0.20425634E+03</rscale>
<asrwt>0</asrwt>
<pdfrwt beam="1">  1        2 0.46164240E-01 0.20425634E+03</pdfrwt>
<pdfrwt beam="2">  1       -2 0.46109387E-02 0.20425634E+03</pdfrwt>
<totfact> 0.23425072E+04</totfact>
</mgrwt>
</event>
<event>
 4    1  0.6782240E-004  0.2020749E+03  0.7818608E-02  0.1148000E+00
         -2   -1    0    0    0  501 -0.00000000000E+00  0.00000000000E+00  0.77159084349E+02  0.77159084391E+02  0.25500000000E-02 0. -1.
          2   -1    0    0  501    0  0.00000000000E+00 -0.00000000000E+00 -0.13230543610E+03  0.13230543612E+03  0.25500000000E-02 0.  1.
    5000001    1    1    2    0    0 -0.35488748895E+02  0.34098499171E+02  0.17100499193E+02  0.92970888005E+02  0.77000000000E+02 0.  0.
   -5000001    1    1    2    0    0  0.35488748895E+02 -0.34098499171E+02 -0.72246850940E+02  0.11649363251E+03  0.77000000000E+02 0.  0.
<mgrwt>
<rscale>  0 0.20207490E+03</rscale>
<asrwt>0</asrwt>
<pdfrwt beam="1">  1        2 0.18900777E-01 0.20207490E+03</pdfrwt>
<pdfrwt beam="2">  1       -2 0.11022726E-01 0.20207490E+03</pdfrwt>
<totfact> 0.16229776E+04</totfact>
</mgrwt>
</event>
<event>
 4    1  0.6782240E-004  0.2400161E+03  0.7818608E-02  0.1119782E+00
         -2   -1    0    0    0  501 -0.00000000000E+00  0.00000000000E+00  0.59165965042E+01  0.59165970537E+01  0.25500000000E-02 0. -1.
          2   -1    0    0  501    0  0.00000000000E+00 -0.00000000000E+00 -0.24341581810E+04  0.24341581810E+04  0.25500000000E-02 0.  1.
    5000001    1    1    2    0    0 -0.64197177940E+02  0.48772775226E+02 -0.76256426796E+03  0.77067069752E+03  0.77000000000E+02 0.  0.
   -5000001    1    1    2    0    0  0.64197177940E+02 -0.48772775226E+02 -0.16656773165E+04  0.16694040805E+04  0.77000000000E+02 0.  0.
<mgrwt>
<rscale>  0 0.24001610E+03</rscale>
<asrwt>0</asrwt>
<pdfrwt beam="1">  1        2 0.34773624E+00 0.24001610E+03</pdfrwt>
<pdfrwt beam="2">  1       -2 0.84522967E-03 0.24001610E+03</pdfrwt>
<totfact> 0.14673506E+04</totfact>
</mgrwt>
</event>
<event>
 4    1  0.6782240E-004  0.1922148E+03  0.7818608E-02  0.1156479E+00
         -2   -1    0    0    0  501 -0.00000000000E+00  0.00000000000E+00  0.20393013395E+02  0.20393013554E+02  0.25500000000E-02 0. -1.
          2   -1    0    0  501    0  0.00000000000E+00 -0.00000000000E+00 -0.45293098014E+03  0.45293098015E+03  0.25500000000E-02 0.  1.
    5000001    1    1    2    0    0  0.54410043606E+02 -0.13815385475E+02 -0.24705581522E+03  0.26479594702E+03  0.77000000000E+02 0.  0.
   -5000001    1    1    2    0    0 -0.54410043606E+02  0.13815385475E+02 -0.18548215152E+03  0.20852804668E+03  0.77000000000E+02 0.  0.
<mgrwt>
<rscale>  0 0.19221475E+03</rscale>
<asrwt>0</asrwt>
<pdfrwt beam="1">  1        2 0.64704419E-01 0.19221475E+03</pdfrwt>
<pdfrwt beam="2">  1       -2 0.29132879E-02 0.19221475E+03</pdfrwt>
<totfact> 0.32175623E+04</totfact>
</mgrwt>
</event>
<event>
 4    1  0.6782240E-004  0.2642934E+03  0.7818608E-02  0.1104591E+00
          2   -1    0    0  501    0  0.00000000000E+00  0.00000000000E+00  0.23888706947E+04  0.23888706948E+04  0.25500000000E-02 0.  1.
         -2   -1    0    0    0  501 -0.00000000000E+00 -0.00000000000E+00 -0.73100423047E+01  0.73100427495E+01  0.25500000000E-02 0. -1.
    5000001    1    1    2    0    0 -0.78926985826E+02  0.59631850831E+02  0.81168910887E+03  0.82131214296E+03  0.77000000000E+02 0.  0.
   -5000001    1    1    2    0    0  0.78926985826E+02 -0.59631850831E+02  0.15698715436E+04  0.15748685945E+04  0.77000000000E+02 0.  0.
<mgrwt>
<rscale>  0 0.26429337E+03</rscale>
<asrwt>0</asrwt>
<pdfrwt beam="1">  1        2 0.34126721E+00 0.26429337E+03</pdfrwt>
<pdfrwt beam="2">  1       -2 0.10442919E-02 0.26429337E+03</pdfrwt>
<totfact> 0.11391985E+04</totfact>
</mgrwt>
</event>
<event>
 4    1  0.6782240E-004  0.2574951E+03  0.7818608E-02  0.1108658E+00
          2   -1    0    0  501    0  0.00000000000E+00  0.00000000000E+00  0.84554105988E+03  0.84554105988E+03  0.25500000000E-02 0.  1.
         -2   -1    0    0    0  501 -0.00000000000E+00 -0.00000000000E+00 -0.19603938895E+02  0.19603939061E+02  0.25500000000E-02 0. -1.
    5000001    1    1    2    0    0 -0.12532206037E+02 -0.87632753680E+02  0.23485278787E+03  0.26252883208E+03  0.77000000000E+02 0.  0.
   -5000001    1    1    2    0    0  0.12532206037E+02  0.87632753680E+02  0.59108433312E+03  0.60261616686E+03  0.77000000000E+02 0.  0.
<mgrwt>
<rscale>  0 0.25749513E+03</rscale>
<asrwt>0</asrwt>
<pdfrwt beam="1">  1        2 0.12079157E+00 0.25749513E+03</pdfrwt>
<pdfrwt beam="2">  1       -2 0.28005630E-02 0.25749513E+03</pdfrwt>
<totfact> 0.16927586E+04</totfact>
</mgrwt>
</event>
<event>
 4    1  0.6782240E-004  0.3142825E+03  0.7818608E-02  0.1078311E+00
         -2   -1    0    0    0  501 -0.00000000000E+00  0.00000000000E+00  0.15563321924E+04  0.15563321924E+04  0.25500000000E-02 0. -1.
          2   -1    0    0  501    0  0.00000000000E+00 -0.00000000000E+00 -0.15866392188E+02  0.15866392393E+02  0.25500000000E-02 0.  1.
    5000001    1    1    2    0    0  0.12937973645E+03 -0.36088350247E+02  0.90473337955E+03  0.91788505452E+03  0.77000000000E+02 0.  0.
   -5000001    1    1    2    0    0 -0.12937973645E+03  0.36088350247E+02  0.63573242061E+03  0.65431353023E+03  0.77000000000E+02 0.  0.
<mgrwt>
<rscale>  0 0.31428253E+03</rscale>
<asrwt>0</asrwt>
<pdfrwt beam="1">  1        2 0.22666284E-02 0.31428253E+03</pdfrwt>
<pdfrwt beam="2">  1       -2 0.22233308E+00 0.31428253E+03</pdfrwt>
<totfact> 0.48407479E+02</totfact>
</mgrwt>
</event>
<event>
 4    1  0.6782240E-004  0.2256224E+03  0.7818608E-02  0.1129759E+00
         -2   -1    0    0    0  501 -0.00000000000E+00  0.00000000000E+00  0.11841027583E+02  0.11841027857E+02  0.25500000000E-02 0. -1.
          2   -1    0    0  501    0  0.00000000000E+00 -0.00000000000E+00 -0.10747688974E+04  0.10747688974E+04  0.25500000000E-02 0.  1.
    5000001    1    1    2    0    0  0.71942083783E+02 -0.19691722283E+02 -0.70063988299E+03  0.70879381557E+03  0.77000000000E+02 0.  0.
   -5000001    1    1    2    0    0 -0.71942083783E+02  0.19691722283E+02 -0.36228798678E+03  0.37781610965E+03  0.77000000000E+02 0.  0.
<mgrwt>
<rscale>  0 0.22562241E+03</rscale>
<asrwt>0</asrwt>
<pdfrwt beam="1">  1        2 0.15353835E+00 0.22562241E+03</pdfrwt>
<pdfrwt beam="2">  1       -2 0.16915761E-02 0.22562241E+03</pdfrwt>
<totfact> 0.25674129E+04</totfact>
</mgrwt>
</event>
<event>
 4    1  0.6782240E-004  0.2301732E+03  0.7818608E-02  0.1126518E+00
         -2   -1    0    0    0  501 -0.00000000000E+00  0.00000000000E+00  0.16038147597E+02  0.16038147800E+02  0.25500000000E-02 0. -1.
          2   -1    0    0  501    0  0.00000000000E+00 -0.00000000000E+00 -0.82583869018E+03  0.82583869019E+03  0.25500000000E-02 0.  1.
    5000001    1    1    2    0    0  0.25599319482E+02  0.45620590660E+02 -0.65241224601E+03  0.65901995584E+03  0.77000000000E+02 0.  0.
   -5000001    1    1    2    0    0 -0.25599319482E+02 -0.45620590660E+02 -0.15738829658E+03  0.18285688215E+03  0.77000000000E+02 0.  0.
<mgrwt>
<rscale>  0 0.23017318E+03</rscale>
<asrwt>0</asrwt>
<pdfrwt beam="1">  1        2 0.11797693E+00 0.23017318E+03</pdfrwt>
<pdfrwt beam="2">  1       -2 0.22911645E-02 0.23017318E+03</pdfrwt>
<totfact> 0.23315146E+04</totfact>
</mgrwt>
</event>
<event>
 4    1  0.6782240E-004  0.2215589E+03  0.7818608E-02  0.1132726E+00
          2   -1    0    0  501    0  0.00000000000E+00  0.00000000000E+00  0.67939959612E+03  0.67939959613E+03  0.25500000000E-02 0.  1.
         -2   -1    0    0    0  501 -0.00000000000E+00 -0.00000000000E+00 -0.18063139289E+02  0.18063139469E+02  0.25500000000E-02 0. -1.
    5000001    1    1    2    0    0  0.26758350499E+02 -0.46321792107E+02  0.51640887862E+03  0.52485126242E+03  0.77000000000E+02 0.  0.
   -5000001    1    1    2    0    0 -0.26758350499E+02  0.46321792107E+02  0.14492757821E+03  0.17261147317E+03  0.77000000000E+02 0.  0.
<mgrwt>
<rscale>  0 0.22155893E+03</rscale>
<asrwt>0</asrwt>
<pdfrwt beam="1">  1        2 0.97057074E-01 0.22155893E+03</pdfrwt>
<pdfrwt beam="2">  1       -2 0.25804488E-02 0.22155893E+03</pdfrwt>
<totfact> 0.24700353E+04</totfact>
</mgrwt>
</event>
<event>
 4    1  0.6782240E-004  0.1810111E+03  0.7818608E-02  0.1166828E+00
          2   -1    0    0  501    0  0.00000000000E+00  0.00000000000E+00  0.67879521704E+03  0.67879521704E+03  0.25500000000E-02 0.  1.
         -2   -1    0    0    0  501 -0.00000000000E+00 -0.00000000000E+00 -0.12067343514E+02  0.12067343784E+02  0.25500000000E-02 0. -1.
    5000001    1    1    2    0    0  0.25022909702E+02 -0.48672978419E+01  0.48662270440E+03  0.49333608528E+03  0.77000000000E+02 0.  0.
   -5000001    1    1    2    0    0 -0.25022909702E+02  0.48672978419E+01  0.18010516912E+03  0.19752647555E+03  0.77000000000E+02 0.  0.
<mgrwt>
<rscale>  0 0.18101111E+03</rscale>
<asrwt>0</asrwt>
<pdfrwt beam="1">  1        2 0.96970777E-01 0.18101111E+03</pdfrwt>
<pdfrwt beam="2">  1       -2 0.17239057E-02 0.18101111E+03</pdfrwt>
<totfact> 0.43946516E+04</totfact>
</mgrwt>
</event>
<event>
 4    1  0.6782240E-004  0.2780028E+03  0.7818608E-02  0.1096785E+00
          2   -1    0    0  501    0  0.00000000000E+00  0.00000000000E+00  0.55731728129E+02  0.55731728188E+02  0.25500000000E-02 0.  1.
         -2   -1    0    0    0  501 -0.00000000000E+00 -0.00000000000E+00 -0.34668564200E+03  0.34668564201E+03  0.25500000000E-02 0. -1.
    5000001    1    1    2    0    0 -0.61107072644E+02 -0.74768639666E+02 -0.23780129563E+03  0.26796059413E+03  0.77000000000E+02 0.  0.
   -5000001    1    1    2    0    0  0.61107072644E+02  0.74768639666E+02 -0.53152618245E+02  0.13445677607E+03  0.77000000000E+02 0.  0.
<mgrwt>
<rscale>  0 0.27800281E+03</rscale>
<asrwt>0</asrwt>
<pdfrwt beam="1">  1        2 0.79616756E-02 0.27800281E+03</pdfrwt>
<pdfrwt beam="2">  1       -2 0.49526519E-01 0.27800281E+03</pdfrwt>
<totfact> 0.33384549E+03</totfact>
</mgrwt>
</event>
<event>
 4    1  0.6782240E-004  0.2161124E+03  0.7818608E-02  0.1136815E+00
          2   -1    0    0  501    0  0.00000000000E+00  0.00000000000E+00  0.15469068915E+03  0.15469068917E+03  0.25500000000E-02 0.  1.
         -2   -1    0    0    0  501 -0.00000000000E+00 -0.00000000000E+00 -0.75480566298E+02  0.75480566341E+02  0.25500000000E-02 0. -1.
    5000001    1    1    2    0    0 -0.60757958598E+02  0.43697878624E+02  0.26731269402E+02  0.11065529763E+03  0.77000000000E+02 0.  0.
   -5000001    1    1    2    0    0  0.60757958598E+02 -0.43697878624E+02  0.52478853449E+02  0.11951595788E+03  0.77000000000E+02 0.  0.
<mgrwt>
<rscale>  0 0.21611239E+03</rscale>
<asrwt>0</asrwt>
<pdfrwt beam="1">  1        2 0.22098670E-01 0.21611239E+03</pdfrwt>
<pdfrwt beam="2">  1       -2 0.10782938E-01 0.21611239E+03</pdfrwt>
<totfact> 0.14137451E+04</totfact>
</mgrwt>
</event>
<event>
 4    1  0.6782240E-004  0.1934228E+03  0.7818608E-02  0.1155410E+00
          2   -1    0    0  501    0  0.00000000000E+00  0.00000000000E+00  0.11026157677E+04  0.11026157677E+04  0.25500000000E-02 0.  1.
         -2   -1    0    0    0  501 -0.00000000000E+00 -0.00000000000E+00 -0.84826448303E+01  0.84826452136E+01  0.25500000000E-02 0. -1.
    5000001    1    1    2    0    0  0.36512454060E+02 -0.45432398663E+02  0.57682456068E+03  0.58485283273E+03  0.77000000000E+02 0.  0.
   -5000001    1    1    2    0    0 -0.36512454060E+02  0.45432398663E+02  0.51730856217E+03  0.52624558017E+03  0.77000000000E+02 0.  0.
<mgrwt>
<rscale>  0 0.19342283E+03</rscale>
<asrwt>0</asrwt>
<pdfrwt beam="1">  1        2 0.15751657E+00 0.19342283E+03</pdfrwt>
<pdfrwt beam="2">  1       -2 0.12118062E-02 0.19342283E+03</pdfrwt>
<totfact> 0.39798868E+04</totfact>
</mgrwt>
</event>
<event>
 4    1  0.6782240E-004  0.3634968E+03  0.7818608E-02  0.1057208E+00
          2   -1    0    0  501    0  0.00000000000E+00  0.00000000000E+00  0.21056266198E+03  0.21056266200E+03  0.25500000000E-02 0.  1.
         -2   -1    0    0    0  501 -0.00000000000E+00 -0.00000000000E+00 -0.15687722446E+03  0.15687722448E+03  0.25500000000E-02 0. -1.
    5000001    1    1    2    0    0 -0.14524819791E+03 -0.77331201111E+02  0.21655550520E+02  0.18296206309E+03  0.77000000000E+02 0.  0.
   -5000001    1    1    2    0    0  0.14524819791E+03  0.77331201111E+02  0.32029887003E+02  0.18447782339E+03  0.77000000000E+02 0.  0.
<mgrwt>
<rscale>  0 0.36349683E+03</rscale>
<asrwt>0</asrwt>
<pdfrwt beam="1">  1        2 0.30080380E-01 0.36349683E+03</pdfrwt>
<pdfrwt beam="2">  1       -2 0.22411032E-01 0.36349683E+03</pdfrwt>
<totfact> 0.30308342E+03</totfact>
</mgrwt>
</event>
<event>
 4    1  0.6782240E-004  0.3627362E+03  0.7818608E-02  0.1057506E+00
         -2   -1    0    0    0  501 -0.00000000000E+00  0.00000000000E+00  0.87507482903E+01  0.87507486618E+01  0.25500000000E-02 0. -1.
          2   -1    0    0  501    0  0.00000000000E+00 -0.00000000000E+00 -0.37590374986E+04  0.37590374986E+04  0.25500000000E-02 0.  1.
    5000001    1    1    2    0    0 -0.29731332411E+01  0.15269936863E+03 -0.25017770598E+04  0.25076170748E+04  0.77000000000E+02 0.  0.
   -5000001    1    1    2    0    0  0.29731332411E+01 -0.15269936863E+03 -0.12485096905E+04  0.12601711725E+04  0.77000000000E+02 0.  0.
<mgrwt>
<rscale>  0 0.36273622E+03</rscale>
<asrwt>0</asrwt>
<pdfrwt beam="1">  1        2 0.53700432E+00 0.36273622E+03</pdfrwt>
<pdfrwt beam="2">  1       -2 0.12501093E-02 0.36273622E+03</pdfrwt>
<totfact> 0.15632741E+03</totfact>
</mgrwt>
</event>
<event>
 4    1  0.6782240E-004  0.2494238E+03  0.7818608E-02  0.1113670E+00
          2   -1    0    0  501    0  0.00000000000E+00  0.00000000000E+00  0.19199298706E+03  0.19199298708E+03  0.25500000000E-02 0.  1.
         -2   -1    0    0    0  501 -0.00000000000E+00 -0.00000000000E+00 -0.81008463644E+02  0.81008463684E+02  0.25500000000E-02 0. -1.
    5000001    1    1    2    0    0 -0.47874411537E+02  0.75009599118E+02  0.10288662503E+02  0.11812390027E+03  0.77000000000E+02 0.  0.
   -5000001    1    1    2    0    0  0.47874411537E+02 -0.75009599118E+02  0.10069586091E+03  0.15487755049E+03  0.77000000000E+02 0.  0.
<mgrwt>
<rscale>  0 0.24942379E+03</rscale>
<asrwt>0</asrwt>
<pdfrwt beam="1">  1        2 0.27427570E-01 0.24942379E+03</pdfrwt>
<pdfrwt beam="2">  1       -2 0.11572638E-01 0.24942379E+03</pdfrwt>
<totfact> 0.10003580E+04</totfact>
</mgrwt>
</event>
<event>
 4    1  0.6782240E-004  0.1936691E+03  0.7818608E-02  0.1155193E+00
         -2   -1    0    0    0  501 -0.00000000000E+00  0.00000000000E+00  0.36609227060E+02  0.36609227149E+02  0.25500000000E-02 0. -1.
          2   -1    0    0  501    0  0.00000000000E+00 -0.00000000000E+00 -0.25613565676E+03  0.25613565677E+03  0.25500000000E-02 0.  1.
    5000001    1    1    2    0    0 -0.22512609731E+02  0.51441634806E+02 -0.13571956402E+03  0.16583684586E+03  0.77000000000E+02 0.  0.
   -5000001    1    1    2    0    0  0.22512609731E+02 -0.51441634806E+02 -0.83806865682E+02  0.12690803806E+03  0.77000000000E+02 0.  0.
<mgrwt>
<rscale>  0 0.19366908E+03</rscale>
<asrwt>0</asrwt>
<pdfrwt beam="1">  1        2 0.36590807E-01 0.19366908E+03</pdfrwt>
<pdfrwt beam="2">  1       -2 0.52298897E-02 0.19366908E+03</pdfrwt>
<totfact> 0.24740125E+04</totfact>
</mgrwt>
</event>
<event>
 4    1  0.6782240E-004  0.3673919E+03  0.7818608E-02  0.1055695E+00
         -2   -1    0    0    0  501 -0.00000000000E+00  0.00000000000E+00  0.14830234053E+02  0.14830234272E+02  0.25500000000E-02 0. -1.
          2   -1    0    0  501    0  0.00000000000E+00 -0.00000000000E+00 -0.22753651516E+04  0.22753651516E+04  0.25500000000E-02 0.  1.
    5000001    1    1    2    0    0 -0.12398361128E+03  0.11023673341E+03 -0.12366284918E+04  0.12500812374E+04  0.77000000000E+02 0.  0.
   -5000001    1    1    2    0    0  0.12398361128E+03 -0.11023673341E+03 -0.10239064257E+04  0.10401141485E+04  0.77000000000E+02 0.  0.
<mgrwt>
<rscale>  0 0.36739188E+03</rscale>
<asrwt>0</asrwt>
<pdfrwt beam="1">  1        2 0.32505194E+00 0.36739188E+03</pdfrwt>
<pdfrwt beam="2">  1       -2 0.21186063E-02 0.36739188E+03</pdfrwt>
<totfact> 0.45921126E+03</totfact>
</mgrwt>
</event>
<event>
 4    1  0.6782240E-004  0.3776188E+03  0.7818608E-02  0.1051817E+00
          2   -1    0    0  501    0  0.00000000000E+00  0.00000000000E+00  0.35030814363E+04  0.35030814363E+04  0.25500000000E-02 0.  1.
         -2   -1    0    0    0  501 -0.00000000000E+00 -0.00000000000E+00 -0.10176468329E+02  0.10176468649E+02  0.25500000000E-02 0. -1.
    5000001    1    1    2    0    0 -0.13711892808E+03 -0.78167210499E+02  0.23915887514E+04  0.23980278291E+04  0.77000000000E+02 0.  0.
   -5000001    1    1    2    0    0  0.13711892808E+03  0.78167210499E+02  0.11013162166E+04  0.11152300759E+04  0.77000000000E+02 0.  0.
<mgrwt>
<rscale>  0 0.37761884E+03</rscale>
<asrwt>0</asrwt>
<pdfrwt beam="1">  1        2 0.50044037E+00 0.37761884E+03</pdfrwt>
<pdfrwt beam="2">  1       -2 0.14537807E-02 0.37761884E+03</pdfrwt>
<totfact> 0.17815581E+03</totfact>
</mgrwt>
</event>
<event>
 4    1  0.6782240E-004  0.2400160E+03  0.7818608E-02  0.1119782E+00
          2   -1    0    0  501    0  0.00000000000E+00  0.00000000000E+00  0.74820344661E+02  0.74820344704E+02  0.25500000000E-02 0.  1.
         -2   -1    0    0    0  501 -0.00000000000E+00 -0.00000000000E+00 -0.19248674784E+03  0.19248674786E+03  0.25500000000E-02 0. -1.
    5000001    1    1    2    0    0 -0.62815857438E+02 -0.46935875906E+02 -0.11252391286E+03  0.15728775972E+03  0.77000000000E+02 0.  0.
   -5000001    1    1    2    0    0  0.62815857438E+02  0.46935875906E+02 -0.51424903228E+01  0.11001933284E+03  0.77000000000E+02 0.  0.
<mgrwt>
<rscale>  0 0.24001604E+03</rscale>
<asrwt>0</asrwt>
<pdfrwt beam="1">  1        2 0.10688621E-01 0.24001604E+03</pdfrwt>
<pdfrwt beam="2">  1       -2 0.27498107E-01 0.24001604E+03</pdfrwt>
<totfact> 0.69517696E+03</totfact>
</mgrwt>
</event>
<event>
 4    1  0.6782240E-004  0.4455072E+03  0.7818608E-02  0.1029070E+00
         -2   -1    0    0    0  501 -0.00000000000E+00  0.00000000000E+00  0.11994686714E+03  0.11994686717E+03  0.25500000000E-02 0. -1.
          2   -1    0    0  501    0  0.00000000000E+00 -0.00000000000E+00 -0.41367630177E+03  0.41367630178E+03  0.25500000000E-02 0.  1.
    5000001    1    1    2    0    0 -0.20442406508E+03 -0.35321572391E+02 -0.11624806569E+03  0.24995884589E+03  0.77000000000E+02 0.  0.
   -5000001    1    1    2    0    0  0.20442406508E+03  0.35321572391E+02 -0.17748136893E+03  0.28366432306E+03  0.77000000000E+02 0.  0.
<mgrwt>
<rscale>  0 0.44550725E+03</rscale>
<asrwt>0</asrwt>
<pdfrwt beam="1">  1        2 0.59096614E-01 0.44550725E+03</pdfrwt>
<pdfrwt beam="2">  1       -2 0.17135267E-01 0.44550725E+03</pdfrwt>
<totfact> 0.23029119E+03</totfact>
</mgrwt>
</event>
<event>
 4    1  0.6782240E-004  0.3670249E+03  0.7818608E-02  0.1055836E+00
         -2   -1    0    0    0  501 -0.00000000000E+00  0.00000000000E+00  0.49044051128E+02  0.49044051194E+02  0.25500000000E-02 0. -1.
          2   -1    0    0  501    0  0.00000000000E+00 -0.00000000000E+00 -0.68666486916E+03  0.68666486917E+03  0.25500000000E-02 0.  1.
    5000001    1    1    2    0    0  0.44543984108E+00 -0.79677020104E+02 -0.61204096421E+03  0.62199016698E+03  0.77000000000E+02 0.  0.
   -5000001    1    1    2    0    0 -0.44543984108E+00  0.79677020104E+02 -0.25579853828E+02  0.11371875338E+03  0.77000000000E+02 0.  0.
<mgrwt>
<rscale>  0 0.36702494E+03</rscale>
<asrwt>0</asrwt>
<pdfrwt beam="1">  1        2 0.98094976E-01 0.36702494E+03</pdfrwt>
<pdfrwt beam="2">  1       -2 0.70062934E-02 0.36702494E+03</pdfrwt>
<totfact> 0.54959942E+03</totfact>
</mgrwt>
</event>
<event>
 4    1  0.6782240E-004  0.4678645E+03  0.7818608E-02  0.1022525E+00
         -2   -1    0    0    0  501 -0.00000000000E+00  0.00000000000E+00  0.11835223729E+03  0.11835223731E+03  0.25500000000E-02 0. -1.
          2   -1    0    0  501    0  0.00000000000E+00 -0.00000000000E+00 -0.46238489205E+03  0.46238489206E+03  0.25500000000E-02 0.  1.
    5000001    1    1    2    0    0  0.96749835944E+02 -0.19767405199E+03 -0.19555840496E+03  0.30431505276E+03  0.77000000000E+02 0.  0.
   -5000001    1    1    2    0    0 -0.96749835944E+02  0.19767405199E+03 -0.14847424980E+03  0.27642207661E+03  0.77000000000E+02 0.  0.
<mgrwt>
<rscale>  0 0.46786445E+03</rscale>
<asrwt>0</asrwt>
<pdfrwt beam="1">  1        2 0.66054984E-01 0.46786445E+03</pdfrwt>
<pdfrwt beam="2">  1       -2 0.16907463E-01 0.46786445E+03</pdfrwt>
<totfact> 0.20830782E+03</totfact>
</mgrwt>
</event>
<event>
 4    1  0.6782240E-004  0.2159655E+03  0.7818608E-02  0.1136927E+00
          2   -1    0    0  501    0  0.00000000000E+00  0.00000000000E+00  0.37129387325E+04  0.37129387325E+04  0.25500000000E-02 0.  1.
         -2   -1    0    0    0  501 -0.00000000000E+00 -0.00000000000E+00 -0.31404416501E+01  0.31404426854E+01  0.25500000000E-02 0. -1.
    5000001    1    1    2    0    0  0.43048737276E+02 -0.62238189688E+02  0.18184656408E+04  0.18216676626E+04  0.77000000000E+02 0.  0.
   -5000001    1    1    2    0    0 -0.43048737276E+02  0.62238189688E+02  0.18913326501E+04  0.18944115127E+04  0.77000000000E+02 0.  0.
<mgrwt>
<rscale>  0 0.21596545E+03</rscale>
<asrwt>0</asrwt>
<pdfrwt beam="1">  1        2 0.53041836E+00 0.21596545E+03</pdfrwt>
<pdfrwt beam="2">  1       -2 0.44863583E-03 0.21596545E+03</pdfrwt>
<totfact> 0.74753019E+03</totfact>
</mgrwt>
</event>
<event>
 4    1  0.6782240E-004  0.2552735E+03  0.7818608E-02  0.1110017E+00
         -2   -1    0    0    0  501 -0.00000000000E+00  0.00000000000E+00  0.18454393120E+03  0.18454393121E+03  0.25500000000E-02 0. -1.
          2   -1    0    0  501    0  0.00000000000E+00 -0.00000000000E+00 -0.88277837583E+02  0.88277837620E+02  0.25500000000E-02 0.  1.
    5000001    1    1    2    0    0 -0.61422852104E+02 -0.80190504227E+02  0.34662836513E+02  0.13165787467E+03  0.77000000000E+02 0.  0.
   -5000001    1    1    2    0    0  0.61422852104E+02  0.80190504227E+02  0.61603257101E+02  0.14116389416E+03  0.77000000000E+02 0.  0.
<mgrwt>
<rscale>  0 0.25527349E+03</rscale>
<asrwt>0</asrwt>
<pdfrwt beam="1">  1        2 0.12611120E-01 0.25527349E+03</pdfrwt>
<pdfrwt beam="2">  1       -2 0.26363418E-01 0.25527349E+03</pdfrwt>
<totfact> 0.61420747E+03</totfact>
</mgrwt>
</event>
<event>
 4    1  0.6782240E-004  0.1947988E+03  0.7818608E-02  0.1154203E+00
         -2   -1    0    0    0  501 -0.00000000000E+00  0.00000000000E+00  0.33195960378E+02  0.33195960476E+02  0.25500000000E-02 0. -1.
          2   -1    0    0  501    0  0.00000000000E+00 -0.00000000000E+00 -0.28577712859E+03  0.28577712860E+03  0.25500000000E-02 0.  1.
    5000001    1    1    2    0    0  0.49630251885E+02 -0.21871931577E+01 -0.18034376774E+03  0.20228895244E+03  0.77000000000E+02 0.  0.
   -5000001    1    1    2    0    0 -0.49630251885E+02  0.21871931577E+01 -0.72237400471E+02  0.11668413664E+03  0.77000000000E+02 0.  0.
<mgrwt>
<rscale>  0 0.19479883E+03</rscale>
<asrwt>0</asrwt>
<pdfrwt beam="1">  1        2 0.40825303E-01 0.19479883E+03</pdfrwt>
<pdfrwt beam="2">  1       -2 0.47422802E-02 0.19479883E+03</pdfrwt>
<totfact> 0.25513721E+04</totfact>
</mgrwt>
</event>
<event>
 4    1  0.6782240E-004  0.2067913E+03  0.7818608E-02  0.1144132E+00
         -2   -1    0    0    0  501 -0.00000000000E+00  0.00000000000E+00  0.57211345216E+02  0.57211345273E+02  0.25500000000E-02 0. -1.
          2   -1    0    0  501    0  0.00000000000E+00 -0.00000000000E+00 -0.18686257822E+03  0.18686257823E+03  0.25500000000E-02 0.  1.
    5000001    1    1    2    0    0 -0.86306232505E+01  0.68456908108E+02 -0.65896729190E+02  0.12260593315E+03  0.77000000000E+02 0.  0.
   -5000001    1    1    2    0    0  0.86306232505E+01 -0.68456908108E+02 -0.63754503810E+02  0.12146799036E+03  0.77000000000E+02 0.  0.
<mgrwt>
<rscale>  0 0.20679129E+03</rscale>
<asrwt>0</asrwt>
<pdfrwt beam="1">  1        2 0.26694654E-01 0.20679129E+03</pdfrwt>
<pdfrwt beam="2">  1       -2 0.81730494E-02 0.20679129E+03</pdfrwt>
<totfact> 0.17662460E+04</totfact>
</mgrwt>
</event>
<event>
 4    1  0.6782240E-004  0.4125944E+03  0.7818608E-02  0.1039504E+00
          2   -1    0    0  501    0  0.00000000000E+00  0.00000000000E+00  0.90382819748E+03  0.90382819748E+03  0.25500000000E-02 0. -1.
         -2   -1    0    0    0  501 -0.00000000000E+00 -0.00000000000E+00 -0.47086963648E+02  0.47086963717E+02  0.25500000000E-02 0.  1.
    5000001    1    1    2    0    0 -0.74334411854E+00  0.18523750582E+03  0.31745531639E+03  0.37552678204E+03  0.77000000000E+02 0.  0.
   -5000001    1    1    2    0    0  0.74334411854E+00 -0.18523750582E+03  0.53928591744E+03  0.57538837916E+03  0.77000000000E+02 0.  0.
<mgrwt>
<rscale>  0 0.41259436E+03</rscale>
<asrwt>0</asrwt>
<pdfrwt beam="1">  1        2 0.12911831E+00 0.41259436E+03</pdfrwt>
<pdfrwt beam="2">  1       -2 0.67267091E-02 0.41259436E+03</pdfrwt>
<totfact> 0.41599198E+03</totfact>
</mgrwt>
</event>
<event>
 4    1  0.6782240E-004  0.2737207E+03  0.7818608E-02  0.1099169E+00
         -2   -1    0    0    0  501 -0.00000000000E+00  0.00000000000E+00  0.20321297909E+03  0.20321297911E+03  0.25500000000E-02 0. -1.
          2   -1    0    0  501    0  0.00000000000E+00 -0.00000000000E+00 -0.92173002827E+02  0.92173002862E+02  0.25500000000E-02 0.  1.
    5000001    1    1    2    0    0  0.10679626382E+03  0.32623066192E+02  0.75184364298E+02  0.15508512195E+03  0.77000000000E+02 0.  0.
   -5000001    1    1    2    0    0 -0.10679626382E+03 -0.32623066192E+02  0.35855611969E+02  0.14030086003E+03  0.77000000000E+02 0.  0.
<mgrwt>
<rscale>  0 0.27372066E+03</rscale>
<asrwt>0</asrwt>
<pdfrwt beam="1">  1        2 0.13167572E-01 0.27372066E+03</pdfrwt>
<pdfrwt beam="2">  1       -2 0.29030425E-01 0.27372066E+03</pdfrwt>
<totfact> 0.49197599E+03</totfact>
</mgrwt>
</event>
<event>
 4    1  0.6782240E-004  0.3520942E+03  0.7818608E-02  0.1061759E+00
          2   -1    0    0  501    0  0.00000000000E+00  0.00000000000E+00  0.53561769570E+03  0.53561769571E+03  0.25500000000E-02 0.  1.
         -2   -1    0    0    0  501 -0.00000000000E+00 -0.00000000000E+00 -0.57863261668E+02  0.57863261724E+02  0.25500000000E-02 0. -1.
    5000001    1    1    2    0    0  0.34931004324E+02 -0.15026526528E+03  0.29879841754E+03  0.34497727366E+03  0.77000000000E+02 0.  0.
   -5000001    1    1    2    0    0 -0.34931004324E+02  0.15026526528E+03  0.17895601649E+03  0.24850368378E+03  0.77000000000E+02 0.  0.
<mgrwt>
<rscale>  0 0.35209423E+03</rscale>
<asrwt>0</asrwt>
<pdfrwt beam="1">  1        2 0.76516815E-01 0.35209423E+03</pdfrwt>
<pdfrwt beam="2">  1       -2 0.82661801E-02 0.35209423E+03</pdfrwt>
<totfact> 0.56492532E+03</totfact>
</mgrwt>
</event>
<event>
 4    1  0.6782240E-004  0.1806079E+03  0.7818608E-02  0.1167216E+00
          2   -1    0    0  501    0  0.00000000000E+00  0.00000000000E+00  0.60021128563E+02  0.60021128617E+02  0.25500000000E-02 0.  1.
         -2   -1    0    0    0  501 -0.00000000000E+00 -0.00000000000E+00 -0.13586549564E+03  0.13586549566E+03  0.25500000000E-02 0. -1.
    5000001    1    1    2    0    0  0.37915983651E+02  0.10769196529E+02 -0.66042379009E+02  0.10883103066E+03  0.77000000000E+02 0.  0.
   -5000001    1    1    2    0    0 -0.37915983651E+02 -0.10769196529E+02 -0.98019880683E+01  0.87055593618E+02  0.77000000000E+02 0.  0.
<mgrwt>
<rscale>  0 0.18060787E+03</rscale>
<asrwt>0</asrwt>
<pdfrwt beam="1">  1        2 0.85744470E-02 0.18060787E+03</pdfrwt>
<pdfrwt beam="2">  1       -2 0.19409356E-01 0.18060787E+03</pdfrwt>
<totfact> 0.16435936E+04</totfact>
</mgrwt>
</event>
<event>
 4    1  0.6782240E-004  0.3368398E+03  0.7818608E-02  0.1068150E+00
          2   -1    0    0  501    0  0.00000000000E+00  0.00000000000E+00  0.34167406655E+03  0.34167406656E+03  0.25500000000E-02 0.  1.
         -2   -1    0    0    0  501 -0.00000000000E+00 -0.00000000000E+00 -0.83018490107E+02  0.83018490146E+02  0.25500000000E-02 0. -1.
    5000001    1    1    2    0    0 -0.12364503586E+02  0.14787786559E+03  0.15502865332E+03  0.22799918296E+03  0.77000000000E+02 0.  0.
   -5000001    1    1    2    0    0  0.12364503586E+02 -0.14787786559E+03  0.10362692312E+03  0.19669337374E+03  0.77000000000E+02 0.  0.
<mgrwt>
<rscale>  0 0.33683981E+03</rscale>
<asrwt>0</asrwt>
<pdfrwt beam="1">  1        2 0.48810582E-01 0.33683981E+03</pdfrwt>
<pdfrwt beam="2">  1       -2 0.11859784E-01 0.33683981E+03</pdfrwt>
<totfact> 0.51960221E+03</totfact>
</mgrwt>
</event>
<event>
 4    1  0.6782240E-004  0.2013354E+03  0.7818608E-02  0.1148617E+00
         -2   -1    0    0    0  501 -0.00000000000E+00  0.00000000000E+00  0.83687934948E+02  0.83687934986E+02  0.25500000000E-02 0. -1.
          2   -1    0    0  501    0  0.00000000000E+00 -0.00000000000E+00 -0.12109252288E+03  0.12109252290E+03  0.25500000000E-02 0.  1.
    5000001    1    1    2    0    0 -0.56765200910E+02  0.80800605920E+01  0.12104721854E+02  0.96763111280E+02  0.77000000000E+02 0.  0.
   -5000001    1    1    2    0    0  0.56765200910E+02 -0.80800605920E+01 -0.49509309784E+02  0.10801734661E+03  0.77000000000E+02 0.  0.
<mgrwt>
<rscale>  0 0.20133537E+03</rscale>
<asrwt>0</asrwt>
<pdfrwt beam="1">  1        2 0.17298932E-01 0.20133537E+03</pdfrwt>
<pdfrwt beam="2">  1       -2 0.11955419E-01 0.20133537E+03</pdfrwt>
<totfact> 0.15779357E+04</totfact>
</mgrwt>
</event>
<event>
 4    1  0.6782240E-004  0.2260625E+03  0.7818608E-02  0.1129442E+00
          2   -1    0    0  501    0  0.00000000000E+00  0.00000000000E+00  0.19537292462E+03  0.19537292464E+03  0.25500000000E-02 0.  1.
         -2   -1    0    0    0  501 -0.00000000000E+00 -0.00000000000E+00 -0.65393197676E+02  0.65393197726E+02  0.25500000000E-02 0. -1.
    5000001    1    1    2    0    0 -0.68694840668E+02  0.31168485478E+02  0.25760147176E+02  0.11082888073E+03  0.77000000000E+02 0.  0.
   -5000001    1    1    2    0    0  0.68694840668E+02 -0.31168485478E+02  0.10421957977E+03  0.14993724163E+03  0.77000000000E+02 0.  0.
<mgrwt>
<rscale>  0 0.22606247E+03</rscale>
<asrwt>0</asrwt>
<pdfrwt beam="1">  1        2 0.27910417E-01 0.22606247E+03</pdfrwt>
<pdfrwt beam="2">  1       -2 0.93418856E-02 0.22606247E+03</pdfrwt>
<totfact> 0.13720967E+04</totfact>
</mgrwt>
</event>
<event>
 4    1  0.6782240E-004  0.1863371E+03  0.7818608E-02  0.1161807E+00
         -2   -1    0    0    0  501 -0.00000000000E+00  0.00000000000E+00  0.98486754912E+02  0.98486754945E+02  0.25500000000E-02 0. -1.
          2   -1    0    0  501    0  0.00000000000E+00 -0.00000000000E+00 -0.88137516167E+02  0.88137516204E+02  0.25500000000E-02 0.  1.
    5000001    1    1    2    0    0 -0.45378482978E+02 -0.24930442771E+02  0.13592587340E+02  0.93778953527E+02  0.77000000000E+02 0.  0.
   -5000001    1    1    2    0    0  0.45378482978E+02  0.24930442771E+02 -0.32433485942E+01  0.92845317621E+02  0.77000000000E+02 0.  0.
<mgrwt>
<rscale>  0 0.18633709E+03</rscale>
<asrwt>0</asrwt>
<pdfrwt beam="1">  1        2 0.12591074E-01 0.18633709E+03</pdfrwt>
<pdfrwt beam="2">  1       -2 0.14069536E-01 0.18633709E+03</pdfrwt>
<totfact> 0.17537233E+04</totfact>
</mgrwt>
</event>
<event>
 4    1  0.6782240E-004  0.4036130E+03  0.7818608E-02  0.1042536E+00
         -2   -1    0    0    0  501 -0.00000000000E+00  0.00000000000E+00  0.43855158359E+02  0.43855158433E+02  0.25500000000E-02 0. -1.
          2   -1    0    0  501    0  0.00000000000E+00 -0.00000000000E+00 -0.92864469408E+03  0.92864469409E+03  0.25500000000E-02 0.  1.
    5000001    1    1    2    0    0 -0.15603499948E+03  0.60237550149E+02 -0.64139813772E+03  0.66730506860E+03  0.77000000000E+02 0.  0.
   -5000001    1    1    2    0    0  0.15603499948E+03 -0.60237550149E+02 -0.24339139801E+03  0.30519478392E+03  0.77000000000E+02 0.  0.
<mgrwt>
<rscale>  0 0.40361298E+03</rscale>
<asrwt>0</asrwt>
<pdfrwt beam="1">  1        2 0.13266352E+00 0.40361298E+03</pdfrwt>
<pdfrwt beam="2">  1       -2 0.62650232E-02 0.40361298E+03</pdfrwt>
<totfact> 0.44818661E+03</totfact>
</mgrwt>
</event>
<event>
 4    1  0.6782240E-004  0.3406105E+03  0.7818608E-02  0.1066536E+00
          2   -1    0    0  501    0  0.00000000000E+00  0.00000000000E+00  0.27875178545E+04  0.27875178545E+04  0.25500000000E-02 0.  1.
         -2   -1    0    0    0  501 -0.00000000000E+00 -0.00000000000E+00 -0.10404914897E+02  0.10404915209E+02  0.25500000000E-02 0. -1.
    5000001    1    1    2    0    0  0.10571713385E+03  0.71476875352E+02  0.71168362464E+03  0.72712284910E+03  0.77000000000E+02 0.  0.
   -5000001    1    1    2    0    0 -0.10571713385E+03 -0.71476875352E+02  0.20654293150E+04  0.20707999206E+04  0.77000000000E+02 0.  0.
<mgrwt>
<rscale>  0 0.34061055E+03</rscale>
<asrwt>0</asrwt>
<pdfrwt beam="1">  1        2 0.39821704E+00 0.34061055E+03</pdfrwt>
<pdfrwt beam="2">  1       -2 0.14864157E-02 0.34061055E+03</pdfrwt>
<totfact> 0.42735632E+03</totfact>
</mgrwt>
</event>
<event>
 4    1  0.6782240E-004  0.2344547E+03  0.7818608E-02  0.1123543E+00
          2   -1    0    0  501    0  0.00000000000E+00  0.00000000000E+00  0.13433384398E+04  0.13433384398E+04  0.25500000000E-02 0.  1.
         -2   -1    0    0    0  501 -0.00000000000E+00 -0.00000000000E+00 -0.10229922286E+02  0.10229922603E+02  0.25500000000E-02 0. -1.
    5000001    1    1    2    0    0  0.65659933903E+02 -0.55079494232E+02  0.54162341137E+03  0.55374172441E+03  0.77000000000E+02 0.  0.
   -5000001    1    1    2    0    0 -0.65659933903E+02  0.55079494232E+02  0.79148510616E+03  0.79982663802E+03  0.77000000000E+02 0.  0.
<mgrwt>
<rscale>  0 0.23445467E+03</rscale>
<asrwt>0</asrwt>
<pdfrwt beam="1">  1        2 0.19190554E+00 0.23445467E+03</pdfrwt>
<pdfrwt beam="2">  1       -2 0.14614171E-02 0.23445467E+03</pdfrwt>
<totfact> 0.22813721E+04</totfact>
</mgrwt>
</event>
<event>
 4    1  0.6782240E-004  0.1987847E+03  0.7818608E-02  0.1150768E+00
          2   -1    0    0  501    0  0.00000000000E+00  0.00000000000E+00  0.34826417913E+04  0.34826417913E+04  0.25500000000E-02 0.  1.
         -2   -1    0    0    0  501 -0.00000000000E+00 -0.00000000000E+00 -0.28365918372E+01  0.28365929834E+01  0.25500000000E-02 0. -1.
    5000001    1    1    2    0    0 -0.28485718833E+02 -0.55623808847E+02  0.18567252173E+04  0.18593716618E+04  0.77000000000E+02 0.  0.
   -5000001    1    1    2    0    0  0.28485718833E+02  0.55623808847E+02  0.16230799822E+04  0.16261067225E+04  0.77000000000E+02 0.  0.
<mgrwt>
<rscale>  0 0.19878466E+03</rscale>
<asrwt>0</asrwt>
<pdfrwt beam="1">  1        2 0.49752163E+00 0.19878466E+03</pdfrwt>
<pdfrwt beam="2">  1       -2 0.40522636E-03 0.19878466E+03</pdfrwt>
<totfact> 0.11798464E+04</totfact>
</mgrwt>
</event>
<event>
 4    1  0.6782240E-004  0.2253240E+03  0.7818608E-02  0.1129975E+00
          2   -1    0    0  501    0  0.00000000000E+00  0.00000000000E+00  0.63083227390E+03  0.63083227390E+03  0.25500000000E-02 0.  1.
         -2   -1    0    0    0  501 -0.00000000000E+00 -0.00000000000E+00 -0.20120605692E+02  0.20120605853E+02  0.25500000000E-02 0. -1.
    5000001    1    1    2    0    0  0.23332109828E+02 -0.77533336568E+02  0.34701323421E+03  0.36455862401E+03  0.77000000000E+02 0.  0.
   -5000001    1    1    2    0    0 -0.23332109828E+02  0.77533336568E+02  0.26369843400E+03  0.28639425574E+03  0.77000000000E+02 0.  0.
<mgrwt>
<rscale>  0 0.22532401E+03</rscale>
<asrwt>0</asrwt>
<pdfrwt beam="1">  1        2 0.90118879E-01 0.22532401E+03</pdfrwt>
<pdfrwt beam="2">  1       -2 0.28743728E-02 0.22532401E+03</pdfrwt>
<totfact> 0.22976134E+04</totfact>
</mgrwt>
</event>
<event>
 4    1  0.6782240E-004  0.2393119E+03  0.7818608E-02  0.1120252E+00
         -2   -1    0    0    0  501 -0.00000000000E+00  0.00000000000E+00  0.32620341176E+02  0.32620341275E+02  0.25500000000E-02 0. -1.
          2   -1    0    0  501    0  0.00000000000E+00 -0.00000000000E+00 -0.43891465941E+03  0.43891465942E+03  0.25500000000E-02 0.  1.
    5000001    1    1    2    0    0 -0.91201258750E+02 -0.41511720369E+00 -0.18657909494E+03  0.22149176190E+03  0.77000000000E+02 0.  0.
   -5000001    1    1    2    0    0  0.91201258750E+02  0.41511720369E+00 -0.21971522330E+03  0.25004323880E+03  0.77000000000E+02 0.  0.
<mgrwt>
<rscale>  0 0.23931190E+03</rscale>
<asrwt>0</asrwt>
<pdfrwt beam="1">  1        2 0.62702091E-01 0.23931190E+03</pdfrwt>
<pdfrwt beam="2">  1       -2 0.46600490E-02 0.23931190E+03</pdfrwt>
<totfact> 0.16764370E+04</totfact>
</mgrwt>
</event>
<event>
 4    1  0.6782240E-004  0.2680091E+03  0.7818608E-02  0.1102424E+00
          2   -1    0    0  501    0  0.00000000000E+00  0.00000000000E+00  0.62639210555E+03  0.62639210556E+03  0.25500000000E-02 0.  1.
         -2   -1    0    0    0  501 -0.00000000000E+00 -0.00000000000E+00 -0.28667693568E+02  0.28667693682E+02  0.25500000000E-02 0. -1.
    5000001    1    1    2    0    0 -0.27892264732E+02  0.10473238466E+03  0.33986064836E+03  0.36493987331E+03  0.77000000000E+02 0.  0.
   -5000001    1    1    2    0    0  0.27892264732E+02 -0.10473238466E+03  0.25786376363E+03  0.29011992593E+03  0.77000000000E+02 0.  0.
<mgrwt>
<rscale>  0 0.26800908E+03</rscale>
<asrwt>0</asrwt>
<pdfrwt beam="1">  1        2 0.89484581E-01 0.26800908E+03</pdfrwt>
<pdfrwt beam="2">  1       -2 0.40953851E-02 0.26800908E+03</pdfrwt>
<totfact> 0.13785657E+04</totfact>
</mgrwt>
</event>
<event>
 4    1  0.6782240E-004  0.1995917E+03  0.7818608E-02  0.1150084E+00
          2   -1    0    0  501    0  0.00000000000E+00  0.00000000000E+00  0.43404321444E+03  0.43404321445E+03  0.25500000000E-02 0.  1.
         -2   -1    0    0    0  501 -0.00000000000E+00 -0.00000000000E+00 -0.22945199771E+02  0.22945199913E+02  0.25500000000E-02 0. -1.
    5000001    1    1    2    0    0 -0.13871305603E+02  0.42167239275E+02  0.10163674847E+03  0.13501673165E+03  0.77000000000E+02 0.  0.
   -5000001    1    1    2    0    0  0.13871305603E+02 -0.42167239275E+02  0.30946126620E+03  0.32197168271E+03  0.77000000000E+02 0.  0.
<mgrwt>
<rscale>  0 0.19959167E+03</rscale>
<asrwt>0</asrwt>
<pdfrwt beam="1">  1        2 0.62006171E-01 0.19959167E+03</pdfrwt>
<pdfrwt beam="2">  1       -2 0.32778858E-02 0.19959167E+03</pdfrwt>
<totfact> 0.28379533E+04</totfact>
</mgrwt>
</event>
<event>
 4    1  0.6782240E-004  0.2128276E+03  0.7818608E-02  0.1139346E+00
          2   -1    0    0  501    0  0.00000000000E+00  0.00000000000E+00  0.51136994342E+03  0.51136994343E+03  0.25500000000E-02 0.  1.
         -2   -1    0    0    0  501 -0.00000000000E+00 -0.00000000000E+00 -0.22144242322E+02  0.22144242469E+02  0.25500000000E-02 0. -1.
    5000001    1    1    2    0    0  0.36144846233E+02 -0.49013904125E+02  0.34754664659E+03  0.36114607053E+03  0.77000000000E+02 0.  0.
   -5000001    1    1    2    0    0 -0.36144846233E+02  0.49013904125E+02  0.14167905451E+03  0.17236811537E+03  0.77000000000E+02 0.  0.
<mgrwt>
<rscale>  0 0.21282763E+03</rscale>
<asrwt>0</asrwt>
<pdfrwt beam="1">  1        2 0.73052853E-01 0.21282763E+03</pdfrwt>
<pdfrwt beam="2">  1       -2 0.31634630E-02 0.21282763E+03</pdfrwt>
<totfact> 0.25139471E+04</totfact>
</mgrwt>
</event>
<event>
 4    1  0.6782240E-004  0.2356333E+03  0.7818608E-02  0.1122736E+00
          2   -1    0    0  501    0  0.00000000000E+00  0.00000000000E+00  0.84595082877E+03  0.84595082877E+03  0.25500000000E-02 0.  1.
         -2   -1    0    0    0  501 -0.00000000000E+00 -0.00000000000E+00 -0.16408472831E+02  0.16408473029E+02  0.25500000000E-02 0. -1.
    5000001    1    1    2    0    0  0.54724457104E+02  0.68360985535E+02  0.35312084715E+03  0.37187541360E+03  0.77000000000E+02 0.  0.
   -5000001    1    1    2    0    0 -0.54724457104E+02 -0.68360985535E+02  0.47642150878E+03  0.49048388820E+03  0.77000000000E+02 0.  0.
<mgrwt>
<rscale>  0 0.23563329E+03</rscale>
<asrwt>0</asrwt>
<pdfrwt beam="1">  1        2 0.12085015E+00 0.23563329E+03</pdfrwt>
<pdfrwt beam="2">  1       -2 0.23440670E-02 0.23563329E+03</pdfrwt>
<totfact> 0.21905400E+04</totfact>
</mgrwt>
</event>
<event>
 4    1  0.6782240E-004  0.5330481E+03  0.7818608E-02  0.1005496E+00
         -2   -1    0    0    0  501 -0.00000000000E+00  0.00000000000E+00  0.25694382920E+03  0.25694382922E+03  0.25500000000E-02 0. -1.
          2   -1    0    0  501    0  0.00000000000E+00 -0.00000000000E+00 -0.27646147770E+03  0.27646147771E+03  0.25500000000E-02 0.  1.
    5000001    1    1    2    0    0  0.14455336388E+03 -0.20888398178E+03 -0.33814023385E+02  0.26758284891E+03  0.77000000000E+02 0.  0.
   -5000001    1    1    2    0    0 -0.14455336388E+03  0.20888398178E+03  0.14296374893E+02  0.26582245802E+03  0.77000000000E+02 0.  0.
<mgrwt>
<rscale>  0 0.53304811E+03</rscale>
<asrwt>0</asrwt>
<pdfrwt beam="1">  1        2 0.39494497E-01 0.53304811E+03</pdfrwt>
<pdfrwt beam="2">  1       -2 0.36706261E-01 0.53304811E+03</pdfrwt>
<totfact> 0.91567889E+02</totfact>
</mgrwt>
</event>
<event>
 4    1  0.6782240E-004  0.3251168E+03  0.7818608E-02  0.1073318E+00
         -2   -1    0    0    0  501 -0.00000000000E+00  0.00000000000E+00  0.16566012171E+03  0.16566012172E+03  0.25500000000E-02 0. -1.
          2   -1    0    0  501    0  0.00000000000E+00 -0.00000000000E+00 -0.15951472508E+03  0.15951472510E+03  0.25500000000E-02 0.  1.
    5000001    1    1    2    0    0  0.67887803944E+02 -0.11075519874E+03  0.63256204906E+02  0.16372481618E+03  0.77000000000E+02 0.  0.
   -5000001    1    1    2    0    0 -0.67887803944E+02  0.11075519874E+03 -0.57110808280E+02  0.16145003065E+03  0.77000000000E+02 0.  0.
<mgrwt>
<rscale>  0 0.32511677E+03</rscale>
<asrwt>0</asrwt>
<pdfrwt beam="1">  1        2 0.22787818E-01 0.32511677E+03</pdfrwt>
<pdfrwt beam="2">  1       -2 0.23665732E-01 0.32511677E+03</pdfrwt>
<totfact> 0.37498801E+03</totfact>
</mgrwt>
</event>
<event>
 4    1  0.6782240E-004  0.2573462E+03  0.7818608E-02  0.1108748E+00
         -2   -1    0    0    0  501 -0.00000000000E+00  0.00000000000E+00  0.75674994534E+02  0.75674994577E+02  0.25500000000E-02 0. -1.
          2   -1    0    0  501    0  0.00000000000E+00 -0.00000000000E+00 -0.21878778157E+03  0.21878778159E+03  0.25500000000E-02 0.  1.
    5000001    1    1    2    0    0 -0.47720239193E+02  0.71113835467E+02 -0.58915926508E+01  0.11531743011E+03  0.77000000000E+02 0.  0.
   -5000001    1    1    2    0    0  0.47720239193E+02 -0.71113835467E+02 -0.13722119439E+03  0.17914534605E+03  0.77000000000E+02 0.  0.
<mgrwt>
<rscale>  0 0.25734618E+03</rscale>
<asrwt>0</asrwt>
<pdfrwt beam="1">  1        2 0.31255397E-01 0.25734618E+03</pdfrwt>
<pdfrwt beam="2">  1       -2 0.10810714E-01 0.25734618E+03</pdfrwt>
<totfact> 0.96807096E+03</totfact>
</mgrwt>
</event>
<event>
 4    1  0.6782240E-004  0.2548387E+03  0.7818608E-02  0.1110284E+00
          2   -1    0    0  501    0  0.00000000000E+00  0.00000000000E+00  0.12114692013E+04  0.12114692013E+04  0.25500000000E-02 0. -1.
         -2   -1    0    0    0  501 -0.00000000000E+00 -0.00000000000E+00 -0.13401656644E+02  0.13401656887E+02  0.25500000000E-02 0.  1.
    5000001    1    1    2    0    0  0.66766312687E+01 -0.10113450199E+03  0.57103662678E+03  0.58505093285E+03  0.77000000000E+02 0.  0.
   -5000001    1    1    2    0    0 -0.66766312687E+01  0.10113450199E+03  0.62703091790E+03  0.63981992537E+03  0.77000000000E+02 0.  0.
<mgrwt>
<rscale>  0 0.25483873E+03</rscale>
<asrwt>0</asrwt>
<pdfrwt beam="1">  1        2 0.17306693E+00 0.25483873E+03</pdfrwt>
<pdfrwt beam="2">  1       -2 0.19145234E-02 0.25483873E+03</pdfrwt>
<totfact> 0.18114671E+04</totfact>
</mgrwt>
</event>
<event>
 4    1  0.6782240E-004  0.2181406E+03  0.7818608E-02  0.1135277E+00
         -2   -1    0    0    0  501 -0.00000000000E+00  0.00000000000E+00  0.36087813424E+03  0.36087813425E+03  0.25500000000E-02 0. -1.
          2   -1    0    0  501    0  0.00000000000E+00 -0.00000000000E+00 -0.32964949182E+02  0.32964949281E+02  0.25500000000E-02 0.  1.
    5000001    1    1    2    0    0 -0.74256825948E+02  0.21188227375E+02  0.16020741417E+03  0.19379998126E+03  0.77000000000E+02 0.  0.
   -5000001    1    1    2    0    0  0.74256825948E+02 -0.21188227375E+02  0.16770577088E+03  0.20004310227E+03  0.77000000000E+02 0.  0.
<mgrwt>
<rscale>  0 0.21814059E+03</rscale>
<asrwt>0</asrwt>
<pdfrwt beam="1">  1        2 0.47092784E-02 0.21814059E+03</pdfrwt>
<pdfrwt beam="2">  1       -2 0.51554020E-01 0.21814059E+03</pdfrwt>
<totfact> 0.60280338E+03</totfact>
</mgrwt>
</event>
<event>
 4    1  0.6782240E-004  0.1972873E+03  0.7818608E-02  0.1152048E+00
         -2   -1    0    0    0  501 -0.00000000000E+00  0.00000000000E+00  0.36445984810E+02  0.36445984899E+02  0.25500000000E-02 0. -1.
          2   -1    0    0  501    0  0.00000000000E+00 -0.00000000000E+00 -0.26698593592E+03  0.26698593593E+03  0.25500000000E-02 0.  1.
    5000001    1    1    2    0    0  0.48168456427E+02 -0.33998208474E+02 -0.87522143253E+02  0.13063385447E+03  0.77000000000E+02 0.  0.
   -5000001    1    1    2    0    0 -0.48168456427E+02  0.33998208474E+02 -0.14301780786E+03  0.17279806636E+03  0.77000000000E+02 0.  0.
<mgrwt>
<rscale>  0 0.19728726E+03</rscale>
<asrwt>0</asrwt>
<pdfrwt beam="1">  1        2 0.38140847E-01 0.19728726E+03</pdfrwt>
<pdfrwt beam="2">  1       -2 0.52065694E-02 0.19728726E+03</pdfrwt>
<totfact> 0.23855861E+04</totfact>
</mgrwt>
</event>
<event>
 4    1  0.6782240E-004  0.2622695E+03  0.7818608E-02  0.1105787E+00
         -2   -1    0    0    0  501 -0.00000000000E+00  0.00000000000E+00  0.33905904554E+03  0.33905904554E+03  0.25500000000E-02 0. -1.
          2   -1    0    0  501    0  0.00000000000E+00 -0.00000000000E+00 -0.50717785063E+02  0.50717785127E+02  0.25500000000E-02 0.  1.
    5000001    1    1    2    0    0 -0.44956559418E+02  0.33246708236E+02  0.10078248057E+02  0.95692251134E+02  0.77000000000E+02 0.  0.
   -5000001    1    1    2    0    0  0.44956559418E+02 -0.33246708236E+02  0.27826301242E+03  0.29408457954E+03  0.77000000000E+02 0.  0.
<mgrwt>
<rscale>  0 0.26226951E+03</rscale>
<asrwt>0</asrwt>
<pdfrwt beam="1">  1        2 0.72453982E-02 0.26226951E+03</pdfrwt>
<pdfrwt beam="2">  1       -2 0.48437005E-01 0.26226951E+03</pdfrwt>
<totfact> 0.39274459E+03</totfact>
</mgrwt>
</event>
<event>
 4    1  0.6782240E-004  0.2610111E+03  0.7818608E-02  0.1106537E+00
         -2   -1    0    0    0  501 -0.00000000000E+00  0.00000000000E+00  0.46715429799E+02  0.46715429868E+02  0.25500000000E-02 0. -1.
          2   -1    0    0  501    0  0.00000000000E+00 -0.00000000000E+00 -0.36458393268E+03  0.36458393269E+03  0.25500000000E-02 0.  1.
    5000001    1    1    2    0    0  0.44356586303E+02  0.93912880923E+02 -0.18692661119E+03  0.22728329002E+03  0.77000000000E+02 0.  0.
   -5000001    1    1    2    0    0 -0.44356586303E+02 -0.93912880923E+02 -0.13094189169E+03  0.18401607254E+03  0.77000000000E+02 0.  0.
<mgrwt>
<rscale>  0 0.26101107E+03</rscale>
<asrwt>0</asrwt>
<pdfrwt beam="1">  1        2 0.52083417E-01 0.26101107E+03</pdfrwt>
<pdfrwt beam="2">  1       -2 0.66736330E-02 0.26101107E+03</pdfrwt>
<totfact> 0.11896086E+04</totfact>
</mgrwt>
</event>
<event>
 4    1  0.6782240E-004  0.2101965E+03  0.7818608E-02  0.1141410E+00
         -2   -1    0    0    0  501 -0.00000000000E+00  0.00000000000E+00  0.22464996019E+03  0.22464996020E+03  0.25500000000E-02 0. -1.
          2   -1    0    0  501    0  0.00000000000E+00 -0.00000000000E+00 -0.49168230790E+02  0.49168230856E+02  0.25500000000E-02 0.  1.
    5000001    1    1    2    0    0 -0.55560598504E+02  0.23270497507E+02  0.13799357080E+03  0.16911452257E+03  0.77000000000E+02 0.  0.
   -5000001    1    1    2    0    0  0.55560598504E+02 -0.23270497507E+02  0.37488158593E+02  0.10470366849E+03  0.77000000000E+02 0.  0.
<mgrwt>
<rscale>  0 0.21019649E+03</rscale>
<asrwt>0</asrwt>
<pdfrwt beam="1">  1        2 0.70240330E-02 0.21019649E+03</pdfrwt>
<pdfrwt beam="2">  1       -2 0.32092851E-01 0.21019649E+03</pdfrwt>
<totfact> 0.88425556E+03</totfact>
</mgrwt>
</event>
<event>
 4    1  0.6782240E-004  0.2553747E+03  0.7818608E-02  0.1109954E+00
          2   -1    0    0  501    0  0.00000000000E+00  0.00000000000E+00  0.55950240967E+03  0.55950240968E+03  0.25500000000E-02 0.  1.
         -2   -1    0    0    0  501 -0.00000000000E+00 -0.00000000000E+00 -0.29140291451E+02  0.29140291563E+02  0.25500000000E-02 0. -1.
    5000001    1    1    2    0    0  0.31217049107E+01  0.86486361971E+02  0.38899767283E+03  0.40587907721E+03  0.77000000000E+02 0.  0.
   -5000001    1    1    2    0    0 -0.31217049107E+01 -0.86486361971E+02  0.14136444539E+03  0.18276362403E+03  0.77000000000E+02 0.  0.
<mgrwt>
<rscale>  0 0.25537473E+03</rscale>
<asrwt>0</asrwt>
<pdfrwt beam="1">  1        2 0.79928906E-01 0.25537473E+03</pdfrwt>
<pdfrwt beam="2">  1       -2 0.41628993E-02 0.25537473E+03</pdfrwt>
<totfact> 0.15258895E+04</totfact>
</mgrwt>
</event>
<event>
 4    1  0.6782240E-004  0.2635070E+03  0.7818608E-02  0.1105054E+00
         -2   -1    0    0    0  501 -0.00000000000E+00  0.00000000000E+00  0.21882403432E+02  0.21882403581E+02  0.25500000000E-02 0. -1.
          2   -1    0    0  501    0  0.00000000000E+00 -0.00000000000E+00 -0.79328531724E+03  0.79328531725E+03  0.25500000000E-02 0.  1.
    5000001    1    1    2    0    0 -0.76056088263E+02 -0.69099517670E+02 -0.29441772273E+03  0.32120097659E+03  0.77000000000E+02 0.  0.
   -5000001    1    1    2    0    0  0.76056088263E+02  0.69099517670E+02 -0.47698519108E+03  0.49396674424E+03  0.77000000000E+02 0.  0.
<mgrwt>
<rscale>  0 0.26350704E+03</rscale>
<asrwt>0</asrwt>
<pdfrwt beam="1">  1        2 0.11332646E+00 0.26350704E+03</pdfrwt>
<pdfrwt beam="2">  1       -2 0.31260581E-02 0.26350704E+03</pdfrwt>
<totfact> 0.15582574E+04</totfact>
</mgrwt>
</event>
<event>
 4    1  0.6782240E-004  0.2017394E+03  0.7818608E-02  0.1148280E+00
          2   -1    0    0  501    0  0.00000000000E+00  0.00000000000E+00  0.11633995668E+03  0.11633995670E+03  0.25500000000E-02 0.  1.
         -2   -1    0    0    0  501 -0.00000000000E+00 -0.00000000000E+00 -0.87456572063E+02  0.87456572100E+02  0.25500000000E-02 0. -1.
    5000001    1    1    2    0    0 -0.64534523262E+02 -0.85657192598E+01  0.17229831228E+02  0.10229341779E+03  0.77000000000E+02 0.  0.
   -5000001    1    1    2    0    0  0.64534523262E+02  0.85657192598E+01  0.11653553385E+02  0.10150311101E+03  0.77000000000E+02 0.  0.
<mgrwt>
<rscale>  0 0.20173937E+03</rscale>
<asrwt>0</asrwt>
<pdfrwt beam="1">  1        2 0.16619994E-01 0.20173937E+03</pdfrwt>
<pdfrwt beam="2">  1       -2 0.12493796E-01 0.20173937E+03</pdfrwt>
<totfact> 0.15401530E+04</totfact>
</mgrwt>
</event>
<event>
 4    1  0.6782240E-004  0.5450324E+03  0.7818608E-02  0.1002650E+00
          2   -1    0    0  501    0  0.00000000000E+00  0.00000000000E+00  0.53489840858E+02  0.53489840919E+02  0.25500000000E-02 0.  1.
         -2   -1    0    0    0  501 -0.00000000000E+00 -0.00000000000E+00 -0.13883957730E+04  0.13883957730E+04  0.25500000000E-02 0. -1.
    5000001    1    1    2    0    0 -0.66031623956E+02  0.19707476362E+03 -0.10868921174E+04  0.11092619676E+04  0.77000000000E+02 0.  0.
   -5000001    1    1    2    0    0  0.66031623956E+02 -0.19707476362E+03 -0.24801381476E+03  0.33262364638E+03  0.77000000000E+02 0.  0.
<mgrwt>
<rscale>  0 0.54503236E+03</rscale>
<asrwt>0</asrwt>
<pdfrwt beam="1">  1        2 0.76414067E-02 0.54503236E+03</pdfrwt>
<pdfrwt beam="2">  1       -2 0.19834223E+00 0.54503236E+03</pdfrwt>
<totfact> 0.13175937E+02</totfact>
</mgrwt>
</event>
<event>
 4    1  0.6782240E-004  0.1756600E+03  0.7818608E-02  0.1172071E+00
         -2   -1    0    0    0  501 -0.00000000000E+00  0.00000000000E+00  0.15901833996E+03  0.15901833998E+03  0.25500000000E-02 0. -1.
          2   -1    0    0  501    0  0.00000000000E+00 -0.00000000000E+00 -0.48510831372E+02  0.48510831439E+02  0.25500000000E-02 0.  1.
    5000001    1    1    2    0    0  0.40391348330E+02 -0.11252335686E+02  0.49110820306E+02  0.10049352591E+03  0.77000000000E+02 0.  0.
   -5000001    1    1    2    0    0 -0.40391348330E+02  0.11252335686E+02  0.61396688284E+02  0.10703564551E+03  0.77000000000E+02 0.  0.
<mgrwt>
<rscale>  0 0.17566003E+03</rscale>
<asrwt>0</asrwt>
<pdfrwt beam="1">  1        2 0.69301187E-02 0.17566003E+03</pdfrwt>
<pdfrwt beam="2">  1       -2 0.22716906E-01 0.17566003E+03</pdfrwt>
<totfact> 0.16403919E+04</totfact>
</mgrwt>
</event>
<event>
 4    1  0.6782240E-004  0.1749170E+03  0.7818608E-02  0.1172815E+00
         -2   -1    0    0    0  501 -0.00000000000E+00  0.00000000000E+00  0.49937958367E+01  0.49937964878E+01  0.25500000000E-02 0. -1.
          2   -1    0    0  501    0  0.00000000000E+00 -0.00000000000E+00 -0.15316991606E+04  0.15316991606E+04  0.25500000000E-02 0.  1.
    5000001    1    1    2    0    0 -0.20010599811E+02  0.30413738732E+02 -0.58884318165E+03  0.59497118601E+03  0.77000000000E+02 0.  0.
   -5000001    1    1    2    0    0  0.20010599811E+02 -0.30413738732E+02 -0.93786218309E+03  0.94172177106E+03  0.77000000000E+02 0.  0.
<mgrwt>
<rscale>  0 0.17491705E+03</rscale>
<asrwt>0</asrwt>
<pdfrwt beam="1">  1        2 0.21881387E+00 0.17491705E+03</pdfrwt>
<pdfrwt beam="2">  1       -2 0.71340043E-03 0.17491705E+03</pdfrwt>
<totfact> 0.50641435E+04</totfact>
</mgrwt>
</event>
<event>
 4    1  0.6782240E-004  0.3027309E+03  0.7818608E-02  0.1083883E+00
          2   -1    0    0  501    0  0.00000000000E+00  0.00000000000E+00  0.18550417397E+04  0.18550417397E+04  0.25500000000E-02 0. -1.
         -2   -1    0    0    0  501 -0.00000000000E+00 -0.00000000000E+00 -0.12350935672E+02  0.12350935935E+02  0.25500000000E-02 0.  1.
    5000001    1    1    2    0    0 -0.86159646750E+02  0.60185327357E+02  0.44606160631E+03  0.46469959650E+03  0.77000000000E+02 0.  0.
   -5000001    1    1    2    0    0  0.86159646750E+02 -0.60185327357E+02  0.13966291977E+04  0.14026930791E+04  0.77000000000E+02 0.  0.
<mgrwt>
<rscale>  0 0.30273091E+03</rscale>
<asrwt>0</asrwt>
<pdfrwt beam="1">  1        2 0.26500565E+00 0.30273091E+03</pdfrwt>
<pdfrwt beam="2">  1       -2 0.17644215E-02 0.30273091E+03</pdfrwt>
<totfact> 0.96843672E+03</totfact>
</mgrwt>
</event>
<event>
 4    1  0.6782240E-004  0.3537326E+03  0.7818608E-02  0.1061093E+00
          2   -1    0    0  501    0  0.00000000000E+00  0.00000000000E+00  0.96716557579E+03  0.96716557579E+03  0.25500000000E-02 0.  1.
         -2   -1    0    0    0  501 -0.00000000000E+00 -0.00000000000E+00 -0.32343678651E+02  0.32343678752E+02  0.25500000000E-02 0. -1.
    5000001    1    1    2    0    0  0.91488985519E+01 -0.13193102113E+03  0.21685123085E+03  0.26541091350E+03  0.77000000000E+02 0.  0.
   -5000001    1    1    2    0    0 -0.91488985519E+01  0.13193102113E+03  0.71797066629E+03  0.73409834105E+03  0.77000000000E+02 0.  0.
<mgrwt>
<rscale>  0 0.35373263E+03</rscale>
<asrwt>0</asrwt>
<pdfrwt beam="1">  1        2 0.13816650E+00 0.35373263E+03</pdfrwt>
<pdfrwt beam="2">  1       -2 0.46205260E-02 0.35373263E+03</pdfrwt>
<totfact> 0.67649203E+03</totfact>
</mgrwt>
</event>
<event>
 4    1  0.6782240E-004  0.4978953E+03  0.7818608E-02  0.1014330E+00
         -2   -1    0    0    0  501 -0.00000000000E+00  0.00000000000E+00  0.13655434593E+03  0.13655434595E+03  0.25500000000E-02 0. -1.
          2   -1    0    0  501    0  0.00000000000E+00 -0.00000000000E+00 -0.45384819120E+03  0.45384819121E+03  0.25500000000E-02 0.  1.
    5000001    1    1    2    0    0  0.19471853162E+03 -0.13431916846E+03 -0.14746030836E+03  0.28918936376E+03  0.77000000000E+02 0.  0.
   -5000001    1    1    2    0    0 -0.19471853162E+03  0.13431916846E+03 -0.16983353691E+03  0.30121317340E+03  0.77000000000E+02 0.  0.
<mgrwt>
<rscale>  0 0.49789534E+03</rscale>
<asrwt>0</asrwt>
<pdfrwt beam="1">  1        2 0.64835455E-01 0.49789534E+03</pdfrwt>
<pdfrwt beam="2">  1       -2 0.19507764E-01 0.49789534E+03</pdfrwt>
<totfact> 0.16654809E+03</totfact>
</mgrwt>
</event>
<event>
 4    1  0.6782240E-004  0.2759710E+03  0.7818608E-02  0.1097910E+00
          2   -1    0    0  501    0  0.00000000000E+00  0.00000000000E+00  0.29587277685E+03  0.29587277686E+03  0.25500000000E-02 0.  1.
         -2   -1    0    0    0  501 -0.00000000000E+00 -0.00000000000E+00 -0.64351969957E+02  0.64351970007E+02  0.25500000000E-02 0. -1.
    5000001    1    1    2    0    0  0.83108311532E+02  0.78401607802E+02  0.12563182470E+03  0.18645685541E+03  0.77000000000E+02 0.  0.
   -5000001    1    1    2    0    0 -0.83108311532E+02 -0.78401607802E+02  0.10588898219E+03  0.17376789145E+03  0.77000000000E+02 0.  0.
<mgrwt>
<rscale>  0 0.27597098E+03</rscale>
<asrwt>0</asrwt>
<pdfrwt beam="1">  1        2 0.42267540E-01 0.27597098E+03</pdfrwt>
<pdfrwt beam="2">  1       -2 0.91931384E-02 0.27597098E+03</pdfrwt>
<totfact> 0.90587558E+03</totfact>
</mgrwt>
</event>
<event>
 4    1  0.6782240E-004  0.4559999E+03  0.7818608E-02  0.1025948E+00
         -2   -1    0    0    0  501 -0.00000000000E+00  0.00000000000E+00  0.18093090887E+03  0.18093090889E+03  0.25500000000E-02 0. -1.
          2   -1    0    0  501    0  0.00000000000E+00 -0.00000000000E+00 -0.28731399307E+03  0.28731399308E+03  0.25500000000E-02 0.  1.
    5000001    1    1    2    0    0 -0.19219992287E+03 -0.34065066885E+02  0.38387070843E+02  0.21331621209E+03  0.77000000000E+02 0.  0.
   -5000001    1    1    2    0    0  0.19219992287E+03  0.34065066885E+02 -0.14477015505E+03  0.25492868988E+03  0.77000000000E+02 0.  0.
<mgrwt>
<rscale>  0 0.45599992E+03</rscale>
<asrwt>0</asrwt>
<pdfrwt beam="1">  1        2 0.41044856E-01 0.45599992E+03</pdfrwt>
<pdfrwt beam="2">  1       -2 0.25847273E-01 0.45599992E+03</pdfrwt>
<totfact> 0.16778444E+03</totfact>
</mgrwt>
</event>
<event>
 4    1  0.6782240E-004  0.2058834E+03  0.7818608E-02  0.1144868E+00
          2   -1    0    0  501    0  0.00000000000E+00  0.00000000000E+00  0.25241754723E+04  0.25241754723E+04  0.25500000000E-02 0.  1.
         -2   -1    0    0    0  501 -0.00000000000E+00 -0.00000000000E+00 -0.41981980277E+01  0.41981988022E+01  0.25500000000E-02 0. -1.
    5000001    1    1    2    0    0 -0.34277203208E+02  0.47947574093E+02  0.83562410484E+03  0.84123156213E+03  0.77000000000E+02 0.  0.
   -5000001    1    1    2    0    0  0.34277203208E+02 -0.47947574093E+02  0.16843531695E+04  0.16871421090E+04  0.77000000000E+02 0.  0.
<mgrwt>
<rscale>  0 0.20588336E+03</rscale>
<asrwt>0</asrwt>
<pdfrwt beam="1">  1        2 0.36059584E+00 0.20588336E+03</pdfrwt>
<pdfrwt beam="2">  1       -2 0.59974372E-03 0.20588336E+03</pdfrwt>
<totfact> 0.21607814E+04</totfact>
</mgrwt>
</event>
<event>
 4    1  0.6782240E-004  0.2832824E+03  0.7818608E-02  0.1093910E+00
          2   -1    0    0  501    0  0.00000000000E+00  0.00000000000E+00  0.16977889818E+03  0.16977889820E+03  0.25500000000E-02 0.  1.
         -2   -1    0    0    0  501 -0.00000000000E+00 -0.00000000000E+00 -0.11816678598E+03  0.11816678600E+03  0.25500000000E-02 0. -1.
    5000001    1    1    2    0    0 -0.11162707367E+03 -0.38716282147E+02  0.39201488200E+02  0.14637387321E+03  0.77000000000E+02 0.  0.
   -5000001    1    1    2    0    0  0.11162707367E+03  0.38716282147E+02  0.12410624003E+02  0.14157181100E+03  0.77000000000E+02 0.  0.
<mgrwt>
<rscale>  0 0.28328238E+03</rscale>
<asrwt>0</asrwt>
<pdfrwt beam="1">  1        2 0.24254128E-01 0.28328238E+03</pdfrwt>
<pdfrwt beam="2">  1       -2 0.16880969E-01 0.28328238E+03</pdfrwt>
<totfact> 0.62114744E+03</totfact>
</mgrwt>
</event>
<event>
 4    1  0.6782240E-004  0.1710713E+03  0.7818608E-02  0.1176735E+00
         -2   -1    0    0    0  501 -0.00000000000E+00  0.00000000000E+00  0.76164609240E+01  0.76164613509E+01  0.25500000000E-02 0. -1.
          2   -1    0    0  501    0  0.00000000000E+00 -0.00000000000E+00 -0.96059635140E+03  0.96059635141E+03  0.25500000000E-02 0.  1.
    5000001    1    1    2    0    0 -0.33395820828E+02 -0.68494343698E+01 -0.39156623978E+03  0.40051880822E+03  0.77000000000E+02 0.  0.
   -5000001    1    1    2    0    0  0.33395820828E+02  0.68494343698E+01 -0.56141365070E+03  0.56769400454E+03  0.77000000000E+02 0.  0.
<mgrwt>
<rscale>  0 0.17107127E+03</rscale>
<asrwt>0</asrwt>
<pdfrwt beam="1">  1        2 0.13722797E+00 0.17107127E+03</pdfrwt>
<pdfrwt beam="2">  1       -2 0.10880665E-02 0.17107127E+03</pdfrwt>
<totfact> 0.55510807E+04</totfact>
</mgrwt>
</event>
<event>
 4    1  0.6782240E-004  0.1712324E+03  0.7818608E-02  0.1176569E+00
         -2   -1    0    0    0  501 -0.00000000000E+00  0.00000000000E+00  0.65320610440E+01  0.65320615417E+01  0.25500000000E-02 0. -1.
          2   -1    0    0  501    0  0.00000000000E+00 -0.00000000000E+00 -0.11221778343E+04  0.11221778343E+04  0.25500000000E-02 0.  1.
    5000001    1    1    2    0    0  0.27941408027E+02 -0.96076674057E+01 -0.40634248658E+03  0.41462784031E+03  0.77000000000E+02 0.  0.
   -5000001    1    1    2    0    0 -0.27941408027E+02  0.96076674057E+01 -0.70930328672E+03  0.71408205559E+03  0.77000000000E+02 0.  0.
<mgrwt>
<rscale>  0 0.17123241E+03</rscale>
<asrwt>0</asrwt>
<pdfrwt beam="1">  1        2 0.16031100E+00 0.17123241E+03</pdfrwt>
<pdfrwt beam="2">  1       -2 0.93315233E-03 0.17123241E+03</pdfrwt>
<totfact> 0.56006827E+04</totfact>
</mgrwt>
</event>
<event>
 4    1  0.6782240E-004  0.2108184E+03  0.7818608E-02  0.1140920E+00
          2   -1    0    0  501    0  0.00000000000E+00  0.00000000000E+00  0.99996742499E+03  0.99996742500E+03  0.25500000000E-02 0.  1.
         -2   -1    0    0    0  501 -0.00000000000E+00 -0.00000000000E+00 -0.11111456287E+02  0.11111456579E+02  0.25500000000E-02 0. -1.
    5000001    1    1    2    0    0 -0.46103894757E+02 -0.38805531246E+02  0.68328554301E+03  0.69024602256E+03  0.77000000000E+02 0.  0.
   -5000001    1    1    2    0    0  0.46103894757E+02  0.38805531246E+02  0.30557042569E+03  0.32083285902E+03  0.77000000000E+02 0.  0.
<mgrwt>
<rscale>  0 0.21081835E+03</rscale>
<asrwt>0</asrwt>
<pdfrwt beam="1">  1        2 0.14285243E+00 0.21081835E+03</pdfrwt>
<pdfrwt beam="2">  1       -2 0.15873516E-02 0.21081835E+03</pdfrwt>
<totfact> 0.30969477E+04</totfact>
</mgrwt>
</event>
<event>
 4    1  0.6782240E-004  0.2457577E+03  0.7818608E-02  0.1116016E+00
          2   -1    0    0  501    0  0.00000000000E+00  0.00000000000E+00  0.23967857088E+04  0.23967857088E+04  0.25500000000E-02 0.  1.
         -2   -1    0    0    0  501 -0.00000000000E+00 -0.00000000000E+00 -0.62997772910E+01  0.62997778071E+01  0.25500000000E-02 0. -1.
    5000001    1    1    2    0    0 -0.86715644278E+02 -0.10792503825E+01  0.79811408853E+03  0.80649604218E+03  0.77000000000E+02 0.  0.
   -5000001    1    1    2    0    0  0.86715644278E+02  0.10792503825E+01  0.15923718430E+04  0.15965894444E+04  0.77000000000E+02 0.  0.
<mgrwt>
<rscale>  0 0.24575774E+03</rscale>
<asrwt>0</asrwt>
<pdfrwt beam="1">  1        2 0.34239848E+00 0.24575774E+03</pdfrwt>
<pdfrwt beam="2">  1       -2 0.89996686E-03 0.24575774E+03</pdfrwt>
<totfact> 0.13989291E+04</totfact>
</mgrwt>
</event>
<event>
 4    1  0.6782240E-004  0.1848505E+03  0.7818608E-02  0.1163190E+00
         -2   -1    0    0    0  501 -0.00000000000E+00  0.00000000000E+00  0.14674581717E+02  0.14674581938E+02  0.25500000000E-02 0. -1.
          2   -1    0    0  501    0  0.00000000000E+00 -0.00000000000E+00 -0.58212388987E+03  0.58212388987E+03  0.25500000000E-02 0.  1.
    5000001    1    1    2    0    0  0.20281031858E+02 -0.42342851835E+02 -0.34903292765E+03  0.36049580016E+03  0.77000000000E+02 0.  0.
   -5000001    1    1    2    0    0 -0.20281031858E+02  0.42342851835E+02 -0.21841638050E+03  0.23630267165E+03  0.77000000000E+02 0.  0.
<mgrwt>
<rscale>  0 0.18485048E+03</rscale>
<asrwt>0</asrwt>
<pdfrwt beam="1">  1        2 0.83160541E-01 0.18485048E+03</pdfrwt>
<pdfrwt beam="2">  1       -2 0.20963692E-02 0.18485048E+03</pdfrwt>
<totfact> 0.39449594E+04</totfact>
</mgrwt>
</event>
<event>
 4    1  0.6782240E-004  0.2662346E+03  0.7818608E-02  0.1103454E+00
          2   -1    0    0  501    0  0.00000000000E+00  0.00000000000E+00  0.24177012485E+04  0.24177012485E+04  0.25500000000E-02 0.  1.
         -2   -1    0    0    0  501 -0.00000000000E+00 -0.00000000000E+00 -0.73293677823E+01  0.73293682259E+01  0.25500000000E-02 0. -1.
    5000001    1    1    2    0    0 -0.24073942723E+02 -0.19871563787E+02  0.25785479403E+03  0.27091055456E+03  0.77000000000E+02 0.  0.
   -5000001    1    1    2    0    0  0.24073942723E+02  0.19871563787E+02  0.21525170866E+04  0.21541200621E+04  0.77000000000E+02 0.  0.
<mgrwt>
<rscale>  0 0.26623465E+03</rscale>
<asrwt>0</asrwt>
<pdfrwt beam="1">  1        2 0.34538546E+00 0.26623465E+03</pdfrwt>
<pdfrwt beam="2">  1       -2 0.10470539E-02 0.26623465E+03</pdfrwt>
<totfact> 0.10982821E+04</totfact>
</mgrwt>
</event>
<event>
 4    1  0.6782240E-004  0.2085608E+03  0.7818608E-02  0.1142711E+00
         -2   -1    0    0    0  501 -0.00000000000E+00  0.00000000000E+00  0.45286988535E+02  0.45286988607E+02  0.25500000000E-02 0. -1.
          2   -1    0    0  501    0  0.00000000000E+00 -0.00000000000E+00 -0.24012205402E+03  0.24012205404E+03  0.25500000000E-02 0.  1.
    5000001    1    1    2    0    0 -0.61759115531E+02 -0.32792651221E+02 -0.87189803759E+02  0.13572254126E+03  0.77000000000E+02 0.  0.
   -5000001    1    1    2    0    0  0.61759115531E+02  0.32792651221E+02 -0.10764526173E+03  0.14968650139E+03  0.77000000000E+02 0.  0.
<mgrwt>
<rscale>  0 0.20856083E+03</rscale>
<asrwt>0</asrwt>
<pdfrwt beam="1">  1        2 0.34303150E-01 0.20856083E+03</pdfrwt>
<pdfrwt beam="2">  1       -2 0.64695699E-02 0.20856083E+03</pdfrwt>
<totfact> 0.19288607E+04</totfact>
</mgrwt>
</event>
<event>
 4    1  0.6782240E-004  0.2526605E+03  0.7818608E-02  0.1111635E+00
         -2   -1    0    0    0  501 -0.00000000000E+00  0.00000000000E+00  0.93901298539E+01  0.93901302002E+01  0.25500000000E-02 0. -1.
          2   -1    0    0  501    0  0.00000000000E+00 -0.00000000000E+00 -0.16995857800E+04  0.16995857800E+04  0.25500000000E-02 0.  1.
    5000001    1    1    2    0    0 -0.40580199631E+02  0.31275064402E+02 -0.14271665994E+04  0.14301602654E+04  0.77000000000E+02 0.  0.
   -5000001    1    1    2    0    0  0.40580199631E+02 -0.31275064402E+02 -0.26302905073E+03  0.27881564480E+03  0.77000000000E+02 0.  0.
<mgrwt>
<rscale>  0 0.25266050E+03</rscale>
<asrwt>0</asrwt>
<pdfrwt beam="1">  1        2 0.24279777E+00 0.25266050E+03</pdfrwt>
<pdfrwt beam="2">  1       -2 0.13414482E-02 0.25266050E+03</pdfrwt>
<totfact> 0.17168301E+04</totfact>
</mgrwt>
</event>
<event>
 4    1  0.6782240E-004  0.2030642E+03  0.7818608E-02  0.1147179E+00
          2   -1    0    0  501    0  0.00000000000E+00  0.00000000000E+00  0.61402983879E+03  0.61402983880E+03  0.25500000000E-02 0.  1.
         -2   -1    0    0    0  501 -0.00000000000E+00 -0.00000000000E+00 -0.16788700515E+02  0.16788700709E+02  0.25500000000E-02 0. -1.
    5000001    1    1    2    0    0 -0.61115062028E+02 -0.22831961423E+02  0.26410991838E+03  0.28273556241E+03  0.77000000000E+02 0.  0.
   -5000001    1    1    2    0    0  0.61115062028E+02  0.22831961423E+02  0.33313121990E+03  0.34808297710E+03  0.77000000000E+02 0.  0.
<mgrwt>
<rscale>  0 0.20306416E+03</rscale>
<asrwt>0</asrwt>
<pdfrwt beam="1">  1        2 0.87718535E-01 0.20306416E+03</pdfrwt>
<pdfrwt beam="2">  1       -2 0.23983862E-02 0.20306416E+03</pdfrwt>
<totfact> 0.30725430E+04</totfact>
</mgrwt>
</event>
<event>
 4    1  0.6782240E-004  0.1914101E+03  0.7818608E-02  0.1157196E+00
         -2   -1    0    0    0  501 -0.00000000000E+00  0.00000000000E+00  0.41028319613E+03  0.41028319614E+03  0.25500000000E-02 0. -1.
          2   -1    0    0  501    0  0.00000000000E+00 -0.00000000000E+00 -0.22324721943E+02  0.22324722088E+02  0.25500000000E-02 0.  1.
    5000001    1    1    2    0    0 -0.84918347949E+01 -0.43927116114E+02  0.11475422505E+03  0.14525575705E+03  0.77000000000E+02 0.  0.
   -5000001    1    1    2    0    0  0.84918347949E+01  0.43927116114E+02  0.27320424914E+03  0.28735216118E+03  0.77000000000E+02 0.  0.
<mgrwt>
<rscale>  0 0.19141012E+03</rscale>
<asrwt>0</asrwt>
<pdfrwt beam="1">  1        2 0.31892459E-02 0.19141012E+03</pdfrwt>
<pdfrwt beam="2">  1       -2 0.58611887E-01 0.19141012E+03</pdfrwt>
<totfact> 0.77573033E+03</totfact>
</mgrwt>
</event>
<event>
 4    1  0.6782240E-004  0.2741837E+03  0.7818608E-02  0.1098909E+00
         -2   -1    0    0    0  501 -0.00000000000E+00  0.00000000000E+00  0.21289542512E+03  0.21289542514E+03  0.25500000000E-02 0. -1.
          2   -1    0    0  501    0  0.00000000000E+00 -0.00000000000E+00 -0.88278933282E+02  0.88278933319E+02  0.25500000000E-02 0.  1.
    5000001    1    1    2    0    0  0.84473496392E+02  0.43385812430E+02  0.13043880378E+03  0.17877746459E+03  0.77000000000E+02 0.  0.
   -5000001    1    1    2    0    0 -0.84473496392E+02 -0.43385812430E+02 -0.58223119379E+01  0.12239689387E+03  0.77000000000E+02 0.  0.
<mgrwt>
<rscale>  0 0.27418374E+03</rscale>
<asrwt>0</asrwt>
<pdfrwt beam="1">  1        2 0.12611276E-01 0.27418374E+03</pdfrwt>
<pdfrwt beam="2">  1       -2 0.30413632E-01 0.27418374E+03</pdfrwt>
<totfact> 0.47637252E+03</totfact>
</mgrwt>
</event>
<event>
 4    1  0.6782240E-004  0.2778830E+03  0.7818608E-02  0.1096851E+00
         -2   -1    0    0    0  501 -0.00000000000E+00  0.00000000000E+00  0.12993805324E+02  0.12993805574E+02  0.25500000000E-02 0. -1.
          2   -1    0    0  501    0  0.00000000000E+00 -0.00000000000E+00 -0.14856875728E+04  0.14856875728E+04  0.25500000000E-02 0.  1.
    5000001    1    1    2    0    0  0.11098674085E+03  0.24488001280E+01 -0.56144696249E+03  0.57747358810E+03  0.77000000000E+02 0.  0.
   -5000001    1    1    2    0    0 -0.11098674085E+03 -0.24488001280E+01 -0.91124680498E+03  0.92120779027E+03  0.77000000000E+02 0.  0.
<mgrwt>
<rscale>  0 0.27788296E+03</rscale>
<asrwt>0</asrwt>
<pdfrwt beam="1">  1        2 0.21224097E+00 0.27788296E+03</pdfrwt>
<pdfrwt beam="2">  1       -2 0.18562589E-02 0.27788296E+03</pdfrwt>
<totfact> 0.13685488E+04</totfact>
</mgrwt>
</event>
<event>
 4    1  0.6782240E-004  0.5884537E+03  0.7818608E-02  0.9929655E-01
          2   -1    0    0  501    0  0.00000000000E+00  0.00000000000E+00  0.65165924272E+02  0.65165924322E+02  0.25500000000E-02 0. -1.
         -2   -1    0    0    0  501 -0.00000000000E+00 -0.00000000000E+00 -0.13284462166E+04  0.13284462166E+04  0.25500000000E-02 0.  1.
    5000001    1    1    2    0    0 -0.22091097823E+03  0.29031162857E+02 -0.21469187104E+03  0.31885116937E+03  0.77000000000E+02 0.  0.
   -5000001    1    1    2    0    0  0.22091097823E+03 -0.29031162857E+02 -0.10485884213E+04  0.10747609715E+04  0.77000000000E+02 0.  0.
<mgrwt>
<rscale>  0 0.58845365E+03</rscale>
<asrwt>0</asrwt>
<pdfrwt beam="1">  1        2 0.93094185E-02 0.58845365E+03</pdfrwt>
<pdfrwt beam="2">  1       -2 0.18977802E+00 0.58845365E+03</pdfrwt>
<totfact> 0.11595817E+02</totfact>
</mgrwt>
</event>
<event>
 4    1  0.6782240E-004  0.4218887E+03  0.7818608E-02  0.1036453E+00
         -2   -1    0    0    0  501 -0.00000000000E+00  0.00000000000E+00  0.30934395861E+02  0.30934395966E+02  0.25500000000E-02 0. -1.
          2   -1    0    0  501    0  0.00000000000E+00 -0.00000000000E+00 -0.14384479508E+04  0.14384479508E+04  0.25500000000E-02 0.  1.
    5000001    1    1    2    0    0  0.19207151421E+03  0.40914308024E+02 -0.70986048913E+03  0.74053788640E+03  0.77000000000E+02 0.  0.
   -5000001    1    1    2    0    0 -0.19207151421E+03 -0.40914308024E+02 -0.69765306582E+03  0.72884446038E+03  0.77000000000E+02 0.  0.
<mgrwt>
<rscale>  0 0.42188870E+03</rscale>
<asrwt>0</asrwt>
<pdfrwt beam="1">  1        2 0.20549252E+00 0.42188870E+03</pdfrwt>
<pdfrwt beam="2">  1       -2 0.44192003E-02 0.42188870E+03</pdfrwt>
<totfact> 0.39745050E+03</totfact>
</mgrwt>
</event>
<event>
 4    1  0.6782240E-004  0.2447871E+03  0.7818608E-02  0.1116644E+00
          2   -1    0    0  501    0  0.00000000000E+00  0.00000000000E+00  0.20477140293E+04  0.20477140293E+04  0.25500000000E-02 0.  1.
         -2   -1    0    0    0  501 -0.00000000000E+00 -0.00000000000E+00 -0.73155622723E+01  0.73155627167E+01  0.25500000000E-02 0. -1.
    5000001    1    1    2    0    0  0.65843558670E+02  0.65491136363E+02  0.11936193355E+04  0.11997002047E+04  0.77000000000E+02 0.  0.
   -5000001    1    1    2    0    0 -0.65843558670E+02 -0.65491136363E+02  0.84677913152E+03  0.85532938728E+03  0.77000000000E+02 0.  0.
<mgrwt>
<rscale>  0 0.24478709E+03</rscale>
<asrwt>0</asrwt>
<pdfrwt beam="1">  1        2 0.29253092E+00 0.24478709E+03</pdfrwt>
<pdfrwt beam="2">  1       -2 0.10450791E-02 0.24478709E+03</pdfrwt>
<totfact> 0.16680457E+04</totfact>
</mgrwt>
</event>
<event>
 4    1  0.6782240E-004  0.1796033E+03  0.7818608E-02  0.1168188E+00
         -2   -1    0    0    0  501 -0.00000000000E+00  0.00000000000E+00  0.20014547146E+02  0.20014547309E+02  0.25500000000E-02 0. -1.
          2   -1    0    0  501    0  0.00000000000E+00 -0.00000000000E+00 -0.40292382176E+03  0.40292382177E+03  0.25500000000E-02 0.  1.
    5000001    1    1    2    0    0 -0.24356191587E+02  0.30902500090E+02 -0.13439394974E+03  0.15980901822E+03  0.77000000000E+02 0.  0.
   -5000001    1    1    2    0    0  0.24356191587E+02 -0.30902500090E+02 -0.24851532488E+03  0.26312935085E+03  0.77000000000E+02 0.  0.
<mgrwt>
<rscale>  0 0.17960332E+03</rscale>
<asrwt>0</asrwt>
<pdfrwt beam="1">  1        2 0.57560541E-01 0.17960332E+03</pdfrwt>
<pdfrwt beam="2">  1       -2 0.28592213E-02 0.17960332E+03</pdfrwt>
<totfact> 0.37294553E+04</totfact>
</mgrwt>
</event>
<event>
 4    1  0.6782240E-004  0.3896352E+03  0.7818608E-02  0.1047429E+00
         -2   -1    0    0    0  501 -0.00000000000E+00  0.00000000000E+00  0.42833770195E+02  0.42833770271E+02  0.25500000000E-02 0. -1.
          2   -1    0    0  501    0  0.00000000000E+00 -0.00000000000E+00 -0.88607421564E+03  0.88607421564E+03  0.25500000000E-02 0.  1.
    5000001    1    1    2    0    0 -0.42659556750E+02 -0.17082092749E+03 -0.34528339379E+03  0.39515724601E+03  0.77000000000E+02 0.  0.
   -5000001    1    1    2    0    0  0.42659556750E+02  0.17082092749E+03 -0.49795705166E+03  0.53375073990E+03  0.77000000000E+02 0.  0.
<mgrwt>
<rscale>  0 0.38963521E+03</rscale>
<asrwt>0</asrwt>
<pdfrwt beam="1">  1        2 0.12658202E+00 0.38963521E+03</pdfrwt>
<pdfrwt beam="2">  1       -2 0.61191106E-02 0.38963521E+03</pdfrwt>
<totfact> 0.49435340E+03</totfact>
</mgrwt>
</event>
<event>
 4    1  0.6782240E-004  0.1895881E+03  0.7818608E-02  0.1158833E+00
         -2   -1    0    0    0  501 -0.00000000000E+00  0.00000000000E+00  0.22695858298E+02  0.22695858442E+02  0.25500000000E-02 0. -1.
          2   -1    0    0  501    0  0.00000000000E+00 -0.00000000000E+00 -0.39592750361E+03  0.39592750362E+03  0.25500000000E-02 0.  1.
    5000001    1    1    2    0    0  0.51383043718E+02  0.12521713924E+02 -0.15101837616E+03  0.17757409845E+03  0.77000000000E+02 0.  0.
   -5000001    1    1    2    0    0 -0.51383043718E+02 -0.12521713924E+02 -0.22221326915E+03  0.24104926361E+03  0.77000000000E+02 0.  0.
<mgrwt>
<rscale>  0 0.18958813E+03</rscale>
<asrwt>0</asrwt>
<pdfrwt beam="1">  1        2 0.56561068E-01 0.18958813E+03</pdfrwt>
<pdfrwt beam="2">  1       -2 0.32422657E-02 0.18958813E+03</pdfrwt>
<totfact> 0.31707506E+04</totfact>
</mgrwt>
</event>
<event>
 4    1  0.6782240E-004  0.3344179E+03  0.7818608E-02  0.1069199E+00
          2   -1    0    0  501    0  0.00000000000E+00  0.00000000000E+00  0.25971193245E+03  0.25971193246E+03  0.25500000000E-02 0.  1.
         -2   -1    0    0    0  501 -0.00000000000E+00 -0.00000000000E+00 -0.10765326378E+03  0.10765326381E+03  0.25500000000E-02 0. -1.
    5000001    1    1    2    0    0 -0.17399878247E+02 -0.13617022276E+03  0.14035819449E+02  0.15802243371E+03  0.77000000000E+02 0.  0.
   -5000001    1    1    2    0    0  0.17399878247E+02  0.13617022276E+03  0.13802284922E+03  0.20934276256E+03  0.77000000000E+02 0.  0.
<mgrwt>
<rscale>  0 0.33441793E+03</rscale>
<asrwt>0</asrwt>
<pdfrwt beam="1">  1        2 0.37101705E-01 0.33441793E+03</pdfrwt>
<pdfrwt beam="2">  1       -2 0.15379038E-01 0.33441793E+03</pdfrwt>
<totfact> 0.45649389E+03</totfact>
</mgrwt>
</event>
<event>
 4    1  0.6782240E-004  0.2176391E+03  0.7818608E-02  0.1135656E+00
         -2   -1    0    0    0  501 -0.00000000000E+00  0.00000000000E+00  0.78380625576E+01  0.78380629724E+01  0.25500000000E-02 0. -1.
          2   -1    0    0  501    0  0.00000000000E+00 -0.00000000000E+00 -0.15107939874E+04  0.15107939874E+04  0.25500000000E-02 0.  1.
    5000001    1    1    2    0    0 -0.72936639062E+02  0.24152098824E+02 -0.77312126631E+03  0.78073591541E+03  0.77000000000E+02 0.  0.
   -5000001    1    1    2    0    0  0.72936639062E+02 -0.24152098824E+02 -0.72983465850E+03  0.73789613493E+03  0.77000000000E+02 0.  0.
<mgrwt>
<rscale>  0 0.21763913E+03</rscale>
<asrwt>0</asrwt>
<pdfrwt beam="1">  1        2 0.21582753E+00 0.21763913E+03</pdfrwt>
<pdfrwt beam="2">  1       -2 0.11197242E-02 0.21763913E+03</pdfrwt>
<totfact> 0.27499729E+04</totfact>
</mgrwt>
</event>
<event>
 4    1  0.6782240E-004  0.5089057E+03  0.7818608E-02  0.1011480E+00
          2   -1    0    0  501    0  0.00000000000E+00  0.00000000000E+00  0.15541666727E+04  0.15541666727E+04  0.25500000000E-02 0.  1.
         -2   -1    0    0    0  501 -0.00000000000E+00 -0.00000000000E+00 -0.41659792467E+02  0.41659792545E+02  0.25500000000E-02 0. -1.
    5000001    1    1    2    0    0  0.71262199979E+02 -0.19742552960E+03  0.11372514343E+04  0.11590189670E+04  0.77000000000E+02 0.  0.
   -5000001    1    1    2    0    0 -0.71262199979E+02  0.19742552960E+03  0.37525544592E+03  0.43680749831E+03  0.77000000000E+02 0.  0.
<mgrwt>
<rscale>  0 0.50890573E+03</rscale>
<asrwt>0</asrwt>
<pdfrwt beam="1">  1        2 0.22202380E+00 0.50890573E+03</pdfrwt>
<pdfrwt beam="2">  1       -2 0.59513991E-02 0.50890573E+03</pdfrwt>
<totfact> 0.21851533E+03</totfact>
</mgrwt>
</event>
<event>
 4    1  0.6782240E-004  0.1769404E+03  0.7818608E-02  0.1170797E+00
          2   -1    0    0  501    0  0.00000000000E+00  0.00000000000E+00  0.19982380680E+03  0.19982380682E+03  0.25500000000E-02 0.  1.
         -2   -1    0    0    0  501 -0.00000000000E+00 -0.00000000000E+00 -0.39169390124E+02  0.39169390207E+02  0.25500000000E-02 0. -1.
    5000001    1    1    2    0    0  0.12099543839E+02 -0.28387069639E+02  0.12186535849E+03  0.14741909741E+03  0.77000000000E+02 0.  0.
   -5000001    1    1    2    0    0 -0.12099543839E+02  0.28387069639E+02  0.38789058193E+02  0.91574099610E+02  0.77000000000E+02 0.  0.
<mgrwt>
<rscale>  0 0.17694040E+03</rscale>
<asrwt>0</asrwt>
<pdfrwt beam="1">  1        2 0.28546258E-01 0.17694040E+03</pdfrwt>
<pdfrwt beam="2">  1       -2 0.55956272E-02 0.17694040E+03</pdfrwt>
<totfact> 0.28998546E+04</totfact>
</mgrwt>
</event>
<event>
 4    1  0.6782240E-004  0.2926014E+03  0.7818608E-02  0.1088999E+00
         -2   -1    0    0    0  501 -0.00000000000E+00  0.00000000000E+00  0.58242601846E+02  0.58242601902E+02  0.25500000000E-02 0. -1.
          2   -1    0    0  501    0  0.00000000000E+00 -0.00000000000E+00 -0.36749540757E+03  0.36749540758E+03  0.25500000000E-02 0.  1.
    5000001    1    1    2    0    0  0.11949438889E+03  0.17676364424E+02 -0.19787536851E+03  0.24428471974E+03  0.77000000000E+02 0.  0.
   -5000001    1    1    2    0    0 -0.11949438889E+03 -0.17676364424E+02 -0.11137743721E+03  0.18145328973E+03  0.77000000000E+02 0.  0.
<mgrwt>
<rscale>  0 0.29260136E+03</rscale>
<asrwt>0</asrwt>
<pdfrwt beam="1">  1        2 0.52499343E-01 0.29260136E+03</pdfrwt>
<pdfrwt beam="2">  1       -2 0.83203718E-02 0.29260136E+03</pdfrwt>
<totfact> 0.84105971E+03</totfact>
</mgrwt>
</event>
<event>
 4    1  0.6782240E-004  0.3185276E+03  0.7818608E-02  0.1076329E+00
          2   -1    0    0  501    0  0.00000000000E+00  0.00000000000E+00  0.14931947547E+04  0.14931947547E+04  0.25500000000E-02 0.  1.
         -2   -1    0    0    0  501 -0.00000000000E+00 -0.00000000000E+00 -0.16987044409E+02  0.16987044600E+02  0.25500000000E-02 0. -1.
    5000001    1    1    2    0    0 -0.12607689574E+03  0.50850392057E+02  0.88460559788E+03  0.89829683837E+03  0.77000000000E+02 0.  0.
   -5000001    1    1    2    0    0  0.12607689574E+03 -0.50850392057E+02  0.59160211239E+03  0.61188496092E+03  0.77000000000E+02 0.  0.
<mgrwt>
<rscale>  0 0.31852765E+03</rscale>
<asrwt>0</asrwt>
<pdfrwt beam="1">  1        2 0.21331333E+00 0.31852765E+03</pdfrwt>
<pdfrwt beam="2">  1       -2 0.24267230E-02 0.31852765E+03</pdfrwt>
<totfact> 0.91610378E+03</totfact>
</mgrwt>
</event>
<event>
 4    1  0.6782240E-004  0.1897924E+03  0.7818608E-02  0.1158649E+00
         -2   -1    0    0    0  501 -0.00000000000E+00  0.00000000000E+00  0.97392348233E+01  0.97392351571E+01  0.25500000000E-02 0. -1.
          2   -1    0    0  501    0  0.00000000000E+00 -0.00000000000E+00 -0.92464018417E+03  0.92464018417E+03  0.25500000000E-02 0.  1.
    5000001    1    1    2    0    0  0.11086897286E+02  0.54094390600E+02 -0.43179059983E+03  0.44206475147E+03  0.77000000000E+02 0.  0.
   -5000001    1    1    2    0    0 -0.11086897286E+02 -0.54094390600E+02 -0.48311034951E+03  0.49231466786E+03  0.77000000000E+02 0.  0.
<mgrwt>
<rscale>  0 0.18979239E+03</rscale>
<asrwt>0</asrwt>
<pdfrwt beam="1">  1        2 0.13209140E+00 0.18979239E+03</pdfrwt>
<pdfrwt beam="2">  1       -2 0.13913199E-02 0.18979239E+03</pdfrwt>
<totfact> 0.41273395E+04</totfact>
</mgrwt>
</event>
<event>
 4    1  0.6782240E-004  0.1797659E+03  0.7818608E-02  0.1168030E+00
         -2   -1    0    0    0  501 -0.00000000000E+00  0.00000000000E+00  0.36573827278E+01  0.36573836168E+01  0.25500000000E-02 0. -1.
          2   -1    0    0  501    0  0.00000000000E+00 -0.00000000000E+00 -0.22089403648E+04  0.22089403648E+04  0.25500000000E-02 0.  1.
    5000001    1    1    2    0    0 -0.11755521410E+02  0.44552974565E+02 -0.11663375641E+04  0.11697843704E+04  0.77000000000E+02 0.  0.
   -5000001    1    1    2    0    0  0.11755521410E+02 -0.44552974565E+02 -0.10389454180E+04  0.10428133780E+04  0.77000000000E+02 0.  0.
<mgrwt>
<rscale>  0 0.17976586E+03</rscale>
<asrwt>0</asrwt>
<pdfrwt beam="1">  1        2 0.31556205E+00 0.17976586E+03</pdfrwt>
<pdfrwt beam="2">  1       -2 0.52248473E-03 0.17976586E+03</pdfrwt>
<totfact> 0.37275864E+04</totfact>
</mgrwt>
</event>
<event>
 4    1  0.6782240E-004  0.2458682E+03  0.7818608E-02  0.1115944E+00
         -2   -1    0    0    0  501 -0.00000000000E+00  0.00000000000E+00  0.49628792985E+02  0.49628793050E+02  0.25500000000E-02 0. -1.
          2   -1    0    0  501    0  0.00000000000E+00 -0.00000000000E+00 -0.30451669368E+03  0.30451669369E+03  0.25500000000E-02 0.  1.
    5000001    1    1    2    0    0 -0.78226244006E+02  0.54341849914E+02 -0.11224024976E+03  0.16613023677E+03  0.77000000000E+02 0.  0.
   -5000001    1    1    2    0    0  0.78226244006E+02 -0.54341849914E+02 -0.14264765094E+03  0.18801524997E+03  0.77000000000E+02 0.  0.
<mgrwt>
<rscale>  0 0.24586822E+03</rscale>
<asrwt>0</asrwt>
<pdfrwt beam="1">  1        2 0.43502384E-01 0.24586822E+03</pdfrwt>
<pdfrwt beam="2">  1       -2 0.70898277E-02 0.24586822E+03</pdfrwt>
<totfact> 0.13106304E+04</totfact>
</mgrwt>
</event>
<event>
 4    1  0.6782240E-004  0.2123898E+03  0.7818608E-02  0.1139687E+00
          2   -1    0    0  501    0  0.00000000000E+00  0.00000000000E+00  0.32352706408E+04  0.32352706408E+04  0.25500000000E-02 0.  1.
         -2   -1    0    0    0  501 -0.00000000000E+00 -0.00000000000E+00 -0.34857548378E+01  0.34857557705E+01  0.25500000000E-02 0. -1.
    5000001    1    1    2    0    0 -0.64836703740E+02 -0.17556011646E+02  0.11748924439E+04  0.11793274636E+04  0.77000000000E+02 0.  0.
   -5000001    1    1    2    0    0  0.64836703740E+02  0.17556011646E+02  0.20568924420E+04  0.20594289329E+04  0.77000000000E+02 0.  0.
<mgrwt>
<rscale>  0 0.21238985E+03</rscale>
<asrwt>0</asrwt>
<pdfrwt beam="1">  1        2 0.46218169E+00 0.21238985E+03</pdfrwt>
<pdfrwt beam="2">  1       -2 0.49796486E-03 0.21238985E+03</pdfrwt>
<totfact> 0.12089634E+04</totfact>
</mgrwt>
</event>
<event>
 4    1  0.6782240E-004  0.1748912E+03  0.7818608E-02  0.1172841E+00
         -2   -1    0    0    0  501 -0.00000000000E+00  0.00000000000E+00  0.12008478405E+02  0.12008478675E+02  0.25500000000E-02 0. -1.
          2   -1    0    0  501    0  0.00000000000E+00 -0.00000000000E+00 -0.63677768272E+03  0.63677768273E+03  0.25500000000E-02 0.  1.
    5000001    1    1    2    0    0 -0.31488360157E+02 -0.16028810461E+02 -0.39274739835E+03  0.40178098325E+03  0.77000000000E+02 0.  0.
   -5000001    1    1    2    0    0  0.31488360157E+02  0.16028810461E+02 -0.23202180597E+03  0.24700517815E+03  0.77000000000E+02 0.  0.
<mgrwt>
<rscale>  0 0.17489118E+03</rscale>
<asrwt>0</asrwt>
<pdfrwt beam="1">  1        2 0.90968219E-01 0.17489118E+03</pdfrwt>
<pdfrwt beam="2">  1       -2 0.17154973E-02 0.17489118E+03</pdfrwt>
<totfact> 0.47493574E+04</totfact>
</mgrwt>
</event>
<event>
 4    1  0.6782240E-004  0.4652990E+03  0.7818608E-02  0.1023255E+00
         -2   -1    0    0    0  501 -0.00000000000E+00  0.00000000000E+00  0.15110999596E+02  0.15110999811E+02  0.25500000000E-02 0. -1.
          2   -1    0    0  501    0  0.00000000000E+00 -0.00000000000E+00 -0.35818802687E+04  0.35818802687E+04  0.25500000000E-02 0.  1.
    5000001    1    1    2    0    0 -0.14357690117E+03 -0.15595165832E+03 -0.22248727030E+04  0.22362743103E+04  0.77000000000E+02 0.  0.
   -5000001    1    1    2    0    0  0.14357690117E+03  0.15595165832E+03 -0.13418965660E+04  0.13607169582E+04  0.77000000000E+02 0.  0.
<mgrwt>
<rscale>  0 0.46529901E+03</rscale>
<asrwt>0</asrwt>
<pdfrwt beam="1">  1        2 0.51169664E+00 0.46529901E+03</pdfrwt>
<pdfrwt beam="2">  1       -2 0.21587165E-02 0.46529901E+03</pdfrwt>
<totfact> 0.87984972E+02</totfact>
</mgrwt>
</event>
<event>
 4    1  0.6782240E-004  0.2223927E+03  0.7818608E-02  0.1132112E+00
          2   -1    0    0  501    0  0.00000000000E+00  0.00000000000E+00  0.74032189730E+03  0.74032189731E+03  0.25500000000E-02 0.  1.
         -2   -1    0    0    0  501 -0.00000000000E+00 -0.00000000000E+00 -0.16701695246E+02  0.16701695441E+02  0.25500000000E-02 0. -1.
    5000001    1    1    2    0    0 -0.13682645929E+02 -0.76644975233E+02  0.42763703108E+03  0.44143413708E+03  0.77000000000E+02 0.  0.
   -5000001    1    1    2    0    0  0.13682645929E+02  0.76644975233E+02  0.29598317098E+03  0.31558945567E+03  0.77000000000E+02 0.  0.
<mgrwt>
<rscale>  0 0.22239272E+03</rscale>
<asrwt>0</asrwt>
<pdfrwt beam="1">  1        2 0.10576025E+00 0.22239272E+03</pdfrwt>
<pdfrwt beam="2">  1       -2 0.23859570E-02 0.22239272E+03</pdfrwt>
<totfact> 0.25049269E+04</totfact>
</mgrwt>
</event>
<event>
 4    1  0.6782240E-004  0.2081931E+03  0.7818608E-02  0.1143005E+00
         -2   -1    0    0    0  501 -0.00000000000E+00  0.00000000000E+00  0.49678152016E+03  0.49678152017E+03  0.25500000000E-02 0. -1.
          2   -1    0    0  501    0  0.00000000000E+00 -0.00000000000E+00 -0.21812600040E+02  0.21812600189E+02  0.25500000000E-02 0.  1.
    5000001    1    1    2    0    0 -0.32991171474E+02 -0.17968721300E+02  0.38476138730E+03  0.39418475046E+03  0.77000000000E+02 0.  0.
   -5000001    1    1    2    0    0  0.32991171474E+02  0.17968721300E+02  0.90207532828E+02  0.12440936990E+03  0.77000000000E+02 0.  0.
<mgrwt>
<rscale>  0 0.20819315E+03</rscale>
<asrwt>0</asrwt>
<pdfrwt beam="1">  1        2 0.31160864E-02 0.20819315E+03</pdfrwt>
<pdfrwt beam="2">  1       -2 0.70968774E-01 0.20819315E+03</pdfrwt>
<totfact> 0.53911849E+03</totfact>
</mgrwt>
</event>
<event>
 4    1  0.6782240E-004  0.2559300E+03  0.7818608E-02  0.1109614E+00
          2   -1    0    0  501    0  0.00000000000E+00  0.00000000000E+00  0.26272341911E+03  0.26272341913E+03  0.25500000000E-02 0.  1.
         -2   -1    0    0    0  501 -0.00000000000E+00 -0.00000000000E+00 -0.62328066944E+02  0.62328066996E+02  0.25500000000E-02 0. -1.
    5000001    1    1    2    0    0  0.79206750024E+02 -0.54817221707E+02  0.56802459073E+02  0.13577244345E+03  0.77000000000E+02 0.  0.
   -5000001    1    1    2    0    0 -0.79206750024E+02  0.54817221707E+02  0.14359289310E+03  0.18927904267E+03  0.77000000000E+02 0.  0.
<mgrwt>
<rscale>  0 0.25593001E+03</rscale>
<asrwt>0</asrwt>
<pdfrwt beam="1">  1        2 0.37531918E-01 0.25593001E+03</pdfrwt>
<pdfrwt beam="2">  1       -2 0.89040094E-02 0.25593001E+03</pdfrwt>
<totfact> 0.10791037E+04</totfact>
</mgrwt>
</event>
<event>
 4    1  0.6782240E-004  0.2743569E+03  0.7818608E-02  0.1098812E+00
          2   -1    0    0  501    0  0.00000000000E+00  0.00000000000E+00  0.88425303563E+03  0.88425303564E+03  0.25500000000E-02 0.  1.
         -2   -1    0    0    0  501 -0.00000000000E+00 -0.00000000000E+00 -0.21281150546E+02  0.21281150698E+02  0.25500000000E-02 0. -1.
    5000001    1    1    2    0    0 -0.76083506425E+02  0.83857363683E+02  0.45873607534E+03  0.47873640368E+03  0.77000000000E+02 0.  0.
   -5000001    1    1    2    0    0  0.76083506425E+02 -0.83857363683E+02  0.40423580975E+03  0.42679778265E+03  0.77000000000E+02 0.  0.
<mgrwt>
<rscale>  0 0.27435686E+03</rscale>
<asrwt>0</asrwt>
<pdfrwt beam="1">  1        2 0.12632183E+00 0.27435686E+03</pdfrwt>
<pdfrwt beam="2">  1       -2 0.30401653E-02 0.27435686E+03</pdfrwt>
<totfact> 0.14192465E+04</totfact>
</mgrwt>
</event>
<event>
 4    1  0.6782240E-004  0.1732455E+03  0.7818608E-02  0.1174505E+00
          2   -1    0    0  501    0  0.00000000000E+00  0.00000000000E+00  0.37332377258E+03  0.37332377259E+03  0.25500000000E-02 0.  1.
         -2   -1    0    0    0  501 -0.00000000000E+00 -0.00000000000E+00 -0.20099178366E+02  0.20099178528E+02  0.25500000000E-02 0. -1.
    5000001    1    1    2    0    0  0.39240453566E+02  0.52181215462E+01  0.17041015012E+03  0.19114303872E+03  0.77000000000E+02 0.  0.
   -5000001    1    1    2    0    0 -0.39240453566E+02 -0.52181215462E+01  0.18281444410E+03  0.20227991240E+03  0.77000000000E+02 0.  0.
<mgrwt>
<rscale>  0 0.17324550E+03</rscale>
<asrwt>0</asrwt>
<pdfrwt beam="1">  1        2 0.53331970E-01 0.17324550E+03</pdfrwt>
<pdfrwt beam="2">  1       -2 0.28713111E-02 0.17324550E+03</pdfrwt>
<totfact> 0.40082257E+04</totfact>
</mgrwt>
</event>
<event>
 4    1  0.6782240E-004  0.2445316E+03  0.7818608E-02  0.1116810E+00
          2   -1    0    0  501    0  0.00000000000E+00  0.00000000000E+00  0.31303229607E+03  0.31303229608E+03  0.25500000000E-02 0.  1.
         -2   -1    0    0    0  501 -0.00000000000E+00 -0.00000000000E+00 -0.47755211279E+02  0.47755211347E+02  0.25500000000E-02 0. -1.
    5000001    1    1    2    0    0  0.58678419673E+02  0.35913586028E+02  0.22924191942E+03  0.25142354746E+03  0.77000000000E+02 0.  0.
   -5000001    1    1    2    0    0 -0.58678419673E+02 -0.35913586028E+02  0.36035165368E+02  0.10936395997E+03  0.77000000000E+02 0.  0.
<mgrwt>
<rscale>  0 0.24453158E+03</rscale>
<asrwt>0</asrwt>
<pdfrwt beam="1">  1        2 0.44718899E-01 0.24453158E+03</pdfrwt>
<pdfrwt beam="2">  1       -2 0.68221731E-02 0.24453158E+03</pdfrwt>
<totfact> 0.13499685E+04</totfact>
</mgrwt>
</event>
<event>
 4    1  0.6782240E-004  0.3286279E+03  0.7818608E-02  0.1071746E+00
         -2   -1    0    0    0  501 -0.00000000000E+00  0.00000000000E+00  0.62949543819E+02  0.62949543870E+02  0.25500000000E-02 0.  1.
          2   -1    0    0  501    0  0.00000000000E+00 -0.00000000000E+00 -0.42890018486E+03  0.42890018486E+03  0.25500000000E-02 0. -1.
    5000001    1    1    2    0    0 -0.12691680263E+03 -0.70307431963E+02 -0.18950968445E+03  0.25078662301E+03  0.77000000000E+02 0.  0.
   -5000001    1    1    2    0    0  0.12691680263E+03  0.70307431963E+02 -0.17644095658E+03  0.24106310572E+03  0.77000000000E+02 0.  0.
<mgrwt>
<rscale>  0 0.32862788E+03</rscale>
<asrwt>0</asrwt>
<pdfrwt beam="1">  1        2 0.61271454E-01 0.32862788E+03</pdfrwt>
<pdfrwt beam="2">  1       -2 0.89927922E-02 0.32862788E+03</pdfrwt>
<totfact> 0.63158269E+03</totfact>
</mgrwt>
</event>
<event>
 4    1  0.6782240E-004  0.2600189E+03  0.7818608E-02  0.1107132E+00
          2   -1    0    0  501    0  0.00000000000E+00  0.00000000000E+00  0.18939380429E+02  0.18939380601E+02  0.25500000000E-02 0.  1.
         -2   -1    0    0    0  501 -0.00000000000E+00 -0.00000000000E+00 -0.89245033016E+03  0.89245033016E+03  0.25500000000E-02 0. -1.
    5000001    1    1    2    0    0 -0.69519318336E+02  0.77109186834E+02 -0.48566298884E+03  0.50256969770E+03  0.77000000000E+02 0.  0.
   -5000001    1    1    2    0    0  0.69519318336E+02 -0.77109186834E+02 -0.38784796089E+03  0.40882001306E+03  0.77000000000E+02 0.  0.
<mgrwt>
<rscale>  0 0.26001889E+03</rscale>
<asrwt>0</asrwt>
<pdfrwt beam="1">  1        2 0.27056263E-02 0.26001889E+03</pdfrwt>
<pdfrwt beam="2">  1       -2 0.12749288E+00 0.26001889E+03</pdfrwt>
<totfact> 0.17230482E+03</totfact>
</mgrwt>
</event>
<event>
 4    1  0.6782240E-004  0.2107176E+03  0.7818608E-02  0.1140999E+00
          2   -1    0    0  501    0  0.00000000000E+00  0.00000000000E+00  0.50491675170E+03  0.50491675170E+03  0.25500000000E-02 0.  1.
         -2   -1    0    0    0  501 -0.00000000000E+00 -0.00000000000E+00 -0.21984773847E+02  0.21984773995E+02  0.25500000000E-02 0. -1.
    5000001    1    1    2    0    0  0.52047650354E+02 -0.49103778206E+02  0.22354905557E+03  0.24702898451E+03  0.77000000000E+02 0.  0.
   -5000001    1    1    2    0    0 -0.52047650354E+02  0.49103778206E+02  0.25938292228E+03  0.27987254119E+03  0.77000000000E+02 0.  0.
<mgrwt>
<rscale>  0 0.21071764E+03</rscale>
<asrwt>0</asrwt>
<pdfrwt beam="1">  1        2 0.72130960E-01 0.21071764E+03</pdfrwt>
<pdfrwt beam="2">  1       -2 0.31406822E-02 0.21071764E+03</pdfrwt>
<totfact> 0.25750084E+04</totfact>
</mgrwt>
</event>
<event>
 4    1  0.6782240E-004  0.2053413E+03  0.7818608E-02  0.1145309E+00
          2   -1    0    0  501    0  0.00000000000E+00  0.00000000000E+00  0.26701447425E+04  0.26701447425E+04  0.25500000000E-02 0.  1.
         -2   -1    0    0    0  501 -0.00000000000E+00 -0.00000000000E+00 -0.39478248082E+01  0.39478256317E+01  0.25500000000E-02 0. -1.
    5000001    1    1    2    0    0 -0.35584467365E+02  0.32843330619E+02  0.71300511168E+03  0.71878385344E+03  0.77000000000E+02 0.  0.
   -5000001    1    1    2    0    0  0.35584467365E+02 -0.32843330619E+02  0.19531918060E+04  0.19553087147E+04  0.77000000000E+02 0.  0.
<mgrwt>
<rscale>  0 0.20534132E+03</rscale>
<asrwt>0</asrwt>
<pdfrwt beam="1">  1        2 0.38144849E+00 0.20534132E+03</pdfrwt>
<pdfrwt beam="2">  1       -2 0.56397615E-03 0.20534132E+03</pdfrwt>
<totfact> 0.19954301E+04</totfact>
</mgrwt>
</event>
<event>
 4    1  0.6782240E-004  0.2070911E+03  0.7818608E-02  0.1143890E+00
         -2   -1    0    0    0  501 -0.00000000000E+00  0.00000000000E+00  0.28517916818E+02  0.28517916932E+02  0.25500000000E-02 0. -1.
          2   -1    0    0  501    0  0.00000000000E+00 -0.00000000000E+00 -0.37596280277E+03  0.37596280278E+03  0.25500000000E-02 0.  1.
    5000001    1    1    2    0    0 -0.46985708777E+02 -0.44652871801E+02 -0.12623467829E+03  0.16144884574E+03  0.77000000000E+02 0.  0.
   -5000001    1    1    2    0    0  0.46985708777E+02  0.44652871801E+02 -0.22121020766E+03  0.24303187397E+03  0.77000000000E+02 0.  0.
<mgrwt>
<rscale>  0 0.20709105E+03</rscale>
<asrwt>0</asrwt>
<pdfrwt beam="1">  1        2 0.53708969E-01 0.20709105E+03</pdfrwt>
<pdfrwt beam="2">  1       -2 0.40739884E-02 0.20709105E+03</pdfrwt>
<totfact> 0.24017723E+04</totfact>
</mgrwt>
</event>
<event>
 4    1  0.6782240E-004  0.2362846E+03  0.7818608E-02  0.1122293E+00
          2   -1    0    0  501    0  0.00000000000E+00  0.00000000000E+00  0.33477965109E+02  0.33477965206E+02  0.25500000000E-02 0.  1.
         -2   -1    0    0    0  501 -0.00000000000E+00 -0.00000000000E+00 -0.41691923354E+03  0.41691923355E+03  0.25500000000E-02 0. -1.
    5000001    1    1    2    0    0  0.14666827328E+02  0.68316102088E+02 -0.84798579894E+02  0.13417154982E+03  0.77000000000E+02 0.  0.
   -5000001    1    1    2    0    0 -0.14666827328E+02 -0.68316102088E+02 -0.29864268854E+03  0.31622564893E+03  0.77000000000E+02 0.  0.
<mgrwt>
<rscale>  0 0.23628464E+03</rscale>
<asrwt>0</asrwt>
<pdfrwt beam="1">  1        2 0.47825667E-02 0.23628464E+03</pdfrwt>
<pdfrwt beam="2">  1       -2 0.59559887E-01 0.23628464E+03</pdfrwt>
<totfact> 0.44233836E+03</totfact>
</mgrwt>
</event>
<event>
 4    1  0.6782240E-004  0.1796708E+03  0.7818608E-02  0.1168122E+00
         -2   -1    0    0    0  501 -0.00000000000E+00  0.00000000000E+00  0.44540217750E+01  0.44540225049E+01  0.25500000000E-02 0. -1.
          2   -1    0    0  501    0  0.00000000000E+00 -0.00000000000E+00 -0.18119353960E+04  0.18119353960E+04  0.25500000000E-02 0.  1.
    5000001    1    1    2    0    0 -0.22215243796E+01 -0.41771416405E+02 -0.11038008037E+04  0.11072736792E+04  0.77000000000E+02 0.  0.
   -5000001    1    1    2    0    0  0.22215243796E+01  0.41771416405E+02 -0.70368057053E+03  0.70911573931E+03  0.77000000000E+02 0.  0.
<mgrwt>
<rscale>  0 0.17967081E+03</rscale>
<asrwt>0</asrwt>
<pdfrwt beam="1">  1        2 0.25884744E+00 0.17967081E+03</pdfrwt>
<pdfrwt beam="2">  1       -2 0.63629004E-03 0.17967081E+03</pdfrwt>
<totfact> 0.43646662E+04</totfact>
</mgrwt>
</event>
<event>
 4    1  0.6782240E-004  0.2556225E+03  0.7818608E-02  0.1109802E+00
          2   -1    0    0  501    0  0.00000000000E+00  0.00000000000E+00  0.26348013591E+03  0.26348013592E+03  0.25500000000E-02 0.  1.
         -2   -1    0    0    0  501 -0.00000000000E+00 -0.00000000000E+00 -0.61999814367E+02  0.61999814419E+02  0.25500000000E-02 0. -1.
    5000001    1    1    2    0    0 -0.68097508389E+02  0.63546789075E+02  0.47760940057E+02  0.12994449756E+03  0.77000000000E+02 0.  0.
   -5000001    1    1    2    0    0  0.68097508389E+02 -0.63546789075E+02  0.15371938148E+03  0.19553545278E+03  0.77000000000E+02 0.  0.
<mgrwt>
<rscale>  0 0.25562253E+03</rscale>
<asrwt>0</asrwt>
<pdfrwt beam="1">  1        2 0.37640019E-01 0.25562253E+03</pdfrwt>
<pdfrwt beam="2">  1       -2 0.88571165E-02 0.25562253E+03</pdfrwt>
<totfact> 0.10846597E+04</totfact>
</mgrwt>
</event>
<event>
 4    1  0.6782240E-004  0.2076307E+03  0.7818608E-02  0.1143456E+00
         -2   -1    0    0    0  501 -0.00000000000E+00  0.00000000000E+00  0.15190165606E+02  0.15190165820E+02  0.25500000000E-02 0. -1.
          2   -1    0    0  501    0  0.00000000000E+00 -0.00000000000E+00 -0.70951361319E+03  0.70951361320E+03  0.25500000000E-02 0.  1.
    5000001    1    1    2    0    0  0.63575348585E+02 -0.28233787292E+02 -0.35800861042E+03  0.37274406343E+03  0.77000000000E+02 0.  0.
   -5000001    1    1    2    0    0 -0.63575348585E+02  0.28233787292E+02 -0.33631483717E+03  0.35195971558E+03  0.77000000000E+02 0.  0.
<mgrwt>
<rscale>  0 0.20763072E+03</rscale>
<asrwt>0</asrwt>
<pdfrwt beam="1">  1        2 0.10135907E+00 0.20763072E+03</pdfrwt>
<pdfrwt beam="2">  1       -2 0.21700241E-02 0.20763072E+03</pdfrwt>
<totfact> 0.30147630E+04</totfact>
</mgrwt>
</event>
<event>
 4    1  0.6782240E-004  0.3068784E+03  0.7818608E-02  0.1081852E+00
          2   -1    0    0  501    0  0.00000000000E+00  0.00000000000E+00  0.82744994088E+03  0.82744994088E+03  0.25500000000E-02 0.  1.
         -2   -1    0    0    0  501 -0.00000000000E+00 -0.00000000000E+00 -0.28453184967E+02  0.28453185081E+02  0.25500000000E-02 0. -1.
    5000001    1    1    2    0    0 -0.11893466817E+03  0.46720583928E+02  0.29946786774E+03  0.33457177416E+03  0.77000000000E+02 0.  0.
   -5000001    1    1    2    0    0  0.11893466817E+03 -0.46720583928E+02  0.49952888817E+03  0.52133135180E+03  0.77000000000E+02 0.  0.
<mgrwt>
<rscale>  0 0.30687839E+03</rscale>
<asrwt>0</asrwt>
<pdfrwt beam="1">  1        2 0.11820714E+00 0.30687839E+03</pdfrwt>
<pdfrwt beam="2">  1       -2 0.40647405E-02 0.30687839E+03</pdfrwt>
<totfact> 0.10032482E+04</totfact>
</mgrwt>
</event>
<event>
 4    1  0.6782240E-004  0.3905974E+03  0.7818608E-02  0.1047085E+00
          2   -1    0    0  501    0  0.00000000000E+00  0.00000000000E+00  0.16890846666E+04  0.16890846666E+04  0.25500000000E-02 0.  1.
         -2   -1    0    0    0  501 -0.00000000000E+00 -0.00000000000E+00 -0.22581212232E+02  0.22581212376E+02  0.25500000000E-02 0. -1.
    5000001    1    1    2    0    0  0.17544893122E+03 -0.73271512301E+01  0.99583954370E+03  0.10141308650E+04  0.77000000000E+02 0.  0.
   -5000001    1    1    2    0    0 -0.17544893122E+03  0.73271512301E+01  0.67066391071E+03  0.69753501398E+03  0.77000000000E+02 0.  0.
<mgrwt>
<rscale>  0 0.39059739E+03</rscale>
<asrwt>0</asrwt>
<pdfrwt beam="1">  1        2 0.24129780E+00 0.39059739E+03</pdfrwt>
<pdfrwt beam="2">  1       -2 0.32258876E-02 0.39059739E+03</pdfrwt>
<totfact> 0.47764362E+03</totfact>
</mgrwt>
</event>
<event>
 4    1  0.6782240E-004  0.3921921E+03  0.7818608E-02  0.1046517E+00
         -2   -1    0    0    0  501 -0.00000000000E+00  0.00000000000E+00  0.79198980542E+03  0.79198980542E+03  0.25500000000E-02 0. -1.
          2   -1    0    0  501    0  0.00000000000E+00 -0.00000000000E+00 -0.48553232829E+02  0.48553232896E+02  0.25500000000E-02 0.  1.
    5000001    1    1    2    0    0 -0.71937397889E+02  0.16377789361E+03  0.32254252182E+03  0.37677694466E+03  0.77000000000E+02 0.  0.
   -5000001    1    1    2    0    0  0.71937397889E+02 -0.16377789361E+03  0.42089405078E+03  0.46376609366E+03  0.77000000000E+02 0.  0.
<mgrwt>
<rscale>  0 0.39219212E+03</rscale>
<asrwt>0</asrwt>
<pdfrwt beam="1">  1        2 0.69361763E-02 0.39219212E+03</pdfrwt>
<pdfrwt beam="2">  1       -2 0.11314140E+00 0.39219212E+03</pdfrwt>
<totfact> 0.65887065E+02</totfact>
</mgrwt>
</event>
<event>
 4    1  0.6782240E-004  0.2141195E+03  0.7818608E-02  0.1138345E+00
         -2   -1    0    0    0  501 -0.00000000000E+00  0.00000000000E+00  0.23509272927E+02  0.23509273065E+02  0.25500000000E-02 0. -1.
          2   -1    0    0  501    0  0.00000000000E+00 -0.00000000000E+00 -0.48754359274E+03  0.48754359275E+03  0.25500000000E-02 0.  1.
    5000001    1    1    2    0    0 -0.20648938684E+02 -0.68345142612E+02 -0.28181756643E+03  0.30074503809E+03  0.77000000000E+02 0.  0.
   -5000001    1    1    2    0    0  0.20648938684E+02  0.68345142612E+02 -0.18221675339E+03  0.21030782772E+03  0.77000000000E+02 0.  0.
<mgrwt>
<rscale>  0 0.21411955E+03</rscale>
<asrwt>0</asrwt>
<pdfrwt beam="1">  1        2 0.69649079E-01 0.21411955E+03</pdfrwt>
<pdfrwt beam="2">  1       -2 0.33584679E-02 0.21411955E+03</pdfrwt>
<totfact> 0.24250203E+04</totfact>
</mgrwt>
</event>
<event>
 4    1  0.6782240E-004  0.3775946E+03  0.7818608E-02  0.1051826E+00
          2   -1    0    0  501    0  0.00000000000E+00  0.00000000000E+00  0.11130342761E+04  0.11130342761E+04  0.25500000000E-02 0.  1.
         -2   -1    0    0    0  501 -0.00000000000E+00 -0.00000000000E+00 -0.32024545434E+02  0.32024545535E+02  0.25500000000E-02 0. -1.
    5000001    1    1    2    0    0  0.12971614766E+03 -0.11340051970E+03  0.55696442511E+03  0.58806830187E+03  0.77000000000E+02 0.  0.
   -5000001    1    1    2    0    0 -0.12971614766E+03  0.11340051970E+03  0.52404530559E+03  0.55699051980E+03  0.77000000000E+02 0.  0.
<mgrwt>
<rscale>  0 0.37759458E+03</rscale>
<asrwt>0</asrwt>
<pdfrwt beam="1">  1        2 0.15900484E+00 0.37759458E+03</pdfrwt>
<pdfrwt beam="2">  1       -2 0.45749366E-02 0.37759458E+03</pdfrwt>
<totfact> 0.56467188E+03</totfact>
</mgrwt>
</event>
<event>
 4    1  0.6782240E-004  0.1894756E+03  0.7818608E-02  0.1158935E+00
         -2   -1    0    0    0  501 -0.00000000000E+00  0.00000000000E+00  0.65560230764E+01  0.65560235723E+01  0.25500000000E-02 0. -1.
          2   -1    0    0  501    0  0.00000000000E+00 -0.00000000000E+00 -0.13690086234E+04  0.13690086234E+04  0.25500000000E-02 0.  1.
    5000001    1    1    2    0    0 -0.34534127765E+02  0.43037710668E+02 -0.68982224981E+03  0.69629633552E+03  0.77000000000E+02 0.  0.
   -5000001    1    1    2    0    0  0.34534127765E+02 -0.43037710668E+02 -0.67263035052E+03  0.67926831147E+03  0.77000000000E+02 0.  0.
<mgrwt>
<rscale>  0 0.18947562E+03</rscale>
<asrwt>0</asrwt>
<pdfrwt beam="1">  1        2 0.19557248E+00 0.18947562E+03</pdfrwt>
<pdfrwt beam="2">  1       -2 0.93657564E-03 0.18947562E+03</pdfrwt>
<totfact> 0.41603853E+04</totfact>
</mgrwt>
</event>
<event>
 4    1  0.6782240E-004  0.2299796E+03  0.7818608E-02  0.1126654E+00
          2   -1    0    0  501    0  0.00000000000E+00  0.00000000000E+00  0.78992172260E+03  0.78992172260E+03  0.25500000000E-02 0.  1.
         -2   -1    0    0    0  501 -0.00000000000E+00 -0.00000000000E+00 -0.16739195626E+02  0.16739195820E+02  0.25500000000E-02 0. -1.
    5000001    1    1    2    0    0  0.77488619793E+02 -0.25276611700E+02  0.29714842739E+03  0.31759971851E+03  0.77000000000E+02 0.  0.
   -5000001    1    1    2    0    0 -0.77488619793E+02  0.25276611700E+02  0.47603409958E+03  0.48906119991E+03  0.77000000000E+02 0.  0.
<mgrwt>
<rscale>  0 0.22997960E+03</rscale>
<asrwt>0</asrwt>
<pdfrwt beam="1">  1        2 0.11284596E+00 0.22997960E+03</pdfrwt>
<pdfrwt beam="2">  1       -2 0.23913136E-02 0.22997960E+03</pdfrwt>
<totfact> 0.23127523E+04</totfact>
</mgrwt>
</event>
<event>
 4    1  0.6782240E-004  0.1806515E+03  0.7818608E-02  0.1167174E+00
          2   -1    0    0  501    0  0.00000000000E+00  0.00000000000E+00  0.90752357855E+02  0.90752357891E+02  0.25500000000E-02 0.  1.
         -2   -1    0    0    0  501 -0.00000000000E+00 -0.00000000000E+00 -0.89901178636E+02  0.89901178672E+02  0.25500000000E-02 0. -1.
    5000001    1    1    2    0    0  0.40809259513E+00  0.45378584979E+02 -0.12626812832E+02  0.90265269714E+02  0.77000000000E+02 0.  0.
   -5000001    1    1    2    0    0 -0.40809259513E+00 -0.45378584979E+02  0.13477992052E+02  0.90388266849E+02  0.77000000000E+02 0.  0.
<mgrwt>
<rscale>  0 0.18065153E+03</rscale>
<asrwt>0</asrwt>
<pdfrwt beam="1">  1        2 0.12964623E-01 0.18065153E+03</pdfrwt>
<pdfrwt beam="2">  1       -2 0.12843026E-01 0.18065153E+03</pdfrwt>
<totfact> 0.19583779E+04</totfact>
</mgrwt>
</event>
<event>
 4    1  0.6782240E-004  0.3901173E+03  0.7818608E-02  0.1047256E+00
          2   -1    0    0  501    0  0.00000000000E+00  0.00000000000E+00  0.80258195140E+02  0.80258195181E+02  0.25500000000E-02 0.  1.
         -2   -1    0    0    0  501 -0.00000000000E+00 -0.00000000000E+00 -0.47406853291E+03  0.47406853291E+03  0.25500000000E-02 0. -1.
    5000001    1    1    2    0    0  0.16985465348E+03 -0.53876404121E+02 -0.22407471196E+03  0.29646542255E+03  0.77000000000E+02 0.  0.
   -5000001    1    1    2    0    0 -0.16985465348E+03  0.53876404121E+02 -0.16973562580E+03  0.25786130554E+03  0.77000000000E+02 0.  0.
<mgrwt>
<rscale>  0 0.39011734E+03</rscale>
<asrwt>0</asrwt>
<pdfrwt beam="1">  1        2 0.11465457E-01 0.39011734E+03</pdfrwt>
<pdfrwt beam="2">  1       -2 0.67724075E-01 0.39011734E+03</pdfrwt>
<totfact> 0.11151074E+03</totfact>
</mgrwt>
</event>
<event>
 4    1  0.6782240E-004  0.2955235E+03  0.7818608E-02  0.1087500E+00
          2   -1    0    0  501    0  0.00000000000E+00  0.00000000000E+00  0.79637837984E+02  0.79637838025E+02  0.25500000000E-02 0.  1.
         -2   -1    0    0    0  501 -0.00000000000E+00 -0.00000000000E+00 -0.27416036262E+03  0.27416036263E+03  0.25500000000E-02 0. -1.
    5000001    1    1    2    0    0 -0.55693156563E+02  0.11282861103E+03 -0.87066463385E+02  0.17129387672E+03  0.77000000000E+02 0.  0.
   -5000001    1    1    2    0    0  0.55693156563E+02 -0.11282861103E+03 -0.10745606125E+03  0.18250432393E+03  0.77000000000E+02 0.  0.
<mgrwt>
<rscale>  0 0.29552353E+03</rscale>
<asrwt>0</asrwt>
<pdfrwt beam="1">  1        2 0.11376834E-01 0.29552353E+03</pdfrwt>
<pdfrwt beam="2">  1       -2 0.39165765E-01 0.29552353E+03</pdfrwt>
<totfact> 0.33810567E+03</totfact>
</mgrwt>
</event>
<event>
 4    1  0.6782240E-004  0.2557106E+03  0.7818608E-02  0.1109748E+00
          2   -1    0    0  501    0  0.00000000000E+00  0.00000000000E+00  0.11036221811E+03  0.11036221814E+03  0.25500000000E-02 0.  1.
         -2   -1    0    0    0  501 -0.00000000000E+00 -0.00000000000E+00 -0.14812116714E+03  0.14812116716E+03  0.25500000000E-02 0. -1.
    5000001    1    1    2    0    0 -0.19847235544E+01  0.64751957638E+02  0.60850538124E+02  0.11759482614E+03  0.77000000000E+02 0.  0.
   -5000001    1    1    2    0    0  0.19847235544E+01 -0.64751957638E+02 -0.98609487149E+02  0.14088855916E+03  0.77000000000E+02 0.  0.
<mgrwt>
<rscale>  0 0.25571062E+03</rscale>
<asrwt>0</asrwt>
<pdfrwt beam="1">  1        2 0.15766031E-01 0.25571062E+03</pdfrwt>
<pdfrwt beam="2">  1       -2 0.21160167E-01 0.25571062E+03</pdfrwt>
<totfact> 0.69121591E+03</totfact>
</mgrwt>
</event>
<event>
 4    1  0.6782240E-004  0.2883091E+03  0.7818608E-02  0.1091235E+00
          2   -1    0    0  501    0  0.00000000000E+00  0.00000000000E+00  0.23851568351E+04  0.23851568351E+04  0.25500000000E-02 0.  1.
         -2   -1    0    0    0  501 -0.00000000000E+00 -0.00000000000E+00 -0.87124394120E+01  0.87124397852E+01  0.25500000000E-02 0. -1.
    5000001    1    1    2    0    0 -0.10525880599E+03  0.31814816819E+02  0.75201624885E+03  0.76390381419E+03  0.77000000000E+02 0.  0.
   -5000001    1    1    2    0    0  0.10525880599E+03 -0.31814816819E+02  0.16244281468E+04  0.16299654607E+04  0.77000000000E+02 0.  0.
<mgrwt>
<rscale>  0 0.28830910E+03</rscale>
<asrwt>0</asrwt>
<pdfrwt beam="1">  1        2 0.34073662E+00 0.28830910E+03</pdfrwt>
<pdfrwt beam="2">  1       -2 0.12446345E-02 0.28830910E+03</pdfrwt>
<totfact> 0.88678570E+03</totfact>
</mgrwt>
</event>
<event>
 4    1  0.6782240E-004  0.4555406E+03  0.7818608E-02  0.1026083E+00
         -2   -1    0    0    0  501 -0.00000000000E+00  0.00000000000E+00  0.15835922940E+03  0.15835922942E+03  0.25500000000E-02 0. -1.
          2   -1    0    0  501    0  0.00000000000E+00 -0.00000000000E+00 -0.32760521436E+03  0.32760521437E+03  0.25500000000E-02 0.  1.
    5000001    1    1    2    0    0 -0.18085805967E+03 -0.93116765546E+01  0.37727503621E+02  0.20037142910E+03  0.77000000000E+02 0.  0.
   -5000001    1    1    2    0    0  0.18085805967E+03  0.93116765546E+01 -0.20697348858E+03  0.28559301469E+03  0.77000000000E+02 0.  0.
<mgrwt>
<rscale>  0 0.45554060E+03</rscale>
<asrwt>0</asrwt>
<pdfrwt beam="1">  1        2 0.46800745E-01 0.45554060E+03</pdfrwt>
<pdfrwt beam="2">  1       -2 0.22622747E-01 0.45554060E+03</pdfrwt>
<totfact> 0.18415130E+03</totfact>
</mgrwt>
</event>
<event>
 4    1  0.6782240E-004  0.4211909E+03  0.7818608E-02  0.1036679E+00
         -2   -1    0    0    0  501 -0.00000000000E+00  0.00000000000E+00  0.27439459062E+02  0.27439459180E+02  0.25500000000E-02 0. -1.
          2   -1    0    0  501    0  0.00000000000E+00 -0.00000000000E+00 -0.16163016340E+04  0.16163016340E+04  0.25500000000E-02 0.  1.
    5000001    1    1    2    0    0  0.15139657034E+03 -0.57789918635E-01 -0.30855274609E+03  0.35221402863E+03  0.77000000000E+02 0.  0.
   -5000001    1    1    2    0    0 -0.15139657034E+03  0.57789918635E-01 -0.12803094288E+04  0.12915270645E+04  0.77000000000E+02 0.  0.
<mgrwt>
<rscale>  0 0.42119090E+03</rscale>
<asrwt>0</asrwt>
<pdfrwt beam="1">  1        2 0.23090017E+00 0.42119090E+03</pdfrwt>
<pdfrwt beam="2">  1       -2 0.39199237E-02 0.42119090E+03</pdfrwt>
<totfact> 0.38688171E+03</totfact>
</mgrwt>
</event>
<event>
 4    1  0.6782240E-004  0.3411239E+03  0.7818608E-02  0.1066318E+00
          2   -1    0    0  501    0  0.00000000000E+00  0.00000000000E+00  0.25276525427E+02  0.25276525556E+02  0.25500000000E-02 0.  1.
         -2   -1    0    0    0  501 -0.00000000000E+00 -0.00000000000E+00 -0.11509244144E+04  0.11509244144E+04  0.25500000000E-02 0. -1.
    5000001    1    1    2    0    0  0.75729297727E+02  0.34739134044E+02 -0.12368355675E+03  0.16783431168E+03  0.77000000000E+02 0.  0.
   -5000001    1    1    2    0    0 -0.75729297727E+02 -0.34739134044E+02 -0.10019643322E+04  0.10083666282E+04  0.77000000000E+02 0.  0.
<mgrwt>
<rscale>  0 0.34112385E+03</rscale>
<asrwt>0</asrwt>
<pdfrwt beam="1">  1        2 0.36109329E-02 0.34112385E+03</pdfrwt>
<pdfrwt beam="2">  1       -2 0.16441774E+00 0.34112385E+03</pdfrwt>
<totfact> 0.60907681E+02</totfact>
</mgrwt>
</event>
<event>
 4    1  0.6782240E-004  0.2818688E+03  0.7818608E-02  0.1094673E+00
          2   -1    0    0  501    0  0.00000000000E+00  0.00000000000E+00  0.34637738836E+03  0.34637738837E+03  0.25500000000E-02 0.  1.
         -2   -1    0    0    0  501 -0.00000000000E+00 -0.00000000000E+00 -0.57343538206E+02  0.57343538263E+02  0.25500000000E-02 0. -1.
    5000001    1    1    2    0    0 -0.79795595647E+02 -0.79182826911E+02  0.92949163403E+02  0.16494182047E+03  0.77000000000E+02 0.  0.
   -5000001    1    1    2    0    0  0.79795595647E+02  0.79182826911E+02  0.19608468675E+03  0.23877910617E+03  0.77000000000E+02 0.  0.
<mgrwt>
<rscale>  0 0.28186880E+03</rscale>
<asrwt>0</asrwt>
<pdfrwt beam="1">  1        2 0.49482484E-01 0.28186880E+03</pdfrwt>
<pdfrwt beam="2">  1       -2 0.81919341E-02 0.28186880E+03</pdfrwt>
<totfact> 0.91733557E+03</totfact>
</mgrwt>
</event>
<event>
 4    1  0.6782240E-004  0.2673754E+03  0.7818608E-02  0.1102791E+00
          2   -1    0    0  501    0  0.00000000000E+00  0.00000000000E+00  0.15863748947E+04  0.15863748947E+04  0.25500000000E-02 0.  1.
         -2   -1    0    0    0  501 -0.00000000000E+00 -0.00000000000E+00 -0.11266186808E+02  0.11266187097E+02  0.25500000000E-02 0. -1.
    5000001    1    1    2    0    0 -0.74448006374E+02  0.79182025942E+02  0.85596987471E+03  0.86627116153E+03  0.77000000000E+02 0.  0.
   -5000001    1    1    2    0    0  0.74448006374E+02 -0.79182025942E+02  0.71913883319E+03  0.73136992028E+03  0.77000000000E+02 0.  0.
<mgrwt>
<rscale>  0 0.26737536E+03</rscale>
<asrwt>0</asrwt>
<pdfrwt beam="1">  1        2 0.22662507E+00 0.26737536E+03</pdfrwt>
<pdfrwt beam="2">  1       -2 0.16094547E-02 0.26737536E+03</pdfrwt>
<totfact> 0.14998310E+04</totfact>
</mgrwt>
</event>
<event>
 4    1  0.6782240E-004  0.2239538E+03  0.7818608E-02  0.1130969E+00
          2   -1    0    0  501    0  0.00000000000E+00  0.00000000000E+00  0.17800050183E+04  0.17800050183E+04  0.25500000000E-02 0.  1.
         -2   -1    0    0    0  501 -0.00000000000E+00 -0.00000000000E+00 -0.70442655237E+01  0.70442659852E+01  0.25500000000E-02 0. -1.
    5000001    1    1    2    0    0  0.76206197910E+01 -0.71929663359E+02  0.11826792826E+04  0.11873884098E+04  0.77000000000E+02 0.  0.
   -5000001    1    1    2    0    0 -0.76206197910E+01  0.71929663359E+02  0.59028147022E+03  0.59966087450E+03  0.77000000000E+02 0.  0.
<mgrwt>
<rscale>  0 0.22395382E+03</rscale>
<asrwt>0</asrwt>
<pdfrwt beam="1">  1        2 0.25428619E+00 0.22395382E+03</pdfrwt>
<pdfrwt beam="2">  1       -2 0.10063246E-02 0.22395382E+03</pdfrwt>
<totfact> 0.23686464E+04</totfact>
</mgrwt>
</event>
<event>
 4    1  0.6782240E-004  0.2614307E+03  0.7818608E-02  0.1106287E+00
          2   -1    0    0  501    0  0.00000000000E+00  0.00000000000E+00  0.37785143166E+03  0.37785143167E+03  0.25500000000E-02 0.  1.
         -2   -1    0    0    0  501 -0.00000000000E+00 -0.00000000000E+00 -0.45220154173E+02  0.45220154245E+02  0.25500000000E-02 0. -1.
    5000001    1    1    2    0    0 -0.74892847776E+02  0.73662573641E+02  0.14841270286E+03  0.19745998018E+03  0.77000000000E+02 0.  0.
   -5000001    1    1    2    0    0  0.74892847776E+02 -0.73662573641E+02  0.18421857463E+03  0.22561160574E+03  0.77000000000E+02 0.  0.
<mgrwt>
<rscale>  0 0.26143068E+03</rscale>
<asrwt>0</asrwt>
<pdfrwt beam="1">  1        2 0.53978778E-01 0.26143068E+03</pdfrwt>
<pdfrwt beam="2">  1       -2 0.64600218E-02 0.26143068E+03</pdfrwt>
<totfact> 0.12036086E+04</totfact>
</mgrwt>
</event>
<event>
 4    1  0.6782240E-004  0.2187593E+03  0.7818608E-02  0.1134811E+00
         -2   -1    0    0    0  501 -0.00000000000E+00  0.00000000000E+00  0.56228794102E+02  0.56228794159E+02  0.25500000000E-02 0. -1.
          2   -1    0    0  501    0  0.00000000000E+00 -0.00000000000E+00 -0.21277199165E+03  0.21277199167E+03  0.25500000000E-02 0.  1.
    5000001    1    1    2    0    0 -0.35449917590E+02 -0.67841567901E+02 -0.94572784424E+02  0.14398675823E+03  0.77000000000E+02 0.  0.
   -5000001    1    1    2    0    0  0.35449917590E+02  0.67841567901E+02 -0.61970413127E+02  0.12501402760E+03  0.77000000000E+02 0.  0.
<mgrwt>
<rscale>  0 0.21875934E+03</rscale>
<asrwt>0</asrwt>
<pdfrwt beam="1">  1        2 0.30395998E-01 0.21875934E+03</pdfrwt>
<pdfrwt beam="2">  1       -2 0.80326850E-02 0.21875934E+03</pdfrwt>
<totfact> 0.15796218E+04</totfact>
</mgrwt>
</event>
<event>
 4    1  0.6782240E-004  0.3710648E+03  0.7818608E-02  0.1054287E+00
         -2   -1    0    0    0  501 -0.00000000000E+00  0.00000000000E+00  0.13420588118E+02  0.13420588361E+02  0.25500000000E-02 0. -1.
          2   -1    0    0  501    0  0.00000000000E+00 -0.00000000000E+00 -0.25648855597E+04  0.25648855597E+04  0.25500000000E-02 0.  1.
    5000001    1    1    2    0    0  0.12783652575E+03 -0.85511705380E+02 -0.17590755854E+04  0.17674643827E+04  0.77000000000E+02 0.  0.
   -5000001    1    1    2    0    0 -0.12783652575E+03  0.85511705380E+02 -0.79238938624E+03  0.81084176539E+03  0.77000000000E+02 0.  0.
<mgrwt>
<rscale>  0 0.37106481E+03</rscale>
<asrwt>0</asrwt>
<pdfrwt beam="1">  1        2 0.36641191E+00 0.37106481E+03</pdfrwt>
<pdfrwt beam="2">  1       -2 0.19172285E-02 0.37106481E+03</pdfrwt>
<totfact> 0.38118595E+03</totfact>
</mgrwt>
</event>
<event>
 4    1  0.6782240E-004  0.3072350E+03  0.7818608E-02  0.1081679E+00
         -2   -1    0    0    0  501 -0.00000000000E+00  0.00000000000E+00  0.12193742272E+03  0.12193742275E+03  0.25500000000E-02 0. -1.
          2   -1    0    0  501    0  0.00000000000E+00 -0.00000000000E+00 -0.19352825314E+03  0.19352825315E+03  0.25500000000E-02 0.  1.
    5000001    1    1    2    0    0  0.36791432135E+02  0.12257503925E+03 -0.72689702540E+02  0.16610551640E+03  0.77000000000E+02 0.  0.
   -5000001    1    1    2    0    0 -0.36791432135E+02 -0.12257503925E+03  0.10988721250E+01  0.14936015950E+03  0.77000000000E+02 0.  0.
<mgrwt>
<rscale>  0 0.30723500E+03</rscale>
<asrwt>0</asrwt>
<pdfrwt beam="1">  1        2 0.27646893E-01 0.30723500E+03</pdfrwt>
<pdfrwt beam="2">  1       -2 0.17419632E-01 0.30723500E+03</pdfrwt>
<totfact> 0.51051455E+03</totfact>
</mgrwt>
</event>
<event>
 4    1  0.6782240E-004  0.4274062E+03  0.7818608E-02  0.1034682E+00
          2   -1    0    0  501    0  0.00000000000E+00  0.00000000000E+00  0.24266464617E+04  0.24266464617E+04  0.25500000000E-02 0.  1.
         -2   -1    0    0    0  501 -0.00000000000E+00 -0.00000000000E+00 -0.18819804869E+02  0.18819805041E+02  0.25500000000E-02 0. -1.
    5000001    1    1    2    0    0  0.16863390454E+03 -0.63436744932E+02  0.71577963087E+03  0.74211258872E+03  0.77000000000E+02 0.  0.
   -5000001    1    1    2    0    0 -0.16863390454E+03  0.63436744932E+02  0.16920470259E+04  0.17033536780E+04  0.77000000000E+02 0.  0.
<mgrwt>
<rscale>  0 0.42740619E+03</rscale>
<asrwt>0</asrwt>
<pdfrwt beam="1">  1        2 0.34666334E+00 0.42740619E+03</pdfrwt>
<pdfrwt beam="2">  1       -2 0.26885470E-02 0.42740619E+03</pdfrwt>
<totfact> 0.26962038E+03</totfact>
</mgrwt>
</event>
<event>
 4    1  0.6782240E-004  0.2937277E+03  0.7818608E-02  0.1088419E+00
         -2   -1    0    0    0  501 -0.00000000000E+00  0.00000000000E+00  0.64198831970E+02  0.64198832021E+02  0.25500000000E-02 0. -1.
          2   -1    0    0  501    0  0.00000000000E+00 -0.00000000000E+00 -0.33597165943E+03  0.33597165944E+03  0.25500000000E-02 0.  1.
    5000001    1    1    2    0    0 -0.11135224118E+02 -0.12148737246E+03 -0.98406848890E+02  0.17463127667E+03  0.77000000000E+02 0.  0.
   -5000001    1    1    2    0    0  0.11135224118E+02  0.12148737246E+03 -0.17336597857E+03  0.22553921479E+03  0.77000000000E+02 0.  0.
<mgrwt>
<rscale>  0 0.29372768E+03</rscale>
<asrwt>0</asrwt>
<pdfrwt beam="1">  1        2 0.47995951E-01 0.29372768E+03</pdfrwt>
<pdfrwt beam="2">  1       -2 0.91712619E-02 0.29372768E+03</pdfrwt>
<totfact> 0.79492426E+03</totfact>
</mgrwt>
</event>
<event>
 4    1  0.6782240E-004  0.3541009E+03  0.7818608E-02  0.1060944E+00
         -2   -1    0    0    0  501 -0.00000000000E+00  0.00000000000E+00  0.29246959160E+03  0.29246959162E+03  0.25500000000E-02 0. -1.
          2   -1    0    0  501    0  0.00000000000E+00 -0.00000000000E+00 -0.10717988524E+03  0.10717988527E+03  0.25500000000E-02 0.  1.
    5000001    1    1    2    0    0 -0.92801883585E+02  0.12862023089E+03  0.11093091205E+03  0.20830271395E+03  0.77000000000E+02 0.  0.
   -5000001    1    1    2    0    0  0.92801883585E+02 -0.12862023089E+03  0.74358794315E+02  0.19134676293E+03  0.77000000000E+02 0.  0.
<mgrwt>
<rscale>  0 0.35410087E+03</rscale>
<asrwt>0</asrwt>
<pdfrwt beam="1">  1        2 0.15311412E-01 0.35410087E+03</pdfrwt>
<pdfrwt beam="2">  1       -2 0.41781370E-01 0.35410087E+03</pdfrwt>
<totfact> 0.20939888E+03</totfact>
</mgrwt>
</event>
<event>
 4    1  0.6782240E-004  0.1937516E+03  0.7818608E-02  0.1155121E+00
          2   -1    0    0  501    0  0.00000000000E+00  0.00000000000E+00  0.13639103728E+04  0.13639103728E+04  0.25500000000E-02 0.  1.
         -2   -1    0    0    0  501 -0.00000000000E+00 -0.00000000000E+00 -0.68808918124E+01  0.68808922849E+01  0.25500000000E-02 0. -1.
    5000001    1    1    2    0    0  0.40673933339E+02 -0.46974299372E+01  0.38006359394E+03  0.38994072644E+03  0.77000000000E+02 0.  0.
   -5000001    1    1    2    0    0 -0.40673933339E+02  0.46974299372E+01  0.97696588702E+03  0.98085053861E+03  0.77000000000E+02 0.  0.
<mgrwt>
<rscale>  0 0.19375159E+03</rscale>
<asrwt>0</asrwt>
<pdfrwt beam="1">  1        2 0.19484440E+00 0.19375159E+03</pdfrwt>
<pdfrwt beam="2">  1       -2 0.98298425E-03 0.19375159E+03</pdfrwt>
<totfact> 0.39100327E+04</totfact>
</mgrwt>
</event>
<event>
 4    1  0.6782240E-004  0.2465279E+03  0.7818608E-02  0.1115519E+00
          2   -1    0    0  501    0  0.00000000000E+00  0.00000000000E+00  0.51512363757E+03  0.51512363757E+03  0.25500000000E-02 0.  1.
         -2   -1    0    0    0  501 -0.00000000000E+00 -0.00000000000E+00 -0.29495827223E+02  0.29495827333E+02  0.25500000000E-02 0. -1.
    5000001    1    1    2    0    0  0.39127237980E+02 -0.27916581328E+02  0.42704672842E+03  0.43658697246E+03  0.77000000000E+02 0.  0.
   -5000001    1    1    2    0    0 -0.39127237980E+02  0.27916581328E+02  0.58581081920E+02  0.10803249245E+03  0.77000000000E+02 0.  0.
<mgrwt>
<rscale>  0 0.24652787E+03</rscale>
<asrwt>0</asrwt>
<pdfrwt beam="1">  1        2 0.73589084E-01 0.24652787E+03</pdfrwt>
<pdfrwt beam="2">  1       -2 0.42136900E-02 0.24652787E+03</pdfrwt>
<totfact> 0.16400142E+04</totfact>
</mgrwt>
</event>
<event>
 4    1  0.6782240E-004  0.5209703E+03  0.7818608E-02  0.1008446E+00
          2   -1    0    0  501    0  0.00000000000E+00  0.00000000000E+00  0.13222924291E+04  0.13222924291E+04  0.25500000000E-02 0.  1.
         -2   -1    0    0    0  501 -0.00000000000E+00 -0.00000000000E+00 -0.51314293093E+02  0.51314293156E+02  0.25500000000E-02 0. -1.
    5000001    1    1    2    0    0  0.19554988880E+03  0.15197483233E+02  0.10392707702E+04  0.10604166428E+04  0.77000000000E+02 0.  0.
   -5000001    1    1    2    0    0 -0.19554988880E+03 -0.15197483233E+02  0.23170736577E+03  0.31319007943E+03  0.77000000000E+02 0.  0.
<mgrwt>
<rscale>  0 0.52097025E+03</rscale>
<asrwt>0</asrwt>
<pdfrwt beam="1">  1        2 0.18889894E+00 0.52097025E+03</pdfrwt>
<pdfrwt beam="2">  1       -2 0.73306126E-02 0.52097025E+03</pdfrwt>
<totfact> 0.20842719E+03</totfact>
</mgrwt>
</event>
<event>
 4    1  0.6782240E-004  0.3299319E+03  0.7818608E-02  0.1071167E+00
         -2   -1    0    0    0  501 -0.00000000000E+00  0.00000000000E+00  0.18995873697E+02  0.18995873868E+02  0.25500000000E-02 0.  1.
          2   -1    0    0  501    0  0.00000000000E+00 -0.00000000000E+00 -0.14326145349E+04  0.14326145349E+04  0.25500000000E-02 0. -1.
    5000001    1    1    2    0    0 -0.82002898657E+02 -0.12060899385E+03 -0.72312994752E+03  0.74169867587E+03  0.77000000000E+02 0.  0.
   -5000001    1    1    2    0    0  0.82002898657E+02  0.12060899385E+03 -0.69048871367E+03  0.70991173289E+03  0.77000000000E+02 0.  0.
<mgrwt>
<rscale>  0 0.32993190E+03</rscale>
<asrwt>0</asrwt>
<pdfrwt beam="1">  1        2 0.20465915E+00 0.32993190E+03</pdfrwt>
<pdfrwt beam="2">  1       -2 0.27136972E-02 0.32993190E+03</pdfrwt>
<totfact> 0.83365560E+03</totfact>
</mgrwt>
</event>
<event>
 4    1  0.6782240E-004  0.2460567E+03  0.7818608E-02  0.1115823E+00
         -2   -1    0    0    0  501 -0.00000000000E+00  0.00000000000E+00  0.45486489757E+01  0.45486496905E+01  0.25500000000E-02 0.  1.
          2   -1    0    0  501    0  0.00000000000E+00 -0.00000000000E+00 -0.33275768015E+04  0.33275768015E+04  0.25500000000E-02 0. -1.
    5000001    1    1    2    0    0  0.78090883972E+02 -0.40229730021E+02 -0.21843098364E+04  0.21874311598E+04  0.77000000000E+02 0.  0.
   -5000001    1    1    2    0    0 -0.78090883972E+02  0.40229730021E+02 -0.11387183161E+04  0.11446942914E+04  0.77000000000E+02 0.  0.
<mgrwt>
<rscale>  0 0.24605674E+03</rscale>
<asrwt>0</asrwt>
<pdfrwt beam="1">  1        2 0.47536655E+00 0.24605674E+03</pdfrwt>
<pdfrwt beam="2">  1       -2 0.64980918E-03 0.24605674E+03</pdfrwt>
<totfact> 0.73371436E+03</totfact>
</mgrwt>
</event>
<event>
 4    1  0.6782240E-004  0.2599864E+03  0.7818608E-02  0.1107151E+00
         -2   -1    0    0    0  501 -0.00000000000E+00  0.00000000000E+00  0.61189009412E+02  0.61189009465E+02  0.25500000000E-02 0. -1.
          2   -1    0    0  501    0  0.00000000000E+00 -0.00000000000E+00 -0.27616439216E+03  0.27616439217E+03  0.25500000000E-02 0.  1.
    5000001    1    1    2    0    0  0.66084979114E+02 -0.70446397816E+02 -0.54950774451E+02  0.13519802899E+03  0.77000000000E+02 0.  0.
   -5000001    1    1    2    0    0 -0.66084979114E+02  0.70446397816E+02 -0.16002460829E+03  0.20215537265E+03  0.77000000000E+02 0.  0.
<mgrwt>
<rscale>  0 0.25998635E+03</rscale>
<asrwt>0</asrwt>
<pdfrwt beam="1">  1        2 0.39452055E-01 0.25998635E+03</pdfrwt>
<pdfrwt beam="2">  1       -2 0.87412872E-02 0.25998635E+03</pdfrwt>
<totfact> 0.10533945E+04</totfact>
</mgrwt>
</event>
<event>
 4    1  0.6782240E-004  0.1631455E+03  0.7818608E-02  0.1185191E+00
         -2   -1    0    0    0  501 -0.00000000000E+00  0.00000000000E+00  0.61361450341E+03  0.61361450341E+03  0.25500000000E-02 0. -1.
          2   -1    0    0  501    0  0.00000000000E+00 -0.00000000000E+00 -0.10844121491E+02  0.10844121791E+02  0.25500000000E-02 0.  1.
    5000001    1    1    2    0    0  0.22293083804E+02 -0.58975813607E+00  0.24361718924E+03  0.25646766715E+03  0.77000000000E+02 0.  0.
   -5000001    1    1    2    0    0 -0.22293083804E+02  0.58975813607E+00  0.35915319268E+03  0.36799095806E+03  0.77000000000E+02 0.  0.
<mgrwt>
<rscale>  0 0.16314546E+03</rscale>
<asrwt>0</asrwt>
<pdfrwt beam="1">  1        2 0.15491604E-02 0.16314546E+03</pdfrwt>
<pdfrwt beam="2">  1       -2 0.87659207E-01 0.16314546E+03</pdfrwt>
<totfact> 0.86618311E+03</totfact>
</mgrwt>
</event>
<event>
 4    1  0.6782240E-004  0.2865566E+03  0.7818608E-02  0.1092161E+00
          2   -1    0    0  501    0  0.00000000000E+00  0.00000000000E+00  0.78893738420E+03  0.78893738421E+03  0.25500000000E-02 0.  1.
         -2   -1    0    0    0  501 -0.00000000000E+00 -0.00000000000E+00 -0.26020654197E+02  0.26020654322E+02  0.25500000000E-02 0. -1.
    5000001    1    1    2    0    0 -0.36415306187E+01 -0.11457241286E+03  0.49011020884E+03  0.50919261124E+03  0.77000000000E+02 0.  0.
   -5000001    1    1    2    0    0  0.36415306187E+01  0.11457241286E+03  0.27280652117E+03  0.30576542729E+03  0.77000000000E+02 0.  0.
<mgrwt>
<rscale>  0 0.28655657E+03</rscale>
<asrwt>0</asrwt>
<pdfrwt beam="1">  1        2 0.11270535E+00 0.28655657E+03</pdfrwt>
<pdfrwt beam="2">  1       -2 0.37172361E-02 0.28655657E+03</pdfrwt>
<totfact> 0.12151289E+04</totfact>
</mgrwt>
</event>
<event>
 4    1  0.6782240E-004  0.2084727E+03  0.7818608E-02  0.1142781E+00
         -2   -1    0    0    0  501 -0.00000000000E+00  0.00000000000E+00  0.21767541934E+03  0.21767541936E+03  0.25500000000E-02 0. -1.
          2   -1    0    0  501    0  0.00000000000E+00 -0.00000000000E+00 -0.49914766238E+02  0.49914766303E+02  0.25500000000E-02 0.  1.
    5000001    1    1    2    0    0  0.11228944254E+02 -0.31782648959E+02  0.16300506627E+03  0.18340086585E+03  0.77000000000E+02 0.  0.
   -5000001    1    1    2    0    0 -0.11228944254E+02  0.31782648959E+02  0.47555868310E+01  0.84189319810E+02  0.77000000000E+02 0.  0.
<mgrwt>
<rscale>  0 0.20847271E+03</rscale>
<asrwt>0</asrwt>
<pdfrwt beam="1">  1        2 0.71306808E-02 0.20847271E+03</pdfrwt>
<pdfrwt beam="2">  1       -2 0.31096489E-01 0.20847271E+03</pdfrwt>
<totfact> 0.91826357E+03</totfact>
</mgrwt>
</event>
<event>
 4    1  0.6782240E-004  0.2383985E+03  0.7818608E-02  0.1120864E+00
         -2   -1    0    0    0  501 -0.00000000000E+00  0.00000000000E+00  0.72151096039E+01  0.72151100546E+01  0.25500000000E-02 0. -1.
          2   -1    0    0  501    0  0.00000000000E+00 -0.00000000000E+00 -0.19692652715E+04  0.19692652715E+04  0.25500000000E-02 0.  1.
    5000001    1    1    2    0    0  0.50078409546E+02 -0.70933681323E+02 -0.12065600435E+04  0.12121285298E+04  0.77000000000E+02 0.  0.
   -5000001    1    1    2    0    0 -0.50078409546E+02  0.70933681323E+02 -0.75549011841E+03  0.76435185175E+03  0.77000000000E+02 0.  0.
<mgrwt>
<rscale>  0 0.23839853E+03</rscale>
<asrwt>0</asrwt>
<pdfrwt beam="1">  1        2 0.28132327E+00 0.23839853E+03</pdfrwt>
<pdfrwt beam="2">  1       -2 0.10307312E-02 0.23839853E+03</pdfrwt>
<totfact> 0.18561345E+04</totfact>
</mgrwt>
</event>
<event>
 4    1  0.6782240E-004  0.3553638E+03  0.7818608E-02  0.1060435E+00
          2   -1    0    0  501    0  0.00000000000E+00  0.00000000000E+00  0.55973357833E+02  0.55973357891E+02  0.25500000000E-02 0.  1.
         -2   -1    0    0    0  501 -0.00000000000E+00 -0.00000000000E+00 -0.56403368568E+03  0.56403368569E+03  0.25500000000E-02 0. -1.
    5000001    1    1    2    0    0  0.70493971799E+02  0.91280630584E+02 -0.60215609884E+02  0.15118357468E+03  0.77000000000E+02 0.  0.
   -5000001    1    1    2    0    0 -0.70493971799E+02 -0.91280630584E+02 -0.44784471796E+03  0.46882346889E+03  0.77000000000E+02 0.  0.
<mgrwt>
<rscale>  0 0.35536381E+03</rscale>
<asrwt>0</asrwt>
<pdfrwt beam="1">  1        2 0.79961943E-02 0.35536381E+03</pdfrwt>
<pdfrwt beam="2">  1       -2 0.80576237E-01 0.35536381E+03</pdfrwt>
<totfact> 0.12004701E+03</totfact>
</mgrwt>
</event>
<event>
 4    1  0.6782240E-004  0.4180982E+03  0.7818608E-02  0.1037687E+00
         -2   -1    0    0    0  501 -0.00000000000E+00  0.00000000000E+00  0.77686710626E+02  0.77686710668E+02  0.25500000000E-02 0. -1.
          2   -1    0    0  501    0  0.00000000000E+00 -0.00000000000E+00 -0.56253553051E+03  0.56253553052E+03  0.25500000000E-02 0.  1.
    5000001    1    1    2    0    0 -0.29988872678E+02  0.11546016723E+03 -0.74743834746E+01  0.14218034010E+03  0.77000000000E+02 0.  0.
   -5000001    1    1    2    0    0  0.29988872678E+02 -0.11546016723E+03 -0.47737443641E+03  0.49804190109E+03  0.77000000000E+02 0.  0.
<mgrwt>
<rscale>  0 0.41809824E+03</rscale>
<asrwt>0</asrwt>
<pdfrwt beam="1">  1        2 0.80362216E-01 0.41809824E+03</pdfrwt>
<pdfrwt beam="2">  1       -2 0.11098102E-01 0.41809824E+03</pdfrwt>
<totfact> 0.33482931E+03</totfact>
</mgrwt>
</event>
<event>
 4    1  0.6782240E-004  0.2214166E+03  0.7818608E-02  0.1132831E+00
         -2   -1    0    0    0  501 -0.00000000000E+00  0.00000000000E+00  0.21149305387E+02  0.21149305540E+02  0.25500000000E-02 0. -1.
          2   -1    0    0  501    0  0.00000000000E+00 -0.00000000000E+00 -0.57951460605E+03  0.57951460606E+03  0.25500000000E-02 0.  1.
    5000001    1    1    2    0    0 -0.75852905120E+02 -0.67671934550E+01 -0.21685422629E+03  0.24239268467E+03  0.77000000000E+02 0.  0.
   -5000001    1    1    2    0    0  0.75852905120E+02  0.67671934550E+01 -0.34151107438E+03  0.35827122693E+03  0.77000000000E+02 0.  0.
<mgrwt>
<rscale>  0 0.22141663E+03</rscale>
<asrwt>0</asrwt>
<pdfrwt beam="1">  1        2 0.82787791E-01 0.22141663E+03</pdfrwt>
<pdfrwt beam="2">  1       -2 0.30213297E-02 0.22141663E+03</pdfrwt>
<totfact> 0.23474980E+04</totfact>
</mgrwt>
</event>
<event>
 4    1  0.6782240E-004  0.1774897E+03  0.7818608E-02  0.1170255E+00
         -2   -1    0    0    0  501 -0.00000000000E+00  0.00000000000E+00  0.47813799750E+01  0.47813806550E+01  0.25500000000E-02 0. -1.
          2   -1    0    0  501    0  0.00000000000E+00 -0.00000000000E+00 -0.16471492326E+04  0.16471492327E+04  0.25500000000E-02 0.  1.
    5000001    1    1    2    0    0  0.28993635615E+02  0.80849324159E+01 -0.11214256237E+04  0.11244689531E+04  0.77000000000E+02 0.  0.
   -5000001    1    1    2    0    0 -0.28993635615E+02 -0.80849324159E+01 -0.52094222896E+03  0.52746166017E+03  0.77000000000E+02 0.  0.
<mgrwt>
<rscale>  0 0.17748968E+03</rscale>
<asrwt>0</asrwt>
<pdfrwt beam="1">  1        2 0.23530667E+00 0.17748968E+03</pdfrwt>
<pdfrwt beam="2">  1       -2 0.68305538E-03 0.17748968E+03</pdfrwt>
<totfact> 0.47352321E+04</totfact>
</mgrwt>
</event>
<event>
 4    1  0.6782240E-004  0.2612749E+03  0.7818608E-02  0.1106380E+00
         -2   -1    0    0    0  501 -0.00000000000E+00  0.00000000000E+00  0.52506610459E+01  0.52506616651E+01  0.25500000000E-02 0. -1.
          2   -1    0    0  501    0  0.00000000000E+00 -0.00000000000E+00 -0.32502844032E+04  0.32502844032E+04  0.25500000000E-02 0.  1.
    5000001    1    1    2    0    0 -0.30728108528E+01 -0.10306984084E+03 -0.13427006928E+04  0.13488539523E+04  0.77000000000E+02 0.  0.
   -5000001    1    1    2    0    0  0.30728108528E+01  0.10306984084E+03 -0.19023330494E+04  0.19066811126E+04  0.77000000000E+02 0.  0.
<mgrwt>
<rscale>  0 0.26127490E+03</rscale>
<asrwt>0</asrwt>
<pdfrwt beam="1">  1        2 0.46432505E+00 0.26127490E+03</pdfrwt>
<pdfrwt beam="2">  1       -2 0.75009656E-03 0.26127490E+03</pdfrwt>
<totfact> 0.65805486E+03</totfact>
</mgrwt>
</event>
<event>
 4    1  0.6782240E-004  0.2094316E+03  0.7818608E-02  0.1142017E+00
         -2   -1    0    0    0  501 -0.00000000000E+00  0.00000000000E+00  0.19427279359E+01  0.19427296095E+01  0.25500000000E-02 0. -1.
          2   -1    0    0  501    0  0.00000000000E+00 -0.00000000000E+00 -0.56443254979E+04  0.56443254979E+04  0.25500000000E-02 0.  1.
    5000001    1    1    2    0    0  0.22497391668E+02  0.64627938755E+02 -0.23143077832E+04  0.23165993220E+04  0.77000000000E+02 0.  0.
   -5000001    1    1    2    0    0 -0.22497391668E+02 -0.64627938755E+02 -0.33280749867E+04  0.33296689055E+04  0.77000000000E+02 0.  0.
<mgrwt>
<rscale>  0 0.20943155E+03</rscale>
<asrwt>0</asrwt>
<pdfrwt beam="1">  1        2 0.80632170E+00 0.20943155E+03</pdfrwt>
<pdfrwt beam="2">  1       -2 0.27753630E-03 0.20943155E+03</pdfrwt>
<totfact> 0.34232293E+02</totfact>
</mgrwt>
</event>
<event>
 4    1  0.6782240E-004  0.4639396E+03  0.7818608E-02  0.1023645E+00
         -2   -1    0    0    0  501 -0.00000000000E+00  0.00000000000E+00  0.40743075081E+02  0.40743075161E+02  0.25500000000E-02 0. -1.
          2   -1    0    0  501    0  0.00000000000E+00 -0.00000000000E+00 -0.13207150154E+04  0.13207150154E+04  0.25500000000E-02 0.  1.
    5000001    1    1    2    0    0 -0.12184893462E+03  0.96980326678E+02 -0.10910749580E+04  0.11048194018E+04  0.77000000000E+02 0.  0.
   -5000001    1    1    2    0    0  0.12184893462E+03 -0.96980326678E+02 -0.18889698225E+03  0.25663868869E+03  0.77000000000E+02 0.  0.
<mgrwt>
<rscale>  0 0.46393961E+03</rscale>
<asrwt>0</asrwt>
<pdfrwt beam="1">  1        2 0.18867355E+00 0.46393961E+03</pdfrwt>
<pdfrwt beam="2">  1       -2 0.58204401E-02 0.46393961E+03</pdfrwt>
<totfact> 0.29993048E+03</totfact>
</mgrwt>
</event>
<event>
 4    1  0.6782240E-004  0.1984938E+03  0.7818608E-02  0.1151016E+00
          2   -1    0    0  501    0  0.00000000000E+00  0.00000000000E+00  0.37419356623E+03  0.37419356624E+03  0.25500000000E-02 0.  1.
         -2   -1    0    0    0  501 -0.00000000000E+00 -0.00000000000E+00 -0.26323146561E+02  0.26323146685E+02  0.25500000000E-02 0. -1.
    5000001    1    1    2    0    0  0.65024506048E+01  0.52888972122E+02  0.24028998278E+03  0.25789106433E+03  0.77000000000E+02 0.  0.
   -5000001    1    1    2    0    0 -0.65024506048E+01 -0.52888972122E+02  0.10758043689E+03  0.14262564859E+03  0.77000000000E+02 0.  0.
<mgrwt>
<rscale>  0 0.19849385E+03</rscale>
<asrwt>0</asrwt>
<pdfrwt beam="1">  1        2 0.53456221E-01 0.19849385E+03</pdfrwt>
<pdfrwt beam="2">  1       -2 0.37604497E-02 0.19849385E+03</pdfrwt>
<totfact> 0.27122195E+04</totfact>
</mgrwt>
</event>
<event>
 4    1  0.6782240E-004  0.2031828E+03  0.7818608E-02  0.1147081E+00
         -2   -1    0    0    0  501 -0.00000000000E+00  0.00000000000E+00  0.23848474667E+02  0.23848474803E+02  0.25500000000E-02 0. -1.
          2   -1    0    0  501    0  0.00000000000E+00 -0.00000000000E+00 -0.43276598730E+03  0.43276598731E+03  0.25500000000E-02 0.  1.
    5000001    1    1    2    0    0  0.48190865228E+02  0.70956689136E+01 -0.30544025062E+03  0.31874041900E+03  0.77000000000E+02 0.  0.
   -5000001    1    1    2    0    0 -0.48190865228E+02 -0.70956689136E+01 -0.10347726202E+03  0.13787404311E+03  0.77000000000E+02 0.  0.
<mgrwt>
<rscale>  0 0.20318276E+03</rscale>
<asrwt>0</asrwt>
<pdfrwt beam="1">  1        2 0.61823708E-01 0.20318276E+03</pdfrwt>
<pdfrwt beam="2">  1       -2 0.34069252E-02 0.20318276E+03</pdfrwt>
<totfact> 0.26919625E+04</totfact>
</mgrwt>
</event>
<event>
 4    1  0.6782240E-004  0.4424137E+03  0.7818608E-02  0.1030009E+00
          2   -1    0    0  501    0  0.00000000000E+00  0.00000000000E+00  0.11748135021E+03  0.11748135024E+03  0.25500000000E-02 0.  1.
         -2   -1    0    0    0  501 -0.00000000000E+00 -0.00000000000E+00 -0.41651262245E+03  0.41651262246E+03  0.25500000000E-02 0. -1.
    5000001    1    1    2    0    0 -0.11300251147E+02  0.18248495836E+03 -0.31408151723E+02  0.20085797893E+03  0.77000000000E+02 0.  0.
   -5000001    1    1    2    0    0  0.11300251147E+02 -0.18248495836E+03 -0.26762312052E+03  0.33313599376E+03  0.77000000000E+02 0.  0.
<mgrwt>
<rscale>  0 0.44241368E+03</rscale>
<asrwt>0</asrwt>
<pdfrwt beam="1">  1        2 0.16783050E-01 0.44241368E+03</pdfrwt>
<pdfrwt beam="2">  1       -2 0.59501803E-01 0.44241368E+03</pdfrwt>
<totfact> 0.92484186E+02</totfact>
</mgrwt>
</event>
<event>
 4    1  0.6782240E-004  0.1702156E+03  0.7818608E-02  0.1177623E+00
          2   -1    0    0  501    0  0.00000000000E+00  0.00000000000E+00  0.18710102457E+02  0.18710102631E+02  0.25500000000E-02 0.  1.
         -2   -1    0    0    0  501 -0.00000000000E+00 -0.00000000000E+00 -0.38713512251E+03  0.38713512252E+03  0.25500000000E-02 0. -1.
    5000001    1    1    2    0    0 -0.30619006779E+02 -0.98789559220E+01 -0.14437109795E+03  0.16675470389E+03  0.77000000000E+02 0.  0.
   -5000001    1    1    2    0    0  0.30619006779E+02  0.98789559220E+01 -0.22405392210E+03  0.23909052126E+03  0.77000000000E+02 0.  0.
<mgrwt>
<rscale>  0 0.17021560E+03</rscale>
<asrwt>0</asrwt>
<pdfrwt beam="1">  1        2 0.26728720E-02 0.17021560E+03</pdfrwt>
<pdfrwt beam="2">  1       -2 0.55305013E-01 0.17021560E+03</pdfrwt>
<totfact> 0.10983243E+04</totfact>
</mgrwt>
</event>
<event>
 4    1  0.6782240E-004  0.2693867E+03  0.7818608E-02  0.1101631E+00
         -2   -1    0    0    0  501 -0.00000000000E+00  0.00000000000E+00  0.43151432688E+03  0.43151432689E+03  0.25500000000E-02 0. -1.
          2   -1    0    0  501    0  0.00000000000E+00 -0.00000000000E+00 -0.42043339367E+02  0.42043339444E+02  0.25500000000E-02 0.  1.
    5000001    1    1    2    0    0 -0.29951583929E+02  0.45419250223E+02  0.36383600875E+03  0.37585322525E+03  0.77000000000E+02 0.  0.
   -5000001    1    1    2    0    0  0.29951583929E+02 -0.45419250223E+02  0.25634978766E+02  0.97704441081E+02  0.77000000000E+02 0.  0.
<mgrwt>
<rscale>  0 0.26938674E+03</rscale>
<asrwt>0</asrwt>
<pdfrwt beam="1">  1        2 0.60061915E-02 0.26938674E+03</pdfrwt>
<pdfrwt beam="2">  1       -2 0.61644902E-01 0.26938674E+03</pdfrwt>
<totfact> 0.30703672E+03</totfact>
</mgrwt>
</event>
<event>
 4    1  0.6782240E-004  0.8588906E+03  0.7818608E-02  0.9478481E-01
         -2   -1    0    0    0  501 -0.00000000000E+00  0.00000000000E+00  0.36816633727E+03  0.36816633727E+03  0.25500000000E-02 0.  1.
          2   -1    0    0  501    0  0.00000000000E+00 -0.00000000000E+00 -0.50092376531E+03  0.50092376532E+03  0.25500000000E-02 0. -1.
    5000001    1    1    2    0    0 -0.33954284705E+03  0.24273817857E+03 -0.15614278917E+00  0.42442925524E+03  0.77000000000E+02 0.  0.
   -5000001    1    1    2    0    0  0.33954284705E+03 -0.24273817857E+03 -0.13260128526E+03  0.44466084736E+03  0.77000000000E+02 0.  0.
<mgrwt>
<rscale>  0 0.85889061E+03</rscale>
<asrwt>0</asrwt>
<pdfrwt beam="1">  1        2 0.71560537E-01 0.85889061E+03</pdfrwt>
<pdfrwt beam="2">  1       -2 0.52595191E-01 0.85889061E+03</pdfrwt>
<totfact> 0.22958714E+02</totfact>
</mgrwt>
</event>
<event>
 4    1  0.6782240E-004  0.5273506E+03  0.7818608E-02  0.1006877E+00
         -2   -1    0    0    0  501 -0.00000000000E+00  0.00000000000E+00  0.12304556065E+03  0.12304556068E+03  0.25500000000E-02 0. -1.
          2   -1    0    0  501    0  0.00000000000E+00 -0.00000000000E+00 -0.56503190268E+03  0.56503190269E+03  0.25500000000E-02 0.  1.
    5000001    1    1    2    0    0  0.13569083096E+03 -0.18203392671E+03 -0.77779982269E+02  0.25204578497E+03  0.77000000000E+02 0.  0.
   -5000001    1    1    2    0    0 -0.13569083096E+03  0.18203392671E+03 -0.36420635976E+03  0.43603167840E+03  0.77000000000E+02 0.  0.
<mgrwt>
<rscale>  0 0.52735061E+03</rscale>
<asrwt>0</asrwt>
<pdfrwt beam="1">  1        2 0.80718842E-01 0.52735061E+03</pdfrwt>
<pdfrwt beam="2">  1       -2 0.17577937E-01 0.52735061E+03</pdfrwt>
<totfact> 0.15534709E+03</totfact>
</mgrwt>
</event>
<event>
 4    1  0.6782240E-004  0.6433893E+03  0.7818608E-02  0.9819263E-01
         -2   -1    0    0    0  501 -0.00000000000E+00  0.00000000000E+00  0.10247676154E+03  0.10247676157E+03  0.25500000000E-02 0. -1.
          2   -1    0    0  501    0  0.00000000000E+00 -0.00000000000E+00 -0.10098627410E+04  0.10098627410E+04  0.25500000000E-02 0.  1.
    5000001    1    1    2    0    0  0.26120763260E+03  0.16493413827E+03 -0.37398144514E+03  0.49114541493E+03  0.77000000000E+02 0.  0.
   -5000001    1    1    2    0    0 -0.26120763260E+03 -0.16493413827E+03 -0.53340453435E+03  0.62119408768E+03  0.77000000000E+02 0.  0.
<mgrwt>
<rscale>  0 0.64338935E+03</rscale>
<asrwt>0</asrwt>
<pdfrwt beam="1">  1        2 0.14426610E+00 0.64338935E+03</pdfrwt>
<pdfrwt beam="2">  1       -2 0.14639538E-01 0.64338935E+03</pdfrwt>
<totfact> 0.10158713E+03</totfact>
</mgrwt>
</event>
<event>
 4    1  0.6782240E-004  0.2400211E+03  0.7818608E-02  0.1119779E+00
         -2   -1    0    0    0  501 -0.00000000000E+00  0.00000000000E+00  0.10504601232E+02  0.10504601542E+02  0.25500000000E-02 0. -1.
          2   -1    0    0  501    0  0.00000000000E+00 -0.00000000000E+00 -0.13710687622E+04  0.13710687622E+04  0.25500000000E-02 0.  1.
    5000001    1    1    2    0    0  0.35563536925E+02  0.82656843375E+02 -0.79198681323E+03  0.80079275174E+03  0.77000000000E+02 0.  0.
   -5000001    1    1    2    0    0 -0.35563536925E+02 -0.82656843375E+02 -0.56857734773E+03  0.58078061199E+03  0.77000000000E+02 0.  0.
<mgrwt>
<rscale>  0 0.24002109E+03</rscale>
<asrwt>0</asrwt>
<pdfrwt beam="1">  1        2 0.19586685E+00 0.24002109E+03</pdfrwt>
<pdfrwt beam="2">  1       -2 0.15006582E-02 0.24002109E+03</pdfrwt>
<totfact> 0.21260787E+04</totfact>
</mgrwt>
</event>
<event>
 4    1  0.6782240E-004  0.3253254E+03  0.7818608E-02  0.1073224E+00
         -2   -1    0    0    0  501 -0.00000000000E+00  0.00000000000E+00  0.49206860305E+02  0.49206860371E+02  0.25500000000E-02 0. -1.
          2   -1    0    0  501    0  0.00000000000E+00 -0.00000000000E+00 -0.53771258419E+03  0.53771258419E+03  0.25500000000E-02 0.  1.
    5000001    1    1    2    0    0  0.65879001336E+01  0.14277918424E+03 -0.26237056607E+03  0.30853947855E+03  0.77000000000E+02 0.  0.
   -5000001    1    1    2    0    0 -0.65879001336E+01 -0.14277918424E+03 -0.22613515781E+03  0.27837996602E+03  0.77000000000E+02 0.  0.
<mgrwt>
<rscale>  0 0.32532536E+03</rscale>
<asrwt>0</asrwt>
<pdfrwt beam="1">  1        2 0.76816080E-01 0.32532536E+03</pdfrwt>
<pdfrwt beam="2">  1       -2 0.70295518E-02 0.32532536E+03</pdfrwt>
<totfact> 0.72329501E+03</totfact>
</mgrwt>
</event>
<event>
 4    1  0.6782240E-004  0.2662331E+03  0.7818608E-02  0.1103455E+00
         -2   -1    0    0    0  501 -0.00000000000E+00  0.00000000000E+00  0.22373185506E+03  0.22373185507E+03  0.25500000000E-02 0. -1.
          2   -1    0    0  501    0  0.00000000000E+00 -0.00000000000E+00 -0.79202050559E+02  0.79202050600E+02  0.25500000000E-02 0.  1.
    5000001    1    1    2    0    0  0.84843622120E+02 -0.66349862326E+02  0.56569255811E+02  0.14397855795E+03  0.77000000000E+02 0.  0.
   -5000001    1    1    2    0    0 -0.84843622120E+02  0.66349862326E+02  0.87960548688E+02  0.15895534773E+03  0.77000000000E+02 0.  0.
<mgrwt>
<rscale>  0 0.26623314E+03</rscale>
<asrwt>0</asrwt>
<pdfrwt beam="1">  1        2 0.11314579E-01 0.26623314E+03</pdfrwt>
<pdfrwt beam="2">  1       -2 0.31961693E-01 0.26623314E+03</pdfrwt>
<totfact> 0.49595064E+03</totfact>
</mgrwt>
</event>
<event>
 4    1  0.6782240E-004  0.1726602E+03  0.7818608E-02  0.1175102E+00
          2   -1    0    0  501    0  0.00000000000E+00  0.00000000000E+00  0.76687094817E+03  0.76687094817E+03  0.25500000000E-02 0.  1.
         -2   -1    0    0    0  501 -0.00000000000E+00 -0.00000000000E+00 -0.97185687637E+01  0.97185690982E+01  0.25500000000E-02 0. -1.
    5000001    1    1    2    0    0 -0.18955032290E+02  0.33881696272E+02  0.36023668236E+03  0.37041426796E+03  0.77000000000E+02 0.  0.
   -5000001    1    1    2    0    0  0.18955032290E+02 -0.33881696272E+02  0.39691569704E+03  0.40617524931E+03  0.77000000000E+02 0.  0.
<mgrwt>
<rscale>  0 0.17266022E+03</rscale>
<asrwt>0</asrwt>
<pdfrwt beam="1">  1        2 0.10955302E+00 0.17266022E+03</pdfrwt>
<pdfrwt beam="2">  1       -2 0.13883667E-02 0.17266022E+03</pdfrwt>
<totfact> 0.51849155E+04</totfact>
</mgrwt>
</event>
<event>
 4    1  0.6782240E-004  0.2007213E+03  0.7818608E-02  0.1149132E+00
         -2   -1    0    0    0  501 -0.00000000000E+00  0.00000000000E+00  0.75362326860E+01  0.75362331174E+01  0.25500000000E-02 0. -1.
          2   -1    0    0  501    0  0.00000000000E+00 -0.00000000000E+00 -0.13365112482E+04  0.13365112482E+04  0.25500000000E-02 0.  1.
    5000001    1    1    2    0    0 -0.48327659788E+02  0.39925765013E+02 -0.76235825729E+03  0.76879694450E+03  0.77000000000E+02 0.  0.
   -5000001    1    1    2    0    0  0.48327659788E+02 -0.39925765013E+02 -0.56661675821E+03  0.57525053681E+03  0.77000000000E+02 0.  0.
<mgrwt>
<rscale>  0 0.20072130E+03</rscale>
<asrwt>0</asrwt>
<pdfrwt beam="1">  1        2 0.19093003E+00 0.20072130E+03</pdfrwt>
<pdfrwt beam="2">  1       -2 0.10766056E-02 0.20072130E+03</pdfrwt>
<totfact> 0.35506528E+04</totfact>
</mgrwt>
</event>
<event>
 4    1  0.6782240E-004  0.2162604E+03  0.7818608E-02  0.1136702E+00
          2   -1    0    0  501    0  0.00000000000E+00  0.00000000000E+00  0.66982120076E+03  0.66982120077E+03  0.25500000000E-02 0.  1.
         -2   -1    0    0    0  501 -0.00000000000E+00 -0.00000000000E+00 -0.17455610265E+02  0.17455610451E+02  0.25500000000E-02 0. -1.
    5000001    1    1    2    0    0  0.12823776964E+02  0.47195152315E+02  0.14165838203E+03  0.16848717713E+03  0.77000000000E+02 0.  0.
   -5000001    1    1    2    0    0 -0.12823776964E+02 -0.47195152315E+02  0.51070720847E+03  0.51878963409E+03  0.77000000000E+02 0.  0.
<mgrwt>
<rscale>  0 0.21626038E+03</rscale>
<asrwt>0</asrwt>
<pdfrwt beam="1">  1        2 0.95688744E-01 0.21626038E+03</pdfrwt>
<pdfrwt beam="2">  1       -2 0.24936586E-02 0.21626038E+03</pdfrwt>
<totfact> 0.26369218E+04</totfact>
</mgrwt>
</event>
<event>
 4    1  0.6782240E-004  0.2553668E+03  0.7818608E-02  0.1109959E+00
          2   -1    0    0  501    0  0.00000000000E+00  0.00000000000E+00  0.36243916231E+02  0.36243916321E+02  0.25500000000E-02 0.  1.
         -2   -1    0    0    0  501 -0.00000000000E+00 -0.00000000000E+00 -0.44981497037E+03  0.44981497037E+03  0.25500000000E-02 0. -1.
    5000001    1    1    2    0    0 -0.49225320558E+01 -0.97326753964E+02 -0.15040809136E+03  0.19505979161E+03  0.77000000000E+02 0.  0.
   -5000001    1    1    2    0    0  0.49225320558E+01  0.97326753964E+02 -0.26316296278E+03  0.29099909508E+03  0.77000000000E+02 0.  0.
<mgrwt>
<rscale>  0 0.25536684E+03</rscale>
<asrwt>0</asrwt>
<pdfrwt beam="1">  1        2 0.51777026E-02 0.25536684E+03</pdfrwt>
<pdfrwt beam="2">  1       -2 0.64259278E-01 0.25536684E+03</pdfrwt>
<totfact> 0.34124562E+03</totfact>
</mgrwt>
</event>
<event>
 4    1  0.6782240E-004  0.3059212E+03  0.7818608E-02  0.1082318E+00
          2   -1    0    0  501    0  0.00000000000E+00  0.00000000000E+00  0.14225170387E+04  0.14225170387E+04  0.25500000000E-02 0.  1.
         -2   -1    0    0    0  501 -0.00000000000E+00 -0.00000000000E+00 -0.16447566036E+02  0.16447566234E+02  0.25500000000E-02 0. -1.
    5000001    1    1    2    0    0  0.18115145367E+02 -0.12571344657E+03  0.53111339274E+03  0.55149112875E+03  0.77000000000E+02 0.  0.
   -5000001    1    1    2    0    0 -0.18115145367E+02  0.12571344657E+03  0.87495607990E+03  0.88747347616E+03  0.77000000000E+02 0.  0.
<mgrwt>
<rscale>  0 0.30592119E+03</rscale>
<asrwt>0</asrwt>
<pdfrwt beam="1">  1        2 0.20321666E+00 0.30592119E+03</pdfrwt>
<pdfrwt beam="2">  1       -2 0.23496530E-02 0.30592119E+03</pdfrwt>
<totfact> 0.10435804E+04</totfact>
</mgrwt>
</event>
<event>
 4    1  0.6782240E-004  0.2597458E+03  0.7818608E-02  0.1107296E+00
         -2   -1    0    0    0  501 -0.00000000000E+00  0.00000000000E+00  0.67713681662E+01  0.67713686464E+01  0.25500000000E-02 0. -1.
          2   -1    0    0  501    0  0.00000000000E+00 -0.00000000000E+00 -0.24909240945E+04  0.24909240945E+04  0.25500000000E-02 0.  1.
    5000001    1    1    2    0    0  0.67818109137E+02 -0.72056889710E+01 -0.47963928722E+03  0.49054466028E+03  0.77000000000E+02 0.  0.
   -5000001    1    1    2    0    0 -0.67818109137E+02  0.72056889710E+01 -0.20045134391E+04  0.20071508029E+04  0.77000000000E+02 0.  0.
<mgrwt>
<rscale>  0 0.25974576E+03</rscale>
<asrwt>0</asrwt>
<pdfrwt beam="1">  1        2 0.35584571E+00 0.25974576E+03</pdfrwt>
<pdfrwt beam="2">  1       -2 0.96733993E-03 0.25974576E+03</pdfrwt>
<totfact> 0.11327925E+04</totfact>
</mgrwt>
</event>
<event>
 4    1  0.6782240E-004  0.2359885E+03  0.7818608E-02  0.1122494E+00
          2   -1    0    0  501    0  0.00000000000E+00  0.00000000000E+00  0.45744345508E+04  0.45744345508E+04  0.25500000000E-02 0.  1.
         -2   -1    0    0    0  501 -0.00000000000E+00 -0.00000000000E+00 -0.30435753790E+01  0.30435764472E+01  0.25500000000E-02 0. -1.
    5000001    1    1    2    0    0 -0.87108096050E+02 -0.93477739560E+01  0.26318321771E+04  0.26344154588E+04  0.77000000000E+02 0.  0.
   -5000001    1    1    2    0    0  0.87108096050E+02  0.93477739560E+01  0.19395587983E+04  0.19430626684E+04  0.77000000000E+02 0.  0.
<mgrwt>
<rscale>  0 0.23598846E+03</rscale>
<asrwt>0</asrwt>
<pdfrwt beam="1">  1        2 0.65349423E+00 0.23598846E+03</pdfrwt>
<pdfrwt beam="2">  1       -2 0.43479417E-03 0.23598846E+03</pdfrwt>
<totfact> 0.20277117E+03</totfact>
</mgrwt>
</event>
<event>
 4    1  0.6782240E-004  0.2115583E+03  0.7818608E-02  0.1140338E+00
         -2   -1    0    0    0  501 -0.00000000000E+00  0.00000000000E+00  0.35660276176E+02  0.35660276267E+02  0.25500000000E-02 0. -1.
          2   -1    0    0  501    0  0.00000000000E+00 -0.00000000000E+00 -0.31377283968E+03  0.31377283969E+03  0.25500000000E-02 0.  1.
    5000001    1    1    2    0    0 -0.52953827360E+02 -0.32407748949E+02 -0.20098676610E+03  0.22400680831E+03  0.77000000000E+02 0.  0.
   -5000001    1    1    2    0    0  0.52953827360E+02  0.32407748949E+02 -0.77125797409E+02  0.12542630765E+03  0.77000000000E+02 0.  0.
<mgrwt>
<rscale>  0 0.21155828E+03</rscale>
<asrwt>0</asrwt>
<pdfrwt beam="1">  1        2 0.44824690E-01 0.21155828E+03</pdfrwt>
<pdfrwt beam="2">  1       -2 0.50943254E-02 0.21155828E+03</pdfrwt>
<totfact> 0.20848785E+04</totfact>
</mgrwt>
</event>
<event>
 4    1  0.6782240E-004  0.2412058E+03  0.7818608E-02  0.1118992E+00
         -2   -1    0    0    0  501 -0.00000000000E+00  0.00000000000E+00  0.67291978212E+02  0.67291978260E+02  0.25500000000E-02 0. -1.
          2   -1    0    0  501    0  0.00000000000E+00 -0.00000000000E+00 -0.21614853689E+03  0.21614853691E+03  0.25500000000E-02 0.  1.
    5000001    1    1    2    0    0  0.60751464267E+02 -0.69755222302E+02 -0.83494920645E+02  0.14648185288E+03  0.77000000000E+02 0.  0.
   -5000001    1    1    2    0    0 -0.60751464267E+02  0.69755222302E+02 -0.65361638034E+02  0.13695866229E+03  0.77000000000E+02 0.  0.
<mgrwt>
<rscale>  0 0.24120583E+03</rscale>
<asrwt>0</asrwt>
<pdfrwt beam="1">  1        2 0.30878362E-01 0.24120583E+03</pdfrwt>
<pdfrwt beam="2">  1       -2 0.96131399E-02 0.24120583E+03</pdfrwt>
<totfact> 0.11783765E+04</totfact>
</mgrwt>
</event>
<event>
 4    1  0.6782240E-004  0.2991184E+03  0.7818608E-02  0.1085682E+00
         -2   -1    0    0    0  501 -0.00000000000E+00  0.00000000000E+00  0.62534027190E+01  0.62534032389E+01  0.25500000000E-02 0. -1.
          2   -1    0    0  501    0  0.00000000000E+00 -0.00000000000E+00 -0.35769256297E+04  0.35769256297E+04  0.25500000000E-02 0.  1.
    5000001    1    1    2    0    0 -0.10972292903E+03 -0.63806085293E+02 -0.20024922758E+04  0.20079877121E+04  0.77000000000E+02 0.  0.
   -5000001    1    1    2    0    0  0.10972292903E+03  0.63806085293E+02 -0.15681799513E+04  0.15751913208E+04  0.77000000000E+02 0.  0.
<mgrwt>
<rscale>  0 0.29911842E+03</rscale>
<asrwt>0</asrwt>
<pdfrwt beam="1">  1        2 0.51098807E+00 0.29911842E+03</pdfrwt>
<pdfrwt beam="2">  1       -2 0.89334557E-03 0.29911842E+03</pdfrwt>
<totfact> 0.33170059E+03</totfact>
</mgrwt>
</event>
<event>
 4    1  0.6782240E-004  0.4942264E+03  0.7818608E-02  0.1015297E+00
          2   -1    0    0  501    0  0.00000000000E+00  0.00000000000E+00  0.63108510826E+02  0.63108510878E+02  0.25500000000E-02 0.  1.
         -2   -1    0    0    0  501 -0.00000000000E+00 -0.00000000000E+00 -0.96761792465E+03  0.96761792465E+03  0.25500000000E-02 0. -1.
    5000001    1    1    2    0    0 -0.65661646211E+02  0.14207314335E+03 -0.87198506145E+02  0.19500976724E+03  0.77000000000E+02 0.  0.
   -5000001    1    1    2    0    0  0.65661646211E+02 -0.14207314335E+03 -0.81731090768E+03  0.83571666829E+03  0.77000000000E+02 0.  0.
<mgrwt>
<rscale>  0 0.49422637E+03</rscale>
<asrwt>0</asrwt>
<pdfrwt beam="1">  1        2 0.90155021E-02 0.49422637E+03</pdfrwt>
<pdfrwt beam="2">  1       -2 0.13823112E+00 0.49422637E+03</pdfrwt>
<totfact> 0.28593450E+02</totfact>
</mgrwt>
</event>
<event>
 4    1  0.6782240E-004  0.2552079E+03  0.7818608E-02  0.1110057E+00
          2   -1    0    0  501    0  0.00000000000E+00  0.00000000000E+00  0.13918095449E+03  0.13918095452E+03  0.25500000000E-02 0.  1.
         -2   -1    0    0    0  501 -0.00000000000E+00 -0.00000000000E+00 -0.11698990092E+03  0.11698990095E+03  0.25500000000E-02 0. -1.
    5000001    1    1    2    0    0  0.54827230593E+02 -0.84990853818E+02 -0.95335989120E-01  0.12711600818E+03  0.77000000000E+02 0.  0.
   -5000001    1    1    2    0    0 -0.54827230593E+02  0.84990853818E+02  0.22286389563E+02  0.12905484728E+03  0.77000000000E+02 0.  0.
<mgrwt>
<rscale>  0 0.25520788E+03</rscale>
<asrwt>0</asrwt>
<pdfrwt beam="1">  1        2 0.19882993E-01 0.25520788E+03</pdfrwt>
<pdfrwt beam="2">  1       -2 0.16712843E-01 0.25520788E+03</pdfrwt>
<totfact> 0.78763536E+03</totfact>
</mgrwt>
</event>
<event>
 4    1  0.6782240E-004  0.2622975E+03  0.7818608E-02  0.1105771E+00
          2   -1    0    0  501    0  0.00000000000E+00  0.00000000000E+00  0.93660539710E+03  0.93660539711E+03  0.25500000000E-02 0.  1.
         -2   -1    0    0    0  501 -0.00000000000E+00 -0.00000000000E+00 -0.18364190393E+02  0.18364190570E+02  0.25500000000E-02 0. -1.
    5000001    1    1    2    0    0  0.37644065291E+01 -0.94333294855E+02  0.28232452635E+03  0.30748834035E+03  0.77000000000E+02 0.  0.
   -5000001    1    1    2    0    0 -0.37644065291E+01  0.94333294855E+02  0.63591668036E+03  0.64748124733E+03  0.77000000000E+02 0.  0.
<mgrwt>
<rscale>  0 0.26229754E+03</rscale>
<asrwt>0</asrwt>
<pdfrwt beam="1">  1        2 0.13380076E+00 0.26229754E+03</pdfrwt>
<pdfrwt beam="2">  1       -2 0.26234559E-02 0.26229754E+03</pdfrwt>
<totfact> 0.16359873E+04</totfact>
</mgrwt>
</event>
<event>
 4    1  0.6782240E-004  0.3563615E+03  0.7818608E-02  0.1060034E+00
          2   -1    0    0  501    0  0.00000000000E+00  0.00000000000E+00  0.14088123435E+04  0.14088123435E+04  0.25500000000E-02 0.  1.
         -2   -1    0    0    0  501 -0.00000000000E+00 -0.00000000000E+00 -0.22535564900E+02  0.22535565045E+02  0.25500000000E-02 0. -1.
    5000001    1    1    2    0    0 -0.92873059075E+02  0.82414757409E+02  0.11027840363E+04  0.11124204367E+04  0.77000000000E+02 0.  0.
   -5000001    1    1    2    0    0  0.92873059075E+02 -0.82414757409E+02  0.28349274229E+03  0.31892747180E+03  0.77000000000E+02 0.  0.
<mgrwt>
<rscale>  0 0.35636151E+03</rscale>
<asrwt>0</asrwt>
<pdfrwt beam="1">  1        2 0.20125898E+00 0.35636151E+03</pdfrwt>
<pdfrwt beam="2">  1       -2 0.32193652E-02 0.35636151E+03</pdfrwt>
<totfact> 0.66479263E+03</totfact>
</mgrwt>
</event>
<event>
 4    1  0.6782240E-004  0.2849922E+03  0.7818608E-02  0.1092993E+00
          2   -1    0    0  501    0  0.00000000000E+00  0.00000000000E+00  0.19484388390E+04  0.19484388390E+04  0.25500000000E-02 0.  1.
         -2   -1    0    0    0  501 -0.00000000000E+00 -0.00000000000E+00 -0.10421231578E+02  0.10421231890E+02  0.25500000000E-02 0. -1.
    5000001    1    1    2    0    0 -0.83290050359E+02  0.70806018477E+02  0.13075120971E+04  0.13143316206E+04  0.77000000000E+02 0.  0.
   -5000001    1    1    2    0    0  0.83290050359E+02 -0.70806018477E+02  0.63050551030E+03  0.64452845031E+03  0.77000000000E+02 0.  0.
<mgrwt>
<rscale>  0 0.28499216E+03</rscale>
<asrwt>0</asrwt>
<pdfrwt beam="1">  1        2 0.27834856E+00 0.28499216E+03</pdfrwt>
<pdfrwt beam="2">  1       -2 0.14887466E-02 0.28499216E+03</pdfrwt>
<totfact> 0.11174443E+04</totfact>
</mgrwt>
</event>
<event>
 4    1  0.6782240E-004  0.4190945E+03  0.7818608E-02  0.1037361E+00
         -2   -1    0    0    0  501 -0.00000000000E+00  0.00000000000E+00  0.80419085360E+02  0.80419085400E+02  0.25500000000E-02 0. -1.
          2   -1    0    0  501    0  0.00000000000E+00 -0.00000000000E+00 -0.54601524851E+03  0.54601524851E+03  0.25500000000E-02 0.  1.
    5000001    1    1    2    0    0  0.37067028947E+02  0.18962203075E+03 -0.19467308097E+03  0.28488083059E+03  0.77000000000E+02 0.  0.
   -5000001    1    1    2    0    0 -0.37067028947E+02 -0.18962203075E+03 -0.27092308217E+03  0.34155350333E+03  0.77000000000E+02 0.  0.
<mgrwt>
<rscale>  0 0.41909449E+03</rscale>
<asrwt>0</asrwt>
<pdfrwt beam="1">  1        2 0.78002176E-01 0.41909449E+03</pdfrwt>
<pdfrwt beam="2">  1       -2 0.11488441E-01 0.41909449E+03</pdfrwt>
<totfact> 0.32754257E+03</totfact>
</mgrwt>
</event>
<event>
 4    1  0.6782240E-004  0.2271041E+03  0.7818608E-02  0.1128695E+00
          2   -1    0    0  501    0  0.00000000000E+00  0.00000000000E+00  0.17393343760E+04  0.17393343760E+04  0.25500000000E-02 0.  1.
         -2   -1    0    0    0  501 -0.00000000000E+00 -0.00000000000E+00 -0.74132209799E+01  0.74132214185E+01  0.25500000000E-02 0. -1.
    5000001    1    1    2    0    0 -0.96519694501E+01  0.76477314548E+02  0.11119806919E+04  0.11173056875E+04  0.77000000000E+02 0.  0.
   -5000001    1    1    2    0    0  0.96519694501E+01 -0.76477314548E+02  0.61994046314E+03  0.62944190994E+03  0.77000000000E+02 0.  0.
<mgrwt>
<rscale>  0 0.22710412E+03</rscale>
<asrwt>0</asrwt>
<pdfrwt beam="1">  1        2 0.24847625E+00 0.22710412E+03</pdfrwt>
<pdfrwt beam="2">  1       -2 0.10590320E-02 0.22710412E+03</pdfrwt>
<totfact> 0.23041855E+04</totfact>
</mgrwt>
</event>
<event>
 4    1  0.6782240E-004  0.2552776E+03  0.7818608E-02  0.1110014E+00
          2   -1    0    0  501    0  0.00000000000E+00  0.00000000000E+00  0.68605260653E+02  0.68605260701E+02  0.25500000000E-02 0.  1.
         -2   -1    0    0    0  501 -0.00000000000E+00 -0.00000000000E+00 -0.23746968382E+03  0.23746968384E+03  0.25500000000E-02 0. -1.
    5000001    1    1    2    0    0 -0.64633906082E+02 -0.78165507945E+02 -0.74029225533E+02  0.14729804710E+03  0.77000000000E+02 0.  0.
   -5000001    1    1    2    0    0  0.64633906082E+02  0.78165507945E+02 -0.94835197637E+02  0.15877689743E+03  0.77000000000E+02 0.  0.
<mgrwt>
<rscale>  0 0.25527765E+03</rscale>
<asrwt>0</asrwt>
<pdfrwt beam="1">  1        2 0.98007517E-02 0.25527765E+03</pdfrwt>
<pdfrwt beam="2">  1       -2 0.33924240E-01 0.25527765E+03</pdfrwt>
<totfact> 0.52964352E+03</totfact>
</mgrwt>
</event>
<event>
 4    1  0.6782240E-004  0.4669288E+03  0.7818608E-02  0.1022791E+00
         -2   -1    0    0    0  501 -0.00000000000E+00  0.00000000000E+00  0.30659903549E+02  0.30659903655E+02  0.25500000000E-02 0. -1.
          2   -1    0    0  501    0  0.00000000000E+00 -0.00000000000E+00 -0.17777495632E+04  0.17777495632E+04  0.25500000000E-02 0.  1.
    5000001    1    1    2    0    0  0.21413239511E+03 -0.41476935836E+02 -0.99624040078E+03  0.10227399254E+04  0.77000000000E+02 0.  0.
   -5000001    1    1    2    0    0 -0.21413239511E+03  0.41476935836E+02 -0.75084925890E+03  0.78566954149E+03  0.77000000000E+02 0.  0.
<mgrwt>
<rscale>  0 0.46692882E+03</rscale>
<asrwt>0</asrwt>
<pdfrwt beam="1">  1        2 0.25396416E+00 0.46692882E+03</pdfrwt>
<pdfrwt beam="2">  1       -2 0.43799873E-02 0.46692882E+03</pdfrwt>
<totfact> 0.27066845E+03</totfact>
</mgrwt>
</event>
<event>
 4    1  0.6782240E-004  0.2490383E+03  0.7818608E-02  0.1113914E+00
          2   -1    0    0  501    0  0.00000000000E+00  0.00000000000E+00  0.75374216015E+03  0.75374216015E+03  0.25500000000E-02 0.  1.
         -2   -1    0    0    0  501 -0.00000000000E+00 -0.00000000000E+00 -0.20570720404E+02  0.20570720562E+02  0.25500000000E-02 0. -1.
    5000001    1    1    2    0    0  0.46541916049E+02 -0.38327049349E+02  0.12693612661E+03  0.16024011015E+03  0.77000000000E+02 0.  0.
   -5000001    1    1    2    0    0 -0.46541916049E+02  0.38327049349E+02  0.60623531314E+03  0.61407277057E+03  0.77000000000E+02 0.  0.
<mgrwt>
<rscale>  0 0.24903830E+03</rscale>
<asrwt>0</asrwt>
<pdfrwt beam="1">  1        2 0.10767742E+00 0.24903830E+03</pdfrwt>
<pdfrwt beam="2">  1       -2 0.29386752E-02 0.24903830E+03</pdfrwt>
<totfact> 0.18133941E+04</totfact>
</mgrwt>
</event>
<event>
 4    1  0.6782240E-004  0.1966940E+03  0.7818608E-02  0.1152559E+00
          2   -1    0    0  501    0  0.00000000000E+00  0.00000000000E+00  0.61798512738E+03  0.61798512739E+03  0.25500000000E-02 0.  1.
         -2   -1    0    0    0  501 -0.00000000000E+00 -0.00000000000E+00 -0.15651080514E+02  0.15651080722E+02  0.25500000000E-02 0. -1.
    5000001    1    1    2    0    0 -0.51246666555E+02 -0.63323437643E+01  0.40687785581E+03  0.41730673247E+03  0.77000000000E+02 0.  0.
   -5000001    1    1    2    0    0  0.51246666555E+02  0.63323437643E+01  0.19545619106E+03  0.21632947564E+03  0.77000000000E+02 0.  0.
<mgrwt>
<rscale>  0 0.19669403E+03</rscale>
<asrwt>0</asrwt>
<pdfrwt beam="1">  1        2 0.88283588E-01 0.19669403E+03</pdfrwt>
<pdfrwt beam="2">  1       -2 0.22358687E-02 0.19669403E+03</pdfrwt>
<totfact> 0.33727931E+04</totfact>
</mgrwt>
</event>
<event>
 4    1  0.6782240E-004  0.1923101E+03  0.7818608E-02  0.1156394E+00
         -2   -1    0    0    0  501 -0.00000000000E+00  0.00000000000E+00  0.19901371752E+03  0.19901371753E+03  0.25500000000E-02 0. -1.
          2   -1    0    0  501    0  0.00000000000E+00 -0.00000000000E+00 -0.46458070471E+02  0.46458070541E+02  0.25500000000E-02 0.  1.
    5000001    1    1    2    0    0 -0.93605796188E+01  0.50223575281E+02  0.42343661631E+02  0.10164651320E+03  0.77000000000E+02 0.  0.
   -5000001    1    1    2    0    0  0.93605796188E+01 -0.50223575281E+02  0.11021198542E+03  0.14382527488E+03  0.77000000000E+02 0.  0.
<mgrwt>
<rscale>  0 0.19231010E+03</rscale>
<asrwt>0</asrwt>
<pdfrwt beam="1">  1        2 0.66368672E-02 0.19231010E+03</pdfrwt>
<pdfrwt beam="2">  1       -2 0.28430531E-01 0.19231010E+03</pdfrwt>
<totfact> 0.11770956E+04</totfact>
</mgrwt>
</event>
<event>
 4    1  0.6782240E-004  0.4061326E+03  0.7818608E-02  0.1041677E+00
         -2   -1    0    0    0  501 -0.00000000000E+00  0.00000000000E+00  0.11856292173E+03  0.11856292176E+03  0.25500000000E-02 0. -1.
          2   -1    0    0  501    0  0.00000000000E+00 -0.00000000000E+00 -0.34779780324E+03  0.34779780325E+03  0.25500000000E-02 0.  1.
    5000001    1    1    2    0    0  0.29680584775E+02  0.13484044317E+03  0.31735399282E+02  0.16124210925E+03  0.77000000000E+02 0.  0.
   -5000001    1    1    2    0    0 -0.29680584775E+02 -0.13484044317E+03 -0.26097028079E+03  0.30511861576E+03  0.77000000000E+02 0.  0.
<mgrwt>
<rscale>  0 0.40613261E+03</rscale>
<asrwt>0</asrwt>
<pdfrwt beam="1">  1        2 0.49685400E-01 0.40613261E+03</pdfrwt>
<pdfrwt beam="2">  1       -2 0.16937560E-01 0.40613261E+03</pdfrwt>
<totfact> 0.28374486E+03</totfact>
</mgrwt>
</event>
<event>
 4    1  0.6782240E-004  0.2265785E+03  0.7818608E-02  0.1129071E+00
          2   -1    0    0  501    0  0.00000000000E+00  0.00000000000E+00  0.62102579005E+02  0.62102579058E+02  0.25500000000E-02 0.  1.
         -2   -1    0    0    0  501 -0.00000000000E+00 -0.00000000000E+00 -0.20666536158E+03  0.20666536160E+03  0.25500000000E-02 0. -1.
    5000001    1    1    2    0    0 -0.30799888121E+02  0.63363948364E+02 -0.12455280948E+03  0.16249930896E+03  0.77000000000E+02 0.  0.
   -5000001    1    1    2    0    0  0.30799888121E+02 -0.63363948364E+02 -0.20009973095E+02  0.10626863170E+03  0.77000000000E+02 0.  0.
<mgrwt>
<rscale>  0 0.22657848E+03</rscale>
<asrwt>0</asrwt>
<pdfrwt beam="1">  1        2 0.88717971E-02 0.22657848E+03</pdfrwt>
<pdfrwt beam="2">  1       -2 0.29523623E-01 0.22657848E+03</pdfrwt>
<totfact> 0.76884226E+03</totfact>
</mgrwt>
</event>
<event>
 4    1  0.6782240E-004  0.2081755E+03  0.7818608E-02  0.1143019E+00
          2   -1    0    0  501    0  0.00000000000E+00  0.00000000000E+00  0.77277161178E+03  0.77277161178E+03  0.25500000000E-02 0.  1.
         -2   -1    0    0    0  501 -0.00000000000E+00 -0.00000000000E+00 -0.14020007526E+02  0.14020007758E+02  0.25500000000E-02 0. -1.
    5000001    1    1    2    0    0  0.54700508164E+01 -0.68525859061E+02  0.32873254511E+03  0.34455739874E+03  0.77000000000E+02 0.  0.
   -5000001    1    1    2    0    0 -0.54700508164E+01  0.68525859061E+02  0.43001905915E+03  0.44223422080E+03  0.77000000000E+02 0.  0.
<mgrwt>
<rscale>  0 0.20817554E+03</rscale>
<asrwt>0</asrwt>
<pdfrwt beam="1">  1        2 0.11039593E+00 0.20817554E+03</pdfrwt>
<pdfrwt beam="2">  1       -2 0.20028585E-02 0.20817554E+03</pdfrwt>
<totfact> 0.30614439E+04</totfact>
</mgrwt>
</event>
<event>
 4    1  0.6782240E-004  0.2001827E+03  0.7818608E-02  0.1149585E+00
         -2   -1    0    0    0  501 -0.00000000000E+00  0.00000000000E+00  0.16832891514E+02  0.16832891707E+02  0.25500000000E-02 0. -1.
          2   -1    0    0  501    0  0.00000000000E+00 -0.00000000000E+00 -0.59516073369E+03  0.59516073370E+03  0.25500000000E-02 0.  1.
    5000001    1    1    2    0    0 -0.63715022673E+02 -0.44191352967E+01 -0.27942728261E+03  0.29679578692E+03  0.77000000000E+02 0.  0.
   -5000001    1    1    2    0    0  0.63715022673E+02  0.44191352967E+01 -0.29890055957E+03  0.31519783848E+03  0.77000000000E+02 0.  0.
<mgrwt>
<rscale>  0 0.20018268E+03</rscale>
<asrwt>0</asrwt>
<pdfrwt beam="1">  1        2 0.85022949E-01 0.20018268E+03</pdfrwt>
<pdfrwt beam="2">  1       -2 0.24046992E-02 0.20018268E+03</pdfrwt>
<totfact> 0.31675316E+04</totfact>
</mgrwt>
</event>
<event>
 4    1  0.6782240E-004  0.2811864E+03  0.7818608E-02  0.1095043E+00
          2   -1    0    0  501    0  0.00000000000E+00  0.00000000000E+00  0.12106488000E+04  0.12106488000E+04  0.25500000000E-02 0.  1.
         -2   -1    0    0    0  501 -0.00000000000E+00 -0.00000000000E+00 -0.16327155180E+02  0.16327155379E+02  0.25500000000E-02 0. -1.
    5000001    1    1    2    0    0  0.84494453766E+01  0.55159489361E+02  0.10490269145E+04  0.10533282631E+04  0.77000000000E+02 0.  0.
   -5000001    1    1    2    0    0 -0.84494453766E+01 -0.55159489361E+02  0.14529473032E+03  0.17364769233E+03  0.77000000000E+02 0.  0.
<mgrwt>
<rscale>  0 0.28118642E+03</rscale>
<asrwt>0</asrwt>
<pdfrwt beam="1">  1        2 0.17294988E+00 0.28118642E+03</pdfrwt>
<pdfrwt beam="2">  1       -2 0.23324501E-02 0.28118642E+03</pdfrwt>
<totfact> 0.13608373E+04</totfact>
</mgrwt>
</event>
<event>
 4    1  0.6782240E-004  0.4648483E+03  0.7818608E-02  0.1023384E+00
         -2   -1    0    0    0  501 -0.00000000000E+00  0.00000000000E+00  0.35994554960E+02  0.35994555051E+02  0.25500000000E-02 0. -1.
          2   -1    0    0  501    0  0.00000000000E+00 -0.00000000000E+00 -0.15008099496E+04  0.15008099496E+04  0.25500000000E-02 0.  1.
    5000001    1    1    2    0    0  0.16584744669E+03 -0.14334116508E+03 -0.75329626461E+03  0.78831232862E+03  0.77000000000E+02 0.  0.
   -5000001    1    1    2    0    0 -0.16584744669E+03  0.14334116508E+03 -0.71151913006E+03  0.74849217606E+03  0.77000000000E+02 0.  0.
<mgrwt>
<rscale>  0 0.46484830E+03</rscale>
<asrwt>0</asrwt>
<pdfrwt beam="1">  1        2 0.21440138E+00 0.46484830E+03</pdfrwt>
<pdfrwt beam="2">  1       -2 0.51420802E-02 0.46484830E+03</pdfrwt>
<totfact> 0.29227953E+03</totfact>
</mgrwt>
</event>
<event>
 4    1  0.6782240E-004  0.1850410E+03  0.7818608E-02  0.1163012E+00
          2   -1    0    0  501    0  0.00000000000E+00  0.00000000000E+00  0.20334210001E+03  0.20334210003E+03  0.25500000000E-02 0.  1.
         -2   -1    0    0    0  501 -0.00000000000E+00 -0.00000000000E+00 -0.42096736984E+02  0.42096737061E+02  0.25500000000E-02 0. -1.
    5000001    1    1    2    0    0 -0.23126745876E+02  0.40021823770E+02  0.11011676627E+03  0.14209607653E+03  0.77000000000E+02 0.  0.
   -5000001    1    1    2    0    0  0.23126745876E+02 -0.40021823770E+02  0.51128596758E+02  0.10334276055E+03  0.77000000000E+02 0.  0.
<mgrwt>
<rscale>  0 0.18504096E+03</rscale>
<asrwt>0</asrwt>
<pdfrwt beam="1">  1        2 0.29048871E-01 0.18504096E+03</pdfrwt>
<pdfrwt beam="2">  1       -2 0.60138197E-02 0.18504096E+03</pdfrwt>
<totfact> 0.25598350E+04</totfact>
</mgrwt>
</event>
<event>
 4    1  0.6782240E-004  0.2025580E+03  0.7818608E-02  0.1147599E+00
          2   -1    0    0  501    0  0.00000000000E+00  0.00000000000E+00  0.85791134306E+02  0.85791134344E+02  0.25500000000E-02 0.  1.
         -2   -1    0    0    0  501 -0.00000000000E+00 -0.00000000000E+00 -0.11956283217E+03  0.11956283219E+03  0.25500000000E-02 0. -1.
    5000001    1    1    2    0    0  0.37491585002E+02  0.45846901459E+02 -0.45932225508E+02  0.10745383502E+03  0.77000000000E+02 0.  0.
   -5000001    1    1    2    0    0 -0.37491585002E+02 -0.45846901459E+02  0.12160527648E+02  0.97900131522E+02  0.77000000000E+02 0.  0.
<mgrwt>
<rscale>  0 0.20255795E+03</rscale>
<asrwt>0</asrwt>
<pdfrwt beam="1">  1        2 0.12255876E-01 0.20255795E+03</pdfrwt>
<pdfrwt beam="2">  1       -2 0.17080405E-01 0.20255795E+03</pdfrwt>
<totfact> 0.13240091E+04</totfact>
</mgrwt>
</event>
<event>
 4    1  0.6782240E-004  0.1735587E+03  0.7818608E-02  0.1174187E+00
          2   -1    0    0  501    0  0.00000000000E+00  0.00000000000E+00  0.25473112374E+03  0.25473112375E+03  0.25500000000E-02 0.  1.
         -2   -1    0    0    0  501 -0.00000000000E+00 -0.00000000000E+00 -0.29563165297E+02  0.29563165407E+02  0.25500000000E-02 0. -1.
    5000001    1    1    2    0    0 -0.24440817688E+02 -0.31272580832E+02  0.12098923317E+03  0.14880430916E+03  0.77000000000E+02 0.  0.
   -5000001    1    1    2    0    0  0.24440817688E+02  0.31272580832E+02  0.10417872527E+03  0.13548998000E+03  0.77000000000E+02 0.  0.
<mgrwt>
<rscale>  0 0.17355873E+03</rscale>
<asrwt>0</asrwt>
<pdfrwt beam="1">  1        2 0.36390162E-01 0.17355873E+03</pdfrwt>
<pdfrwt beam="2">  1       -2 0.42233092E-02 0.17355873E+03</pdfrwt>
<totfact> 0.34000485E+04</totfact>
</mgrwt>
</event>
<event>
 4    1  0.6782240E-004  0.2508265E+03  0.7818608E-02  0.1112784E+00
         -2   -1    0    0    0  501 -0.00000000000E+00  0.00000000000E+00  0.31835503824E+02  0.31835503926E+02  0.25500000000E-02 0. -1.
          2   -1    0    0  501    0  0.00000000000E+00 -0.00000000000E+00 -0.49405494846E+03  0.49405494846E+03  0.25500000000E-02 0.  1.
    5000001    1    1    2    0    0 -0.85074105781E+02  0.50519788186E+02 -0.23761797961E+03  0.26866551083E+03  0.77000000000E+02 0.  0.
   -5000001    1    1    2    0    0  0.85074105781E+02 -0.50519788186E+02 -0.22460146502E+03  0.25722494156E+03  0.77000000000E+02 0.  0.
<mgrwt>
<rscale>  0 0.25082654E+03</rscale>
<asrwt>0</asrwt>
<pdfrwt beam="1">  1        2 0.70579274E-01 0.25082654E+03</pdfrwt>
<pdfrwt beam="2">  1       -2 0.45479294E-02 0.25082654E+03</pdfrwt>
<totfact> 0.15321564E+04</totfact>
</mgrwt>
</event>
<event>
 4    1  0.6782240E-004  0.2244158E+03  0.7818608E-02  0.1130633E+00
          2   -1    0    0  501    0  0.00000000000E+00  0.00000000000E+00  0.20021725453E+04  0.20021725453E+04  0.25500000000E-02 0.  1.
         -2   -1    0    0    0  501 -0.00000000000E+00 -0.00000000000E+00 -0.62884772595E+01  0.62884777765E+01  0.25500000000E-02 0. -1.
    5000001    1    1    2    0    0  0.39568076306E+02  0.56081418217E+02  0.13932384128E+04  0.13970515499E+04  0.77000000000E+02 0.  0.
   -5000001    1    1    2    0    0 -0.39568076306E+02 -0.56081418217E+02  0.60264565527E+03  0.61140947323E+03  0.77000000000E+02 0.  0.
<mgrwt>
<rscale>  0 0.22441584E+03</rscale>
<asrwt>0</asrwt>
<pdfrwt beam="1">  1        2 0.28602514E+00 0.22441584E+03</pdfrwt>
<pdfrwt beam="2">  1       -2 0.89835239E-03 0.22441584E+03</pdfrwt>
<totfact> 0.21779302E+04</totfact>
</mgrwt>
</event>
<event>
 4    1  0.6782240E-004  0.1923506E+03  0.7818608E-02  0.1156358E+00
         -2   -1    0    0    0  501 -0.00000000000E+00  0.00000000000E+00  0.82761608496E+02  0.82761608535E+02  0.25500000000E-02 0. -1.
          2   -1    0    0  501    0  0.00000000000E+00 -0.00000000000E+00 -0.11176307057E+03  0.11176307060E+03  0.25500000000E-02 0.  1.
    5000001    1    1    2    0    0  0.27155013930E+02 -0.50476825990E+02 -0.20516642704E+02  0.98159244962E+02  0.77000000000E+02 0.  0.
   -5000001    1    1    2    0    0 -0.27155013930E+02  0.50476825990E+02 -0.84848193703E+01  0.96365434173E+02  0.77000000000E+02 0.  0.
<mgrwt>
<rscale>  0 0.19235063E+03</rscale>
<asrwt>0</asrwt>
<pdfrwt beam="1">  1        2 0.15966153E-01 0.19235063E+03</pdfrwt>
<pdfrwt beam="2">  1       -2 0.11823087E-01 0.19235063E+03</pdfrwt>
<totfact> 0.17576291E+04</totfact>
</mgrwt>
</event>
<event>
 4    1  0.6782240E-004  0.4011479E+03  0.7818608E-02  0.1043383E+00
          2   -1    0    0  501    0  0.00000000000E+00  0.00000000000E+00  0.20885482368E+04  0.20885482368E+04  0.25500000000E-02 0.  1.
         -2   -1    0    0    0  501 -0.00000000000E+00 -0.00000000000E+00 -0.19262140965E+02  0.19262141134E+02  0.25500000000E-02 0. -1.
    5000001    1    1    2    0    0  0.82571256795E+02 -0.14803381751E+03  0.64253006954E+03  0.66895882821E+03  0.77000000000E+02 0.  0.
   -5000001    1    1    2    0    0 -0.82571256795E+02  0.14803381751E+03  0.14267560263E+04  0.14388515497E+04  0.77000000000E+02 0.  0.
<mgrwt>
<rscale>  0 0.40114791E+03</rscale>
<asrwt>0</asrwt>
<pdfrwt beam="1">  1        2 0.29836400E+00 0.40114791E+03</pdfrwt>
<pdfrwt beam="2">  1       -2 0.27517348E-02 0.40114791E+03</pdfrwt>
<totfact> 0.38430526E+03</totfact>
</mgrwt>
</event>
<event>
 4    1  0.6782240E-004  0.3537743E+03  0.7818608E-02  0.1061076E+00
         -2   -1    0    0    0  501 -0.00000000000E+00  0.00000000000E+00  0.29226334770E+02  0.29226334881E+02  0.25500000000E-02 0. -1.
          2   -1    0    0  501    0  0.00000000000E+00 -0.00000000000E+00 -0.10705777266E+04  0.10705777266E+04  0.25500000000E-02 0.  1.
    5000001    1    1    2    0    0  0.12604105730E+03  0.76070653878E+02 -0.70944174264E+03  0.72863549098E+03  0.77000000000E+02 0.  0.
   -5000001    1    1    2    0    0 -0.12604105730E+03 -0.76070653878E+02 -0.33190964918E+03  0.37116857050E+03  0.77000000000E+02 0.  0.
<mgrwt>
<rscale>  0 0.35377430E+03</rscale>
<asrwt>0</asrwt>
<pdfrwt beam="1">  1        2 0.15293965E+00 0.35377430E+03</pdfrwt>
<pdfrwt beam="2">  1       -2 0.41751914E-02 0.35377430E+03</pdfrwt>
<totfact> 0.68560526E+03</totfact>
</mgrwt>
</event>
<event>
 4    1  0.6782240E-004  0.2139054E+03  0.7818608E-02  0.1138510E+00
          2   -1    0    0  501    0  0.00000000000E+00  0.00000000000E+00  0.13990521083E+04  0.13990521083E+04  0.25500000000E-02 0.  1.
         -2   -1    0    0    0  501 -0.00000000000E+00 -0.00000000000E+00 -0.81761612996E+01  0.81761616972E+01  0.25500000000E-02 0. -1.
    5000001    1    1    2    0    0 -0.16528562451E+02 -0.59959112622E+02  0.96198564172E+03  0.96706445671E+03  0.77000000000E+02 0.  0.
   -5000001    1    1    2    0    0  0.16528562451E+02  0.59959112622E+02  0.42889030529E+03  0.44016381329E+03  0.77000000000E+02 0.  0.
<mgrwt>
<rscale>  0 0.21390536E+03</rscale>
<asrwt>0</asrwt>
<pdfrwt beam="1">  1        2 0.19986446E+00 0.21390536E+03</pdfrwt>
<pdfrwt beam="2">  1       -2 0.11680238E-02 0.21390536E+03</pdfrwt>
<totfact> 0.29427720E+04</totfact>
</mgrwt>
</event>
<event>
 4    1  0.6782240E-004  0.1683863E+03  0.7818608E-02  0.1179541E+00
          2   -1    0    0  501    0  0.00000000000E+00  0.00000000000E+00  0.64282480823E+03  0.64282480824E+03  0.25500000000E-02 0.  1.
         -2   -1    0    0    0  501 -0.00000000000E+00 -0.00000000000E+00 -0.11027084665E+02  0.11027084960E+02  0.25500000000E-02 0. -1.
    5000001    1    1    2    0    0 -0.30002317865E+02  0.23300244916E+01  0.25402354965E+03  0.26713766464E+03  0.77000000000E+02 0.  0.
   -5000001    1    1    2    0    0  0.30002317865E+02 -0.23300244916E+01  0.37777417392E+03  0.38671422856E+03  0.77000000000E+02 0.  0.
<mgrwt>
<rscale>  0 0.16838627E+03</rscale>
<asrwt>0</asrwt>
<pdfrwt beam="1">  1        2 0.91832156E-01 0.16838627E+03</pdfrwt>
<pdfrwt beam="2">  1       -2 0.15752971E-02 0.16838627E+03</pdfrwt>
<totfact> 0.52979480E+04</totfact>
</mgrwt>
</event>
<event>
 4    1  0.6782240E-004  0.2123526E+03  0.7818608E-02  0.1139716E+00
         -2   -1    0    0    0  501 -0.00000000000E+00  0.00000000000E+00  0.22592496686E+02  0.22592496830E+02  0.25500000000E-02 0. -1.
          2   -1    0    0  501    0  0.00000000000E+00 -0.00000000000E+00 -0.49898907500E+03  0.49898907500E+03  0.25500000000E-02 0.  1.
    5000001    1    1    2    0    0 -0.54146267970E+02  0.48629788620E+02 -0.22122835018E+03  0.24529096518E+03  0.77000000000E+02 0.  0.
   -5000001    1    1    2    0    0  0.54146267970E+02 -0.48629788620E+02 -0.25516822814E+03  0.27629060666E+03  0.77000000000E+02 0.  0.
<mgrwt>
<rscale>  0 0.21235262E+03</rscale>
<asrwt>0</asrwt>
<pdfrwt beam="1">  1        2 0.71284147E-01 0.21235262E+03</pdfrwt>
<pdfrwt beam="2">  1       -2 0.32274998E-02 0.21235262E+03</pdfrwt>
<totfact> 0.25065741E+04</totfact>
</mgrwt>
</event>
<event>
 4    1  0.6782240E-004  0.1894114E+03  0.7818608E-02  0.1158993E+00
         -2   -1    0    0    0  501 -0.00000000000E+00  0.00000000000E+00  0.35908320256E+03  0.35908320257E+03  0.25500000000E-02 0. -1.
          2   -1    0    0  501    0  0.00000000000E+00 -0.00000000000E+00 -0.24977977142E+02  0.24977977272E+02  0.25500000000E-02 0.  1.
    5000001    1    1    2    0    0 -0.51440438045E+02 -0.14332468934E+02  0.13920397832E+03  0.16780430838E+03  0.77000000000E+02 0.  0.
   -5000001    1    1    2    0    0  0.51440438045E+02  0.14332468934E+02  0.19490124710E+03  0.21625687146E+03  0.77000000000E+02 0.  0.
<mgrwt>
<rscale>  0 0.18941143E+03</rscale>
<asrwt>0</asrwt>
<pdfrwt beam="1">  1        2 0.35682829E-02 0.18941143E+03</pdfrwt>
<pdfrwt beam="2">  1       -2 0.51297593E-01 0.18941143E+03</pdfrwt>
<totfact> 0.87284740E+03</totfact>
</mgrwt>
</event>
<event>
 4    1  0.6782240E-004  0.1810113E+03  0.7818608E-02  0.1166828E+00
          2   -1    0    0  501    0  0.00000000000E+00  0.00000000000E+00  0.57886144576E+03  0.57886144577E+03  0.25500000000E-02 0.  1.
         -2   -1    0    0    0  501 -0.00000000000E+00 -0.00000000000E+00 -0.14150666066E+02  0.14150666296E+02  0.25500000000E-02 0. -1.
    5000001    1    1    2    0    0 -0.14117893253E+02 -0.38713544394E+02  0.36017386003E+03  0.37061066213E+03  0.77000000000E+02 0.  0.
   -5000001    1    1    2    0    0  0.14117893253E+02  0.38713544394E+02  0.20453691966E+03  0.22240144994E+03  0.77000000000E+02 0.  0.
<mgrwt>
<rscale>  0 0.18101133E+03</rscale>
<asrwt>0</asrwt>
<pdfrwt beam="1">  1        2 0.82694505E-01 0.18101133E+03</pdfrwt>
<pdfrwt beam="2">  1       -2 0.20215234E-02 0.18101133E+03</pdfrwt>
<totfact> 0.41786555E+04</totfact>
</mgrwt>
</event>
<event>
 4    1  0.6782240E-004  0.2581240E+03  0.7818608E-02  0.1108276E+00
         -2   -1    0    0    0  501 -0.00000000000E+00  0.00000000000E+00  0.15943138225E+02  0.15943138429E+02  0.25500000000E-02 0. -1.
          2   -1    0    0  501    0  0.00000000000E+00 -0.00000000000E+00 -0.10447756928E+04  0.10447756928E+04  0.25500000000E-02 0.  1.
    5000001    1    1    2    0    0  0.74032533384E+02  0.94468320218E+01 -0.80954412425E+03  0.81661542218E+03  0.77000000000E+02 0.  0.
   -5000001    1    1    2    0    0 -0.74032533384E+02 -0.94468320218E+01 -0.21928843028E+03  0.24410340901E+03  0.77000000000E+02 0.  0.
<mgrwt>
<rscale>  0 0.25812403E+03</rscale>
<asrwt>0</asrwt>
<pdfrwt beam="1">  1        2 0.14925363E+00 0.25812403E+03</pdfrwt>
<pdfrwt beam="2">  1       -2 0.22775918E-02 0.25812403E+03</pdfrwt>
<totfact> 0.17381841E+04</totfact>
</mgrwt>
</event>
<event>
 4    1  0.6782240E-004  0.5137873E+03  0.7818608E-02  0.1010242E+00
         -2   -1    0    0    0  501 -0.00000000000E+00  0.00000000000E+00  0.41990000360E+03  0.41990000361E+03  0.25500000000E-02 0. -1.
          2   -1    0    0  501    0  0.00000000000E+00 -0.00000000000E+00 -0.15716681264E+03  0.15716681266E+03  0.25500000000E-02 0.  1.
    5000001    1    1    2    0    0 -0.79457407088E+02  0.14886138867E+03 -0.68266413606E+02  0.19764234314E+03  0.77000000000E+02 0.  0.
   -5000001    1    1    2    0    0  0.79457407088E+02 -0.14886138867E+03  0.33099960458E+03  0.37942447312E+03  0.77000000000E+02 0.  0.
<mgrwt>
<rscale>  0 0.51378729E+03</rscale>
<asrwt>0</asrwt>
<pdfrwt beam="1">  1        2 0.22452402E-01 0.51378729E+03</pdfrwt>
<pdfrwt beam="2">  1       -2 0.59985715E-01 0.51378729E+03</pdfrwt>
<totfact> 0.64726276E+02</totfact>
</mgrwt>
</event>
<event>
 4    1  0.6782240E-004  0.2656037E+03  0.7818608E-02  0.1103822E+00
         -2   -1    0    0    0  501 -0.00000000000E+00  0.00000000000E+00  0.29706568485E+02  0.29706568595E+02  0.25500000000E-02 0. -1.
          2   -1    0    0  501    0  0.00000000000E+00 -0.00000000000E+00 -0.59368474788E+03  0.59368474788E+03  0.25500000000E-02 0.  1.
    5000001    1    1    2    0    0  0.63745110469E+02 -0.77688072026E+02 -0.37611990754E+03  0.39685521351E+03  0.77000000000E+02 0.  0.
   -5000001    1    1    2    0    0 -0.63745110469E+02  0.77688072026E+02 -0.18785827185E+03  0.22653610297E+03  0.77000000000E+02 0.  0.
<mgrwt>
<rscale>  0 0.26560374E+03</rscale>
<asrwt>0</asrwt>
<pdfrwt beam="1">  1        2 0.84812100E-01 0.26560374E+03</pdfrwt>
<pdfrwt beam="2">  1       -2 0.42437959E-02 0.26560374E+03</pdfrwt>
<totfact> 0.13887765E+04</totfact>
</mgrwt>
</event>
<event>
 4    1  0.6782240E-004  0.2106202E+03  0.7818608E-02  0.1141076E+00
         -2   -1    0    0    0  501 -0.00000000000E+00  0.00000000000E+00  0.13659611639E+04  0.13659611639E+04  0.25500000000E-02 0. -1.
          2   -1    0    0  501    0  0.00000000000E+00 -0.00000000000E+00 -0.81189856217E+01  0.81189860221E+01  0.25500000000E-02 0.  1.
    5000001    1    1    2    0    0  0.51528648614E+02  0.37265977959E+02  0.46085405398E+03  0.47155001200E+03  0.77000000000E+02 0.  0.
   -5000001    1    1    2    0    0 -0.51528648614E+02 -0.37265977959E+02  0.89698812426E+03  0.90253013789E+03  0.77000000000E+02 0.  0.
<mgrwt>
<rscale>  0 0.21062022E+03</rscale>
<asrwt>0</asrwt>
<pdfrwt beam="1">  1        2 0.11598545E-02 0.21062022E+03</pdfrwt>
<pdfrwt beam="2">  1       -2 0.19513742E+00 0.21062022E+03</pdfrwt>
<totfact> 0.17921243E+03</totfact>
</mgrwt>
</event>
<event>
 4    1  0.6782240E-004  0.3846316E+03  0.7818608E-02  0.1049235E+00
         -2   -1    0    0    0  501 -0.00000000000E+00  0.00000000000E+00  0.13631887883E+04  0.13631887883E+04  0.25500000000E-02 0. -1.
          2   -1    0    0  501    0  0.00000000000E+00 -0.00000000000E+00 -0.27131510864E+02  0.27131510984E+02  0.25500000000E-02 0.  1.
    5000001    1    1    2    0    0 -0.85210841314E+02  0.14444642667E+03  0.47234406808E+03  0.50711298180E+03  0.77000000000E+02 0.  0.
   -5000001    1    1    2    0    0  0.85210841314E+02 -0.14444642667E+03  0.86371320935E+03  0.88320731748E+03  0.77000000000E+02 0.  0.
<mgrwt>
<rscale>  0 0.38463162E+03</rscale>
<asrwt>0</asrwt>
<pdfrwt beam="1">  1        2 0.38759299E-02 0.38463162E+03</pdfrwt>
<pdfrwt beam="2">  1       -2 0.19474127E+00 0.38463162E+03</pdfrwt>
<totfact> 0.34530708E+02</totfact>
</mgrwt>
</event>
<event>
 4    1  0.6782240E-004  0.2985563E+03  0.7818608E-02  0.1085965E+00
          2   -1    0    0  501    0  0.00000000000E+00  0.00000000000E+00  0.13173655788E+04  0.13173655788E+04  0.25500000000E-02 0.  1.
         -2   -1    0    0    0  501 -0.00000000000E+00 -0.00000000000E+00 -0.16915547975E+02  0.16915548167E+02  0.25500000000E-02 0. -1.
    5000001    1    1    2    0    0 -0.28565072433E+01  0.93364432926E+02  0.10405983253E+04  0.10476158416E+04  0.77000000000E+02 0.  0.
   -5000001    1    1    2    0    0  0.28565072433E+01 -0.93364432926E+02  0.25985170555E+03  0.28666528539E+03  0.77000000000E+02 0.  0.
<mgrwt>
<rscale>  0 0.29855626E+03</rscale>
<asrwt>0</asrwt>
<pdfrwt beam="1">  1        2 0.18819509E+00 0.29855626E+03</pdfrwt>
<pdfrwt beam="2">  1       -2 0.24165068E-02 0.29855626E+03</pdfrwt>
<totfact> 0.11347181E+04</totfact>
</mgrwt>
</event>
<event>
 4    1  0.6782240E-004  0.3114122E+03  0.7818608E-02  0.1079671E+00
          2   -1    0    0  501    0  0.00000000000E+00  0.00000000000E+00  0.17787179967E+04  0.17787179967E+04  0.25500000000E-02 0.  1.
         -2   -1    0    0    0  501 -0.00000000000E+00 -0.00000000000E+00 -0.13630259836E+02  0.13630260074E+02  0.25500000000E-02 0. -1.
    5000001    1    1    2    0    0 -0.12327066985E+03  0.24463421904E+02  0.59354469441E+03  0.61157045491E+03  0.77000000000E+02 0.  0.
   -5000001    1    1    2    0    0  0.12327066985E+03 -0.24463421904E+02  0.11715430425E+04  0.11807778019E+04  0.77000000000E+02 0.  0.
<mgrwt>
<rscale>  0 0.31141219E+03</rscale>
<asrwt>0</asrwt>
<pdfrwt beam="1">  1        2 0.25410273E+00 0.31141219E+03</pdfrwt>
<pdfrwt beam="2">  1       -2 0.19471788E-02 0.31141219E+03</pdfrwt>
<totfact> 0.91348552E+03</totfact>
</mgrwt>
</event>
<event>
 4    1  0.6782240E-004  0.1872625E+03  0.7818608E-02  0.1160954E+00
         -2   -1    0    0    0  501 -0.00000000000E+00  0.00000000000E+00  0.45948441871E+02  0.45948441942E+02  0.25500000000E-02 0. -1.
          2   -1    0    0  501    0  0.00000000000E+00 -0.00000000000E+00 -0.19079668192E+03  0.19079668194E+03  0.25500000000E-02 0.  1.
    5000001    1    1    2    0    0  0.45056417141E+02  0.15072705625E+02 -0.41962887671E+02  0.99735405560E+02  0.77000000000E+02 0.  0.
   -5000001    1    1    2    0    0 -0.45056417141E+02 -0.15072705625E+02 -0.10288535238E+03  0.13700971832E+03  0.77000000000E+02 0.  0.
<mgrwt>
<rscale>  0 0.18726249E+03</rscale>
<asrwt>0</asrwt>
<pdfrwt beam="1">  1        2 0.27256668E-01 0.18726249E+03</pdfrwt>
<pdfrwt beam="2">  1       -2 0.65640632E-02 0.18726249E+03</pdfrwt>
<totfact> 0.24034741E+04</totfact>
</mgrwt>
</event>
<event>
 4    1  0.6782240E-004  0.4793253E+03  0.7818608E-02  0.1019321E+00
         -2   -1    0    0    0  501 -0.00000000000E+00  0.00000000000E+00  0.26681020876E+03  0.26681020877E+03  0.25500000000E-02 0. -1.
          2   -1    0    0  501    0  0.00000000000E+00 -0.00000000000E+00 -0.21527735707E+03  0.21527735709E+03  0.25500000000E-02 0.  1.
    5000001    1    1    2    0    0  0.22054332362E+03 -0.30050204567E+02 -0.18838036453E+02  0.23627577956E+03  0.77000000000E+02 0.  0.
   -5000001    1    1    2    0    0 -0.22054332362E+03  0.30050204567E+02  0.70370888140E+02  0.24581178630E+03  0.77000000000E+02 0.  0.
<mgrwt>
<rscale>  0 0.47932534E+03</rscale>
<asrwt>0</asrwt>
<pdfrwt beam="1">  1        2 0.30753908E-01 0.47932534E+03</pdfrwt>
<pdfrwt beam="2">  1       -2 0.38115744E-01 0.47932534E+03</pdfrwt>
<totfact> 0.11241459E+03</totfact>
</mgrwt>
</event>
<event>
 4    1  0.6782240E-004  0.2286291E+03  0.7818608E-02  0.1127608E+00
         -2   -1    0    0    0  501 -0.00000000000E+00  0.00000000000E+00  0.84043269870E+01  0.84043273739E+01  0.25500000000E-02 0. -1.
          2   -1    0    0  501    0  0.00000000000E+00 -0.00000000000E+00 -0.15548914541E+04  0.15548914541E+04  0.25500000000E-02 0.  1.
    5000001    1    1    2    0    0  0.14029957472E+01 -0.57175858670E+02 -0.34799786688E+03  0.36097446248E+03  0.77000000000E+02 0.  0.
   -5000001    1    1    2    0    0 -0.14029957472E+01  0.57175858670E+02 -0.11984892603E+04  0.12023213190E+04  0.77000000000E+02 0.  0.
<mgrwt>
<rscale>  0 0.22862910E+03</rscale>
<asrwt>0</asrwt>
<pdfrwt beam="1">  1        2 0.22212717E+00 0.22862910E+03</pdfrwt>
<pdfrwt beam="2">  1       -2 0.12006192E-02 0.22862910E+03</pdfrwt>
<totfact> 0.23687278E+04</totfact>
</mgrwt>
</event>
<event>
 4    1  0.6782240E-004  0.3095144E+03  0.7818608E-02  0.1080579E+00
         -2   -1    0    0    0  501 -0.00000000000E+00  0.00000000000E+00  0.25434848215E+02  0.25434848342E+02  0.25500000000E-02 0. -1.
          2   -1    0    0  501    0  0.00000000000E+00 -0.00000000000E+00 -0.94161303407E+03  0.94161303408E+03  0.25500000000E-02 0.  1.
    5000001    1    1    2    0    0  0.50818196999E+02  0.12421336050E+03 -0.44854221621E+03  0.47447925961E+03  0.77000000000E+02 0.  0.
   -5000001    1    1    2    0    0 -0.50818196999E+02 -0.12421336050E+03 -0.46763596965E+03  0.49256862281E+03  0.77000000000E+02 0.  0.
<mgrwt>
<rscale>  0 0.30951436E+03</rscale>
<asrwt>0</asrwt>
<pdfrwt beam="1">  1        2 0.13451613E+00 0.30951436E+03</pdfrwt>
<pdfrwt beam="2">  1       -2 0.36335503E-02 0.30951436E+03</pdfrwt>
<totfact> 0.10054203E+04</totfact>
</mgrwt>
</event>
<event>
 4    1  0.6782240E-004  0.4599740E+03  0.7818608E-02  0.1024789E+00
         -2   -1    0    0    0  501 -0.00000000000E+00  0.00000000000E+00  0.58513642421E+02  0.58513642476E+02  0.25500000000E-02 0.  1.
          2   -1    0    0  501    0  0.00000000000E+00 -0.00000000000E+00 -0.90396063351E+03  0.90396063351E+03  0.25500000000E-02 0. -1.
    5000001    1    1    2    0    0 -0.73029463270E+01 -0.16376913520E+03 -0.12613073313E+03  0.22070710117E+03  0.77000000000E+02 0.  0.
   -5000001    1    1    2    0    0  0.73029463270E+01  0.16376913520E+03 -0.71931625796E+03  0.74176717481E+03  0.77000000000E+02 0.  0.
<mgrwt>
<rscale>  0 0.45997404E+03</rscale>
<asrwt>0</asrwt>
<pdfrwt beam="1">  1        2 0.12913723E+00 0.45997404E+03</pdfrwt>
<pdfrwt beam="2">  1       -2 0.83590923E-02 0.45997404E+03</pdfrwt>
<totfact> 0.29566065E+03</totfact>
</mgrwt>
</event>
<event>
 4    1  0.6782240E-004  0.3880676E+03  0.7818608E-02  0.1047992E+00
         -2   -1    0    0    0  501 -0.00000000000E+00  0.00000000000E+00  0.40896074541E+03  0.40896074542E+03  0.25500000000E-02 0. -1.
          2   -1    0    0  501    0  0.00000000000E+00 -0.00000000000E+00 -0.92060456088E+02  0.92060456123E+02  0.25500000000E-02 0.  1.
    5000001    1    1    2    0    0  0.17464479148E+03  0.34915485514E+02  0.15784673753E+03  0.25012894049E+03  0.77000000000E+02 0.  0.
   -5000001    1    1    2    0    0 -0.17464479148E+03 -0.34915485514E+02  0.15905355179E+03  0.25089226105E+03  0.77000000000E+02 0.  0.
<mgrwt>
<rscale>  0 0.38806759E+03</rscale>
<asrwt>0</asrwt>
<pdfrwt beam="1">  1        2 0.13151493E-01 0.38806759E+03</pdfrwt>
<pdfrwt beam="2">  1       -2 0.58422965E-01 0.38806759E+03</pdfrwt>
<totfact> 0.12863786E+03</totfact>
</mgrwt>
</event>
<event>
 4    1  0.6782240E-004  0.3111993E+03  0.7818608E-02  0.1079772E+00
         -2   -1    0    0    0  501 -0.00000000000E+00  0.00000000000E+00  0.10995946118E+02  0.10995946414E+02  0.25500000000E-02 0. -1.
          2   -1    0    0  501    0  0.00000000000E+00 -0.00000000000E+00 -0.22018344403E+04  0.22018344403E+04  0.25500000000E-02 0.  1.
    5000001    1    1    2    0    0 -0.12963877975E+03 -0.31435900092E+01 -0.82314920588E+03  0.83685106830E+03  0.77000000000E+02 0.  0.
   -5000001    1    1    2    0    0  0.12963877975E+03  0.31435900092E+01 -0.13676892883E+04  0.13759793184E+04  0.77000000000E+02 0.  0.
<mgrwt>
<rscale>  0 0.31119931E+03</rscale>
<asrwt>0</asrwt>
<pdfrwt beam="1">  1        2 0.31454750E+00 0.31119931E+03</pdfrwt>
<pdfrwt beam="2">  1       -2 0.15708509E-02 0.31119931E+03</pdfrwt>
<totfact> 0.77700467E+03</totfact>
</mgrwt>
</event>
<event>
 4    1  0.6782240E-004  0.3938890E+03  0.7818608E-02  0.1045916E+00
         -2   -1    0    0    0  501 -0.00000000000E+00  0.00000000000E+00  0.10612653982E+03  0.10612653985E+03  0.25500000000E-02 0. -1.
          2   -1    0    0  501    0  0.00000000000E+00 -0.00000000000E+00 -0.36548011308E+03  0.36548011309E+03  0.25500000000E-02 0.  1.
    5000001    1    1    2    0    0 -0.11890937283E+03 -0.13128839011E+03 -0.83583374000E+02  0.21045489002E+03  0.77000000000E+02 0.  0.
   -5000001    1    1    2    0    0  0.11890937283E+03  0.13128839011E+03 -0.17577019926E+03  0.26115176291E+03  0.77000000000E+02 0.  0.
<mgrwt>
<rscale>  0 0.39388902E+03</rscale>
<asrwt>0</asrwt>
<pdfrwt beam="1">  1        2 0.52211444E-01 0.39388902E+03</pdfrwt>
<pdfrwt beam="2">  1       -2 0.15160934E-01 0.39388902E+03</pdfrwt>
<totfact> 0.32360269E+03</totfact>
</mgrwt>
</event>
<event>
 4    1  0.6782240E-004  0.1877652E+03  0.7818608E-02  0.1160493E+00
         -2   -1    0    0    0  501 -0.00000000000E+00  0.00000000000E+00  0.13591232766E+02  0.13591233006E+02  0.25500000000E-02 0. -1.
          2   -1    0    0  501    0  0.00000000000E+00 -0.00000000000E+00 -0.64850188382E+03  0.64850188382E+03  0.25500000000E-02 0.  1.
    5000001    1    1    2    0    0 -0.48700974351E+02  0.18276161820E+02 -0.27026023246E+03  0.28578907649E+03  0.77000000000E+02 0.  0.
   -5000001    1    1    2    0    0  0.48700974351E+02 -0.18276161820E+02 -0.36465041859E+03  0.37630404033E+03  0.77000000000E+02 0.  0.
<mgrwt>
<rscale>  0 0.18776517E+03</rscale>
<asrwt>0</asrwt>
<pdfrwt beam="1">  1        2 0.92643107E-01 0.18776517E+03</pdfrwt>
<pdfrwt beam="2">  1       -2 0.19416051E-02 0.18776517E+03</pdfrwt>
<totfact> 0.39085001E+04</totfact>
</mgrwt>
</event>
<event>
 4    1  0.6782240E-004  0.2759182E+03  0.7818608E-02  0.1097939E+00
          2   -1    0    0  501    0  0.00000000000E+00  0.00000000000E+00  0.16538103507E+04  0.16538103507E+04  0.25500000000E-02 0.  1.
         -2   -1    0    0    0  501 -0.00000000000E+00 -0.00000000000E+00 -0.11508399798E+02  0.11508400080E+02  0.25500000000E-02 0. -1.
    5000001    1    1    2    0    0 -0.34578073938E+01 -0.11167854685E+03  0.97139341253E+03  0.98082527300E+03  0.77000000000E+02 0.  0.
   -5000001    1    1    2    0    0  0.34578073938E+01  0.11167854685E+03  0.67090853841E+03  0.68449347781E+03  0.77000000000E+02 0.  0.
<mgrwt>
<rscale>  0 0.27591818E+03</rscale>
<asrwt>0</asrwt>
<pdfrwt beam="1">  1        2 0.23625889E+00 0.27591818E+03</pdfrwt>
<pdfrwt beam="2">  1       -2 0.16440553E-02 0.27591818E+03</pdfrwt>
<totfact> 0.13470979E+04</totfact>
</mgrwt>
</event>
<event>
 4    1  0.6782240E-004  0.3402123E+03  0.7818608E-02  0.1066706E+00
         -2   -1    0    0    0  501 -0.00000000000E+00  0.00000000000E+00  0.51071306245E+03  0.51071306246E+03  0.25500000000E-02 0.  1.
          2   -1    0    0  501    0  0.00000000000E+00 -0.00000000000E+00 -0.56658246023E+02  0.56658246080E+02  0.25500000000E-02 0. -1.
    5000001    1    1    2    0    0 -0.91299008932E+02 -0.22326247594E+02  0.28486362223E+02  0.12479760894E+03  0.77000000000E+02 0.  0.
   -5000001    1    1    2    0    0  0.91299008932E+02  0.22326247594E+02  0.42556845421E+03  0.44257369960E+03  0.77000000000E+02 0.  0.
<mgrwt>
<rscale>  0 0.34021232E+03</rscale>
<asrwt>0</asrwt>
<pdfrwt beam="1">  1        2 0.80940355E-02 0.34021232E+03</pdfrwt>
<pdfrwt beam="2">  1       -2 0.72959006E-01 0.34021232E+03</pdfrwt>
<totfact> 0.14688752E+03</totfact>
</mgrwt>
</event>
<event>
 4    1  0.6782240E-004  0.1792998E+03  0.7818608E-02  0.1168482E+00
         -2   -1    0    0    0  501 -0.00000000000E+00  0.00000000000E+00  0.36038944374E+01  0.36038953396E+01  0.25500000000E-02 0. -1.
          2   -1    0    0  501    0  0.00000000000E+00 -0.00000000000E+00 -0.22301154215E+04  0.22301154215E+04  0.25500000000E-02 0.  1.
    5000001    1    1    2    0    0  0.22342673168E+02  0.35635041814E+02 -0.88386234342E+03  0.88820644750E+03  0.77000000000E+02 0.  0.
   -5000001    1    1    2    0    0 -0.22342673168E+02 -0.35635041814E+02 -0.13426491836E+04  0.13455128693E+04  0.77000000000E+02 0.  0.
<mgrwt>
<rscale>  0 0.17929977E+03</rscale>
<asrwt>0</asrwt>
<pdfrwt beam="1">  1        2 0.31858703E+00 0.17929977E+03</pdfrwt>
<pdfrwt beam="2">  1       -2 0.51484356E-03 0.17929977E+03</pdfrwt>
<totfact> 0.37177481E+04</totfact>
</mgrwt>
</event>
<event>
 4    1  0.6782240E-004  0.1791886E+03  0.7818608E-02  0.1168591E+00
         -2   -1    0    0    0  501 -0.00000000000E+00  0.00000000000E+00  0.61687920247E+01  0.61687925517E+01  0.25500000000E-02 0. -1.
          2   -1    0    0  501    0  0.00000000000E+00 -0.00000000000E+00 -0.13012495288E+04  0.13012495288E+04  0.25500000000E-02 0.  1.
    5000001    1    1    2    0    0 -0.16839107065E+02 -0.41245923467E+02 -0.56985717020E+03  0.57675902781E+03  0.77000000000E+02 0.  0.
   -5000001    1    1    2    0    0  0.16839107065E+02  0.41245923467E+02 -0.72522356658E+03  0.73065929355E+03  0.77000000000E+02 0.  0.
<mgrwt>
<rscale>  0 0.17918859E+03</rscale>
<asrwt>0</asrwt>
<pdfrwt beam="1">  1        2 0.18589262E+00 0.17918859E+03</pdfrwt>
<pdfrwt beam="2">  1       -2 0.88125687E-03 0.17918859E+03</pdfrwt>
<totfact> 0.48998543E+04</totfact>
</mgrwt>
</event>
<event>
 4    1  0.6782240E-004  0.2642387E+03  0.7818608E-02  0.1104623E+00
          2   -1    0    0  501    0  0.00000000000E+00  0.00000000000E+00  0.19241261197E+04  0.19241261197E+04  0.25500000000E-02 0.  1.
         -2   -1    0    0    0  501 -0.00000000000E+00 -0.00000000000E+00 -0.90719203735E+01  0.90719207319E+01  0.25500000000E-02 0. -1.
    5000001    1    1    2    0    0 -0.82183017144E+02  0.58574391684E+02  0.12254915515E+04  0.12320485180E+04  0.77000000000E+02 0.  0.
   -5000001    1    1    2    0    0  0.82183017144E+02 -0.58574391684E+02  0.68956264782E+03  0.70114952252E+03  0.77000000000E+02 0.  0.
<mgrwt>
<rscale>  0 0.26423867E+03</rscale>
<asrwt>0</asrwt>
<pdfrwt beam="1">  1        2 0.27487491E+00 0.26423867E+03</pdfrwt>
<pdfrwt beam="2">  1       -2 0.12959898E-02 0.26423867E+03</pdfrwt>
<totfact> 0.14039642E+04</totfact>
</mgrwt>
</event>
<event>
 4    1  0.6782240E-004  0.1957454E+03  0.7818608E-02  0.1153379E+00
          2   -1    0    0  501    0  0.00000000000E+00  0.00000000000E+00  0.13321619867E+03  0.13321619869E+03  0.25500000000E-02 0.  1.
         -2   -1    0    0    0  501 -0.00000000000E+00 -0.00000000000E+00 -0.71906153819E+02  0.71906153864E+02  0.25500000000E-02 0. -1.
    5000001    1    1    2    0    0 -0.45755575660E+02  0.35928149042E+02  0.13575157467E+02  0.97456090101E+02  0.77000000000E+02 0.  0.
   -5000001    1    1    2    0    0  0.45755575660E+02 -0.35928149042E+02  0.47734887381E+02  0.10766626245E+03  0.77000000000E+02 0.  0.
<mgrwt>
<rscale>  0 0.19574539E+03</rscale>
<asrwt>0</asrwt>
<pdfrwt beam="1">  1        2 0.19030885E-01 0.19574539E+03</pdfrwt>
<pdfrwt beam="2">  1       -2 0.10272308E-01 0.19574539E+03</pdfrwt>
<totfact> 0.17970573E+04</totfact>
</mgrwt>
</event>
<event>
 4    1  0.6782240E-004  0.3506551E+03  0.7818608E-02  0.1062346E+00
         -2   -1    0    0    0  501 -0.00000000000E+00  0.00000000000E+00  0.48340311000E+03  0.48340311001E+03  0.25500000000E-02 0. -1.
          2   -1    0    0  501    0  0.00000000000E+00 -0.00000000000E+00 -0.63590311156E+02  0.63590311207E+02  0.25500000000E-02 0.  1.
    5000001    1    1    2    0    0  0.12018984817E+03  0.33247349875E+02  0.36001375443E+03  0.38870282898E+03  0.77000000000E+02 0.  0.
   -5000001    1    1    2    0    0 -0.12018984817E+03 -0.33247349875E+02  0.59799044416E+02  0.15829059224E+03  0.77000000000E+02 0.  0.
<mgrwt>
<rscale>  0 0.35065513E+03</rscale>
<asrwt>0</asrwt>
<pdfrwt beam="1">  1        2 0.90843304E-02 0.35065513E+03</pdfrwt>
<pdfrwt beam="2">  1       -2 0.69057585E-01 0.35065513E+03</pdfrwt>
<totfact> 0.14288287E+03</totfact>
</mgrwt>
</event>
<event>
 4    1  0.6782240E-004  0.1853573E+03  0.7818608E-02  0.1162717E+00
         -2   -1    0    0    0  501 -0.00000000000E+00  0.00000000000E+00  0.39124491310E+01  0.39124499620E+01  0.25500000000E-02 0. -1.
          2   -1    0    0  501    0  0.00000000000E+00 -0.00000000000E+00 -0.21953850896E+04  0.21953850896E+04  0.25500000000E-02 0.  1.
    5000001    1    1    2    0    0  0.25846890712E+02  0.35297359805E+02 -0.77158277372E+03  0.77664853188E+03  0.77000000000E+02 0.  0.
   -5000001    1    1    2    0    0 -0.25846890712E+02 -0.35297359805E+02 -0.14198898667E+04  0.14226490077E+04  0.77000000000E+02 0.  0.
<mgrwt>
<rscale>  0 0.18535731E+03</rscale>
<asrwt>0</asrwt>
<pdfrwt beam="1">  1        2 0.31362565E+00 0.18535731E+03</pdfrwt>
<pdfrwt beam="2">  1       -2 0.55892277E-03 0.18535731E+03</pdfrwt>
<totfact> 0.34426168E+04</totfact>
</mgrwt>
</event>
<event>
 4    1  0.6782240E-004  0.1868993E+03  0.7818608E-02  0.1161288E+00
          2   -1    0    0  501    0  0.00000000000E+00  0.00000000000E+00  0.14186476310E+04  0.14186476310E+04  0.25500000000E-02 0.  1.
         -2   -1    0    0    0  501 -0.00000000000E+00 -0.00000000000E+00 -0.61557458487E+01  0.61557463768E+01  0.25500000000E-02 0. -1.
    5000001    1    1    2    0    0 -0.41610799587E+02  0.28477776946E+02  0.58299403447E+03  0.59021478010E+03  0.77000000000E+02 0.  0.
   -5000001    1    1    2    0    0  0.41610799587E+02 -0.28477776946E+02  0.82949785070E+03  0.83458859730E+03  0.77000000000E+02 0.  0.
<mgrwt>
<rscale>  0 0.18689927E+03</rscale>
<asrwt>0</asrwt>
<pdfrwt beam="1">  1        2 0.20266405E+00 0.18689927E+03</pdfrwt>
<pdfrwt beam="2">  1       -2 0.87939186E-03 0.18689927E+03</pdfrwt>
<totfact> 0.42936686E+04</totfact>
</mgrwt>
</event>
<event>
 4    1  0.6782240E-004  0.3005643E+03  0.7818608E-02  0.1084959E+00
          2   -1    0    0  501    0  0.00000000000E+00  0.00000000000E+00  0.22746492689E+04  0.22746492689E+04  0.25500000000E-02 0.  1.
         -2   -1    0    0    0  501 -0.00000000000E+00 -0.00000000000E+00 -0.99288829096E+01  0.99288832371E+01  0.25500000000E-02 0. -1.
    5000001    1    1    2    0    0  0.10154206502E+03 -0.20448682140E+02  0.17175250910E+04  0.17223676662E+04  0.77000000000E+02 0.  0.
   -5000001    1    1    2    0    0 -0.10154206502E+03  0.20448682140E+02  0.54719529501E+03  0.56221048589E+03  0.77000000000E+02 0.  0.
<mgrwt>
<rscale>  0 0.30056431E+03</rscale>
<asrwt>0</asrwt>
<pdfrwt beam="1">  1        2 0.32494996E+00 0.30056431E+03</pdfrwt>
<pdfrwt beam="2">  1       -2 0.14184116E-02 0.30056431E+03</pdfrwt>
<totfact> 0.83087405E+03</totfact>
</mgrwt>
</event>
<event>
 4    1  0.6782240E-004  0.3481927E+03  0.7818608E-02  0.1063359E+00
         -2   -1    0    0    0  501 -0.00000000000E+00  0.00000000000E+00  0.30039686419E+02  0.30039686528E+02  0.25500000000E-02 0. -1.
          2   -1    0    0  501    0  0.00000000000E+00 -0.00000000000E+00 -0.10089830007E+04  0.10089830007E+04  0.25500000000E-02 0.  1.
    5000001    1    1    2    0    0 -0.12995441350E+03 -0.78890347043E+02 -0.59575967144E+03  0.61965346974E+03  0.77000000000E+02 0.  0.
   -5000001    1    1    2    0    0  0.12995441350E+03  0.78890347043E+02 -0.38318364289E+03  0.41936921754E+03  0.77000000000E+02 0.  0.
<mgrwt>
<rscale>  0 0.34819267E+03</rscale>
<asrwt>0</asrwt>
<pdfrwt beam="1">  1        2 0.14414041E+00 0.34819267E+03</pdfrwt>
<pdfrwt beam="2">  1       -2 0.42913844E-02 0.34819267E+03</pdfrwt>
<totfact> 0.71427300E+03</totfact>
</mgrwt>
</event>
<event>
 4    1  0.6782240E-004  0.2510841E+03  0.7818608E-02  0.1112622E+00
         -2   -1    0    0    0  501 -0.00000000000E+00  0.00000000000E+00  0.86099270628E+01  0.86099274404E+01  0.25500000000E-02 0. -1.
          2   -1    0    0  501    0  0.00000000000E+00 -0.00000000000E+00 -0.18305387380E+04  0.18305387380E+04  0.25500000000E-02 0.  1.
    5000001    1    1    2    0    0 -0.83464558659E+02 -0.33714360332E+02 -0.60640510656E+03  0.61786660689E+03  0.77000000000E+02 0.  0.
   -5000001    1    1    2    0    0  0.83464558659E+02  0.33714360332E+02 -0.12155237044E+04  0.12212820586E+04  0.77000000000E+02 0.  0.
<mgrwt>
<rscale>  0 0.25108409E+03</rscale>
<asrwt>0</asrwt>
<pdfrwt beam="1">  1        2 0.26150529E+00 0.25108409E+03</pdfrwt>
<pdfrwt beam="2">  1       -2 0.12299908E-02 0.25108409E+03</pdfrwt>
<totfact> 0.16802622E+04</totfact>
</mgrwt>
</event>
<event>
 4    1  0.6782240E-004  0.2486359E+03  0.7818608E-02  0.1114170E+00
         -2   -1    0    0    0  501 -0.00000000000E+00  0.00000000000E+00  0.12407786734E+03  0.12407786737E+03  0.25500000000E-02 0. -1.
          2   -1    0    0  501    0  0.00000000000E+00 -0.00000000000E+00 -0.12455845677E+03  0.12455845679E+03  0.25500000000E-02 0.  1.
    5000001    1    1    2    0    0 -0.33386400916E+02  0.76098238455E+02  0.50949194537E+02  0.12421921786E+03  0.77000000000E+02 0.  0.
   -5000001    1    1    2    0    0  0.33386400916E+02 -0.76098238455E+02 -0.51429783962E+02  0.12441710630E+03  0.77000000000E+02 0.  0.
<mgrwt>
<rscale>  0 0.24863586E+03</rscale>
<asrwt>0</asrwt>
<pdfrwt beam="1">  1        2 0.17794065E-01 0.24863586E+03</pdfrwt>
<pdfrwt beam="2">  1       -2 0.17725410E-01 0.24863586E+03</pdfrwt>
<totfact> 0.81004708E+03</totfact>
</mgrwt>
</event>
<event>
 4    1  0.6782240E-004  0.2315161E+03  0.7818608E-02  0.1125577E+00
         -2   -1    0    0    0  501 -0.00000000000E+00  0.00000000000E+00  0.43240904457E+01  0.43240911976E+01  0.25500000000E-02 0. -1.
          2   -1    0    0  501    0  0.00000000000E+00 -0.00000000000E+00 -0.30988995530E+04  0.30988995530E+04  0.25500000000E-02 0.  1.
    5000001    1    1    2    0    0 -0.43083998795E+02  0.44289728117E+02 -0.73714147553E+03  0.74372331274E+03  0.77000000000E+02 0.  0.
   -5000001    1    1    2    0    0  0.43083998795E+02 -0.44289728117E+02 -0.23574339871E+04  0.23595003315E+04  0.77000000000E+02 0.  0.
<mgrwt>
<rscale>  0 0.23151607E+03</rscale>
<asrwt>0</asrwt>
<pdfrwt beam="1">  1        2 0.44269851E+00 0.23151607E+03</pdfrwt>
<pdfrwt beam="2">  1       -2 0.61772925E-03 0.23151607E+03</pdfrwt>
<totfact> 0.10522926E+04</totfact>
</mgrwt>
</event>
<event>
 4    1  0.6782240E-004  0.4335331E+03  0.7818608E-02  0.1032750E+00
         -2   -1    0    0    0  501 -0.00000000000E+00  0.00000000000E+00  0.27956943123E+02  0.27956943239E+02  0.25500000000E-02 0.  1.
          2   -1    0    0  501    0  0.00000000000E+00 -0.00000000000E+00 -0.16807177365E+04  0.16807177365E+04  0.25500000000E-02 0. -1.
    5000001    1    1    2    0    0 -0.16760138688E+02  0.19928984506E+03 -0.95478298102E+03  0.97853813694E+03  0.77000000000E+02 0.  0.
   -5000001    1    1    2    0    0  0.16760138688E+02 -0.19928984506E+03 -0.69797781236E+03  0.73013654281E+03  0.77000000000E+02 0.  0.
<mgrwt>
<rscale>  0 0.43353307E+03</rscale>
<asrwt>0</asrwt>
<pdfrwt beam="1">  1        2 0.24010247E+00 0.43353307E+03</pdfrwt>
<pdfrwt beam="2">  1       -2 0.39938501E-02 0.43353307E+03</pdfrwt>
<totfact> 0.34888023E+03</totfact>
</mgrwt>
</event>
<event>
 4    1  0.6782240E-004  0.1998905E+03  0.7818608E-02  0.1149831E+00
          2   -1    0    0  501    0  0.00000000000E+00  0.00000000000E+00  0.52620544389E+03  0.52620544390E+03  0.25500000000E-02 0.  1.
         -2   -1    0    0    0  501 -0.00000000000E+00 -0.00000000000E+00 -0.18983172405E+02  0.18983172576E+02  0.25500000000E-02 0. -1.
    5000001    1    1    2    0    0 -0.18729121315E+02  0.55511868197E+02  0.32194424818E+03  0.33616877671E+03  0.77000000000E+02 0.  0.
   -5000001    1    1    2    0    0  0.18729121315E+02 -0.55511868197E+02  0.18527802330E+03  0.20901983976E+03  0.77000000000E+02 0.  0.
<mgrwt>
<rscale>  0 0.19989046E+03</rscale>
<asrwt>0</asrwt>
<pdfrwt beam="1">  1        2 0.75172222E-01 0.19989046E+03</pdfrwt>
<pdfrwt beam="2">  1       -2 0.27118812E-02 0.19989046E+03</pdfrwt>
<totfact> 0.30449431E+04</totfact>
</mgrwt>
</event>
<event>
 4    1  0.6782240E-004  0.1924381E+03  0.7818608E-02  0.1156281E+00
          2   -1    0    0  501    0  0.00000000000E+00  0.00000000000E+00  0.53808181591E+02  0.53808181651E+02  0.25500000000E-02 0.  1.
         -2   -1    0    0    0  501 -0.00000000000E+00 -0.00000000000E+00 -0.17205752608E+03  0.17205752609E+03  0.25500000000E-02 0. -1.
    5000001    1    1    2    0    0 -0.46942848782E+02  0.27547909473E+02 -0.81596904139E+02  0.12469792754E+03  0.77000000000E+02 0.  0.
   -5000001    1    1    2    0    0  0.46942848782E+02 -0.27547909473E+02 -0.36652440346E+02  0.10116778020E+03  0.77000000000E+02 0.  0.
<mgrwt>
<rscale>  0 0.19243807E+03</rscale>
<asrwt>0</asrwt>
<pdfrwt beam="1">  1        2 0.76868831E-02 0.19243807E+03</pdfrwt>
<pdfrwt beam="2">  1       -2 0.24579646E-01 0.19243807E+03</pdfrwt>
<totfact> 0.12626994E+04</totfact>
</mgrwt>
</event>
<event>
 4    1  0.6782240E-004  0.2007819E+03  0.7818608E-02  0.1149081E+00
          2   -1    0    0  501    0  0.00000000000E+00  0.00000000000E+00  0.71707304668E+03  0.71707304668E+03  0.25500000000E-02 0.  1.
         -2   -1    0    0    0  501 -0.00000000000E+00 -0.00000000000E+00 -0.14054839218E+02  0.14054839450E+02  0.25500000000E-02 0. -1.
    5000001    1    1    2    0    0 -0.62704112643E+02 -0.79802779053E+01  0.39667657435E+03  0.40899485964E+03  0.77000000000E+02 0.  0.
   -5000001    1    1    2    0    0  0.62704112643E+02  0.79802779053E+01  0.30634163311E+03  0.32213302649E+03  0.77000000000E+02 0.  0.
<mgrwt>
<rscale>  0 0.20078194E+03</rscale>
<asrwt>0</asrwt>
<pdfrwt beam="1">  1        2 0.10243901E+00 0.20078194E+03</pdfrwt>
<pdfrwt beam="2">  1       -2 0.20078341E-02 0.20078194E+03</pdfrwt>
<totfact> 0.33276407E+04</totfact>
</mgrwt>
</event>
<event>
 4    1  0.6782240E-004  0.4852856E+03  0.7818608E-02  0.1017693E+00
          2   -1    0    0  501    0  0.00000000000E+00  0.00000000000E+00  0.94082290232E+03  0.94082290232E+03  0.25500000000E-02 0.  1.
         -2   -1    0    0    0  501 -0.00000000000E+00 -0.00000000000E+00 -0.62578748676E+02  0.62578748728E+02  0.25500000000E-02 0. -1.
    5000001    1    1    2    0    0 -0.81983798542E+02 -0.43513248082E+02  0.87446851242E+03  0.88274510772E+03  0.77000000000E+02 0.  0.
   -5000001    1    1    2    0    0  0.81983798542E+02  0.43513248082E+02  0.37756412188E+01  0.12065654333E+03  0.77000000000E+02 0.  0.
<mgrwt>
<rscale>  0 0.48528557E+03</rscale>
<asrwt>0</asrwt>
<pdfrwt beam="1">  1        2 0.13440326E+00 0.48528557E+03</pdfrwt>
<pdfrwt beam="2">  1       -2 0.89398219E-02 0.48528557E+03</pdfrwt>
<totfact> 0.25185184E+03</totfact>
</mgrwt>
</event>
<event>
 4    1  0.6782240E-004  0.2586718E+03  0.7818608E-02  0.1107944E+00
          2   -1    0    0  501    0  0.00000000000E+00  0.00000000000E+00  0.24559063678E+03  0.24559063680E+03  0.25500000000E-02 0.  1.
         -2   -1    0    0    0  501 -0.00000000000E+00 -0.00000000000E+00 -0.68112437429E+02  0.68112437476E+02  0.25500000000E-02 0. -1.
    5000001    1    1    2    0    0 -0.84729341711E+02  0.38084714654E+02  0.32254965517E+02  0.12489551488E+03  0.77000000000E+02 0.  0.
   -5000001    1    1    2    0    0  0.84729341711E+02 -0.38084714654E+02  0.14522323384E+03  0.18880755939E+03  0.77000000000E+02 0.  0.
<mgrwt>
<rscale>  0 0.25867181E+03</rscale>
<asrwt>0</asrwt>
<pdfrwt beam="1">  1        2 0.35084377E-01 0.25867181E+03</pdfrwt>
<pdfrwt beam="2">  1       -2 0.97303481E-02 0.25867181E+03</pdfrwt>
<totfact> 0.10095875E+04</totfact>
</mgrwt>
</event>
<event>
 4    1  0.6782240E-004  0.3255410E+03  0.7818608E-02  0.1073127E+00
          2   -1    0    0  501    0  0.00000000000E+00  0.00000000000E+00  0.31119459348E+04  0.31119459348E+04  0.25500000000E-02 0.  1.
         -2   -1    0    0    0  501 -0.00000000000E+00 -0.00000000000E+00 -0.85137219040E+01  0.85137222859E+01  0.25500000000E-02 0. -1.
    5000001    1    1    2    0    0 -0.10744968553E+03  0.94968785794E+02  0.15599488435E+04  0.15684176419E+04  0.77000000000E+02 0.  0.
   -5000001    1    1    2    0    0  0.10744968553E+03 -0.94968785794E+02  0.15434833694E+04  0.15520420152E+04  0.77000000000E+02 0.  0.
<mgrwt>
<rscale>  0 0.32554104E+03</rscale>
<asrwt>0</asrwt>
<pdfrwt beam="1">  1        2 0.44456346E+00 0.32554104E+03</pdfrwt>
<pdfrwt beam="2">  1       -2 0.12162467E-02 0.32554104E+03</pdfrwt>
<totfact> 0.38643785E+03</totfact>
</mgrwt>
</event>
<event>
 4    1  0.6782240E-004  0.3169417E+03  0.7818608E-02  0.1077065E+00
         -2   -1    0    0    0  501 -0.00000000000E+00  0.00000000000E+00  0.20939466685E+02  0.20939466840E+02  0.25500000000E-02 0. -1.
          2   -1    0    0  501    0  0.00000000000E+00 -0.00000000000E+00 -0.11993150414E+04  0.11993150414E+04  0.25500000000E-02 0.  1.
    5000001    1    1    2    0    0 -0.10977663970E+03  0.80161223875E+02 -0.69158030083E+03  0.70900567341E+03  0.77000000000E+02 0.  0.
   -5000001    1    1    2    0    0  0.10977663970E+03 -0.80161223875E+02 -0.48679527392E+03  0.51124883486E+03  0.77000000000E+02 0.  0.
<mgrwt>
<rscale>  0 0.31694175E+03</rscale>
<asrwt>0</asrwt>
<pdfrwt beam="1">  1        2 0.17133068E+00 0.31694175E+03</pdfrwt>
<pdfrwt beam="2">  1       -2 0.29913531E-02 0.31694175E+03</pdfrwt>
<totfact> 0.95693010E+03</totfact>
</mgrwt>
</event>
<event>
 4    1  0.6782240E-004  0.2332517E+03  0.7818608E-02  0.1124372E+00
          2   -1    0    0  501    0  0.00000000000E+00  0.00000000000E+00  0.12452246880E+04  0.12452246880E+04  0.25500000000E-02 0.  1.
         -2   -1    0    0    0  501 -0.00000000000E+00 -0.00000000000E+00 -0.10923004025E+02  0.10923004322E+02  0.25500000000E-02 0. -1.
    5000001    1    1    2    0    0  0.36843016495E+02 -0.70967865329E+02  0.80972960797E+03  0.81730342212E+03  0.77000000000E+02 0.  0.
   -5000001    1    1    2    0    0 -0.36843016495E+02  0.70967865329E+02  0.42457207598E+03  0.43884427019E+03  0.77000000000E+02 0.  0.
<mgrwt>
<rscale>  0 0.23325175E+03</rscale>
<asrwt>0</asrwt>
<pdfrwt beam="1">  1        2 0.17788921E+00 0.23325175E+03</pdfrwt>
<pdfrwt beam="2">  1       -2 0.15604295E-02 0.23325175E+03</pdfrwt>
<totfact> 0.23338815E+04</totfact>
</mgrwt>
</event>
<event>
 4    1  0.6782240E-004  0.2187076E+03  0.7818608E-02  0.1134850E+00
          2   -1    0    0  501    0  0.00000000000E+00  0.00000000000E+00  0.16811560695E+03  0.16811560697E+03  0.25500000000E-02 0.  1.
         -2   -1    0    0    0  501 -0.00000000000E+00 -0.00000000000E+00 -0.71131140403E+02  0.71131140449E+02  0.25500000000E-02 0. -1.
    5000001    1    1    2    0    0  0.31207014462E+02 -0.68129948733E+02  0.26242839745E+02  0.11060404289E+03  0.77000000000E+02 0.  0.
   -5000001    1    1    2    0    0 -0.31207014462E+02  0.68129948733E+02  0.70741626806E+02  0.12864270453E+03  0.77000000000E+02 0.  0.
<mgrwt>
<rscale>  0 0.21870761E+03</rscale>
<asrwt>0</asrwt>
<pdfrwt beam="1">  1        2 0.24016516E-01 0.21870761E+03</pdfrwt>
<pdfrwt beam="2">  1       -2 0.10161591E-01 0.21870761E+03</pdfrwt>
<totfact> 0.14161594E+04</totfact>
</mgrwt>
</event>
<event>
 4    1  0.6782240E-004  0.2100849E+03  0.7818608E-02  0.1141499E+00
         -2   -1    0    0    0  501 -0.00000000000E+00  0.00000000000E+00  0.22410245210E+03  0.22410245211E+03  0.25500000000E-02 0. -1.
          2   -1    0    0  501    0  0.00000000000E+00 -0.00000000000E+00 -0.49236049923E+02  0.49236049989E+02  0.25500000000E-02 0.  1.
    5000001    1    1    2    0    0  0.45844392772E+02  0.51529884219E+02  0.11170053249E+03  0.15219410723E+03  0.77000000000E+02 0.  0.
   -5000001    1    1    2    0    0 -0.45844392772E+02 -0.51529884219E+02  0.63165869685E+02  0.12114439487E+03  0.77000000000E+02 0.  0.
<mgrwt>
<rscale>  0 0.21008493E+03</rscale>
<asrwt>0</asrwt>
<pdfrwt beam="1">  1        2 0.70337216E-02 0.21008493E+03</pdfrwt>
<pdfrwt beam="2">  1       -2 0.32014635E-01 0.21008493E+03</pdfrwt>
<totfact> 0.88661512E+03</totfact>
</mgrwt>
</event>
<event>
 4    1  0.6782240E-004  0.2291151E+03  0.7818608E-02  0.1127264E+00
          2   -1    0    0  501    0  0.00000000000E+00  0.00000000000E+00  0.63277473618E+03  0.63277473619E+03  0.25500000000E-02 0.  1.
         -2   -1    0    0    0  501 -0.00000000000E+00 -0.00000000000E+00 -0.20739503065E+02  0.20739503222E+02  0.25500000000E-02 0. -1.
    5000001    1    1    2    0    0 -0.63350423084E+02 -0.55179433379E+02  0.27270652533E+03  0.29556030676E+03  0.77000000000E+02 0.  0.
   -5000001    1    1    2    0    0  0.63350423084E+02  0.55179433379E+02  0.33932870779E+03  0.35795393265E+03  0.77000000000E+02 0.  0.
<mgrwt>
<rscale>  0 0.22911511E+03</rscale>
<asrwt>0</asrwt>
<pdfrwt beam="1">  1        2 0.90396387E-01 0.22911511E+03</pdfrwt>
<pdfrwt beam="2">  1       -2 0.29627863E-02 0.22911511E+03</pdfrwt>
<totfact> 0.21913426E+04</totfact>
</mgrwt>
</event>
<event>
 4    1  0.6782240E-004  0.3024472E+03  0.7818608E-02  0.1084024E+00
          2   -1    0    0  501    0  0.00000000000E+00  0.00000000000E+00  0.61125923320E+03  0.61125923321E+03  0.25500000000E-02 0.  1.
         -2   -1    0    0    0  501 -0.00000000000E+00 -0.00000000000E+00 -0.37412235610E+02  0.37412235697E+02  0.25500000000E-02 0. -1.
    5000001    1    1    2    0    0  0.10587140264E+03 -0.90811646253E+01  0.44811278440E+03  0.46693178194E+03  0.77000000000E+02 0.  0.
   -5000001    1    1    2    0    0 -0.10587140264E+03  0.90811646253E+01  0.12573421320E+03  0.18173968696E+03  0.77000000000E+02 0.  0.
<mgrwt>
<rscale>  0 0.30244718E+03</rscale>
<asrwt>0</asrwt>
<pdfrwt beam="1">  1        2 0.87322752E-01 0.30244718E+03</pdfrwt>
<pdfrwt beam="2">  1       -2 0.53446048E-02 0.30244718E+03</pdfrwt>
<totfact> 0.95150984E+03</totfact>
</mgrwt>
</event>
<event>
 4    1  0.6782240E-004  0.3185831E+03  0.7818608E-02  0.1076303E+00
          2   -1    0    0  501    0  0.00000000000E+00  0.00000000000E+00  0.53455682838E+02  0.53455682898E+02  0.25500000000E-02 0.  1.
         -2   -1    0    0    0  501 -0.00000000000E+00 -0.00000000000E+00 -0.47466978058E+03  0.47466978059E+03  0.25500000000E-02 0. -1.
    5000001    1    1    2    0    0  0.11144543265E+01 -0.90829568514E+02 -0.38599437160E+03  0.40394542630E+03  0.77000000000E+02 0.  0.
   -5000001    1    1    2    0    0 -0.11144543265E+01  0.90829568514E+02 -0.35219726142E+02  0.12418003718E+03  0.77000000000E+02 0.  0.
<mgrwt>
<rscale>  0 0.31858310E+03</rscale>
<asrwt>0</asrwt>
<pdfrwt beam="1">  1        2 0.76365264E-02 0.31858310E+03</pdfrwt>
<pdfrwt beam="2">  1       -2 0.67809966E-01 0.31858310E+03</pdfrwt>
<totfact> 0.18497944E+03</totfact>
</mgrwt>
</event>
<event>
 4    1  0.6782240E-004  0.2953326E+03  0.7818608E-02  0.1087597E+00
         -2   -1    0    0    0  501 -0.00000000000E+00  0.00000000000E+00  0.29619327960E+03  0.29619327961E+03  0.25500000000E-02 0. -1.
          2   -1    0    0  501    0  0.00000000000E+00 -0.00000000000E+00 -0.73618618816E+02  0.73618618860E+02  0.25500000000E-02 0.  1.
    5000001    1    1    2    0    0  0.10224862318E+03  0.73556575026E+02  0.11543838193E+03  0.18740429742E+03  0.77000000000E+02 0.  0.
   -5000001    1    1    2    0    0 -0.10224862318E+03 -0.73556575026E+02  0.10713627886E+03  0.18240760105E+03  0.77000000000E+02 0.  0.
<mgrwt>
<rscale>  0 0.29533263E+03</rscale>
<asrwt>0</asrwt>
<pdfrwt beam="1">  1        2 0.10516946E-01 0.29533263E+03</pdfrwt>
<pdfrwt beam="2">  1       -2 0.42313325E-01 0.29533263E+03</pdfrwt>
<totfact> 0.32113633E+03</totfact>
</mgrwt>
</event>
<event>
 4    1  0.6782240E-004  0.3081582E+03  0.7818608E-02  0.1081232E+00
         -2   -1    0    0    0  501 -0.00000000000E+00  0.00000000000E+00  0.23544529471E+02  0.23544529609E+02  0.25500000000E-02 0. -1.
          2   -1    0    0  501    0  0.00000000000E+00 -0.00000000000E+00 -0.10083176019E+04  0.10083176019E+04  0.25500000000E-02 0.  1.
    5000001    1    1    2    0    0  0.11321228711E+03 -0.61557171380E+02 -0.60862548095E+03  0.62686544279E+03  0.77000000000E+02 0.  0.
   -5000001    1    1    2    0    0 -0.11321228711E+03  0.61557171380E+02 -0.37614759144E+03  0.40499668869E+03  0.77000000000E+02 0.  0.
<mgrwt>
<rscale>  0 0.30815816E+03</rscale>
<asrwt>0</asrwt>
<pdfrwt beam="1">  1        2 0.14404534E+00 0.30815816E+03</pdfrwt>
<pdfrwt beam="2">  1       -2 0.33635049E-02 0.30815816E+03</pdfrwt>
<totfact> 0.10292852E+04</totfact>
</mgrwt>
</event>
<event>
 4    1  0.6782240E-004  0.2827035E+03  0.7818608E-02  0.1094221E+00
          2   -1    0    0  501    0  0.00000000000E+00  0.00000000000E+00  0.15233114493E+03  0.15233114495E+03  0.25500000000E-02 0.  1.
         -2   -1    0    0    0  501 -0.00000000000E+00 -0.00000000000E+00 -0.13116369344E+03  0.13116369346E+03  0.25500000000E-02 0. -1.
    5000001    1    1    2    0    0  0.60999377880E+00 -0.10769412549E+03 -0.39081861873E+02  0.13803908390E+03  0.77000000000E+02 0.  0.
   -5000001    1    1    2    0    0 -0.60999377880E+00  0.10769412549E+03  0.60249313366E+02  0.14545575451E+03  0.77000000000E+02 0.  0.
<mgrwt>
<rscale>  0 0.28270349E+03</rscale>
<asrwt>0</asrwt>
<pdfrwt beam="1">  1        2 0.21761592E-01 0.28270349E+03</pdfrwt>
<pdfrwt beam="2">  1       -2 0.18737671E-01 0.28270349E+03</pdfrwt>
<totfact> 0.58872082E+03</totfact>
</mgrwt>
</event>
<event>
 4    1  0.6782240E-004  0.2119538E+03  0.7818608E-02  0.1140028E+00
         -2   -1    0    0    0  501 -0.00000000000E+00  0.00000000000E+00  0.11273638416E+02  0.11273638705E+02  0.25500000000E-02 0. -1.
          2   -1    0    0  501    0  0.00000000000E+00 -0.00000000000E+00 -0.99622668870E+03  0.99622668870E+03  0.25500000000E-02 0.  1.
    5000001    1    1    2    0    0  0.70239542025E+02 -0.12408981945E+02 -0.42285532314E+03  0.43568704411E+03  0.77000000000E+02 0.  0.
   -5000001    1    1    2    0    0 -0.70239542025E+02  0.12408981945E+02 -0.56209772714E+03  0.57181328330E+03  0.77000000000E+02 0.  0.
<mgrwt>
<rscale>  0 0.21195376E+03</rscale>
<asrwt>0</asrwt>
<pdfrwt beam="1">  1        2 0.14231804E+00 0.21195376E+03</pdfrwt>
<pdfrwt beam="2">  1       -2 0.16105204E-02 0.21195376E+03</pdfrwt>
<totfact> 0.30487110E+04</totfact>
</mgrwt>
</event>
<event>
 4    1  0.6782240E-004  0.1629834E+03  0.7818608E-02  0.1185369E+00
         -2   -1    0    0    0  501 -0.00000000000E+00  0.00000000000E+00  0.80099949796E+01  0.80099953855E+01  0.25500000000E-02 0. -1.
          2   -1    0    0  501    0  0.00000000000E+00 -0.00000000000E+00 -0.82907657098E+03  0.82907657098E+03  0.25500000000E-02 0.  1.
    5000001    1    1    2    0    0 -0.13864453871E+02  0.21724189328E+02 -0.44601865506E+03  0.45334953859E+03  0.77000000000E+02 0.  0.
   -5000001    1    1    2    0    0  0.13864453871E+02 -0.21724189328E+02 -0.37504792094E+03  0.38373702777E+03  0.77000000000E+02 0.  0.
<mgrwt>
<rscale>  0 0.16298343E+03</rscale>
<asrwt>0</asrwt>
<pdfrwt beam="1">  1        2 0.11843946E+00 0.16298343E+03</pdfrwt>
<pdfrwt beam="2">  1       -2 0.11442856E-02 0.16298343E+03</pdfrwt>
<totfact> 0.61974671E+04</totfact>
</mgrwt>
</event>
<event>
 4    1  0.6782240E-004  0.2858890E+03  0.7818608E-02  0.1092515E+00
         -2   -1    0    0    0  501 -0.00000000000E+00  0.00000000000E+00  0.61255977079E+02  0.61255977132E+02  0.25500000000E-02 0. -1.
          2   -1    0    0  501    0  0.00000000000E+00 -0.00000000000E+00 -0.33356951142E+03  0.33356951143E+03  0.25500000000E-02 0.  1.
    5000001    1    1    2    0    0  0.62971181395E+02 -0.16171924720E+02  0.38489333176E+01  0.10084996343E+03  0.77000000000E+02 0.  0.
   -5000001    1    1    2    0    0 -0.62971181395E+02  0.16171924720E+02 -0.27616246765E+03  0.29397552513E+03  0.77000000000E+02 0.  0.
<mgrwt>
<rscale>  0 0.28588897E+03</rscale>
<asrwt>0</asrwt>
<pdfrwt beam="1">  1        2 0.47652786E-01 0.28588897E+03</pdfrwt>
<pdfrwt beam="2">  1       -2 0.87508540E-02 0.28588897E+03</pdfrwt>
<totfact> 0.86177419E+03</totfact>
</mgrwt>
</event>
<event>
 4    1  0.6782240E-004  0.2684334E+03  0.7818608E-02  0.1102180E+00
         -2   -1    0    0    0  501 -0.00000000000E+00  0.00000000000E+00  0.17169298439E+04  0.17169298439E+04  0.25500000000E-02 0. -1.
          2   -1    0    0  501    0  0.00000000000E+00 -0.00000000000E+00 -0.10492056418E+02  0.10492056728E+02  0.25500000000E-02 0.  1.
    5000001    1    1    2    0    0 -0.95218218851E+02 -0.32866909920E+02  0.11365416989E+04  0.11435920497E+04  0.77000000000E+02 0.  0.
   -5000001    1    1    2    0    0  0.95218218851E+02  0.32866909920E+02  0.56989608863E+03  0.58382985090E+03  0.77000000000E+02 0.  0.
<mgrwt>
<rscale>  0 0.26843342E+03</rscale>
<asrwt>0</asrwt>
<pdfrwt beam="1">  1        2 0.14988631E-02 0.26843342E+03</pdfrwt>
<pdfrwt beam="2">  1       -2 0.24527603E+00 0.26843342E+03</pdfrwt>
<totfact> 0.62581988E+02</totfact>
</mgrwt>
</event>
<event>
 4    1  0.6782240E-004  0.1731008E+03  0.7818608E-02  0.1174652E+00
         -2   -1    0    0    0  501 -0.00000000000E+00  0.00000000000E+00  0.62351684314E+02  0.62351684366E+02  0.25500000000E-02 0. -1.
          2   -1    0    0  501    0  0.00000000000E+00 -0.00000000000E+00 -0.12014070079E+03  0.12014070082E+03  0.25500000000E-02 0.  1.
    5000001    1    1    2    0    0 -0.11980262514E+02  0.11439786948E+02 -0.66724184686E+02  0.10322554062E+03  0.77000000000E+02 0.  0.
   -5000001    1    1    2    0    0  0.11980262514E+02 -0.11439786948E+02  0.89351682102E+01  0.79266844558E+02  0.77000000000E+02 0.  0.
<mgrwt>
<rscale>  0 0.17310084E+03</rscale>
<asrwt>0</asrwt>
<pdfrwt beam="1">  1        2 0.17162957E-01 0.17310084E+03</pdfrwt>
<pdfrwt beam="2">  1       -2 0.89073836E-02 0.17310084E+03</pdfrwt>
<totfact> 0.25070863E+04</totfact>
</mgrwt>
</event>
<event>
 4    1  0.6782240E-004  0.2126173E+03  0.7818608E-02  0.1139510E+00
         -2   -1    0    0    0  501 -0.00000000000E+00  0.00000000000E+00  0.28381445807E+02  0.28381445922E+02  0.25500000000E-02 0. -1.
          2   -1    0    0  501    0  0.00000000000E+00 -0.00000000000E+00 -0.39820124588E+03  0.39820124589E+03  0.25500000000E-02 0.  1.
    5000001    1    1    2    0    0  0.29139397999E+02 -0.67223817438E+02 -0.18071048015E+03  0.20965071854E+03  0.77000000000E+02 0.  0.
   -5000001    1    1    2    0    0 -0.29139397999E+02  0.67223817438E+02 -0.18910931992E+03  0.21693197327E+03  0.77000000000E+02 0.  0.
<mgrwt>
<rscale>  0 0.21261728E+03</rscale>
<asrwt>0</asrwt>
<pdfrwt beam="1">  1        2 0.56885889E-01 0.21261728E+03</pdfrwt>
<pdfrwt beam="2">  1       -2 0.40544925E-02 0.21261728E+03</pdfrwt>
<totfact> 0.22785804E+04</totfact>
</mgrwt>
</event>
<event>
 4    1  0.6782240E-004  0.4294308E+03  0.7818608E-02  0.1034040E+00
          2   -1    0    0  501    0  0.00000000000E+00  0.00000000000E+00  0.41529526706E+03  0.41529526707E+03  0.25500000000E-02 0.  1.
         -2   -1    0    0    0  501 -0.00000000000E+00 -0.00000000000E+00 -0.11101189114E+03  0.11101189117E+03  0.25500000000E-02 0. -1.
    5000001    1    1    2    0    0  0.71677021732E+02  0.18355321876E+03  0.19707821850E+03  0.28913353969E+03  0.77000000000E+02 0.  0.
   -5000001    1    1    2    0    0 -0.71677021732E+02 -0.18355321876E+03  0.10720515741E+03  0.23717361855E+03  0.77000000000E+02 0.  0.
<mgrwt>
<rscale>  0 0.42943085E+03</rscale>
<asrwt>0</asrwt>
<pdfrwt beam="1">  1        2 0.59327895E-01 0.42943085E+03</pdfrwt>
<pdfrwt beam="2">  1       -2 0.15858842E-01 0.42943085E+03</pdfrwt>
<totfact> 0.26121266E+03</totfact>
</mgrwt>
</event>
<event>
 4    1  0.6782240E-004  0.1977378E+03  0.7818608E-02  0.1151662E+00
          2   -1    0    0  501    0  0.00000000000E+00  0.00000000000E+00  0.31924422389E+03  0.31924422390E+03  0.25500000000E-02 0.  1.
         -2   -1    0    0    0  501 -0.00000000000E+00 -0.00000000000E+00 -0.30619384046E+02  0.30619384152E+02  0.25500000000E-02 0. -1.
    5000001    1    1    2    0    0 -0.12302870181E+02 -0.48531997290E+02  0.79560083924E+02  0.12151346563E+03  0.77000000000E+02 0.  0.
   -5000001    1    1    2    0    0  0.12302870181E+02  0.48531997290E+02  0.20906475592E+03  0.22835014242E+03  0.77000000000E+02 0.  0.
<mgrwt>
<rscale>  0 0.19773782E+03</rscale>
<asrwt>0</asrwt>
<pdfrwt beam="1">  1        2 0.45606313E-01 0.19773782E+03</pdfrwt>
<pdfrwt beam="2">  1       -2 0.43741981E-02 0.19773782E+03</pdfrwt>
<totfact> 0.25625631E+04</totfact>
</mgrwt>
</event>
<event>
 4    1  0.6782240E-004  0.2612407E+03  0.7818608E-02  0.1106400E+00
         -2   -1    0    0    0  501 -0.00000000000E+00  0.00000000000E+00  0.74300319556E+01  0.74300323932E+01  0.25500000000E-02 0. -1.
          2   -1    0    0  501    0  0.00000000000E+00 -0.00000000000E+00 -0.22963128753E+04  0.22963128753E+04  0.25500000000E-02 0.  1.
    5000001    1    1    2    0    0 -0.18126676625E+02  0.94103668441E+02 -0.15337147781E+04  0.15386338413E+04  0.77000000000E+02 0.  0.
   -5000001    1    1    2    0    0  0.18126676625E+02 -0.94103668441E+02 -0.75516806523E+03  0.76510906645E+03  0.77000000000E+02 0.  0.
<mgrwt>
<rscale>  0 0.26124072E+03</rscale>
<asrwt>0</asrwt>
<pdfrwt beam="1">  1        2 0.32804424E+00 0.26124072E+03</pdfrwt>
<pdfrwt beam="2">  1       -2 0.10614346E-02 0.26124072E+03</pdfrwt>
<totfact> 0.12354654E+04</totfact>
</mgrwt>
</event>
<event>
 4    1  0.6782240E-004  0.4082346E+03  0.7818608E-02  0.1040965E+00
          2   -1    0    0  501    0  0.00000000000E+00  0.00000000000E+00  0.20555052215E+03  0.20555052217E+03  0.25500000000E-02 0.  1.
         -2   -1    0    0    0  501 -0.00000000000E+00 -0.00000000000E+00 -0.20269407137E+03  0.20269407138E+03  0.25500000000E-02 0. -1.
    5000001    1    1    2    0    0  0.14886451213E+03  0.67465266252E+02  0.96418271358E+02  0.20478693360E+03  0.77000000000E+02 0.  0.
   -5000001    1    1    2    0    0 -0.14886451213E+03 -0.67465266252E+02 -0.93561820571E+02  0.20345765995E+03  0.77000000000E+02 0.  0.
<mgrwt>
<rscale>  0 0.40823460E+03</rscale>
<asrwt>0</asrwt>
<pdfrwt beam="1">  1        2 0.29364360E-01 0.40823460E+03</pdfrwt>
<pdfrwt beam="2">  1       -2 0.28956296E-01 0.40823460E+03</pdfrwt>
<totfact> 0.19748903E+03</totfact>
</mgrwt>
</event>
<event>
 4    1  0.6782240E-004  0.3263337E+03  0.7818608E-02  0.1072771E+00
          2   -1    0    0  501    0  0.00000000000E+00  0.00000000000E+00  0.62181316777E+03  0.62181316777E+03  0.25500000000E-02 0.  1.
         -2   -1    0    0    0  501 -0.00000000000E+00 -0.00000000000E+00 -0.42815785567E+02  0.42815785643E+02  0.25500000000E-02 0. -1.
    5000001    1    1    2    0    0 -0.56047955321E+02  0.13015986532E+03  0.33986031830E+03  0.37618745299E+03  0.77000000000E+02 0.  0.
   -5000001    1    1    2    0    0  0.56047955321E+02 -0.13015986532E+03  0.23913706390E+03  0.28844150042E+03  0.77000000000E+02 0.  0.
<mgrwt>
<rscale>  0 0.32633369E+03</rscale>
<asrwt>0</asrwt>
<pdfrwt beam="1">  1        2 0.88830451E-01 0.32633369E+03</pdfrwt>
<pdfrwt beam="2">  1       -2 0.61165409E-02 0.32633369E+03</pdfrwt>
<totfact> 0.76022326E+03</totfact>
</mgrwt>
</event>
<event>
 4    1  0.6782240E-004  0.3196189E+03  0.7818608E-02  0.1075825E+00
          2   -1    0    0  501    0  0.00000000000E+00  0.00000000000E+00  0.11511668075E+04  0.11511668075E+04  0.25500000000E-02 0.  1.
         -2   -1    0    0    0  501 -0.00000000000E+00 -0.00000000000E+00 -0.22185363144E+02  0.22185363290E+02  0.25500000000E-02 0. -1.
    5000001    1    1    2    0    0 -0.75189638166E+02 -0.94138211107E+02  0.30246150441E+03  0.33455559497E+03  0.77000000000E+02 0.  0.
   -5000001    1    1    2    0    0  0.75189638166E+02  0.94138211107E+02  0.82651993992E+03  0.83879657580E+03  0.77000000000E+02 0.  0.
<mgrwt>
<rscale>  0 0.31961886E+03</rscale>
<asrwt>0</asrwt>
<pdfrwt beam="1">  1        2 0.16445246E+00 0.31961886E+03</pdfrwt>
<pdfrwt beam="2">  1       -2 0.31693366E-02 0.31961886E+03</pdfrwt>
<totfact> 0.93312989E+03</totfact>
</mgrwt>
</event>
<event>
 4    1  0.6782240E-004  0.4356261E+03  0.7818608E-02  0.1032097E+00
          2   -1    0    0  501    0  0.00000000000E+00  0.00000000000E+00  0.12762638182E+03  0.12762638185E+03  0.25500000000E-02 0.  1.
         -2   -1    0    0    0  501 -0.00000000000E+00 -0.00000000000E+00 -0.37172968760E+03  0.37172968761E+03  0.25500000000E-02 0. -1.
    5000001    1    1    2    0    0 -0.76393578245E+02 -0.18238478053E+03 -0.65739170973E+02  0.22215045705E+03  0.77000000000E+02 0.  0.
   -5000001    1    1    2    0    0  0.76393578245E+02  0.18238478053E+03 -0.17836413481E+03  0.27720561241E+03  0.77000000000E+02 0.  0.
<mgrwt>
<rscale>  0 0.43562606E+03</rscale>
<asrwt>0</asrwt>
<pdfrwt beam="1">  1        2 0.18232340E-01 0.43562606E+03</pdfrwt>
<pdfrwt beam="2">  1       -2 0.53104241E-01 0.43562606E+03</pdfrwt>
<totfact> 0.10604351E+03</totfact>
</mgrwt>
</event>
<event>
 4    1  0.6782240E-004  0.2006311E+03  0.7818608E-02  0.1149208E+00
          2   -1    0    0  501    0  0.00000000000E+00  0.00000000000E+00  0.25792515222E+04  0.25792515222E+04  0.25500000000E-02 0.  1.
         -2   -1    0    0    0  501 -0.00000000000E+00 -0.00000000000E+00 -0.39016009261E+01  0.39016017594E+01  0.25500000000E-02 0. -1.
    5000001    1    1    2    0    0  0.61416125384E+02  0.17216167433E+02  0.13921734368E+04  0.13957593686E+04  0.77000000000E+02 0.  0.
   -5000001    1    1    2    0    0 -0.61416125384E+02 -0.17216167433E+02  0.11831764845E+04  0.11873937554E+04  0.77000000000E+02 0.  0.
<mgrwt>
<rscale>  0 0.20063112E+03</rscale>
<asrwt>0</asrwt>
<pdfrwt beam="1">  1        2 0.36846663E+00 0.20063112E+03</pdfrwt>
<pdfrwt beam="2">  1       -2 0.55736841E-03 0.20063112E+03</pdfrwt>
<totfact> 0.22514399E+04</totfact>
</mgrwt>
</event>
<event>
 4    1  0.6782240E-004  0.2707900E+03  0.7818608E-02  0.1100828E+00
         -2   -1    0    0    0  501 -0.00000000000E+00  0.00000000000E+00  0.29357381429E+02  0.29357381540E+02  0.25500000000E-02 0. -1.
          2   -1    0    0  501    0  0.00000000000E+00 -0.00000000000E+00 -0.62443615250E+03  0.62443615251E+03  0.25500000000E-02 0.  1.
    5000001    1    1    2    0    0 -0.95194414964E+02 -0.34210739172E+02 -0.41002157051E+03  0.42927734577E+03  0.77000000000E+02 0.  0.
   -5000001    1    1    2    0    0  0.95194414964E+02  0.34210739172E+02 -0.18505720057E+03  0.22451618827E+03  0.77000000000E+02 0.  0.
<mgrwt>
<rscale>  0 0.27079003E+03</rscale>
<asrwt>0</asrwt>
<pdfrwt beam="1">  1        2 0.89205157E-01 0.27079003E+03</pdfrwt>
<pdfrwt beam="2">  1       -2 0.41939120E-02 0.27079003E+03</pdfrwt>
<totfact> 0.13355102E+04</totfact>
</mgrwt>
</event>
<event>
 4    1  0.6782240E-004  0.2154723E+03  0.7818608E-02  0.1137304E+00
         -2   -1    0    0    0  501 -0.00000000000E+00  0.00000000000E+00  0.85935520525E+02  0.85935520563E+02  0.25500000000E-02 0. -1.
          2   -1    0    0  501    0  0.00000000000E+00 -0.00000000000E+00 -0.13506731045E+03  0.13506731047E+03  0.25500000000E-02 0.  1.
    5000001    1    1    2    0    0 -0.63037886955E+02  0.26690801396E+02  0.77370057662E+01  0.10332006257E+03  0.77000000000E+02 0.  0.
   -5000001    1    1    2    0    0  0.63037886955E+02 -0.26690801396E+02 -0.56868795690E+02  0.11768276847E+03  0.77000000000E+02 0.  0.
<mgrwt>
<rscale>  0 0.21547232E+03</rscale>
<asrwt>0</asrwt>
<pdfrwt beam="1">  1        2 0.19295330E-01 0.21547232E+03</pdfrwt>
<pdfrwt beam="2">  1       -2 0.12276503E-01 0.21547232E+03</pdfrwt>
<totfact> 0.13394600E+04</totfact>
</mgrwt>
</event>
<event>
 4    1  0.6782240E-004  0.2440812E+03  0.7818608E-02  0.1117104E+00
          2   -1    0    0  501    0  0.00000000000E+00  0.00000000000E+00  0.11352367420E+04  0.11352367420E+04  0.25500000000E-02 0.  1.
         -2   -1    0    0    0  501 -0.00000000000E+00 -0.00000000000E+00 -0.13119652587E+02  0.13119652835E+02  0.25500000000E-02 0. -1.
    5000001    1    1    2    0    0  0.28512158349E+02 -0.50288778667E+02  0.20826012185E+03  0.22944102246E+03  0.77000000000E+02 0.  0.
   -5000001    1    1    2    0    0 -0.28512158349E+02  0.50288778667E+02  0.91385696761E+03  0.91891537242E+03  0.77000000000E+02 0.  0.
<mgrwt>
<rscale>  0 0.24408123E+03</rscale>
<asrwt>0</asrwt>
<pdfrwt beam="1">  1        2 0.16217668E+00 0.24408123E+03</pdfrwt>
<pdfrwt beam="2">  1       -2 0.18742360E-02 0.24408123E+03</pdfrwt>
<totfact> 0.20528341E+04</totfact>
</mgrwt>
</event>
<event>
 4    1  0.6782240E-004  0.2147673E+03  0.7818608E-02  0.1137845E+00
          2   -1    0    0  501    0  0.00000000000E+00  0.00000000000E+00  0.87062468101E+03  0.87062468101E+03  0.25500000000E-02 0.  1.
         -2   -1    0    0    0  501 -0.00000000000E+00 -0.00000000000E+00 -0.13244799152E+02  0.13244799397E+02  0.25500000000E-02 0. -1.
    5000001    1    1    2    0    0 -0.88089640232E+00 -0.74740542498E+02  0.44480058023E+03  0.45756254309E+03  0.77000000000E+02 0.  0.
   -5000001    1    1    2    0    0  0.88089640232E+00  0.74740542498E+02  0.41257930163E+03  0.42630693732E+03  0.77000000000E+02 0.  0.
<mgrwt>
<rscale>  0 0.21476731E+03</rscale>
<asrwt>0</asrwt>
<pdfrwt beam="1">  1        2 0.12437499E+00 0.21476731E+03</pdfrwt>
<pdfrwt beam="2">  1       -2 0.18921136E-02 0.21476731E+03</pdfrwt>
<totfact> 0.28759455E+04</totfact>
</mgrwt>
</event>
<event>
 4    1  0.6782240E-004  0.1646388E+03  0.7818608E-02  0.1183557E+00
          2   -1    0    0  501    0  0.00000000000E+00  0.00000000000E+00  0.22380580285E+03  0.22380580286E+03  0.25500000000E-02 0.  1.
         -2   -1    0    0    0  501 -0.00000000000E+00 -0.00000000000E+00 -0.30278402231E+02  0.30278402338E+02  0.25500000000E-02 0. -1.
    5000001    1    1    2    0    0 -0.18670822666E+02 -0.21937221217E+02  0.10324564287E+03  0.13197918042E+03  0.77000000000E+02 0.  0.
   -5000001    1    1    2    0    0  0.18670822666E+02  0.21937221217E+02  0.90281757745E+02  0.12210502477E+03  0.77000000000E+02 0.  0.
<mgrwt>
<rscale>  0 0.16463878E+03</rscale>
<asrwt>0</asrwt>
<pdfrwt beam="1">  1        2 0.31972259E-01 0.16463878E+03</pdfrwt>
<pdfrwt beam="2">  1       -2 0.43254859E-02 0.16463878E+03</pdfrwt>
<totfact> 0.37525525E+04</totfact>
</mgrwt>
</event>
<event>
 4    1  0.6782240E-004  0.2194433E+03  0.7818608E-02  0.1134299E+00
          2   -1    0    0  501    0  0.00000000000E+00  0.00000000000E+00  0.79951925805E+03  0.79951925805E+03  0.25500000000E-02 0.  1.
         -2   -1    0    0    0  501 -0.00000000000E+00 -0.00000000000E+00 -0.15057605090E+02  0.15057605306E+02  0.25500000000E-02 0. -1.
    5000001    1    1    2    0    0  0.64742398610E+02  0.43271507382E+02  0.41736415524E+03  0.43149257190E+03  0.77000000000E+02 0.  0.
   -5000001    1    1    2    0    0 -0.64742398610E+02 -0.43271507382E+02  0.36709749772E+03  0.38308429146E+03  0.77000000000E+02 0.  0.
<mgrwt>
<rscale>  0 0.21944334E+03</rscale>
<asrwt>0</asrwt>
<pdfrwt beam="1">  1        2 0.11421709E+00 0.21944334E+03</pdfrwt>
<pdfrwt beam="2">  1       -2 0.21510854E-02 0.21944334E+03</pdfrwt>
<totfact> 0.26546111E+04</totfact>
</mgrwt>
</event>
<event>
 4    1  0.6782240E-004  0.4300381E+03  0.7818608E-02  0.1033848E+00
         -2   -1    0    0    0  501 -0.00000000000E+00  0.00000000000E+00  0.68272470745E+02  0.68272470793E+02  0.25500000000E-02 0. -1.
          2   -1    0    0  501    0  0.00000000000E+00 -0.00000000000E+00 -0.67718642511E+03  0.67718642512E+03  0.25500000000E-02 0.  1.
    5000001    1    1    2    0    0 -0.22689325188E+02 -0.19946932363E+03 -0.30242513674E+03  0.37106977764E+03  0.77000000000E+02 0.  0.
   -5000001    1    1    2    0    0  0.22689325188E+02  0.19946932363E+03 -0.30648881762E+03  0.37438911827E+03  0.77000000000E+02 0.  0.
<mgrwt>
<rscale>  0 0.43003809E+03</rscale>
<asrwt>0</asrwt>
<pdfrwt beam="1">  1        2 0.96740914E-01 0.43003809E+03</pdfrwt>
<pdfrwt beam="2">  1       -2 0.97532105E-02 0.43003809E+03</pdfrwt>
<totfact> 0.33204021E+03</totfact>
</mgrwt>
</event>
<event>
 4    1  0.6782240E-004  0.1929536E+03  0.7818608E-02  0.1155824E+00
         -2   -1    0    0    0  501 -0.00000000000E+00  0.00000000000E+00  0.44899727892E+02  0.44899727964E+02  0.25500000000E-02 0. -1.
          2   -1    0    0  501    0  0.00000000000E+00 -0.00000000000E+00 -0.20730137701E+03  0.20730137702E+03  0.25500000000E-02 0.  1.
    5000001    1    1    2    0    0  0.33847950453E+02  0.44573683990E+02 -0.10171278553E+03  0.13930896524E+03  0.77000000000E+02 0.  0.
   -5000001    1    1    2    0    0 -0.33847950453E+02 -0.44573683990E+02 -0.60688863580E+02  0.11289213975E+03  0.77000000000E+02 0.  0.
<mgrwt>
<rscale>  0 0.19295363E+03</rscale>
<asrwt>0</asrwt>
<pdfrwt beam="1">  1        2 0.29614482E-01 0.19295363E+03</pdfrwt>
<pdfrwt beam="2">  1       -2 0.64142470E-02 0.19295363E+03</pdfrwt>
<totfact> 0.22794110E+04</totfact>
</mgrwt>
</event>
<event>
 4    1  0.6782240E-004  0.2415666E+03  0.7818608E-02  0.1118754E+00
          2   -1    0    0  501    0  0.00000000000E+00  0.00000000000E+00  0.31226123444E+04  0.31226123444E+04  0.25500000000E-02 0.  1.
         -2   -1    0    0    0  501 -0.00000000000E+00 -0.00000000000E+00 -0.46719220288E+01  0.46719227247E+01  0.25500000000E-02 0. -1.
    5000001    1    1    2    0    0 -0.76631584267E+02 -0.50217881405E+02  0.13480811204E+04  0.13533831470E+04  0.77000000000E+02 0.  0.
   -5000001    1    1    2    0    0  0.76631584267E+02  0.50217881405E+02  0.17698593019E+04  0.17739011201E+04  0.77000000000E+02 0.  0.
<mgrwt>
<rscale>  0 0.24156657E+03</rscale>
<asrwt>0</asrwt>
<pdfrwt beam="1">  1        2 0.44608483E+00 0.24156657E+03</pdfrwt>
<pdfrwt beam="2">  1       -2 0.66742145E-03 0.24156657E+03</pdfrwt>
<totfact> 0.91440555E+03</totfact>
</mgrwt>
</event>
<event>
 4    1  0.6782240E-004  0.2745926E+03  0.7818608E-02  0.1098680E+00
         -2   -1    0    0    0  501 -0.00000000000E+00  0.00000000000E+00  0.11512985297E+03  0.11512985300E+03  0.25500000000E-02 0. -1.
          2   -1    0    0  501    0  0.00000000000E+00 -0.00000000000E+00 -0.16373054701E+03  0.16373054703E+03  0.25500000000E-02 0.  1.
    5000001    1    1    2    0    0 -0.10164346813E+03  0.13123550025E+02  0.25633483163E+02  0.13072757030E+03  0.77000000000E+02 0.  0.
   -5000001    1    1    2    0    0  0.10164346813E+03 -0.13123550025E+02 -0.74234177201E+02  0.14813282973E+03  0.77000000000E+02 0.  0.
<mgrwt>
<rscale>  0 0.27459260E+03</rscale>
<asrwt>0</asrwt>
<pdfrwt beam="1">  1        2 0.23390078E-01 0.27459260E+03</pdfrwt>
<pdfrwt beam="2">  1       -2 0.16447122E-01 0.27459260E+03</pdfrwt>
<totfact> 0.67496216E+03</totfact>
</mgrwt>
</event>
<event>
 4    1  0.6782240E-004  0.3148574E+03  0.7818608E-02  0.1078041E+00
         -2   -1    0    0    0  501 -0.00000000000E+00  0.00000000000E+00  0.11821627702E+02  0.11821627978E+02  0.25500000000E-02 0. -1.
          2   -1    0    0  501    0  0.00000000000E+00 -0.00000000000E+00 -0.20964791389E+04  0.20964791389E+04  0.25500000000E-02 0.  1.
    5000001    1    1    2    0    0 -0.67742541062E+02  0.11942115420E+03 -0.10283916119E+04  0.10403695360E+04  0.77000000000E+02 0.  0.
   -5000001    1    1    2    0    0  0.67742541062E+02 -0.11942115420E+03 -0.10562658993E+04  0.10679312309E+04  0.77000000000E+02 0.  0.
<mgrwt>
<rscale>  0 0.31485740E+03</rscale>
<asrwt>0</asrwt>
<pdfrwt beam="1">  1        2 0.29949678E+00 0.31485740E+03</pdfrwt>
<pdfrwt beam="2">  1       -2 0.16888053E-02 0.31485740E+03</pdfrwt>
<totfact> 0.78695023E+03</totfact>
</mgrwt>
</event>
<event>
 4    1  0.6782240E-004  0.3918608E+03  0.7818608E-02  0.1046635E+00
          2   -1    0    0  501    0  0.00000000000E+00  0.00000000000E+00  0.83904478244E+02  0.83904478283E+02  0.25500000000E-02 0.  1.
         -2   -1    0    0    0  501 -0.00000000000E+00 -0.00000000000E+00 -0.45752877050E+03  0.45752877051E+03  0.25500000000E-02 0. -1.
    5000001    1    1    2    0    0  0.81395552703E+02 -0.97290935661E+02 -0.36358825512E+03  0.39270368145E+03  0.77000000000E+02 0.  0.
   -5000001    1    1    2    0    0 -0.81395552703E+02  0.97290935661E+02 -0.10036037141E+02  0.14872956735E+03  0.77000000000E+02 0.  0.
<mgrwt>
<rscale>  0 0.39186075E+03</rscale>
<asrwt>0</asrwt>
<pdfrwt beam="1">  1        2 0.11986354E-01 0.39186075E+03</pdfrwt>
<pdfrwt beam="2">  1       -2 0.65361252E-01 0.39186075E+03</pdfrwt>
<totfact> 0.11387449E+03</totfact>
</mgrwt>
</event>
<event>
 4    1  0.6782240E-004  0.3341272E+03  0.7818608E-02  0.1069325E+00
          2   -1    0    0  501    0  0.00000000000E+00  0.00000000000E+00  0.16001481893E+04  0.16001481893E+04  0.25500000000E-02 0.  1.
         -2   -1    0    0    0  501 -0.00000000000E+00 -0.00000000000E+00 -0.17442286286E+02  0.17442286472E+02  0.25500000000E-02 0. -1.
    5000001    1    1    2    0    0 -0.96965523235E+02  0.10710908282E+03  0.63030799228E+03  0.65122333608E+03  0.77000000000E+02 0.  0.
   -5000001    1    1    2    0    0  0.96965523235E+02 -0.10710908282E+03  0.95239791070E+03  0.96636713966E+03  0.77000000000E+02 0.  0.
<mgrwt>
<rscale>  0 0.33412718E+03</rscale>
<asrwt>0</asrwt>
<pdfrwt beam="1">  1        2 0.22859259E+00 0.33412718E+03</pdfrwt>
<pdfrwt beam="2">  1       -2 0.24917553E-02 0.33412718E+03</pdfrwt>
<totfact> 0.77832395E+03</totfact>
</mgrwt>
</event>
<event>
 4    1  0.6782240E-004  0.1952084E+03  0.7818608E-02  0.1153846E+00
          2   -1    0    0  501    0  0.00000000000E+00  0.00000000000E+00  0.97466924285E+02  0.97466924319E+02  0.25500000000E-02 0.  1.
         -2   -1    0    0    0  501 -0.00000000000E+00 -0.00000000000E+00 -0.97741667530E+02  0.97741667563E+02  0.25500000000E-02 0. -1.
    5000001    1    1    2    0    0  0.12977802975E+02 -0.58321322393E+02 -0.54080219118E+01  0.97611714034E+02  0.77000000000E+02 0.  0.
   -5000001    1    1    2    0    0 -0.12977802975E+02  0.58321322393E+02  0.51332786675E+01  0.97596877848E+02  0.77000000000E+02 0.  0.
<mgrwt>
<rscale>  0 0.19520840E+03</rscale>
<asrwt>0</asrwt>
<pdfrwt beam="1">  1        2 0.13923847E-01 0.19520840E+03</pdfrwt>
<pdfrwt beam="2">  1       -2 0.13963095E-01 0.19520840E+03</pdfrwt>
<totfact> 0.15800759E+04</totfact>
</mgrwt>
</event>
<event>
 4    1  0.6782240E-004  0.2360842E+03  0.7818608E-02  0.1122429E+00
          2   -1    0    0  501    0  0.00000000000E+00  0.00000000000E+00  0.37086039686E+04  0.37086039686E+04  0.25500000000E-02 0.  1.
         -2   -1    0    0    0  501 -0.00000000000E+00 -0.00000000000E+00 -0.37571931417E+01  0.37571940070E+01  0.25500000000E-02 0. -1.
    5000001    1    1    2    0    0  0.67306548059E+02 -0.18948163306E+02  0.97468776526E+03  0.98022163007E+03  0.77000000000E+02 0.  0.
   -5000001    1    1    2    0    0 -0.67306548059E+02  0.18948163306E+02  0.27301590102E+04  0.27321395325E+04  0.77000000000E+02 0.  0.
<mgrwt>
<rscale>  0 0.23608425E+03</rscale>
<asrwt>0</asrwt>
<pdfrwt beam="1">  1        2 0.52980247E+00 0.23608425E+03</pdfrwt>
<pdfrwt beam="2">  1       -2 0.53674001E-03 0.23608425E+03</pdfrwt>
<totfact> 0.58091671E+03</totfact>
</mgrwt>
</event>
<event>
 4    1  0.6782240E-004  0.3599641E+03  0.7818608E-02  0.1058598E+00
          2   -1    0    0  501    0  0.00000000000E+00  0.00000000000E+00  0.10009642568E+03  0.10009642571E+03  0.25500000000E-02 0.  1.
         -2   -1    0    0    0  501 -0.00000000000E+00 -0.00000000000E+00 -0.32362339066E+03  0.32362339067E+03  0.25500000000E-02 0. -1.
    5000001    1    1    2    0    0  0.14797859330E+03  0.62623886663E+02 -0.14166153963E+03  0.22763217494E+03  0.77000000000E+02 0.  0.
   -5000001    1    1    2    0    0 -0.14797859330E+03 -0.62623886663E+02 -0.81865425356E+02  0.19608764144E+03  0.77000000000E+02 0.  0.
<mgrwt>
<rscale>  0 0.35996414E+03</rscale>
<asrwt>0</asrwt>
<pdfrwt beam="1">  1        2 0.14299490E-01 0.35996414E+03</pdfrwt>
<pdfrwt beam="2">  1       -2 0.46231912E-01 0.35996414E+03</pdfrwt>
<totfact> 0.18649606E+03</totfact>
</mgrwt>
</event>
<event>
 4    1  0.6782240E-004  0.2731279E+03  0.7818608E-02  0.1099503E+00
          2   -1    0    0  501    0  0.00000000000E+00  0.00000000000E+00  0.10784783293E+04  0.10784783294E+04  0.25500000000E-02 0.  1.
         -2   -1    0    0    0  501 -0.00000000000E+00 -0.00000000000E+00 -0.17292616108E+02  0.17292616296E+02  0.25500000000E-02 0. -1.
    5000001    1    1    2    0    0  0.80901349223E+02  0.56089948249E+02  0.30976876278E+03  0.33403113177E+03  0.77000000000E+02 0.  0.
   -5000001    1    1    2    0    0 -0.80901349223E+02 -0.56089948249E+02  0.75141695046E+03  0.76173981387E+03  0.77000000000E+02 0.  0.
<mgrwt>
<rscale>  0 0.27312790E+03</rscale>
<asrwt>0</asrwt>
<pdfrwt beam="1">  1        2 0.15406833E+00 0.27312790E+03</pdfrwt>
<pdfrwt beam="2">  1       -2 0.24703739E-02 0.27312790E+03</pdfrwt>
<totfact> 0.14781018E+04</totfact>
</mgrwt>
</event>
<event>
 4    1  0.6782240E-004  0.2212187E+03  0.7818608E-02  0.1132978E+00
          2   -1    0    0  501    0  0.00000000000E+00  0.00000000000E+00  0.15325106640E+04  0.15325106640E+04  0.25500000000E-02 0.  1.
         -2   -1    0    0    0  501 -0.00000000000E+00 -0.00000000000E+00 -0.79832553377E+01  0.79832557450E+01  0.25500000000E-02 0. -1.
    5000001    1    1    2    0    0  0.29086375913E+02 -0.60482607350E+02  0.10578107153E+04  0.10627307620E+04  0.77000000000E+02 0.  0.
   -5000001    1    1    2    0    0 -0.29086375913E+02  0.60482607350E+02  0.46671669333E+03  0.47776315773E+03  0.77000000000E+02 0.  0.
<mgrwt>
<rscale>  0 0.22121866E+03</rscale>
<asrwt>0</asrwt>
<pdfrwt beam="1">  1        2 0.21893034E+00 0.22121866E+03</pdfrwt>
<pdfrwt beam="2">  1       -2 0.11404638E-02 0.22121866E+03</pdfrwt>
<totfact> 0.26140545E+04</totfact>
</mgrwt>
</event>
<event>
 4    1  0.6782240E-004  0.3613470E+03  0.7818608E-02  0.1058052E+00
         -2   -1    0    0    0  501 -0.00000000000E+00  0.00000000000E+00  0.28971002879E+02  0.28971002991E+02  0.25500000000E-02 0. -1.
          2   -1    0    0  501    0  0.00000000000E+00 -0.00000000000E+00 -0.11267445740E+04  0.11267445740E+04  0.25500000000E-02 0.  1.
    5000001    1    1    2    0    0  0.11490777601E+03 -0.84188677011E+02 -0.80520224859E+03  0.82132283023E+03  0.77000000000E+02 0.  0.
   -5000001    1    1    2    0    0 -0.11490777601E+03  0.84188677011E+02 -0.29257132257E+03  0.33439274680E+03  0.77000000000E+02 0.  0.
<mgrwt>
<rscale>  0 0.36134704E+03</rscale>
<asrwt>0</asrwt>
<pdfrwt beam="1">  1        2 0.16096348E+00 0.36134704E+03</pdfrwt>
<pdfrwt beam="2">  1       -2 0.41387154E-02 0.36134704E+03</pdfrwt>
<totfact> 0.64564945E+03</totfact>
</mgrwt>
</event>
<event>
 4    1  0.6782240E-004  0.1862569E+03  0.7818608E-02  0.1161881E+00
          2   -1    0    0  501    0  0.00000000000E+00  0.00000000000E+00  0.28080166480E+02  0.28080166596E+02  0.25500000000E-02 0.  1.
         -2   -1    0    0    0  501 -0.00000000000E+00 -0.00000000000E+00 -0.30886250327E+03  0.30886250328E+03  0.25500000000E-02 0. -1.
    5000001    1    1    2    0    0 -0.14217410283E+02  0.16911662060E+02 -0.54471788652E+02  0.96872673276E+02  0.77000000000E+02 0.  0.
   -5000001    1    1    2    0    0  0.14217410283E+02 -0.16911662060E+02 -0.22631054814E+03  0.24006999660E+03  0.77000000000E+02 0.  0.
<mgrwt>
<rscale>  0 0.18625693E+03</rscale>
<asrwt>0</asrwt>
<pdfrwt beam="1">  1        2 0.40114526E-02 0.18625693E+03</pdfrwt>
<pdfrwt beam="2">  1       -2 0.44123213E-01 0.18625693E+03</pdfrwt>
<totfact> 0.10024230E+04</totfact>
</mgrwt>
</event>
<event>
 4    1  0.6782240E-004  0.3035433E+03  0.7818608E-02  0.1083483E+00
          2   -1    0    0  501    0  0.00000000000E+00  0.00000000000E+00  0.26838495567E+04  0.26838495567E+04  0.25500000000E-02 0.  1.
         -2   -1    0    0    0  501 -0.00000000000E+00 -0.00000000000E+00 -0.85826839256E+01  0.85826843044E+01  0.25500000000E-02 0. -1.
    5000001    1    1    2    0    0 -0.11098899048E+03 -0.69181516579E+02  0.13464799856E+04  0.13550062693E+04  0.77000000000E+02 0.  0.
   -5000001    1    1    2    0    0  0.11098899048E+03  0.69181516579E+02  0.13287868871E+04  0.13374259716E+04  0.77000000000E+02 0.  0.
<mgrwt>
<rscale>  0 0.30354329E+03</rscale>
<asrwt>0</asrwt>
<pdfrwt beam="1">  1        2 0.38340748E+00 0.30354329E+03</pdfrwt>
<pdfrwt beam="2">  1       -2 0.12260964E-02 0.30354329E+03</pdfrwt>
<totfact> 0.64166635E+03</totfact>
</mgrwt>
</event>
<event>
 4    1  0.6782240E-004  0.3586283E+03  0.7818608E-02  0.1059128E+00
          2   -1    0    0  501    0  0.00000000000E+00  0.00000000000E+00  0.14452733996E+04  0.14452733996E+04  0.25500000000E-02 0.  1.
         -2   -1    0    0    0  501 -0.00000000000E+00 -0.00000000000E+00 -0.22247390477E+02  0.22247390624E+02  0.25500000000E-02 0. -1.
    5000001    1    1    2    0    0  0.13239015926E+03  0.87666950526E+02  0.58134286420E+03  0.60753697356E+03  0.77000000000E+02 0.  0.
   -5000001    1    1    2    0    0 -0.13239015926E+03 -0.87666950526E+02  0.84168314495E+03  0.85998381670E+03  0.77000000000E+02 0.  0.
<mgrwt>
<rscale>  0 0.35862829E+03</rscale>
<asrwt>0</asrwt>
<pdfrwt beam="1">  1        2 0.20646773E+00 0.35862829E+03</pdfrwt>
<pdfrwt beam="2">  1       -2 0.31781971E-02 0.35862829E+03</pdfrwt>
<totfact> 0.64901709E+03</totfact>
</mgrwt>
</event>
<event>
 4    1  0.6782240E-004  0.2084236E+03  0.7818608E-02  0.1142820E+00
          2   -1    0    0  501    0  0.00000000000E+00  0.00000000000E+00  0.58559361981E+03  0.58559361982E+03  0.25500000000E-02 0.  1.
         -2   -1    0    0    0  501 -0.00000000000E+00 -0.00000000000E+00 -0.18545460288E+02  0.18545460463E+02  0.25500000000E-02 0. -1.
    5000001    1    1    2    0    0  0.44564253840E+02  0.45239798214E+00  0.12622465228E+03  0.15442745943E+03  0.77000000000E+02 0.  0.
   -5000001    1    1    2    0    0 -0.44564253840E+02 -0.45239798214E+00  0.44082350725E+03  0.44971162085E+03  0.77000000000E+02 0.  0.
<mgrwt>
<rscale>  0 0.20842364E+03</rscale>
<asrwt>0</asrwt>
<pdfrwt beam="1">  1        2 0.83656227E-01 0.20842364E+03</pdfrwt>
<pdfrwt beam="2">  1       -2 0.26493516E-02 0.20842364E+03</pdfrwt>
<totfact> 0.28056452E+04</totfact>
</mgrwt>
</event>
<event>
 4    1  0.6782240E-004  0.1640867E+03  0.7818608E-02  0.1184159E+00
         -2   -1    0    0    0  501 -0.00000000000E+00  0.00000000000E+00  0.70253065996E+01  0.70253070624E+01  0.25500000000E-02 0. -1.
          2   -1    0    0  501    0  0.00000000000E+00 -0.00000000000E+00 -0.95812377772E+03  0.95812377772E+03  0.25500000000E-02 0.  1.
    5000001    1    1    2    0    0  0.12849128216E+02  0.25060366552E+02 -0.49318669248E+03  0.49995523370E+03  0.77000000000E+02 0.  0.
   -5000001    1    1    2    0    0 -0.12849128216E+02 -0.25060366552E+02 -0.45791177863E+03  0.46519385108E+03  0.77000000000E+02 0.  0.
<mgrwt>
<rscale>  0 0.16408673E+03</rscale>
<asrwt>0</asrwt>
<pdfrwt beam="1">  1        2 0.13687474E+00 0.16408673E+03</pdfrwt>
<pdfrwt beam="2">  1       -2 0.10036159E-02 0.16408673E+03</pdfrwt>
<totfact> 0.62317192E+04</totfact>
</mgrwt>
</event>
<event>
 4    1  0.6782240E-004  0.1658567E+03  0.7818608E-02  0.1182239E+00
         -2   -1    0    0    0  501 -0.00000000000E+00  0.00000000000E+00  0.11705293000E+02  0.11705293278E+02  0.25500000000E-02 0. -1.
          2   -1    0    0  501    0  0.00000000000E+00 -0.00000000000E+00 -0.58752170190E+03  0.58752170191E+03  0.25500000000E-02 0.  1.
    5000001    1    1    2    0    0  0.25393470633E+02 -0.16447707954E+02 -0.30858670104E+03  0.31948412716E+03  0.77000000000E+02 0.  0.
   -5000001    1    1    2    0    0 -0.25393470633E+02  0.16447707954E+02 -0.26722970786E+03  0.27974286803E+03  0.77000000000E+02 0.  0.
<mgrwt>
<rscale>  0 0.16585673E+03</rscale>
<asrwt>0</asrwt>
<pdfrwt beam="1">  1        2 0.83931653E-01 0.16585673E+03</pdfrwt>
<pdfrwt beam="2">  1       -2 0.16721851E-02 0.16585673E+03</pdfrwt>
<totfact> 0.53717082E+04</totfact>
</mgrwt>
</event>
<event>
 4    1  0.6782240E-004  0.2440311E+03  0.7818608E-02  0.1117136E+00
         -2   -1    0    0    0  501 -0.00000000000E+00  0.00000000000E+00  0.66852295572E+01  0.66852300435E+01  0.25500000000E-02 0. -1.
          2   -1    0    0  501    0  0.00000000000E+00 -0.00000000000E+00 -0.22269677622E+04  0.22269677622E+04  0.25500000000E-02 0.  1.
    5000001    1    1    2    0    0  0.72440048722E+02  0.53478052923E+02 -0.84307493135E+03  0.85135879785E+03  0.77000000000E+02 0.  0.
   -5000001    1    1    2    0    0 -0.72440048722E+02 -0.53478052923E+02 -0.13772076013E+04  0.13822941944E+04  0.77000000000E+02 0.  0.
<mgrwt>
<rscale>  0 0.24403107E+03</rscale>
<asrwt>0</asrwt>
<pdfrwt beam="1">  1        2 0.31813778E+00 0.24403107E+03</pdfrwt>
<pdfrwt beam="2">  1       -2 0.95503425E-03 0.24403107E+03</pdfrwt>
<totfact> 0.15547602E+04</totfact>
</mgrwt>
</event>
<event>
 4    1  0.6782240E-004  0.1991208E+03  0.7818608E-02  0.1150483E+00
         -2   -1    0    0    0  501 -0.00000000000E+00  0.00000000000E+00  0.70546754743E+02  0.70546754789E+02  0.25500000000E-02 0. -1.
          2   -1    0    0  501    0  0.00000000000E+00 -0.00000000000E+00 -0.14050648238E+03  0.14050648240E+03  0.25500000000E-02 0.  1.
    5000001    1    1    2    0    0 -0.52859803630E+02 -0.28528303841E+02 -0.55512165610E+02  0.11233264659E+03  0.77000000000E+02 0.  0.
   -5000001    1    1    2    0    0  0.52859803630E+02  0.28528303841E+02 -0.14447562026E+02  0.98720590599E+02  0.77000000000E+02 0.  0.
<mgrwt>
<rscale>  0 0.19912083E+03</rscale>
<asrwt>0</asrwt>
<pdfrwt beam="1">  1        2 0.20072355E-01 0.19912083E+03</pdfrwt>
<pdfrwt beam="2">  1       -2 0.10078108E-01 0.19912083E+03</pdfrwt>
<totfact> 0.17451092E+04</totfact>
</mgrwt>
</event>
<event>
 4    1  0.6782240E-004  0.2461872E+03  0.7818608E-02  0.1115738E+00
         -2   -1    0    0    0  501 -0.00000000000E+00  0.00000000000E+00  0.69435521363E+01  0.69435526046E+01  0.25500000000E-02 0. -1.
          2   -1    0    0  501    0  0.00000000000E+00 -0.00000000000E+00 -0.21821729962E+04  0.21821729962E+04  0.25500000000E-02 0.  1.
    5000001    1    1    2    0    0  0.69647077551E+02 -0.92206858422E+00 -0.49969634252E+03  0.51036947435E+03  0.77000000000E+02 0.  0.
   -5000001    1    1    2    0    0 -0.69647077551E+02  0.92206858422E+00 -0.16755331015E+04  0.16787470745E+04  0.77000000000E+02 0.  0.
<mgrwt>
<rscale>  0 0.24618718E+03</rscale>
<asrwt>0</asrwt>
<pdfrwt beam="1">  1        2 0.31173856E+00 0.24618718E+03</pdfrwt>
<pdfrwt beam="2">  1       -2 0.99193745E-03 0.24618718E+03</pdfrwt>
<totfact> 0.15479376E+04</totfact>
</mgrwt>
</event>
<event>
 4    1  0.6782240E-004  0.2846522E+03  0.7818608E-02  0.1093175E+00
          2   -1    0    0  501    0  0.00000000000E+00  0.00000000000E+00  0.19049564056E+04  0.19049564056E+04  0.25500000000E-02 0.  1.
         -2   -1    0    0    0  501 -0.00000000000E+00 -0.00000000000E+00 -0.10633690821E+02  0.10633691127E+02  0.25500000000E-02 0. -1.
    5000001    1    1    2    0    0 -0.10439792987E+03  0.45258272722E+02  0.69712514652E+03  0.71053480487E+03  0.77000000000E+02 0.  0.
   -5000001    1    1    2    0    0  0.10439792987E+03 -0.45258272722E+02  0.11971975683E+04  0.12050552919E+04  0.77000000000E+02 0.  0.
<mgrwt>
<rscale>  0 0.28465219E+03</rscale>
<asrwt>0</asrwt>
<pdfrwt beam="1">  1        2 0.27213666E+00 0.28465219E+03</pdfrwt>
<pdfrwt beam="2">  1       -2 0.15190986E-02 0.28465219E+03</pdfrwt>
<totfact> 0.11392599E+04</totfact>
</mgrwt>
</event>
<event>
 4    1  0.6782240E-004  0.2565390E+03  0.7818608E-02  0.1109241E+00
          2   -1    0    0  501    0  0.00000000000E+00  0.00000000000E+00  0.44971507254E+02  0.44971507326E+02  0.25500000000E-02 0.  1.
         -2   -1    0    0    0  501 -0.00000000000E+00 -0.00000000000E+00 -0.36585518272E+03  0.36585518273E+03  0.25500000000E-02 0. -1.
    5000001    1    1    2    0    0  0.48150849001E+02  0.87395541371E+02 -0.12228989873E+03  0.17561407757E+03  0.77000000000E+02 0.  0.
   -5000001    1    1    2    0    0 -0.48150849001E+02 -0.87395541371E+02 -0.19859377674E+03  0.23521261248E+03  0.77000000000E+02 0.  0.
<mgrwt>
<rscale>  0 0.25653896E+03</rscale>
<asrwt>0</asrwt>
<pdfrwt beam="1">  1        2 0.64245012E-02 0.25653896E+03</pdfrwt>
<pdfrwt beam="2">  1       -2 0.52265024E-01 0.25653896E+03</pdfrwt>
<totfact> 0.39363687E+03</totfact>
</mgrwt>
</event>
<event>
 4    1  0.6782240E-004  0.2838429E+03  0.7818608E-02  0.1093608E+00
         -2   -1    0    0    0  501 -0.00000000000E+00  0.00000000000E+00  0.98121226961E+03  0.98121226961E+03  0.25500000000E-02 0. -1.
          2   -1    0    0  501    0  0.00000000000E+00 -0.00000000000E+00 -0.20527359208E+02  0.20527359366E+02  0.25500000000E-02 0.  1.
    5000001    1    1    2    0    0  0.99342487075E+02 -0.59820190839E+02  0.38270958767E+03  0.40723827603E+03  0.77000000000E+02 0.  0.
   -5000001    1    1    2    0    0 -0.99342487075E+02  0.59820190839E+02  0.57797532273E+03  0.59450135295E+03  0.77000000000E+02 0.  0.
<mgrwt>
<rscale>  0 0.28384289E+03</rscale>
<asrwt>0</asrwt>
<pdfrwt beam="1">  1        2 0.29324794E-02 0.28384289E+03</pdfrwt>
<pdfrwt beam="2">  1       -2 0.14017320E+00 0.28384289E+03</pdfrwt>
<totfact> 0.12216370E+03</totfact>
</mgrwt>
</event>
<event>
 4    1  0.6782240E-004  0.2661743E+03  0.7818608E-02  0.1103489E+00
          2   -1    0    0  501    0  0.00000000000E+00  0.00000000000E+00  0.18129198165E+02  0.18129198344E+02  0.25500000000E-02 0.  1.
         -2   -1    0    0    0  501 -0.00000000000E+00 -0.00000000000E+00 -0.97699780876E+03  0.97699780877E+03  0.25500000000E-02 0. -1.
    5000001    1    1    2    0    0 -0.99851882253E+02  0.21393552988E+02 -0.34180883606E+03  0.36495254884E+03  0.77000000000E+02 0.  0.
   -5000001    1    1    2    0    0  0.99851882253E+02 -0.21393552988E+02 -0.61705977454E+03  0.63017445827E+03  0.77000000000E+02 0.  0.
<mgrwt>
<rscale>  0 0.26617428E+03</rscale>
<asrwt>0</asrwt>
<pdfrwt beam="1">  1        2 0.25898861E-02 0.26617428E+03</pdfrwt>
<pdfrwt beam="2">  1       -2 0.13957108E+00 0.26617428E+03</pdfrwt>
<totfact> 0.14608584E+03</totfact>
</mgrwt>
</event>
<event>
 4    1  0.6782240E-004  0.2401285E+03  0.7818608E-02  0.1119707E+00
         -2   -1    0    0    0  501 -0.00000000000E+00  0.00000000000E+00  0.85724122182E+03  0.85724122183E+03  0.25500000000E-02 0. -1.
          2   -1    0    0  501    0  0.00000000000E+00 -0.00000000000E+00 -0.16816061908E+02  0.16816062101E+02  0.25500000000E-02 0.  1.
    5000001    1    1    2    0    0 -0.65588992736E+02  0.24606046399E+02  0.20245163519E+03  0.22764673966E+03  0.77000000000E+02 0.  0.
   -5000001    1    1    2    0    0  0.65588992736E+02 -0.24606046399E+02  0.63797352473E+03  0.64641054427E+03  0.77000000000E+02 0.  0.
<mgrwt>
<rscale>  0 0.24012848E+03</rscale>
<asrwt>0</asrwt>
<pdfrwt beam="1">  1        2 0.24022942E-02 0.24012848E+03</pdfrwt>
<pdfrwt beam="2">  1       -2 0.12246305E+00 0.24012848E+03</pdfrwt>
<totfact> 0.22307382E+03</totfact>
</mgrwt>
</event>
<event>
 4    1  0.6782240E-004  0.2939554E+03  0.7818608E-02  0.1088302E+00
          2   -1    0    0  501    0  0.00000000000E+00  0.00000000000E+00  0.22971146272E+04  0.22971146272E+04  0.25500000000E-02 0.  1.
         -2   -1    0    0    0  501 -0.00000000000E+00 -0.00000000000E+00 -0.94041668375E+01  0.94041671832E+01  0.25500000000E-02 0. -1.
    5000001    1    1    2    0    0  0.10501666480E+03 -0.36786908880E+02  0.69367766538E+03  0.70675277148E+03  0.77000000000E+02 0.  0.
   -5000001    1    1    2    0    0 -0.10501666480E+03  0.36786908880E+02  0.15940327950E+04  0.15997660229E+04  0.77000000000E+02 0.  0.
<mgrwt>
<rscale>  0 0.29395544E+03</rscale>
<asrwt>0</asrwt>
<pdfrwt beam="1">  1        2 0.32815938E+00 0.29395544E+03</pdfrwt>
<pdfrwt beam="2">  1       -2 0.13434518E-02 0.29395544E+03</pdfrwt>
<totfact> 0.87682048E+03</totfact>
</mgrwt>
</event>
<event>
 4    1  0.6782240E-004  0.2020988E+03  0.7818608E-02  0.1147980E+00
          2   -1    0    0  501    0  0.00000000000E+00  0.00000000000E+00  0.48374310813E+03  0.48374310813E+03  0.25500000000E-02 0.  1.
         -2   -1    0    0    0  501 -0.00000000000E+00 -0.00000000000E+00 -0.21108264482E+02  0.21108264636E+02  0.25500000000E-02 0. -1.
    5000001    1    1    2    0    0  0.22828374061E+02 -0.38350217932E+02  0.11177351259E+03  0.14287824185E+03  0.77000000000E+02 0.  0.
   -5000001    1    1    2    0    0 -0.22828374061E+02  0.38350217932E+02  0.35086133106E+03  0.36197313092E+03  0.77000000000E+02 0.  0.
<mgrwt>
<rscale>  0 0.20209876E+03</rscale>
<asrwt>0</asrwt>
<pdfrwt beam="1">  1        2 0.69106147E-01 0.20209876E+03</pdfrwt>
<pdfrwt beam="2">  1       -2 0.30154669E-02 0.20209876E+03</pdfrwt>
<totfact> 0.28577036E+04</totfact>
</mgrwt>
</event>
<event>
 4    1  0.6782240E-004  0.2524678E+03  0.7818608E-02  0.1111755E+00
         -2   -1    0    0    0  501 -0.00000000000E+00  0.00000000000E+00  0.94864609860E+01  0.94864613287E+01  0.25500000000E-02 0. -1.
          2   -1    0    0  501    0  0.00000000000E+00 -0.00000000000E+00 -0.16797622443E+04  0.16797622443E+04  0.25500000000E-02 0.  1.
    5000001    1    1    2    0    0  0.80689409376E+02 -0.56068593468E+02 -0.96058758181E+03  0.96866504545E+03  0.77000000000E+02 0.  0.
   -5000001    1    1    2    0    0 -0.80689409376E+02  0.56068593468E+02 -0.70968820155E+03  0.72058366022E+03  0.77000000000E+02 0.  0.
<mgrwt>
<rscale>  0 0.25246781E+03</rscale>
<asrwt>0</asrwt>
<pdfrwt beam="1">  1        2 0.23996585E+00 0.25246781E+03</pdfrwt>
<pdfrwt beam="2">  1       -2 0.13552098E-02 0.25246781E+03</pdfrwt>
<totfact> 0.17298726E+04</totfact>
</mgrwt>
</event>
<event>
 4    1  0.6782240E-004  0.2265592E+03  0.7818608E-02  0.1129085E+00
          2   -1    0    0  501    0  0.00000000000E+00  0.00000000000E+00  0.10848409997E+04  0.10848409997E+04  0.25500000000E-02 0.  1.
         -2   -1    0    0    0  501 -0.00000000000E+00 -0.00000000000E+00 -0.11828703281E+02  0.11828703556E+02  0.25500000000E-02 0. -1.
    5000001    1    1    2    0    0  0.75337276618E+02  0.57421867173E+01  0.36920355636E+03  0.38464131862E+03  0.77000000000E+02 0.  0.
   -5000001    1    1    2    0    0 -0.75337276618E+02 -0.57421867173E+01  0.70380874006E+03  0.71202838465E+03  0.77000000000E+02 0.  0.
<mgrwt>
<rscale>  0 0.22655915E+03</rscale>
<asrwt>0</asrwt>
<pdfrwt beam="1">  1        2 0.15497730E+00 0.22655915E+03</pdfrwt>
<pdfrwt beam="2">  1       -2 0.16898147E-02 0.22655915E+03</pdfrwt>
<totfact> 0.25384814E+04</totfact>
</mgrwt>
</event>
<event>
 4    1  0.6782240E-004  0.2547411E+03  0.7818608E-02  0.1110345E+00
         -2   -1    0    0    0  501 -0.00000000000E+00  0.00000000000E+00  0.21091610082E+02  0.21091610236E+02  0.25500000000E-02 0. -1.
          2   -1    0    0  501    0  0.00000000000E+00 -0.00000000000E+00 -0.76918032127E+03  0.76918032127E+03  0.25500000000E-02 0.  1.
    5000001    1    1    2    0    0  0.95740180855E+02  0.33570460730E+02 -0.37728827970E+03  0.39820673533E+03  0.77000000000E+02 0.  0.
   -5000001    1    1    2    0    0 -0.95740180855E+02 -0.33570460730E+02 -0.37080043149E+03  0.39206519618E+03  0.77000000000E+02 0.  0.
<mgrwt>
<rscale>  0 0.25474106E+03</rscale>
<asrwt>0</asrwt>
<pdfrwt beam="1">  1        2 0.10988289E+00 0.25474106E+03</pdfrwt>
<pdfrwt beam="2">  1       -2 0.30130876E-02 0.25474106E+03</pdfrwt>
<totfact> 0.17067020E+04</totfact>
</mgrwt>
</event>
<event>
 4    1  0.6782240E-004  0.3870817E+03  0.7818608E-02  0.1048347E+00
          2   -1    0    0  501    0  0.00000000000E+00  0.00000000000E+00  0.51592139853E+02  0.51592139916E+02  0.25500000000E-02 0.  1.
         -2   -1    0    0    0  501 -0.00000000000E+00 -0.00000000000E+00 -0.72604195702E+03  0.72604195703E+03  0.25500000000E-02 0. -1.
    5000001    1    1    2    0    0 -0.16544470003E+03  0.36389162619E+02 -0.44415285501E+03  0.48155672412E+03  0.77000000000E+02 0.  0.
   -5000001    1    1    2    0    0  0.16544470003E+03 -0.36389162619E+02 -0.23029696216E+03  0.29607737283E+03  0.77000000000E+02 0.  0.
<mgrwt>
<rscale>  0 0.38708169E+03</rscale>
<asrwt>0</asrwt>
<pdfrwt beam="1">  1        2 0.73703061E-02 0.38708169E+03</pdfrwt>
<pdfrwt beam="2">  1       -2 0.10372027E+00 0.38708169E+03</pdfrwt>
<totfact> 0.74908898E+02</totfact>
</mgrwt>
</event>
<event>
 4    1  0.6782240E-004  0.3201747E+03  0.7818608E-02  0.1075569E+00
          2   -1    0    0  501    0  0.00000000000E+00  0.00000000000E+00  0.13611587211E+04  0.13611587211E+04  0.25500000000E-02 0.  1.
         -2   -1    0    0    0  501 -0.00000000000E+00 -0.00000000000E+00 -0.18828043467E+02  0.18828043640E+02  0.25500000000E-02 0. -1.
    5000001    1    1    2    0    0  0.53467862131E+02  0.65109491402E+02  0.18733991762E+03  0.21937024157E+03  0.77000000000E+02 0.  0.
   -5000001    1    1    2    0    0 -0.53467862131E+02 -0.65109491402E+02  0.11549907600E+04  0.11606165231E+04  0.77000000000E+02 0.  0.
<mgrwt>
<rscale>  0 0.32017468E+03</rscale>
<asrwt>0</asrwt>
<pdfrwt beam="1">  1        2 0.19445122E+00 0.32017468E+03</pdfrwt>
<pdfrwt beam="2">  1       -2 0.26897208E-02 0.32017468E+03</pdfrwt>
<totfact> 0.91945398E+03</totfact>
</mgrwt>
</event>
<event>
 4    1  0.6782240E-004  0.2729175E+03  0.7818608E-02  0.1099621E+00
          2   -1    0    0  501    0  0.00000000000E+00  0.00000000000E+00  0.62810599717E+03  0.62810599718E+03  0.25500000000E-02 0.  1.
         -2   -1    0    0    0  501 -0.00000000000E+00 -0.00000000000E+00 -0.29646257196E+02  0.29646257306E+02  0.25500000000E-02 0. -1.
    5000001    1    1    2    0    0  0.10280553497E+03  0.44863273277E+02  0.32454149403E+03  0.35190605658E+03  0.77000000000E+02 0.  0.
   -5000001    1    1    2    0    0 -0.10280553497E+03 -0.44863273277E+02  0.27391824595E+03  0.30584619790E+03  0.77000000000E+02 0.  0.
<mgrwt>
<rscale>  0 0.27291751E+03</rscale>
<asrwt>0</asrwt>
<pdfrwt beam="1">  1        2 0.89729424E-01 0.27291751E+03</pdfrwt>
<pdfrwt beam="2">  1       -2 0.42351798E-02 0.27291751E+03</pdfrwt>
<totfact> 0.13075404E+04</totfact>
</mgrwt>
</event>
<event>
 4    1  0.6782240E-004  0.2981266E+03  0.7818608E-02  0.1086181E+00
          2   -1    0    0  501    0  0.00000000000E+00  0.00000000000E+00  0.36437636235E+04  0.36437636235E+04  0.25500000000E-02 0.  1.
         -2   -1    0    0    0  501 -0.00000000000E+00 -0.00000000000E+00 -0.60980549903E+01  0.60980555235E+01  0.25500000000E-02 0. -1.
    5000001    1    1    2    0    0  0.19477340176E+02 -0.58942005221E+02  0.31841685856E+04  0.31857043347E+04  0.77000000000E+02 0.  0.
   -5000001    1    1    2    0    0 -0.19477340176E+02  0.58942005221E+02  0.45349698293E+03  0.46415734432E+03  0.77000000000E+02 0.  0.
<mgrwt>
<rscale>  0 0.29812663E+03</rscale>
<asrwt>0</asrwt>
<pdfrwt beam="1">  1        2 0.52053960E+00 0.29812663E+03</pdfrwt>
<pdfrwt beam="2">  1       -2 0.87114751E-03 0.29812663E+03</pdfrwt>
<totfact> 0.31397345E+03</totfact>
</mgrwt>
</event>
<event>
 4    1  0.6782240E-004  0.2033387E+03  0.7818608E-02  0.1146952E+00
         -2   -1    0    0    0  501 -0.00000000000E+00  0.00000000000E+00  0.18644791993E+02  0.18644792167E+02  0.25500000000E-02 0. -1.
          2   -1    0    0  501    0  0.00000000000E+00 -0.00000000000E+00 -0.55439938854E+03  0.55439938854E+03  0.25500000000E-02 0.  1.
    5000001    1    1    2    0    0  0.49462694508E+02  0.44155245093E+02 -0.27739985910E+03  0.29542499157E+03  0.77000000000E+02 0.  0.
   -5000001    1    1    2    0    0 -0.49462694508E+02 -0.44155245093E+02 -0.25835473745E+03  0.27761918914E+03  0.77000000000E+02 0.  0.
<mgrwt>
<rscale>  0 0.20333875E+03</rscale>
<asrwt>0</asrwt>
<pdfrwt beam="1">  1        2 0.79199902E-01 0.20333875E+03</pdfrwt>
<pdfrwt beam="2">  1       -2 0.26635421E-02 0.20333875E+03</pdfrwt>
<totfact> 0.29545233E+04</totfact>
</mgrwt>
</event>
<event>
 4    1  0.6782240E-004  0.3684247E+03  0.7818608E-02  0.1055297E+00
         -2   -1    0    0    0  501 -0.00000000000E+00  0.00000000000E+00  0.22846519937E+02  0.22846520079E+02  0.25500000000E-02 0. -1.
          2   -1    0    0  501    0  0.00000000000E+00 -0.00000000000E+00 -0.14853107456E+04  0.14853107456E+04  0.25500000000E-02 0.  1.
    5000001    1    1    2    0    0 -0.78739152051E+02  0.14736518020E+03 -0.76981376996E+03  0.79149137129E+03  0.77000000000E+02 0.  0.
   -5000001    1    1    2    0    0  0.78739152051E+02 -0.14736518020E+03 -0.69265045571E+03  0.71666589441E+03  0.77000000000E+02 0.  0.
<mgrwt>
<rscale>  0 0.36842466E+03</rscale>
<asrwt>0</asrwt>
<pdfrwt beam="1">  1        2 0.21218719E+00 0.36842466E+03</pdfrwt>
<pdfrwt beam="2">  1       -2 0.32637895E-02 0.36842466E+03</pdfrwt>
<totfact> 0.59488813E+03</totfact>
</mgrwt>
</event>
<event>
 4    1  0.6782240E-004  0.1654448E+03  0.7818608E-02  0.1182683E+00
         -2   -1    0    0    0  501 -0.00000000000E+00  0.00000000000E+00  0.54643959923E+01  0.54643965873E+01  0.25500000000E-02 0. -1.
          2   -1    0    0  501    0  0.00000000000E+00 -0.00000000000E+00 -0.12522869137E+04  0.12522869137E+04  0.25500000000E-02 0.  1.
    5000001    1    1    2    0    0  0.23629960910E+02  0.14194105454E+02 -0.52902571490E+03  0.53531024155E+03  0.77000000000E+02 0.  0.
   -5000001    1    1    2    0    0 -0.23629960910E+02 -0.14194105454E+02 -0.71779680285E+03  0.72244106878E+03  0.77000000000E+02 0.  0.
<mgrwt>
<rscale>  0 0.16544476E+03</rscale>
<asrwt>0</asrwt>
<pdfrwt beam="1">  1        2 0.17889795E+00 0.16544476E+03</pdfrwt>
<pdfrwt beam="2">  1       -2 0.78062884E-03 0.16544476E+03</pdfrwt>
<totfact> 0.61415308E+04</totfact>
</mgrwt>
</event>
<event>
 4    1  0.6782240E-004  0.1058631E+04  0.7818608E-02  0.9246478E-01
          2   -1    0    0  501    0  0.00000000000E+00  0.00000000000E+00  0.10130678728E+04  0.10130678728E+04  0.25500000000E-02 0.  1.
         -2   -1    0    0    0  501 -0.00000000000E+00 -0.00000000000E+00 -0.27656096056E+03  0.27656096057E+03  0.25500000000E-02 0. -1.
    5000001    1    1    2    0    0  0.30886578435E+03  0.41826933448E+03  0.44431774003E+03  0.68825472248E+03  0.77000000000E+02 0.  0.
   -5000001    1    1    2    0    0 -0.30886578435E+03 -0.41826933448E+03  0.29218917223E+03  0.60137411091E+03  0.77000000000E+02 0.  0.
<mgrwt>
<rscale>  0 0.10586312E+04</rscale>
<asrwt>0</asrwt>
<pdfrwt beam="1">  1        2 0.14472398E+00 0.10586312E+04</pdfrwt>
<pdfrwt beam="2">  1       -2 0.39508709E-01 0.10586312E+04</pdfrwt>
<totfact> 0.16600486E+02</totfact>
</mgrwt>
</event>
<event>
 4    1  0.6782240E-004  0.1702173E+03  0.7818608E-02  0.1177621E+00
         -2   -1    0    0    0  501 -0.00000000000E+00  0.00000000000E+00  0.45529943652E+02  0.45529943723E+02  0.25500000000E-02 0. -1.
          2   -1    0    0  501    0  0.00000000000E+00 -0.00000000000E+00 -0.15909263444E+03  0.15909263446E+03  0.25500000000E-02 0.  1.
    5000001    1    1    2    0    0  0.19779356164E+02 -0.29737221279E+02 -0.64284135948E+02  0.10647523371E+03  0.77000000000E+02 0.  0.
   -5000001    1    1    2    0    0 -0.19779356164E+02  0.29737221279E+02 -0.49278554841E+02  0.98147344472E+02  0.77000000000E+02 0.  0.
<mgrwt>
<rscale>  0 0.17021726E+03</rscale>
<asrwt>0</asrwt>
<pdfrwt beam="1">  1        2 0.22727519E-01 0.17021726E+03</pdfrwt>
<pdfrwt beam="2">  1       -2 0.65042777E-02 0.17021726E+03</pdfrwt>
<totfact> 0.29566075E+04</totfact>
</mgrwt>
</event>
<event>
 4    1  0.6782240E-004  0.2924692E+03  0.7818608E-02  0.1089067E+00
         -2   -1    0    0    0  501 -0.00000000000E+00  0.00000000000E+00  0.14957095497E+02  0.14957095714E+02  0.25500000000E-02 0. -1.
          2   -1    0    0  501    0  0.00000000000E+00 -0.00000000000E+00 -0.14297264210E+04  0.14297264210E+04  0.25500000000E-02 0.  1.
    5000001    1    1    2    0    0  0.96461857295E+02  0.47788345627E+02 -0.40021645081E+03  0.42153389352E+03  0.77000000000E+02 0.  0.
   -5000001    1    1    2    0    0 -0.96461857295E+02 -0.47788345627E+02 -0.10145528747E+04  0.10231496232E+04  0.77000000000E+02 0.  0.
<mgrwt>
<rscale>  0 0.29246918E+03</rscale>
<asrwt>0</asrwt>
<pdfrwt beam="1">  1        2 0.20424654E+00 0.29246918E+03</pdfrwt>
<pdfrwt beam="2">  1       -2 0.21367289E-02 0.29246918E+03</pdfrwt>
<totfact> 0.11895322E+04</totfact>
</mgrwt>
</event>
<event>
 4    1  0.6782240E-004  0.2336138E+03  0.7818608E-02  0.1124122E+00
         -2   -1    0    0    0  501 -0.00000000000E+00  0.00000000000E+00  0.80057994903E+01  0.80057998964E+01  0.25500000000E-02 0. -1.
          2   -1    0    0  501    0  0.00000000000E+00 -0.00000000000E+00 -0.17042453950E+04  0.17042453950E+04  0.25500000000E-02 0.  1.
    5000001    1    1    2    0    0  0.18203199234E+02  0.56515739522E+02 -0.37371596954E+03  0.38615801321E+03  0.77000000000E+02 0.  0.
   -5000001    1    1    2    0    0 -0.18203199234E+02 -0.56515739522E+02 -0.13225236260E+04  0.13260931817E+04  0.77000000000E+02 0.  0.
<mgrwt>
<rscale>  0 0.23361376E+03</rscale>
<asrwt>0</asrwt>
<pdfrwt beam="1">  1        2 0.24346340E+00 0.23361376E+03</pdfrwt>
<pdfrwt beam="2">  1       -2 0.11436868E-02 0.23361376E+03</pdfrwt>
<totfact> 0.21469364E+04</totfact>
</mgrwt>
</event>
<event>
 4    1  0.6782240E-004  0.4255214E+03  0.7818608E-02  0.1035284E+00
          2   -1    0    0  501    0  0.00000000000E+00  0.00000000000E+00  0.67912666348E+03  0.67912666348E+03  0.25500000000E-02 0.  1.
         -2   -1    0    0    0  501 -0.00000000000E+00 -0.00000000000E+00 -0.66654891377E+02  0.66654891426E+02  0.25500000000E-02 0. -1.
    5000001    1    1    2    0    0  0.22648438201E+02 -0.18251201151E+03  0.17608581538E+03  0.26600526400E+03  0.77000000000E+02 0.  0.
   -5000001    1    1    2    0    0 -0.22648438201E+02  0.18251201151E+03  0.43638595672E+03  0.47977629091E+03  0.77000000000E+02 0.  0.
<mgrwt>
<rscale>  0 0.42552139E+03</rscale>
<asrwt>0</asrwt>
<pdfrwt beam="1">  1        2 0.97018095E-01 0.42552139E+03</pdfrwt>
<pdfrwt beam="2">  1       -2 0.95221273E-02 0.42552139E+03</pdfrwt>
<totfact> 0.34382807E+03</totfact>
</mgrwt>
</event>
<event>
 4    1  0.6782240E-004  0.3001005E+03  0.7818608E-02  0.1085190E+00
          2   -1    0    0  501    0  0.00000000000E+00  0.00000000000E+00  0.13350099756E+03  0.13350099758E+03  0.25500000000E-02 0. -1.
         -2   -1    0    0    0  501 -0.00000000000E+00 -0.00000000000E+00 -0.16865099762E+03  0.16865099764E+03  0.25500000000E-02 0.  1.
    5000001    1    1    2    0    0  0.83678964742E+02  0.94326808146E+02  0.88025779449E+01  0.14800743648E+03  0.77000000000E+02 0.  0.
   -5000001    1    1    2    0    0 -0.83678964742E+02 -0.94326808146E+02 -0.43952578005E+02  0.15414455874E+03  0.77000000000E+02 0.  0.
<mgrwt>
<rscale>  0 0.30010049E+03</rscale>
<asrwt>0</asrwt>
<pdfrwt beam="1">  1        2 0.19071571E-01 0.30010049E+03</pdfrwt>
<pdfrwt beam="2">  1       -2 0.24092999E-01 0.30010049E+03</pdfrwt>
<totfact> 0.44442909E+03</totfact>
</mgrwt>
</event>
<event>
 4    1  0.6782240E-004  0.6311235E+03  0.7818608E-02  0.9842859E-01
         -2   -1    0    0    0  501 -0.00000000000E+00  0.00000000000E+00  0.32349738115E+02  0.32349738215E+02  0.25500000000E-02 0. -1.
          2   -1    0    0  501    0  0.00000000000E+00 -0.00000000000E+00 -0.30782081537E+04  0.30782081537E+04  0.25500000000E-02 0.  1.
    5000001    1    1    2    0    0 -0.12900452205E+03  0.24723344219E+03 -0.90177481003E+03  0.94704453414E+03  0.77000000000E+02 0.  0.
   -5000001    1    1    2    0    0  0.12900452205E+03 -0.24723344219E+03 -0.21440836056E+04  0.21635133578E+04  0.77000000000E+02 0.  0.
<mgrwt>
<rscale>  0 0.63112353E+03</rscale>
<asrwt>0</asrwt>
<pdfrwt beam="1">  1        2 0.43974384E+00 0.63112353E+03</pdfrwt>
<pdfrwt beam="2">  1       -2 0.46213931E-02 0.63112353E+03</pdfrwt>
<totfact> 0.52826575E+02</totfact>
</mgrwt>
</event>
<event>
 4    1  0.6782240E-004  0.3536326E+03  0.7818608E-02  0.1061134E+00
         -2   -1    0    0    0  501 -0.00000000000E+00  0.00000000000E+00  0.75054352347E+01  0.75054356678E+01  0.25500000000E-02 0. -1.
          2   -1    0    0  501    0  0.00000000000E+00 -0.00000000000E+00 -0.41655150347E+04  0.41655150347E+04  0.25500000000E-02 0.  1.
    5000001    1    1    2    0    0  0.21756938144E+02  0.15758812697E+03 -0.21410240571E+04  0.21483064016E+04  0.77000000000E+02 0.  0.
   -5000001    1    1    2    0    0 -0.21756938144E+02 -0.15758812697E+03 -0.20169855424E+04  0.20247140688E+04  0.77000000000E+02 0.  0.
<mgrwt>
<rscale>  0 0.35363260E+03</rscale>
<asrwt>0</asrwt>
<pdfrwt beam="1">  1        2 0.59507209E+00 0.35363260E+03</pdfrwt>
<pdfrwt beam="2">  1       -2 0.10722077E-02 0.35363260E+03</pdfrwt>
<totfact> 0.10655523E+03</totfact>
</mgrwt>
</event>
<event>
 4    1  0.6782240E-004  0.2186623E+03  0.7818608E-02  0.1134884E+00
         -2   -1    0    0    0  501 -0.00000000000E+00  0.00000000000E+00  0.12147905611E+04  0.12147905611E+04  0.25500000000E-02 0. -1.
          2   -1    0    0  501    0  0.00000000000E+00 -0.00000000000E+00 -0.98398016285E+01  0.98398019589E+01  0.25500000000E-02 0.  1.
    5000001    1    1    2    0    0 -0.34625899086E+02  0.49027678467E+02  0.87807920375E+03  0.88349009854E+03  0.77000000000E+02 0.  0.
   -5000001    1    1    2    0    0  0.34625899086E+02 -0.49027678467E+02  0.32687155568E+03  0.34114026449E+03  0.77000000000E+02 0.  0.
<mgrwt>
<rscale>  0 0.21866228E+03</rscale>
<asrwt>0</asrwt>
<pdfrwt beam="1">  1        2 0.14056858E-02 0.21866228E+03</pdfrwt>
<pdfrwt beam="2">  1       -2 0.17354153E+00 0.21866228E+03</pdfrwt>
<totfact> 0.19053227E+03</totfact>
</mgrwt>
</event>
<event>
 4    1  0.6782240E-004  0.4437797E+03  0.7818608E-02  0.1029593E+00
         -2   -1    0    0    0  501 -0.00000000000E+00  0.00000000000E+00  0.18596082502E+03  0.18596082504E+03  0.25500000000E-02 0.  1.
          2   -1    0    0  501    0  0.00000000000E+00 -0.00000000000E+00 -0.26476064255E+03  0.26476064257E+03  0.25500000000E-02 0. -1.
    5000001    1    1    2    0    0  0.13437919217E+03 -0.13468538295E+03 -0.12502878633E+03  0.24033126530E+03  0.77000000000E+02 0.  0.
   -5000001    1    1    2    0    0 -0.13437919217E+03  0.13468538295E+03  0.46228968800E+02  0.21039020231E+03  0.77000000000E+02 0.  0.
<mgrwt>
<rscale>  0 0.44377971E+03</rscale>
<asrwt>0</asrwt>
<pdfrwt beam="1">  1        2 0.37822949E-01 0.44377971E+03</pdfrwt>
<pdfrwt beam="2">  1       -2 0.26565832E-01 0.44377971E+03</pdfrwt>
<totfact> 0.17466242E+03</totfact>
</mgrwt>
</event>
<event>
 4    1  0.6782240E-004  0.3052296E+03  0.7818608E-02  0.1082655E+00
         -2   -1    0    0    0  501 -0.00000000000E+00  0.00000000000E+00  0.10699161106E+03  0.10699161109E+03  0.25500000000E-02 0.  1.
          2   -1    0    0  501    0  0.00000000000E+00 -0.00000000000E+00 -0.21769250436E+03  0.21769250438E+03  0.25500000000E-02 0. -1.
    5000001    1    1    2    0    0  0.11473505919E+03  0.63301297631E+02 -0.70054810419E+02  0.16735550350E+03  0.77000000000E+02 0.  0.
   -5000001    1    1    2    0    0 -0.11473505919E+03 -0.63301297631E+02 -0.40646082880E+02  0.15732861197E+03  0.77000000000E+02 0.  0.
<mgrwt>
<rscale>  0 0.30522956E+03</rscale>
<asrwt>0</asrwt>
<pdfrwt beam="1">  1        2 0.31098929E-01 0.30522956E+03</pdfrwt>
<pdfrwt beam="2">  1       -2 0.15284516E-01 0.30522956E+03</pdfrwt>
<totfact> 0.55780418E+03</totfact>
</mgrwt>
</event>
<event>
 4    1  0.6782240E-004  0.2137975E+03  0.7818608E-02  0.1138594E+00
          2   -1    0    0  501    0  0.00000000000E+00  0.00000000000E+00  0.65033632593E+03  0.65033632593E+03  0.25500000000E-02 0.  1.
         -2   -1    0    0    0  501 -0.00000000000E+00 -0.00000000000E+00 -0.17571431128E+02  0.17571431313E+02  0.25500000000E-02 0. -1.
    5000001    1    1    2    0    0  0.39374896607E+02  0.62748446304E+02  0.32654873681E+03  0.34358525508E+03  0.77000000000E+02 0.  0.
   -5000001    1    1    2    0    0 -0.39374896607E+02 -0.62748446304E+02  0.30621615799E+03  0.32432250216E+03  0.77000000000E+02 0.  0.
<mgrwt>
<rscale>  0 0.21379747E+03</rscale>
<asrwt>0</asrwt>
<pdfrwt beam="1">  1        2 0.92905176E-01 0.21379747E+03</pdfrwt>
<pdfrwt beam="2">  1       -2 0.25102048E-02 0.21379747E+03</pdfrwt>
<totfact> 0.27001894E+04</totfact>
</mgrwt>
</event>
<event>
 4    1  0.6782240E-004  0.1934156E+03  0.7818608E-02  0.1155416E+00
          2   -1    0    0  501    0  0.00000000000E+00  0.00000000000E+00  0.28171382201E+04  0.28171382201E+04  0.25500000000E-02 0.  1.
         -2   -1    0    0    0  501 -0.00000000000E+00 -0.00000000000E+00 -0.33198207897E+01  0.33198217690E+01  0.25500000000E-02 0. -1.
    5000001    1    1    2    0    0 -0.36376234169E+02 -0.41762894328E+02  0.16820587875E+04  0.16847308789E+04  0.77000000000E+02 0.  0.
   -5000001    1    1    2    0    0  0.36376234169E+02  0.41762894328E+02  0.11317596118E+04  0.11357271630E+04  0.77000000000E+02 0.  0.
<mgrwt>
<rscale>  0 0.19341557E+03</rscale>
<asrwt>0</asrwt>
<pdfrwt beam="1">  1        2 0.40245101E+00 0.19341557E+03</pdfrwt>
<pdfrwt beam="2">  1       -2 0.47425701E-03 0.19341557E+03</pdfrwt>
<totfact> 0.21495432E+04</totfact>
</mgrwt>
</event>
<event>
 4    1  0.6782240E-004  0.2048082E+03  0.7818608E-02  0.1145745E+00
          2   -1    0    0  501    0  0.00000000000E+00  0.00000000000E+00  0.36429393383E+03  0.36429393384E+03  0.25500000000E-02 0.  1.
         -2   -1    0    0    0  501 -0.00000000000E+00 -0.00000000000E+00 -0.28786083567E+02  0.28786083680E+02  0.25500000000E-02 0. -1.
    5000001    1    1    2    0    0  0.26610729994E+02  0.62014521829E+02  0.17142757929E+03  0.19967560394E+03  0.77000000000E+02 0.  0.
   -5000001    1    1    2    0    0 -0.26610729994E+02 -0.62014521829E+02  0.16408027097E+03  0.19340441358E+03  0.77000000000E+02 0.  0.
<mgrwt>
<rscale>  0 0.20480816E+03</rscale>
<asrwt>0</asrwt>
<pdfrwt beam="1">  1        2 0.52041991E-01 0.20480816E+03</pdfrwt>
<pdfrwt beam="2">  1       -2 0.41122976E-02 0.20480816E+03</pdfrwt>
<totfact> 0.24477260E+04</totfact>
</mgrwt>
</event>
<event>
 4    1  0.6782240E-004  0.1756652E+03  0.7818608E-02  0.1172065E+00
          2   -1    0    0  501    0  0.00000000000E+00  0.00000000000E+00  0.83293169422E+02  0.83293169461E+02  0.25500000000E-02 0.  1.
         -2   -1    0    0    0  501 -0.00000000000E+00 -0.00000000000E+00 -0.92619457628E+02  0.92619457663E+02  0.25500000000E-02 0. -1.
    5000001    1    1    2    0    0 -0.29184421024E+02  0.21505779771E+02  0.17077779143E+02  0.86803683876E+02  0.77000000000E+02 0.  0.
   -5000001    1    1    2    0    0  0.29184421024E+02 -0.21505779771E+02 -0.26404067349E+02  0.89108943247E+02  0.77000000000E+02 0.  0.
<mgrwt>
<rscale>  0 0.17566523E+03</rscale>
<asrwt>0</asrwt>
<pdfrwt beam="1">  1        2 0.11899024E-01 0.17566523E+03</pdfrwt>
<pdfrwt beam="2">  1       -2 0.13231351E-01 0.17566523E+03</pdfrwt>
<totfact> 0.20642266E+04</totfact>
</mgrwt>
</event>
<event>
 4    1  0.6782240E-004  0.2499952E+03  0.7818608E-02  0.1113308E+00
          2   -1    0    0  501    0  0.00000000000E+00  0.00000000000E+00  0.69391504193E+02  0.69391504239E+02  0.25500000000E-02 0.  1.
         -2   -1    0    0    0  501 -0.00000000000E+00 -0.00000000000E+00 -0.22516292371E+03  0.22516292373E+03  0.25500000000E-02 0. -1.
    5000001    1    1    2    0    0 -0.57436912312E+02  0.70807571109E+02 -0.34073488379E+02  0.12410766952E+03  0.77000000000E+02 0.  0.
   -5000001    1    1    2    0    0  0.57436912312E+02 -0.70807571109E+02 -0.12169793114E+03  0.17044675845E+03  0.77000000000E+02 0.  0.
<mgrwt>
<rscale>  0 0.24999515E+03</rscale>
<asrwt>0</asrwt>
<pdfrwt beam="1">  1        2 0.99130721E-02 0.24999515E+03</pdfrwt>
<pdfrwt beam="2">  1       -2 0.32166132E-01 0.24999515E+03</pdfrwt>
<totfact> 0.57550021E+03</totfact>
</mgrwt>
</event>
<event>
 4    1  0.6782240E-004  0.2395698E+03  0.7818608E-02  0.1120080E+00
         -2   -1    0    0    0  501 -0.00000000000E+00  0.00000000000E+00  0.36013333032E+02  0.36013333123E+02  0.25500000000E-02 0. -1.
          2   -1    0    0  501    0  0.00000000000E+00 -0.00000000000E+00 -0.39841978911E+03  0.39841978911E+03  0.25500000000E-02 0.  1.
    5000001    1    1    2    0    0  0.77454979965E+02 -0.37492155389E+02 -0.23896153863E+03  0.26539885565E+03  0.77000000000E+02 0.  0.
   -5000001    1    1    2    0    0 -0.77454979965E+02  0.37492155389E+02 -0.12344491744E+03  0.16903426659E+03  0.77000000000E+02 0.  0.
<mgrwt>
<rscale>  0 0.23956982E+03</rscale>
<asrwt>0</asrwt>
<pdfrwt beam="1">  1        2 0.56917110E-01 0.23956982E+03</pdfrwt>
<pdfrwt beam="2">  1       -2 0.51447621E-02 0.23956982E+03</pdfrwt>
<totfact> 0.16024483E+04</totfact>
</mgrwt>
</event>
<event>
 4    1  0.6782240E-004  0.2576219E+03  0.7818608E-02  0.1108581E+00
         -2   -1    0    0    0  501 -0.00000000000E+00  0.00000000000E+00  0.24323360509E+03  0.24323360510E+03  0.25500000000E-02 0. -1.
          2   -1    0    0  501    0  0.00000000000E+00 -0.00000000000E+00 -0.68215315876E+02  0.68215315924E+02  0.25500000000E-02 0.  1.
    5000001    1    1    2    0    0 -0.88357027551E+02  0.52028831133E+02  0.72737640089E+02  0.14742363404E+03  0.77000000000E+02 0.  0.
   -5000001    1    1    2    0    0  0.88357027551E+02 -0.52028831133E+02  0.10228064912E+03  0.16402528699E+03  0.77000000000E+02 0.  0.
<mgrwt>
<rscale>  0 0.25762187E+03</rscale>
<asrwt>0</asrwt>
<pdfrwt beam="1">  1        2 0.97450454E-02 0.25762187E+03</pdfrwt>
<pdfrwt beam="2">  1       -2 0.34747657E-01 0.25762187E+03</pdfrwt>
<totfact> 0.51038397E+03</totfact>
</mgrwt>
</event>
<event>
 4    1  0.6782240E-004  0.1942954E+03  0.7818608E-02  0.1154643E+00
         -2   -1    0    0    0  501 -0.00000000000E+00  0.00000000000E+00  0.32891703020E+02  0.32891703118E+02  0.25500000000E-02 0. -1.
          2   -1    0    0  501    0  0.00000000000E+00 -0.00000000000E+00 -0.28693175576E+03  0.28693175577E+03  0.25500000000E-02 0.  1.
    5000001    1    1    2    0    0  0.50936329204E+02  0.29644998253E+02 -0.11723476882E+03  0.15213916844E+03  0.77000000000E+02 0.  0.
   -5000001    1    1    2    0    0 -0.50936329204E+02 -0.29644998253E+02 -0.13680528393E+03  0.16768429045E+03  0.77000000000E+02 0.  0.
<mgrwt>
<rscale>  0 0.19429538E+03</rscale>
<asrwt>0</asrwt>
<pdfrwt beam="1">  1        2 0.40990249E-01 0.19429538E+03</pdfrwt>
<pdfrwt beam="2">  1       -2 0.46988149E-02 0.19429538E+03</pdfrwt>
<totfact> 0.25753523E+04</totfact>
</mgrwt>
</event>
<event>
 4    1  0.6782240E-004  0.2151956E+03  0.7818608E-02  0.1137516E+00
          2   -1    0    0  501    0  0.00000000000E+00  0.00000000000E+00  0.12282690394E+04  0.12282690394E+04  0.25500000000E-02 0.  1.
         -2   -1    0    0    0  501 -0.00000000000E+00 -0.00000000000E+00 -0.94256882233E+01  0.94256885682E+01  0.25500000000E-02 0. -1.
    5000001    1    1    2    0    0  0.23918788014E+02  0.50105131052E+02  0.31809594424E+03  0.33195882624E+03  0.77000000000E+02 0.  0.
   -5000001    1    1    2    0    0 -0.23918788014E+02 -0.50105131052E+02  0.90074740692E+03  0.90573590171E+03  0.77000000000E+02 0.  0.
<mgrwt>
<rscale>  0 0.21519555E+03</rscale>
<asrwt>0</asrwt>
<pdfrwt beam="1">  1        2 0.17546678E+00 0.21519555E+03</pdfrwt>
<pdfrwt beam="2">  1       -2 0.13465286E-02 0.21519555E+03</pdfrwt>
<totfact> 0.29397223E+04</totfact>
</mgrwt>
</event>
<event>
 4    1  0.6782240E-004  0.5723248E+03  0.7818608E-02  0.9964547E-01
         -2   -1    0    0    0  501 -0.00000000000E+00  0.00000000000E+00  0.41629084079E+02  0.41629084157E+02  0.25500000000E-02 0. -1.
          2   -1    0    0  501    0  0.00000000000E+00 -0.00000000000E+00 -0.19671081599E+04  0.19671081599E+04  0.25500000000E-02 0.  1.
    5000001    1    1    2    0    0  0.26041559823E+03 -0.76868534777E+02 -0.79681702228E+03  0.84532326505E+03  0.77000000000E+02 0.  0.
   -5000001    1    1    2    0    0 -0.26041559823E+03  0.76868534777E+02 -0.11286620535E+04  0.11634139790E+04  0.77000000000E+02 0.  0.
<mgrwt>
<rscale>  0 0.57232477E+03</rscale>
<asrwt>0</asrwt>
<pdfrwt beam="1">  1        2 0.28101539E+00 0.57232477E+03</pdfrwt>
<pdfrwt beam="2">  1       -2 0.59470133E-02 0.57232477E+03</pdfrwt>
<totfact> 0.13496256E+03</totfact>
</mgrwt>
</event>
<event>
 4    1  0.6782240E-004  0.2343165E+03  0.7818608E-02  0.1123638E+00
         -2   -1    0    0    0  501 -0.00000000000E+00  0.00000000000E+00  0.61539522755E+01  0.61539528038E+01  0.25500000000E-02 0. -1.
          2   -1    0    0  501    0  0.00000000000E+00 -0.00000000000E+00 -0.22304459331E+04  0.22304459331E+04  0.25500000000E-02 0.  1.
    5000001    1    1    2    0    0 -0.25767973490E+02 -0.58182113081E+02 -0.16965054183E+04  0.16994436681E+04  0.77000000000E+02 0.  0.
   -5000001    1    1    2    0    0  0.25767973490E+02  0.58182113081E+02 -0.52778656253E+03  0.53715621781E+03  0.77000000000E+02 0.  0.
<mgrwt>
<rscale>  0 0.23431652E+03</rscale>
<asrwt>0</asrwt>
<pdfrwt beam="1">  1        2 0.31863462E+00 0.23431652E+03</pdfrwt>
<pdfrwt beam="2">  1       -2 0.87913751E-03 0.23431652E+03</pdfrwt>
<totfact> 0.17437566E+04</totfact>
</mgrwt>
</event>
<event>
 4    1  0.6782240E-004  0.4747763E+03  0.7818608E-02  0.1020581E+00
          2   -1    0    0  501    0  0.00000000000E+00  0.00000000000E+00  0.31028038198E+04  0.31028038198E+04  0.25500000000E-02 0.  1.
         -2   -1    0    0    0  501 -0.00000000000E+00 -0.00000000000E+00 -0.18162003736E+02  0.18162003915E+02  0.25500000000E-02 0. -1.
    5000001    1    1    2    0    0 -0.60589096168E+02 -0.16161890150E+03  0.59809669012E+03  0.62724824322E+03  0.77000000000E+02 0.  0.
   -5000001    1    1    2    0    0  0.60589096168E+02  0.16161890150E+03  0.24865451260E+04  0.24937175805E+04  0.77000000000E+02 0.  0.
<mgrwt>
<rscale>  0 0.47477630E+03</rscale>
<asrwt>0</asrwt>
<pdfrwt beam="1">  1        2 0.44325748E+00 0.47477630E+03</pdfrwt>
<pdfrwt beam="2">  1       -2 0.25945732E-02 0.47477630E+03</pdfrwt>
<totfact> 0.12541435E+03</totfact>
</mgrwt>
</event>
<event>
 4    1  0.6782240E-004  0.1647022E+03  0.7818608E-02  0.1183488E+00
         -2   -1    0    0    0  501 -0.00000000000E+00  0.00000000000E+00  0.58731657884E+02  0.58731657939E+02  0.25500000000E-02 0. -1.
          2   -1    0    0  501    0  0.00000000000E+00 -0.00000000000E+00 -0.11546936568E+03  0.11546936571E+03  0.25500000000E-02 0.  1.
    5000001    1    1    2    0    0  0.27782619335E+02 -0.76608972040E+01 -0.33345987219E+02  0.88721576557E+02  0.77000000000E+02 0.  0.
   -5000001    1    1    2    0    0 -0.27782619335E+02  0.76608972040E+01 -0.23391720575E+02  0.85479447088E+02  0.77000000000E+02 0.  0.
<mgrwt>
<rscale>  0 0.16470224E+03</rscale>
<asrwt>0</asrwt>
<pdfrwt beam="1">  1        2 0.16495624E-01 0.16470224E+03</pdfrwt>
<pdfrwt beam="2">  1       -2 0.83902369E-02 0.16470224E+03</pdfrwt>
<totfact> 0.28682893E+04</totfact>
</mgrwt>
</event>
<event>
 4    1  0.6782240E-004  0.1810054E+03  0.7818608E-02  0.1166834E+00
          2   -1    0    0  501    0  0.00000000000E+00  0.00000000000E+00  0.77940416715E+03  0.77940416716E+03  0.25500000000E-02 0.  1.
         -2   -1    0    0    0  501 -0.00000000000E+00 -0.00000000000E+00 -0.10508972320E+02  0.10508972629E+02  0.25500000000E-02 0. -1.
    5000001    1    1    2    0    0  0.25604061345E+02  0.33840082067E+02  0.29074606038E+03  0.30374823578E+03  0.77000000000E+02 0.  0.
   -5000001    1    1    2    0    0 -0.25604061345E+02 -0.33840082067E+02  0.47814913445E+03  0.48616490401E+03  0.77000000000E+02 0.  0.
<mgrwt>
<rscale>  0 0.18100538E+03</rscale>
<asrwt>0</asrwt>
<pdfrwt beam="1">  1        2 0.11134349E+00 0.18100538E+03</pdfrwt>
<pdfrwt beam="2">  1       -2 0.15012812E-02 0.18100538E+03</pdfrwt>
<totfact> 0.45595454E+04</totfact>
</mgrwt>
</event>
<event>
 4    1  0.6782240E-004  0.2110845E+03  0.7818608E-02  0.1140710E+00
          2   -1    0    0  501    0  0.00000000000E+00  0.00000000000E+00  0.41594525781E+03  0.41594525782E+03  0.25500000000E-02 0.  1.
         -2   -1    0    0    0  501 -0.00000000000E+00 -0.00000000000E+00 -0.26780355683E+02  0.26780355805E+02  0.25500000000E-02 0. -1.
    5000001    1    1    2    0    0 -0.69832690034E+02  0.67987041135E+00  0.23286162455E+03  0.25501098606E+03  0.77000000000E+02 0.  0.
   -5000001    1    1    2    0    0  0.69832690034E+02 -0.67987041135E+00  0.15630327757E+03  0.18771462756E+03  0.77000000000E+02 0.  0.
<mgrwt>
<rscale>  0 0.21108446E+03</rscale>
<asrwt>0</asrwt>
<pdfrwt beam="1">  1        2 0.59420752E-01 0.21108446E+03</pdfrwt>
<pdfrwt beam="2">  1       -2 0.38257651E-02 0.21108446E+03</pdfrwt>
<totfact> 0.23702816E+04</totfact>
</mgrwt>
</event>
<event>
 4    1  0.6782240E-004  0.2919063E+03  0.7818608E-02  0.1089358E+00
         -2   -1    0    0    0  501 -0.00000000000E+00  0.00000000000E+00  0.28248694670E+02  0.28248694785E+02  0.25500000000E-02 0. -1.
          2   -1    0    0  501    0  0.00000000000E+00 -0.00000000000E+00 -0.75409926079E+03  0.75409926080E+03  0.25500000000E-02 0.  1.
    5000001    1    1    2    0    0 -0.39891785362E+02 -0.11429013583E+03 -0.43482734549E+03  0.45788362066E+03  0.77000000000E+02 0.  0.
   -5000001    1    1    2    0    0  0.39891785362E+02  0.11429013583E+03 -0.29102322063E+03  0.32446433492E+03  0.77000000000E+02 0.  0.
<mgrwt>
<rscale>  0 0.29190629E+03</rscale>
<asrwt>0</asrwt>
<pdfrwt beam="1">  1        2 0.10772845E+00 0.29190629E+03</pdfrwt>
<pdfrwt beam="2">  1       -2 0.40355283E-02 0.29190629E+03</pdfrwt>
<totfact> 0.11357335E+04</totfact>
</mgrwt>
</event>
<event>
 4    1  0.6782240E-004  0.2823994E+03  0.7818608E-02  0.1094386E+00
          2   -1    0    0  501    0  0.00000000000E+00  0.00000000000E+00  0.12246826639E+03  0.12246826642E+03  0.25500000000E-02 0.  1.
         -2   -1    0    0    0  501 -0.00000000000E+00 -0.00000000000E+00 -0.16279611979E+03  0.16279611981E+03  0.25500000000E-02 0. -1.
    5000001    1    1    2    0    0 -0.42547221179E+02  0.11001063223E+03 -0.10279289909E+02  0.14123480107E+03  0.77000000000E+02 0.  0.
   -5000001    1    1    2    0    0  0.42547221179E+02 -0.11001063223E+03 -0.30048563490E+02  0.14402958516E+03  0.77000000000E+02 0.  0.
<mgrwt>
<rscale>  0 0.28239942E+03</rscale>
<asrwt>0</asrwt>
<pdfrwt beam="1">  1        2 0.17495467E-01 0.28239942E+03</pdfrwt>
<pdfrwt beam="2">  1       -2 0.23256589E-01 0.28239942E+03</pdfrwt>
<totfact> 0.52154503E+03</totfact>
</mgrwt>
</event>
<event>
 4    1  0.6782240E-004  0.2221465E+03  0.7818608E-02  0.1132293E+00
          2   -1    0    0  501    0  0.00000000000E+00  0.00000000000E+00  0.83948381858E+03  0.83948381859E+03  0.25500000000E-02 0.  1.
         -2   -1    0    0    0  501 -0.00000000000E+00 -0.00000000000E+00 -0.14696251736E+02  0.14696251957E+02  0.25500000000E-02 0. -1.
    5000001    1    1    2    0    0  0.11550815933E+02 -0.78294081228E+02  0.36611138297E+03  0.38240022129E+03  0.77000000000E+02 0.  0.
   -5000001    1    1    2    0    0 -0.11550815933E+02  0.78294081228E+02  0.45867618388E+03  0.47177984925E+03  0.77000000000E+02 0.  0.
<mgrwt>
<rscale>  0 0.22214649E+03</rscale>
<asrwt>0</asrwt>
<pdfrwt beam="1">  1        2 0.11992626E+00 0.22214649E+03</pdfrwt>
<pdfrwt beam="2">  1       -2 0.20994646E-02 0.22214649E+03</pdfrwt>
<totfact> 0.25914352E+04</totfact>
</mgrwt>
</event>
<event>
 4    1  0.6782240E-004  0.3966643E+03  0.7818608E-02  0.1044941E+00
         -2   -1    0    0    0  501 -0.00000000000E+00  0.00000000000E+00  0.18479936385E+02  0.18479936561E+02  0.25500000000E-02 0. -1.
          2   -1    0    0  501    0  0.00000000000E+00 -0.00000000000E+00 -0.21285596444E+04  0.21285596444E+04  0.25500000000E-02 0.  1.
    5000001    1    1    2    0    0 -0.24348015171E+02 -0.17187801336E+03 -0.13646450699E+04  0.13777953564E+04  0.77000000000E+02 0.  0.
   -5000001    1    1    2    0    0  0.24348015171E+02  0.17187801336E+03 -0.74543463813E+03  0.76924422458E+03  0.77000000000E+02 0.  0.
<mgrwt>
<rscale>  0 0.39666433E+03</rscale>
<asrwt>0</asrwt>
<pdfrwt beam="1">  1        2 0.30407979E+00 0.39666433E+03</pdfrwt>
<pdfrwt beam="2">  1       -2 0.26399923E-02 0.39666433E+03</pdfrwt>
<totfact> 0.39075916E+03</totfact>
</mgrwt>
</event>
<event>
 4    1  0.6782240E-004  0.2680980E+03  0.7818608E-02  0.1102373E+00
         -2   -1    0    0    0  501 -0.00000000000E+00  0.00000000000E+00  0.42952617972E+02  0.42952618048E+02  0.25500000000E-02 0. -1.
          2   -1    0    0  501    0  0.00000000000E+00 -0.00000000000E+00 -0.41834769706E+03  0.41834769707E+03  0.25500000000E-02 0.  1.
    5000001    1    1    2    0    0 -0.11577630806E+02 -0.10804982766E+03 -0.21386723981E+03  0.25194642895E+03  0.77000000000E+02 0.  0.
   -5000001    1    1    2    0    0  0.11577630806E+02  0.10804982766E+03 -0.16152783927E+03  0.20935388617E+03  0.77000000000E+02 0.  0.
<mgrwt>
<rscale>  0 0.26809796E+03</rscale>
<asrwt>0</asrwt>
<pdfrwt beam="1">  1        2 0.59763954E-01 0.26809796E+03</pdfrwt>
<pdfrwt beam="2">  1       -2 0.61360885E-02 0.26809796E+03</pdfrwt>
<totfact> 0.11683262E+04</totfact>
</mgrwt>
</event>
<event>
 4    1  0.6782240E-004  0.3050011E+03  0.7818608E-02  0.1082767E+00
          2   -1    0    0  501    0  0.00000000000E+00  0.00000000000E+00  0.19374438882E+03  0.19374438884E+03  0.25500000000E-02 0.  1.
         -2   -1    0    0    0  501 -0.00000000000E+00 -0.00000000000E+00 -0.12003659558E+03  0.12003659561E+03  0.25500000000E-02 0. -1.
    5000001    1    1    2    0    0 -0.11525472562E+03  0.39434484956E+02  0.88176693719E+02  0.16894632194E+03  0.77000000000E+02 0.  0.
   -5000001    1    1    2    0    0  0.11525472562E+03 -0.39434484956E+02 -0.14468900482E+02  0.14483466251E+03  0.77000000000E+02 0.  0.
<mgrwt>
<rscale>  0 0.30500109E+03</rscale>
<asrwt>0</asrwt>
<pdfrwt beam="1">  1        2 0.27677770E-01 0.30500109E+03</pdfrwt>
<pdfrwt beam="2">  1       -2 0.17148085E-01 0.30500109E+03</pdfrwt>
<totfact> 0.52342459E+03</totfact>
</mgrwt>
</event>
<event>
 4    1  0.6782240E-004  0.2627802E+03  0.7818608E-02  0.1105484E+00
          2   -1    0    0  501    0  0.00000000000E+00  0.00000000000E+00  0.11773382936E+04  0.11773382936E+04  0.25500000000E-02 0.  1.
         -2   -1    0    0    0  501 -0.00000000000E+00 -0.00000000000E+00 -0.14663035064E+02  0.14663035286E+02  0.25500000000E-02 0. -1.
    5000001    1    1    2    0    0  0.75491732190E+02  0.73140540991E+02  0.50465010065E+03  0.52119983159E+03  0.77000000000E+02 0.  0.
   -5000001    1    1    2    0    0 -0.75491732190E+02 -0.73140540991E+02  0.65802515790E+03  0.67080149731E+03  0.77000000000E+02 0.  0.
<mgrwt>
<rscale>  0 0.26278016E+03</rscale>
<asrwt>0</asrwt>
<pdfrwt beam="1">  1        2 0.16819121E+00 0.26278016E+03</pdfrwt>
<pdfrwt beam="2">  1       -2 0.20947190E-02 0.26278016E+03</pdfrwt>
<totfact> 0.16584215E+04</totfact>
</mgrwt>
</event>
<event>
 4    1  0.6782240E-004  0.2098734E+03  0.7818608E-02  0.1141666E+00
          2   -1    0    0  501    0  0.00000000000E+00  0.00000000000E+00  0.28065362955E+04  0.28065362955E+04  0.25500000000E-02 0.  1.
         -2   -1    0    0    0  501 -0.00000000000E+00 -0.00000000000E+00 -0.39235930133E+01  0.39235938419E+01  0.25500000000E-02 0. -1.
    5000001    1    1    2    0    0 -0.74527648526E+01  0.63489943815E+02  0.97864619827E+03  0.98374991642E+03  0.77000000000E+02 0.  0.
   -5000001    1    1    2    0    0  0.74527648526E+01 -0.63489943815E+02  0.18239665042E+04  0.18267099729E+04  0.77000000000E+02 0.  0.
<mgrwt>
<rscale>  0 0.20987337E+03</rscale>
<asrwt>0</asrwt>
<pdfrwt beam="1">  1        2 0.40093393E+00 0.20987337E+03</pdfrwt>
<pdfrwt beam="2">  1       -2 0.56051311E-03 0.20987337E+03</pdfrwt>
<totfact> 0.17178852E+04</totfact>
</mgrwt>
</event>
<event>
 4    1  0.6782240E-004  0.3261037E+03  0.7818608E-02  0.1072874E+00
         -2   -1    0    0    0  501 -0.00000000000E+00  0.00000000000E+00  0.17349192438E+02  0.17349192626E+02  0.25500000000E-02 0. -1.
          2   -1    0    0  501    0  0.00000000000E+00 -0.00000000000E+00 -0.15324004369E+04  0.15324004369E+04  0.25500000000E-02 0.  1.
    5000001    1    1    2    0    0 -0.13236635612E+03  0.53562828365E+01 -0.10224379315E+04  0.10338558245E+04  0.77000000000E+02 0.  0.
   -5000001    1    1    2    0    0  0.13236635612E+03 -0.53562828365E+01 -0.49261331292E+03  0.51589380503E+03  0.77000000000E+02 0.  0.
<mgrwt>
<rscale>  0 0.32610373E+03</rscale>
<asrwt>0</asrwt>
<pdfrwt beam="1">  1        2 0.21891426E+00 0.32610373E+03</pdfrwt>
<pdfrwt beam="2">  1       -2 0.24784570E-02 0.32610373E+03</pdfrwt>
<totfact> 0.84842646E+03</totfact>
</mgrwt>
</event>
<event>
 4    1  0.6782240E-004  0.1590195E+03  0.7818608E-02  0.1189808E+00
          2   -1    0    0  501    0  0.00000000000E+00  0.00000000000E+00  0.26207461676E+03  0.26207461677E+03  0.25500000000E-02 0.  1.
         -2   -1    0    0    0  501 -0.00000000000E+00 -0.00000000000E+00 -0.24122138979E+02  0.24122139114E+02  0.25500000000E-02 0. -1.
    5000001    1    1    2    0    0  0.10151608391E+00 -0.56946451738E+01  0.15314138252E+03  0.17150429245E+03  0.77000000000E+02 0.  0.
   -5000001    1    1    2    0    0 -0.10151608391E+00  0.56946451738E+01  0.84811095262E+02  0.11469246343E+03  0.77000000000E+02 0.  0.
<mgrwt>
<rscale>  0 0.15901950E+03</rscale>
<asrwt>0</asrwt>
<pdfrwt beam="1">  1        2 0.37439234E-01 0.15901950E+03</pdfrwt>
<pdfrwt beam="2">  1       -2 0.34460196E-02 0.15901950E+03</pdfrwt>
<totfact> 0.44256474E+04</totfact>
</mgrwt>
</event>
<event>
 4    1  0.6782240E-004  0.1855415E+03  0.7818608E-02  0.1162545E+00
          2   -1    0    0  501    0  0.00000000000E+00  0.00000000000E+00  0.46161770423E+03  0.46161770423E+03  0.25500000000E-02 0.  1.
         -2   -1    0    0    0  501 -0.00000000000E+00 -0.00000000000E+00 -0.18644030096E+02  0.18644030270E+02  0.25500000000E-02 0. -1.
    5000001    1    1    2    0    0 -0.40907843709E+02 -0.63479793076E+00  0.30348582338E+03  0.31576336019E+03  0.77000000000E+02 0.  0.
   -5000001    1    1    2    0    0  0.40907843709E+02  0.63479793076E+00  0.13948785075E+03  0.16449837432E+03  0.77000000000E+02 0.  0.
<mgrwt>
<rscale>  0 0.18554153E+03</rscale>
<asrwt>0</asrwt>
<pdfrwt beam="1">  1        2 0.65945385E-01 0.18554153E+03</pdfrwt>
<pdfrwt beam="2">  1       -2 0.26634330E-02 0.18554153E+03</pdfrwt>
<totfact> 0.35865759E+04</totfact>
</mgrwt>
</event>
<event>
 4    1  0.6782240E-004  0.2842330E+03  0.7818608E-02  0.1093399E+00
          2   -1    0    0  501    0  0.00000000000E+00  0.00000000000E+00  0.72797665197E+03  0.72797665197E+03  0.25500000000E-02 0.  1.
         -2   -1    0    0    0  501 -0.00000000000E+00 -0.00000000000E+00 -0.27744155873E+02  0.27744155990E+02  0.25500000000E-02 0. -1.
    5000001    1    1    2    0    0 -0.18655881933E+02 -0.66504150796E+02  0.91005205550E+02  0.13777442230E+03  0.77000000000E+02 0.  0.
   -5000001    1    1    2    0    0  0.18655881933E+02  0.66504150796E+02  0.60922729054E+03  0.61794638566E+03  0.77000000000E+02 0.  0.
<mgrwt>
<rscale>  0 0.28423299E+03</rscale>
<asrwt>0</asrwt>
<pdfrwt beam="1">  1        2 0.10399665E+00 0.28423299E+03</pdfrwt>
<pdfrwt beam="2">  1       -2 0.39634515E-02 0.28423299E+03</pdfrwt>
<totfact> 0.12166201E+04</totfact>
</mgrwt>
</event>
<event>
 4    1  0.6782240E-004  0.2856150E+03  0.7818608E-02  0.1092661E+00
          2   -1    0    0  501    0  0.00000000000E+00  0.00000000000E+00  0.91715416484E+03  0.91715416484E+03  0.25500000000E-02 0.  1.
         -2   -1    0    0    0  501 -0.00000000000E+00 -0.00000000000E+00 -0.22236153768E+02  0.22236153915E+02  0.25500000000E-02 0. -1.
    5000001    1    1    2    0    0 -0.46625325159E+02  0.84126564434E+02  0.20997110735E+03  0.24345033520E+03  0.77000000000E+02 0.  0.
   -5000001    1    1    2    0    0  0.46625325159E+02 -0.84126564434E+02  0.68494690372E+03  0.69593998355E+03  0.77000000000E+02 0.  0.
<mgrwt>
<rscale>  0 0.28561499E+03</rscale>
<asrwt>0</asrwt>
<pdfrwt beam="1">  1        2 0.13102204E+00 0.28561499E+03</pdfrwt>
<pdfrwt beam="2">  1       -2 0.31765929E-02 0.28561499E+03</pdfrwt>
<totfact> 0.12697441E+04</totfact>
</mgrwt>
</event>
<event>
 4    1  0.6782240E-004  0.2148681E+03  0.7818608E-02  0.1137768E+00
         -2   -1    0    0    0  501 -0.00000000000E+00  0.00000000000E+00  0.31382970688E+01  0.31382981048E+01  0.25500000000E-02 0. -1.
          2   -1    0    0  501    0  0.00000000000E+00 -0.00000000000E+00 -0.36778133927E+04  0.36778133927E+04  0.25500000000E-02 0.  1.
    5000001    1    1    2    0    0 -0.46250643425E+02  0.54917766140E+02 -0.14707175597E+04  0.14744810014E+04  0.77000000000E+02 0.  0.
   -5000001    1    1    2    0    0  0.46250643425E+02 -0.54917766140E+02 -0.22039575358E+04  0.22064706893E+04  0.77000000000E+02 0.  0.
<mgrwt>
<rscale>  0 0.21486808E+03</rscale>
<asrwt>0</asrwt>
<pdfrwt beam="1">  1        2 0.52539915E+00 0.21486808E+03</pdfrwt>
<pdfrwt beam="2">  1       -2 0.44833058E-03 0.21486808E+03</pdfrwt>
<totfact> 0.78551477E+03</totfact>
</mgrwt>
</event>
<event>
 4    1  0.6782240E-004  0.2210604E+03  0.7818608E-02  0.1133095E+00
         -2   -1    0    0    0  501 -0.00000000000E+00  0.00000000000E+00  0.34236662895E+02  0.34236662990E+02  0.25500000000E-02 0. -1.
          2   -1    0    0  501    0  0.00000000000E+00 -0.00000000000E+00 -0.35683749248E+03  0.35683749249E+03  0.25500000000E-02 0.  1.
    5000001    1    1    2    0    0 -0.66414111314E+02 -0.30908967865E+02 -0.21500967867E+03  0.23984236573E+03  0.77000000000E+02 0.  0.
   -5000001    1    1    2    0    0  0.66414111314E+02  0.30908967865E+02 -0.10759115091E+03  0.15123178975E+03  0.77000000000E+02 0.  0.
<mgrwt>
<rscale>  0 0.22106040E+03</rscale>
<asrwt>0</asrwt>
<pdfrwt beam="1">  1        2 0.50976783E-01 0.22106040E+03</pdfrwt>
<pdfrwt beam="2">  1       -2 0.48909520E-02 0.22106040E+03</pdfrwt>
<totfact> 0.19381266E+04</totfact>
</mgrwt>
</event>
<event>
 4    1  0.6782240E-004  0.2033236E+03  0.7818608E-02  0.1146965E+00
         -2   -1    0    0    0  501 -0.00000000000E+00  0.00000000000E+00  0.34332248339E+02  0.34332248434E+02  0.25500000000E-02 0. -1.
          2   -1    0    0  501    0  0.00000000000E+00 -0.00000000000E+00 -0.30103254955E+03  0.30103254956E+03  0.25500000000E-02 0.  1.
    5000001    1    1    2    0    0  0.46769309113E+02 -0.10643510709E+02 -0.57666106770E+02  0.10749433690E+03  0.77000000000E+02 0.  0.
   -5000001    1    1    2    0    0 -0.46769309113E+02  0.10643510709E+02 -0.20903419444E+03  0.22787046110E+03  0.77000000000E+02 0.  0.
<mgrwt>
<rscale>  0 0.20332363E+03</rscale>
<asrwt>0</asrwt>
<pdfrwt beam="1">  1        2 0.43004649E-01 0.20332363E+03</pdfrwt>
<pdfrwt beam="2">  1       -2 0.49046071E-02 0.20332363E+03</pdfrwt>
<totfact> 0.23014404E+04</totfact>
</mgrwt>
</event>
<event>
 4    1  0.6782240E-004  0.2332369E+03  0.7818608E-02  0.1124382E+00
          2   -1    0    0  501    0  0.00000000000E+00  0.00000000000E+00  0.48262127528E+03  0.48262127529E+03  0.25500000000E-02 0.  1.
         -2   -1    0    0    0  501 -0.00000000000E+00 -0.00000000000E+00 -0.28179168153E+02  0.28179168268E+02  0.25500000000E-02 0. -1.
    5000001    1    1    2    0    0  0.34862545304E+02 -0.72057930322E+02  0.30505640635E+03  0.32464773747E+03  0.77000000000E+02 0.  0.
   -5000001    1    1    2    0    0 -0.34862545304E+02  0.72057930322E+02  0.14938570078E+03  0.18615270609E+03  0.77000000000E+02 0.  0.
<mgrwt>
<rscale>  0 0.23323693E+03</rscale>
<asrwt>0</asrwt>
<pdfrwt beam="1">  1        2 0.68945897E-01 0.23323693E+03</pdfrwt>
<pdfrwt beam="2">  1       -2 0.40255954E-02 0.23323693E+03</pdfrwt>
<totfact> 0.18813493E+04</totfact>
</mgrwt>
</event>
<event>
 4    1  0.6782240E-004  0.4019178E+03  0.7818608E-02  0.1043118E+00
          2   -1    0    0  501    0  0.00000000000E+00  0.00000000000E+00  0.38698087924E+02  0.38698088008E+02  0.25500000000E-02 0.  1.
         -2   -1    0    0    0  501 -0.00000000000E+00 -0.00000000000E+00 -0.10435782696E+04  0.10435782696E+04  0.25500000000E-02 0. -1.
    5000001    1    1    2    0    0 -0.13095779904E+03 -0.11072671161E+03 -0.69370586226E+03  0.71872607656E+03  0.77000000000E+02 0.  0.
   -5000001    1    1    2    0    0  0.13095779904E+03  0.11072671161E+03 -0.31117431945E+03  0.36355028109E+03  0.77000000000E+02 0.  0.
<mgrwt>
<rscale>  0 0.40191782E+03</rscale>
<asrwt>0</asrwt>
<pdfrwt beam="1">  1        2 0.55282989E-02 0.40191782E+03</pdfrwt>
<pdfrwt beam="2">  1       -2 0.14908259E+00 0.40191782E+03</pdfrwt>
<totfact> 0.44554656E+02</totfact>
</mgrwt>
</event>
<event>
 4    1  0.6782240E-004  0.7540436E+03  0.7818608E-02  0.9629028E-01
         -2   -1    0    0    0  501 -0.00000000000E+00  0.00000000000E+00  0.34171808250E+03  0.34171808251E+03  0.25500000000E-02 0. -1.
          2   -1    0    0  501    0  0.00000000000E+00 -0.00000000000E+00 -0.41597283965E+03  0.41597283966E+03  0.25500000000E-02 0.  1.
    5000001    1    1    2    0    0  0.16769679283E+03  0.29583904054E+03 -0.18125578805E+03  0.39297024433E+03  0.77000000000E+02 0.  0.
   -5000001    1    1    2    0    0 -0.16769679283E+03 -0.29583904054E+03  0.10700103090E+03  0.36472067784E+03  0.77000000000E+02 0.  0.
<mgrwt>
<rscale>  0 0.75404361E+03</rscale>
<asrwt>0</asrwt>
<pdfrwt beam="1">  1        2 0.59424691E-01 0.75404361E+03</pdfrwt>
<pdfrwt beam="2">  1       -2 0.48816869E-01 0.75404361E+03</pdfrwt>
<totfact> 0.33121462E+02</totfact>
</mgrwt>
</event>
<event>
 4    1  0.6782240E-004  0.4955570E+03  0.7818608E-02  0.1014945E+00
          2   -1    0    0  501    0  0.00000000000E+00  0.00000000000E+00  0.93100506405E+02  0.93100506440E+02  0.25500000000E-02 0.  1.
         -2   -1    0    0    0  501 -0.00000000000E+00 -0.00000000000E+00 -0.65943986433E+03  0.65943986433E+03  0.25500000000E-02 0. -1.
    5000001    1    1    2    0    0  0.15083578982E+03 -0.16980466628E+03 -0.18857666711E+03  0.30508231604E+03  0.77000000000E+02 0.  0.
   -5000001    1    1    2    0    0 -0.15083578982E+03  0.16980466628E+03 -0.37776269081E+03  0.44745805474E+03  0.77000000000E+02 0.  0.
<mgrwt>
<rscale>  0 0.49555700E+03</rscale>
<asrwt>0</asrwt>
<pdfrwt beam="1">  1        2 0.13300073E-01 0.49555700E+03</pdfrwt>
<pdfrwt beam="2">  1       -2 0.94205693E-01 0.49555700E+03</pdfrwt>
<totfact> 0.44600788E+02</totfact>
</mgrwt>
</event>
<event>
 4    1  0.6782240E-004  0.2667667E+03  0.7818608E-02  0.1103144E+00
          2   -1    0    0  501    0  0.00000000000E+00  0.00000000000E+00  0.81073784184E+02  0.81073784224E+02  0.25500000000E-02 0.  1.
         -2   -1    0    0    0  501 -0.00000000000E+00 -0.00000000000E+00 -0.21944353175E+03  0.21944353177E+03  0.25500000000E-02 0. -1.
    5000001    1    1    2    0    0 -0.83027047082E+02 -0.59685834552E+02 -0.26940800753E+02  0.13080785962E+03  0.77000000000E+02 0.  0.
   -5000001    1    1    2    0    0  0.83027047082E+02  0.59685834552E+02 -0.11142894681E+03  0.16970945637E+03  0.77000000000E+02 0.  0.
<mgrwt>
<rscale>  0 0.26676670E+03</rscale>
<asrwt>0</asrwt>
<pdfrwt beam="1">  1        2 0.11581969E-01 0.26676670E+03</pdfrwt>
<pdfrwt beam="2">  1       -2 0.31349076E-01 0.26676670E+03</pdfrwt>
<totfact> 0.49941001E+03</totfact>
</mgrwt>
</event>
<event>
 4    1  0.6782240E-004  0.1948211E+03  0.7818608E-02  0.1154183E+00
          2   -1    0    0  501    0  0.00000000000E+00  0.00000000000E+00  0.96314788531E+02  0.96314788564E+02  0.25500000000E-02 0.  1.
         -2   -1    0    0    0  501 -0.00000000000E+00 -0.00000000000E+00 -0.98518798756E+02  0.98518798789E+02  0.25500000000E-02 0. -1.
    5000001    1    1    2    0    0  0.48205196413E+02 -0.26731001550E+01 -0.36160358364E+02  0.97813383249E+02  0.77000000000E+02 0.  0.
   -5000001    1    1    2    0    0 -0.48205196413E+02  0.26731001550E+01  0.33956348138E+02  0.97020204105E+02  0.77000000000E+02 0.  0.
<mgrwt>
<rscale>  0 0.19482112E+03</rscale>
<asrwt>0</asrwt>
<pdfrwt beam="1">  1        2 0.13759256E-01 0.19482112E+03</pdfrwt>
<pdfrwt beam="2">  1       -2 0.14074114E-01 0.19482112E+03</pdfrwt>
<totfact> 0.15817850E+04</totfact>
</mgrwt>
</event>
<event>
 4    1  0.6782240E-004  0.1990667E+03  0.7818608E-02  0.1150529E+00
          2   -1    0    0  501    0  0.00000000000E+00  0.00000000000E+00  0.53923695446E+03  0.53923695447E+03  0.25500000000E-02 0.  1.
         -2   -1    0    0    0  501 -0.00000000000E+00 -0.00000000000E+00 -0.18372057033E+02  0.18372057210E+02  0.25500000000E-02 0. -1.
    5000001    1    1    2    0    0  0.24493123076E+02  0.53384149989E+02  0.19606090588E+03  0.21867477990E+03  0.77000000000E+02 0.  0.
   -5000001    1    1    2    0    0 -0.24493123076E+02 -0.53384149989E+02  0.32480399154E+03  0.33893423178E+03  0.77000000000E+02 0.  0.
<mgrwt>
<rscale>  0 0.19906674E+03</rscale>
<asrwt>0</asrwt>
<pdfrwt beam="1">  1        2 0.77033862E-01 0.19906674E+03</pdfrwt>
<pdfrwt beam="2">  1       -2 0.26245792E-02 0.19906674E+03</pdfrwt>
<totfact> 0.31089655E+04</totfact>
</mgrwt>
</event>
<event>
 4    1  0.6782240E-004  0.2384245E+03  0.7818608E-02  0.1120847E+00
          2   -1    0    0  501    0  0.00000000000E+00  0.00000000000E+00  0.38129247082E+03  0.38129247083E+03  0.25500000000E-02 0.  1.
         -2   -1    0    0    0  501 -0.00000000000E+00 -0.00000000000E+00 -0.37272059329E+02  0.37272059416E+02  0.25500000000E-02 0. -1.
    5000001    1    1    2    0    0  0.87151830526E+02  0.22878185086E+02  0.19447174608E+03  0.22774352447E+03  0.77000000000E+02 0.  0.
   -5000001    1    1    2    0    0 -0.87151830526E+02 -0.22878185086E+02  0.14954866542E+03  0.19082100577E+03  0.77000000000E+02 0.  0.
<mgrwt>
<rscale>  0 0.23842446E+03</rscale>
<asrwt>0</asrwt>
<pdfrwt beam="1">  1        2 0.54470356E-01 0.23842446E+03</pdfrwt>
<pdfrwt beam="2">  1       -2 0.53245796E-02 0.23842446E+03</pdfrwt>
<totfact> 0.15942903E+04</totfact>
</mgrwt>
</event>
<event>
 4    1  0.6782240E-004  0.3053446E+03  0.7818608E-02  0.1082599E+00
          2   -1    0    0  501    0  0.00000000000E+00  0.00000000000E+00  0.13822717259E+04  0.13822717259E+04  0.25500000000E-02 0.  1.
         -2   -1    0    0    0  501 -0.00000000000E+00 -0.00000000000E+00 -0.16862702288E+02  0.16862702481E+02  0.25500000000E-02 0. -1.
    5000001    1    1    2    0    0  0.37368353331E+02 -0.92377691238E+02  0.10782000627E+04  0.10855295513E+04  0.77000000000E+02 0.  0.
   -5000001    1    1    2    0    0 -0.37368353331E+02  0.92377691238E+02  0.28720896100E+03  0.31360487711E+03  0.77000000000E+02 0.  0.
<mgrwt>
<rscale>  0 0.30534464E+03</rscale>
<asrwt>0</asrwt>
<pdfrwt beam="1">  1        2 0.19746744E+00 0.30534464E+03</pdfrwt>
<pdfrwt beam="2">  1       -2 0.24089568E-02 0.30534464E+03</pdfrwt>
<totfact> 0.10549804E+04</totfact>
</mgrwt>
</event>
<event>
 4    1  0.6782240E-004  0.2256299E+03  0.7818608E-02  0.1129754E+00
          2   -1    0    0  501    0  0.00000000000E+00  0.00000000000E+00  0.82047503256E+03  0.82047503257E+03  0.25500000000E-02 0.  1.
         -2   -1    0    0    0  501 -0.00000000000E+00 -0.00000000000E+00 -0.15512007945E+02  0.15512008155E+02  0.25500000000E-02 0. -1.
    5000001    1    1    2    0    0 -0.68131358867E+02 -0.46368039410E+02  0.41180943452E+03  0.42697527738E+03  0.77000000000E+02 0.  0.
   -5000001    1    1    2    0    0  0.68131358867E+02  0.46368039410E+02  0.39315359010E+03  0.40901176334E+03  0.77000000000E+02 0.  0.
<mgrwt>
<rscale>  0 0.22562992E+03</rscale>
<asrwt>0</asrwt>
<pdfrwt beam="1">  1        2 0.11721073E+00 0.22562992E+03</pdfrwt>
<pdfrwt beam="2">  1       -2 0.22160010E-02 0.22562992E+03</pdfrwt>
<totfact> 0.24656224E+04</totfact>
</mgrwt>
</event>
<event>
 4    1  0.6782240E-004  0.1962228E+03  0.7818608E-02  0.1152966E+00
         -2   -1    0    0    0  501 -0.00000000000E+00  0.00000000000E+00  0.18932451298E+02  0.18932451469E+02  0.25500000000E-02 0. -1.
          2   -1    0    0  501    0  0.00000000000E+00 -0.00000000000E+00 -0.50843113348E+03  0.50843113349E+03  0.25500000000E-02 0.  1.
    5000001    1    1    2    0    0  0.32521755524E+02 -0.49651045145E+02 -0.20930218313E+03  0.23077975372E+03  0.77000000000E+02 0.  0.
   -5000001    1    1    2    0    0 -0.32521755524E+02  0.49651045145E+02 -0.28019649906E+03  0.29658383124E+03  0.77000000000E+02 0.  0.
<mgrwt>
<rscale>  0 0.19622281E+03</rscale>
<asrwt>0</asrwt>
<pdfrwt beam="1">  1        2 0.72633011E-01 0.19622281E+03</pdfrwt>
<pdfrwt beam="2">  1       -2 0.27046362E-02 0.19622281E+03</pdfrwt>
<totfact> 0.31704128E+04</totfact>
</mgrwt>
</event>
<event>
 4    1  0.6782240E-004  0.2541496E+03  0.7818608E-02  0.1110710E+00
         -2   -1    0    0    0  501 -0.00000000000E+00  0.00000000000E+00  0.25093686006E+02  0.25093686136E+02  0.25500000000E-02 0. -1.
          2   -1    0    0  501    0  0.00000000000E+00 -0.00000000000E+00 -0.64350887973E+03  0.64350887974E+03  0.25500000000E-02 0.  1.
    5000001    1    1    2    0    0  0.66907531135E+02 -0.59924849396E+02 -0.18718519226E+03  0.22143825663E+03  0.77000000000E+02 0.  0.
   -5000001    1    1    2    0    0 -0.66907531135E+02  0.59924849396E+02 -0.43123000146E+03  0.44716430924E+03  0.77000000000E+02 0.  0.
<mgrwt>
<rscale>  0 0.25414964E+03</rscale>
<asrwt>0</asrwt>
<pdfrwt beam="1">  1        2 0.91929830E-01 0.25414964E+03</pdfrwt>
<pdfrwt beam="2">  1       -2 0.35848127E-02 0.25414964E+03</pdfrwt>
<totfact> 0.16276121E+04</totfact>
</mgrwt>
</event>
<event>
 4    1  0.6782240E-004  0.2300343E+03  0.7818608E-02  0.1126616E+00
         -2   -1    0    0    0  501 -0.00000000000E+00  0.00000000000E+00  0.16356072226E+02  0.16356072425E+02  0.25500000000E-02 0. -1.
          2   -1    0    0  501    0  0.00000000000E+00 -0.00000000000E+00 -0.80880924483E+03  0.80880924484E+03  0.25500000000E-02 0.  1.
    5000001    1    1    2    0    0  0.29045534040E+02  0.80001989036E+02 -0.36938738713E+03  0.38680744961E+03  0.77000000000E+02 0.  0.
   -5000001    1    1    2    0    0 -0.29045534040E+02 -0.80001989036E+02 -0.42306578547E+03  0.43835786765E+03  0.77000000000E+02 0.  0.
<mgrwt>
<rscale>  0 0.23003428E+03</rscale>
<asrwt>0</asrwt>
<pdfrwt beam="1">  1        2 0.11554415E+00 0.23003428E+03</pdfrwt>
<pdfrwt beam="2">  1       -2 0.23365823E-02 0.23003428E+03</pdfrwt>
<totfact> 0.23243799E+04</totfact>
</mgrwt>
</event>
<event>
 4    1  0.6782240E-004  0.2356604E+03  0.7818608E-02  0.1122718E+00
          2   -1    0    0  501    0  0.00000000000E+00  0.00000000000E+00  0.87933350116E+03  0.87933350116E+03  0.25500000000E-02 0.  1.
         -2   -1    0    0    0  501 -0.00000000000E+00 -0.00000000000E+00 -0.15789185254E+02  0.15789185460E+02  0.25500000000E-02 0. -1.
    5000001    1    1    2    0    0 -0.21817600248E+02 -0.36571370703E+02  0.72944050718E+03  0.73472847117E+03  0.77000000000E+02 0.  0.
   -5000001    1    1    2    0    0  0.21817600248E+02  0.36571370703E+02  0.13410380873E+03  0.16039421545E+03  0.77000000000E+02 0.  0.
<mgrwt>
<rscale>  0 0.23566043E+03</rscale>
<asrwt>0</asrwt>
<pdfrwt beam="1">  1        2 0.12561909E+00 0.23566043E+03</pdfrwt>
<pdfrwt beam="2">  1       -2 0.22555975E-02 0.23566043E+03</pdfrwt>
<totfact> 0.22071931E+04</totfact>
</mgrwt>
</event>
<event>
 4    1  0.6782240E-004  0.6346306E+03  0.7818608E-02  0.9836054E-01
          2   -1    0    0  501    0  0.00000000000E+00  0.00000000000E+00  0.86447954368E+03  0.86447954369E+03  0.25500000000E-02 0.  1.
         -2   -1    0    0    0  501 -0.00000000000E+00 -0.00000000000E+00 -0.11647355003E+03  0.11647355006E+03  0.25500000000E-02 0. -1.
    5000001    1    1    2    0    0  0.14859076250E+03 -0.21476461573E+03  0.62589611252E+03  0.68255256101E+03  0.77000000000E+02 0.  0.
   -5000001    1    1    2    0    0 -0.14859076250E+03  0.21476461573E+03  0.12210988113E+03  0.29840053274E+03  0.77000000000E+02 0.  0.
<mgrwt>
<rscale>  0 0.63463061E+03</rscale>
<asrwt>0</asrwt>
<pdfrwt beam="1">  1        2 0.12349708E+00 0.63463061E+03</pdfrwt>
<pdfrwt beam="2">  1       -2 0.16639078E-01 0.63463061E+03</pdfrwt>
<totfact> 0.10112811E+03</totfact>
</mgrwt>
</event>
<event>
 4    1  0.6782240E-004  0.2668208E+03  0.7818608E-02  0.1103113E+00
          2   -1    0    0  501    0  0.00000000000E+00  0.00000000000E+00  0.33288178340E+03  0.33288178341E+03  0.25500000000E-02 0.  1.
         -2   -1    0    0    0  501 -0.00000000000E+00 -0.00000000000E+00 -0.53467423806E+02  0.53467423867E+02  0.25500000000E-02 0. -1.
    5000001    1    1    2    0    0 -0.52335699144E+02 -0.48928387547E+02  0.20864700270E+02  0.10722568829E+03  0.77000000000E+02 0.  0.
   -5000001    1    1    2    0    0  0.52335699144E+02  0.48928387547E+02  0.25854965933E+03  0.27912351899E+03  0.77000000000E+02 0.  0.
<mgrwt>
<rscale>  0 0.26682077E+03</rscale>
<asrwt>0</asrwt>
<pdfrwt beam="1">  1        2 0.47554541E-01 0.26682077E+03</pdfrwt>
<pdfrwt beam="2">  1       -2 0.76382034E-02 0.26682077E+03</pdfrwt>
<totfact> 0.10653817E+04</totfact>
</mgrwt>
</event>
<event>
 4    1  0.6782240E-004  0.1717391E+03  0.7818608E-02  0.1176046E+00
         -2   -1    0    0    0  501 -0.00000000000E+00  0.00000000000E+00  0.21609113143E+03  0.21609113144E+03  0.25500000000E-02 0. -1.
          2   -1    0    0  501    0  0.00000000000E+00 -0.00000000000E+00 -0.34122557055E+02  0.34122557150E+02  0.25500000000E-02 0.  1.
    5000001    1    1    2    0    0  0.15675359079E+02 -0.21980348128E+02  0.12996198985E+03  0.15345348283E+03  0.77000000000E+02 0.  0.
   -5000001    1    1    2    0    0 -0.15675359079E+02  0.21980348128E+02  0.52006584522E+02  0.96760205765E+02  0.77000000000E+02 0.  0.
<mgrwt>
<rscale>  0 0.17173913E+03</rscale>
<asrwt>0</asrwt>
<pdfrwt beam="1">  1        2 0.48746511E-02 0.17173913E+03</pdfrwt>
<pdfrwt beam="2">  1       -2 0.30870161E-01 0.17173913E+03</pdfrwt>
<totfact> 0.15017322E+04</totfact>
</mgrwt>
</event>
<event>
 4    1  0.6782240E-004  0.8480575E+03  0.7818608E-02  0.9492948E-01
         -2   -1    0    0    0  501 -0.00000000000E+00  0.00000000000E+00  0.17919098770E+03  0.17919098772E+03  0.25500000000E-02 0. -1.
          2   -1    0    0  501    0  0.00000000000E+00 -0.00000000000E+00 -0.10034008913E+04  0.10034008913E+04  0.25500000000E-02 0.  1.
    5000001    1    1    2    0    0 -0.34313563755E+03 -0.68814451798E+02 -0.95975199643E+02  0.37096864218E+03  0.77000000000E+02 0.  0.
   -5000001    1    1    2    0    0  0.34313563755E+03  0.68814451798E+02 -0.72823470391E+03  0.81162323680E+03  0.77000000000E+02 0.  0.
<mgrwt>
<rscale>  0 0.84805754E+03</rscale>
<asrwt>0</asrwt>
<pdfrwt beam="1">  1        2 0.14334298E+00 0.84805754E+03</pdfrwt>
<pdfrwt beam="2">  1       -2 0.25598713E-01 0.84805754E+03</pdfrwt>
<totfact> 0.38426409E+02</totfact>
</mgrwt>
</event>
<event>
 4    1  0.6782240E-004  0.3453835E+03  0.7818608E-02  0.1064526E+00
          2   -1    0    0  501    0  0.00000000000E+00  0.00000000000E+00  0.20148232385E+03  0.20148232387E+03  0.25500000000E-02 0.  1.
         -2   -1    0    0    0  501 -0.00000000000E+00 -0.00000000000E+00 -0.14801517478E+03  0.14801517480E+03  0.25500000000E-02 0. -1.
    5000001    1    1    2    0    0  0.10182850836E+03 -0.18819067033E+02 -0.89395056702E+02  0.15698305183E+03  0.77000000000E+02 0.  0.
   -5000001    1    1    2    0    0 -0.10182850836E+03  0.18819067033E+02  0.14286220577E+03  0.19251444683E+03  0.77000000000E+02 0.  0.
<mgrwt>
<rscale>  0 0.34538351E+03</rscale>
<asrwt>0</asrwt>
<pdfrwt beam="1">  1        2 0.28783189E-01 0.34538351E+03</pdfrwt>
<pdfrwt beam="2">  1       -2 0.21145025E-01 0.34538351E+03</pdfrwt>
<totfact> 0.35176367E+03</totfact>
</mgrwt>
</event>
<event>
 4    1  0.6782240E-004  0.2138577E+03  0.7818608E-02  0.1138547E+00
         -2   -1    0    0    0  501 -0.00000000000E+00  0.00000000000E+00  0.12567682805E+03  0.12567682807E+03  0.25500000000E-02 0. -1.
          2   -1    0    0  501    0  0.00000000000E+00 -0.00000000000E+00 -0.90977610748E+02  0.90977610784E+02  0.25500000000E-02 0.  1.
    5000001    1    1    2    0    0 -0.53355506119E+02  0.27695142928E+01  0.69503897026E+02  0.11668021231E+03  0.77000000000E+02 0.  0.
   -5000001    1    1    2    0    0  0.53355506119E+02 -0.27695142928E+01 -0.34804679728E+02  0.99974226547E+02  0.77000000000E+02 0.  0.
<mgrwt>
<rscale>  0 0.21385769E+03</rscale>
<asrwt>0</asrwt>
<pdfrwt beam="1">  1        2 0.12996801E-01 0.21385769E+03</pdfrwt>
<pdfrwt beam="2">  1       -2 0.17953833E-01 0.21385769E+03</pdfrwt>
<totfact> 0.11389144E+04</totfact>
</mgrwt>
</event>
<event>
 4    1  0.6782240E-004  0.1845594E+03  0.7818608E-02  0.1163462E+00
          2   -1    0    0  501    0  0.00000000000E+00  0.00000000000E+00  0.77235190966E+03  0.77235190966E+03  0.25500000000E-02 0.  1.
         -2   -1    0    0    0  501 -0.00000000000E+00 -0.00000000000E+00 -0.11025465879E+02  0.11025466174E+02  0.25500000000E-02 0. -1.
    5000001    1    1    2    0    0 -0.38975466959E+02 -0.19571512923E+02  0.49170660084E+03  0.49960635749E+03  0.77000000000E+02 0.  0.
   -5000001    1    1    2    0    0  0.38975466959E+02  0.19571512923E+02  0.26961984294E+03  0.28377101834E+03  0.77000000000E+02 0.  0.
<mgrwt>
<rscale>  0 0.18455936E+03</rscale>
<asrwt>0</asrwt>
<pdfrwt beam="1">  1        2 0.11033603E+00 0.18455936E+03</pdfrwt>
<pdfrwt beam="2">  1       -2 0.15750660E-02 0.18455936E+03</pdfrwt>
<totfact> 0.43072666E+04</totfact>
</mgrwt>
</event>
<event>
 4    1  0.6782240E-004  0.2323510E+03  0.7818608E-02  0.1124996E+00
         -2   -1    0    0    0  501 -0.00000000000E+00  0.00000000000E+00  0.12784671893E+02  0.12784672147E+02  0.25500000000E-02 0. -1.
          2   -1    0    0  501    0  0.00000000000E+00 -0.00000000000E+00 -0.10556977469E+04  0.10556977469E+04  0.25500000000E-02 0.  1.
    5000001    1    1    2    0    0 -0.67847406041E+02  0.21094921749E+02 -0.29063383202E+03  0.30894221231E+03  0.77000000000E+02 0.  0.
   -5000001    1    1    2    0    0  0.67847406041E+02 -0.21094921749E+02 -0.75227924294E+03  0.75954020669E+03  0.77000000000E+02 0.  0.
<mgrwt>
<rscale>  0 0.23235102E+03</rscale>
<asrwt>0</asrwt>
<pdfrwt beam="1">  1        2 0.15081391E+00 0.23235102E+03</pdfrwt>
<pdfrwt beam="2">  1       -2 0.18263824E-02 0.23235102E+03</pdfrwt>
<totfact> 0.23572275E+04</totfact>
</mgrwt>
</event>
<event>
 4    1  0.6782240E-004  0.1724823E+03  0.7818608E-02  0.1175284E+00
          2   -1    0    0  501    0  0.00000000000E+00  0.00000000000E+00  0.63370885638E+02  0.63370885690E+02  0.25500000000E-02 0.  1.
         -2   -1    0    0    0  501 -0.00000000000E+00 -0.00000000000E+00 -0.11736513176E+03  0.11736513179E+03  0.25500000000E-02 0. -1.
    5000001    1    1    2    0    0 -0.12021311374E+02  0.11253566812E+02 -0.63856790604E+02  0.10137970408E+03  0.77000000000E+02 0.  0.
   -5000001    1    1    2    0    0  0.12021311374E+02 -0.11253566812E+02  0.98625444780E+01  0.79356313402E+02  0.77000000000E+02 0.  0.
<mgrwt>
<rscale>  0 0.17248226E+03</rscale>
<asrwt>0</asrwt>
<pdfrwt beam="1">  1        2 0.90529837E-02 0.17248226E+03</pdfrwt>
<pdfrwt beam="2">  1       -2 0.16766447E-01 0.17248226E+03</pdfrwt>
<totfact> 0.19551789E+04</totfact>
</mgrwt>
</event>
<event>
 4    1  0.6782240E-004  0.2483817E+03  0.7818608E-02  0.1114332E+00
         -2   -1    0    0    0  501 -0.00000000000E+00  0.00000000000E+00  0.19309691954E+02  0.19309692122E+02  0.25500000000E-02 0. -1.
          2   -1    0    0  501    0  0.00000000000E+00 -0.00000000000E+00 -0.79873709541E+03  0.79873709541E+03  0.25500000000E-02 0.  1.
    5000001    1    1    2    0    0 -0.40983270837E+02 -0.63002725472E+02 -0.59394817500E+03  0.60361610854E+03  0.77000000000E+02 0.  0.
   -5000001    1    1    2    0    0  0.40983270837E+02  0.63002725472E+02 -0.18547922845E+03  0.21443067899E+03  0.77000000000E+02 0.  0.
<mgrwt>
<rscale>  0 0.24838170E+03</rscale>
<asrwt>0</asrwt>
<pdfrwt beam="1">  1        2 0.11410528E+00 0.24838170E+03</pdfrwt>
<pdfrwt beam="2">  1       -2 0.27585279E-02 0.24838170E+03</pdfrwt>
<totfact> 0.18552775E+04</totfact>
</mgrwt>
</event>
<event>
 4    1  0.6782240E-004  0.4439908E+03  0.7818608E-02  0.1029529E+00
          2   -1    0    0  501    0  0.00000000000E+00  0.00000000000E+00  0.12282493658E+04  0.12282493658E+04  0.25500000000E-02 0.  1.
         -2   -1    0    0    0  501 -0.00000000000E+00 -0.00000000000E+00 -0.40123746177E+02  0.40123746258E+02  0.25500000000E-02 0. -1.
    5000001    1    1    2    0    0 -0.17183171796E+03 -0.72856389667E+02  0.85773331020E+03  0.88117513823E+03  0.77000000000E+02 0.  0.
   -5000001    1    1    2    0    0  0.17183171796E+03  0.72856389667E+02  0.33039230945E+03  0.38719797385E+03  0.77000000000E+02 0.  0.
<mgrwt>
<rscale>  0 0.44399084E+03</rscale>
<asrwt>0</asrwt>
<pdfrwt beam="1">  1        2 0.17546414E+00 0.44399084E+03</pdfrwt>
<pdfrwt beam="2">  1       -2 0.57319656E-02 0.44399084E+03</pdfrwt>
<totfact> 0.34471007E+03</totfact>
</mgrwt>
</event>
<event>
 4    1  0.6782240E-004  0.2743233E+03  0.7818608E-02  0.1098830E+00
         -2   -1    0    0    0  501 -0.00000000000E+00  0.00000000000E+00  0.98337791686E+01  0.98337794992E+01  0.25500000000E-02 0. -1.
          2   -1    0    0  501    0  0.00000000000E+00 -0.00000000000E+00 -0.19131318623E+04  0.19131318623E+04  0.25500000000E-02 0.  1.
    5000001    1    1    2    0    0  0.42574685990E+02 -0.72734108831E+02 -0.14846496303E+04  0.14890320276E+04  0.77000000000E+02 0.  0.
   -5000001    1    1    2    0    0 -0.42574685990E+02  0.72734108831E+02 -0.41864845287E+03  0.43393361424E+03  0.77000000000E+02 0.  0.
<mgrwt>
<rscale>  0 0.27432329E+03</rscale>
<asrwt>0</asrwt>
<pdfrwt beam="1">  1        2 0.27330431E+00 0.27432329E+03</pdfrwt>
<pdfrwt beam="2">  1       -2 0.14048268E-02 0.27432329E+03</pdfrwt>
<totfact> 0.12647089E+04</totfact>
</mgrwt>
</event>
<event>
 4    1  0.6782240E-004  0.3182366E+03  0.7818608E-02  0.1076464E+00
         -2   -1    0    0    0  501 -0.00000000000E+00  0.00000000000E+00  0.14356308618E+02  0.14356308844E+02  0.25500000000E-02 0. -1.
          2   -1    0    0  501    0  0.00000000000E+00 -0.00000000000E+00 -0.17635898849E+04  0.17635898849E+04  0.25500000000E-02 0.  1.
    5000001    1    1    2    0    0 -0.12323389331E+03 -0.58404109440E+02 -0.10318460297E+04  0.10436631935E+04  0.77000000000E+02 0.  0.
   -5000001    1    1    2    0    0  0.12323389331E+03  0.58404109440E+02 -0.71738754657E+03  0.73428300024E+03  0.77000000000E+02 0.  0.
<mgrwt>
<rscale>  0 0.31823665E+03</rscale>
<asrwt>0</asrwt>
<pdfrwt beam="1">  1        2 0.25194127E+00 0.31823665E+03</pdfrwt>
<pdfrwt beam="2">  1       -2 0.20509024E-02 0.31823665E+03</pdfrwt>
<totfact> 0.86099171E+03</totfact>
</mgrwt>
</event>
<event>
 4    1  0.6782240E-004  0.1806738E+03  0.7818608E-02  0.1167153E+00
         -2   -1    0    0    0  501 -0.00000000000E+00  0.00000000000E+00  0.51586232999E+02  0.51586233062E+02  0.25500000000E-02 0. -1.
          2   -1    0    0  501    0  0.00000000000E+00 -0.00000000000E+00 -0.15819643196E+03  0.15819643198E+03  0.25500000000E-02 0.  1.
    5000001    1    1    2    0    0  0.12796065881E+02 -0.43253118447E+02 -0.69609802286E+02  0.11317727745E+03  0.77000000000E+02 0.  0.
   -5000001    1    1    2    0    0 -0.12796065881E+02  0.43253118447E+02 -0.37000396677E+02  0.96605387591E+02  0.77000000000E+02 0.  0.
<mgrwt>
<rscale>  0 0.18067383E+03</rscale>
<asrwt>0</asrwt>
<pdfrwt beam="1">  1        2 0.22599490E-01 0.18067383E+03</pdfrwt>
<pdfrwt beam="2">  1       -2 0.73694619E-02 0.18067383E+03</pdfrwt>
<totfact> 0.24692307E+04</totfact>
</mgrwt>
</event>
<event>
 4    1  0.6782240E-004  0.2883429E+03  0.7818608E-02  0.1091218E+00
         -2   -1    0    0    0  501 -0.00000000000E+00  0.00000000000E+00  0.14112029635E+02  0.14112029865E+02  0.25500000000E-02 0. -1.
          2   -1    0    0  501    0  0.00000000000E+00 -0.00000000000E+00 -0.14728857331E+04  0.14728857331E+04  0.25500000000E-02 0.  1.
    5000001    1    1    2    0    0 -0.79746859410E+02  0.51947535629E+02 -0.33669547674E+03  0.35826101114E+03  0.77000000000E+02 0.  0.
   -5000001    1    1    2    0    0  0.79746859410E+02 -0.51947535629E+02 -0.11220782268E+04  0.11287367519E+04  0.77000000000E+02 0.  0.
<mgrwt>
<rscale>  0 0.28834290E+03</rscale>
<asrwt>0</asrwt>
<pdfrwt beam="1">  1        2 0.21041215E+00 0.28834290E+03</pdfrwt>
<pdfrwt beam="2">  1       -2 0.20160052E-02 0.28834290E+03</pdfrwt>
<totfact> 0.12315222E+04</totfact>
</mgrwt>
</event>
<event>
 4    1  0.6782240E-004  0.3004243E+03  0.7818608E-02  0.1085029E+00
         -2   -1    0    0    0  501 -0.00000000000E+00  0.00000000000E+00  0.18521857469E+02  0.18521857644E+02  0.25500000000E-02 0. -1.
          2   -1    0    0  501    0  0.00000000000E+00 -0.00000000000E+00 -0.12182195887E+04  0.12182195887E+04  0.25500000000E-02 0.  1.
    5000001    1    1    2    0    0  0.18979937553E+02  0.12457465612E+03 -0.71300856020E+03  0.72814098216E+03  0.77000000000E+02 0.  0.
   -5000001    1    1    2    0    0 -0.18979937553E+02 -0.12457465612E+03 -0.48668917107E+03  0.50860046423E+03  0.77000000000E+02 0.  0.
<mgrwt>
<rscale>  0 0.30042430E+03</rscale>
<asrwt>0</asrwt>
<pdfrwt beam="1">  1        2 0.17403132E+00 0.30042430E+03</pdfrwt>
<pdfrwt beam="2">  1       -2 0.26459804E-02 0.30042430E+03</pdfrwt>
<totfact> 0.11204408E+04</totfact>
</mgrwt>
</event>
<event>
 4    1  0.6782240E-004  0.2322712E+03  0.7818608E-02  0.1125051E+00
          2   -1    0    0  501    0  0.00000000000E+00  0.00000000000E+00  0.13836267295E+02  0.13836267530E+02  0.25500000000E-02 0.  1.
         -2   -1    0    0    0  501 -0.00000000000E+00 -0.00000000000E+00 -0.97479179632E+03  0.97479179632E+03  0.25500000000E-02 0. -1.
    5000001    1    1    2    0    0  0.40496103799E+02  0.50834393914E+02 -0.72625804102E+03  0.73321471083E+03  0.77000000000E+02 0.  0.
   -5000001    1    1    2    0    0 -0.40496103799E+02 -0.50834393914E+02 -0.23469748800E+03  0.25541335302E+03  0.77000000000E+02 0.  0.
<mgrwt>
<rscale>  0 0.23227122E+03</rscale>
<asrwt>0</asrwt>
<pdfrwt beam="1">  1        2 0.19766103E-02 0.23227122E+03</pdfrwt>
<pdfrwt beam="2">  1       -2 0.13925593E+00 0.23227122E+03</pdfrwt>
<totfact> 0.21186178E+03</totfact>
</mgrwt>
</event>
<event>
 4    1  0.6782240E-004  0.4079326E+03  0.7818608E-02  0.1041067E+00
          2   -1    0    0  501    0  0.00000000000E+00  0.00000000000E+00  0.34180876083E+03  0.34180876084E+03  0.25500000000E-02 0.  1.
         -2   -1    0    0    0  501 -0.00000000000E+00 -0.00000000000E+00 -0.12171207298E+03  0.12171207300E+03  0.25500000000E-02 0. -1.
    5000001    1    1    2    0    0  0.16825590038E+03  0.63550545128E+02  0.17556416171E+03  0.26286972947E+03  0.77000000000E+02 0.  0.
   -5000001    1    1    2    0    0 -0.16825590038E+03 -0.63550545128E+02  0.44532526142E+02  0.20065110436E+03  0.77000000000E+02 0.  0.
<mgrwt>
<rscale>  0 0.40793261E+03</rscale>
<asrwt>0</asrwt>
<pdfrwt beam="1">  1        2 0.48829824E-01 0.40793261E+03</pdfrwt>
<pdfrwt beam="2">  1       -2 0.17387439E-01 0.40793261E+03</pdfrwt>
<totfact> 0.27663858E+03</totfact>
</mgrwt>
</event>
<event>
 4    1  0.6782240E-004  0.9312290E+03  0.7818608E-02  0.9387364E-01
          2   -1    0    0  501    0  0.00000000000E+00  0.00000000000E+00  0.18101508962E+04  0.18101508962E+04  0.25500000000E-02 0.  1.
         -2   -1    0    0    0  501 -0.00000000000E+00 -0.00000000000E+00 -0.11976728506E+03  0.11976728509E+03  0.25500000000E-02 0. -1.
    5000001    1    1    2    0    0  0.27501259028E+02 -0.27780963670E+03  0.89578884216E+02  0.30313015355E+03  0.77000000000E+02 0.  0.
   -5000001    1    1    2    0    0 -0.27501259028E+02  0.27780963670E+03  0.16008047269E+04  0.16267880277E+04  0.77000000000E+02 0.  0.
<mgrwt>
<rscale>  0 0.93122899E+03</rscale>
<asrwt>0</asrwt>
<pdfrwt beam="1">  1        2 0.25859298E+00 0.93122899E+03</pdfrwt>
<pdfrwt beam="2">  1       -2 0.17109612E-01 0.93122899E+03</pdfrwt>
<totfact> 0.28260950E+02</totfact>
</mgrwt>
</event>
<event>
 4    1  0.6782240E-004  0.2051872E+03  0.7818608E-02  0.1145435E+00
          2   -1    0    0  501    0  0.00000000000E+00  0.00000000000E+00  0.92468081308E+02  0.92468081344E+02  0.25500000000E-02 0.  1.
         -2   -1    0    0    0  501 -0.00000000000E+00 -0.00000000000E+00 -0.11382788966E+03  0.11382788969E+03  0.25500000000E-02 0. -1.
    5000001    1    1    2    0    0  0.36349609121E+02 -0.11526850500E+02  0.45679087684E+02  0.97312596396E+02  0.77000000000E+02 0.  0.
   -5000001    1    1    2    0    0 -0.36349609121E+02  0.11526850500E+02 -0.67038896038E+02  0.10898337464E+03  0.77000000000E+02 0.  0.
<mgrwt>
<rscale>  0 0.20518720E+03</rscale>
<asrwt>0</asrwt>
<pdfrwt beam="1">  1        2 0.13209726E-01 0.20518720E+03</pdfrwt>
<pdfrwt beam="2">  1       -2 0.16261127E-01 0.20518720E+03</pdfrwt>
<totfact> 0.13141540E+04</totfact>
</mgrwt>
</event>
<event>
 4    1  0.6782240E-004  0.2393322E+03  0.7818608E-02  0.1120238E+00
         -2   -1    0    0    0  501 -0.00000000000E+00  0.00000000000E+00  0.17302985309E+02  0.17302985497E+02  0.25500000000E-02 0. -1.
          2   -1    0    0  501    0  0.00000000000E+00 -0.00000000000E+00 -0.82760149848E+03  0.82760149848E+03  0.25500000000E-02 0.  1.
    5000001    1    1    2    0    0 -0.32869187648E+02 -0.56489579203E+02 -0.63173355097E+03  0.63975599683E+03  0.77000000000E+02 0.  0.
   -5000001    1    1    2    0    0  0.32869187648E+02  0.56489579203E+02 -0.17856496219E+03  0.20514848715E+03  0.77000000000E+02 0.  0.
<mgrwt>
<rscale>  0 0.23933221E+03</rscale>
<asrwt>0</asrwt>
<pdfrwt beam="1">  1        2 0.11822876E+00 0.23933221E+03</pdfrwt>
<pdfrwt beam="2">  1       -2 0.24718556E-02 0.23933221E+03</pdfrwt>
<totfact> 0.20838993E+04</totfact>
</mgrwt>
</event>
<event>
 4    1  0.6782240E-004  0.2151867E+03  0.7818608E-02  0.1137523E+00
         -2   -1    0    0    0  501 -0.00000000000E+00  0.00000000000E+00  0.96253039573E+01  0.96253042950E+01  0.25500000000E-02 0. -1.
          2   -1    0    0  501    0  0.00000000000E+00 -0.00000000000E+00 -0.12026973603E+04  0.12026973603E+04  0.25500000000E-02 0.  1.
    5000001    1    1    2    0    0  0.20466479700E+02 -0.72022480867E+02 -0.63270379171E+03  0.64175478385E+03  0.77000000000E+02 0.  0.
   -5000001    1    1    2    0    0 -0.20466479700E+02  0.72022480867E+02 -0.56036826465E+03  0.57056788077E+03  0.77000000000E+02 0.  0.
<mgrwt>
<rscale>  0 0.21518669E+03</rscale>
<asrwt>0</asrwt>
<pdfrwt beam="1">  1        2 0.17181381E+00 0.21518669E+03</pdfrwt>
<pdfrwt beam="2">  1       -2 0.13750442E-02 0.21518669E+03</pdfrwt>
<totfact> 0.29429528E+04</totfact>
</mgrwt>
</event>
<event>
 4    1  0.6782240E-004  0.4260962E+03  0.7818608E-02  0.1035100E+00
          2   -1    0    0  501    0  0.00000000000E+00  0.00000000000E+00  0.19509798755E+04  0.19509798755E+04  0.25500000000E-02 0.  1.
         -2   -1    0    0    0  501 -0.00000000000E+00 -0.00000000000E+00 -0.23264974850E+02  0.23264974989E+02  0.25500000000E-02 0. -1.
    5000001    1    1    2    0    0  0.76049935652E+01 -0.19359586561E+03  0.11670543873E+04  0.11855303194E+04  0.77000000000E+02 0.  0.
   -5000001    1    1    2    0    0 -0.76049935652E+01  0.19359586561E+03  0.76066051328E+03  0.78871453110E+03  0.77000000000E+02 0.  0.
<mgrwt>
<rscale>  0 0.42609622E+03</rscale>
<asrwt>0</asrwt>
<pdfrwt beam="1">  1        2 0.27871142E+00 0.42609622E+03</pdfrwt>
<pdfrwt beam="2">  1       -2 0.33235677E-02 0.42609622E+03</pdfrwt>
<totfact> 0.33809663E+03</totfact>
</mgrwt>
</event>
<event>
 4    1  0.6782240E-004  0.2549740E+03  0.7818608E-02  0.1110201E+00
          2   -1    0    0  501    0  0.00000000000E+00  0.00000000000E+00  0.41750183259E+03  0.41750183260E+03  0.25500000000E-02 0.  1.
         -2   -1    0    0    0  501 -0.00000000000E+00 -0.00000000000E+00 -0.38929001868E+02  0.38929001952E+02  0.25500000000E-02 0. -1.
    5000001    1    1    2    0    0  0.53306461915E+02  0.73891494098E+02  0.10878334380E+03  0.16144456531E+03  0.77000000000E+02 0.  0.
   -5000001    1    1    2    0    0 -0.53306461915E+02 -0.73891494098E+02  0.26978948693E+03  0.29498626924E+03  0.77000000000E+02 0.  0.
<mgrwt>
<rscale>  0 0.25497396E+03</rscale>
<asrwt>0</asrwt>
<pdfrwt beam="1">  1        2 0.59643122E-01 0.25497396E+03</pdfrwt>
<pdfrwt beam="2">  1       -2 0.55612857E-02 0.25497396E+03</pdfrwt>
<totfact> 0.13578040E+04</totfact>
</mgrwt>
</event>
<event>
 4    1  0.6782240E-004  0.2691850E+03  0.7818608E-02  0.1101747E+00
         -2   -1    0    0    0  501 -0.00000000000E+00  0.00000000000E+00  0.99604401636E+01  0.99604404901E+01  0.25500000000E-02 0.  1.
          2   -1    0    0  501    0  0.00000000000E+00 -0.00000000000E+00 -0.18187089455E+04  0.18187089455E+04  0.25500000000E-02 0. -1.
    5000001    1    1    2    0    0  0.18223267700E+02  0.10445499429E+03 -0.69573875302E+03  0.70797199504E+03  0.77000000000E+02 0.  0.
   -5000001    1    1    2    0    0 -0.18223267700E+02 -0.10445499429E+03 -0.11130097523E+04  0.11206973910E+04  0.77000000000E+02 0.  0.
<mgrwt>
<rscale>  0 0.26918501E+03</rscale>
<asrwt>0</asrwt>
<pdfrwt beam="1">  1        2 0.25981535E+00 0.26918501E+03</pdfrwt>
<pdfrwt beam="2">  1       -2 0.14229212E-02 0.26918501E+03</pdfrwt>
<totfact> 0.13797373E+04</totfact>
</mgrwt>
</event>
<event>
 4    1  0.6782240E-004  0.3170483E+03  0.7818608E-02  0.1077016E+00
          2   -1    0    0  501    0  0.00000000000E+00  0.00000000000E+00  0.10895039509E+04  0.10895039509E+04  0.25500000000E-02 0.  1.
         -2   -1    0    0    0  501 -0.00000000000E+00 -0.00000000000E+00 -0.23065459493E+02  0.23065459634E+02  0.25500000000E-02 0. -1.
    5000001    1    1    2    0    0 -0.17567882823E+02 -0.13308147582E+03  0.65384410752E+03  0.67190804926E+03  0.77000000000E+02 0.  0.
   -5000001    1    1    2    0    0  0.17567882823E+02  0.13308147582E+03  0.41259438387E+03  0.44066136127E+03  0.77000000000E+02 0.  0.
<mgrwt>
<rscale>  0 0.31704832E+03</rscale>
<asrwt>0</asrwt>
<pdfrwt beam="1">  1        2 0.15564342E+00 0.31704832E+03</pdfrwt>
<pdfrwt beam="2">  1       -2 0.32950657E-02 0.31704832E+03</pdfrwt>
<totfact> 0.95326009E+03</totfact>
</mgrwt>
</event>
<event>
 4    1  0.6782240E-004  0.2170264E+03  0.7818608E-02  0.1136120E+00
          2   -1    0    0  501    0  0.00000000000E+00  0.00000000000E+00  0.64102512875E+03  0.64102512875E+03  0.25500000000E-02 0.  1.
         -2   -1    0    0    0  501 -0.00000000000E+00 -0.00000000000E+00 -0.18369191017E+02  0.18369191194E+02  0.25500000000E-02 0. -1.
    5000001    1    1    2    0    0 -0.19217695868E+02 -0.52934980415E+02  0.46846142681E+03  0.47807587306E+03  0.77000000000E+02 0.  0.
   -5000001    1    1    2    0    0  0.19217695868E+02  0.52934980415E+02  0.15419451091E+03  0.18131844689E+03  0.77000000000E+02 0.  0.
<mgrwt>
<rscale>  0 0.21702639E+03</rscale>
<asrwt>0</asrwt>
<pdfrwt beam="1">  1        2 0.91575019E-01 0.21702639E+03</pdfrwt>
<pdfrwt beam="2">  1       -2 0.26241702E-02 0.21702639E+03</pdfrwt>
<totfact> 0.25741955E+04</totfact>
</mgrwt>
</event>
<event>
 4    1  0.6782240E-004  0.5183715E+03  0.7818608E-02  0.1009092E+00
          2   -1    0    0  501    0  0.00000000000E+00  0.00000000000E+00  0.15260555297E+04  0.15260555297E+04  0.25500000000E-02 0.  1.
         -2   -1    0    0    0  501 -0.00000000000E+00 -0.00000000000E+00 -0.44020196396E+02  0.44020196470E+02  0.25500000000E-02 0. -1.
    5000001    1    1    2    0    0  0.22424329314E+03  0.43258144008E+02  0.45221061637E+03  0.51242537320E+03  0.77000000000E+02 0.  0.
   -5000001    1    1    2    0    0 -0.22424329314E+03 -0.43258144008E+02  0.10298247170E+04  0.10576503530E+04  0.77000000000E+02 0.  0.
<mgrwt>
<rscale>  0 0.51837154E+03</rscale>
<asrwt>0</asrwt>
<pdfrwt beam="1">  1        2 0.21800797E+00 0.51837154E+03</pdfrwt>
<pdfrwt beam="2">  1       -2 0.62885986E-02 0.51837154E+03</pdfrwt>
<totfact> 0.20723902E+03</totfact>
</mgrwt>
</event>
<event>
 4    1  0.6782240E-004  0.2112273E+03  0.7818608E-02  0.1140598E+00
          2   -1    0    0  501    0  0.00000000000E+00  0.00000000000E+00  0.96141511483E+03  0.96141511483E+03  0.25500000000E-02 0.  1.
         -2   -1    0    0    0  501 -0.00000000000E+00 -0.00000000000E+00 -0.11601898916E+02  0.11601899196E+02  0.25500000000E-02 0. -1.
    5000001    1    1    2    0    0  0.12286520361E+02 -0.40358061058E+02  0.20451254801E+03  0.22256260685E+03  0.77000000000E+02 0.  0.
   -5000001    1    1    2    0    0 -0.12286520361E+02  0.40358061058E+02  0.74530066791E+03  0.75045440718E+03  0.77000000000E+02 0.  0.
<mgrwt>
<rscale>  0 0.21122728E+03</rscale>
<asrwt>0</asrwt>
<pdfrwt beam="1">  1        2 0.13734501E+00 0.21122728E+03</pdfrwt>
<pdfrwt beam="2">  1       -2 0.16574142E-02 0.21122728E+03</pdfrwt>
<totfact> 0.30652182E+04</totfact>
</mgrwt>
</event>
<event>
 4    1  0.6782240E-004  0.1979477E+03  0.7818608E-02  0.1151482E+00
         -2   -1    0    0    0  501 -0.00000000000E+00  0.00000000000E+00  0.93207211484E+01  0.93207214972E+01  0.25500000000E-02 0. -1.
          2   -1    0    0  501    0  0.00000000000E+00 -0.00000000000E+00 -0.10509725056E+04  0.10509725056E+04  0.25500000000E-02 0.  1.
    5000001    1    1    2    0    0 -0.11941819415E+01 -0.61877251530E+02 -0.55323186790E+03  0.56198284670E+03  0.77000000000E+02 0.  0.
   -5000001    1    1    2    0    0  0.11941819415E+01  0.61877251530E+02 -0.48841991652E+03  0.49831038037E+03  0.77000000000E+02 0.  0.
<mgrwt>
<rscale>  0 0.19794769E+03</rscale>
<asrwt>0</asrwt>
<pdfrwt beam="1">  1        2 0.15013885E+00 0.19794769E+03</pdfrwt>
<pdfrwt beam="2">  1       -2 0.13315323E-02 0.19794769E+03</pdfrwt>
<totfact> 0.37191355E+04</totfact>
</mgrwt>
</event>
<event>
 4    1  0.6782240E-004  0.2066929E+03  0.7818608E-02  0.1144212E+00
         -2   -1    0    0    0  501 -0.00000000000E+00  0.00000000000E+00  0.32416099323E+01  0.32416109353E+01  0.25500000000E-02 0. -1.
          2   -1    0    0  501    0  0.00000000000E+00 -0.00000000000E+00 -0.32948094311E+04  0.32948094311E+04  0.25500000000E-02 0.  1.
    5000001    1    1    2    0    0  0.47925545492E+02  0.16854395015E+02 -0.90239218521E+03  0.90709513529E+03  0.77000000000E+02 0.  0.
   -5000001    1    1    2    0    0 -0.47925545492E+02 -0.16854395015E+02 -0.23891756359E+04  0.23909559067E+04  0.77000000000E+02 0.  0.
<mgrwt>
<rscale>  0 0.20669290E+03</rscale>
<asrwt>0</asrwt>
<pdfrwt beam="1">  1        2 0.47068492E+00 0.20669290E+03</pdfrwt>
<pdfrwt beam="2">  1       -2 0.46308932E-03 0.20669290E+03</pdfrwt>
<totfact> 0.12437050E+04</totfact>
</mgrwt>
</event>
<event>
 4    1  0.6782240E-004  0.3310805E+03  0.7818608E-02  0.1070660E+00
          2   -1    0    0  501    0  0.00000000000E+00  0.00000000000E+00  0.33793502517E+03  0.33793502518E+03  0.25500000000E-02 0.  1.
         -2   -1    0    0    0  501 -0.00000000000E+00 -0.00000000000E+00 -0.81091228931E+02  0.81091228971E+02  0.25500000000E-02 0. -1.
    5000001    1    1    2    0    0  0.14570821972E+03 -0.12738355743E+02  0.13984177027E+03  0.21651298278E+03  0.77000000000E+02 0.  0.
   -5000001    1    1    2    0    0 -0.14570821972E+03  0.12738355743E+02  0.11700202597E+03  0.20251327137E+03  0.77000000000E+02 0.  0.
<mgrwt>
<rscale>  0 0.33108045E+03</rscale>
<asrwt>0</asrwt>
<pdfrwt beam="1">  1        2 0.48276432E-01 0.33108045E+03</pdfrwt>
<pdfrwt beam="2">  1       -2 0.11584461E-01 0.33108045E+03</pdfrwt>
<totfact> 0.54593843E+03</totfact>
</mgrwt>
</event>
<event>
 4    1  0.6782240E-004  0.1965625E+03  0.7818608E-02  0.1152672E+00
         -2   -1    0    0    0  501 -0.00000000000E+00  0.00000000000E+00  0.30488017052E+01  0.30488027716E+01  0.25500000000E-02 0. -1.
          2   -1    0    0  501    0  0.00000000000E+00 -0.00000000000E+00 -0.31681951611E+04  0.31681951611E+04  0.25500000000E-02 0.  1.
    5000001    1    1    2    0    0 -0.58777320827E+02  0.70292392967E+00 -0.18500846872E+04  0.18526191236E+04  0.77000000000E+02 0.  0.
   -5000001    1    1    2    0    0  0.58777320827E+02 -0.70292392967E+00 -0.13150616722E+04  0.13186248403E+04  0.77000000000E+02 0.  0.
<mgrwt>
<rscale>  0 0.19656246E+03</rscale>
<asrwt>0</asrwt>
<pdfrwt beam="1">  1        2 0.45259720E+00 0.19656246E+03</pdfrwt>
<pdfrwt beam="2">  1       -2 0.43554521E-03 0.19656246E+03</pdfrwt>
<totfact> 0.15900747E+04</totfact>
</mgrwt>
</event>
<event>
 4    1  0.6782240E-004  0.3522474E+03  0.7818608E-02  0.1061696E+00
          2   -1    0    0  501    0  0.00000000000E+00  0.00000000000E+00  0.10535983425E+04  0.10535983425E+04  0.25500000000E-02 0.  1.
         -2   -1    0    0    0  501 -0.00000000000E+00 -0.00000000000E+00 -0.29441545550E+02  0.29441545660E+02  0.25500000000E-02 0. -1.
    5000001    1    1    2    0    0  0.40313022515E+02  0.15309362778E+03  0.49587726270E+03  0.52619963732E+03  0.77000000000E+02 0.  0.
   -5000001    1    1    2    0    0 -0.40313022515E+02 -0.15309362778E+03  0.52827953421E+03  0.55684025081E+03  0.77000000000E+02 0.  0.
<mgrwt>
<rscale>  0 0.35224743E+03</rscale>
<asrwt>0</asrwt>
<pdfrwt beam="1">  1        2 0.15051402E+00 0.35224743E+03</pdfrwt>
<pdfrwt beam="2">  1       -2 0.42059359E-02 0.35224743E+03</pdfrwt>
<totfact> 0.69347706E+03</totfact>
</mgrwt>
</event>
<event>
 4    1  0.6782240E-004  0.2989480E+03  0.7818608E-02  0.1085768E+00
          2   -1    0    0  501    0  0.00000000000E+00  0.00000000000E+00  0.15929816173E+04  0.15929816173E+04  0.25500000000E-02 0.  1.
         -2   -1    0    0    0  501 -0.00000000000E+00 -0.00000000000E+00 -0.14025572290E+02  0.14025572522E+02  0.25500000000E-02 0. -1.
    5000001    1    1    2    0    0  0.11361728264E+03 -0.26897232218E+02  0.50599120527E+03  0.52496518725E+03  0.77000000000E+02 0.  0.
   -5000001    1    1    2    0    0 -0.11361728264E+03  0.26897232218E+02  0.10729648397E+04  0.10820420026E+04  0.77000000000E+02 0.  0.
<mgrwt>
<rscale>  0 0.29894802E+03</rscale>
<asrwt>0</asrwt>
<pdfrwt beam="1">  1        2 0.22756864E+00 0.29894802E+03</pdfrwt>
<pdfrwt beam="2">  1       -2 0.20036546E-02 0.29894802E+03</pdfrwt>
<totfact> 0.10819632E+04</totfact>
</mgrwt>
</event>
<event>
 4    1  0.6782240E-004  0.4225615E+03  0.7818608E-02  0.1036236E+00
          2   -1    0    0  501    0  0.00000000000E+00  0.00000000000E+00  0.43342566116E+03  0.43342566117E+03  0.25500000000E-02 0.  1.
         -2   -1    0    0    0  501 -0.00000000000E+00 -0.00000000000E+00 -0.10299241645E+03  0.10299241649E+03  0.25500000000E-02 0. -1.
    5000001    1    1    2    0    0 -0.14400979814E+03 -0.91194842598E+02  0.28995350848E+03  0.34504689298E+03  0.77000000000E+02 0.  0.
   -5000001    1    1    2    0    0  0.14400979814E+03  0.91194842598E+02  0.40479736229E+02  0.19137118467E+03  0.77000000000E+02 0.  0.
<mgrwt>
<rscale>  0 0.42256150E+03</rscale>
<asrwt>0</asrwt>
<pdfrwt beam="1">  1        2 0.61917952E-01 0.42256150E+03</pdfrwt>
<pdfrwt beam="2">  1       -2 0.14713202E-01 0.42256150E+03</pdfrwt>
<totfact> 0.28243603E+03</totfact>
</mgrwt>
</event>
<event>
 4    1  0.6782240E-004  0.1929681E+03  0.7818608E-02  0.1155811E+00
          2   -1    0    0  501    0  0.00000000000E+00  0.00000000000E+00  0.62657118471E+01  0.62657123660E+01  0.25500000000E-02 0.  1.
         -2   -1    0    0    0  501 -0.00000000000E+00 -0.00000000000E+00 -0.14857323325E+04  0.14857323325E+04  0.25500000000E-02 0. -1.
    5000001    1    1    2    0    0 -0.95561096198E+01 -0.22986875088E+02 -0.33350225511E+03  0.34317993796E+03  0.77000000000E+02 0.  0.
   -5000001    1    1    2    0    0  0.95561096198E+01  0.22986875088E+02 -0.11459643656E+04  0.11488181069E+04  0.77000000000E+02 0.  0.
<mgrwt>
<rscale>  0 0.19296809E+03</rscale>
<asrwt>0</asrwt>
<pdfrwt beam="1">  1        2 0.89510268E-03 0.19296809E+03</pdfrwt>
<pdfrwt beam="2">  1       -2 0.21224725E+00 0.19296809E+03</pdfrwt>
<totfact> 0.20026327E+03</totfact>
</mgrwt>
</event>
<event>
 4    1  0.6782240E-004  0.2780746E+03  0.7818608E-02  0.1096745E+00
         -2   -1    0    0    0  501 -0.00000000000E+00  0.00000000000E+00  0.12626801624E+02  0.12626801881E+02  0.25500000000E-02 0. -1.
          2   -1    0    0  501    0  0.00000000000E+00 -0.00000000000E+00 -0.15309794562E+04  0.15309794562E+04  0.25500000000E-02 0.  1.
    5000001    1    1    2    0    0 -0.19255898253E+02  0.81684174765E+02 -0.12018453667E+04  0.12072300441E+04  0.77000000000E+02 0.  0.
   -5000001    1    1    2    0    0  0.19255898253E+02 -0.81684174765E+02 -0.31650728784E+03  0.33637621391E+03  0.77000000000E+02 0.  0.
<mgrwt>
<rscale>  0 0.27807462E+03</rscale>
<asrwt>0</asrwt>
<pdfrwt beam="1">  1        2 0.21871123E+00 0.27807462E+03</pdfrwt>
<pdfrwt beam="2">  1       -2 0.18038298E-02 0.27807462E+03</pdfrwt>
<totfact> 0.13542152E+04</totfact>
</mgrwt>
</event>
<event>
 4    1  0.6782240E-004  0.1828665E+03  0.7818608E-02  0.1165057E+00
          2   -1    0    0  501    0  0.00000000000E+00  0.00000000000E+00  0.64368630452E+03  0.64368630452E+03  0.25500000000E-02 0.  1.
         -2   -1    0    0    0  501 -0.00000000000E+00 -0.00000000000E+00 -0.12987751026E+02  0.12987751276E+02  0.25500000000E-02 0. -1.
    5000001    1    1    2    0    0 -0.40754375392E+02  0.27206776243E+02  0.29571014863E+03  0.30947474822E+03  0.77000000000E+02 0.  0.
   -5000001    1    1    2    0    0  0.40754375392E+02 -0.27206776243E+02  0.33498840486E+03  0.34719930758E+03  0.77000000000E+02 0.  0.
<mgrwt>
<rscale>  0 0.18286648E+03</rscale>
<asrwt>0</asrwt>
<pdfrwt beam="1">  1        2 0.91955173E-01 0.18286648E+03</pdfrwt>
<pdfrwt beam="2">  1       -2 0.18553933E-02 0.18286648E+03</pdfrwt>
<totfact> 0.42023314E+04</totfact>
</mgrwt>
</event>
<event>
 4    1  0.6782240E-004  0.2099212E+03  0.7818608E-02  0.1141628E+00
          2   -1    0    0  501    0  0.00000000000E+00  0.00000000000E+00  0.12187629332E+04  0.12187629332E+04  0.25500000000E-02 0.  1.
         -2   -1    0    0    0  501 -0.00000000000E+00 -0.00000000000E+00 -0.90392740172E+01  0.90392743768E+01  0.25500000000E-02 0. -1.
    5000001    1    1    2    0    0  0.73856066070E+00 -0.65724785710E+02  0.44283234004E+03  0.45425738773E+03  0.77000000000E+02 0.  0.
   -5000001    1    1    2    0    0 -0.73856066070E+00  0.65724785710E+02  0.76689131916E+03  0.77354481986E+03  0.77000000000E+02 0.  0.
<mgrwt>
<rscale>  0 0.20992125E+03</rscale>
<asrwt>0</asrwt>
<pdfrwt beam="1">  1        2 0.17410910E+00 0.20992125E+03</pdfrwt>
<pdfrwt beam="2">  1       -2 0.12913241E-02 0.20992125E+03</pdfrwt>
<totfact> 0.31556308E+04</totfact>
</mgrwt>
</event>
<event>
 4    1  0.6782240E-004  0.2501819E+03  0.7818608E-02  0.1113190E+00
         -2   -1    0    0    0  501 -0.00000000000E+00  0.00000000000E+00  0.46702897485E+02  0.46702897555E+02  0.25500000000E-02 0. -1.
          2   -1    0    0  501    0  0.00000000000E+00 -0.00000000000E+00 -0.33504861050E+03  0.33504861051E+03  0.25500000000E-02 0.  1.
    5000001    1    1    2    0    0 -0.44643185445E+02  0.79206489490E+02 -0.86027228614E+02  0.14695702109E+03  0.77000000000E+02 0.  0.
   -5000001    1    1    2    0    0  0.44643185445E+02 -0.79206489490E+02 -0.20231848440E+03  0.23479448698E+03  0.77000000000E+02 0.  0.
<mgrwt>
<rscale>  0 0.25018186E+03</rscale>
<asrwt>0</asrwt>
<pdfrwt beam="1">  1        2 0.47864086E-01 0.25018186E+03</pdfrwt>
<pdfrwt beam="2">  1       -2 0.66718427E-02 0.25018186E+03</pdfrwt>
<totfact> 0.13004684E+04</totfact>
</mgrwt>
</event>
<event>
 4    1  0.6782240E-004  0.4681449E+03  0.7818608E-02  0.1022445E+00
         -2   -1    0    0    0  501 -0.00000000000E+00  0.00000000000E+00  0.15567542144E+02  0.15567542353E+02  0.25500000000E-02 0. -1.
          2   -1    0    0  501    0  0.00000000000E+00 -0.00000000000E+00 -0.35194967493E+04  0.35194967493E+04  0.25500000000E-02 0.  1.
    5000001    1    1    2    0    0 -0.10680066672E+03 -0.19343332981E+03 -0.17985617061E+04  0.18137188443E+04  0.77000000000E+02 0.  0.
   -5000001    1    1    2    0    0  0.10680066672E+03  0.19343332981E+03 -0.17053675011E+04  0.17213454474E+04  0.77000000000E+02 0.  0.
<mgrwt>
<rscale>  0 0.46814491E+03</rscale>
<asrwt>0</asrwt>
<pdfrwt beam="1">  1        2 0.50278474E+00 0.46814491E+03</pdfrwt>
<pdfrwt beam="2">  1       -2 0.22239369E-02 0.46814491E+03</pdfrwt>
<totfact> 0.91633543E+02</totfact>
</mgrwt>
</event>
<event>
 4    1  0.6782240E-004  0.1774696E+03  0.7818608E-02  0.1170275E+00
         -2   -1    0    0    0  501 -0.00000000000E+00  0.00000000000E+00  0.46931577627E+03  0.46931577628E+03  0.25500000000E-02 0. -1.
          2   -1    0    0  501    0  0.00000000000E+00 -0.00000000000E+00 -0.16777319313E+02  0.16777319506E+02  0.25500000000E-02 0.  1.
    5000001    1    1    2    0    0  0.32490218761E+02  0.25177935239E+02  0.27003516904E+03  0.28379135867E+03  0.77000000000E+02 0.  0.
   -5000001    1    1    2    0    0 -0.32490218761E+02 -0.25177935239E+02  0.18250328792E+03  0.20230173712E+03  0.77000000000E+02 0.  0.
<mgrwt>
<rscale>  0 0.17746955E+03</rscale>
<asrwt>0</asrwt>
<pdfrwt beam="1">  1        2 0.23967598E-02 0.17746955E+03</pdfrwt>
<pdfrwt beam="2">  1       -2 0.67045115E-01 0.17746955E+03</pdfrwt>
<totfact> 0.85880322E+03</totfact>
</mgrwt>
</event>
<event>
 4    1  0.6782240E-004  0.2228102E+03  0.7818608E-02  0.1131805E+00
         -2   -1    0    0    0  501 -0.00000000000E+00  0.00000000000E+00  0.87785268143E+02  0.87785268180E+02  0.25500000000E-02 0. -1.
          2   -1    0    0  501    0  0.00000000000E+00 -0.00000000000E+00 -0.14138017110E+03  0.14138017112E+03  0.25500000000E-02 0.  1.
    5000001    1    1    2    0    0  0.67467741359E+02  0.80406893100E+01  0.17626501612E+02  0.10419329330E+03  0.77000000000E+02 0.  0.
   -5000001    1    1    2    0    0 -0.67467741359E+02 -0.80406893100E+01 -0.71221404567E+02  0.12497214601E+03  0.77000000000E+02 0.  0.
<mgrwt>
<rscale>  0 0.22281020E+03</rscale>
<asrwt>0</asrwt>
<pdfrwt beam="1">  1        2 0.20197167E-01 0.22281020E+03</pdfrwt>
<pdfrwt beam="2">  1       -2 0.12540753E-01 0.22281020E+03</pdfrwt>
<totfact> 0.12310374E+04</totfact>
</mgrwt>
</event>
<event>
 4    1  0.6782240E-004  0.3052877E+03  0.7818608E-02  0.1082627E+00
         -2   -1    0    0    0  501 -0.00000000000E+00  0.00000000000E+00  0.21236264595E+02  0.21236264748E+02  0.25500000000E-02 0. -1.
          2   -1    0    0  501    0  0.00000000000E+00 -0.00000000000E+00 -0.10971864520E+04  0.10971864520E+04  0.25500000000E-02 0.  1.
    5000001    1    1    2    0    0 -0.13067077733E+03  0.23124184412E+01 -0.47548656006E+03  0.49909585064E+03  0.77000000000E+02 0.  0.
   -5000001    1    1    2    0    0  0.13067077733E+03 -0.23124184412E+01 -0.60046362738E+03  0.61932686614E+03  0.77000000000E+02 0.  0.
<mgrwt>
<rscale>  0 0.30528768E+03</rscale>
<asrwt>0</asrwt>
<pdfrwt beam="1">  1        2 0.15674089E+00 0.30528768E+03</pdfrwt>
<pdfrwt beam="2">  1       -2 0.30337528E-02 0.30528768E+03</pdfrwt>
<totfact> 0.10668200E+04</totfact>
</mgrwt>
</event>
<event>
 4    1  0.6782240E-004  0.2736236E+03  0.7818608E-02  0.1099223E+00
          2   -1    0    0  501    0  0.00000000000E+00  0.00000000000E+00  0.97077736681E+02  0.97077736714E+02  0.25500000000E-02 0.  1.
         -2   -1    0    0    0  501 -0.00000000000E+00 -0.00000000000E+00 -0.19280906240E+03  0.19280906242E+03  0.25500000000E-02 0. -1.
    5000001    1    1    2    0    0 -0.34382537009E+02  0.33203990347E+02 -0.15644525259E+03  0.18080038962E+03  0.77000000000E+02 0.  0.
   -5000001    1    1    2    0    0  0.34382537009E+02 -0.33203990347E+02  0.60713926869E+02  0.10908640952E+03  0.77000000000E+02 0.  0.
<mgrwt>
<rscale>  0 0.27362359E+03</rscale>
<asrwt>0</asrwt>
<pdfrwt beam="1">  1        2 0.13868248E-01 0.27362359E+03</pdfrwt>
<pdfrwt beam="2">  1       -2 0.27544152E-01 0.27362359E+03</pdfrwt>
<totfact> 0.50812559E+03</totfact>
</mgrwt>
</event>
<event>
 4    1  0.6782240E-004  0.2175900E+03  0.7818608E-02  0.1135693E+00
         -2   -1    0    0    0  501 -0.00000000000E+00  0.00000000000E+00  0.43917667246E+01  0.43917674649E+01  0.25500000000E-02 0. -1.
          2   -1    0    0  501    0  0.00000000000E+00 -0.00000000000E+00 -0.26951219314E+04  0.26951219314E+04  0.25500000000E-02 0.  1.
    5000001    1    1    2    0    0  0.11210769276E+02 -0.16444560459E+02 -0.22663901634E+04  0.22677851480E+04  0.77000000000E+02 0.  0.
   -5000001    1    1    2    0    0 -0.11210769276E+02  0.16444560459E+02 -0.42434000133E+03  0.43172855088E+03  0.77000000000E+02 0.  0.
<mgrwt>
<rscale>  0 0.21758996E+03</rscale>
<asrwt>0</asrwt>
<pdfrwt beam="1">  1        2 0.38501636E+00 0.21758996E+03</pdfrwt>
<pdfrwt beam="2">  1       -2 0.62739703E-03 0.21758996E+03</pdfrwt>
<totfact> 0.16663072E+04</totfact>
</mgrwt>
</event>
<event>
 4    1  0.6782240E-004  0.3049542E+03  0.7818608E-02  0.1082790E+00
         -2   -1    0    0    0  501 -0.00000000000E+00  0.00000000000E+00  0.14900763751E+02  0.14900763969E+02  0.25500000000E-02 0. -1.
          2   -1    0    0  501    0  0.00000000000E+00 -0.00000000000E+00 -0.15602735582E+04  0.15602735582E+04  0.25500000000E-02 0.  1.
    5000001    1    1    2    0    0  0.69468222130E+02  0.10433576632E+03 -0.97984456792E+03  0.99082600052E+03  0.77000000000E+02 0.  0.
   -5000001    1    1    2    0    0 -0.69468222130E+02 -0.10433576632E+03 -0.56552822657E+03  0.58434832169E+03  0.77000000000E+02 0.  0.
<mgrwt>
<rscale>  0 0.30495421E+03</rscale>
<asrwt>0</asrwt>
<pdfrwt beam="1">  1        2 0.22289612E+00 0.30495421E+03</pdfrwt>
<pdfrwt beam="2">  1       -2 0.21286815E-02 0.30495421E+03</pdfrwt>
<totfact> 0.10279587E+04</totfact>
</mgrwt>
</event>
<event>
 4    1  0.6782240E-004  0.2532446E+03  0.7818608E-02  0.1111271E+00
          2   -1    0    0  501    0  0.00000000000E+00  0.00000000000E+00  0.89649456618E+02  0.89649456654E+02  0.25500000000E-02 0.  1.
         -2   -1    0    0    0  501 -0.00000000000E+00 -0.00000000000E+00 -0.17884332323E+03  0.17884332325E+03  0.25500000000E-02 0. -1.
    5000001    1    1    2    0    0  0.17714285961E+02 -0.96191049349E+02 -0.69181329779E+02  0.14241337821E+03  0.77000000000E+02 0.  0.
   -5000001    1    1    2    0    0 -0.17714285961E+02  0.96191049349E+02 -0.20012536834E+02  0.12607940170E+03  0.77000000000E+02 0.  0.
<mgrwt>
<rscale>  0 0.25324460E+03</rscale>
<asrwt>0</asrwt>
<pdfrwt beam="1">  1        2 0.12807065E-01 0.25324460E+03</pdfrwt>
<pdfrwt beam="2">  1       -2 0.25549046E-01 0.25324460E+03</pdfrwt>
<totfact> 0.63712636E+03</totfact>
</mgrwt>
</event>
<event>
 4    1  0.6782240E-004  0.2081809E+03  0.7818608E-02  0.1143015E+00
          2   -1    0    0  501    0  0.00000000000E+00  0.00000000000E+00  0.51417252078E+03  0.51417252078E+03  0.25500000000E-02 0.  1.
         -2   -1    0    0    0  501 -0.00000000000E+00 -0.00000000000E+00 -0.21072339295E+02  0.21072339449E+02  0.25500000000E-02 0. -1.
    5000001    1    1    2    0    0 -0.28476047067E+02  0.35413515711E+02  0.10951455015E+03  0.14137693958E+03  0.77000000000E+02 0.  0.
   -5000001    1    1    2    0    0  0.28476047067E+02 -0.35413515711E+02  0.38358563134E+03  0.39386792065E+03  0.77000000000E+02 0.  0.
<mgrwt>
<rscale>  0 0.20818086E+03</rscale>
<asrwt>0</asrwt>
<pdfrwt beam="1">  1        2 0.73453232E-01 0.20818086E+03</pdfrwt>
<pdfrwt beam="2">  1       -2 0.30103336E-02 0.20818086E+03</pdfrwt>
<totfact> 0.26853044E+04</totfact>
</mgrwt>
</event>
<event>
 4    1  0.6782240E-004  0.1932782E+03  0.7818608E-02  0.1155537E+00
          2   -1    0    0  501    0  0.00000000000E+00  0.00000000000E+00  0.14498588167E+02  0.14498588391E+02  0.25500000000E-02 0.  1.
         -2   -1    0    0    0  501 -0.00000000000E+00 -0.00000000000E+00 -0.64413937495E+03  0.64413937495E+03  0.25500000000E-02 0. -1.
    5000001    1    1    2    0    0  0.31041466521E+02  0.41622558798E+02 -0.40588381604E+03  0.41637324862E+03  0.77000000000E+02 0.  0.
   -5000001    1    1    2    0    0 -0.31041466521E+02 -0.41622558798E+02 -0.22375697075E+03  0.24226471473E+03  0.77000000000E+02 0.  0.
<mgrwt>
<rscale>  0 0.19327816E+03</rscale>
<asrwt>0</asrwt>
<pdfrwt beam="1">  1        2 0.20712273E-02 0.19327816E+03</pdfrwt>
<pdfrwt beam="2">  1       -2 0.92019893E-01 0.19327816E+03</pdfrwt>
<totfact> 0.52818409E+03</totfact>
</mgrwt>
</event>
<event>
 4    1  0.6782240E-004  0.3307090E+03  0.7818608E-02  0.1070824E+00
         -2   -1    0    0    0  501 -0.00000000000E+00  0.00000000000E+00  0.41160441134E+03  0.41160441135E+03  0.25500000000E-02 0. -1.
          2   -1    0    0  501    0  0.00000000000E+00 -0.00000000000E+00 -0.66428144743E+02  0.66428144792E+02  0.25500000000E-02 0.  1.
    5000001    1    1    2    0    0 -0.11696968761E+03  0.83544741782E+02  0.13296290516E+03  0.21040381614E+03  0.77000000000E+02 0.  0.
   -5000001    1    1    2    0    0  0.11696968761E+03 -0.83544741782E+02  0.21221336144E+03  0.26762873999E+03  0.77000000000E+02 0.  0.
<mgrwt>
<rscale>  0 0.33070904E+03</rscale>
<asrwt>0</asrwt>
<pdfrwt beam="1">  1        2 0.94897352E-02 0.33070904E+03</pdfrwt>
<pdfrwt beam="2">  1       -2 0.58800629E-01 0.33070904E+03</pdfrwt>
<totfact> 0.18956312E+03</totfact>
</mgrwt>
</event>
<event>
 4    1  0.6782240E-004  0.2512052E+03  0.7818608E-02  0.1112546E+00
          2   -1    0    0  501    0  0.00000000000E+00  0.00000000000E+00  0.87393421999E+03  0.87393422000E+03  0.25500000000E-02 0.  1.
         -2   -1    0    0    0  501 -0.00000000000E+00 -0.00000000000E+00 -0.18051722647E+02  0.18051722827E+02  0.25500000000E-02 0. -1.
    5000001    1    1    2    0    0  0.84638685200E+02  0.46193652989E+02  0.51117441511E+03  0.52585724610E+03  0.77000000000E+02 0.  0.
   -5000001    1    1    2    0    0 -0.84638685200E+02 -0.46193652989E+02  0.34470808223E+03  0.36612869673E+03  0.77000000000E+02 0.  0.
<mgrwt>
<rscale>  0 0.25120524E+03</rscale>
<asrwt>0</asrwt>
<pdfrwt beam="1">  1        2 0.12484773E+00 0.25120524E+03</pdfrwt>
<pdfrwt beam="2">  1       -2 0.25788178E-02 0.25120524E+03</pdfrwt>
<totfact> 0.18319920E+04</totfact>
</mgrwt>
</event>
<event>
 4    1  0.6782240E-004  0.2155072E+03  0.7818608E-02  0.1137278E+00
         -2   -1    0    0    0  501 -0.00000000000E+00  0.00000000000E+00  0.11445187459E+03  0.11445187462E+03  0.25500000000E-02 0. -1.
          2   -1    0    0  501    0  0.00000000000E+00 -0.00000000000E+00 -0.10144733227E+03  0.10144733231E+03  0.25500000000E-02 0.  1.
    5000001    1    1    2    0    0 -0.21219347211E+02  0.62051312678E+02  0.43734525709E+02  0.11019226307E+03  0.77000000000E+02 0.  0.
   -5000001    1    1    2    0    0  0.21219347211E+02 -0.62051312678E+02 -0.30729983387E+02  0.10570694386E+03  0.77000000000E+02 0.  0.
<mgrwt>
<rscale>  0 0.21550719E+03</rscale>
<asrwt>0</asrwt>
<pdfrwt beam="1">  1        2 0.14492476E-01 0.21550719E+03</pdfrwt>
<pdfrwt beam="2">  1       -2 0.16350268E-01 0.21550719E+03</pdfrwt>
<totfact> 0.11699230E+04</totfact>
</mgrwt>
</event>
<event>
 4    1  0.6782240E-004  0.2045783E+03  0.7818608E-02  0.1145933E+00
          2   -1    0    0  501    0  0.00000000000E+00  0.00000000000E+00  0.44570817733E+03  0.44570817734E+03  0.25500000000E-02 0.  1.
         -2   -1    0    0    0  501 -0.00000000000E+00 -0.00000000000E+00 -0.23475153971E+02  0.23475154110E+02  0.25500000000E-02 0. -1.
    5000001    1    1    2    0    0 -0.57163031569E+02  0.17884078814E+02  0.14055467166E+03  0.17109081851E+03  0.77000000000E+02 0.  0.
   -5000001    1    1    2    0    0  0.57163031569E+02 -0.17884078814E+02  0.28167835170E+03  0.29809251294E+03  0.77000000000E+02 0.  0.
<mgrwt>
<rscale>  0 0.20457828E+03</rscale>
<asrwt>0</asrwt>
<pdfrwt beam="1">  1        2 0.63672597E-01 0.20457828E+03</pdfrwt>
<pdfrwt beam="2">  1       -2 0.33535934E-02 0.20457828E+03</pdfrwt>
<totfact> 0.26707897E+04</totfact>
</mgrwt>
</event>
<event>
 4    1  0.6782240E-004  0.2001063E+03  0.7818608E-02  0.1149649E+00
         -2   -1    0    0    0  501 -0.00000000000E+00  0.00000000000E+00  0.61450973570E+02  0.61450973623E+02  0.25500000000E-02 0. -1.
          2   -1    0    0  501    0  0.00000000000E+00 -0.00000000000E+00 -0.16290445702E+03  0.16290445704E+03  0.25500000000E-02 0.  1.
    5000001    1    1    2    0    0 -0.41998297893E+02 -0.33653632854E+02 -0.12127923257E+02  0.94723336896E+02  0.77000000000E+02 0.  0.
   -5000001    1    1    2    0    0  0.41998297893E+02  0.33653632854E+02 -0.89325560191E+02  0.12963209376E+03  0.77000000000E+02 0.  0.
<mgrwt>
<rscale>  0 0.20010635E+03</rscale>
<asrwt>0</asrwt>
<pdfrwt beam="1">  1        2 0.23272065E-01 0.20010635E+03</pdfrwt>
<pdfrwt beam="2">  1       -2 0.87787106E-02 0.20010635E+03</pdfrwt>
<totfact> 0.18357437E+04</totfact>
</mgrwt>
</event>
<event>
 4    1  0.6782240E-004  0.1797274E+03  0.7818608E-02  0.1168067E+00
         -2   -1    0    0    0  501 -0.00000000000E+00  0.00000000000E+00  0.69521593504E+01  0.69521598181E+01  0.25500000000E-02 0. -1.
          2   -1    0    0  501    0  0.00000000000E+00 -0.00000000000E+00 -0.11615790627E+04  0.11615790627E+04  0.25500000000E-02 0.  1.
    5000001    1    1    2    0    0 -0.40604101856E+02 -0.17714024044E+02 -0.66550741419E+03  0.67141015637E+03  0.77000000000E+02 0.  0.
   -5000001    1    1    2    0    0  0.40604101856E+02  0.17714024044E+02 -0.48911948918E+03  0.49712106617E+03  0.77000000000E+02 0.  0.
<mgrwt>
<rscale>  0 0.17972738E+03</rscale>
<asrwt>0</asrwt>
<pdfrwt beam="1">  1        2 0.16593974E+00 0.17972738E+03</pdfrwt>
<pdfrwt beam="2">  1       -2 0.99316640E-03 0.17972738E+03</pdfrwt>
<totfact> 0.48935647E+04</totfact>
</mgrwt>
</event>
<event>
 4    1  0.6782240E-004  0.3618473E+03  0.7818608E-02  0.1057855E+00
          2   -1    0    0  501    0  0.00000000000E+00  0.00000000000E+00  0.36047061647E+04  0.36047061647E+04  0.25500000000E-02 0.  1.
         -2   -1    0    0    0  501 -0.00000000000E+00 -0.00000000000E+00 -0.90807301393E+01  0.90807304973E+01  0.25500000000E-02 0. -1.
    5000001    1    1    2    0    0  0.10225544844E+03 -0.64329947346E+02  0.69426197526E+03  0.70888871423E+03  0.77000000000E+02 0.  0.
   -5000001    1    1    2    0    0 -0.10225544844E+03  0.64329947346E+02  0.29013634593E+04  0.29048981809E+04  0.77000000000E+02 0.  0.
<mgrwt>
<rscale>  0 0.36184729E+03</rscale>
<asrwt>0</asrwt>
<pdfrwt beam="1">  1        2 0.51495984E+00 0.36184729E+03</pdfrwt>
<pdfrwt beam="2">  1       -2 0.12972426E-02 0.36184729E+03</pdfrwt>
<totfact> 0.18378896E+03</totfact>
</mgrwt>
</event>
<event>
 4    1  0.6782240E-004  0.1767449E+03  0.7818608E-02  0.1170991E+00
         -2   -1    0    0    0  501 -0.00000000000E+00  0.00000000000E+00  0.82639042641E+03  0.82639042642E+03  0.25500000000E-02 0. -1.
          2   -1    0    0  501    0  0.00000000000E+00 -0.00000000000E+00 -0.94503621810E+01  0.94503625250E+01  0.25500000000E-02 0.  1.
    5000001    1    1    2    0    0  0.14470843952E+02 -0.40881333131E+02  0.40839456202E+03  0.41784663097E+03  0.77000000000E+02 0.  0.
   -5000001    1    1    2    0    0 -0.14470843952E+02  0.40881333131E+02  0.40854550221E+03  0.41799415797E+03  0.77000000000E+02 0.  0.
<mgrwt>
<rscale>  0 0.17674489E+03</rscale>
<asrwt>0</asrwt>
<pdfrwt beam="1">  1        2 0.13500515E-02 0.17674489E+03</pdfrwt>
<pdfrwt beam="2">  1       -2 0.11805580E+00 0.17674489E+03</pdfrwt>
<totfact> 0.52920537E+03</totfact>
</mgrwt>
</event>
<event>
 4    1  0.6782240E-004  0.2477113E+03  0.7818608E-02  0.1114760E+00
          2   -1    0    0  501    0  0.00000000000E+00  0.00000000000E+00  0.22490895373E+04  0.22490895373E+04  0.25500000000E-02 0.  1.
         -2   -1    0    0    0  501 -0.00000000000E+00 -0.00000000000E+00 -0.68206341556E+01  0.68206346323E+01  0.25500000000E-02 0. -1.
    5000001    1    1    2    0    0  0.90007249324E+02 -0.34200199682E+02  0.10132792207E+04  0.10207520452E+04  0.77000000000E+02 0.  0.
   -5000001    1    1    2    0    0 -0.90007249324E+02  0.34200199682E+02  0.12289896824E+04  0.12351581268E+04  0.77000000000E+02 0.  0.
<mgrwt>
<rscale>  0 0.24771126E+03</rscale>
<asrwt>0</asrwt>
<pdfrwt beam="1">  1        2 0.32129801E+00 0.24771126E+03</pdfrwt>
<pdfrwt beam="2">  1       -2 0.97437784E-03 0.24771126E+03</pdfrwt>
<totfact> 0.14736942E+04</totfact>
</mgrwt>
</event>
<event>
 4    1  0.6782240E-004  0.2275761E+03  0.7818608E-02  0.1128358E+00
          2   -1    0    0  501    0  0.00000000000E+00  0.00000000000E+00  0.71156001264E+03  0.71156001264E+03  0.25500000000E-02 0.  1.
         -2   -1    0    0    0  501 -0.00000000000E+00 -0.00000000000E+00 -0.18196242577E+02  0.18196242756E+02  0.25500000000E-02 0. -1.
    5000001    1    1    2    0    0 -0.17245246886E-01 -0.73377956014E+02  0.47631906500E+03  0.48805038307E+03  0.77000000000E+02 0.  0.
   -5000001    1    1    2    0    0  0.17245246886E-01  0.73377956014E+02  0.21704470506E+03  0.24170587233E+03  0.77000000000E+02 0.  0.
<mgrwt>
<rscale>  0 0.22757609E+03</rscale>
<asrwt>0</asrwt>
<pdfrwt beam="1">  1        2 0.10165142E+00 0.22757609E+03</pdfrwt>
<pdfrwt beam="2">  1       -2 0.25994634E-02 0.22757609E+03</pdfrwt>
<totfact> 0.23178763E+04</totfact>
</mgrwt>
</event>
<event>
 4    1  0.6782240E-004  0.2132455E+03  0.7818608E-02  0.1139021E+00
         -2   -1    0    0    0  501 -0.00000000000E+00  0.00000000000E+00  0.29529205890E+02  0.29529206000E+02  0.25500000000E-02 0. -1.
          2   -1    0    0  501    0  0.00000000000E+00 -0.00000000000E+00 -0.38498884491E+03  0.38498884491E+03  0.25500000000E-02 0.  1.
    5000001    1    1    2    0    0  0.39273872557E+02  0.56415657781E+02 -0.12577940236E+03  0.16271023805E+03  0.77000000000E+02 0.  0.
   -5000001    1    1    2    0    0 -0.39273872557E+02 -0.56415657781E+02 -0.22968023666E+03  0.25180781287E+03  0.77000000000E+02 0.  0.
<mgrwt>
<rscale>  0 0.21324554E+03</rscale>
<asrwt>0</asrwt>
<pdfrwt beam="1">  1        2 0.54998403E-01 0.21324554E+03</pdfrwt>
<pdfrwt beam="2">  1       -2 0.42184582E-02 0.21324554E+03</pdfrwt>
<totfact> 0.22268834E+04</totfact>
</mgrwt>
</event>
<event>
 4    1  0.6782240E-004  0.1694015E+03  0.7818608E-02  0.1178473E+00
          2   -1    0    0  501    0  0.00000000000E+00  0.00000000000E+00  0.46997293492E+03  0.46997293492E+03  0.25500000000E-02 0.  1.
         -2   -1    0    0    0  501 -0.00000000000E+00 -0.00000000000E+00 -0.15265165147E+02  0.15265165360E+02  0.25500000000E-02 0. -1.
    5000001    1    1    2    0    0 -0.15889439785E+02 -0.30602522591E+02  0.24883247009E+03  0.26274624042E+03  0.77000000000E+02 0.  0.
   -5000001    1    1    2    0    0  0.15889439785E+02  0.30602522591E+02  0.20587529968E+03  0.22249185986E+03  0.77000000000E+02 0.  0.
<mgrwt>
<rscale>  0 0.16940147E+03</rscale>
<asrwt>0</asrwt>
<pdfrwt beam="1">  1        2 0.67138993E-01 0.16940147E+03</pdfrwt>
<pdfrwt beam="2">  1       -2 0.21807378E-02 0.16940147E+03</pdfrwt>
<totfact> 0.46763494E+04</totfact>
</mgrwt>
</event>
<event>
 4    1  0.6782240E-004  0.4080247E+03  0.7818608E-02  0.1041036E+00
          2   -1    0    0  501    0  0.00000000000E+00  0.00000000000E+00  0.87141852102E+03  0.87141852102E+03  0.25500000000E-02 0.  1.
         -2   -1    0    0    0  501 -0.00000000000E+00 -0.00000000000E+00 -0.47762388182E+02  0.47762388250E+02  0.25500000000E-02 0. -1.
    5000001    1    1    2    0    0  0.18587565517E+03 -0.26775839596E+02  0.36536851529E+03  0.41795915679E+03  0.77000000000E+02 0.  0.
   -5000001    1    1    2    0    0 -0.18587565517E+03  0.26775839596E+02  0.45828761754E+03  0.50122175248E+03  0.77000000000E+02 0.  0.
<mgrwt>
<rscale>  0 0.40802465E+03</rscale>
<asrwt>0</asrwt>
<pdfrwt beam="1">  1        2 0.12448836E+00 0.40802465E+03</pdfrwt>
<pdfrwt beam="2">  1       -2 0.68231983E-02 0.40802465E+03</pdfrwt>
<totfact> 0.42672296E+03</totfact>
</mgrwt>
</event>
<event>
 4    1  0.6782240E-004  0.3233193E+03  0.7818608E-02  0.1074132E+00
         -2   -1    0    0    0  501 -0.00000000000E+00  0.00000000000E+00  0.20010698286E+02  0.20010698448E+02  0.25500000000E-02 0. -1.
          2   -1    0    0  501    0  0.00000000000E+00 -0.00000000000E+00 -0.13059932387E+04  0.13059932387E+04  0.25500000000E-02 0.  1.
    5000001    1    1    2    0    0  0.10593076802E+03 -0.39944032865E+02 -0.99550512139E+03  0.10048762611E+04  0.77000000000E+02 0.  0.
   -5000001    1    1    2    0    0 -0.10593076802E+03  0.39944032865E+02 -0.29047741905E+03  0.32112767610E+03  0.77000000000E+02 0.  0.
<mgrwt>
<rscale>  0 0.32331926E+03</rscale>
<asrwt>0</asrwt>
<pdfrwt beam="1">  1        2 0.18657041E+00 0.32331926E+03</pdfrwt>
<pdfrwt beam="2">  1       -2 0.28586720E-02 0.32331926E+03</pdfrwt>
<totfact> 0.89778349E+03</totfact>
</mgrwt>
</event>
<event>
 4    1  0.6782240E-004  0.1979525E+03  0.7818608E-02  0.1151478E+00
          2   -1    0    0  501    0  0.00000000000E+00  0.00000000000E+00  0.19256694054E+03  0.19256694056E+03  0.25500000000E-02 0.  1.
         -2   -1    0    0    0  501 -0.00000000000E+00 -0.00000000000E+00 -0.50872148670E+02  0.50872148734E+02  0.25500000000E-02 0. -1.
    5000001    1    1    2    0    0 -0.29216476766E+02  0.47253197038E+02  0.36483151909E+02  0.10171768538E+03  0.77000000000E+02 0.  0.
   -5000001    1    1    2    0    0  0.29216476766E+02 -0.47253197038E+02  0.10521163997E+03  0.14172140392E+03  0.77000000000E+02 0.  0.
<mgrwt>
<rscale>  0 0.19795246E+03</rscale>
<asrwt>0</asrwt>
<pdfrwt beam="1">  1        2 0.27509563E-01 0.19795246E+03</pdfrwt>
<pdfrwt beam="2">  1       -2 0.72674498E-02 0.19795246E+03</pdfrwt>
<totfact> 0.20434113E+04</totfact>
</mgrwt>
</event>
<event>
 4    1  0.6782240E-004  0.2791673E+03  0.7818608E-02  0.1096145E+00
         -2   -1    0    0    0  501 -0.00000000000E+00  0.00000000000E+00  0.10095989227E+02  0.10095989549E+02  0.25500000000E-02 0. -1.
          2   -1    0    0  501    0  0.00000000000E+00 -0.00000000000E+00 -0.19298347308E+04  0.19298347308E+04  0.25500000000E-02 0.  1.
    5000001    1    1    2    0    0 -0.68683283744E+01 -0.92285300199E+02 -0.46895181416E+03  0.48415757205E+03  0.77000000000E+02 0.  0.
   -5000001    1    1    2    0    0  0.68683283744E+01  0.92285300199E+02 -0.14507869274E+04  0.14557731483E+04  0.77000000000E+02 0.  0.
<mgrwt>
<rscale>  0 0.27916727E+03</rscale>
<asrwt>0</asrwt>
<pdfrwt beam="1">  1        2 0.27569044E+00 0.27916727E+03</pdfrwt>
<pdfrwt beam="2">  1       -2 0.14422854E-02 0.27916727E+03</pdfrwt>
<totfact> 0.11947854E+04</totfact>
</mgrwt>
</event>
<event>
 4    1  0.6782240E-004  0.2544641E+03  0.7818608E-02  0.1110516E+00
         -2   -1    0    0    0  501 -0.00000000000E+00  0.00000000000E+00  0.20265253794E+03  0.20265253796E+03  0.25500000000E-02 0. -1.
          2   -1    0    0  501    0  0.00000000000E+00 -0.00000000000E+00 -0.79880545784E+02  0.79880545825E+02  0.25500000000E-02 0.  1.
    5000001    1    1    2    0    0  0.30177181431E+02 -0.29701382924E+02  0.16354720844E+03  0.18565969895E+03  0.77000000000E+02 0.  0.
   -5000001    1    1    2    0    0 -0.30177181431E+02  0.29701382924E+02 -0.40775216278E+02  0.96873384834E+02  0.77000000000E+02 0.  0.
<mgrwt>
<rscale>  0 0.25446411E+03</rscale>
<asrwt>0</asrwt>
<pdfrwt beam="1">  1        2 0.11411507E-01 0.25446411E+03</pdfrwt>
<pdfrwt beam="2">  1       -2 0.28950362E-01 0.25446411E+03</pdfrwt>
<totfact> 0.58649536E+03</totfact>
</mgrwt>
</event>
<event>
 4    1  0.6782240E-004  0.2300808E+03  0.7818608E-02  0.1126583E+00
         -2   -1    0    0    0  501 -0.00000000000E+00  0.00000000000E+00  0.12179783675E+02  0.12179783942E+02  0.25500000000E-02 0. -1.
          2   -1    0    0  501    0  0.00000000000E+00 -0.00000000000E+00 -0.10865783946E+04  0.10865783946E+04  0.25500000000E-02 0.  1.
    5000001    1    1    2    0    0 -0.41721121657E+02  0.25083617952E+02 -0.87269363433E+03  0.87743547870E+03  0.77000000000E+02 0.  0.
   -5000001    1    1    2    0    0  0.41721121657E+02 -0.25083617952E+02 -0.20170497656E+03  0.22132269981E+03  0.77000000000E+02 0.  0.
<mgrwt>
<rscale>  0 0.23008077E+03</rscale>
<asrwt>0</asrwt>
<pdfrwt beam="1">  1        2 0.15522542E+00 0.23008077E+03</pdfrwt>
<pdfrwt beam="2">  1       -2 0.17399698E-02 0.23008077E+03</pdfrwt>
<totfact> 0.24289859E+04</totfact>
</mgrwt>
</event>
<event>
 4    1  0.6782240E-004  0.2358641E+03  0.7818608E-02  0.1122579E+00
         -2   -1    0    0    0  501 -0.00000000000E+00  0.00000000000E+00  0.93846703953E+01  0.93846707417E+01  0.25500000000E-02 0. -1.
          2   -1    0    0  501    0  0.00000000000E+00 -0.00000000000E+00 -0.14819878296E+04  0.14819878296E+04  0.25500000000E-02 0.  1.
    5000001    1    1    2    0    0  0.88010127395E+02 -0.15186923591E+02 -0.74638356657E+03  0.75564135251E+03  0.77000000000E+02 0.  0.
   -5000001    1    1    2    0    0 -0.88010127395E+02  0.15186923591E+02 -0.72621959268E+03  0.73573114788E+03  0.77000000000E+02 0.  0.
<mgrwt>
<rscale>  0 0.23586409E+03</rscale>
<asrwt>0</asrwt>
<pdfrwt beam="1">  1        2 0.21171240E+00 0.23586409E+03</pdfrwt>
<pdfrwt beam="2">  1       -2 0.13406682E-02 0.23586409E+03</pdfrwt>
<totfact> 0.21980995E+04</totfact>
</mgrwt>
</event>
<event>
 4    1  0.6782240E-004  0.2284913E+03  0.7818608E-02  0.1127706E+00
         -2   -1    0    0    0  501 -0.00000000000E+00  0.00000000000E+00  0.26280920229E+03  0.26280920230E+03  0.25500000000E-02 0. -1.
          2   -1    0    0  501    0  0.00000000000E+00 -0.00000000000E+00 -0.49663656931E+02  0.49663656997E+02  0.25500000000E-02 0.  1.
    5000001    1    1    2    0    0  0.50116227474E+02 -0.62041512739E+02  0.68815546367E+02  0.13048128211E+03  0.77000000000E+02 0.  0.
   -5000001    1    1    2    0    0 -0.50116227474E+02  0.62041512739E+02  0.14432999899E+03  0.18199157719E+03  0.77000000000E+02 0.  0.
<mgrwt>
<rscale>  0 0.22849128E+03</rscale>
<asrwt>0</asrwt>
<pdfrwt beam="1">  1        2 0.70948083E-02 0.22849128E+03</pdfrwt>
<pdfrwt beam="2">  1       -2 0.37544171E-01 0.22849128E+03</pdfrwt>
<totfact> 0.65568639E+03</totfact>
</mgrwt>
</event>
<event>
 4    1  0.6782240E-004  0.7166082E+03  0.7818608E-02  0.9689244E-01
         -2   -1    0    0    0  501 -0.00000000000E+00  0.00000000000E+00  0.74612926319E+02  0.74612926362E+02  0.25500000000E-02 0. -1.
          2   -1    0    0  501    0  0.00000000000E+00 -0.00000000000E+00 -0.17206378632E+04  0.17206378632E+04  0.25500000000E-02 0.  1.
    5000001    1    1    2    0    0  0.16612151582E+03  0.22946161918E+03 -0.13376711540E+04  0.13695043297E+04  0.77000000000E+02 0.  0.
   -5000001    1    1    2    0    0 -0.16612151582E+03 -0.22946161918E+03 -0.30835378281E+03  0.42574645984E+03  0.77000000000E+02 0.  0.
<mgrwt>
<rscale>  0 0.71660819E+03</rscale>
<asrwt>0</asrwt>
<pdfrwt beam="1">  1        2 0.24580538E+00 0.71660819E+03</pdfrwt>
<pdfrwt beam="2">  1       -2 0.10658991E-01 0.71660819E+03</pdfrwt>
<totfact> 0.70282027E+02</totfact>
</mgrwt>
</event>
<event>
 4    1  0.6782240E-004  0.2076172E+03  0.7818608E-02  0.1143467E+00
          2   -1    0    0  501    0  0.00000000000E+00  0.00000000000E+00  0.14791761494E+03  0.14791761496E+03  0.25500000000E-02 0.  1.
         -2   -1    0    0    0  501 -0.00000000000E+00 -0.00000000000E+00 -0.72852900778E+02  0.72852900823E+02  0.25500000000E-02 0. -1.
    5000001    1    1    2    0    0  0.63667357934E+02  0.98879056473E+01  0.94806903980E+01  0.10084734322E+03  0.77000000000E+02 0.  0.
   -5000001    1    1    2    0    0 -0.63667357934E+02 -0.98879056473E+01  0.65584023763E+02  0.11992317256E+03  0.77000000000E+02 0.  0.
<mgrwt>
<rscale>  0 0.20761722E+03</rscale>
<asrwt>0</asrwt>
<pdfrwt beam="1">  1        2 0.21131088E-01 0.20761722E+03</pdfrwt>
<pdfrwt beam="2">  1       -2 0.10407557E-01 0.20761722E+03</pdfrwt>
<totfact> 0.15690464E+04</totfact>
</mgrwt>
</event>
<event>
 4    1  0.6782240E-004  0.6468973E+03  0.7818608E-02  0.9812619E-01
         -2   -1    0    0    0  501 -0.00000000000E+00  0.00000000000E+00  0.52372533626E+02  0.52372533688E+02  0.25500000000E-02 0. -1.
          2   -1    0    0  501    0  0.00000000000E+00 -0.00000000000E+00 -0.19975932380E+04  0.19975932380E+04  0.25500000000E-02 0.  1.
    5000001    1    1    2    0    0 -0.10487195617E+03  0.29479679024E+03 -0.88372542676E+03  0.94063962527E+03  0.77000000000E+02 0.  0.
   -5000001    1    1    2    0    0  0.10487195617E+03 -0.29479679024E+03 -0.10614952776E+04  0.11093261464E+04  0.77000000000E+02 0.  0.
<mgrwt>
<rscale>  0 0.64689727E+03</rscale>
<asrwt>0</asrwt>
<pdfrwt beam="1">  1        2 0.28537041E+00 0.64689727E+03</pdfrwt>
<pdfrwt beam="2">  1       -2 0.74817918E-02 0.64689727E+03</pdfrwt>
<totfact> 0.90359583E+02</totfact>
</mgrwt>
</event>
<event>
 4    1  0.6782240E-004  0.2801355E+03  0.7818608E-02  0.1095615E+00
          2   -1    0    0  501    0  0.00000000000E+00  0.00000000000E+00  0.16153873136E+04  0.16153873136E+04  0.25500000000E-02 0.  1.
         -2   -1    0    0    0  501 -0.00000000000E+00 -0.00000000000E+00 -0.12145058549E+02  0.12145058817E+02  0.25500000000E-02 0. -1.
    5000001    1    1    2    0    0  0.10788680044E+03 -0.15779090153E+02  0.10482082956E+04  0.10566731625E+04  0.77000000000E+02 0.  0.
   -5000001    1    1    2    0    0 -0.10788680044E+03  0.15779090153E+02  0.55503395937E+03  0.57085920983E+03  0.77000000000E+02 0.  0.
<mgrwt>
<rscale>  0 0.28013549E+03</rscale>
<asrwt>0</asrwt>
<pdfrwt beam="1">  1        2 0.23076953E+00 0.28013549E+03</pdfrwt>
<pdfrwt beam="2">  1       -2 0.17350090E-02 0.28013549E+03</pdfrwt>
<totfact> 0.13012308E+04</totfact>
</mgrwt>
</event>
<event>
 4    1  0.6782240E-004  0.2457197E+03  0.7818608E-02  0.1116040E+00
          2   -1    0    0  501    0  0.00000000000E+00  0.00000000000E+00  0.42593381090E+03  0.42593381091E+03  0.25500000000E-02 0.  1.
         -2   -1    0    0    0  501 -0.00000000000E+00 -0.00000000000E+00 -0.35438705641E+02  0.35438705733E+02  0.25500000000E-02 0. -1.
    5000001    1    1    2    0    0  0.24393737467E+02 -0.52708435048E+02  0.52345779515E+02  0.10973747849E+03  0.77000000000E+02 0.  0.
   -5000001    1    1    2    0    0 -0.24393737467E+02  0.52708435048E+02  0.33814932574E+03  0.35163503815E+03  0.77000000000E+02 0.  0.
<mgrwt>
<rscale>  0 0.24571970E+03</rscale>
<asrwt>0</asrwt>
<pdfrwt beam="1">  1        2 0.60847684E-01 0.24571970E+03</pdfrwt>
<pdfrwt beam="2">  1       -2 0.50626726E-02 0.24571970E+03</pdfrwt>
<totfact> 0.15299125E+04</totfact>
</mgrwt>
</event>
<event>
 4    1  0.6782240E-004  0.2577133E+03  0.7818608E-02  0.1108525E+00
         -2   -1    0    0    0  501 -0.00000000000E+00  0.00000000000E+00  0.26584142779E+02  0.26584142901E+02  0.25500000000E-02 0. -1.
          2   -1    0    0  501    0  0.00000000000E+00 -0.00000000000E+00 -0.62458424007E+03  0.62458424008E+03  0.25500000000E-02 0.  1.
    5000001    1    1    2    0    0  0.76918280064E+02 -0.64387213474E+02 -0.36155358146E+03  0.38303019115E+03  0.77000000000E+02 0.  0.
   -5000001    1    1    2    0    0 -0.76918280064E+02  0.64387213474E+02 -0.23644651584E+03  0.26813819183E+03  0.77000000000E+02 0.  0.
<mgrwt>
<rscale>  0 0.25771330E+03</rscale>
<asrwt>0</asrwt>
<pdfrwt beam="1">  1        2 0.89226311E-01 0.25771330E+03</pdfrwt>
<pdfrwt beam="2">  1       -2 0.37977351E-02 0.25771330E+03</pdfrwt>
<totfact> 0.15462844E+04</totfact>
</mgrwt>
</event>
<event>
 4    1  0.6782240E-004  0.3424874E+03  0.7818608E-02  0.1065741E+00
         -2   -1    0    0    0  501 -0.00000000000E+00  0.00000000000E+00  0.38173972158E+02  0.38173972243E+02  0.25500000000E-02 0. -1.
          2   -1    0    0  501    0  0.00000000000E+00 -0.00000000000E+00 -0.76817816684E+03  0.76817816684E+03  0.25500000000E-02 0.  1.
    5000001    1    1    2    0    0 -0.11216956347E+03 -0.79153833208E+02 -0.20622284878E+03  0.25943053722E+03  0.77000000000E+02 0.  0.
   -5000001    1    1    2    0    0  0.11216956347E+03  0.79153833208E+02 -0.52378134589E+03  0.54692160187E+03  0.77000000000E+02 0.  0.
<mgrwt>
<rscale>  0 0.34248744E+03</rscale>
<asrwt>0</asrwt>
<pdfrwt beam="1">  1        2 0.10973973E+00 0.34248744E+03</pdfrwt>
<pdfrwt beam="2">  1       -2 0.54534251E-02 0.34248744E+03</pdfrwt>
<totfact> 0.70582076E+03</totfact>
</mgrwt>
</event>
<event>
 4    1  0.6782240E-004  0.2415623E+03  0.7818608E-02  0.1118756E+00
          2   -1    0    0  501    0  0.00000000000E+00  0.00000000000E+00  0.20290689698E+03  0.20290689700E+03  0.25500000000E-02 0.  1.
         -2   -1    0    0    0  501 -0.00000000000E+00 -0.00000000000E+00 -0.71895441872E+02  0.71895441917E+02  0.25500000000E-02 0. -1.
    5000001    1    1    2    0    0  0.71083984136E+02 -0.17329654996E+01 -0.27803581635E+01  0.10484591724E+03  0.77000000000E+02 0.  0.
   -5000001    1    1    2    0    0 -0.71083984136E+02  0.17329654996E+01  0.13379181327E+03  0.16995642168E+03  0.77000000000E+02 0.  0.
<mgrwt>
<rscale>  0 0.24156226E+03</rscale>
<asrwt>0</asrwt>
<pdfrwt beam="1">  1        2 0.28986699E-01 0.24156226E+03</pdfrwt>
<pdfrwt beam="2">  1       -2 0.10270777E-01 0.24156226E+03</pdfrwt>
<totfact> 0.11371808E+04</totfact>
</mgrwt>
</event>
<event>
 4    1  0.6782240E-004  0.2447041E+03  0.7818608E-02  0.1116698E+00
          2   -1    0    0  501    0  0.00000000000E+00  0.00000000000E+00  0.39753193335E+03  0.39753193336E+03  0.25500000000E-02 0.  1.
         -2   -1    0    0    0  501 -0.00000000000E+00 -0.00000000000E+00 -0.37657421086E+02  0.37657421172E+02  0.25500000000E-02 0. -1.
    5000001    1    1    2    0    0 -0.82437060893E+02 -0.35300913078E+02  0.23614816064E+03  0.26407759702E+03  0.77000000000E+02 0.  0.
   -5000001    1    1    2    0    0  0.82437060893E+02  0.35300913078E+02  0.12372635162E+03  0.17111175751E+03  0.77000000000E+02 0.  0.
<mgrwt>
<rscale>  0 0.24470413E+03</rscale>
<asrwt>0</asrwt>
<pdfrwt beam="1">  1        2 0.56790272E-01 0.24470413E+03</pdfrwt>
<pdfrwt beam="2">  1       -2 0.53796320E-02 0.24470413E+03</pdfrwt>
<totfact> 0.15026961E+04</totfact>
</mgrwt>
</event>
<event>
 4    1  0.6782240E-004  0.2617832E+03  0.7818608E-02  0.1106077E+00
         -2   -1    0    0    0  501 -0.00000000000E+00  0.00000000000E+00  0.94425696528E+01  0.94425699971E+01  0.25500000000E-02 0.  1.
          2   -1    0    0  501    0  0.00000000000E+00 -0.00000000000E+00 -0.18144012830E+04  0.18144012830E+04  0.25500000000E-02 0. -1.
    5000001    1    1    2    0    0  0.44616349649E+02  0.88632108814E+02 -0.64580029821E+03  0.65790067224E+03  0.77000000000E+02 0.  0.
   -5000001    1    1    2    0    0 -0.44616349649E+02 -0.88632108814E+02 -0.11591584151E+04  0.11659431807E+04  0.77000000000E+02 0.  0.
<mgrwt>
<rscale>  0 0.26178320E+03</rscale>
<asrwt>0</asrwt>
<pdfrwt beam="1">  1        2 0.25919996E+00 0.26178320E+03</pdfrwt>
<pdfrwt beam="2">  1       -2 0.13489397E-02 0.26178320E+03</pdfrwt>
<totfact> 0.14976786E+04</totfact>
</mgrwt>
</event>
<event>
 4    1  0.6782240E-004  0.2655198E+03  0.7818608E-02  0.1103871E+00
         -2   -1    0    0    0  501 -0.00000000000E+00  0.00000000000E+00  0.28533707604E+02  0.28533707717E+02  0.25500000000E-02 0. -1.
          2   -1    0    0  501    0  0.00000000000E+00 -0.00000000000E+00 -0.61769739806E+03  0.61769739807E+03  0.25500000000E-02 0.  1.
    5000001    1    1    2    0    0  0.88653771321E+02  0.19944769840E+02 -0.43730728917E+03  0.45323718975E+03  0.77000000000E+02 0.  0.
   -5000001    1    1    2    0    0 -0.88653771321E+02 -0.19944769840E+02 -0.15185640129E+03  0.19299391603E+03  0.77000000000E+02 0.  0.
<mgrwt>
<rscale>  0 0.26551984E+03</rscale>
<asrwt>0</asrwt>
<pdfrwt beam="1">  1        2 0.88242477E-01 0.26551984E+03</pdfrwt>
<pdfrwt beam="2">  1       -2 0.40762443E-02 0.26551984E+03</pdfrwt>
<totfact> 0.14102105E+04</totfact>
</mgrwt>
</event>
<event>
 4    1  0.6782240E-004  0.3399781E+03  0.7818608E-02  0.1066805E+00
         -2   -1    0    0    0  501 -0.00000000000E+00  0.00000000000E+00  0.10574051904E+03  0.10574051907E+03  0.25500000000E-02 0. -1.
          2   -1    0    0  501    0  0.00000000000E+00 -0.00000000000E+00 -0.27327534080E+03  0.27327534081E+03  0.25500000000E-02 0.  1.
    5000001    1    1    2    0    0  0.23931114068E+02 -0.14530014192E+03 -0.12369068459E+03  0.20715505043E+03  0.77000000000E+02 0.  0.
   -5000001    1    1    2    0    0 -0.23931114068E+02  0.14530014192E+03 -0.43844137162E+02  0.17186080946E+03  0.77000000000E+02 0.  0.
<mgrwt>
<rscale>  0 0.33997810E+03</rscale>
<asrwt>0</asrwt>
<pdfrwt beam="1">  1        2 0.39039334E-01 0.33997810E+03</pdfrwt>
<pdfrwt beam="2">  1       -2 0.15105789E-01 0.33997810E+03</pdfrwt>
<totfact> 0.44515609E+03</totfact>
</mgrwt>
</event>
<event>
 4    1  0.6782240E-004  0.3980352E+03  0.7818608E-02  0.1044462E+00
          2   -1    0    0  501    0  0.00000000000E+00  0.00000000000E+00  0.30574149851E+03  0.30574149852E+03  0.25500000000E-02 0.  1.
         -2   -1    0    0    0  501 -0.00000000000E+00 -0.00000000000E+00 -0.12954733281E+03  0.12954733284E+03  0.25500000000E-02 0. -1.
    5000001    1    1    2    0    0  0.16412328294E+03 -0.23427320998E+02  0.17416302538E+03  0.25248178307E+03  0.77000000000E+02 0.  0.
   -5000001    1    1    2    0    0 -0.16412328294E+03  0.23427320998E+02  0.20311403115E+01  0.18280704828E+03  0.77000000000E+02 0.  0.
<mgrwt>
<rscale>  0 0.39803515E+03</rscale>
<asrwt>0</asrwt>
<pdfrwt beam="1">  1        2 0.43677357E-01 0.39803515E+03</pdfrwt>
<pdfrwt beam="2">  1       -2 0.18506762E-01 0.39803515E+03</pdfrwt>
<totfact> 0.28080168E+03</totfact>
</mgrwt>
</event>
<event>
 4    1  0.6782240E-004  0.4005117E+03  0.7818608E-02  0.1043603E+00
         -2   -1    0    0    0  501 -0.00000000000E+00  0.00000000000E+00  0.45102598021E+02  0.45102598093E+02  0.25500000000E-02 0. -1.
          2   -1    0    0  501    0  0.00000000000E+00 -0.00000000000E+00 -0.88913716588E+03  0.88913716588E+03  0.25500000000E-02 0.  1.
    5000001    1    1    2    0    0  0.14533067088E+02  0.17675311995E+03 -0.54368327918E+03  0.57703845930E+03  0.77000000000E+02 0.  0.
   -5000001    1    1    2    0    0 -0.14533067088E+02 -0.17675311995E+03 -0.30035128868E+03  0.35720130467E+03  0.77000000000E+02 0.  0.
<mgrwt>
<rscale>  0 0.40051165E+03</rscale>
<asrwt>0</asrwt>
<pdfrwt beam="1">  1        2 0.12701959E+00 0.40051165E+03</pdfrwt>
<pdfrwt beam="2">  1       -2 0.64432288E-02 0.40051165E+03</pdfrwt>
<totfact> 0.45439397E+03</totfact>
</mgrwt>
</event>
<event>
 4    1  0.6782240E-004  0.4150018E+03  0.7818608E-02  0.1038705E+00
         -2   -1    0    0    0  501 -0.00000000000E+00  0.00000000000E+00  0.32428464345E+02  0.32428464445E+02  0.25500000000E-02 0. -1.
          2   -1    0    0  501    0  0.00000000000E+00 -0.00000000000E+00 -0.13277414288E+04  0.13277414288E+04  0.25500000000E-02 0.  1.
    5000001    1    1    2    0    0 -0.17607579664E+03 -0.20279998687E+02 -0.89539873197E+03  0.91601411218E+03  0.77000000000E+02 0.  0.
   -5000001    1    1    2    0    0  0.17607579664E+03  0.20279998687E+02 -0.39991423250E+03  0.44415578108E+03  0.77000000000E+02 0.  0.
<mgrwt>
<rscale>  0 0.41500176E+03</rscale>
<asrwt>0</asrwt>
<pdfrwt beam="1">  1        2 0.18967731E+00 0.41500176E+03</pdfrwt>
<pdfrwt beam="2">  1       -2 0.46326386E-02 0.41500176E+03</pdfrwt>
<totfact> 0.42277489E+03</totfact>
</mgrwt>
</event>
<event>
 4    1  0.6782240E-004  0.3558329E+03  0.7818608E-02  0.1060246E+00
         -2   -1    0    0    0  501 -0.00000000000E+00  0.00000000000E+00  0.42843900435E+03  0.42843900435E+03  0.25500000000E-02 0. -1.
          2   -1    0    0  501    0  0.00000000000E+00 -0.00000000000E+00 -0.73882784515E+02  0.73882784559E+02  0.25500000000E-02 0.  1.
    5000001    1    1    2    0    0  0.46665265407E+01  0.12089023760E+03  0.28621960169E+02  0.14623420469E+03  0.77000000000E+02 0.  0.
   -5000001    1    1    2    0    0 -0.46665265407E+01 -0.12089023760E+03  0.32593425966E+03  0.35608758422E+03  0.77000000000E+02 0.  0.
<mgrwt>
<rscale>  0 0.35583292E+03</rscale>
<asrwt>0</asrwt>
<pdfrwt beam="1">  1        2 0.10554684E-01 0.35583292E+03</pdfrwt>
<pdfrwt beam="2">  1       -2 0.61205569E-01 0.35583292E+03</pdfrwt>
<totfact> 0.15288263E+03</totfact>
</mgrwt>
</event>
<event>
 4    1  0.6782240E-004  0.4114686E+03  0.7818608E-02  0.1039879E+00
         -2   -1    0    0    0  501 -0.00000000000E+00  0.00000000000E+00  0.66052717076E+03  0.66052717077E+03  0.25500000000E-02 0. -1.
          2   -1    0    0  501    0  0.00000000000E+00 -0.00000000000E+00 -0.64080036374E+02  0.64080036425E+02  0.25500000000E-02 0.  1.
    5000001    1    1    2    0    0 -0.11957656357E+03 -0.74338754901E+02  0.71517114535E+02  0.17569434455E+03  0.77000000000E+02 0.  0.
   -5000001    1    1    2    0    0  0.11957656357E+03  0.74338754901E+02  0.52493001985E+03  0.54891286264E+03  0.77000000000E+02 0.  0.
<mgrwt>
<rscale>  0 0.41146861E+03</rscale>
<asrwt>0</asrwt>
<pdfrwt beam="1">  1        2 0.91542905E-02 0.41146861E+03</pdfrwt>
<pdfrwt beam="2">  1       -2 0.94361029E-01 0.41146861E+03</pdfrwt>
<totfact> 0.70783968E+02</totfact>
</mgrwt>
</event>
<event>
 4    1  0.6782240E-004  0.1864520E+03  0.7818608E-02  0.1161701E+00
         -2   -1    0    0    0  501 -0.00000000000E+00  0.00000000000E+00  0.15999844240E+03  0.15999844242E+03  0.25500000000E-02 0. -1.
          2   -1    0    0  501    0  0.00000000000E+00 -0.00000000000E+00 -0.54319803506E+02  0.54319803566E+02  0.25500000000E-02 0.  1.
    5000001    1    1    2    0    0  0.41785189749E+02 -0.94937137712E+01  0.17862022386E+02  0.89912093332E+02  0.77000000000E+02 0.  0.
   -5000001    1    1    2    0    0 -0.41785189749E+02  0.94937137712E+01  0.87816616508E+02  0.12440615266E+03  0.77000000000E+02 0.  0.
<mgrwt>
<rscale>  0 0.18645197E+03</rscale>
<asrwt>0</asrwt>
<pdfrwt beam="1">  1        2 0.77599720E-02 0.18645197E+03</pdfrwt>
<pdfrwt beam="2">  1       -2 0.22856920E-01 0.18645197E+03</pdfrwt>
<totfact> 0.14124336E+04</totfact>
</mgrwt>
</event>
<event>
 4    1  0.6782240E-004  0.4507474E+03  0.7818608E-02  0.1027499E+00
         -2   -1    0    0    0  501 -0.00000000000E+00  0.00000000000E+00  0.23915988569E+03  0.23915988571E+03  0.25500000000E-02 0. -1.
          2   -1    0    0  501    0  0.00000000000E+00 -0.00000000000E+00 -0.21238220881E+03  0.21238220882E+03  0.25500000000E-02 0.  1.
    5000001    1    1    2    0    0  0.17383524775E+03  0.10416266671E+03  0.75107120566E+02  0.22943110961E+03  0.77000000000E+02 0.  0.
   -5000001    1    1    2    0    0 -0.17383524775E+03 -0.10416266671E+03 -0.48329443681E+02  0.22211098492E+03  0.77000000000E+02 0.  0.
<mgrwt>
<rscale>  0 0.45074740E+03</rscale>
<asrwt>0</asrwt>
<pdfrwt beam="1">  1        2 0.30340316E-01 0.45074740E+03</pdfrwt>
<pdfrwt beam="2">  1       -2 0.34165698E-01 0.45074740E+03</pdfrwt>
<totfact> 0.14038071E+03</totfact>
</mgrwt>
</event>
<event>
 4    1  0.6782240E-004  0.2747008E+03  0.7818608E-02  0.1098619E+00
         -2   -1    0    0    0  501 -0.00000000000E+00  0.00000000000E+00  0.25944827755E+03  0.25944827757E+03  0.25500000000E-02 0. -1.
          2   -1    0    0  501    0  0.00000000000E+00 -0.00000000000E+00 -0.72712520037E+02  0.72712520082E+02  0.25500000000E-02 0.  1.
    5000001    1    1    2    0    0  0.70155933388E+02 -0.29536781844E+02  0.19555451428E+03  0.22352817390E+03  0.77000000000E+02 0.  0.
   -5000001    1    1    2    0    0 -0.70155933388E+02  0.29536781844E+02 -0.88187567666E+01  0.10863262375E+03  0.77000000000E+02 0.  0.
<mgrwt>
<rscale>  0 0.27470084E+03</rscale>
<asrwt>0</asrwt>
<pdfrwt beam="1">  1        2 0.10387503E-01 0.27470084E+03</pdfrwt>
<pdfrwt beam="2">  1       -2 0.37064040E-01 0.27470084E+03</pdfrwt>
<totfact> 0.41890087E+03</totfact>
</mgrwt>
</event>
<event>
 4    1  0.6782240E-004  0.1720392E+03  0.7818608E-02  0.1175738E+00
          2   -1    0    0  501    0  0.00000000000E+00  0.00000000000E+00  0.16970029523E+04  0.16970029523E+04  0.25500000000E-02 0.  1.
         -2   -1    0    0    0  501 -0.00000000000E+00 -0.00000000000E+00 -0.43602594958E+01  0.43602602414E+01  0.25500000000E-02 0. -1.
    5000001    1    1    2    0    0 -0.87600817819E+01 -0.23385929365E+02  0.55855312171E+03  0.56438836850E+03  0.77000000000E+02 0.  0.
   -5000001    1    1    2    0    0  0.87600817819E+01  0.23385929365E+02  0.11340895711E+04  0.11369748441E+04  0.77000000000E+02 0.  0.
<mgrwt>
<rscale>  0 0.17203923E+03</rscale>
<asrwt>0</asrwt>
<pdfrwt beam="1">  1        2 0.24242990E+00 0.17203923E+03</pdfrwt>
<pdfrwt beam="2">  1       -2 0.62289195E-03 0.17203923E+03</pdfrwt>
<totfact> 0.50973904E+04</totfact>
</mgrwt>
</event>
<event>
 4    1  0.6782240E-004  0.2494414E+03  0.7818608E-02  0.1113658E+00
         -2   -1    0    0    0  501 -0.00000000000E+00  0.00000000000E+00  0.56613241618E+02  0.56613241676E+02  0.25500000000E-02 0. -1.
          2   -1    0    0  501    0  0.00000000000E+00 -0.00000000000E+00 -0.27476350113E+03  0.27476350115E+03  0.25500000000E-02 0.  1.
    5000001    1    1    2    0    0  0.87943177920E+02 -0.19169318338E+02 -0.57200129388E+02  0.13153828382E+03  0.77000000000E+02 0.  0.
   -5000001    1    1    2    0    0 -0.87943177920E+02  0.19169318338E+02 -0.16095013013E+03  0.19983845900E+03  0.77000000000E+02 0.  0.
<mgrwt>
<rscale>  0 0.24944140E+03</rscale>
<asrwt>0</asrwt>
<pdfrwt beam="1">  1        2 0.39251928E-01 0.24944140E+03</pdfrwt>
<pdfrwt beam="2">  1       -2 0.80876061E-02 0.24944140E+03</pdfrwt>
<totfact> 0.11938045E+04</totfact>
</mgrwt>
</event>
<event>
 4    1  0.6782240E-004  0.1752769E+03  0.7818608E-02  0.1172454E+00
         -2   -1    0    0    0  501 -0.00000000000E+00  0.00000000000E+00  0.68702622237E+01  0.68702626969E+01  0.25500000000E-02 0. -1.
          2   -1    0    0  501    0  0.00000000000E+00 -0.00000000000E+00 -0.11179342665E+04  0.11179342665E+04  0.25500000000E-02 0.  1.
    5000001    1    1    2    0    0  0.35426714226E+02 -0.13708045647E+02 -0.44281032058E+03  0.45105758236E+03  0.77000000000E+02 0.  0.
   -5000001    1    1    2    0    0 -0.35426714226E+02  0.13708045647E+02 -0.66825368371E+03  0.67374694685E+03  0.77000000000E+02 0.  0.
<mgrwt>
<rscale>  0 0.17527694E+03</rscale>
<asrwt>0</asrwt>
<pdfrwt beam="1">  1        2 0.15970478E+00 0.17527694E+03</pdfrwt>
<pdfrwt beam="2">  1       -2 0.98146678E-03 0.17527694E+03</pdfrwt>
<totfact> 0.52475302E+04</totfact>
</mgrwt>
</event>
<event>
 4    1  0.6782240E-004  0.2835934E+03  0.7818608E-02  0.1093742E+00
         -2   -1    0    0    0  501 -0.00000000000E+00  0.00000000000E+00  0.13198253800E+03  0.13198253803E+03  0.25500000000E-02 0. -1.
          2   -1    0    0  501    0  0.00000000000E+00 -0.00000000000E+00 -0.15234063264E+03  0.15234063266E+03  0.25500000000E-02 0.  1.
    5000001    1    1    2    0    0  0.10193943158E+03  0.55414936804E+02 -0.36984348457E+02  0.14408089729E+03  0.77000000000E+02 0.  0.
   -5000001    1    1    2    0    0 -0.10193943158E+03 -0.55414936804E+02  0.16626253820E+02  0.14024227340E+03  0.77000000000E+02 0.  0.
<mgrwt>
<rscale>  0 0.28359339E+03</rscale>
<asrwt>0</asrwt>
<pdfrwt beam="1">  1        2 0.21762948E-01 0.28359339E+03</pdfrwt>
<pdfrwt beam="2">  1       -2 0.18854648E-01 0.28359339E+03</pdfrwt>
<totfact> 0.58255452E+03</totfact>
</mgrwt>
</event>
<event>
 4    1  0.6782240E-004  0.5552801E+03  0.7818608E-02  0.1000279E+00
          2   -1    0    0  501    0  0.00000000000E+00  0.00000000000E+00  0.49085797701E+03  0.49085797701E+03  0.25500000000E-02 0.  1.
         -2   -1    0    0    0  501 -0.00000000000E+00 -0.00000000000E+00 -0.15703928989E+03  0.15703928991E+03  0.25500000000E-02 0. -1.
    5000001    1    1    2    0    0  0.21702789453E+03 -0.12370724826E+03  0.27605537884E+03  0.38018437956E+03  0.77000000000E+02 0.  0.
   -5000001    1    1    2    0    0 -0.21702789453E+03  0.12370724826E+03  0.57763308282E+02  0.26771288736E+03  0.77000000000E+02 0.  0.
<mgrwt>
<rscale>  0 0.55528007E+03</rscale>
<asrwt>0</asrwt>
<pdfrwt beam="1">  1        2 0.70122568E-01 0.55528007E+03</pdfrwt>
<pdfrwt beam="2">  1       -2 0.22434184E-01 0.55528007E+03</pdfrwt>
<totfact> 0.11946105E+03</totfact>
</mgrwt>
</event>
<event>
 4    1  0.6782240E-004  0.6154124E+03  0.7818608E-02  0.9873936E-01
         -2   -1    0    0    0  501 -0.00000000000E+00  0.00000000000E+00  0.66406034950E+02  0.66406034999E+02  0.25500000000E-02 0. -1.
          2   -1    0    0  501    0  0.00000000000E+00 -0.00000000000E+00 -0.14258206834E+04  0.14258206834E+04  0.25500000000E-02 0.  1.
    5000001    1    1    2    0    0 -0.75362732213E+02 -0.17319074566E+03 -0.12383474016E+04  0.12550330126E+04  0.77000000000E+02 0.  0.
   -5000001    1    1    2    0    0  0.75362732213E+02  0.17319074566E+03 -0.12106724685E+03  0.23719370576E+03  0.77000000000E+02 0.  0.
<mgrwt>
<rscale>  0 0.61541238E+03</rscale>
<asrwt>0</asrwt>
<pdfrwt beam="1">  1        2 0.20368865E+00 0.61541238E+03</pdfrwt>
<pdfrwt beam="2">  1       -2 0.94865773E-02 0.61541238E+03</pdfrwt>
<totfact> 0.12130030E+03</totfact>
</mgrwt>
</event>
<event>
 4    1  0.6782240E-004  0.1919379E+03  0.7818608E-02  0.1156725E+00
         -2   -1    0    0    0  501 -0.00000000000E+00  0.00000000000E+00  0.32724327091E+01  0.32724337027E+01  0.25500000000E-02 0. -1.
          2   -1    0    0  501    0  0.00000000000E+00 -0.00000000000E+00 -0.28144306706E+04  0.28144306706E+04  0.25500000000E-02 0.  1.
    5000001    1    1    2    0    0  0.55207507165E+02 -0.15094364565E+02 -0.13716943680E+04  0.13750455076E+04  0.77000000000E+02 0.  0.
   -5000001    1    1    2    0    0 -0.55207507165E+02  0.15094364565E+02 -0.14394638699E+04  0.14426575968E+04  0.77000000000E+02 0.  0.
<mgrwt>
<rscale>  0 0.19193787E+03</rscale>
<asrwt>0</asrwt>
<pdfrwt beam="1">  1        2 0.40205997E+00 0.19193787E+03</pdfrwt>
<pdfrwt beam="2">  1       -2 0.46749226E-03 0.19193787E+03</pdfrwt>
<totfact> 0.22006271E+04</totfact>
</mgrwt>
</event>
<event>
 4    1  0.6782240E-004  0.4328196E+03  0.7818608E-02  0.1032973E+00
          2   -1    0    0  501    0  0.00000000000E+00  0.00000000000E+00  0.22922550515E+04  0.22922550515E+04  0.25500000000E-02 0.  1.
         -2   -1    0    0    0  501 -0.00000000000E+00 -0.00000000000E+00 -0.20431060056E+02  0.20431060215E+02  0.25500000000E-02 0. -1.
    5000001    1    1    2    0    0 -0.16247507145E+03  0.11328129773E+03  0.91733240900E+03  0.94162548280E+03  0.77000000000E+02 0.  0.
   -5000001    1    1    2    0    0  0.16247507145E+03 -0.11328129773E+03  0.13544915825E+04  0.13710606289E+04  0.77000000000E+02 0.  0.
<mgrwt>
<rscale>  0 0.43281960E+03</rscale>
<asrwt>0</asrwt>
<pdfrwt beam="1">  1        2 0.32746511E+00 0.43281960E+03</pdfrwt>
<pdfrwt beam="2">  1       -2 0.29187219E-02 0.43281960E+03</pdfrwt>
<totfact> 0.27825723E+03</totfact>
</mgrwt>
</event>
<event>
 4    1  0.6782240E-004  0.2165231E+03  0.7818608E-02  0.1136502E+00
          2   -1    0    0  501    0  0.00000000000E+00  0.00000000000E+00  0.26014884086E+02  0.26014884211E+02  0.25500000000E-02 0.  1.
         -2   -1    0    0    0  501 -0.00000000000E+00 -0.00000000000E+00 -0.45053287346E+03  0.45053287347E+03  0.25500000000E-02 0. -1.
    5000001    1    1    2    0    0  0.66154848370E+02  0.21618929167E+02 -0.14450390697E+03  0.17791633200E+03  0.77000000000E+02 0.  0.
   -5000001    1    1    2    0    0 -0.66154848370E+02 -0.21618929167E+02 -0.28001408240E+03  0.29863142568E+03  0.77000000000E+02 0.  0.
<mgrwt>
<rscale>  0 0.21652308E+03</rscale>
<asrwt>0</asrwt>
<pdfrwt beam="1">  1        2 0.37164123E-02 0.21652308E+03</pdfrwt>
<pdfrwt beam="2">  1       -2 0.64361835E-01 0.21652308E+03</pdfrwt>
<totfact> 0.52429914E+03</totfact>
</mgrwt>
</event>
<event>
 4    1  0.6782240E-004  0.1837959E+03  0.7818608E-02  0.1164179E+00
          2   -1    0    0  501    0  0.00000000000E+00  0.00000000000E+00  0.45493021096E+03  0.45493021096E+03  0.25500000000E-02 0.  1.
         -2   -1    0    0    0  501 -0.00000000000E+00 -0.00000000000E+00 -0.18563789999E+02  0.18563790174E+02  0.25500000000E-02 0. -1.
    5000001    1    1    2    0    0  0.29189641644E+02  0.39952977797E+02  0.23941976913E+03  0.25631835959E+03  0.77000000000E+02 0.  0.
   -5000001    1    1    2    0    0 -0.29189641644E+02 -0.39952977797E+02  0.19694665183E+03  0.21717564155E+03  0.77000000000E+02 0.  0.
<mgrwt>
<rscale>  0 0.18379585E+03</rscale>
<asrwt>0</asrwt>
<pdfrwt beam="1">  1        2 0.64990021E-01 0.18379585E+03</pdfrwt>
<pdfrwt beam="2">  1       -2 0.26519704E-02 0.18379585E+03</pdfrwt>
<totfact> 0.36638669E+04</totfact>
</mgrwt>
</event>
<event>
 4    1  0.6782240E-004  0.3234915E+03  0.7818608E-02  0.1074054E+00
         -2   -1    0    0    0  501 -0.00000000000E+00  0.00000000000E+00  0.52706149120E+02  0.52706149182E+02  0.25500000000E-02 0. -1.
          2   -1    0    0  501    0  0.00000000000E+00 -0.00000000000E+00 -0.49636884038E+03  0.49636884039E+03  0.25500000000E-02 0.  1.
    5000001    1    1    2    0    0  0.96262019034E+02  0.80380034520E+01 -0.44610025566E+02  0.13133940836E+03  0.77000000000E+02 0.  0.
   -5000001    1    1    2    0    0 -0.96262019034E+02 -0.80380034520E+01 -0.39905266569E+03  0.41773558121E+03  0.77000000000E+02 0.  0.
<mgrwt>
<rscale>  0 0.32349152E+03</rscale>
<asrwt>0</asrwt>
<pdfrwt beam="1">  1        2 0.70909832E-01 0.32349152E+03</pdfrwt>
<pdfrwt beam="2">  1       -2 0.75294502E-02 0.32349152E+03</pdfrwt>
<totfact> 0.71053069E+03</totfact>
</mgrwt>
</event>
<event>
 4    1  0.6782240E-004  0.2646831E+03  0.7818608E-02  0.1104362E+00
          2   -1    0    0  501    0  0.00000000000E+00  0.00000000000E+00  0.76453809205E+03  0.76453809205E+03  0.25500000000E-02 0.  1.
         -2   -1    0    0    0  501 -0.00000000000E+00 -0.00000000000E+00 -0.22908317073E+02  0.22908317215E+02  0.25500000000E-02 0. -1.
    5000001    1    1    2    0    0 -0.73081405429E+02  0.32588728701E+01  0.13592181616E+03  0.17249710774E+03  0.77000000000E+02 0.  0.
   -5000001    1    1    2    0    0  0.73081405429E+02 -0.32588728701E+01  0.60570795881E+03  0.61494930152E+03  0.77000000000E+02 0.  0.
<mgrwt>
<rscale>  0 0.26468306E+03</rscale>
<asrwt>0</asrwt>
<pdfrwt beam="1">  1        2 0.10921971E+00 0.26468306E+03</pdfrwt>
<pdfrwt beam="2">  1       -2 0.32726174E-02 0.26468306E+03</pdfrwt>
<totfact> 0.15230427E+04</totfact>
</mgrwt>
</event>
<event>
 4    1  0.6782240E-004  0.2355341E+03  0.7818608E-02  0.1122804E+00
         -2   -1    0    0    0  501 -0.00000000000E+00  0.00000000000E+00  0.54449871808E+01  0.54449877779E+01  0.25500000000E-02 0. -1.
          2   -1    0    0  501    0  0.00000000000E+00 -0.00000000000E+00 -0.25471273248E+04  0.25471273248E+04  0.25500000000E-02 0.  1.
    5000001    1    1    2    0    0  0.90626810222E+00  0.82384744990E+02 -0.16386754476E+04  0.16425511530E+04  0.77000000000E+02 0.  0.
   -5000001    1    1    2    0    0 -0.90626810222E+00 -0.82384744990E+02 -0.90300689001E+03  0.91002115960E+03  0.77000000000E+02 0.  0.
<mgrwt>
<rscale>  0 0.23553409E+03</rscale>
<asrwt>0</asrwt>
<pdfrwt beam="1">  1        2 0.36387457E+00 0.23553409E+03</pdfrwt>
<pdfrwt beam="2">  1       -2 0.77785698E-03 0.23553409E+03</pdfrwt>
<totfact> 0.14533540E+04</totfact>
</mgrwt>
</event>
<event>
 4    1  0.6782240E-004  0.4019799E+03  0.7818608E-02  0.1043096E+00
         -2   -1    0    0    0  501 -0.00000000000E+00  0.00000000000E+00  0.30086383049E+02  0.30086383157E+02  0.25500000000E-02 0. -1.
          2   -1    0    0  501    0  0.00000000000E+00 -0.00000000000E+00 -0.13426992022E+04  0.13426992022E+04  0.25500000000E-02 0.  1.
    5000001    1    1    2    0    0 -0.14569988815E+03  0.34347518277E+02 -0.10313377552E+04  0.10449855380E+04  0.77000000000E+02 0.  0.
   -5000001    1    1    2    0    0  0.14569988815E+03 -0.34347518277E+02 -0.28127506394E+03  0.32780004730E+03  0.77000000000E+02 0.  0.
<mgrwt>
<rscale>  0 0.40197991E+03</rscale>
<asrwt>0</asrwt>
<pdfrwt beam="1">  1        2 0.19181413E+00 0.40197991E+03</pdfrwt>
<pdfrwt beam="2">  1       -2 0.42980556E-02 0.40197991E+03</pdfrwt>
<totfact> 0.46543154E+03</totfact>
</mgrwt>
</event>
<event>
 4    1  0.6782240E-004  0.2732418E+03  0.7818608E-02  0.1099438E+00
          2   -1    0    0  501    0  0.00000000000E+00  0.00000000000E+00  0.20871287373E+04  0.20871287373E+04  0.25500000000E-02 0.  1.
         -2   -1    0    0    0  501 -0.00000000000E+00 -0.00000000000E+00 -0.89430341712E+01  0.89430345348E+01  0.25500000000E-02 0. -1.
    5000001    1    1    2    0    0  0.10646927032E+03  0.36214856951E+02  0.11114794276E+04  0.11198047774E+04  0.77000000000E+02 0.  0.
   -5000001    1    1    2    0    0 -0.10646927032E+03 -0.36214856951E+02  0.96670627554E+03  0.97626699451E+03  0.77000000000E+02 0.  0.
<mgrwt>
<rscale>  0 0.27324175E+03</rscale>
<asrwt>0</asrwt>
<pdfrwt beam="1">  1        2 0.29816166E+00 0.27324175E+03</pdfrwt>
<pdfrwt beam="2">  1       -2 0.12775746E-02 0.27324175E+03</pdfrwt>
<totfact> 0.11948357E+04</totfact>
</mgrwt>
</event>
<event>
 4    1  0.6782240E-004  0.1804313E+03  0.7818608E-02  0.1167386E+00
          2   -1    0    0  501    0  0.00000000000E+00  0.00000000000E+00  0.58264424642E+03  0.58264424643E+03  0.25500000000E-02 0.  1.
         -2   -1    0    0    0  501 -0.00000000000E+00 -0.00000000000E+00 -0.13968845340E+02  0.13968845573E+02  0.25500000000E-02 0. -1.
    5000001    1    1    2    0    0 -0.22344041371E+02  0.34093148953E+02  0.36176202464E+03  0.37210530964E+03  0.77000000000E+02 0.  0.
   -5000001    1    1    2    0    0  0.22344041371E+02 -0.34093148953E+02  0.20691337644E+03  0.22450778236E+03  0.77000000000E+02 0.  0.
<mgrwt>
<rscale>  0 0.18043134E+03</rscale>
<asrwt>0</asrwt>
<pdfrwt beam="1">  1        2 0.83234878E-01 0.18043134E+03</pdfrwt>
<pdfrwt beam="2">  1       -2 0.19955497E-02 0.18043134E+03</pdfrwt>
<totfact> 0.42260520E+04</totfact>
</mgrwt>
</event>
<event>
 4    1  0.6782240E-004  0.2594872E+03  0.7818608E-02  0.1107452E+00
          2   -1    0    0  501    0  0.00000000000E+00  0.00000000000E+00  0.10002344467E+03  0.10002344470E+03  0.25500000000E-02 0.  1.
         -2   -1    0    0    0  501 -0.00000000000E+00 -0.00000000000E+00 -0.16829451484E+03  0.16829451486E+03  0.25500000000E-02 0. -1.
    5000001    1    1    2    0    0 -0.64963431837E+01 -0.99242022438E+02 -0.67049848346E+02  0.14253372813E+03  0.77000000000E+02 0.  0.
   -5000001    1    1    2    0    0  0.64963431837E+01  0.99242022438E+02 -0.12212218265E+01  0.12578423142E+03  0.77000000000E+02 0.  0.
<mgrwt>
<rscale>  0 0.25948716E+03</rscale>
<asrwt>0</asrwt>
<pdfrwt beam="1">  1        2 0.14289064E-01 0.25948716E+03</pdfrwt>
<pdfrwt beam="2">  1       -2 0.24042074E-01 0.25948716E+03</pdfrwt>
<totfact> 0.62252765E+03</totfact>
</mgrwt>
</event>
<event>
 4    1  0.6782240E-004  0.4439282E+03  0.7818608E-02  0.1029548E+00
         -2   -1    0    0    0  501 -0.00000000000E+00  0.00000000000E+00  0.24263480391E+02  0.24263480525E+02  0.25500000000E-02 0. -1.
          2   -1    0    0  501    0  0.00000000000E+00 -0.00000000000E+00 -0.20305437004E+04  0.20305437004E+04  0.25500000000E-02 0.  1.
    5000001    1    1    2    0    0  0.39040000238E+01 -0.20636828601E+03 -0.87757136808E+03  0.90480031872E+03  0.77000000000E+02 0.  0.
   -5000001    1    1    2    0    0 -0.39040000238E+01  0.20636828601E+03 -0.11287088519E+04  0.11500068622E+04  0.77000000000E+02 0.  0.
<mgrwt>
<rscale>  0 0.44392818E+03</rscale>
<asrwt>0</asrwt>
<pdfrwt beam="1">  1        2 0.29007756E+00 0.44392818E+03</pdfrwt>
<pdfrwt beam="2">  1       -2 0.34662128E-02 0.44392818E+03</pdfrwt>
<totfact> 0.28953096E+03</totfact>
</mgrwt>
</event>
<event>
 4    1  0.6782240E-004  0.2900966E+03  0.7818608E-02  0.1090299E+00
         -2   -1    0    0    0  501 -0.00000000000E+00  0.00000000000E+00  0.13375270198E+04  0.13375270198E+04  0.25500000000E-02 0. -1.
          2   -1    0    0  501    0  0.00000000000E+00 -0.00000000000E+00 -0.15729778116E+02  0.15729778323E+02  0.25500000000E-02 0.  1.
    5000001    1    1    2    0    0 -0.90822641174E+02 -0.76524889179E+02  0.80879661221E+03  0.82108816258E+03  0.77000000000E+02 0.  0.
   -5000001    1    1    2    0    0  0.90822641174E+02  0.76524889179E+02  0.51300062948E+03  0.53216863555E+03  0.77000000000E+02 0.  0.
<mgrwt>
<rscale>  0 0.29009656E+03</rscale>
<asrwt>0</asrwt>
<pdfrwt beam="1">  1        2 0.22471119E-02 0.29009656E+03</pdfrwt>
<pdfrwt beam="2">  1       -2 0.19107523E+00 0.29009656E+03</pdfrwt>
<totfact> 0.76832907E+02</totfact>
</mgrwt>
</event>
<event>
 4    1  0.6782240E-004  0.1758985E+03  0.7818608E-02  0.1171833E+00
         -2   -1    0    0    0  501 -0.00000000000E+00  0.00000000000E+00  0.27195365814E+01  0.27195377769E+01  0.25500000000E-02 0. -1.
          2   -1    0    0  501    0  0.00000000000E+00 -0.00000000000E+00 -0.28442589545E+04  0.28442589545E+04  0.25500000000E-02 0.  1.
    5000001    1    1    2    0    0 -0.63510280951E+01  0.41451516995E+02 -0.13092149928E+04  0.13121476522E+04  0.77000000000E+02 0.  0.
   -5000001    1    1    2    0    0  0.63510280951E+01 -0.41451516995E+02 -0.15323244252E+04  0.15348308401E+04  0.77000000000E+02 0.  0.
<mgrwt>
<rscale>  0 0.17589847E+03</rscale>
<asrwt>0</asrwt>
<pdfrwt beam="1">  1        2 0.40632080E+00 0.17589847E+03</pdfrwt>
<pdfrwt beam="2">  1       -2 0.38850713E-03 0.17589847E+03</pdfrwt>
<totfact> 0.27571345E+04</totfact>
</mgrwt>
</event>
<event>
 4    1  0.6782240E-004  0.4481384E+03  0.7818608E-02  0.1028279E+00
          2   -1    0    0  501    0  0.00000000000E+00  0.00000000000E+00  0.13327615410E+04  0.13327615410E+04  0.25500000000E-02 0.  1.
         -2   -1    0    0    0  501 -0.00000000000E+00 -0.00000000000E+00 -0.37671418108E+02  0.37671418194E+02  0.25500000000E-02 0. -1.
    5000001    1    1    2    0    0  0.50946117948E+01 -0.18058695712E+03  0.97748112311E+03  0.99701351555E+03  0.77000000000E+02 0.  0.
   -5000001    1    1    2    0    0 -0.50946117948E+01  0.18058695712E+03  0.31760899976E+03  0.37341944363E+03  0.77000000000E+02 0.  0.
<mgrwt>
<rscale>  0 0.44813845E+03</rscale>
<asrwt>0</asrwt>
<pdfrwt beam="1">  1        2 0.19039446E+00 0.44813845E+03</pdfrwt>
<pdfrwt beam="2">  1       -2 0.53816324E-02 0.44813845E+03</pdfrwt>
<totfact> 0.33369826E+03</totfact>
</mgrwt>
</event>
<event>
 4    1  0.6782240E-004  0.4756929E+03  0.7818608E-02  0.1020326E+00
         -2   -1    0    0    0  501 -0.00000000000E+00  0.00000000000E+00  0.46232361973E+02  0.46232362043E+02  0.25500000000E-02 0. -1.
          2   -1    0    0  501    0  0.00000000000E+00 -0.00000000000E+00 -0.12236220058E+04  0.12236220058E+04  0.25500000000E-02 0.  1.
    5000001    1    1    2    0    0 -0.10550497220E+03 -0.19874254116E+03 -0.57943255604E+03  0.62633935197E+03  0.77000000000E+02 0.  0.
   -5000001    1    1    2    0    0  0.10550497220E+03  0.19874254116E+03 -0.59795708777E+03  0.64351501586E+03  0.77000000000E+02 0.  0.
<mgrwt>
<rscale>  0 0.47569291E+03</rscale>
<asrwt>0</asrwt>
<pdfrwt beam="1">  1        2 0.17480312E+00 0.47569291E+03</pdfrwt>
<pdfrwt beam="2">  1       -2 0.66046239E-02 0.47569291E+03</pdfrwt>
<totfact> 0.27804158E+03</totfact>
</mgrwt>
</event>
<event>
 4    1  0.6782240E-004  0.2070620E+03  0.7818608E-02  0.1143914E+00
         -2   -1    0    0    0  501 -0.00000000000E+00  0.00000000000E+00  0.70942120168E+01  0.70942124751E+01  0.25500000000E-02 0. -1.
          2   -1    0    0  501    0  0.00000000000E+00 -0.00000000000E+00 -0.15109030880E+04  0.15109030880E+04  0.25500000000E-02 0.  1.
    5000001    1    1    2    0    0  0.11166061333E+02  0.36553484934E+02 -0.11748810496E+04  0.11780217820E+04  0.77000000000E+02 0.  0.
   -5000001    1    1    2    0    0 -0.11166061333E+02 -0.36553484934E+02 -0.32892782640E+03  0.33997551848E+03  0.77000000000E+02 0.  0.
<mgrwt>
<rscale>  0 0.20706199E+03</rscale>
<asrwt>0</asrwt>
<pdfrwt beam="1">  1        2 0.21584309E+00 0.20706199E+03</pdfrwt>
<pdfrwt beam="2">  1       -2 0.10134599E-02 0.20706199E+03</pdfrwt>
<totfact> 0.31670634E+04</totfact>
</mgrwt>
</event>
<event>
 4    1  0.6782240E-004  0.2611726E+03  0.7818608E-02  0.1106441E+00
         -2   -1    0    0    0  501 -0.00000000000E+00  0.00000000000E+00  0.49433262377E+02  0.49433262442E+02  0.25500000000E-02 0. -1.
          2   -1    0    0  501    0  0.00000000000E+00 -0.00000000000E+00 -0.34496576176E+03  0.34496576177E+03  0.25500000000E-02 0.  1.
    5000001    1    1    2    0    0 -0.82165663743E+02  0.64442283942E+02 -0.12537898309E+03  0.18042420475E+03  0.77000000000E+02 0.  0.
   -5000001    1    1    2    0    0  0.82165663743E+02 -0.64442283942E+02 -0.17015351629E+03  0.21397481946E+03  0.77000000000E+02 0.  0.
<mgrwt>
<rscale>  0 0.26117261E+03</rscale>
<asrwt>0</asrwt>
<pdfrwt beam="1">  1        2 0.49280822E-01 0.26117261E+03</pdfrwt>
<pdfrwt beam="2">  1       -2 0.70618948E-02 0.26117261E+03</pdfrwt>
<totfact> 0.11569304E+04</totfact>
</mgrwt>
</event>
<event>
 4    1  0.6782240E-004  0.1975431E+03  0.7818608E-02  0.1151829E+00
         -2   -1    0    0    0  501 -0.00000000000E+00  0.00000000000E+00  0.36139111144E+02  0.36139111234E+02  0.25500000000E-02 0. -1.
          2   -1    0    0  501    0  0.00000000000E+00 -0.00000000000E+00 -0.26995194491E+03  0.26995194492E+03  0.25500000000E-02 0.  1.
    5000001    1    1    2    0    0 -0.19208660035E+02 -0.56326092731E+02 -0.14307499953E+03  0.17303484283E+03  0.77000000000E+02 0.  0.
   -5000001    1    1    2    0    0  0.19208660035E+02  0.56326092731E+02 -0.90737834233E+02  0.13305621332E+03  0.77000000000E+02 0.  0.
<mgrwt>
<rscale>  0 0.19754314E+03</rscale>
<asrwt>0</asrwt>
<pdfrwt beam="1">  1        2 0.38564562E-01 0.19754314E+03</pdfrwt>
<pdfrwt beam="2">  1       -2 0.51627303E-02 0.19754314E+03</pdfrwt>
<totfact> 0.23880527E+04</totfact>
</mgrwt>
</event>
<event>
 4    1  0.6782240E-004  0.1950003E+03  0.7818608E-02  0.1154027E+00
          2   -1    0    0  501    0  0.00000000000E+00  0.00000000000E+00  0.55030268388E+02  0.55030268448E+02  0.25500000000E-02 0.  1.
         -2   -1    0    0    0  501 -0.00000000000E+00 -0.00000000000E+00 -0.17274629921E+03  0.17274629923E+03  0.25500000000E-02 0. -1.
    5000001    1    1    2    0    0  0.42299623338E+02 -0.22321568509E+02 -0.16908292764E+02  0.92208464468E+02  0.77000000000E+02 0.  0.
   -5000001    1    1    2    0    0 -0.42299623338E+02  0.22321568509E+02 -0.10080773806E+03  0.13556810321E+03  0.77000000000E+02 0.  0.
<mgrwt>
<rscale>  0 0.19500026E+03</rscale>
<asrwt>0</asrwt>
<pdfrwt beam="1">  1        2 0.78614670E-02 0.19500026E+03</pdfrwt>
<pdfrwt beam="2">  1       -2 0.24678043E-01 0.19500026E+03</pdfrwt>
<totfact> 0.12198905E+04</totfact>
</mgrwt>
</event>
<event>
 4    1  0.6782240E-004  0.3238130E+03  0.7818608E-02  0.1073908E+00
         -2   -1    0    0    0  501 -0.00000000000E+00  0.00000000000E+00  0.18306760714E+03  0.18306760716E+03  0.25500000000E-02 0. -1.
          2   -1    0    0  501    0  0.00000000000E+00 -0.00000000000E+00 -0.14319142622E+03  0.14319142624E+03  0.25500000000E-02 0.  1.
    5000001    1    1    2    0    0 -0.12947546860E+03  0.35878465846E+02 -0.27679364148E+02  0.15730959437E+03  0.77000000000E+02 0.  0.
   -5000001    1    1    2    0    0  0.12947546860E+03 -0.35878465846E+02  0.67555545069E+02  0.16894943903E+03  0.77000000000E+02 0.  0.
<mgrwt>
<rscale>  0 0.32381298E+03</rscale>
<asrwt>0</asrwt>
<pdfrwt beam="1">  1        2 0.20455918E-01 0.32381298E+03</pdfrwt>
<pdfrwt beam="2">  1       -2 0.26152515E-01 0.32381298E+03</pdfrwt>
<totfact> 0.35535008E+03</totfact>
</mgrwt>
</event>
<event>
 4    1  0.6782240E-004  0.2488019E+03  0.7818608E-02  0.1114064E+00
         -2   -1    0    0    0  501 -0.00000000000E+00  0.00000000000E+00  0.23808106305E+02  0.23808106441E+02  0.25500000000E-02 0. -1.
          2   -1    0    0  501    0  0.00000000000E+00 -0.00000000000E+00 -0.65001396575E+03  0.65001396576E+03  0.25500000000E-02 0.  1.
    5000001    1    1    2    0    0 -0.81929608814E+02 -0.52716142402E+02 -0.33321519421E+03  0.35560205022E+03  0.77000000000E+02 0.  0.
   -5000001    1    1    2    0    0  0.81929608814E+02  0.52716142402E+02 -0.29299066524E+03  0.31822002198E+03  0.77000000000E+02 0.  0.
<mgrwt>
<rscale>  0 0.24880194E+03</rscale>
<asrwt>0</asrwt>
<pdfrwt beam="1">  1        2 0.92859126E-01 0.24880194E+03</pdfrwt>
<pdfrwt beam="2">  1       -2 0.34011585E-02 0.24880194E+03</pdfrwt>
<totfact> 0.17383285E+04</totfact>
</mgrwt>
</event>
<event>
 4    1  0.6782240E-004  0.2744941E+03  0.7818608E-02  0.1098735E+00
         -2   -1    0    0    0  501 -0.00000000000E+00  0.00000000000E+00  0.71566237385E+02  0.71566237431E+02  0.25500000000E-02 0. -1.
          2   -1    0    0  501    0  0.00000000000E+00 -0.00000000000E+00 -0.26320728106E+03  0.26320728107E+03  0.25500000000E-02 0.  1.
    5000001    1    1    2    0    0 -0.57079957174E+02  0.45902546114E+02 -0.20174060079E+03  0.22802069041E+03  0.77000000000E+02 0.  0.
   -5000001    1    1    2    0    0  0.57079957174E+02 -0.45902546114E+02  0.10099557115E+02  0.10675282809E+03  0.77000000000E+02 0.  0.
<mgrwt>
<rscale>  0 0.27449411E+03</rscale>
<asrwt>0</asrwt>
<pdfrwt beam="1">  1        2 0.37601040E-01 0.27449411E+03</pdfrwt>
<pdfrwt beam="2">  1       -2 0.10223748E-01 0.27449411E+03</pdfrwt>
<totfact> 0.86817458E+03</totfact>
</mgrwt>
</event>
<event>
 4    1  0.6782240E-004  0.2178425E+03  0.7818608E-02  0.1135502E+00
          2   -1    0    0  501    0  0.00000000000E+00  0.00000000000E+00  0.18526668764E+04  0.18526668764E+04  0.25500000000E-02 0.  1.
         -2   -1    0    0    0  501 -0.00000000000E+00 -0.00000000000E+00 -0.64036519021E+01  0.64036524098E+01  0.25500000000E-02 0. -1.
    5000001    1    1    2    0    0 -0.26411613698E+02 -0.72111092291E+02  0.87104526716E+03  0.87780774684E+03  0.77000000000E+02 0.  0.
   -5000001    1    1    2    0    0  0.26411613698E+02  0.72111092291E+02  0.97521795738E+03  0.98126278201E+03  0.77000000000E+02 0.  0.
<mgrwt>
<rscale>  0 0.21784246E+03</rscale>
<asrwt>0</asrwt>
<pdfrwt beam="1">  1        2 0.26466724E+00 0.21784246E+03</pdfrwt>
<pdfrwt beam="2">  1       -2 0.91480557E-03 0.21784246E+03</pdfrwt>
<totfact> 0.25031430E+04</totfact>
</mgrwt>
</event>
<event>
 4    1  0.6782240E-004  0.2977251E+03  0.7818608E-02  0.1086383E+00
          2   -1    0    0  501    0  0.00000000000E+00  0.00000000000E+00  0.29702852965E+03  0.29702852966E+03  0.25500000000E-02 0.  1.
         -2   -1    0    0    0  501 -0.00000000000E+00 -0.00000000000E+00 -0.74605834896E+02  0.74605834939E+02  0.25500000000E-02 0. -1.
    5000001    1    1    2    0    0  0.25490063759E+02 -0.12401761159E+03  0.93516593657E+02  0.17522689469E+03  0.77000000000E+02 0.  0.
   -5000001    1    1    2    0    0 -0.25490063759E+02  0.12401761159E+03  0.12890610109E+03  0.19640746990E+03  0.77000000000E+02 0.  0.
<mgrwt>
<rscale>  0 0.29772512E+03</rscale>
<asrwt>0</asrwt>
<pdfrwt beam="1">  1        2 0.42432647E-01 0.29772512E+03</pdfrwt>
<pdfrwt beam="2">  1       -2 0.10657976E-01 0.29772512E+03</pdfrwt>
<totfact> 0.71519754E+03</totfact>
</mgrwt>
</event>
<event>
 4    1  0.6782240E-004  0.2416066E+03  0.7818608E-02  0.1118727E+00
         -2   -1    0    0    0  501 -0.00000000000E+00  0.00000000000E+00  0.74011667779E+01  0.74011672172E+01  0.25500000000E-02 0. -1.
          2   -1    0    0  501    0  0.00000000000E+00 -0.00000000000E+00 -0.19717750435E+04  0.19717750435E+04  0.25500000000E-02 0.  1.
    5000001    1    1    2    0    0 -0.86590389630E+02  0.79185245162E+01 -0.71002442431E+03  0.71946110508E+03  0.77000000000E+02 0.  0.
   -5000001    1    1    2    0    0  0.86590389630E+02 -0.79185245162E+01 -0.12543494524E+04  0.12597151056E+04  0.77000000000E+02 0.  0.
<mgrwt>
<rscale>  0 0.24160659E+03</rscale>
<asrwt>0</asrwt>
<pdfrwt beam="1">  1        2 0.28168181E+00 0.24160659E+03</pdfrwt>
<pdfrwt beam="2">  1       -2 0.10573108E-02 0.24160659E+03</pdfrwt>
<totfact> 0.17846869E+04</totfact>
</mgrwt>
</event>
<event>
 4    1  0.6782240E-004  0.2439863E+03  0.7818608E-02  0.1117165E+00
          2   -1    0    0  501    0  0.00000000000E+00  0.00000000000E+00  0.25740196602E+03  0.25740196603E+03  0.25500000000E-02 0.  1.
         -2   -1    0    0    0  501 -0.00000000000E+00 -0.00000000000E+00 -0.57817485323E+02  0.57817485379E+02  0.25500000000E-02 0. -1.
    5000001    1    1    2    0    0 -0.20770975106E+02 -0.92161151670E+02  0.92928671583E+02  0.15326398561E+03  0.77000000000E+02 0.  0.
   -5000001    1    1    2    0    0  0.20770975106E+02  0.92161151670E+02  0.10665580911E+03  0.16195546580E+03  0.77000000000E+02 0.  0.
<mgrwt>
<rscale>  0 0.24398635E+03</rscale>
<asrwt>0</asrwt>
<pdfrwt beam="1">  1        2 0.36771709E-01 0.24398635E+03</pdfrwt>
<pdfrwt beam="2">  1       -2 0.82596408E-02 0.24398635E+03</pdfrwt>
<totfact> 0.12380692E+04</totfact>
</mgrwt>
</event>
<event>
 4    1  0.6782240E-004  0.2617008E+03  0.7818608E-02  0.1106126E+00
          2   -1    0    0  501    0  0.00000000000E+00  0.00000000000E+00  0.98090551289E+03  0.98090551289E+03  0.25500000000E-02 0.  1.
         -2   -1    0    0    0  501 -0.00000000000E+00 -0.00000000000E+00 -0.17455122234E+02  0.17455122420E+02  0.25500000000E-02 0. -1.
    5000001    1    1    2    0    0 -0.45852055046E+02  0.84722393318E+02  0.31489039707E+03  0.33817932676E+03  0.77000000000E+02 0.  0.
   -5000001    1    1    2    0    0  0.45852055046E+02 -0.84722393318E+02  0.64855999358E+03  0.66018130855E+03  0.77000000000E+02 0.  0.
<mgrwt>
<rscale>  0 0.26170079E+03</rscale>
<asrwt>0</asrwt>
<pdfrwt beam="1">  1        2 0.14012938E+00 0.26170079E+03</pdfrwt>
<pdfrwt beam="2">  1       -2 0.24935885E-02 0.26170079E+03</pdfrwt>
<totfact> 0.16582781E+04</totfact>
</mgrwt>
</event>
<event>
 4    1  0.6782240E-004  0.4048716E+03  0.7818608E-02  0.1042106E+00
          2   -1    0    0  501    0  0.00000000000E+00  0.00000000000E+00  0.19482243455E+03  0.19482243457E+03  0.25500000000E-02 0.  1.
         -2   -1    0    0    0  501 -0.00000000000E+00 -0.00000000000E+00 -0.21034665751E+03  0.21034665752E+03  0.25500000000E-02 0. -1.
    5000001    1    1    2    0    0 -0.22341548763E+02  0.83773725751E+02  0.15829374477E+03  0.19622204657E+03  0.77000000000E+02 0.  0.
   -5000001    1    1    2    0    0  0.22341548763E+02 -0.83773725751E+02 -0.17381796773E+03  0.20894704552E+03  0.77000000000E+02 0.  0.
<mgrwt>
<rscale>  0 0.40487157E+03</rscale>
<asrwt>0</asrwt>
<pdfrwt beam="1">  1        2 0.27831777E-01 0.40487157E+03</pdfrwt>
<pdfrwt beam="2">  1       -2 0.30049522E-01 0.40487157E+03</pdfrwt>
<totfact> 0.19591117E+03</totfact>
</mgrwt>
</event>
<event>
 4    1  0.6782240E-004  0.3632255E+03  0.7818608E-02  0.1057314E+00
          2   -1    0    0  501    0  0.00000000000E+00  0.00000000000E+00  0.15304493714E+03  0.15304493716E+03  0.25500000000E-02 0.  1.
         -2   -1    0    0    0  501 -0.00000000000E+00 -0.00000000000E+00 -0.21551306310E+03  0.21551306311E+03  0.25500000000E-02 0. -1.
    5000001    1    1    2    0    0 -0.12428090513E+03 -0.49749075722E+02  0.65738182010E+02  0.16784285057E+03  0.77000000000E+02 0.  0.
   -5000001    1    1    2    0    0  0.12428090513E+03  0.49749075722E+02 -0.12820630797E+03  0.20071514970E+03  0.77000000000E+02 0.  0.
<mgrwt>
<rscale>  0 0.36322546E+03</rscale>
<asrwt>0</asrwt>
<pdfrwt beam="1">  1        2 0.21863563E-01 0.36322546E+03</pdfrwt>
<pdfrwt beam="2">  1       -2 0.30787580E-01 0.36322546E+03</pdfrwt>
<totfact> 0.24574433E+03</totfact>
</mgrwt>
</event>
<event>
 4    1  0.6782240E-004  0.2097412E+03  0.7818608E-02  0.1141771E+00
          2   -1    0    0  501    0  0.00000000000E+00  0.00000000000E+00  0.21194569128E+04  0.21194569128E+04  0.25500000000E-02 0.  1.
         -2   -1    0    0    0  501 -0.00000000000E+00 -0.00000000000E+00 -0.51889928106E+01  0.51889934371E+01  0.25500000000E-02 0. -1.
    5000001    1    1    2    0    0 -0.59851943392E+02 -0.34019195842E+02  0.12409526678E+04  0.12452437852E+04  0.77000000000E+02 0.  0.
   -5000001    1    1    2    0    0  0.59851943392E+02  0.34019195842E+02  0.87331525225E+03  0.87940212112E+03  0.77000000000E+02 0.  0.
<mgrwt>
<rscale>  0 0.20974124E+03</rscale>
<asrwt>0</asrwt>
<pdfrwt beam="1">  1        2 0.30278038E+00 0.20974124E+03</pdfrwt>
<pdfrwt beam="2">  1       -2 0.74128272E-03 0.20974124E+03</pdfrwt>
<totfact> 0.25140748E+04</totfact>
</mgrwt>
</event>
<event>
 4    1  0.6782240E-004  0.2300596E+03  0.7818608E-02  0.1126598E+00
         -2   -1    0    0    0  501 -0.00000000000E+00  0.00000000000E+00  0.57802565833E+01  0.57802571458E+01  0.25500000000E-02 0. -1.
          2   -1    0    0  501    0  0.00000000000E+00 -0.00000000000E+00 -0.22891474729E+04  0.22891474729E+04  0.25500000000E-02 0.  1.
    5000001    1    1    2    0    0 -0.20157315434E+02  0.79929159291E+02 -0.13664885858E+04  0.13711364057E+04  0.77000000000E+02 0.  0.
   -5000001    1    1    2    0    0  0.20157315434E+02 -0.79929159291E+02 -0.91687863050E+03  0.92379132435E+03  0.77000000000E+02 0.  0.
<mgrwt>
<rscale>  0 0.23005965E+03</rscale>
<asrwt>0</asrwt>
<pdfrwt beam="1">  1        2 0.32702049E+00 0.23005965E+03</pdfrwt>
<pdfrwt beam="2">  1       -2 0.82575244E-03 0.23005965E+03</pdfrwt>
<totfact> 0.17860677E+04</totfact>
</mgrwt>
</event>
<event>
 4    1  0.6782240E-004  0.1827154E+03  0.7818608E-02  0.1165201E+00
         -2   -1    0    0    0  501 -0.00000000000E+00  0.00000000000E+00  0.60444330508E+01  0.60444335887E+01  0.25500000000E-02 0. -1.
          2   -1    0    0  501    0  0.00000000000E+00 -0.00000000000E+00 -0.13808127043E+04  0.13808127043E+04  0.25500000000E-02 0.  1.
    5000001    1    1    2    0    0 -0.24311230737E+01  0.41064087575E+02 -0.48300162818E+03  0.49082760973E+03  0.77000000000E+02 0.  0.
   -5000001    1    1    2    0    0  0.24311230737E+01 -0.41064087575E+02 -0.89176664312E+03  0.89602952821E+03  0.77000000000E+02 0.  0.
<mgrwt>
<rscale>  0 0.18271541E+03</rscale>
<asrwt>0</asrwt>
<pdfrwt beam="1">  1        2 0.19725876E+00 0.18271541E+03</pdfrwt>
<pdfrwt beam="2">  1       -2 0.86349136E-03 0.18271541E+03</pdfrwt>
<totfact> 0.45991413E+04</totfact>
</mgrwt>
</event>
<event>
 4    1  0.6782240E-004  0.3258978E+03  0.7818608E-02  0.1072967E+00
         -2   -1    0    0    0  501 -0.00000000000E+00  0.00000000000E+00  0.18305245370E+03  0.18305245372E+03  0.25500000000E-02 0. -1.
          2   -1    0    0  501    0  0.00000000000E+00 -0.00000000000E+00 -0.14505320124E+03  0.14505320126E+03  0.25500000000E-02 0.  1.
    5000001    1    1    2    0    0  0.11225972803E+03  0.79362098643E+02  0.60786902545E+02  0.16889238218E+03  0.77000000000E+02 0.  0.
   -5000001    1    1    2    0    0 -0.11225972803E+03 -0.79362098643E+02 -0.22787650087E+02  0.15921327280E+03  0.77000000000E+02 0.  0.
<mgrwt>
<rscale>  0 0.32589780E+03</rscale>
<asrwt>0</asrwt>
<pdfrwt beam="1">  1        2 0.20721886E-01 0.32589780E+03</pdfrwt>
<pdfrwt beam="2">  1       -2 0.26150351E-01 0.32589780E+03</pdfrwt>
<totfact> 0.35023570E+03</totfact>
</mgrwt>
</event>
<event>
 4    1  0.6782240E-004  0.3737060E+03  0.7818608E-02  0.1053285E+00
         -2   -1    0    0    0  501 -0.00000000000E+00  0.00000000000E+00  0.18650987845E+02  0.18650988019E+02  0.25500000000E-02 0. -1.
          2   -1    0    0  501    0  0.00000000000E+00 -0.00000000000E+00 -0.18719679959E+04  0.18719679959E+04  0.25500000000E-02 0.  1.
    5000001    1    1    2    0    0  0.87646538622E+02  0.13648155371E+03 -0.11883626695E+04  0.12018502255E+04  0.77000000000E+02 0.  0.
   -5000001    1    1    2    0    0 -0.87646538622E+02 -0.13648155371E+03 -0.66495433853E+03  0.68876875842E+03  0.77000000000E+02 0.  0.
<mgrwt>
<rscale>  0 0.37370605E+03</rscale>
<asrwt>0</asrwt>
<pdfrwt beam="1">  1        2 0.26742388E+00 0.37370605E+03</pdfrwt>
<pdfrwt beam="2">  1       -2 0.26644280E-02 0.37370605E+03</pdfrwt>
<totfact> 0.51625756E+03</totfact>
</mgrwt>
</event>
<event>
 4    1  0.6782240E-004  0.2731724E+03  0.7818608E-02  0.1099478E+00
          2   -1    0    0  501    0  0.00000000000E+00  0.00000000000E+00  0.11997004557E+03  0.11997004559E+03  0.25500000000E-02 0.  1.
         -2   -1    0    0    0  501 -0.00000000000E+00 -0.00000000000E+00 -0.15550371632E+03  0.15550371634E+03  0.25500000000E-02 0. -1.
    5000001    1    1    2    0    0  0.78448049887E+02 -0.42216664517E+02  0.52029297223E+02  0.12873379923E+03  0.77000000000E+02 0.  0.
   -5000001    1    1    2    0    0 -0.78448049887E+02  0.42216664517E+02 -0.87562967977E+02  0.14673996271E+03  0.77000000000E+02 0.  0.
<mgrwt>
<rscale>  0 0.27317238E+03</rscale>
<asrwt>0</asrwt>
<pdfrwt beam="1">  1        2 0.17138578E-01 0.27317238E+03</pdfrwt>
<pdfrwt beam="2">  1       -2 0.22214816E-01 0.27317238E+03</pdfrwt>
<totfact> 0.57787139E+03</totfact>
</mgrwt>
</event>
<event>
 4    1  0.6782240E-004  0.1660952E+03  0.7818608E-02  0.1181982E+00
         -2   -1    0    0    0  501 -0.00000000000E+00  0.00000000000E+00  0.14144008771E+03  0.14144008773E+03  0.25500000000E-02 0. -1.
          2   -1    0    0  501    0  0.00000000000E+00 -0.00000000000E+00 -0.48762041925E+02  0.48762041991E+02  0.25500000000E-02 0.  1.
    5000001    1    1    2    0    0  0.96845763555E+01  0.18611444440E+02  0.72645598749E+02  0.10791922860E+03  0.77000000000E+02 0.  0.
   -5000001    1    1    2    0    0 -0.96845763555E+01 -0.18611444440E+02  0.20032447033E+02  0.82282901124E+02  0.77000000000E+02 0.  0.
<mgrwt>
<rscale>  0 0.16609524E+03</rscale>
<asrwt>0</asrwt>
<pdfrwt beam="1">  1        2 0.69660060E-02 0.16609524E+03</pdfrwt>
<pdfrwt beam="2">  1       -2 0.20205727E-01 0.16609524E+03</pdfrwt>
<totfact> 0.19821528E+04</totfact>
</mgrwt>
</event>
<event>
 4    1  0.6782240E-004  0.3823731E+03  0.7818608E-02  0.1050060E+00
          2   -1    0    0  501    0  0.00000000000E+00  0.00000000000E+00  0.42666828125E+04  0.42666828125E+04  0.25500000000E-02 0.  1.
         -2   -1    0    0    0  501 -0.00000000000E+00 -0.00000000000E+00 -0.85669100489E+01  0.85669104284E+01  0.25500000000E-02 0. -1.
    5000001    1    1    2    0    0  0.10565829866E+03  0.79044880301E+01  0.36862528103E+04  0.36885789864E+04  0.77000000000E+02 0.  0.
   -5000001    1    1    2    0    0 -0.10565829866E+03 -0.79044880301E+01  0.57186309213E+03  0.58667073657E+03  0.77000000000E+02 0.  0.
<mgrwt>
<rscale>  0 0.38237306E+03</rscale>
<asrwt>0</asrwt>
<pdfrwt beam="1">  1        2 0.60952324E+00 0.38237306E+03</pdfrwt>
<pdfrwt beam="2">  1       -2 0.12238501E-02 0.38237306E+03</pdfrwt>
<totfact> 0.74192790E+02</totfact>
</mgrwt>
</event>
<event>
 4    1  0.6782240E-004  0.2360997E+03  0.7818608E-02  0.1122419E+00
          2   -1    0    0  501    0  0.00000000000E+00  0.00000000000E+00  0.14002552083E+04  0.14002552083E+04  0.25500000000E-02 0.  1.
         -2   -1    0    0    0  501 -0.00000000000E+00 -0.00000000000E+00 -0.99523025048E+01  0.99523028315E+01  0.25500000000E-02 0. -1.
    5000001    1    1    2    0    0  0.32435348350E+02 -0.79909637231E+02  0.55265453294E+03  0.56461813177E+03  0.77000000000E+02 0.  0.
   -5000001    1    1    2    0    0 -0.32435348350E+02  0.79909637231E+02  0.83764837284E+03  0.84558937935E+03  0.77000000000E+02 0.  0.
<mgrwt>
<rscale>  0 0.23609967E+03</rscale>
<asrwt>0</asrwt>
<pdfrwt beam="1">  1        2 0.20003644E+00 0.23609967E+03</pdfrwt>
<pdfrwt beam="2">  1       -2 0.14217576E-02 0.23609967E+03</pdfrwt>
<totfact> 0.22204532E+04</totfact>
</mgrwt>
</event>
<event>
 4    1  0.6782240E-004  0.2263709E+03  0.7818608E-02  0.1129220E+00
         -2   -1    0    0    0  501 -0.00000000000E+00  0.00000000000E+00  0.11105484895E+02  0.11105485187E+02  0.25500000000E-02 0. -1.
          2   -1    0    0  501    0  0.00000000000E+00 -0.00000000000E+00 -0.11535694860E+04  0.11535694860E+04  0.25500000000E-02 0.  1.
    5000001    1    1    2    0    0 -0.12707980475E+02  0.69665518068E+02 -0.34891319214E+03  0.36425841490E+03  0.77000000000E+02 0.  0.
   -5000001    1    1    2    0    0  0.12707980475E+02 -0.69665518068E+02 -0.79355080896E+03  0.80041655629E+03  0.77000000000E+02 0.  0.
<mgrwt>
<rscale>  0 0.22637092E+03</rscale>
<asrwt>0</asrwt>
<pdfrwt beam="1">  1        2 0.16479557E+00 0.22637092E+03</pdfrwt>
<pdfrwt beam="2">  1       -2 0.15864986E-02 0.22637092E+03</pdfrwt>
<totfact> 0.25488734E+04</totfact>
</mgrwt>
</event>
<event>
 4    1  0.6782240E-004  0.2451592E+03  0.7818608E-02  0.1116403E+00
         -2   -1    0    0    0  501 -0.00000000000E+00  0.00000000000E+00  0.13352523360E+02  0.13352523603E+02  0.25500000000E-02 0. -1.
          2   -1    0    0  501    0  0.00000000000E+00 -0.00000000000E+00 -0.11253118746E+04  0.11253118746E+04  0.25500000000E-02 0.  1.
    5000001    1    1    2    0    0  0.51125474593E+02  0.79674687264E+02 -0.50203771899E+03  0.51665534085E+03  0.77000000000E+02 0.  0.
   -5000001    1    1    2    0    0 -0.51125474593E+02 -0.79674687264E+02 -0.60992163223E+03  0.62200905733E+03  0.77000000000E+02 0.  0.
<mgrwt>
<rscale>  0 0.24515916E+03</rscale>
<asrwt>0</asrwt>
<pdfrwt beam="1">  1        2 0.16075878E+00 0.24515916E+03</pdfrwt>
<pdfrwt beam="2">  1       -2 0.19075041E-02 0.24515916E+03</pdfrwt>
<totfact> 0.20265070E+04</totfact>
</mgrwt>
</event>
<event>
 4    1  0.6782240E-004  0.2212381E+03  0.7818608E-02  0.1132963E+00
         -2   -1    0    0    0  501 -0.00000000000E+00  0.00000000000E+00  0.61491132114E+02  0.61491132167E+02  0.25500000000E-02 0. -1.
          2   -1    0    0  501    0  0.00000000000E+00 -0.00000000000E+00 -0.19899744001E+03  0.19899744003E+03  0.25500000000E-02 0.  1.
    5000001    1    1    2    0    0 -0.44845095784E+01 -0.61247454606E+02 -0.94576396623E+01  0.98943460976E+02  0.77000000000E+02 0.  0.
   -5000001    1    1    2    0    0  0.44845095784E+01  0.61247454606E+02 -0.12804866823E+03  0.16154511122E+03  0.77000000000E+02 0.  0.
<mgrwt>
<rscale>  0 0.22123813E+03</rscale>
<asrwt>0</asrwt>
<pdfrwt beam="1">  1        2 0.28428205E-01 0.22123813E+03</pdfrwt>
<pdfrwt beam="2">  1       -2 0.87844475E-02 0.22123813E+03</pdfrwt>
<totfact> 0.14791322E+04</totfact>
</mgrwt>
</event>
<event>
 4    1  0.6782240E-004  0.3003187E+03  0.7818608E-02  0.1085081E+00
          2   -1    0    0  501    0  0.00000000000E+00  0.00000000000E+00  0.25876834114E+04  0.25876834114E+04  0.25500000000E-02 0.  1.
         -2   -1    0    0    0  501 -0.00000000000E+00 -0.00000000000E+00 -0.87135197636E+01  0.87135201368E+01  0.25500000000E-02 0. -1.
    5000001    1    1    2    0    0 -0.11082707766E+03 -0.60000411882E+02  0.10549167914E+04  0.10652047349E+04  0.77000000000E+02 0.  0.
   -5000001    1    1    2    0    0  0.11082707766E+03  0.60000411882E+02  0.15240531002E+04  0.15311921966E+04  0.77000000000E+02 0.  0.
<mgrwt>
<rscale>  0 0.30031870E+03</rscale>
<asrwt>0</asrwt>
<pdfrwt beam="1">  1        2 0.36966914E+00 0.30031870E+03</pdfrwt>
<pdfrwt beam="2">  1       -2 0.12447883E-02 0.30031870E+03</pdfrwt>
<totfact> 0.70231795E+03</totfact>
</mgrwt>
</event>
<event>
 4    1  0.6782240E-004  0.5156068E+03  0.7818608E-02  0.1009784E+00
         -2   -1    0    0    0  501 -0.00000000000E+00  0.00000000000E+00  0.72203316305E+03  0.72203316305E+03  0.25500000000E-02 0. -1.
          2   -1    0    0  501    0  0.00000000000E+00 -0.00000000000E+00 -0.92049238723E+02  0.92049238759E+02  0.25500000000E-02 0.  1.
    5000001    1    1    2    0    0 -0.11548730710E+03 -0.19676271741E+03  0.16959142617E+03  0.29452187847E+03  0.77000000000E+02 0.  0.
   -5000001    1    1    2    0    0  0.11548730710E+03  0.19676271741E+03  0.46039249815E+03  0.51956052335E+03  0.77000000000E+02 0.  0.
<mgrwt>
<rscale>  0 0.51560684E+03</rscale>
<asrwt>0</asrwt>
<pdfrwt beam="1">  1        2 0.13149892E-01 0.51560684E+03</pdfrwt>
<pdfrwt beam="2">  1       -2 0.10314759E+00 0.51560684E+03</pdfrwt>
<totfact> 0.36559271E+02</totfact>
</mgrwt>
</event>
<event>
 4    1  0.6782240E-004  0.3990911E+03  0.7818608E-02  0.1044095E+00
         -2   -1    0    0    0  501 -0.00000000000E+00  0.00000000000E+00  0.20429151269E+03  0.20429151271E+03  0.25500000000E-02 0. -1.
          2   -1    0    0  501    0  0.00000000000E+00 -0.00000000000E+00 -0.19490982582E+03  0.19490982584E+03  0.25500000000E-02 0.  1.
    5000001    1    1    2    0    0  0.17776618546E+03 -0.76725019934E+01  0.51924002920E+02  0.20071070241E+03  0.77000000000E+02 0.  0.
   -5000001    1    1    2    0    0 -0.17776618546E+03  0.76725019934E+01 -0.42542316053E+02  0.19849063614E+03  0.77000000000E+02 0.  0.
<mgrwt>
<rscale>  0 0.39909108E+03</rscale>
<asrwt>0</asrwt>
<pdfrwt beam="1">  1        2 0.27844261E-01 0.39909108E+03</pdfrwt>
<pdfrwt beam="2">  1       -2 0.29184502E-01 0.39909108E+03</pdfrwt>
<totfact> 0.20650813E+03</totfact>
</mgrwt>
</event>
<event>
 4    1  0.6782240E-004  0.2579723E+03  0.7818608E-02  0.1108368E+00
         -2   -1    0    0    0  501 -0.00000000000E+00  0.00000000000E+00  0.36391095319E+02  0.36391095409E+02  0.25500000000E-02 0. -1.
          2   -1    0    0  501    0  0.00000000000E+00 -0.00000000000E+00 -0.45718385319E+03  0.45718385319E+03  0.25500000000E-02 0.  1.
    5000001    1    1    2    0    0 -0.94504365886E+02  0.39360590159E+02 -0.23929207800E+03  0.27142223531E+03  0.77000000000E+02 0.  0.
   -5000001    1    1    2    0    0  0.94504365886E+02 -0.39360590159E+02 -0.18150067987E+03  0.22215271329E+03  0.77000000000E+02 0.  0.
<mgrwt>
<rscale>  0 0.25797226E+03</rscale>
<asrwt>0</asrwt>
<pdfrwt beam="1">  1        2 0.65311975E-01 0.25797226E+03</pdfrwt>
<pdfrwt beam="2">  1       -2 0.51987282E-02 0.25797226E+03</pdfrwt>
<totfact> 0.13640644E+04</totfact>
</mgrwt>
</event>
<event>
 4    1  0.6782240E-004  0.2945634E+03  0.7818608E-02  0.1087990E+00
          2   -1    0    0  501    0  0.00000000000E+00  0.00000000000E+00  0.38630466641E+03  0.38630466642E+03  0.25500000000E-02 0.  1.
         -2   -1    0    0    0  501 -0.00000000000E+00 -0.00000000000E+00 -0.56152324577E+02  0.56152324635E+02  0.25500000000E-02 0. -1.
    5000001    1    1    2    0    0 -0.10131837446E+03 -0.73608289927E+02  0.15169910739E+03  0.21124680479E+03  0.77000000000E+02 0.  0.
   -5000001    1    1    2    0    0  0.10131837446E+03  0.73608289927E+02  0.17845323444E+03  0.23121018627E+03  0.77000000000E+02 0.  0.
<mgrwt>
<rscale>  0 0.29456344E+03</rscale>
<asrwt>0</asrwt>
<pdfrwt beam="1">  1        2 0.55186383E-01 0.29456344E+03</pdfrwt>
<pdfrwt beam="2">  1       -2 0.80217604E-02 0.29456344E+03</pdfrwt>
<totfact> 0.84402533E+03</totfact>
</mgrwt>
</event>
<event>
 4    1  0.6782240E-004  0.2319197E+03  0.7818608E-02  0.1125296E+00
         -2   -1    0    0    0  501 -0.00000000000E+00  0.00000000000E+00  0.45102934021E+02  0.45102934093E+02  0.25500000000E-02 0. -1.
          2   -1    0    0  501    0  0.00000000000E+00 -0.00000000000E+00 -0.29813322149E+03  0.29813322150E+03  0.25500000000E-02 0.  1.
    5000001    1    1    2    0    0 -0.58988341100E+02 -0.24355636995E+02 -0.39650840915E+02  0.10758257584E+03  0.77000000000E+02 0.  0.
   -5000001    1    1    2    0    0  0.58988341100E+02  0.24355636995E+02 -0.21337944655E+03  0.23565357975E+03  0.77000000000E+02 0.  0.
<mgrwt>
<rscale>  0 0.23191967E+03</rscale>
<asrwt>0</asrwt>
<pdfrwt beam="1">  1        2 0.42590459E-01 0.23191967E+03</pdfrwt>
<pdfrwt beam="2">  1       -2 0.64432765E-02 0.23191967E+03</pdfrwt>
<totfact> 0.15486197E+04</totfact>
</mgrwt>
</event>
<event>
 4    1  0.6782240E-004  0.2393702E+03  0.7818608E-02  0.1120213E+00
         -2   -1    0    0    0  501 -0.00000000000E+00  0.00000000000E+00  0.83732509765E+01  0.83732513648E+01  0.25500000000E-02 0. -1.
          2   -1    0    0  501    0  0.00000000000E+00 -0.00000000000E+00 -0.17107473618E+04  0.17107473618E+04  0.25500000000E-02 0.  1.
    5000001    1    1    2    0    0 -0.77049358541E+01 -0.59009874763E+02 -0.35082356575E+03  0.36407101730E+03  0.77000000000E+02 0.  0.
   -5000001    1    1    2    0    0  0.77049358541E+01  0.59009874763E+02 -0.13515505451E+04  0.13550495959E+04  0.77000000000E+02 0.  0.
<mgrwt>
<rscale>  0 0.23937015E+03</rscale>
<asrwt>0</asrwt>
<pdfrwt beam="1">  1        2 0.24439226E+00 0.23937015E+03</pdfrwt>
<pdfrwt beam="2">  1       -2 0.11961798E-02 0.23937015E+03</pdfrwt>
<totfact> 0.19988464E+04</totfact>
</mgrwt>
</event>
<event>
 4    1  0.6782240E-004  0.4234070E+03  0.7818608E-02  0.1035963E+00
          2   -1    0    0  501    0  0.00000000000E+00  0.00000000000E+00  0.19124822585E+04  0.19124822585E+04  0.25500000000E-02 0.  1.
         -2   -1    0    0    0  501 -0.00000000000E+00 -0.00000000000E+00 -0.23434660148E+02  0.23434660287E+02  0.25500000000E-02 0. -1.
    5000001    1    1    2    0    0 -0.54173896807E+02  0.18928889408E+03  0.89355302419E+03  0.91822170719E+03  0.77000000000E+02 0.  0.
   -5000001    1    1    2    0    0  0.54173896807E+02 -0.18928889408E+03  0.99549457414E+03  0.10176952116E+04  0.77000000000E+02 0.  0.
<mgrwt>
<rscale>  0 0.42340700E+03</rscale>
<asrwt>0</asrwt>
<pdfrwt beam="1">  1        2 0.27321182E+00 0.42340700E+03</pdfrwt>
<pdfrwt beam="2">  1       -2 0.33478078E-02 0.42340700E+03</pdfrwt>
<totfact> 0.34945788E+03</totfact>
</mgrwt>
</event>
<event>
 4    1  0.6782240E-004  0.2684651E+03  0.7818608E-02  0.1102161E+00
         -2   -1    0    0    0  501 -0.00000000000E+00  0.00000000000E+00  0.91437953528E+01  0.91437957084E+01  0.25500000000E-02 0. -1.
          2   -1    0    0  501    0  0.00000000000E+00 -0.00000000000E+00 -0.19705572691E+04  0.19705572691E+04  0.25500000000E-02 0.  1.
    5000001    1    1    2    0    0 -0.44192983105E+02  0.58576813316E+02 -0.37687659396E+03  0.39159830169E+03  0.77000000000E+02 0.  0.
   -5000001    1    1    2    0    0  0.44192983105E+02 -0.58576813316E+02 -0.15845368798E+04  0.15881027631E+04  0.77000000000E+02 0.  0.
<mgrwt>
<rscale>  0 0.26846506E+03</rscale>
<asrwt>0</asrwt>
<pdfrwt beam="1">  1        2 0.28150791E+00 0.26846506E+03</pdfrwt>
<pdfrwt beam="2">  1       -2 0.13062578E-02 0.26846506E+03</pdfrwt>
<totfact> 0.13179667E+04</totfact>
</mgrwt>
</event>
<event>
 4    1  0.6782240E-004  0.1751563E+03  0.7818608E-02  0.1172575E+00
          2   -1    0    0  501    0  0.00000000000E+00  0.00000000000E+00  0.47025666912E+03  0.47025666913E+03  0.25500000000E-02 0.  1.
         -2   -1    0    0    0  501 -0.00000000000E+00 -0.00000000000E+00 -0.16310102199E+02  0.16310102398E+02  0.25500000000E-02 0. -1.
    5000001    1    1    2    0    0 -0.40494209829E+02  0.99780432288E+01  0.22346827463E+03  0.24001335825E+03  0.77000000000E+02 0.  0.
   -5000001    1    1    2    0    0  0.40494209829E+02 -0.99780432288E+01  0.23047829230E+03  0.24655341327E+03  0.77000000000E+02 0.  0.
<mgrwt>
<rscale>  0 0.17515632E+03</rscale>
<asrwt>0</asrwt>
<pdfrwt beam="1">  1        2 0.67179523E-01 0.17515632E+03</pdfrwt>
<pdfrwt beam="2">  1       -2 0.23300147E-02 0.17515632E+03</pdfrwt>
<totfact> 0.42554699E+04</totfact>
</mgrwt>
</event>
<event>
 4    1  0.6782240E-004  0.1927302E+03  0.7818608E-02  0.1156022E+00
          2   -1    0    0  501    0  0.00000000000E+00  0.00000000000E+00  0.13341495191E+03  0.13341495193E+03  0.25500000000E-02 0.  1.
         -2   -1    0    0    0  501 -0.00000000000E+00 -0.00000000000E+00 -0.69604166325E+02  0.69604166372E+02  0.25500000000E-02 0. -1.
    5000001    1    1    2    0    0 -0.53413781149E+02 -0.13503891344E+02  0.13007497801E+02  0.95569776065E+02  0.77000000000E+02 0.  0.
   -5000001    1    1    2    0    0  0.53413781149E+02  0.13503891344E+02  0.50803287781E+02  0.10744934224E+03  0.77000000000E+02 0.  0.
<mgrwt>
<rscale>  0 0.19273024E+03</rscale>
<asrwt>0</asrwt>
<pdfrwt beam="1">  1        2 0.19059279E-01 0.19273024E+03</pdfrwt>
<pdfrwt beam="2">  1       -2 0.99434524E-02 0.19273024E+03</pdfrwt>
<totfact> 0.18865351E+04</totfact>
</mgrwt>
</event>
<event>
 4    1  0.6782240E-004  0.2933720E+03  0.7818608E-02  0.1088602E+00
          2   -1    0    0  501    0  0.00000000000E+00  0.00000000000E+00  0.76083092530E+03  0.76083092530E+03  0.25500000000E-02 0.  1.
         -2   -1    0    0    0  501 -0.00000000000E+00 -0.00000000000E+00 -0.28280637850E+02  0.28280637965E+02  0.25500000000E-02 0. -1.
    5000001    1    1    2    0    0  0.14886758347E+02 -0.71061290184E+02  0.93072365902E+02  0.14093540304E+03  0.77000000000E+02 0.  0.
   -5000001    1    1    2    0    0 -0.14886758347E+02  0.71061290184E+02  0.63947792155E+03  0.64817616022E+03  0.77000000000E+02 0.  0.
<mgrwt>
<rscale>  0 0.29337201E+03</rscale>
<asrwt>0</asrwt>
<pdfrwt beam="1">  1        2 0.10869014E+00 0.29337201E+03</pdfrwt>
<pdfrwt beam="2">  1       -2 0.40400909E-02 0.29337201E+03</pdfrwt>
<totfact> 0.11217878E+04</totfact>
</mgrwt>
</event>
<event>
 4    1  0.6782240E-004  0.2513399E+03  0.7818608E-02  0.1112461E+00
         -2   -1    0    0    0  501 -0.00000000000E+00  0.00000000000E+00  0.18365098418E+03  0.18365098420E+03  0.25500000000E-02 0. -1.
          2   -1    0    0  501    0  0.00000000000E+00 -0.00000000000E+00 -0.85994321129E+02  0.85994321167E+02  0.25500000000E-02 0.  1.
    5000001    1    1    2    0    0  0.81847411716E+02  0.56170996088E+02  0.52180325417E+02  0.13603663465E+03  0.77000000000E+02 0.  0.
   -5000001    1    1    2    0    0 -0.81847411716E+02 -0.56170996088E+02  0.45476337636E+02  0.13360867072E+03  0.77000000000E+02 0.  0.
<mgrwt>
<rscale>  0 0.25133994E+03</rscale>
<asrwt>0</asrwt>
<pdfrwt beam="1">  1        2 0.12284903E-01 0.25133994E+03</pdfrwt>
<pdfrwt beam="2">  1       -2 0.26235855E-01 0.25133994E+03</pdfrwt>
<totfact> 0.63905168E+03</totfact>
</mgrwt>
</event>
<event>
 4    1  0.6782240E-004  0.2875630E+03  0.7818608E-02  0.1091628E+00
         -2   -1    0    0    0  501 -0.00000000000E+00  0.00000000000E+00  0.10715415138E+03  0.10715415141E+03  0.25500000000E-02 0. -1.
          2   -1    0    0  501    0  0.00000000000E+00 -0.00000000000E+00 -0.19292874750E+03  0.19292874752E+03  0.25500000000E-02 0.  1.
    5000001    1    1    2    0    0 -0.21888731783E+02 -0.67026232303E+02 -0.14604716138E+03  0.17952828675E+03  0.77000000000E+02 0.  0.
   -5000001    1    1    2    0    0  0.21888731783E+02  0.67026232303E+02  0.60272565256E+02  0.12055461218E+03  0.77000000000E+02 0.  0.
<mgrwt>
<rscale>  0 0.28756298E+03</rscale>
<asrwt>0</asrwt>
<pdfrwt beam="1">  1        2 0.27561250E-01 0.28756298E+03</pdfrwt>
<pdfrwt beam="2">  1       -2 0.15307736E-01 0.28756298E+03</pdfrwt>
<totfact> 0.63434937E+03</totfact>
</mgrwt>
</event>
<event>
 4    1  0.6782240E-004  0.3797182E+03  0.7818608E-02  0.1051038E+00
          2   -1    0    0  501    0  0.00000000000E+00  0.00000000000E+00  0.16219409654E+04  0.16219409654E+04  0.25500000000E-02 0.  1.
         -2   -1    0    0    0  501 -0.00000000000E+00 -0.00000000000E+00 -0.22224288265E+02  0.22224288411E+02  0.25500000000E-02 0. -1.
    5000001    1    1    2    0    0 -0.13349766166E+03 -0.21505509615E+02  0.12708771575E+04  0.12803678620E+04  0.77000000000E+02 0.  0.
   -5000001    1    1    2    0    0  0.13349766166E+03  0.21505509615E+02  0.32883951969E+03  0.36379739185E+03  0.77000000000E+02 0.  0.
<mgrwt>
<rscale>  0 0.37971823E+03</rscale>
<asrwt>0</asrwt>
<pdfrwt beam="1">  1        2 0.23170593E+00 0.37971823E+03</pdfrwt>
<pdfrwt beam="2">  1       -2 0.31748973E-02 0.37971823E+03</pdfrwt>
<totfact> 0.52869583E+03</totfact>
</mgrwt>
</event>
<event>
 4    1  0.6782240E-004  0.3056637E+03  0.7818608E-02  0.1082443E+00
         -2   -1    0    0    0  501 -0.00000000000E+00  0.00000000000E+00  0.45674130015E+03  0.45674130016E+03  0.25500000000E-02 0. -1.
          2   -1    0    0  501    0  0.00000000000E+00 -0.00000000000E+00 -0.51139613162E+02  0.51139613225E+02  0.25500000000E-02 0.  1.
    5000001    1    1    2    0    0 -0.49168072976E+02 -0.11515890270E+03  0.13330238832E+03  0.19843789710E+03  0.77000000000E+02 0.  0.
   -5000001    1    1    2    0    0  0.49168072976E+02  0.11515890270E+03  0.27229929867E+03  0.30944301629E+03  0.77000000000E+02 0.  0.
<mgrwt>
<rscale>  0 0.30566369E+03</rscale>
<asrwt>0</asrwt>
<pdfrwt beam="1">  1        2 0.73056584E-02 0.30566369E+03</pdfrwt>
<pdfrwt beam="2">  1       -2 0.65248763E-01 0.30566369E+03</pdfrwt>
<totfact> 0.21227484E+03</totfact>
</mgrwt>
</event>
<event>
 4    1  0.6782240E-004  0.3064070E+03  0.7818608E-02  0.1082081E+00
         -2   -1    0    0    0  501 -0.00000000000E+00  0.00000000000E+00  0.75311279434E+02  0.75311279477E+02  0.25500000000E-02 0. -1.
          2   -1    0    0  501    0  0.00000000000E+00 -0.00000000000E+00 -0.31165731396E+03  0.31165731397E+03  0.25500000000E-02 0.  1.
    5000001    1    1    2    0    0 -0.12526123970E+03  0.33304522363E+02 -0.83754199484E+02  0.17246256206E+03  0.77000000000E+02 0.  0.
   -5000001    1    1    2    0    0  0.12526123970E+03 -0.33304522363E+02 -0.15259183504E+03  0.21450603139E+03  0.77000000000E+02 0.  0.
<mgrwt>
<rscale>  0 0.30640699E+03</rscale>
<asrwt>0</asrwt>
<pdfrwt beam="1">  1        2 0.44522473E-01 0.30640699E+03</pdfrwt>
<pdfrwt beam="2">  1       -2 0.10758754E-01 0.30640699E+03</pdfrwt>
<totfact> 0.66954580E+03</totfact>
</mgrwt>
</event>
<event>
 4    1  0.6782240E-004  0.2687247E+03  0.7818608E-02  0.1102012E+00
          2   -1    0    0  501    0  0.00000000000E+00  0.00000000000E+00  0.50259298065E+03  0.50259298066E+03  0.25500000000E-02 0.  1.
         -2   -1    0    0    0  501 -0.00000000000E+00 -0.00000000000E+00 -0.35920203095E+02  0.35920203185E+02  0.25500000000E-02 0. -1.
    5000001    1    1    2    0    0 -0.73473588390E+02 -0.80344268830E+02  0.20036702233E+03  0.24068550717E+03  0.77000000000E+02 0.  0.
   -5000001    1    1    2    0    0  0.73473588390E+02  0.80344268830E+02  0.26630575523E+03  0.29782767667E+03  0.77000000000E+02 0.  0.
<mgrwt>
<rscale>  0 0.26872471E+03</rscale>
<asrwt>0</asrwt>
<pdfrwt beam="1">  1        2 0.71799003E-01 0.26872471E+03</pdfrwt>
<pdfrwt beam="2">  1       -2 0.51314572E-02 0.26872471E+03</pdfrwt>
<totfact> 0.12563270E+04</totfact>
</mgrwt>
</event>
<event>
 4    1  0.6782240E-004  0.3304183E+03  0.7818608E-02  0.1070952E+00
         -2   -1    0    0    0  501 -0.00000000000E+00  0.00000000000E+00  0.14903572434E+03  0.14903572436E+03  0.25500000000E-02 0. -1.
          2   -1    0    0  501    0  0.00000000000E+00 -0.00000000000E+00 -0.18313767104E+03  0.18313767106E+03  0.25500000000E-02 0.  1.
    5000001    1    1    2    0    0 -0.14402022067E+03 -0.20204310401E+02 -0.31792333696E+02  0.16760009129E+03  0.77000000000E+02 0.  0.
   -5000001    1    1    2    0    0  0.14402022067E+03  0.20204310401E+02 -0.23096130048E+01  0.16457330413E+03  0.77000000000E+02 0.  0.
<mgrwt>
<rscale>  0 0.33041825E+03</rscale>
<asrwt>0</asrwt>
<pdfrwt beam="1">  1        2 0.26162525E-01 0.33041825E+03</pdfrwt>
<pdfrwt beam="2">  1       -2 0.21290818E-01 0.33041825E+03</pdfrwt>
<totfact> 0.38616777E+03</totfact>
</mgrwt>
</event>
<event>
 4    1  0.6782240E-004  0.2436317E+03  0.7818608E-02  0.1117397E+00
          2   -1    0    0  501    0  0.00000000000E+00  0.00000000000E+00  0.15521993163E+04  0.15521993163E+04  0.25500000000E-02 0.  1.
         -2   -1    0    0    0  501 -0.00000000000E+00 -0.00000000000E+00 -0.95600459148E+01  0.95600462549E+01  0.25500000000E-02 0. -1.
    5000001    1    1    2    0    0 -0.93441263042E+02 -0.11300082918E+02  0.72547995429E+03  0.73560120010E+03  0.77000000000E+02 0.  0.
   -5000001    1    1    2    0    0  0.93441263042E+02  0.11300082918E+02  0.81715931613E+03  0.82615816250E+03  0.77000000000E+02 0.  0.
<mgrwt>
<rscale>  0 0.24363166E+03</rscale>
<asrwt>0</asrwt>
<pdfrwt beam="1">  1        2 0.22174274E+00 0.24363166E+03</pdfrwt>
<pdfrwt beam="2">  1       -2 0.13657210E-02 0.24363166E+03</pdfrwt>
<totfact> 0.19758489E+04</totfact>
</mgrwt>
</event>
<event>
 4    1  0.6782240E-004  0.3433037E+03  0.7818608E-02  0.1065398E+00
         -2   -1    0    0    0  501 -0.00000000000E+00  0.00000000000E+00  0.71564092232E+02  0.71564092277E+02  0.25500000000E-02 0. -1.
          2   -1    0    0  501    0  0.00000000000E+00 -0.00000000000E+00 -0.41171984028E+03  0.41171984029E+03  0.25500000000E-02 0.  1.
    5000001    1    1    2    0    0  0.46773788658E+02  0.71515065341E+02  0.92820775563E+01  0.11540081819E+03  0.77000000000E+02 0.  0.
   -5000001    1    1    2    0    0 -0.46773788658E+02 -0.71515065341E+02 -0.34943782561E+03  0.36788311437E+03  0.77000000000E+02 0.  0.
<mgrwt>
<rscale>  0 0.34330369E+03</rscale>
<asrwt>0</asrwt>
<pdfrwt beam="1">  1        2 0.58817119E-01 0.34330369E+03</pdfrwt>
<pdfrwt beam="2">  1       -2 0.10223442E-01 0.34330369E+03</pdfrwt>
<totfact> 0.53912775E+03</totfact>
</mgrwt>
</event>
<event>
 4    1  0.6782240E-004  0.4101726E+03  0.7818608E-02  0.1040313E+00
          2   -1    0    0  501    0  0.00000000000E+00  0.00000000000E+00  0.20494396744E+04  0.20494396744E+04  0.25500000000E-02 0.  1.
         -2   -1    0    0    0  501 -0.00000000000E+00 -0.00000000000E+00 -0.20522869135E+02  0.20522869293E+02  0.25500000000E-02 0. -1.
    5000001    1    1    2    0    0  0.10720519993E+03  0.13547933304E+03  0.61441575436E+03  0.64287115644E+03  0.77000000000E+02 0.  0.
   -5000001    1    1    2    0    0 -0.10720519993E+03 -0.13547933304E+03  0.14145010509E+04  0.14270913873E+04  0.77000000000E+02 0.  0.
<mgrwt>
<rscale>  0 0.41017256E+03</rscale>
<asrwt>0</asrwt>
<pdfrwt beam="1">  1        2 0.29277703E+00 0.41017256E+03</pdfrwt>
<pdfrwt beam="2">  1       -2 0.29318391E-02 0.41017256E+03</pdfrwt>
<totfact> 0.36523658E+03</totfact>
</mgrwt>
</event>
<event>
 4    1  0.6782240E-004  0.1896132E+03  0.7818608E-02  0.1158811E+00
         -2   -1    0    0    0  501 -0.00000000000E+00  0.00000000000E+00  0.70787815462E+01  0.70787820055E+01  0.25500000000E-02 0. -1.
          2   -1    0    0  501    0  0.00000000000E+00 -0.00000000000E+00 -0.12697516061E+04  0.12697516061E+04  0.25500000000E-02 0.  1.
    5000001    1    1    2    0    0  0.35339745986E+02 -0.39675869422E+02 -0.73483275123E+03  0.74076396008E+03  0.77000000000E+02 0.  0.
   -5000001    1    1    2    0    0 -0.35339745986E+02  0.39675869422E+02 -0.52784007329E+03  0.53606642800E+03  0.77000000000E+02 0.  0.
<mgrwt>
<rscale>  0 0.18961323E+03</rscale>
<asrwt>0</asrwt>
<pdfrwt beam="1">  1        2 0.18139294E+00 0.18961323E+03</pdfrwt>
<pdfrwt beam="2">  1       -2 0.10112554E-02 0.18961323E+03</pdfrwt>
<totfact> 0.41930635E+04</totfact>
</mgrwt>
</event>
<event>
 4    1  0.6782240E-004  0.3133324E+03  0.7818608E-02  0.1078759E+00
         -2   -1    0    0    0  501 -0.00000000000E+00  0.00000000000E+00  0.10492432767E+02  0.10492433077E+02  0.25500000000E-02 0.  1.
          2   -1    0    0  501    0  0.00000000000E+00 -0.00000000000E+00 -0.23392386178E+04  0.23392386178E+04  0.25500000000E-02 0. -1.
    5000001    1    1    2    0    0  0.10636202583E+03 -0.85415044345E+02 -0.11449707540E+04  0.11556364644E+04  0.77000000000E+02 0.  0.
   -5000001    1    1    2    0    0 -0.10636202583E+03  0.85415044345E+02 -0.11837754310E+04  0.11940945865E+04  0.77000000000E+02 0.  0.
<mgrwt>
<rscale>  0 0.31333244E+03</rscale>
<asrwt>0</asrwt>
<pdfrwt beam="1">  1        2 0.33417661E+00 0.31333244E+03</pdfrwt>
<pdfrwt beam="2">  1       -2 0.14989205E-02 0.31333244E+03</pdfrwt>
<totfact> 0.71206685E+03</totfact>
</mgrwt>
</event>
<event>
 4    1  0.6782240E-004  0.2673807E+03  0.7818608E-02  0.1102788E+00
          2   -1    0    0  501    0  0.00000000000E+00  0.00000000000E+00  0.11110709001E+04  0.11110709001E+04  0.25500000000E-02 0.  1.
         -2   -1    0    0    0  501 -0.00000000000E+00 -0.00000000000E+00 -0.16086385548E+02  0.16086385750E+02  0.25500000000E-02 0. -1.
    5000001    1    1    2    0    0  0.47720851580E+02  0.79338972640E+02  0.30269380687E+03  0.32576754438E+03  0.77000000000E+02 0.  0.
   -5000001    1    1    2    0    0 -0.47720851580E+02 -0.79338972640E+02  0.79229070770E+03  0.80138974148E+03  0.77000000000E+02 0.  0.
<mgrwt>
<rscale>  0 0.26738074E+03</rscale>
<asrwt>0</asrwt>
<pdfrwt beam="1">  1        2 0.15872446E+00 0.26738074E+03</pdfrwt>
<pdfrwt beam="2">  1       -2 0.22980545E-02 0.26738074E+03</pdfrwt>
<totfact> 0.15752481E+04</totfact>
</mgrwt>
</event>
<event>
 4    1  0.6782240E-004  0.2098700E+03  0.7818608E-02  0.1141669E+00
          2   -1    0    0  501    0  0.00000000000E+00  0.00000000000E+00  0.19814573534E+04  0.19814573534E+04  0.25500000000E-02 0.  1.
         -2   -1    0    0    0  501 -0.00000000000E+00 -0.00000000000E+00 -0.55571973381E+01  0.55571979231E+01  0.25500000000E-02 0. -1.
    5000001    1    1    2    0    0  0.49848230077E+02  0.59827281544E+01  0.14671490036E+04  0.14700257949E+04  0.77000000000E+02 0.  0.
   -5000001    1    1    2    0    0 -0.49848230077E+02 -0.59827281544E+01  0.50875115246E+03  0.51698875637E+03  0.77000000000E+02 0.  0.
<mgrwt>
<rscale>  0 0.20986996E+03</rscale>
<asrwt>0</asrwt>
<pdfrwt beam="1">  1        2 0.28306467E+00 0.20986996E+03</pdfrwt>
<pdfrwt beam="2">  1       -2 0.79388723E-03 0.20986996E+03</pdfrwt>
<totfact> 0.26558349E+04</totfact>
</mgrwt>
</event>
<event>
 4    1  0.6782240E-004  0.2319309E+03  0.7818608E-02  0.1125288E+00
          2   -1    0    0  501    0  0.00000000000E+00  0.00000000000E+00  0.18702393377E+03  0.18702393379E+03  0.25500000000E-02 0.  1.
         -2   -1    0    0    0  501 -0.00000000000E+00 -0.00000000000E+00 -0.71905180108E+02  0.71905180153E+02  0.25500000000E-02 0. -1.
    5000001    1    1    2    0    0  0.80472713778E+02  0.24366207454E+02  0.33892095872E+02  0.11894218718E+03  0.77000000000E+02 0.  0.
   -5000001    1    1    2    0    0 -0.80472713778E+02 -0.24366207454E+02  0.81226657793E+02  0.13998692676E+03  0.77000000000E+02 0.  0.
<mgrwt>
<rscale>  0 0.23193093E+03</rscale>
<asrwt>0</asrwt>
<pdfrwt beam="1">  1        2 0.26717705E-01 0.23193093E+03</pdfrwt>
<pdfrwt beam="2">  1       -2 0.10272169E-01 0.23193093E+03</pdfrwt>
<totfact> 0.12409954E+04</totfact>
</mgrwt>
</event>
<event>
 4    1  0.6782240E-004  0.3548867E+03  0.7818608E-02  0.1060627E+00
          2   -1    0    0  501    0  0.00000000000E+00  0.00000000000E+00  0.14154913437E+04  0.14154913437E+04  0.25500000000E-02 0.  1.
         -2   -1    0    0    0  501 -0.00000000000E+00 -0.00000000000E+00 -0.22243962166E+02  0.22243962312E+02  0.25500000000E-02 0. -1.
    5000001    1    1    2    0    0  0.11815928511E+03  0.40659600475E+02  0.29266863797E+03  0.32741220414E+03  0.77000000000E+02 0.  0.
   -5000001    1    1    2    0    0 -0.11815928511E+03 -0.40659600475E+02  0.11005787436E+04  0.11103231019E+04  0.77000000000E+02 0.  0.
<mgrwt>
<rscale>  0 0.35488666E+03</rscale>
<asrwt>0</asrwt>
<pdfrwt beam="1">  1        2 0.20221306E+00 0.35488666E+03</pdfrwt>
<pdfrwt beam="2">  1       -2 0.31777087E-02 0.35488666E+03</pdfrwt>
<totfact> 0.67251027E+03</totfact>
</mgrwt>
</event>
<event>
 4    1  0.6782240E-004  0.2640625E+03  0.7818608E-02  0.1104727E+00
         -2   -1    0    0    0  501 -0.00000000000E+00  0.00000000000E+00  0.66143500386E+01  0.66143505302E+01  0.25500000000E-02 0. -1.
          2   -1    0    0  501    0  0.00000000000E+00 -0.00000000000E+00 -0.26355206575E+04  0.26355206575E+04  0.25500000000E-02 0.  1.
    5000001    1    1    2    0    0  0.70935919890E+02 -0.69356990127E+02 -0.17222349076E+04  0.17268075671E+04  0.77000000000E+02 0.  0.
   -5000001    1    1    2    0    0 -0.70935919890E+02  0.69356990127E+02 -0.90667139985E+03  0.91532744092E+03  0.77000000000E+02 0.  0.
<mgrwt>
<rscale>  0 0.26406254E+03</rscale>
<asrwt>0</asrwt>
<pdfrwt beam="1">  1        2 0.37650228E+00 0.26406254E+03</pdfrwt>
<pdfrwt beam="2">  1       -2 0.94490887E-03 0.26406254E+03</pdfrwt>
<totfact> 0.99198709E+03</totfact>
</mgrwt>
</event>
<event>
 4    1  0.6782240E-004  0.2300814E+03  0.7818608E-02  0.1126583E+00
          2   -1    0    0  501    0  0.00000000000E+00  0.00000000000E+00  0.14024094538E+04  0.14024094538E+04  0.25500000000E-02 0.  1.
         -2   -1    0    0    0  501 -0.00000000000E+00 -0.00000000000E+00 -0.94368710885E+01  0.94368714330E+01  0.25500000000E-02 0. -1.
    5000001    1    1    2    0    0 -0.63839635323E+02 -0.52193916356E+02  0.83447149648E+03  0.84206376384E+03  0.77000000000E+02 0.  0.
   -5000001    1    1    2    0    0  0.63839635323E+02  0.52193916356E+02  0.55850108621E+03  0.56978256137E+03  0.77000000000E+02 0.  0.
<mgrwt>
<rscale>  0 0.23008135E+03</rscale>
<asrwt>0</asrwt>
<pdfrwt beam="1">  1        2 0.20034438E+00 0.23008135E+03</pdfrwt>
<pdfrwt beam="2">  1       -2 0.13481233E-02 0.23008135E+03</pdfrwt>
<totfact> 0.23900025E+04</totfact>
</mgrwt>
</event>
<event>
 4    1  0.6782240E-004  0.2515419E+03  0.7818608E-02  0.1112334E+00
         -2   -1    0    0    0  501 -0.00000000000E+00  0.00000000000E+00  0.37817145318E+02  0.37817145404E+02  0.25500000000E-02 0. -1.
          2   -1    0    0  501    0  0.00000000000E+00 -0.00000000000E+00 -0.41828459643E+03  0.41828459644E+03  0.25500000000E-02 0.  1.
    5000001    1    1    2    0    0 -0.60960238124E+02  0.77876345366E+02 -0.20911682988E+03  0.24380263399E+03  0.77000000000E+02 0.  0.
   -5000001    1    1    2    0    0  0.60960238124E+02 -0.77876345366E+02 -0.17135062123E+03  0.21229910785E+03  0.77000000000E+02 0.  0.
<mgrwt>
<rscale>  0 0.25154188E+03</rscale>
<asrwt>0</asrwt>
<pdfrwt beam="1">  1        2 0.59754940E-01 0.25154188E+03</pdfrwt>
<pdfrwt beam="2">  1       -2 0.54024496E-02 0.25154188E+03</pdfrwt>
<totfact> 0.14152675E+04</totfact>
</mgrwt>
</event>
<event>
 4    1  0.6782240E-004  0.2156615E+03  0.7818608E-02  0.1137160E+00
         -2   -1    0    0    0  501 -0.00000000000E+00  0.00000000000E+00  0.46835588730E+02  0.46835588799E+02  0.25500000000E-02 0. -1.
          2   -1    0    0  501    0  0.00000000000E+00 -0.00000000000E+00 -0.24826134432E+03  0.24826134433E+03  0.25500000000E-02 0.  1.
    5000001    1    1    2    0    0  0.60485064914E+02 -0.22767816009E+02 -0.15408930499E+03  0.18398187529E+03  0.77000000000E+02 0.  0.
   -5000001    1    1    2    0    0 -0.60485064914E+02  0.22767816009E+02 -0.47336450600E+02  0.11111505784E+03  0.77000000000E+02 0.  0.
<mgrwt>
<rscale>  0 0.21566146E+03</rscale>
<asrwt>0</asrwt>
<pdfrwt beam="1">  1        2 0.35465906E-01 0.21566146E+03</pdfrwt>
<pdfrwt beam="2">  1       -2 0.66907986E-02 0.21566146E+03</pdfrwt>
<totfact> 0.17710811E+04</totfact>
</mgrwt>
</event>
<event>
 4    1  0.6782240E-004  0.1874149E+03  0.7818608E-02  0.1160814E+00
         -2   -1    0    0    0  501 -0.00000000000E+00  0.00000000000E+00  0.34905469850E+01  0.34905479165E+01  0.25500000000E-02 0. -1.
          2   -1    0    0  501    0  0.00000000000E+00 -0.00000000000E+00 -0.25156768004E+04  0.25156768004E+04  0.25500000000E-02 0.  1.
    5000001    1    1    2    0    0  0.33939246261E+02 -0.33969734602E+02 -0.15702583212E+04  0.15728782567E+04  0.77000000000E+02 0.  0.
   -5000001    1    1    2    0    0 -0.33939246261E+02  0.33969734602E+02 -0.94192793228E+03  0.94628909162E+03  0.77000000000E+02 0.  0.
<mgrwt>
<rscale>  0 0.18741493E+03</rscale>
<asrwt>0</asrwt>
<pdfrwt beam="1">  1        2 0.35938124E+00 0.18741493E+03</pdfrwt>
<pdfrwt beam="2">  1       -2 0.49865125E-03 0.18741493E+03</pdfrwt>
<totfact> 0.28306975E+04</totfact>
</mgrwt>
</event>
<event>
 4    1  0.6782240E-004  0.4408139E+03  0.7818608E-02  0.1030497E+00
         -2   -1    0    0    0  501 -0.00000000000E+00  0.00000000000E+00  0.23557558407E+03  0.23557558408E+03  0.25500000000E-02 0. -1.
          2   -1    0    0  501    0  0.00000000000E+00 -0.00000000000E+00 -0.20621506514E+03  0.20621506516E+03  0.25500000000E-02 0.  1.
    5000001    1    1    2    0    0 -0.67549387894E+02  0.18272364395E+03 -0.54023686857E+02  0.21632939839E+03  0.77000000000E+02 0.  0.
   -5000001    1    1    2    0    0  0.67549387894E+02 -0.18272364395E+03  0.83384205778E+02  0.22546125086E+03  0.77000000000E+02 0.  0.
<mgrwt>
<rscale>  0 0.44081395E+03</rscale>
<asrwt>0</asrwt>
<pdfrwt beam="1">  1        2 0.29459295E-01 0.44081395E+03</pdfrwt>
<pdfrwt beam="2">  1       -2 0.33653655E-01 0.44081395E+03</pdfrwt>
<totfact> 0.14920705E+03</totfact>
</mgrwt>
</event>
<event>
 4    1  0.6782240E-004  0.2510908E+03  0.7818608E-02  0.1112617E+00
         -2   -1    0    0    0  501 -0.00000000000E+00  0.00000000000E+00  0.27954867905E+02  0.27954868021E+02  0.25500000000E-02 0. -1.
          2   -1    0    0  501    0  0.00000000000E+00 -0.00000000000E+00 -0.56382495391E+03  0.56382495391E+03  0.25500000000E-02 0.  1.
    5000001    1    1    2    0    0  0.81127629525E+02  0.40331510647E+02 -0.36292250922E+03  0.38190322167E+03  0.77000000000E+02 0.  0.
   -5000001    1    1    2    0    0 -0.81127629525E+02 -0.40331510647E+02 -0.17294757678E+03  0.20987660026E+03  0.77000000000E+02 0.  0.
<mgrwt>
<rscale>  0 0.25109084E+03</rscale>
<asrwt>0</asrwt>
<pdfrwt beam="1">  1        2 0.80546415E-01 0.25109084E+03</pdfrwt>
<pdfrwt beam="2">  1       -2 0.39935529E-02 0.25109084E+03</pdfrwt>
<totfact> 0.16087840E+04</totfact>
</mgrwt>
</event>
<event>
 4    1  0.6782240E-004  0.2013682E+03  0.7818608E-02  0.1148590E+00
          2   -1    0    0  501    0  0.00000000000E+00  0.00000000000E+00  0.69733724866E+03  0.69733724866E+03  0.25500000000E-02 0.  1.
         -2   -1    0    0    0  501 -0.00000000000E+00 -0.00000000000E+00 -0.14537133105E+02  0.14537133329E+02  0.25500000000E-02 0. -1.
    5000001    1    1    2    0    0  0.11484368536E+02 -0.24982605920E+02  0.54911345020E+03  0.55516718429E+03  0.77000000000E+02 0.  0.
   -5000001    1    1    2    0    0 -0.11484368536E+02  0.24982605920E+02  0.13368666536E+03  0.15670719771E+03  0.77000000000E+02 0.  0.
<mgrwt>
<rscale>  0 0.20136817E+03</rscale>
<asrwt>0</asrwt>
<pdfrwt beam="1">  1        2 0.99619615E-01 0.20136817E+03</pdfrwt>
<pdfrwt beam="2">  1       -2 0.20767331E-02 0.20136817E+03</pdfrwt>
<totfact> 0.32740862E+04</totfact>
</mgrwt>
</event>
<event>
 4    1  0.6782240E-004  0.3141514E+03  0.7818608E-02  0.1078373E+00
          2   -1    0    0  501    0  0.00000000000E+00  0.00000000000E+00  0.11562027462E+04  0.11562027462E+04  0.25500000000E-02 0.  1.
         -2   -1    0    0    0  501 -0.00000000000E+00 -0.00000000000E+00 -0.21339489467E+02  0.21339489619E+02  0.25500000000E-02 0. -1.
    5000001    1    1    2    0    0  0.56952869894E+02  0.11274228303E+03  0.76539599192E+03  0.77956043782E+03  0.77000000000E+02 0.  0.
   -5000001    1    1    2    0    0 -0.56952869894E+02 -0.11274228303E+03  0.36946726486E+03  0.39798179804E+03  0.77000000000E+02 0.  0.
<mgrwt>
<rscale>  0 0.31415141E+03</rscale>
<asrwt>0</asrwt>
<pdfrwt beam="1">  1        2 0.16517182E+00 0.31415141E+03</pdfrwt>
<pdfrwt beam="2">  1       -2 0.30484986E-02 0.31415141E+03</pdfrwt>
<totfact> 0.98224132E+03</totfact>
</mgrwt>
</event>
<event>
 4    1  0.6782240E-004  0.2820682E+03  0.7818608E-02  0.1094565E+00
         -2   -1    0    0    0  501 -0.00000000000E+00  0.00000000000E+00  0.16240927468E+03  0.16240927470E+03  0.25500000000E-02 0.  1.
          2   -1    0    0  501    0  0.00000000000E+00 -0.00000000000E+00 -0.12247220149E+03  0.12247220152E+03  0.25500000000E-02 0. -1.
    5000001    1    1    2    0    0 -0.90189176920E+02  0.36428597463E+02  0.87723324791E+02  0.15193917223E+03  0.77000000000E+02 0.  0.
   -5000001    1    1    2    0    0  0.90189176920E+02 -0.36428597463E+02 -0.47786251603E+02  0.13294230399E+03  0.77000000000E+02 0.  0.
<mgrwt>
<rscale>  0 0.28206823E+03</rscale>
<asrwt>0</asrwt>
<pdfrwt beam="1">  1        2 0.17496029E-01 0.28206823E+03</pdfrwt>
<pdfrwt beam="2">  1       -2 0.23201325E-01 0.28206823E+03</pdfrwt>
<totfact> 0.52367648E+03</totfact>
</mgrwt>
</event>
<event>
 4    1  0.6782240E-004  0.1897116E+03  0.7818608E-02  0.1158722E+00
         -2   -1    0    0    0  501 -0.00000000000E+00  0.00000000000E+00  0.86092302815E+01  0.86092306592E+01  0.25500000000E-02 0. -1.
          2   -1    0    0  501    0  0.00000000000E+00 -0.00000000000E+00 -0.10451137178E+04  0.10451137178E+04  0.25500000000E-02 0.  1.
    5000001    1    1    2    0    0 -0.43827987445E+02 -0.31536468412E+02 -0.58699683880E+03  0.59448274162E+03  0.77000000000E+02 0.  0.
   -5000001    1    1    2    0    0  0.43827987445E+02  0.31536468412E+02 -0.44950764871E+03  0.45924020683E+03  0.77000000000E+02 0.  0.
<mgrwt>
<rscale>  0 0.18971162E+03</rscale>
<asrwt>0</asrwt>
<pdfrwt beam="1">  1        2 0.14930188E+00 0.18971162E+03</pdfrwt>
<pdfrwt beam="2">  1       -2 0.12298907E-02 0.18971162E+03</pdfrwt>
<totfact> 0.41907816E+04</totfact>
</mgrwt>
</event>
<event>
 4    1  0.6782240E-004  0.1793720E+03  0.7818608E-02  0.1168412E+00
         -2   -1    0    0    0  501 -0.00000000000E+00  0.00000000000E+00  0.52991165738E+01  0.52991171874E+01  0.25500000000E-02 0. -1.
          2   -1    0    0  501    0  0.00000000000E+00 -0.00000000000E+00 -0.15179096879E+04  0.15179096879E+04  0.25500000000E-02 0.  1.
    5000001    1    1    2    0    0 -0.16143035177E+02 -0.42948982030E+02 -0.78229688902E+03  0.78741516064E+03  0.77000000000E+02 0.  0.
   -5000001    1    1    2    0    0  0.16143035177E+02  0.42948982030E+02 -0.73031368229E+03  0.73579364443E+03  0.77000000000E+02 0.  0.
<mgrwt>
<rscale>  0 0.17937203E+03</rscale>
<asrwt>0</asrwt>
<pdfrwt beam="1">  1        2 0.21684396E+00 0.17937203E+03</pdfrwt>
<pdfrwt beam="2">  1       -2 0.75701766E-03 0.17937203E+03</pdfrwt>
<totfact> 0.47342137E+04</totfact>
</mgrwt>
</event>
<event>
 4    1  0.6782240E-004  0.4614452E+03  0.7818608E-02  0.1024363E+00
          2   -1    0    0  501    0  0.00000000000E+00  0.00000000000E+00  0.33229791156E+03  0.33229791157E+03  0.25500000000E-02 0.  1.
         -2   -1    0    0    0  501 -0.00000000000E+00 -0.00000000000E+00 -0.16019636170E+03  0.16019636172E+03  0.25500000000E-02 0. -1.
    5000001    1    1    2    0    0 -0.87389003065E+01  0.15135457312E+03  0.25249048959E+03  0.30440930097E+03  0.77000000000E+02 0.  0.
   -5000001    1    1    2    0    0  0.87389003065E+01 -0.15135457312E+03 -0.80388939736E+02  0.18808497232E+03  0.77000000000E+02 0.  0.
<mgrwt>
<rscale>  0 0.46144519E+03</rscale>
<asrwt>0</asrwt>
<pdfrwt beam="1">  1        2 0.47471129E-01 0.46144519E+03</pdfrwt>
<pdfrwt beam="2">  1       -2 0.22885195E-01 0.46144519E+03</pdfrwt>
<totfact> 0.17767914E+03</totfact>
</mgrwt>
</event>
<event>
 4    1  0.6782240E-004  0.1941842E+03  0.7818608E-02  0.1154741E+00
          2   -1    0    0  501    0  0.00000000000E+00  0.00000000000E+00  0.17676297797E+03  0.17676297799E+03  0.25500000000E-02 0.  1.
         -2   -1    0    0    0  501 -0.00000000000E+00 -0.00000000000E+00 -0.53330626921E+02  0.53330626982E+02  0.25500000000E-02 0. -1.
    5000001    1    1    2    0    0  0.20920991845E+02  0.43029620085E+02  0.20521620706E+02  0.92948227637E+02  0.77000000000E+02 0.  0.
   -5000001    1    1    2    0    0 -0.20920991845E+02 -0.43029620085E+02  0.10291073034E+03  0.13714537733E+03  0.77000000000E+02 0.  0.
<mgrwt>
<rscale>  0 0.19418425E+03</rscale>
<asrwt>0</asrwt>
<pdfrwt beam="1">  1        2 0.25251854E-01 0.19418425E+03</pdfrwt>
<pdfrwt beam="2">  1       -2 0.76186610E-02 0.19418425E+03</pdfrwt>
<totfact> 0.20850457E+04</totfact>
</mgrwt>
</event>
<event>
 4    1  0.6782240E-004  0.2057828E+03  0.7818608E-02  0.1144950E+00
         -2   -1    0    0    0  501 -0.00000000000E+00  0.00000000000E+00  0.14012064506E+02  0.14012064738E+02  0.25500000000E-02 0. -1.
          2   -1    0    0  501    0  0.00000000000E+00 -0.00000000000E+00 -0.75553728460E+03  0.75553728460E+03  0.25500000000E-02 0.  1.
    5000001    1    1    2    0    0  0.66827288376E+02 -0.35434012231E+00 -0.31899551330E+03  0.33489274333E+03  0.77000000000E+02 0.  0.
   -5000001    1    1    2    0    0 -0.66827288376E+02  0.35434012231E+00 -0.42252970679E+03  0.43465660601E+03  0.77000000000E+02 0.  0.
<mgrwt>
<rscale>  0 0.20578277E+03</rscale>
<asrwt>0</asrwt>
<pdfrwt beam="1">  1        2 0.10793387E+00 0.20578277E+03</pdfrwt>
<pdfrwt beam="2">  1       -2 0.20017240E-02 0.20578277E+03</pdfrwt>
<totfact> 0.31460547E+04</totfact>
</mgrwt>
</event>
<event>
 4    1  0.6782240E-004  0.2968398E+03  0.7818608E-02  0.1086831E+00
          2   -1    0    0  501    0  0.00000000000E+00  0.00000000000E+00  0.64704312226E+03  0.64704312226E+03  0.25500000000E-02 0.  1.
         -2   -1    0    0    0  501 -0.00000000000E+00 -0.00000000000E+00 -0.34044827960E+02  0.34044828055E+02  0.25500000000E-02 0. -1.
    5000001    1    1    2    0    0  0.59468304787E+02 -0.10989948618E+03  0.35703442164E+03  0.38602714228E+03  0.77000000000E+02 0.  0.
   -5000001    1    1    2    0    0 -0.59468304787E+02  0.10989948618E+03  0.25596387266E+03  0.29506080804E+03  0.77000000000E+02 0.  0.
<mgrwt>
<rscale>  0 0.29683983E+03</rscale>
<asrwt>0</asrwt>
<pdfrwt beam="1">  1        2 0.92434729E-01 0.29683983E+03</pdfrwt>
<pdfrwt beam="2">  1       -2 0.48635470E-02 0.29683983E+03</pdfrwt>
<totfact> 0.10279284E+04</totfact>
</mgrwt>
</event>
<event>
 4    1  0.6782240E-004  0.2126658E+03  0.7818608E-02  0.1139472E+00
          2   -1    0    0  501    0  0.00000000000E+00  0.00000000000E+00  0.11126805326E+04  0.11126805326E+04  0.25500000000E-02 0.  1.
         -2   -1    0    0    0  501 -0.00000000000E+00 -0.00000000000E+00 -0.10161665517E+02  0.10161665837E+02  0.25500000000E-02 0. -1.
    5000001    1    1    2    0    0 -0.66176537724E+02 -0.29222749404E+02  0.61470205209E+03  0.62371541273E+03  0.77000000000E+02 0.  0.
   -5000001    1    1    2    0    0  0.66176537724E+02  0.29222749404E+02  0.48781681503E+03  0.49912678575E+03  0.77000000000E+02 0.  0.
<mgrwt>
<rscale>  0 0.21266582E+03</rscale>
<asrwt>0</asrwt>
<pdfrwt beam="1">  1        2 0.15895432E+00 0.21266582E+03</pdfrwt>
<pdfrwt beam="2">  1       -2 0.14516669E-02 0.21266582E+03</pdfrwt>
<totfact> 0.30438619E+04</totfact>
</mgrwt>
</event>
<event>
 4    1  0.6782240E-004  0.1691443E+03  0.7818608E-02  0.1178743E+00
         -2   -1    0    0    0  501 -0.00000000000E+00  0.00000000000E+00  0.27161721831E+01  0.27161733801E+01  0.25500000000E-02 0. -1.
          2   -1    0    0  501    0  0.00000000000E+00 -0.00000000000E+00 -0.26332814421E+04  0.26332814421E+04  0.25500000000E-02 0.  1.
    5000001    1    1    2    0    0 -0.12815938926E+02  0.30217668881E+02 -0.11269176073E+04  0.11300219686E+04  0.77000000000E+02 0.  0.
   -5000001    1    1    2    0    0  0.12815938926E+02 -0.30217668881E+02 -0.15036476625E+04  0.15059756468E+04  0.77000000000E+02 0.  0.
<mgrwt>
<rscale>  0 0.16914429E+03</rscale>
<asrwt>0</asrwt>
<pdfrwt beam="1">  1        2 0.37618143E+00 0.16914429E+03</pdfrwt>
<pdfrwt beam="2">  1       -2 0.38802637E-03 0.16914429E+03</pdfrwt>
<totfact> 0.35211744E+04</totfact>
</mgrwt>
</event>
<event>
 4    1  0.6782240E-004  0.2771405E+03  0.7818608E-02  0.1097261E+00
         -2   -1    0    0    0  501 -0.00000000000E+00  0.00000000000E+00  0.88220180405E+01  0.88220184090E+01  0.25500000000E-02 0. -1.
          2   -1    0    0  501    0  0.00000000000E+00 -0.00000000000E+00 -0.21765663065E+04  0.21765663065E+04  0.25500000000E-02 0.  1.
    5000001    1    1    2    0    0  0.22973058809E+02  0.92111526455E+02 -0.56917170178E+03  0.58214922558E+03  0.77000000000E+02 0.  0.
   -5000001    1    1    2    0    0 -0.22973058809E+02 -0.92111526455E+02 -0.15985725867E+04  0.16032390993E+04  0.77000000000E+02 0.  0.
<mgrwt>
<rscale>  0 0.27714045E+03</rscale>
<asrwt>0</asrwt>
<pdfrwt beam="1">  1        2 0.31093770E+00 0.27714045E+03</pdfrwt>
<pdfrwt beam="2">  1       -2 0.12602897E-02 0.27714045E+03</pdfrwt>
<totfact> 0.11024341E+04</totfact>
</mgrwt>
</event>
<event>
 4    1  0.6782240E-004  0.2307297E+03  0.7818608E-02  0.1126127E+00
          2   -1    0    0  501    0  0.00000000000E+00  0.00000000000E+00  0.97273345896E+03  0.97273345897E+03  0.25500000000E-02 0.  1.
         -2   -1    0    0    0  501 -0.00000000000E+00 -0.00000000000E+00 -0.13682116308E+02  0.13682116545E+02  0.25500000000E-02 0. -1.
    5000001    1    1    2    0    0  0.13203178559E+02  0.80585161209E+02  0.36546833089E+03  0.38231452106E+03  0.77000000000E+02 0.  0.
   -5000001    1    1    2    0    0 -0.13203178559E+02 -0.80585161209E+02  0.59358301177E+03  0.60410105445E+03  0.77000000000E+02 0.  0.
<mgrwt>
<rscale>  0 0.23072973E+03</rscale>
<asrwt>0</asrwt>
<pdfrwt beam="1">  1        2 0.13896192E+00 0.23072973E+03</pdfrwt>
<pdfrwt beam="2">  1       -2 0.19545881E-02 0.23072973E+03</pdfrwt>
<totfact> 0.23848048E+04</totfact>
</mgrwt>
</event>
<event>
 4    1  0.6782240E-004  0.2363973E+03  0.7818608E-02  0.1122216E+00
          2   -1    0    0  501    0  0.00000000000E+00  0.00000000000E+00  0.22749655350E+04  0.22749655350E+04  0.25500000000E-02 0.  1.
         -2   -1    0    0    0  501 -0.00000000000E+00 -0.00000000000E+00 -0.61411578662E+01  0.61411583956E+01  0.25500000000E-02 0. -1.
    5000001    1    1    2    0    0  0.82402270685E+02 -0.26402068248E+02  0.13616809980E+04  0.13665984573E+04  0.77000000000E+02 0.  0.
   -5000001    1    1    2    0    0 -0.82402270685E+02  0.26402068248E+02  0.90714337918E+03  0.91450823605E+03  0.77000000000E+02 0.  0.
<mgrwt>
<rscale>  0 0.23639732E+03</rscale>
<asrwt>0</asrwt>
<pdfrwt beam="1">  1        2 0.32499534E+00 0.23639732E+03</pdfrwt>
<pdfrwt beam="2">  1       -2 0.87730759E-03 0.23639732E+03</pdfrwt>
<totfact> 0.16640982E+04</totfact>
</mgrwt>
</event>
<event>
 4    1  0.6782240E-004  0.2869153E+03  0.7818608E-02  0.1091971E+00
         -2   -1    0    0    0  501 -0.00000000000E+00  0.00000000000E+00  0.18189495557E+02  0.18189495736E+02  0.25500000000E-02 0. -1.
          2   -1    0    0  501    0  0.00000000000E+00 -0.00000000000E+00 -0.11314276710E+04  0.11314276710E+04  0.25500000000E-02 0.  1.
    5000001    1    1    2    0    0 -0.29686248125E+02 -0.11729676767E+03 -0.57008441703E+03  0.58784780987E+03  0.77000000000E+02 0.  0.
   -5000001    1    1    2    0    0  0.29686248125E+02  0.11729676767E+03 -0.54315375846E+03  0.56176935691E+03  0.77000000000E+02 0.  0.
<mgrwt>
<rscale>  0 0.28691531E+03</rscale>
<asrwt>0</asrwt>
<pdfrwt beam="1">  1        2 0.16163248E+00 0.28691531E+03</pdfrwt>
<pdfrwt beam="2">  1       -2 0.25985001E-02 0.28691531E+03</pdfrwt>
<totfact> 0.12827111E+04</totfact>
</mgrwt>
</event>
<event>
 4    1  0.6782240E-004  0.2155584E+03  0.7818608E-02  0.1137238E+00
          2   -1    0    0  501    0  0.00000000000E+00  0.00000000000E+00  0.43225819455E+02  0.43225819531E+02  0.25500000000E-02 0.  1.
         -2   -1    0    0    0  501 -0.00000000000E+00 -0.00000000000E+00 -0.26873644376E+03  0.26873644377E+03  0.25500000000E-02 0. -1.
    5000001    1    1    2    0    0 -0.18203737074E+02  0.50449614617E+02 -0.18948318711E+03  0.21144601641E+03  0.77000000000E+02 0.  0.
   -5000001    1    1    2    0    0  0.18203737074E+02 -0.50449614617E+02 -0.36027437194E+02  0.10051624689E+03  0.77000000000E+02 0.  0.
<mgrwt>
<rscale>  0 0.21555837E+03</rscale>
<asrwt>0</asrwt>
<pdfrwt beam="1">  1        2 0.61751172E-02 0.21555837E+03</pdfrwt>
<pdfrwt beam="2">  1       -2 0.38390920E-01 0.21555837E+03</pdfrwt>
<totfact> 0.74931639E+03</totfact>
</mgrwt>
</event>
<event>
 4    1  0.6782240E-004  0.4749324E+03  0.7818608E-02  0.1020537E+00
          2   -1    0    0  501    0  0.00000000000E+00  0.00000000000E+00  0.37519922019E+04  0.37519922019E+04  0.25500000000E-02 0.  1.
         -2   -1    0    0    0  501 -0.00000000000E+00 -0.00000000000E+00 -0.15029399448E+02  0.15029399664E+02  0.25500000000E-02 0. -1.
    5000001    1    1    2    0    0 -0.12639998657E+03 -0.18565603277E+03  0.18366844510E+04  0.18519675730E+04  0.77000000000E+02 0.  0.
   -5000001    1    1    2    0    0  0.12639998657E+03  0.18565603277E+03  0.19002783515E+04  0.19150540285E+04  0.77000000000E+02 0.  0.
<mgrwt>
<rscale>  0 0.47493237E+03</rscale>
<asrwt>0</asrwt>
<pdfrwt beam="1">  1        2 0.53599947E+00 0.47493237E+03</pdfrwt>
<pdfrwt beam="2">  1       -2 0.21470548E-02 0.47493237E+03</pdfrwt>
<totfact> 0.69729938E+02</totfact>
</mgrwt>
</event>
<event>
 4    1  0.6782240E-004  0.4853728E+03  0.7818608E-02  0.1017669E+00
          2   -1    0    0  501    0  0.00000000000E+00  0.00000000000E+00  0.23251940656E+03  0.23251940657E+03  0.25500000000E-02 0.  1.
         -2   -1    0    0    0  501 -0.00000000000E+00 -0.00000000000E+00 -0.25329795202E+03  0.25329795204E+03  0.25500000000E-02 0. -1.
    5000001    1    1    2    0    0 -0.15737664423E+03  0.10706305191E+03 -0.13988235654E+03  0.24844713503E+03  0.77000000000E+02 0.  0.
   -5000001    1    1    2    0    0  0.15737664423E+03 -0.10706305191E+03  0.11910381108E+03  0.23737022358E+03  0.77000000000E+02 0.  0.
<mgrwt>
<rscale>  0 0.48537280E+03</rscale>
<asrwt>0</asrwt>
<pdfrwt beam="1">  1        2 0.33217058E-01 0.48537280E+03</pdfrwt>
<pdfrwt beam="2">  1       -2 0.36185421E-01 0.48537280E+03</pdfrwt>
<totfact> 0.11393971E+03</totfact>
</mgrwt>
</event>
<event>
 4    1  0.6782240E-004  0.3008334E+03  0.7818608E-02  0.1084825E+00
          2   -1    0    0  501    0  0.00000000000E+00  0.00000000000E+00  0.16559113577E+04  0.16559113577E+04  0.25500000000E-02 0.  1.
         -2   -1    0    0    0  501 -0.00000000000E+00 -0.00000000000E+00 -0.13663279265E+02  0.13663279502E+02  0.25500000000E-02 0. -1.
    5000001    1    1    2    0    0  0.66241267656E+02  0.10980592806E+03  0.90903802498E+03  0.92126238295E+03  0.77000000000E+02 0.  0.
   -5000001    1    1    2    0    0 -0.66241267656E+02 -0.10980592806E+03  0.73321005343E+03  0.74831225423E+03  0.77000000000E+02 0.  0.
<mgrwt>
<rscale>  0 0.30083337E+03</rscale>
<asrwt>0</asrwt>
<pdfrwt beam="1">  1        2 0.23655889E+00 0.30083337E+03</pdfrwt>
<pdfrwt beam="2">  1       -2 0.19518961E-02 0.30083337E+03</pdfrwt>
<totfact> 0.10462978E+04</totfact>
</mgrwt>
</event>
<event>
 4    1  0.6782240E-004  0.2766537E+03  0.7818608E-02  0.1097531E+00
         -2   -1    0    0    0  501 -0.00000000000E+00  0.00000000000E+00  0.35592947879E+02  0.35592947970E+02  0.25500000000E-02 0. -1.
          2   -1    0    0  501    0  0.00000000000E+00 -0.00000000000E+00 -0.53758729831E+03  0.53758729831E+03  0.25500000000E-02 0.  1.
    5000001    1    1    2    0    0 -0.11368213882E+03  0.15867483299E+02 -0.26232822730E+03  0.29651391966E+03  0.77000000000E+02 0.  0.
   -5000001    1    1    2    0    0  0.11368213882E+03 -0.15867483299E+02 -0.23966612313E+03  0.27666632662E+03  0.77000000000E+02 0.  0.
<mgrwt>
<rscale>  0 0.27665369E+03</rscale>
<asrwt>0</asrwt>
<pdfrwt beam="1">  1        2 0.76798181E-01 0.27665369E+03</pdfrwt>
<pdfrwt beam="2">  1       -2 0.50847072E-02 0.27665369E+03</pdfrwt>
<totfact> 0.11835756E+04</totfact>
</mgrwt>
</event>
<event>
 4    1  0.6782240E-004  0.2026704E+03  0.7818608E-02  0.1147505E+00
         -2   -1    0    0    0  501 -0.00000000000E+00  0.00000000000E+00  0.92143198233E+01  0.92143201762E+01  0.25500000000E-02 0. -1.
          2   -1    0    0  501    0  0.00000000000E+00 -0.00000000000E+00 -0.11144422828E+04  0.11144422828E+04  0.25500000000E-02 0.  1.
    5000001    1    1    2    0    0  0.59533263136E+02  0.28108790726E+02 -0.53959467966E+03  0.54902252400E+03  0.77000000000E+02 0.  0.
   -5000001    1    1    2    0    0 -0.59533263136E+02 -0.28108790726E+02 -0.56563328336E+03  0.57463407903E+03  0.77000000000E+02 0.  0.
<mgrwt>
<rscale>  0 0.20267045E+03</rscale>
<asrwt>0</asrwt>
<pdfrwt beam="1">  1        2 0.15920595E+00 0.20267045E+03</pdfrwt>
<pdfrwt beam="2">  1       -2 0.13163321E-02 0.20267045E+03</pdfrwt>
<totfact> 0.34893451E+04</totfact>
</mgrwt>
</event>
<event>
 4    1  0.6782240E-004  0.2867852E+03  0.7818608E-02  0.1092040E+00
          2   -1    0    0  501    0  0.00000000000E+00  0.00000000000E+00  0.24490966074E+04  0.24490966074E+04  0.25500000000E-02 0.  1.
         -2   -1    0    0    0  501 -0.00000000000E+00 -0.00000000000E+00 -0.83955206866E+01  0.83955210738E+01  0.25500000000E-02 0. -1.
    5000001    1    1    2    0    0  0.12075870668E+03  0.61337822979E+01  0.12502236497E+04  0.12584150599E+04  0.77000000000E+02 0.  0.
   -5000001    1    1    2    0    0 -0.12075870668E+03 -0.61337822979E+01  0.11904774370E+04  0.11990770686E+04  0.77000000000E+02 0.  0.
<mgrwt>
<rscale>  0 0.28678523E+03</rscale>
<asrwt>0</asrwt>
<pdfrwt beam="1">  1        2 0.34987093E+00 0.28678523E+03</pdfrwt>
<pdfrwt beam="2">  1       -2 0.11993602E-02 0.28678523E+03</pdfrwt>
<totfact> 0.87002659E+03</totfact>
</mgrwt>
</event>
<event>
 4    1  0.6782240E-004  0.1912679E+03  0.7818608E-02  0.1157323E+00
          2   -1    0    0  501    0  0.00000000000E+00  0.00000000000E+00  0.78800996643E+03  0.78800996644E+03  0.25500000000E-02 0.  1.
         -2   -1    0    0    0  501 -0.00000000000E+00 -0.00000000000E+00 -0.11606263352E+02  0.11606263632E+02  0.25500000000E-02 0. -1.
    5000001    1    1    2    0    0  0.47498968642E+02  0.30979502266E+02  0.38408501203E+03  0.39581078567E+03  0.77000000000E+02 0.  0.
   -5000001    1    1    2    0    0 -0.47498968642E+02 -0.30979502266E+02  0.39231869105E+03  0.40380544440E+03  0.77000000000E+02 0.  0.
<mgrwt>
<rscale>  0 0.19126789E+03</rscale>
<asrwt>0</asrwt>
<pdfrwt beam="1">  1        2 0.11257285E+00 0.19126789E+03</pdfrwt>
<pdfrwt beam="2">  1       -2 0.16580378E-02 0.19126789E+03</pdfrwt>
<totfact> 0.39131545E+04</totfact>
</mgrwt>
</event>
<event>
 4    1  0.6782240E-004  0.3672882E+03  0.7818608E-02  0.1055735E+00
          2   -1    0    0  501    0  0.00000000000E+00  0.00000000000E+00  0.13266281350E+03  0.13266281353E+03  0.25500000000E-02 0.  1.
         -2   -1    0    0    0  501 -0.00000000000E+00 -0.00000000000E+00 -0.25421705421E+03  0.25421705422E+03  0.25500000000E-02 0. -1.
    5000001    1    1    2    0    0  0.11140750066E+03 -0.36375374738E+02  0.64128709826E+02  0.15419562417E+03  0.77000000000E+02 0.  0.
   -5000001    1    1    2    0    0 -0.11140750066E+03  0.36375374738E+02 -0.18568295053E+03  0.23268424357E+03  0.77000000000E+02 0.  0.
<mgrwt>
<rscale>  0 0.36728817E+03</rscale>
<asrwt>0</asrwt>
<pdfrwt beam="1">  1        2 0.18951831E-01 0.36728817E+03</pdfrwt>
<pdfrwt beam="2">  1       -2 0.36316722E-01 0.36728817E+03</pdfrwt>
<totfact> 0.21310481E+03</totfact>
</mgrwt>
</event>
<event>
 4    1  0.6782240E-004  0.3861236E+03  0.7818608E-02  0.1048693E+00
          2   -1    0    0  501    0  0.00000000000E+00  0.00000000000E+00  0.25429088610E+04  0.25429088610E+04  0.25500000000E-02 0.  1.
         -2   -1    0    0    0  501 -0.00000000000E+00 -0.00000000000E+00 -0.14657570567E+02  0.14657570789E+02  0.25500000000E-02 0. -1.
    5000001    1    1    2    0    0  0.14743738752E+03  0.88240289513E+02  0.98156964294E+03  0.99946590531E+03  0.77000000000E+02 0.  0.
   -5000001    1    1    2    0    0 -0.14743738752E+03 -0.88240289513E+02  0.15466816475E+04  0.15581005264E+04  0.77000000000E+02 0.  0.
<mgrwt>
<rscale>  0 0.38612364E+03</rscale>
<asrwt>0</asrwt>
<pdfrwt beam="1">  1        2 0.36327249E+00 0.38612364E+03</pdfrwt>
<pdfrwt beam="2">  1       -2 0.20939399E-02 0.38612364E+03</pdfrwt>
<totfact> 0.34285821E+03</totfact>
</mgrwt>
</event>
<event>
 4    1  0.6782240E-004  0.1866435E+03  0.7818608E-02  0.1161524E+00
         -2   -1    0    0    0  501 -0.00000000000E+00  0.00000000000E+00  0.75045983150E+01  0.75045987482E+01  0.25500000000E-02 0. -1.
          2   -1    0    0  501    0  0.00000000000E+00 -0.00000000000E+00 -0.11604818046E+04  0.11604818046E+04  0.25500000000E-02 0.  1.
    5000001    1    1    2    0    0 -0.40302209475E+02 -0.27508022875E+00 -0.36375806409E+03  0.37399635419E+03  0.77000000000E+02 0.  0.
   -5000001    1    1    2    0    0  0.40302209475E+02  0.27508022875E+00 -0.78921914217E+03  0.79399004914E+03  0.77000000000E+02 0.  0.
<mgrwt>
<rscale>  0 0.18664351E+03</rscale>
<asrwt>0</asrwt>
<pdfrwt beam="1">  1        2 0.16578300E+00 0.18664351E+03</pdfrwt>
<pdfrwt beam="2">  1       -2 0.10720862E-02 0.18664351E+03</pdfrwt>
<totfact> 0.44025475E+04</totfact>
</mgrwt>
</event>
<event>
 4    1  0.6782240E-004  0.2722128E+03  0.7818608E-02  0.1100020E+00
         -2   -1    0    0    0  501 -0.00000000000E+00  0.00000000000E+00  0.20792347975E+03  0.20792347977E+03  0.25500000000E-02 0. -1.
          2   -1    0    0  501    0  0.00000000000E+00 -0.00000000000E+00 -0.89095074204E+02  0.89095074241E+02  0.25500000000E-02 0.  1.
    5000001    1    1    2    0    0  0.52035363024E+02 -0.86998371919E+02  0.11196483865E+03  0.16953324398E+03  0.77000000000E+02 0.  0.
   -5000001    1    1    2    0    0 -0.52035363024E+02  0.86998371919E+02  0.68635668963E+01  0.12748531002E+03  0.77000000000E+02 0.  0.
<mgrwt>
<rscale>  0 0.27221284E+03</rscale>
<asrwt>0</asrwt>
<pdfrwt beam="1">  1        2 0.12727868E-01 0.27221284E+03</pdfrwt>
<pdfrwt beam="2">  1       -2 0.29703354E-01 0.27221284E+03</pdfrwt>
<totfact> 0.49162950E+03</totfact>
</mgrwt>
</event>
<event>
 4    1  0.6782240E-004  0.1776387E+03  0.7818608E-02  0.1170108E+00
         -2   -1    0    0    0  501 -0.00000000000E+00  0.00000000000E+00  0.10854137682E+02  0.10854137982E+02  0.25500000000E-02 0. -1.
          2   -1    0    0  501    0  0.00000000000E+00 -0.00000000000E+00 -0.72680804409E+03  0.72680804409E+03  0.25500000000E-02 0.  1.
    5000001    1    1    2    0    0 -0.77629706633E+01 -0.43575024492E+02 -0.35419781831E+03  0.36516317033E+03  0.77000000000E+02 0.  0.
   -5000001    1    1    2    0    0  0.77629706633E+01  0.43575024492E+02 -0.36175608810E+03  0.37249901174E+03  0.77000000000E+02 0.  0.
<mgrwt>
<rscale>  0 0.17763867E+03</rscale>
<asrwt>0</asrwt>
<pdfrwt beam="1">  1        2 0.10382969E+00 0.17763867E+03</pdfrwt>
<pdfrwt beam="2">  1       -2 0.15505916E-02 0.17763867E+03</pdfrwt>
<totfact> 0.47226794E+04</totfact>
</mgrwt>
</event>
<event>
 4    1  0.6782240E-004  0.1772259E+03  0.7818608E-02  0.1170515E+00
          2   -1    0    0  501    0  0.00000000000E+00  0.00000000000E+00  0.25260180156E+04  0.25260180156E+04  0.25500000000E-02 0. -1.
         -2   -1    0    0    0  501 -0.00000000000E+00 -0.00000000000E+00 -0.31085497475E+01  0.31085507934E+01  0.25500000000E-02 0.  1.
    5000001    1    1    2    0    0  0.40632337994E+02 -0.11305403086E+02  0.10899367635E+04  0.10934669394E+04  0.77000000000E+02 0.  0.
   -5000001    1    1    2    0    0 -0.40632337994E+02  0.11305403086E+02  0.14329727024E+04  0.14356596271E+04  0.77000000000E+02 0.  0.
<mgrwt>
<rscale>  0 0.17722589E+03</rscale>
<asrwt>0</asrwt>
<pdfrwt beam="1">  1        2 0.36086187E+00 0.17722589E+03</pdfrwt>
<pdfrwt beam="2">  1       -2 0.44407597E-03 0.17722589E+03</pdfrwt>
<totfact> 0.32918400E+04</totfact>
</mgrwt>
</event>
<event>
 4    1  0.6782240E-004  0.2339191E+03  0.7818608E-02  0.1123911E+00
         -2   -1    0    0    0  501 -0.00000000000E+00  0.00000000000E+00  0.11228618921E+03  0.11228618924E+03  0.25500000000E-02 0. -1.
          2   -1    0    0  501    0  0.00000000000E+00 -0.00000000000E+00 -0.12182741626E+03  0.12182741628E+03  0.25500000000E-02 0.  1.
    5000001    1    1    2    0    0  0.65978749049E+02  0.40216332710E+02 -0.46995593766E+02  0.11877766868E+03  0.77000000000E+02 0.  0.
   -5000001    1    1    2    0    0 -0.65978749049E+02 -0.40216332710E+02  0.37454366720E+02  0.11533593685E+03  0.77000000000E+02 0.  0.
<mgrwt>
<rscale>  0 0.23391910E+03</rscale>
<asrwt>0</asrwt>
<pdfrwt beam="1">  1        2 0.17403917E-01 0.23391910E+03</pdfrwt>
<pdfrwt beam="2">  1       -2 0.16040884E-01 0.23391910E+03</pdfrwt>
<totfact> 0.97902969E+03</totfact>
</mgrwt>
</event>
<event>
 4    1  0.6782240E-004  0.1579976E+03  0.7818608E-02  0.1190976E+00
         -2   -1    0    0    0  501 -0.00000000000E+00  0.00000000000E+00  0.66093658144E+03  0.66093658144E+03  0.25500000000E-02 0. -1.
          2   -1    0    0  501    0  0.00000000000E+00 -0.00000000000E+00 -0.94423767603E+01  0.94423771046E+01  0.25500000000E-02 0.  1.
    5000001    1    1    2    0    0 -0.18204354418E+01  0.17351656243E+02  0.33730354536E+03  0.34642037422E+03  0.77000000000E+02 0.  0.
   -5000001    1    1    2    0    0  0.18204354418E+01 -0.17351656243E+02  0.31419065932E+03  0.32395858433E+03  0.77000000000E+02 0.  0.
<mgrwt>
<rscale>  0 0.15799762E+03</rscale>
<asrwt>0</asrwt>
<pdfrwt beam="1">  1        2 0.13489106E-02 0.15799762E+03</pdfrwt>
<pdfrwt beam="2">  1       -2 0.94419537E-01 0.15799762E+03</pdfrwt>
<totfact> 0.88410344E+03</totfact>
</mgrwt>
</event>
<event>
 4    1  0.6782240E-004  0.3957285E+03  0.7818608E-02  0.1045269E+00
          2   -1    0    0  501    0  0.00000000000E+00  0.00000000000E+00  0.71359545048E+03  0.71359545048E+03  0.25500000000E-02 0.  1.
         -2   -1    0    0    0  501 -0.00000000000E+00 -0.00000000000E+00 -0.54863394319E+02  0.54863394379E+02  0.25500000000E-02 0. -1.
    5000001    1    1    2    0    0 -0.28923428352E+02  0.12641347393E+03  0.80650676108E+02  0.17102766635E+03  0.77000000000E+02 0.  0.
   -5000001    1    1    2    0    0  0.28923428352E+02 -0.12641347393E+03  0.57808138005E+03  0.59743117852E+03  0.77000000000E+02 0.  0.
<mgrwt>
<rscale>  0 0.39572854E+03</rscale>
<asrwt>0</asrwt>
<pdfrwt beam="1">  1        2 0.10194220E+00 0.39572854E+03</pdfrwt>
<pdfrwt beam="2">  1       -2 0.78376283E-02 0.39572854E+03</pdfrwt>
<totfact> 0.44079220E+03</totfact>
</mgrwt>
</event>
<event>
 4    1  0.6782240E-004  0.1764273E+03  0.7818608E-02  0.1171306E+00
         -2   -1    0    0    0  501 -0.00000000000E+00  0.00000000000E+00  0.60225524698E+01  0.60225530097E+01  0.25500000000E-02 0. -1.
          2   -1    0    0  501    0  0.00000000000E+00 -0.00000000000E+00 -0.12920841018E+04  0.12920841018E+04  0.25500000000E-02 0.  1.
    5000001    1    1    2    0    0 -0.31541179689E+02  0.18751249372E+02 -0.47749145895E+03  0.48505004767E+03  0.77000000000E+02 0.  0.
   -5000001    1    1    2    0    0  0.31541179689E+02 -0.18751249372E+02 -0.80857009040E+03  0.81305660717E+03  0.77000000000E+02 0.  0.
<mgrwt>
<rscale>  0 0.17642726E+03</rscale>
<asrwt>0</asrwt>
<pdfrwt beam="1">  1        2 0.18458327E+00 0.17642726E+03</pdfrwt>
<pdfrwt beam="2">  1       -2 0.86036550E-03 0.17642726E+03</pdfrwt>
<totfact> 0.51210190E+04</totfact>
</mgrwt>
</event>
<event>
 4    1  0.6782240E-004  0.3837810E+03  0.7818608E-02  0.1049545E+00
         -2   -1    0    0    0  501 -0.00000000000E+00  0.00000000000E+00  0.58524751745E+02  0.58524751800E+02  0.25500000000E-02 0. -1.
          2   -1    0    0  501    0  0.00000000000E+00 -0.00000000000E+00 -0.62916903634E+03  0.62916903635E+03  0.25500000000E-02 0.  1.
    5000001    1    1    2    0    0  0.16032677051E+03 -0.65244506785E+02 -0.34000984869E+03  0.38922643309E+03  0.77000000000E+02 0.  0.
   -5000001    1    1    2    0    0 -0.16032677051E+03  0.65244506785E+02 -0.23063443591E+03  0.29846735506E+03  0.77000000000E+02 0.  0.
<mgrwt>
<rscale>  0 0.38378099E+03</rscale>
<asrwt>0</asrwt>
<pdfrwt beam="1">  1        2 0.89881287E-01 0.38378099E+03</pdfrwt>
<pdfrwt beam="2">  1       -2 0.83606792E-02 0.38378099E+03</pdfrwt>
<totfact> 0.46213802E+03</totfact>
</mgrwt>
</event>
<event>
 4    1  0.6782240E-004  0.5763644E+03  0.7818608E-02  0.9955693E-01
          2   -1    0    0  501    0  0.00000000000E+00  0.00000000000E+00  0.20426357819E+04  0.20426357819E+04  0.25500000000E-02 0.  1.
         -2   -1    0    0    0  501 -0.00000000000E+00 -0.00000000000E+00 -0.40657751743E+02  0.40657751823E+02  0.25500000000E-02 0. -1.
    5000001    1    1    2    0    0 -0.61133150138E+02 -0.14457042270E+03  0.17293443491E+03  0.24591296823E+03  0.77000000000E+02 0.  0.
   -5000001    1    1    2    0    0  0.61133150138E+02  0.14457042270E+03  0.18290435953E+04  0.18373805655E+04  0.77000000000E+02 0.  0.
<mgrwt>
<rscale>  0 0.57636439E+03</rscale>
<asrwt>0</asrwt>
<pdfrwt beam="1">  1        2 0.29180505E+00 0.57636439E+03</pdfrwt>
<pdfrwt beam="2">  1       -2 0.58082514E-02 0.57636439E+03</pdfrwt>
<totfact> 0.12831417E+03</totfact>
</mgrwt>
</event>
<event>
 4    1  0.6782240E-004  0.2438839E+03  0.7818608E-02  0.1117232E+00
         -2   -1    0    0    0  501 -0.00000000000E+00  0.00000000000E+00  0.13801805794E+02  0.13801806029E+02  0.25500000000E-02 0. -1.
          2   -1    0    0  501    0  0.00000000000E+00 -0.00000000000E+00 -0.10773833550E+04  0.10773833550E+04  0.25500000000E-02 0.  1.
    5000001    1    1    2    0    0  0.76290280627E+02 -0.52016315145E+02 -0.62292968502E+03  0.63442595820E+03  0.77000000000E+02 0.  0.
   -5000001    1    1    2    0    0 -0.76290280627E+02  0.52016315145E+02 -0.44065186414E+03  0.45675920279E+03  0.77000000000E+02 0.  0.
<mgrwt>
<rscale>  0 0.24388387E+03</rscale>
<asrwt>0</asrwt>
<pdfrwt beam="1">  1        2 0.15391185E+00 0.24388387E+03</pdfrwt>
<pdfrwt beam="2">  1       -2 0.19716872E-02 0.24388387E+03</pdfrwt>
<totfact> 0.20532645E+04</totfact>
</mgrwt>
</event>
<event>
 4    1  0.6782240E-004  0.1818885E+03  0.7818608E-02  0.1165988E+00
          2   -1    0    0  501    0  0.00000000000E+00  0.00000000000E+00  0.20210434013E+04  0.20210434013E+04  0.25500000000E-02 0.  1.
         -2   -1    0    0    0  501 -0.00000000000E+00 -0.00000000000E+00 -0.40923671764E+01  0.40923679709E+01  0.25500000000E-02 0. -1.
    5000001    1    1    2    0    0  0.46638191477E+02 -0.52827690465E+01  0.11396596110E+04  0.11432217884E+04  0.77000000000E+02 0.  0.
   -5000001    1    1    2    0    0 -0.46638191477E+02  0.52827690465E+01  0.87729142315E+03  0.88191398089E+03  0.77000000000E+02 0.  0.
<mgrwt>
<rscale>  0 0.18188845E+03</rscale>
<asrwt>0</asrwt>
<pdfrwt beam="1">  1        2 0.28872045E+00 0.18188845E+03</pdfrwt>
<pdfrwt beam="2">  1       -2 0.58462401E-03 0.18188845E+03</pdfrwt>
<totfact> 0.39117898E+04</totfact>
</mgrwt>
</event>
<event>
 4    1  0.6782240E-004  0.4716176E+03  0.7818608E-02  0.1021465E+00
          2   -1    0    0  501    0  0.00000000000E+00  0.00000000000E+00  0.70000000829E+03  0.70000000829E+03  0.25500000000E-02 0.  1.
         -2   -1    0    0    0  501 -0.00000000000E+00 -0.00000000000E+00 -0.79436828719E+02  0.79436828760E+02  0.25500000000E-02 0. -1.
    5000001    1    1    2    0    0  0.55584442299E+02 -0.11770860991E+03  0.60928499061E+03  0.62777555452E+03  0.77000000000E+02 0.  0.
   -5000001    1    1    2    0    0 -0.55584442299E+02  0.11770860991E+03  0.11278188957E+02  0.15166128253E+03  0.77000000000E+02 0.  0.
<mgrwt>
<rscale>  0 0.47161756E+03</rscale>
<asrwt>0</asrwt>
<pdfrwt beam="1">  1        2 0.10000000E+00 0.47161756E+03</pdfrwt>
<pdfrwt beam="2">  1       -2 0.11348118E-01 0.47161756E+03</pdfrwt>
<totfact> 0.24996485E+03</totfact>
</mgrwt>
</event>
<event>
 4    1  0.6782240E-004  0.1289945E+04  0.7818608E-02  0.9037577E-01
         -2   -1    0    0    0  501 -0.00000000000E+00  0.00000000000E+00  0.28579412332E+03  0.28579412334E+03  0.25500000000E-02 0. -1.
          2   -1    0    0  501    0  0.00000000000E+00 -0.00000000000E+00 -0.14555569976E+04  0.14555569976E+04  0.25500000000E-02 0.  1.
    5000001    1    1    2    0    0 -0.75010721020E+02  0.58120993146E+03 -0.23642628698E+03  0.63659876050E+03  0.77000000000E+02 0.  0.
   -5000001    1    1    2    0    0  0.75010721020E+02 -0.58120993146E+03 -0.93333658730E+03  0.11047523604E+04  0.77000000000E+02 0.  0.
<mgrwt>
<rscale>  0 0.12899452E+04</rscale>
<asrwt>0</asrwt>
<pdfrwt beam="1">  1        2 0.20793671E+00 0.12899452E+04</pdfrwt>
<pdfrwt beam="2">  1       -2 0.40827733E-01 0.12899452E+04</pdfrwt>
<totfact> 0.86031175E+01</totfact>
</mgrwt>
</event>
<event>
 4    1  0.6782240E-004  0.4977266E+03  0.7818608E-02  0.1014374E+00
          2   -1    0    0  501    0  0.00000000000E+00  0.00000000000E+00  0.25029740323E+03  0.25029740324E+03  0.25500000000E-02 0.  1.
         -2   -1    0    0    0  501 -0.00000000000E+00 -0.00000000000E+00 -0.24743738185E+03  0.24743738186E+03  0.25500000000E-02 0. -1.
    5000001    1    1    2    0    0 -0.26270165025E+02 -0.23438182461E+03 -0.18037536206E+02  0.24875553057E+03  0.77000000000E+02 0.  0.
   -5000001    1    1    2    0    0  0.26270165025E+02  0.23438182461E+03  0.20897557588E+02  0.24897925454E+03  0.77000000000E+02 0.  0.
<mgrwt>
<rscale>  0 0.49772657E+03</rscale>
<asrwt>0</asrwt>
<pdfrwt beam="1">  1        2 0.35756772E-01 0.49772657E+03</pdfrwt>
<pdfrwt beam="2">  1       -2 0.35348197E-01 0.49772657E+03</pdfrwt>
<totfact> 0.10978319E+03</totfact>
</mgrwt>
</event>
<event>
 4    1  0.6782240E-004  0.2459621E+03  0.7818608E-02  0.1115884E+00
          2   -1    0    0  501    0  0.00000000000E+00  0.00000000000E+00  0.34566247591E+02  0.34566247685E+02  0.25500000000E-02 0.  1.
         -2   -1    0    0    0  501 -0.00000000000E+00 -0.00000000000E+00 -0.43754633178E+03  0.43754633179E+03  0.25500000000E-02 0. -1.
    5000001    1    1    2    0    0 -0.33562212379E+02 -0.89209285531E+02 -0.18130234980E+03  0.21882472613E+03  0.77000000000E+02 0.  0.
   -5000001    1    1    2    0    0  0.33562212379E+02  0.89209285531E+02 -0.22167773439E+03  0.25328785334E+03  0.77000000000E+02 0.  0.
<mgrwt>
<rscale>  0 0.24596207E+03</rscale>
<asrwt>0</asrwt>
<pdfrwt beam="1">  1        2 0.49380356E-02 0.24596207E+03</pdfrwt>
<pdfrwt beam="2">  1       -2 0.62506615E-01 0.24596207E+03</pdfrwt>
<totfact> 0.38429857E+03</totfact>
</mgrwt>
</event>
<event>
 4    1  0.6782240E-004  0.1725770E+03  0.7818608E-02  0.1175187E+00
         -2   -1    0    0    0  501 -0.00000000000E+00  0.00000000000E+00  0.44431926256E+01  0.44431933573E+01  0.25500000000E-02 0. -1.
          2   -1    0    0  501    0  0.00000000000E+00 -0.00000000000E+00 -0.16757559632E+04  0.16757559632E+04  0.25500000000E-02 0.  1.
    5000001    1    1    2    0    0 -0.32346239151E+02 -0.18665271143E+02 -0.72810373976E+03  0.73311576670E+03  0.77000000000E+02 0.  0.
   -5000001    1    1    2    0    0  0.32346239151E+02  0.18665271143E+02 -0.94320903078E+03  0.94708338983E+03  0.77000000000E+02 0.  0.
<mgrwt>
<rscale>  0 0.17257702E+03</rscale>
<asrwt>0</asrwt>
<pdfrwt beam="1">  1        2 0.23939330E+00 0.17257702E+03</pdfrwt>
<pdfrwt beam="2">  1       -2 0.63474293E-03 0.17257702E+03</pdfrwt>
<totfact> 0.50824320E+04</totfact>
</mgrwt>
</event>
<event>
 4    1  0.6782240E-004  0.2121856E+03  0.7818608E-02  0.1139847E+00
         -2   -1    0    0    0  501 -0.00000000000E+00  0.00000000000E+00  0.22789209590E+03  0.22789209592E+03  0.25500000000E-02 0. -1.
          2   -1    0    0  501    0  0.00000000000E+00 -0.00000000000E+00 -0.49390384672E+02  0.49390384738E+02  0.25500000000E-02 0.  1.
    5000001    1    1    2    0    0 -0.17367615433E+02  0.66879339762E+02  0.58542676264E+02  0.11887272646E+03  0.77000000000E+02 0.  0.
   -5000001    1    1    2    0    0  0.17367615433E+02 -0.66879339762E+02  0.11995903497E+03  0.15840975419E+03  0.77000000000E+02 0.  0.
<mgrwt>
<rscale>  0 0.21218556E+03</rscale>
<asrwt>0</asrwt>
<pdfrwt beam="1">  1        2 0.70557694E-02 0.21218556E+03</pdfrwt>
<pdfrwt beam="2">  1       -2 0.32556013E-01 0.21218556E+03</pdfrwt>
<totfact> 0.85689384E+03</totfact>
</mgrwt>
</event>
<event>
 4    1  0.6782240E-004  0.2476193E+03  0.7818608E-02  0.1114819E+00
          2   -1    0    0  501    0  0.00000000000E+00  0.00000000000E+00  0.93736480657E+03  0.93736480657E+03  0.25500000000E-02 0.  1.
         -2   -1    0    0    0  501 -0.00000000000E+00 -0.00000000000E+00 -0.16353106472E+02  0.16353106671E+02  0.25500000000E-02 0. -1.
    5000001    1    1    2    0    0 -0.63605835009E+02  0.10647850649E+02  0.73933110708E+03  0.74612235248E+03  0.77000000000E+02 0.  0.
   -5000001    1    1    2    0    0  0.63605835009E+02 -0.10647850649E+02  0.18168059302E+03  0.20759556077E+03  0.77000000000E+02 0.  0.
<mgrwt>
<rscale>  0 0.24761928E+03</rscale>
<asrwt>0</asrwt>
<pdfrwt beam="1">  1        2 0.13390925E+00 0.24761928E+03</pdfrwt>
<pdfrwt beam="2">  1       -2 0.23361582E-02 0.24761928E+03</pdfrwt>
<totfact> 0.19344635E+04</totfact>
</mgrwt>
</event>
<event>
 4    1  0.6782240E-004  0.2763346E+03  0.7818608E-02  0.1097708E+00
          2   -1    0    0  501    0  0.00000000000E+00  0.00000000000E+00  0.82888012989E+02  0.82888013028E+02  0.25500000000E-02 0.  1.
         -2   -1    0    0    0  501 -0.00000000000E+00 -0.00000000000E+00 -0.23031324664E+03  0.23031324665E+03  0.25500000000E-02 0. -1.
    5000001    1    1    2    0    0 -0.22364911740E+02 -0.68778428753E+02  0.27221903013E+02  0.10909029995E+03  0.77000000000E+02 0.  0.
   -5000001    1    1    2    0    0  0.22364911740E+02  0.68778428753E+02 -0.17464713666E+03  0.20411095973E+03  0.77000000000E+02 0.  0.
<mgrwt>
<rscale>  0 0.27633463E+03</rscale>
<asrwt>0</asrwt>
<pdfrwt beam="1">  1        2 0.11841145E-01 0.27633463E+03</pdfrwt>
<pdfrwt beam="2">  1       -2 0.32901892E-01 0.27633463E+03</pdfrwt>
<totfact> 0.44539032E+03</totfact>
</mgrwt>
</event>
<event>
 4    1  0.6782240E-004  0.4018624E+03  0.7818608E-02  0.1043137E+00
          2   -1    0    0  501    0  0.00000000000E+00  0.00000000000E+00  0.57249700529E+03  0.57249700529E+03  0.25500000000E-02 0.  1.
         -2   -1    0    0    0  501 -0.00000000000E+00 -0.00000000000E+00 -0.70521500525E+02  0.70521500571E+02  0.25500000000E-02 0. -1.
    5000001    1    1    2    0    0  0.14799782874E+03  0.19773632573E+02  0.42736157450E+03  0.45919632971E+03  0.77000000000E+02 0.  0.
   -5000001    1    1    2    0    0 -0.14799782874E+03 -0.19773632573E+02  0.74613930265E+02  0.18382217616E+03  0.77000000000E+02 0.  0.
<mgrwt>
<rscale>  0 0.40186240E+03</rscale>
<asrwt>0</asrwt>
<pdfrwt beam="1">  1        2 0.81785291E-01 0.40186240E+03</pdfrwt>
<pdfrwt beam="2">  1       -2 0.10074500E-01 0.40186240E+03</pdfrwt>
<totfact> 0.38336060E+03</totfact>
</mgrwt>
</event>
<event>
 4    1  0.6782240E-004  0.2357928E+03  0.7818608E-02  0.1122628E+00
         -2   -1    0    0    0  501 -0.00000000000E+00  0.00000000000E+00  0.51782850093E+01  0.51782856372E+01  0.25500000000E-02 0. -1.
          2   -1    0    0  501    0  0.00000000000E+00 -0.00000000000E+00 -0.26842023691E+04  0.26842023691E+04  0.25500000000E-02 0.  1.
    5000001    1    1    2    0    0  0.27609941381E+02  0.72851575917E+02 -0.18367930167E+04  0.18400563163E+04  0.77000000000E+02 0.  0.
   -5000001    1    1    2    0    0 -0.27609941381E+02 -0.72851575917E+02 -0.84223106737E+03  0.84932433841E+03  0.77000000000E+02 0.  0.
<mgrwt>
<rscale>  0 0.23579284E+03</rscale>
<asrwt>0</asrwt>
<pdfrwt beam="1">  1        2 0.38345659E+00 0.23579284E+03</pdfrwt>
<pdfrwt beam="2">  1       -2 0.73975676E-03 0.23579284E+03</pdfrwt>
<totfact> 0.13335301E+04</totfact>
</mgrwt>
</event>
<event>
 4    1  0.6782240E-004  0.2543918E+03  0.7818608E-02  0.1110560E+00
         -2   -1    0    0    0  501 -0.00000000000E+00  0.00000000000E+00  0.14727375984E+03  0.14727375986E+03  0.25500000000E-02 0. -1.
          2   -1    0    0  501    0  0.00000000000E+00 -0.00000000000E+00 -0.10985527473E+03  0.10985527476E+03  0.25500000000E-02 0.  1.
    5000001    1    1    2    0    0 -0.77977943975E+02  0.55981692223E+02 -0.13812883963E+02  0.12383176238E+03  0.77000000000E+02 0.  0.
   -5000001    1    1    2    0    0  0.77977943975E+02 -0.55981692223E+02  0.51231369072E+02  0.13329727224E+03  0.77000000000E+02 0.  0.
<mgrwt>
<rscale>  0 0.25439182E+03</rscale>
<asrwt>0</asrwt>
<pdfrwt beam="1">  1        2 0.15693611E-01 0.25439182E+03</pdfrwt>
<pdfrwt beam="2">  1       -2 0.21039108E-01 0.25439182E+03</pdfrwt>
<totfact> 0.70170507E+03</totfact>
</mgrwt>
</event>
<event>
 4    1  0.6782240E-004  0.3761740E+03  0.7818608E-02  0.1052357E+00
         -2   -1    0    0    0  501 -0.00000000000E+00  0.00000000000E+00  0.42140025734E+02  0.42140025811E+02  0.25500000000E-02 0. -1.
          2   -1    0    0  501    0  0.00000000000E+00 -0.00000000000E+00 -0.83950392632E+03  0.83950392632E+03  0.25500000000E-02 0.  1.
    5000001    1    1    2    0    0  0.16654979168E+03  0.20100335150E+02 -0.31402034144E+03  0.36425352630E+03  0.77000000000E+02 0.  0.
   -5000001    1    1    2    0    0 -0.16654979168E+03 -0.20100335150E+02 -0.48334355914E+03  0.51739042583E+03  0.77000000000E+02 0.  0.
<mgrwt>
<rscale>  0 0.37617399E+03</rscale>
<asrwt>0</asrwt>
<pdfrwt beam="1">  1        2 0.11992912E+00 0.37617399E+03</pdfrwt>
<pdfrwt beam="2">  1       -2 0.60200042E-02 0.37617399E+03</pdfrwt>
<totfact> 0.54330766E+03</totfact>
</mgrwt>
</event>
<event>
 4    1  0.6782240E-004  0.3114043E+03  0.7818608E-02  0.1079675E+00
          2   -1    0    0  501    0  0.00000000000E+00  0.00000000000E+00  0.80143031776E+03  0.80143031777E+03  0.25500000000E-02 0.  1.
         -2   -1    0    0    0  501 -0.00000000000E+00 -0.00000000000E+00 -0.30249868661E+02  0.30249868769E+02  0.25500000000E-02 0. -1.
    5000001    1    1    2    0    0  0.56905213746E+02  0.11701991174E+03  0.48488643973E+03  0.50791310529E+03  0.77000000000E+02 0.  0.
   -5000001    1    1    2    0    0 -0.56905213746E+02 -0.11701991174E+03  0.28629400937E+03  0.32376708124E+03  0.77000000000E+02 0.  0.
<mgrwt>
<rscale>  0 0.31140432E+03</rscale>
<asrwt>0</asrwt>
<pdfrwt beam="1">  1        2 0.11449001E+00 0.31140432E+03</pdfrwt>
<pdfrwt beam="2">  1       -2 0.43214111E-02 0.31140432E+03</pdfrwt>
<totfact> 0.95230278E+03</totfact>
</mgrwt>
</event>
<event>
 4    1  0.6782240E-004  0.1960674E+03  0.7818608E-02  0.1153100E+00
         -2   -1    0    0    0  501 -0.00000000000E+00  0.00000000000E+00  0.18532540525E+02  0.18532540701E+02  0.25500000000E-02 0. -1.
          2   -1    0    0  501    0  0.00000000000E+00 -0.00000000000E+00 -0.51857989761E+03  0.51857989762E+03  0.25500000000E-02 0.  1.
    5000001    1    1    2    0    0 -0.54919442613E+02 -0.63501448286E+01 -0.18153066392E+03  0.20478977382E+03  0.77000000000E+02 0.  0.
   -5000001    1    1    2    0    0  0.54919442613E+02  0.63501448286E+01 -0.31851669317E+03  0.33232266450E+03  0.77000000000E+02 0.  0.
<mgrwt>
<rscale>  0 0.19606737E+03</rscale>
<asrwt>0</asrwt>
<pdfrwt beam="1">  1        2 0.74082833E-01 0.19606737E+03</pdfrwt>
<pdfrwt beam="2">  1       -2 0.26475061E-02 0.19606737E+03</pdfrwt>
<totfact> 0.32011117E+04</totfact>
</mgrwt>
</event>
<event>
 4    1  0.6782240E-004  0.3656357E+03  0.7818608E-02  0.1056374E+00
          2   -1    0    0  501    0  0.00000000000E+00  0.00000000000E+00  0.11565604462E+04  0.11565604462E+04  0.25500000000E-02 0.  1.
         -2   -1    0    0    0  501 -0.00000000000E+00 -0.00000000000E+00 -0.28898074187E+02  0.28898074299E+02  0.25500000000E-02 0. -1.
    5000001    1    1    2    0    0 -0.12134703963E+03 -0.10848656437E+03  0.66630325052E+03  0.69020537547E+03  0.77000000000E+02 0.  0.
   -5000001    1    1    2    0    0  0.12134703963E+03  0.10848656437E+03  0.46135912148E+03  0.49525314501E+03  0.77000000000E+02 0.  0.
<mgrwt>
<rscale>  0 0.36563572E+03</rscale>
<asrwt>0</asrwt>
<pdfrwt beam="1">  1        2 0.16522290E+00 0.36563572E+03</pdfrwt>
<pdfrwt beam="2">  1       -2 0.41282970E-02 0.36563572E+03</pdfrwt>
<totfact> 0.62376295E+03</totfact>
</mgrwt>
</event>
<event>
 4    1  0.6782240E-004  0.3401341E+03  0.7818608E-02  0.1066739E+00
          2   -1    0    0  501    0  0.00000000000E+00  0.00000000000E+00  0.11730821874E+04  0.11730821874E+04  0.25500000000E-02 0.  1.
         -2   -1    0    0    0  501 -0.00000000000E+00 -0.00000000000E+00 -0.24655390507E+02  0.24655390639E+02  0.25500000000E-02 0. -1.
    5000001    1    1    2    0    0 -0.14962686629E+03 -0.24586611979E+02  0.57790480115E+03  0.60240821691E+03  0.77000000000E+02 0.  0.
   -5000001    1    1    2    0    0  0.14962686629E+03  0.24586611979E+02  0.57052199572E+03  0.59532936111E+03  0.77000000000E+02 0.  0.
<mgrwt>
<rscale>  0 0.34013409E+03</rscale>
<asrwt>0</asrwt>
<pdfrwt beam="1">  1        2 0.16758322E+00 0.34013409E+03</pdfrwt>
<pdfrwt beam="2">  1       -2 0.35221976E-02 0.34013409E+03</pdfrwt>
<totfact> 0.77546266E+03</totfact>
</mgrwt>
</event>
<event>
 4    1  0.6782240E-004  0.2014110E+03  0.7818608E-02  0.1148554E+00
         -2   -1    0    0    0  501 -0.00000000000E+00  0.00000000000E+00  0.39810774437E+02  0.39810774518E+02  0.25500000000E-02 0. -1.
          2   -1    0    0  501    0  0.00000000000E+00 -0.00000000000E+00 -0.25474496832E+03  0.25474496834E+03  0.25500000000E-02 0.  1.
    5000001    1    1    2    0    0 -0.55729578275E+02  0.31462375425E+02 -0.12328113414E+03  0.15881720624E+03  0.77000000000E+02 0.  0.
   -5000001    1    1    2    0    0  0.55729578275E+02 -0.31462375425E+02 -0.91653059747E+02  0.13573853662E+03  0.77000000000E+02 0.  0.
<mgrwt>
<rscale>  0 0.20141097E+03</rscale>
<asrwt>0</asrwt>
<pdfrwt beam="1">  1        2 0.36392137E-01 0.20141097E+03</pdfrwt>
<pdfrwt beam="2">  1       -2 0.56872536E-02 0.20141097E+03</pdfrwt>
<totfact> 0.21978367E+04</totfact>
</mgrwt>
</event>
<event>
 4    1  0.6782240E-004  0.2023093E+03  0.7818608E-02  0.1147805E+00
         -2   -1    0    0    0  501 -0.00000000000E+00  0.00000000000E+00  0.81578977946E+01  0.81578981931E+01  0.25500000000E-02 0. -1.
          2   -1    0    0  501    0  0.00000000000E+00 -0.00000000000E+00 -0.12542773572E+04  0.12542773572E+04  0.25500000000E-02 0.  1.
    5000001    1    1    2    0    0  0.62603772887E+02  0.71424251033E+01 -0.50918471904E+03  0.51881434514E+03  0.77000000000E+02 0.  0.
   -5000001    1    1    2    0    0 -0.62603772887E+02 -0.71424251033E+01 -0.73693474032E+03  0.74362091021E+03  0.77000000000E+02 0.  0.
<mgrwt>
<rscale>  0 0.20230933E+03</rscale>
<asrwt>0</asrwt>
<pdfrwt beam="1">  1        2 0.17918236E+00 0.20230933E+03</pdfrwt>
<pdfrwt beam="2">  1       -2 0.11654148E-02 0.20230933E+03</pdfrwt>
<totfact> 0.34970138E+04</totfact>
</mgrwt>
</event>
<event>
 4    1  0.6782240E-004  0.3325642E+03  0.7818608E-02  0.1070008E+00
          2   -1    0    0  501    0  0.00000000000E+00  0.00000000000E+00  0.39410418069E+04  0.39410418069E+04  0.25500000000E-02 0.  1.
         -2   -1    0    0    0  501 -0.00000000000E+00 -0.00000000000E+00 -0.70158460707E+01  0.70158465341E+01  0.25500000000E-02 0. -1.
    5000001    1    1    2    0    0 -0.12119203268E+03 -0.83842738980E+02  0.19443948412E+04  0.19514910741E+04  0.77000000000E+02 0.  0.
   -5000001    1    1    2    0    0  0.12119203268E+03  0.83842738980E+02  0.19896311196E+04  0.19965665793E+04  0.77000000000E+02 0.  0.
<mgrwt>
<rscale>  0 0.33256424E+03</rscale>
<asrwt>0</asrwt>
<pdfrwt beam="1">  1        2 0.56300556E+00 0.33256424E+03</pdfrwt>
<pdfrwt beam="2">  1       -2 0.10022645E-02 0.33256424E+03</pdfrwt>
<totfact> 0.16649482E+03</totfact>
</mgrwt>
</event>
<event>
 4    1  0.6782240E-004  0.2628154E+03  0.7818608E-02  0.1105463E+00
         -2   -1    0    0    0  501 -0.00000000000E+00  0.00000000000E+00  0.13776502686E+02  0.13776502922E+02  0.25500000000E-02 0. -1.
          2   -1    0    0  501    0  0.00000000000E+00 -0.00000000000E+00 -0.12534371089E+04  0.12534371089E+04  0.25500000000E-02 0.  1.
    5000001    1    1    2    0    0 -0.12167009565E+02 -0.90584809307E+02 -0.35638183374E+03  0.37588649246E+03  0.77000000000E+02 0.  0.
   -5000001    1    1    2    0    0  0.12167009565E+02  0.90584809307E+02 -0.88327877252E+03  0.89132711940E+03  0.77000000000E+02 0.  0.
<mgrwt>
<rscale>  0 0.26281537E+03</rscale>
<asrwt>0</asrwt>
<pdfrwt beam="1">  1        2 0.17906237E+00 0.26281537E+03</pdfrwt>
<pdfrwt beam="2">  1       -2 0.19680726E-02 0.26281537E+03</pdfrwt>
<totfact> 0.16538177E+04</totfact>
</mgrwt>
</event>
<event>
 4    1  0.6782240E-004  0.3447927E+03  0.7818608E-02  0.1064773E+00
          2   -1    0    0  501    0  0.00000000000E+00  0.00000000000E+00  0.20908677044E+04  0.20908677044E+04  0.25500000000E-02 0.  1.
         -2   -1    0    0    0  501 -0.00000000000E+00 -0.00000000000E+00 -0.14214430264E+02  0.14214430493E+02  0.25500000000E-02 0. -1.
    5000001    1    1    2    0    0 -0.68989099915E+02  0.10819954976E+03  0.15608558272E+04  0.15680135687E+04  0.77000000000E+02 0.  0.
   -5000001    1    1    2    0    0  0.68989099915E+02 -0.10819954976E+03  0.51579744692E+03  0.53706856613E+03  0.77000000000E+02 0.  0.
<mgrwt>
<rscale>  0 0.34479265E+03</rscale>
<asrwt>0</asrwt>
<pdfrwt beam="1">  1        2 0.29869535E+00 0.34479265E+03</pdfrwt>
<pdfrwt beam="2">  1       -2 0.20306331E-02 0.34479265E+03</pdfrwt>
<totfact> 0.60341588E+03</totfact>
</mgrwt>
</event>
<event>
 4    1  0.6782240E-004  0.3776115E+03  0.7818608E-02  0.1051820E+00
          2   -1    0    0  501    0  0.00000000000E+00  0.00000000000E+00  0.56699110398E+03  0.56699110398E+03  0.25500000000E-02 0.  1.
         -2   -1    0    0    0  501 -0.00000000000E+00 -0.00000000000E+00 -0.62871562099E+02  0.62871562151E+02  0.25500000000E-02 0. -1.
    5000001    1    1    2    0    0  0.69261910419E+02 -0.13291528968E+03  0.39413463047E+03  0.42864296729E+03  0.77000000000E+02 0.  0.
   -5000001    1    1    2    0    0 -0.69261910419E+02  0.13291528968E+03  0.10998491140E+03  0.20121969884E+03  0.77000000000E+02 0.  0.
<mgrwt>
<rscale>  0 0.37761153E+03</rscale>
<asrwt>0</asrwt>
<pdfrwt beam="1">  1        2 0.80998735E-01 0.37761153E+03</pdfrwt>
<pdfrwt beam="2">  1       -2 0.89816511E-02 0.37761153E+03</pdfrwt>
<totfact> 0.46511192E+03</totfact>
</mgrwt>
</event>
<event>
 4    1  0.6782240E-004  0.6469009E+03  0.7818608E-02  0.9812612E-01
          2   -1    0    0  501    0  0.00000000000E+00  0.00000000000E+00  0.71863914482E+03  0.71863914482E+03  0.25500000000E-02 0. -1.
         -2   -1    0    0    0  501 -0.00000000000E+00 -0.00000000000E+00 -0.14558099765E+03  0.14558099767E+03  0.25500000000E-02 0.  1.
    5000001    1    1    2    0    0 -0.20718112007E+03 -0.21942401392E+03  0.40314888553E+03  0.50943982795E+03  0.77000000000E+02 0.  0.
   -5000001    1    1    2    0    0  0.20718112007E+03  0.21942401392E+03  0.16990926164E+03  0.35478031454E+03  0.77000000000E+02 0.  0.
<mgrwt>
<rscale>  0 0.64690093E+03</rscale>
<asrwt>0</asrwt>
<pdfrwt beam="1">  1        2 0.10266274E+00 0.64690093E+03</pdfrwt>
<pdfrwt beam="2">  1       -2 0.20797285E-01 0.64690093E+03</pdfrwt>
<totfact> 0.87026861E+02</totfact>
</mgrwt>
</event>
<event>
 4    1  0.6782240E-004  0.5966289E+03  0.7818608E-02  0.9912425E-01
         -2   -1    0    0    0  501 -0.00000000000E+00  0.00000000000E+00  0.11478315472E+03  0.11478315474E+03  0.25500000000E-02 0. -1.
          2   -1    0    0  501    0  0.00000000000E+00 -0.00000000000E+00 -0.77530120480E+03  0.77530120481E+03  0.25500000000E-02 0.  1.
    5000001    1    1    2    0    0  0.18900977477E+03 -0.93467175311E+02 -0.37149359455E+02  0.22752996006E+03  0.77000000000E+02 0.  0.
   -5000001    1    1    2    0    0 -0.18900977477E+03  0.93467175311E+02 -0.62336869063E+03  0.66255439949E+03  0.77000000000E+02 0.  0.
<mgrwt>
<rscale>  0 0.59662892E+03</rscale>
<asrwt>0</asrwt>
<pdfrwt beam="1">  1        2 0.11075731E+00 0.59662892E+03</pdfrwt>
<pdfrwt beam="2">  1       -2 0.16397594E-01 0.59662892E+03</pdfrwt>
<totfact> 0.11939757E+03</totfact>
</mgrwt>
</event>
<event>
 4    1  0.6782240E-004  0.2495530E+03  0.7818608E-02  0.1113588E+00
         -2   -1    0    0    0  501 -0.00000000000E+00  0.00000000000E+00  0.73661754453E+02  0.73661754497E+02  0.25500000000E-02 0. -1.
          2   -1    0    0  501    0  0.00000000000E+00 -0.00000000000E+00 -0.21136033001E+03  0.21136033003E+03  0.25500000000E-02 0.  1.
    5000001    1    1    2    0    0 -0.22040257100E+02 -0.42044169153E+02 -0.16701065871E+03  0.18993431816E+03  0.77000000000E+02 0.  0.
   -5000001    1    1    2    0    0  0.22040257100E+02  0.42044169153E+02  0.29312083153E+02  0.95087766361E+02  0.77000000000E+02 0.  0.
<mgrwt>
<rscale>  0 0.24955298E+03</rscale>
<asrwt>0</asrwt>
<pdfrwt beam="1">  1        2 0.30194333E-01 0.24955298E+03</pdfrwt>
<pdfrwt beam="2">  1       -2 0.10523108E-01 0.24955298E+03</pdfrwt>
<totfact> 0.10479653E+04</totfact>
</mgrwt>
</event>
<event>
 4    1  0.6782240E-004  0.2259051E+03  0.7818608E-02  0.1129556E+00
          2   -1    0    0  501    0  0.00000000000E+00  0.00000000000E+00  0.24785650566E+03  0.24785650567E+03  0.25500000000E-02 0.  1.
         -2   -1    0    0    0  501 -0.00000000000E+00 -0.00000000000E+00 -0.51474461738E+02  0.51474461801E+02  0.25500000000E-02 0. -1.
    5000001    1    1    2    0    0  0.59489155310E+02  0.35292140177E+02  0.15810793920E+03  0.18897517084E+03  0.77000000000E+02 0.  0.
   -5000001    1    1    2    0    0 -0.59489155310E+02 -0.35292140177E+02  0.38274104727E+02  0.11035579663E+03  0.77000000000E+02 0.  0.
<mgrwt>
<rscale>  0 0.22590511E+03</rscale>
<asrwt>0</asrwt>
<pdfrwt beam="1">  1        2 0.35408072E-01 0.22590511E+03</pdfrwt>
<pdfrwt beam="2">  1       -2 0.73534946E-02 0.22590511E+03</pdfrwt>
<totfact> 0.15382905E+04</totfact>
</mgrwt>
</event>
<event>
 4    1  0.6782240E-004  0.3012318E+03  0.7818608E-02  0.1084626E+00
          2   -1    0    0  501    0  0.00000000000E+00  0.00000000000E+00  0.29581812582E+02  0.29581812692E+02  0.25500000000E-02 0.  1.
         -2   -1    0    0    0  501 -0.00000000000E+00 -0.00000000000E+00 -0.76686133910E+03  0.76686133910E+03  0.25500000000E-02 0. -1.
    5000001    1    1    2    0    0  0.82174202438E+02 -0.92600597280E+01 -0.63194630635E+03  0.64196844344E+03  0.77000000000E+02 0.  0.
   -5000001    1    1    2    0    0 -0.82174202438E+02  0.92600597280E+01 -0.10533322016E+03  0.15447470836E+03  0.77000000000E+02 0.  0.
<mgrwt>
<rscale>  0 0.30123179E+03</rscale>
<asrwt>0</asrwt>
<pdfrwt beam="1">  1        2 0.42259737E-02 0.30123179E+03</pdfrwt>
<pdfrwt beam="2">  1       -2 0.10955161E+00 0.30123179E+03</pdfrwt>
<totfact> 0.13651826E+03</totfact>
</mgrwt>
</event>
<event>
 4    1  0.6782240E-004  0.3423709E+03  0.7818608E-02  0.1065791E+00
          2   -1    0    0  501    0  0.00000000000E+00  0.00000000000E+00  0.20841992665E+04  0.20841992665E+04  0.25500000000E-02 0.  1.
         -2   -1    0    0    0  501 -0.00000000000E+00 -0.00000000000E+00 -0.14060297680E+02  0.14060297911E+02  0.25500000000E-02 0. -1.
    5000001    1    1    2    0    0 -0.17361746507E+02  0.15045775973E+03  0.11631112929E+04  0.11754555914E+04  0.77000000000E+02 0.  0.
   -5000001    1    1    2    0    0  0.17361746507E+02 -0.15045775973E+03  0.90702767594E+03  0.92280397302E+03  0.77000000000E+02 0.  0.
<mgrwt>
<rscale>  0 0.34237092E+03</rscale>
<asrwt>0</asrwt>
<pdfrwt beam="1">  1        2 0.29774267E+00 0.34237092E+03</pdfrwt>
<pdfrwt beam="2">  1       -2 0.20086145E-02 0.34237092E+03</pdfrwt>
<totfact> 0.61788934E+03</totfact>
</mgrwt>
</event>
<event>
 4    1  0.6782240E-004  0.2330154E+03  0.7818608E-02  0.1124535E+00
          2   -1    0    0  501    0  0.00000000000E+00  0.00000000000E+00  0.20581792203E+04  0.20581792203E+04  0.25500000000E-02 0.  1.
         -2   -1    0    0    0  501 -0.00000000000E+00 -0.00000000000E+00 -0.65951712786E+01  0.65951717715E+01  0.25500000000E-02 0. -1.
    5000001    1    1    2    0    0  0.61014008700E+02  0.62623319627E+02  0.10329666288E+04  0.10395159670E+04  0.77000000000E+02 0.  0.
   -5000001    1    1    2    0    0 -0.61014008700E+02 -0.62623319627E+02  0.10186174202E+04  0.10252584251E+04  0.77000000000E+02 0.  0.
<mgrwt>
<rscale>  0 0.23301541E+03</rscale>
<asrwt>0</asrwt>
<pdfrwt beam="1">  1        2 0.29402585E+00 0.23301541E+03</pdfrwt>
<pdfrwt beam="2">  1       -2 0.94216656E-03 0.23301541E+03</pdfrwt>
<totfact> 0.19126376E+04</totfact>
</mgrwt>
</event>
<event>
 4    1  0.6782240E-004  0.2351278E+03  0.7818608E-02  0.1123082E+00
         -2   -1    0    0    0  501 -0.00000000000E+00  0.00000000000E+00  0.79785686853E+02  0.79785686893E+02  0.25500000000E-02 0. -1.
          2   -1    0    0  501    0  0.00000000000E+00 -0.00000000000E+00 -0.17322999546E+03  0.17322999548E+03  0.25500000000E-02 0.  1.
    5000001    1    1    2    0    0 -0.64104629494E+02 -0.27981712335E+02 -0.10566028934E+03  0.14827500292E+03  0.77000000000E+02 0.  0.
   -5000001    1    1    2    0    0  0.64104629494E+02  0.27981712335E+02  0.12215980728E+02  0.10474067946E+03  0.77000000000E+02 0.  0.
<mgrwt>
<rscale>  0 0.23512783E+03</rscale>
<asrwt>0</asrwt>
<pdfrwt beam="1">  1        2 0.24747142E-01 0.23512783E+03</pdfrwt>
<pdfrwt beam="2">  1       -2 0.11397955E-01 0.23512783E+03</pdfrwt>
<totfact> 0.11455221E+04</totfact>
</mgrwt>
</event>
<event>
 4    1  0.6782240E-004  0.4480809E+03  0.7818608E-02  0.1028296E+00
         -2   -1    0    0    0  501 -0.00000000000E+00  0.00000000000E+00  0.87773794000E+02  0.87773794037E+02  0.25500000000E-02 0. -1.
          2   -1    0    0  501    0  0.00000000000E+00 -0.00000000000E+00 -0.57185764104E+03  0.57185764104E+03  0.25500000000E-02 0.  1.
    5000001    1    1    2    0    0 -0.18661046734E+03 -0.82560439681E+02 -0.31747199422E+03  0.38517159791E+03  0.77000000000E+02 0.  0.
   -5000001    1    1    2    0    0  0.18661046734E+03  0.82560439681E+02 -0.16661185282E+03  0.27445983717E+03  0.77000000000E+02 0.  0.
<mgrwt>
<rscale>  0 0.44808086E+03</rscale>
<asrwt>0</asrwt>
<pdfrwt beam="1">  1        2 0.81693947E-01 0.44808086E+03</pdfrwt>
<pdfrwt beam="2">  1       -2 0.12539114E-01 0.44808086E+03</pdfrwt>
<totfact> 0.26946569E+03</totfact>
</mgrwt>
</event>
<event>
 4    1  0.6782240E-004  0.2883084E+03  0.7818608E-02  0.1091236E+00
         -2   -1    0    0    0  501 -0.00000000000E+00  0.00000000000E+00  0.40007742229E+02  0.40007742310E+02  0.25500000000E-02 0. -1.
          2   -1    0    0  501    0  0.00000000000E+00 -0.00000000000E+00 -0.51941026477E+03  0.51941026477E+03  0.25500000000E-02 0.  1.
    5000001    1    1    2    0    0  0.27090387840E+02  0.10446667293E+03 -0.34953678888E+03  0.37383437729E+03  0.77000000000E+02 0.  0.
   -5000001    1    1    2    0    0 -0.27090387840E+02 -0.10446667293E+03 -0.12986573366E+03  0.18558362979E+03  0.77000000000E+02 0.  0.
<mgrwt>
<rscale>  0 0.28830839E+03</rscale>
<asrwt>0</asrwt>
<pdfrwt beam="1">  1        2 0.74201462E-01 0.28830839E+03</pdfrwt>
<pdfrwt beam="2">  1       -2 0.57153921E-02 0.28830839E+03</pdfrwt>
<totfact> 0.10306003E+04</totfact>
</mgrwt>
</event>
<event>
 4    1  0.6782240E-004  0.1991631E+03  0.7818608E-02  0.1150447E+00
          2   -1    0    0  501    0  0.00000000000E+00  0.00000000000E+00  0.43700333169E+03  0.43700333170E+03  0.25500000000E-02 0.  1.
         -2   -1    0    0    0  501 -0.00000000000E+00 -0.00000000000E+00 -0.22692021149E+02  0.22692021293E+02  0.25500000000E-02 0. -1.
    5000001    1    1    2    0    0  0.16177276646E+02  0.58479987125E+02  0.16678798874E+03  0.19346536217E+03  0.77000000000E+02 0.  0.
   -5000001    1    1    2    0    0 -0.16177276646E+02 -0.58479987125E+02  0.24752332180E+03  0.26622999082E+03  0.77000000000E+02 0.  0.
<mgrwt>
<rscale>  0 0.19916314E+03</rscale>
<asrwt>0</asrwt>
<pdfrwt beam="1">  1        2 0.62429045E-01 0.19916314E+03</pdfrwt>
<pdfrwt beam="2">  1       -2 0.32417175E-02 0.19916314E+03</pdfrwt>
<totfact> 0.28634905E+04</totfact>
</mgrwt>
</event>
<event>
 4    1  0.6782240E-004  0.2095460E+03  0.7818608E-02  0.1141926E+00
         -2   -1    0    0    0  501 -0.00000000000E+00  0.00000000000E+00  0.31482070445E+01  0.31482080773E+01  0.25500000000E-02 0. -1.
          2   -1    0    0  501    0  0.00000000000E+00 -0.00000000000E+00 -0.34868655527E+04  0.34868655527E+04  0.25500000000E-02 0.  1.
    5000001    1    1    2    0    0  0.67298583456E+02 -0.22273218153E+02 -0.16616699716E+04  0.16649628495E+04  0.77000000000E+02 0.  0.
   -5000001    1    1    2    0    0 -0.67298583456E+02  0.22273218153E+02 -0.18220473740E+04  0.18250509113E+04  0.77000000000E+02 0.  0.
<mgrwt>
<rscale>  0 0.20954595E+03</rscale>
<asrwt>0</asrwt>
<pdfrwt beam="1">  1        2 0.49812118E+00 0.20954595E+03</pdfrwt>
<pdfrwt beam="2">  1       -2 0.44974617E-03 0.20954595E+03</pdfrwt>
<totfact> 0.10114403E+04</totfact>
</mgrwt>
</event>
<event>
 4    1  0.6782240E-004  0.1945764E+03  0.7818608E-02  0.1154397E+00
         -2   -1    0    0    0  501 -0.00000000000E+00  0.00000000000E+00  0.30969777438E+03  0.30969777439E+03  0.25500000000E-02 0. -1.
          2   -1    0    0  501    0  0.00000000000E+00 -0.00000000000E+00 -0.30562034288E+02  0.30562034394E+02  0.25500000000E-02 0.  1.
    5000001    1    1    2    0    0 -0.45541176244E+02  0.22643059589E+02  0.19344683999E+03  0.21433008837E+03  0.77000000000E+02 0.  0.
   -5000001    1    1    2    0    0  0.45541176244E+02 -0.22643059589E+02  0.85688900101E+02  0.12592972041E+03  0.77000000000E+02 0.  0.
<mgrwt>
<rscale>  0 0.19457640E+03</rscale>
<asrwt>0</asrwt>
<pdfrwt beam="1">  1        2 0.43660047E-02 0.19457640E+03</pdfrwt>
<pdfrwt beam="2">  1       -2 0.44242541E-01 0.19457640E+03</pdfrwt>
<totfact> 0.89398203E+03</totfact>
</mgrwt>
</event>
<event>
 4    1  0.6782240E-004  0.2565575E+03  0.7818608E-02  0.1109229E+00
          2   -1    0    0  501    0  0.00000000000E+00  0.00000000000E+00  0.88337198751E+03  0.88337198752E+03  0.25500000000E-02 0.  1.
         -2   -1    0    0    0  501 -0.00000000000E+00 -0.00000000000E+00 -0.18627979273E+02  0.18627979447E+02  0.25500000000E-02 0. -1.
    5000001    1    1    2    0    0  0.57921283668E+02 -0.82222148171E+02  0.36108929936E+03  0.38266151996E+03  0.77000000000E+02 0.  0.
   -5000001    1    1    2    0    0 -0.57921283668E+02  0.82222148171E+02  0.50365470889E+03  0.51933844700E+03  0.77000000000E+02 0.  0.
<mgrwt>
<rscale>  0 0.25655748E+03</rscale>
<asrwt>0</asrwt>
<pdfrwt beam="1">  1        2 0.12619595E+00 0.25655748E+03</pdfrwt>
<pdfrwt beam="2">  1       -2 0.26611410E-02 0.25655748E+03</pdfrwt>
<totfact> 0.17266297E+04</totfact>
</mgrwt>
</event>
<event>
 4    1  0.6782240E-004  0.2153272E+03  0.7818608E-02  0.1137416E+00
         -2   -1    0    0    0  501 -0.00000000000E+00  0.00000000000E+00  0.21886571957E+03  0.21886571958E+03  0.25500000000E-02 0. -1.
          2   -1    0    0  501    0  0.00000000000E+00 -0.00000000000E+00 -0.52961455818E+02  0.52961455879E+02  0.25500000000E-02 0.  1.
    5000001    1    1    2    0    0  0.63354687910E+02  0.18467733123E+02  0.37303569750E+02  0.10805290354E+03  0.77000000000E+02 0.  0.
   -5000001    1    1    2    0    0 -0.63354687910E+02 -0.18467733123E+02  0.12860069400E+03  0.16377427192E+03  0.77000000000E+02 0.  0.
<mgrwt>
<rscale>  0 0.21532717E+03</rscale>
<asrwt>0</asrwt>
<pdfrwt beam="1">  1        2 0.75659224E-02 0.21532717E+03</pdfrwt>
<pdfrwt beam="2">  1       -2 0.31266531E-01 0.21532717E+03</pdfrwt>
<totfact> 0.84471096E+03</totfact>
</mgrwt>
</event>
<event>
 4    1  0.6782240E-004  0.2989741E+03  0.7818608E-02  0.1085755E+00
         -2   -1    0    0    0  501 -0.00000000000E+00  0.00000000000E+00  0.16831441901E+02  0.16831442094E+02  0.25500000000E-02 0. -1.
          2   -1    0    0  501    0  0.00000000000E+00 -0.00000000000E+00 -0.13276567568E+04  0.13276567568E+04  0.25500000000E-02 0.  1.
    5000001    1    1    2    0    0 -0.89416391755E+02  0.65166109005E+01 -0.24375556405E+03  0.27089395035E+03  0.77000000000E+02 0.  0.
   -5000001    1    1    2    0    0  0.89416391755E+02 -0.65166109005E+01 -0.10670697509E+04  0.10735942486E+04  0.77000000000E+02 0.  0.
<mgrwt>
<rscale>  0 0.29897410E+03</rscale>
<asrwt>0</asrwt>
<pdfrwt beam="1">  1        2 0.18966518E+00 0.29897410E+03</pdfrwt>
<pdfrwt beam="2">  1       -2 0.24044926E-02 0.29897410E+03</pdfrwt>
<totfact> 0.11290250E+04</totfact>
</mgrwt>
</event>
<event>
 4    1  0.6782240E-004  0.1966565E+03  0.7818608E-02  0.1152591E+00
          2   -1    0    0  501    0  0.00000000000E+00  0.00000000000E+00  0.57105744654E+03  0.57105744654E+03  0.25500000000E-02 0.  1.
         -2   -1    0    0    0  501 -0.00000000000E+00 -0.00000000000E+00 -0.16930777717E+02  0.16930777909E+02  0.25500000000E-02 0. -1.
    5000001    1    1    2    0    0 -0.33829179484E+02  0.48202788891E+02  0.22779534996E+03  0.24756341350E+03  0.77000000000E+02 0.  0.
   -5000001    1    1    2    0    0  0.33829179484E+02 -0.48202788891E+02  0.32633131886E+03  0.34042481095E+03  0.77000000000E+02 0.  0.
<mgrwt>
<rscale>  0 0.19665652E+03</rscale>
<asrwt>0</asrwt>
<pdfrwt beam="1">  1        2 0.81579601E-01 0.19665652E+03</pdfrwt>
<pdfrwt beam="2">  1       -2 0.24186836E-02 0.19665652E+03</pdfrwt>
<totfact> 0.32856875E+04</totfact>
</mgrwt>
</event>
<event>
 4    1  0.6782240E-004  0.1966568E+03  0.7818608E-02  0.1152591E+00
          2   -1    0    0  501    0  0.00000000000E+00  0.00000000000E+00  0.98099889797E+03  0.98099889798E+03  0.25500000000E-02 0.  1.
         -2   -1    0    0    0  501 -0.00000000000E+00 -0.00000000000E+00 -0.98557420750E+01  0.98557424049E+01  0.25500000000E-02 0. -1.
    5000001    1    1    2    0    0  0.31041203067E+02  0.42819386217E+02  0.33089577294E+03  0.34382854546E+03  0.77000000000E+02 0.  0.
   -5000001    1    1    2    0    0 -0.31041203067E+02 -0.42819386217E+02  0.64024738296E+03  0.64702609492E+03  0.77000000000E+02 0.  0.
<mgrwt>
<rscale>  0 0.19665678E+03</rscale>
<asrwt>0</asrwt>
<pdfrwt beam="1">  1        2 0.14014255E+00 0.19665678E+03</pdfrwt>
<pdfrwt beam="2">  1       -2 0.14079647E-02 0.19665678E+03</pdfrwt>
<totfact> 0.37638049E+04</totfact>
</mgrwt>
</event>
<event>
 4    1  0.6782240E-004  0.1786742E+03  0.7818608E-02  0.1169092E+00
         -2   -1    0    0    0  501 -0.00000000000E+00  0.00000000000E+00  0.37476261123E+01  0.37476269799E+01  0.25500000000E-02 0. -1.
          2   -1    0    0  501    0  0.00000000000E+00 -0.00000000000E+00 -0.21296447665E+04  0.21296447665E+04  0.25500000000E-02 0.  1.
    5000001    1    1    2    0    0  0.39258372451E+02  0.12103883174E+02 -0.83502359412E+03  0.83957199008E+03  0.77000000000E+02 0.  0.
   -5000001    1    1    2    0    0 -0.39258372451E+02 -0.12103883174E+02 -0.12908735463E+04  0.12938204034E+04  0.77000000000E+02 0.  0.
<mgrwt>
<rscale>  0 0.17867415E+03</rscale>
<asrwt>0</asrwt>
<pdfrwt beam="1">  1        2 0.30423419E+00 0.17867415E+03</pdfrwt>
<pdfrwt beam="2">  1       -2 0.53537658E-03 0.17867415E+03</pdfrwt>
<totfact> 0.39294681E+04</totfact>
</mgrwt>
</event>
<event>
 4    1  0.6782240E-004  0.2765449E+03  0.7818608E-02  0.1097591E+00
          2   -1    0    0  501    0  0.00000000000E+00  0.00000000000E+00  0.46754544812E+03  0.46754544812E+03  0.25500000000E-02 0.  1.
         -2   -1    0    0    0  501 -0.00000000000E+00 -0.00000000000E+00 -0.40892854720E+02  0.40892854799E+02  0.25500000000E-02 0. -1.
    5000001    1    1    2    0    0 -0.10465628036E+03 -0.15961712794E+02  0.29518884031E+03  0.32291355613E+03  0.77000000000E+02 0.  0.
   -5000001    1    1    2    0    0  0.10465628036E+03  0.15961712794E+02  0.13146375309E+03  0.18552474679E+03  0.77000000000E+02 0.  0.
<mgrwt>
<rscale>  0 0.27654488E+03</rscale>
<asrwt>0</asrwt>
<pdfrwt beam="1">  1        2 0.66792206E-01 0.27654488E+03</pdfrwt>
<pdfrwt beam="2">  1       -2 0.58418364E-02 0.27654488E+03</pdfrwt>
<totfact> 0.11175864E+04</totfact>
</mgrwt>
</event>
<event>
 4    1  0.6782240E-004  0.2274657E+03  0.7818608E-02  0.1128436E+00
         -2   -1    0    0    0  501 -0.00000000000E+00  0.00000000000E+00  0.23005266306E+02  0.23005266447E+02  0.25500000000E-02 0. -1.
          2   -1    0    0  501    0  0.00000000000E+00 -0.00000000000E+00 -0.56226951956E+03  0.56226951956E+03  0.25500000000E-02 0.  1.
    5000001    1    1    2    0    0  0.70274823461E+02 -0.44482155420E+02 -0.24536547570E+03  0.27027842983E+03  0.77000000000E+02 0.  0.
   -5000001    1    1    2    0    0 -0.70274823461E+02  0.44482155420E+02 -0.29389877755E+03  0.31499635618E+03  0.77000000000E+02 0.  0.
<mgrwt>
<rscale>  0 0.22746569E+03</rscale>
<asrwt>0</asrwt>
<pdfrwt beam="1">  1        2 0.80324209E-01 0.22746569E+03</pdfrwt>
<pdfrwt beam="2">  1       -2 0.32864670E-02 0.22746569E+03</pdfrwt>
<totfact> 0.21471863E+04</totfact>
</mgrwt>
</event>
<event>
 4    1  0.6782240E-004  0.1839931E+03  0.7818608E-02  0.1163994E+00
          2   -1    0    0  501    0  0.00000000000E+00  0.00000000000E+00  0.10853525466E+04  0.10853525466E+04  0.25500000000E-02 0.  1.
         -2   -1    0    0    0  501 -0.00000000000E+00 -0.00000000000E+00 -0.77978001386E+01  0.77978005555E+01  0.25500000000E-02 0. -1.
    5000001    1    1    2    0    0 -0.21613074472E+02 -0.32708059263E+02  0.35114077935E+03  0.36161552656E+03  0.77000000000E+02 0.  0.
   -5000001    1    1    2    0    0  0.21613074472E+02  0.32708059263E+02  0.72641396710E+03  0.73153482059E+03  0.77000000000E+02 0.  0.
<mgrwt>
<rscale>  0 0.18399307E+03</rscale>
<asrwt>0</asrwt>
<pdfrwt beam="1">  1        2 0.15505055E+00 0.18399307E+03</pdfrwt>
<pdfrwt beam="2">  1       -2 0.11139701E-02 0.18399307E+03</pdfrwt>
<totfact> 0.45771070E+04</totfact>
</mgrwt>
</event>
<event>
 4    1  0.6782240E-004  0.2183355E+03  0.7818608E-02  0.1135130E+00
          2   -1    0    0  501    0  0.00000000000E+00  0.00000000000E+00  0.25088453764E+03  0.25088453765E+03  0.25500000000E-02 0.  1.
         -2   -1    0    0    0  501 -0.00000000000E+00 -0.00000000000E+00 -0.47502323903E+02  0.47502323971E+02  0.25500000000E-02 0. -1.
    5000001    1    1    2    0    0  0.66464011756E+01 -0.33828741867E+02  0.19637536043E+03  0.21373076664E+03  0.77000000000E+02 0.  0.
   -5000001    1    1    2    0    0 -0.66464011756E+01  0.33828741867E+02  0.70068533092E+01  0.84656094986E+02  0.77000000000E+02 0.  0.
<mgrwt>
<rscale>  0 0.21833551E+03</rscale>
<asrwt>0</asrwt>
<pdfrwt beam="1">  1        2 0.35840650E-01 0.21833551E+03</pdfrwt>
<pdfrwt beam="2">  1       -2 0.67860460E-02 0.21833551E+03</pdfrwt>
<totfact> 0.17148417E+04</totfact>
</mgrwt>
</event>
<event>
 4    1  0.6782240E-004  0.2917808E+03  0.7818608E-02  0.1089423E+00
          2   -1    0    0  501    0  0.00000000000E+00  0.00000000000E+00  0.12095898311E+04  0.12095898311E+04  0.25500000000E-02 0.  1.
         -2   -1    0    0    0  501 -0.00000000000E+00 -0.00000000000E+00 -0.17596052951E+02  0.17596053136E+02  0.25500000000E-02 0. -1.
    5000001    1    1    2    0    0  0.60252899076E+02  0.96416486339E+02  0.80325846376E+03  0.81491086033E+03  0.77000000000E+02 0.  0.
   -5000001    1    1    2    0    0 -0.60252899076E+02 -0.96416486339E+02  0.38873531441E+03  0.41227502393E+03  0.77000000000E+02 0.  0.
<mgrwt>
<rscale>  0 0.29178079E+03</rscale>
<asrwt>0</asrwt>
<pdfrwt beam="1">  1        2 0.17279856E+00 0.29178079E+03</pdfrwt>
<pdfrwt beam="2">  1       -2 0.25137217E-02 0.29178079E+03</pdfrwt>
<totfact> 0.12211216E+04</totfact>
</mgrwt>
</event>
<event>
 4    1  0.6782240E-004  0.2250521E+03  0.7818608E-02  0.1130172E+00
         -2   -1    0    0    0  501 -0.00000000000E+00  0.00000000000E+00  0.10493866431E+02  0.10493866740E+02  0.25500000000E-02 0. -1.
          2   -1    0    0  501    0  0.00000000000E+00 -0.00000000000E+00 -0.12066200012E+04  0.12066200012E+04  0.25500000000E-02 0.  1.
    5000001    1    1    2    0    0 -0.73890804079E+02  0.34018385455E+02 -0.53981361412E+03  0.55131192574E+03  0.77000000000E+02 0.  0.
   -5000001    1    1    2    0    0  0.73890804079E+02 -0.34018385455E+02 -0.65631252061E+03  0.66580194216E+03  0.77000000000E+02 0.  0.
<mgrwt>
<rscale>  0 0.22505208E+03</rscale>
<asrwt>0</asrwt>
<pdfrwt beam="1">  1        2 0.17237420E+00 0.22505208E+03</pdfrwt>
<pdfrwt beam="2">  1       -2 0.14991246E-02 0.22505208E+03</pdfrwt>
<totfact> 0.25897148E+04</totfact>
</mgrwt>
</event>
<event>
 4    1  0.6782240E-004  0.2296223E+03  0.7818608E-02  0.1126906E+00
          2   -1    0    0  501    0  0.00000000000E+00  0.00000000000E+00  0.86502124629E+03  0.86502124630E+03  0.25500000000E-02 0.  1.
         -2   -1    0    0    0  501 -0.00000000000E+00 -0.00000000000E+00 -0.15238471337E+02  0.15238471550E+02  0.25500000000E-02 0. -1.
    5000001    1    1    2    0    0 -0.52933800028E+02  0.58435990428E+02  0.54827146875E+03  0.55923819220E+03  0.77000000000E+02 0.  0.
   -5000001    1    1    2    0    0  0.52933800028E+02 -0.58435990428E+02  0.30151130620E+03  0.32102152565E+03  0.77000000000E+02 0.  0.
<mgrwt>
<rscale>  0 0.22962231E+03</rscale>
<asrwt>0</asrwt>
<pdfrwt beam="1">  1        2 0.12357449E+00 0.22962231E+03</pdfrwt>
<pdfrwt beam="2">  1       -2 0.21769240E-02 0.22962231E+03</pdfrwt>
<totfact> 0.23709895E+04</totfact>
</mgrwt>
</event>
<event>
 4    1  0.6782240E-004  0.2024270E+03  0.7818608E-02  0.1147707E+00
         -2   -1    0    0    0  501 -0.00000000000E+00  0.00000000000E+00  0.43218897173E+01  0.43218904696E+01  0.25500000000E-02 0. -1.
          2   -1    0    0  501    0  0.00000000000E+00 -0.00000000000E+00 -0.23702997591E+04  0.23702997591E+04  0.25500000000E-02 0.  1.
    5000001    1    1    2    0    0  0.51327757021E+02 -0.21422433322E+02 -0.77296329010E+03  0.77877770072E+03  0.77000000000E+02 0.  0.
   -5000001    1    1    2    0    0 -0.51327757021E+02  0.21422433322E+02 -0.15930145793E+04  0.15958439489E+04  0.77000000000E+02 0.  0.
<mgrwt>
<rscale>  0 0.20242702E+03</rscale>
<asrwt>0</asrwt>
<pdfrwt beam="1">  1        2 0.33861342E+00 0.20242702E+03</pdfrwt>
<pdfrwt beam="2">  1       -2 0.61741439E-03 0.20242702E+03</pdfrwt>
<totfact> 0.24656502E+04</totfact>
</mgrwt>
</event>
<event>
 4    1  0.6782240E-004  0.2076066E+03  0.7818608E-02  0.1143475E+00
         -2   -1    0    0    0  501 -0.00000000000E+00  0.00000000000E+00  0.30894502640E+01  0.30894513164E+01  0.25500000000E-02 0. -1.
          2   -1    0    0  501    0  0.00000000000E+00 -0.00000000000E+00 -0.34877146399E+04  0.34877146399E+04  0.25500000000E-02 0.  1.
    5000001    1    1    2    0    0 -0.78446249352E+01  0.57800667613E+02 -0.23811906160E+04  0.23831492200E+04  0.77000000000E+02 0.  0.
   -5000001    1    1    2    0    0  0.78446249352E+01 -0.57800667613E+02 -0.11034345736E+04  0.11076548712E+04  0.77000000000E+02 0.  0.
<mgrwt>
<rscale>  0 0.20760658E+03</rscale>
<asrwt>0</asrwt>
<pdfrwt beam="1">  1        2 0.49824243E+00 0.20760658E+03</pdfrwt>
<pdfrwt beam="2">  1       -2 0.44135235E-03 0.20760658E+03</pdfrwt>
<totfact> 0.10378431E+04</totfact>
</mgrwt>
</event>
<event>
 4    1  0.6782240E-004  0.3134223E+03  0.7818608E-02  0.1078717E+00
          2   -1    0    0  501    0  0.00000000000E+00  0.00000000000E+00  0.89313394208E+02  0.89313394244E+02  0.25500000000E-02 0.  1.
         -2   -1    0    0    0  501 -0.00000000000E+00 -0.00000000000E+00 -0.27496874217E+03  0.27496874218E+03  0.25500000000E-02 0. -1.
    5000001    1    1    2    0    0  0.22948979357E+02  0.11969239218E+03 -0.16425276151E+03  0.21854265960E+03  0.77000000000E+02 0.  0.
   -5000001    1    1    2    0    0 -0.22948979357E+02 -0.11969239218E+03 -0.21402586449E+02  0.14573947683E+03  0.77000000000E+02 0.  0.
<mgrwt>
<rscale>  0 0.31342235E+03</rscale>
<asrwt>0</asrwt>
<pdfrwt beam="1">  1        2 0.12759056E-01 0.31342235E+03</pdfrwt>
<pdfrwt beam="2">  1       -2 0.39281248E-01 0.31342235E+03</pdfrwt>
<totfact> 0.29277796E+03</totfact>
</mgrwt>
</event>
<event>
 4    1  0.6782240E-004  0.3728239E+03  0.7818608E-02  0.1053618E+00
          2   -1    0    0  501    0  0.00000000000E+00  0.00000000000E+00  0.18396292872E+03  0.18396292873E+03  0.25500000000E-02 0.  1.
         -2   -1    0    0    0  501 -0.00000000000E+00 -0.00000000000E+00 -0.18889355290E+03  0.18889355292E+03  0.25500000000E-02 0. -1.
    5000001    1    1    2    0    0  0.74007115103E+02 -0.15209924718E+03 -0.16929534207E+02  0.18661951454E+03  0.77000000000E+02 0.  0.
   -5000001    1    1    2    0    0 -0.74007115103E+02  0.15209924718E+03  0.11998910018E+02  0.18623696712E+03  0.77000000000E+02 0.  0.
<mgrwt>
<rscale>  0 0.37282388E+03</rscale>
<asrwt>0</asrwt>
<pdfrwt beam="1">  1        2 0.26280418E-01 0.37282388E+03</pdfrwt>
<pdfrwt beam="2">  1       -2 0.26984793E-01 0.37282388E+03</pdfrwt>
<totfact> 0.25362150E+03</totfact>
</mgrwt>
</event>
<event>
 4    1  0.6782240E-004  0.2174570E+03  0.7818608E-02  0.1135793E+00
          2   -1    0    0  501    0  0.00000000000E+00  0.00000000000E+00  0.24700007705E+04  0.24700007706E+04  0.25500000000E-02 0.  1.
         -2   -1    0    0    0  501 -0.00000000000E+00 -0.00000000000E+00 -0.47861878613E+01  0.47861885406E+01  0.25500000000E-02 0. -1.
    5000001    1    1    2    0    0  0.29777286775E+02 -0.49705685733E+02  0.65954717114E+03  0.66654993283E+03  0.77000000000E+02 0.  0.
   -5000001    1    1    2    0    0 -0.29777286775E+02  0.49705685733E+02  0.18056674116E+04  0.18082370263E+04  0.77000000000E+02 0.  0.
<mgrwt>
<rscale>  0 0.21745702E+03</rscale>
<asrwt>0</asrwt>
<pdfrwt beam="1">  1        2 0.35285707E+00 0.21745702E+03</pdfrwt>
<pdfrwt beam="2">  1       -2 0.68374153E-03 0.21745702E+03</pdfrwt>
<totfact> 0.19073953E+04</totfact>
</mgrwt>
</event>
<event>
 4    1  0.6782240E-004  0.1950300E+03  0.7818608E-02  0.1154001E+00
         -2   -1    0    0    0  501 -0.00000000000E+00  0.00000000000E+00  0.12152060369E+03  0.12152060371E+03  0.25500000000E-02 0. -1.
          2   -1    0    0  501    0  0.00000000000E+00 -0.00000000000E+00 -0.78251532040E+02  0.78251532081E+02  0.25500000000E-02 0.  1.
    5000001    1    1    2    0    0 -0.26748686820E+02  0.42688057126E+02 -0.11436897367E+02  0.92723055866E+02  0.77000000000E+02 0.  0.
   -5000001    1    1    2    0    0  0.26748686820E+02 -0.42688057126E+02  0.54705969015E+02  0.10704907993E+03  0.77000000000E+02 0.  0.
<mgrwt>
<rscale>  0 0.19502998E+03</rscale>
<asrwt>0</asrwt>
<pdfrwt beam="1">  1        2 0.11178790E-01 0.19502998E+03</pdfrwt>
<pdfrwt beam="2">  1       -2 0.17360086E-01 0.19502998E+03</pdfrwt>
<totfact> 0.14369821E+04</totfact>
</mgrwt>
</event>
<event>
 4    1  0.6782240E-004  0.2466863E+03  0.7818608E-02  0.1115417E+00
         -2   -1    0    0    0  501 -0.00000000000E+00  0.00000000000E+00  0.17373265812E+02  0.17373266000E+02  0.25500000000E-02 0. -1.
          2   -1    0    0  501    0  0.00000000000E+00 -0.00000000000E+00 -0.87568615215E+03  0.87568615215E+03  0.25500000000E-02 0.  1.
    5000001    1    1    2    0    0  0.59680969482E+02 -0.73408528966E+02 -0.36300453452E+03  0.38295159267E+03  0.77000000000E+02 0.  0.
   -5000001    1    1    2    0    0 -0.59680969482E+02  0.73408528966E+02 -0.49530835181E+03  0.51010782548E+03  0.77000000000E+02 0.  0.
<mgrwt>
<rscale>  0 0.24668627E+03</rscale>
<asrwt>0</asrwt>
<pdfrwt beam="1">  1        2 0.12509799E+00 0.24668627E+03</pdfrwt>
<pdfrwt beam="2">  1       -2 0.24818957E-02 0.24668627E+03</pdfrwt>
<totfact> 0.19319742E+04</totfact>
</mgrwt>
</event>
<event>
 4    1  0.6782240E-004  0.2930816E+03  0.7818608E-02  0.1088751E+00
         -2   -1    0    0    0  501 -0.00000000000E+00  0.00000000000E+00  0.14369499670E+02  0.14369499897E+02  0.25500000000E-02 0. -1.
          2   -1    0    0  501    0  0.00000000000E+00 -0.00000000000E+00 -0.14944299777E+04  0.14944299777E+04  0.25500000000E-02 0.  1.
    5000001    1    1    2    0    0  0.28627493969E+02  0.11226092352E+03 -0.97724110315E+03  0.98709230675E+03  0.77000000000E+02 0.  0.
   -5000001    1    1    2    0    0 -0.28627493969E+02 -0.11226092352E+03 -0.50281937486E+03  0.52170717083E+03  0.77000000000E+02 0.  0.
<mgrwt>
<rscale>  0 0.29308164E+03</rscale>
<asrwt>0</asrwt>
<pdfrwt beam="1">  1        2 0.21348990E+00 0.29308164E+03</pdfrwt>
<pdfrwt beam="2">  1       -2 0.20527866E-02 0.29308164E+03</pdfrwt>
<totfact> 0.11697873E+04</totfact>
</mgrwt>
</event>
<event>
 4    1  0.6782240E-004  0.2581981E+03  0.7818608E-02  0.1108231E+00
         -2   -1    0    0    0  501 -0.00000000000E+00  0.00000000000E+00  0.90140243221E+03  0.90140243222E+03  0.25500000000E-02 0. -1.
          2   -1    0    0  501    0  0.00000000000E+00 -0.00000000000E+00 -0.18489593906E+02  0.18489594082E+02  0.25500000000E-02 0.  1.
    5000001    1    1    2    0    0  0.84489563492E+02 -0.36103985780E+02  0.27075776102E+03  0.29610935358E+03  0.77000000000E+02 0.  0.
   -5000001    1    1    2    0    0 -0.84489563492E+02  0.36103985780E+02  0.61215507729E+03  0.62378267271E+03  0.77000000000E+02 0.  0.
<mgrwt>
<rscale>  0 0.25819810E+03</rscale>
<asrwt>0</asrwt>
<pdfrwt beam="1">  1        2 0.26413697E-02 0.25819810E+03</pdfrwt>
<pdfrwt beam="2">  1       -2 0.12877182E+00 0.25819810E+03</pdfrwt>
<totfact> 0.17368485E+03</totfact>
</mgrwt>
</event>
<event>
 4    1  0.6782240E-004  0.2631132E+03  0.7818608E-02  0.1105287E+00
         -2   -1    0    0    0  501 -0.00000000000E+00  0.00000000000E+00  0.91571564556E+01  0.91571568107E+01  0.25500000000E-02 0. -1.
          2   -1    0    0  501    0  0.00000000000E+00 -0.00000000000E+00 -0.18900123871E+04  0.18900123871E+04  0.25500000000E-02 0.  1.
    5000001    1    1    2    0    0 -0.68698586637E+02  0.81543965679E+02 -0.96235121928E+03  0.97129695943E+03  0.77000000000E+02 0.  0.
   -5000001    1    1    2    0    0  0.68698586637E+02 -0.81543965679E+02 -0.91850401134E+03  0.92787258446E+03  0.77000000000E+02 0.  0.
<mgrwt>
<rscale>  0 0.26311320E+03</rscale>
<asrwt>0</asrwt>
<pdfrwt beam="1">  1        2 0.27000152E+00 0.26311320E+03</pdfrwt>
<pdfrwt beam="2">  1       -2 0.13081664E-02 0.26311320E+03</pdfrwt>
<totfact> 0.14388371E+04</totfact>
</mgrwt>
</event>
<event>
 4    1  0.6782240E-004  0.2003400E+03  0.7818608E-02  0.1149452E+00
         -2   -1    0    0    0  501 -0.00000000000E+00  0.00000000000E+00  0.52152207318E+02  0.52152207380E+02  0.25500000000E-02 0. -1.
          2   -1    0    0  501    0  0.00000000000E+00 -0.00000000000E+00 -0.19239888750E+03  0.19239888752E+03  0.25500000000E-02 0.  1.
    5000001    1    1    2    0    0 -0.13463090939E+02 -0.56842727044E+02 -0.37996564735E+02  0.10385128486E+03  0.77000000000E+02 0.  0.
   -5000001    1    1    2    0    0  0.13463090939E+02  0.56842727044E+02 -0.10225011545E+03  0.14069981004E+03  0.77000000000E+02 0.  0.
<mgrwt>
<rscale>  0 0.20033998E+03</rscale>
<asrwt>0</asrwt>
<pdfrwt beam="1">  1        2 0.27485555E-01 0.20033998E+03</pdfrwt>
<pdfrwt beam="2">  1       -2 0.74503154E-02 0.20033998E+03</pdfrwt>
<totfact> 0.19700767E+04</totfact>
</mgrwt>
</event>
<event>
 4    1  0.6782240E-004  0.2297772E+03  0.7818608E-02  0.1126797E+00
         -2   -1    0    0    0  501 -0.00000000000E+00  0.00000000000E+00  0.49237072998E+02  0.49237073064E+02  0.25500000000E-02 0. -1.
          2   -1    0    0  501    0  0.00000000000E+00 -0.00000000000E+00 -0.26807836382E+03  0.26807836384E+03  0.25500000000E-02 0.  1.
    5000001    1    1    2    0    0  0.74395167524E+02  0.23578424454E+02 -0.15685471828E+03  0.19137132935E+03  0.77000000000E+02 0.  0.
   -5000001    1    1    2    0    0 -0.74395167524E+02 -0.23578424454E+02 -0.61986572550E+02  0.12594410755E+03  0.77000000000E+02 0.  0.
<mgrwt>
<rscale>  0 0.22977723E+03</rscale>
<asrwt>0</asrwt>
<pdfrwt beam="1">  1        2 0.38296909E-01 0.22977723E+03</pdfrwt>
<pdfrwt beam="2">  1       -2 0.70338677E-02 0.22977723E+03</pdfrwt>
<totfact> 0.15156317E+04</totfact>
</mgrwt>
</event>
<event>
 4    1  0.6782240E-004  0.3468334E+03  0.7818608E-02  0.1063922E+00
         -2   -1    0    0    0  501 -0.00000000000E+00  0.00000000000E+00  0.11046774841E+03  0.11046774844E+03  0.25500000000E-02 0. -1.
          2   -1    0    0  501    0  0.00000000000E+00 -0.00000000000E+00 -0.27223651320E+03  0.27223651321E+03  0.25500000000E-02 0.  1.
    5000001    1    1    2    0    0  0.92224131142E+02  0.95181946818E+02  0.86186053162E+01  0.15351929430E+03  0.77000000000E+02 0.  0.
   -5000001    1    1    2    0    0 -0.92224131142E+02 -0.95181946818E+02 -0.17038737011E+03  0.22918496735E+03  0.77000000000E+02 0.  0.
<mgrwt>
<rscale>  0 0.34683342E+03</rscale>
<asrwt>0</asrwt>
<pdfrwt beam="1">  1        2 0.38890930E-01 0.34683342E+03</pdfrwt>
<pdfrwt beam="2">  1       -2 0.15781107E-01 0.34683342E+03</pdfrwt>
<totfact> 0.41579080E+03</totfact>
</mgrwt>
</event>
<event>
 4    1  0.6782240E-004  0.3101454E+03  0.7818608E-02  0.1080276E+00
          2   -1    0    0  501    0  0.00000000000E+00  0.00000000000E+00  0.55649655076E+03  0.55649655077E+03  0.25500000000E-02 0.  1.
         -2   -1    0    0    0  501 -0.00000000000E+00 -0.00000000000E+00 -0.43212390568E+02  0.43212390643E+02  0.25500000000E-02 0. -1.
    5000001    1    1    2    0    0  0.48268437771E+02  0.12545488775E+03  0.24299994207E+03  0.28817831770E+03  0.77000000000E+02 0.  0.
   -5000001    1    1    2    0    0 -0.48268437771E+02 -0.12545488775E+03  0.27028421813E+03  0.31153062372E+03  0.77000000000E+02 0.  0.
<mgrwt>
<rscale>  0 0.31014543E+03</rscale>
<asrwt>0</asrwt>
<pdfrwt beam="1">  1        2 0.79499503E-01 0.31014543E+03</pdfrwt>
<pdfrwt beam="2">  1       -2 0.61731990E-02 0.31014543E+03</pdfrwt>
<totfact> 0.84956190E+03</totfact>
</mgrwt>
</event>
<event>
 4    1  0.6782240E-004  0.2562950E+03  0.7818608E-02  0.1109390E+00
         -2   -1    0    0    0  501 -0.00000000000E+00  0.00000000000E+00  0.31270028459E+02  0.31270028563E+02  0.25500000000E-02 0. -1.
          2   -1    0    0  501    0  0.00000000000E+00 -0.00000000000E+00 -0.52516041758E+03  0.52516041759E+03  0.25500000000E-02 0.  1.
    5000001    1    1    2    0    0 -0.87831294927E+02  0.35838932938E+02 -0.33086188481E+03  0.35270008832E+03  0.77000000000E+02 0.  0.
   -5000001    1    1    2    0    0  0.87831294927E+02 -0.35838932938E+02 -0.16302850432E+03  0.20373035783E+03  0.77000000000E+02 0.  0.
<mgrwt>
<rscale>  0 0.25629500E+03</rscale>
<asrwt>0</asrwt>
<pdfrwt beam="1">  1        2 0.75022912E-01 0.25629500E+03</pdfrwt>
<pdfrwt beam="2">  1       -2 0.44671472E-02 0.25629500E+03</pdfrwt>
<totfact> 0.14729518E+04</totfact>
</mgrwt>
</event>
<event>
 4    1  0.6782240E-004  0.2908522E+03  0.7818608E-02  0.1089905E+00
          2   -1    0    0  501    0  0.00000000000E+00  0.00000000000E+00  0.71591960992E+02  0.71591961037E+02  0.25500000000E-02 0.  1.
         -2   -1    0    0    0  501 -0.00000000000E+00 -0.00000000000E+00 -0.29540673409E+03  0.29540673411E+03  0.25500000000E-02 0. -1.
    5000001    1    1    2    0    0 -0.99727570811E+02 -0.57805722641E+02 -0.16737885228E+03  0.21732871449E+03  0.77000000000E+02 0.  0.
   -5000001    1    1    2    0    0  0.99727570811E+02  0.57805722641E+02 -0.56435920818E+02  0.14966998065E+03  0.77000000000E+02 0.  0.
<mgrwt>
<rscale>  0 0.29085218E+03</rscale>
<asrwt>0</asrwt>
<pdfrwt beam="1">  1        2 0.10227423E-01 0.29085218E+03</pdfrwt>
<pdfrwt beam="2">  1       -2 0.42200962E-01 0.29085218E+03</pdfrwt>
<totfact> 0.33401081E+03</totfact>
</mgrwt>
</event>
<event>
 4    1  0.6782240E-004  0.3503445E+03  0.7818608E-02  0.1062474E+00
          2   -1    0    0  501    0  0.00000000000E+00  0.00000000000E+00  0.12000252051E+03  0.12000252054E+03  0.25500000000E-02 0.  1.
         -2   -1    0    0    0  501 -0.00000000000E+00 -0.00000000000E+00 -0.25570562494E+03  0.25570562495E+03  0.25500000000E-02 0. -1.
    5000001    1    1    2    0    0  0.11643375802E+03 -0.13185308477E+02 -0.18045646410E+03  0.22852616437E+03  0.77000000000E+02 0.  0.
   -5000001    1    1    2    0    0 -0.11643375802E+03  0.13185308477E+02  0.44753359672E+02  0.14718198113E+03  0.77000000000E+02 0.  0.
<mgrwt>
<rscale>  0 0.35034451E+03</rscale>
<asrwt>0</asrwt>
<pdfrwt beam="1">  1        2 0.17143217E-01 0.35034451E+03</pdfrwt>
<pdfrwt beam="2">  1       -2 0.36529375E-01 0.35034451E+03</pdfrwt>
<totfact> 0.23678734E+03</totfact>
</mgrwt>
</event>
<event>
 4    1  0.6782240E-004  0.1809133E+03  0.7818608E-02  0.1166922E+00
          2   -1    0    0  501    0  0.00000000000E+00  0.00000000000E+00  0.10130521079E+03  0.10130521082E+03  0.25500000000E-02 0.  1.
         -2   -1    0    0    0  501 -0.00000000000E+00 -0.00000000000E+00 -0.80769860588E+02  0.80769860628E+02  0.25500000000E-02 0. -1.
    5000001    1    1    2    0    0 -0.94269011997E+01 -0.46252549196E+02  0.15324178406E+02  0.91607833820E+02  0.77000000000E+02 0.  0.
   -5000001    1    1    2    0    0  0.94269011997E+01  0.46252549196E+02  0.52111717995E+01  0.90467237633E+02  0.77000000000E+02 0.  0.
<mgrwt>
<rscale>  0 0.18091332E+03</rscale>
<asrwt>0</asrwt>
<pdfrwt beam="1">  1        2 0.14472173E-01 0.18091332E+03</pdfrwt>
<pdfrwt beam="2">  1       -2 0.11538552E-01 0.18091332E+03</pdfrwt>
<totfact> 0.20409731E+04</totfact>
</mgrwt>
</event>
<event>
 4    1  0.6782240E-004  0.3684738E+03  0.7818608E-02  0.1055278E+00
          2   -1    0    0  501    0  0.00000000000E+00  0.00000000000E+00  0.21816215110E+04  0.21816215110E+04  0.25500000000E-02 0.  1.
         -2   -1    0    0    0  501 -0.00000000000E+00 -0.00000000000E+00 -0.15558716875E+02  0.15558717084E+02  0.25500000000E-02 0. -1.
    5000001    1    1    2    0    0 -0.10777206990E+03  0.47927911141E+02  0.17911475435E+04  0.17966776078E+04  0.77000000000E+02 0.  0.
   -5000001    1    1    2    0    0  0.10777206990E+03 -0.47927911141E+02  0.37491525059E+03  0.40050262027E+03  0.77000000000E+02 0.  0.
<mgrwt>
<rscale>  0 0.36847378E+03</rscale>
<asrwt>0</asrwt>
<pdfrwt beam="1">  1        2 0.31166035E+00 0.36847378E+03</pdfrwt>
<pdfrwt beam="2">  1       -2 0.22226729E-02 0.36847378E+03</pdfrwt>
<totfact> 0.47586684E+03</totfact>
</mgrwt>
</event>
<event>
 4    1  0.6782240E-004  0.4746940E+03  0.7818608E-02  0.1020604E+00
          2   -1    0    0  501    0  0.00000000000E+00  0.00000000000E+00  0.31698611701E+03  0.31698611702E+03  0.25500000000E-02 0.  1.
         -2   -1    0    0    0  501 -0.00000000000E+00 -0.00000000000E+00 -0.17771627823E+03  0.17771627825E+03  0.25500000000E-02 0. -1.
    5000001    1    1    2    0    0 -0.25508254920E+02  0.18761970459E+03  0.19535455106E+03  0.28274409850E+03  0.77000000000E+02 0.  0.
   -5000001    1    1    2    0    0  0.25508254920E+02 -0.18761970459E+03 -0.56084712279E+02  0.21195829677E+03  0.77000000000E+02 0.  0.
<mgrwt>
<rscale>  0 0.47469398E+03</rscale>
<asrwt>0</asrwt>
<pdfrwt beam="1">  1        2 0.45283730E-01 0.47469398E+03</pdfrwt>
<pdfrwt beam="2">  1       -2 0.25388040E-01 0.47469398E+03</pdfrwt>
<totfact> 0.15562630E+03</totfact>
</mgrwt>
</event>
<event>
 4    1  0.6782240E-004  0.1961861E+03  0.7818608E-02  0.1152997E+00
          2   -1    0    0  501    0  0.00000000000E+00  0.00000000000E+00  0.15683039204E+03  0.15683039206E+03  0.25500000000E-02 0.  1.
         -2   -1    0    0    0  501 -0.00000000000E+00 -0.00000000000E+00 -0.61354495301E+02  0.61354495354E+02  0.25500000000E-02 0. -1.
    5000001    1    1    2    0    0  0.21441573744E+02  0.38263723751E+02  0.94518880679E+02  0.12956339161E+03  0.77000000000E+02 0.  0.
   -5000001    1    1    2    0    0 -0.21441573744E+02 -0.38263723751E+02  0.95701606372E+00  0.88621495811E+02  0.77000000000E+02 0.  0.
<mgrwt>
<rscale>  0 0.19618613E+03</rscale>
<asrwt>0</asrwt>
<pdfrwt beam="1">  1        2 0.22404342E-01 0.19618613E+03</pdfrwt>
<pdfrwt beam="2">  1       -2 0.87649279E-02 0.19618613E+03</pdfrwt>
<totfact> 0.19175673E+04</totfact>
</mgrwt>
</event>
<event>
 4    1  0.6782240E-004  0.3040744E+03  0.7818608E-02  0.1083221E+00
          2   -1    0    0  501    0  0.00000000000E+00  0.00000000000E+00  0.56903452702E+02  0.56903452759E+02  0.25500000000E-02 0.  1.
         -2   -1    0    0    0  501 -0.00000000000E+00 -0.00000000000E+00 -0.40621975888E+03  0.40621975889E+03  0.25500000000E-02 0. -1.
    5000001    1    1    2    0    0 -0.29585685326E+02  0.11437109383E+03 -0.26122160868E+03  0.29685314336E+03  0.77000000000E+02 0.  0.
   -5000001    1    1    2    0    0  0.29585685326E+02 -0.11437109383E+03 -0.88094697500E+02  0.16627006829E+03  0.77000000000E+02 0.  0.
<mgrwt>
<rscale>  0 0.30407438E+03</rscale>
<asrwt>0</asrwt>
<pdfrwt beam="1">  1        2 0.81290649E-02 0.30407438E+03</pdfrwt>
<pdfrwt beam="2">  1       -2 0.58031392E-01 0.30407438E+03</pdfrwt>
<totfact> 0.23643519E+03</totfact>
</mgrwt>
</event>
<event>
 4    1  0.6782240E-004  0.2065216E+03  0.7818608E-02  0.1144350E+00
          2   -1    0    0  501    0  0.00000000000E+00  0.00000000000E+00  0.33484735015E+03  0.33484735016E+03  0.25500000000E-02 0.  1.
         -2   -1    0    0    0  501 -0.00000000000E+00 -0.00000000000E+00 -0.31843748617E+02  0.31843748719E+02  0.25500000000E-02 0. -1.
    5000001    1    1    2    0    0 -0.53721960367E+02 -0.16664396509E+02  0.22185611259E+03  0.24148061171E+03  0.77000000000E+02 0.  0.
   -5000001    1    1    2    0    0  0.53721960367E+02  0.16664396509E+02  0.81147488948E+02  0.12521048718E+03  0.77000000000E+02 0.  0.
<mgrwt>
<rscale>  0 0.20652162E+03</rscale>
<asrwt>0</asrwt>
<pdfrwt beam="1">  1        2 0.47835340E-01 0.20652162E+03</pdfrwt>
<pdfrwt beam="2">  1       -2 0.45491065E-02 0.20652162E+03</pdfrwt>
<totfact> 0.23033306E+04</totfact>
</mgrwt>
</event>
<event>
 4    1  0.6782240E-004  0.3237993E+03  0.7818608E-02  0.1073914E+00
          2   -1    0    0  501    0  0.00000000000E+00  0.00000000000E+00  0.21298925035E+04  0.21298925035E+04  0.25500000000E-02 0.  1.
         -2   -1    0    0    0  501 -0.00000000000E+00 -0.00000000000E+00 -0.12306490036E+02  0.12306490300E+02  0.25500000000E-02 0. -1.
    5000001    1    1    2    0    0 -0.32641765931E+02  0.11545300653E+03  0.55115545859E+03  0.56929449420E+03  0.77000000000E+02 0.  0.
   -5000001    1    1    2    0    0  0.32641765931E+02 -0.11545300653E+03  0.15664305549E+04  0.15729044996E+04  0.77000000000E+02 0.  0.
<mgrwt>
<rscale>  0 0.32379933E+03</rscale>
<asrwt>0</asrwt>
<pdfrwt beam="1">  1        2 0.30427030E+00 0.32379933E+03</pdfrwt>
<pdfrwt beam="2">  1       -2 0.17580703E-02 0.32379933E+03</pdfrwt>
<totfact> 0.71431303E+03</totfact>
</mgrwt>
</event>
<event>
 4    1  0.6782240E-004  0.2010962E+03  0.7818608E-02  0.1148817E+00
          2   -1    0    0  501    0  0.00000000000E+00  0.00000000000E+00  0.19270276454E+03  0.19270276455E+03  0.25500000000E-02 0.  1.
         -2   -1    0    0    0  501 -0.00000000000E+00 -0.00000000000E+00 -0.52463807703E+02  0.52463807765E+02  0.25500000000E-02 0. -1.
    5000001    1    1    2    0    0 -0.52501931176E+02 -0.37484920403E+02  0.75482183581E+02  0.12565083395E+03  0.77000000000E+02 0.  0.
   -5000001    1    1    2    0    0  0.52501931176E+02  0.37484920403E+02  0.64756773251E+02  0.11951573836E+03  0.77000000000E+02 0.  0.
<mgrwt>
<rscale>  0 0.20109620E+03</rscale>
<asrwt>0</asrwt>
<pdfrwt beam="1">  1        2 0.27528967E-01 0.20109620E+03</pdfrwt>
<pdfrwt beam="2">  1       -2 0.74948296E-02 0.20109620E+03</pdfrwt>
<totfact> 0.19491620E+04</totfact>
</mgrwt>
</event>
<event>
 4    1  0.6782240E-004  0.1740316E+03  0.7818608E-02  0.1173708E+00
          2   -1    0    0  501    0  0.00000000000E+00  0.00000000000E+00  0.13372887924E+03  0.13372887927E+03  0.25500000000E-02 0.  1.
         -2   -1    0    0    0  501 -0.00000000000E+00 -0.00000000000E+00 -0.56620149131E+02  0.56620149189E+02  0.25500000000E-02 0. -1.
    5000001    1    1    2    0    0  0.36063332527E+02 -0.17344744225E+02  0.45587257898E+02  0.98023477738E+02  0.77000000000E+02 0.  0.
   -5000001    1    1    2    0    0 -0.36063332527E+02  0.17344744225E+02  0.31521472215E+02  0.92325550720E+02  0.77000000000E+02 0.  0.
<mgrwt>
<rscale>  0 0.17403160E+03</rscale>
<asrwt>0</asrwt>
<pdfrwt beam="1">  1        2 0.19104126E-01 0.17403160E+03</pdfrwt>
<pdfrwt beam="2">  1       -2 0.80885927E-02 0.17403160E+03</pdfrwt>
<totfact> 0.25768632E+04</totfact>
</mgrwt>
</event>
<event>
 4    1  0.6782240E-004  0.1946710E+03  0.7818608E-02  0.1154315E+00
          2   -1    0    0  501    0  0.00000000000E+00  0.00000000000E+00  0.31120956852E+02  0.31120956957E+02  0.25500000000E-02 0.  1.
         -2   -1    0    0    0  501 -0.00000000000E+00 -0.00000000000E+00 -0.30443157097E+03  0.30443157098E+03  0.25500000000E-02 0. -1.
    5000001    1    1    2    0    0 -0.16832157844E+02  0.56088075320E+02 -0.11808994982E+03  0.15265461008E+03  0.77000000000E+02 0.  0.
   -5000001    1    1    2    0    0  0.16832157844E+02 -0.56088075320E+02 -0.15522066429E+03  0.18289791785E+03  0.77000000000E+02 0.  0.
<mgrwt>
<rscale>  0 0.19467102E+03</rscale>
<asrwt>0</asrwt>
<pdfrwt beam="1">  1        2 0.44458512E-02 0.19467102E+03</pdfrwt>
<pdfrwt beam="2">  1       -2 0.43490223E-01 0.19467102E+03</pdfrwt>
<totfact> 0.90224862E+03</totfact>
</mgrwt>
</event>
<event>
 4    1  0.6782240E-004  0.3622638E+03  0.7818608E-02  0.1057691E+00
         -2   -1    0    0    0  501 -0.00000000000E+00  0.00000000000E+00  0.16251179121E+02  0.16251179321E+02  0.25500000000E-02 0. -1.
          2   -1    0    0  501    0  0.00000000000E+00 -0.00000000000E+00 -0.20188542903E+04  0.20188542903E+04  0.25500000000E-02 0.  1.
    5000001    1    1    2    0    0 -0.15855811742E+03  0.15023154269E+02 -0.12198449028E+04  0.12326057596E+04  0.77000000000E+02 0.  0.
   -5000001    1    1    2    0    0  0.15855811742E+03 -0.15023154269E+02 -0.78275820836E+03  0.80249970999E+03  0.77000000000E+02 0.  0.
<mgrwt>
<rscale>  0 0.36226379E+03</rscale>
<asrwt>0</asrwt>
<pdfrwt beam="1">  1        2 0.28840760E+00 0.36226379E+03</pdfrwt>
<pdfrwt beam="2">  1       -2 0.23215983E-02 0.36226379E+03</pdfrwt>
<totfact> 0.53663902E+03</totfact>
</mgrwt>
</event>
<event>
 4    1  0.6782240E-004  0.1941354E+03  0.7818608E-02  0.1154783E+00
         -2   -1    0    0    0  501 -0.00000000000E+00  0.00000000000E+00  0.14206460336E+02  0.14206460565E+02  0.25500000000E-02 0. -1.
          2   -1    0    0  501    0  0.00000000000E+00 -0.00000000000E+00 -0.66322912294E+03  0.66322912294E+03  0.25500000000E-02 0.  1.
    5000001    1    1    2    0    0  0.35829541869E+02  0.27181096756E+02 -0.19069591338E+03  0.21051484382E+03  0.77000000000E+02 0.  0.
   -5000001    1    1    2    0    0 -0.35829541869E+02 -0.27181096756E+02 -0.45832674922E+03  0.46692073968E+03  0.77000000000E+02 0.  0.
<mgrwt>
<rscale>  0 0.19413540E+03</rscale>
<asrwt>0</asrwt>
<pdfrwt beam="1">  1        2 0.94746998E-01 0.19413540E+03</pdfrwt>
<pdfrwt beam="2">  1       -2 0.20294948E-02 0.19413540E+03</pdfrwt>
<totfact> 0.35799815E+04</totfact>
</mgrwt>
</event>
<event>
 4    1  0.6782240E-004  0.2078820E+03  0.7818608E-02  0.1143254E+00
          2   -1    0    0  501    0  0.00000000000E+00  0.00000000000E+00  0.86024060454E+03  0.86024060455E+03  0.25500000000E-02 0.  1.
         -2   -1    0    0    0  501 -0.00000000000E+00 -0.00000000000E+00 -0.12558962248E+02  0.12558962507E+02  0.25500000000E-02 0. -1.
    5000001    1    1    2    0    0 -0.29737211957E+02  0.47881010360E+02  0.59684062308E+03  0.60442089829E+03  0.77000000000E+02 0.  0.
   -5000001    1    1    2    0    0  0.29737211957E+02 -0.47881010360E+02  0.25084101921E+03  0.26837866877E+03  0.77000000000E+02 0.  0.
<mgrwt>
<rscale>  0 0.20788198E+03</rscale>
<asrwt>0</asrwt>
<pdfrwt beam="1">  1        2 0.12289155E+00 0.20788198E+03</pdfrwt>
<pdfrwt beam="2">  1       -2 0.17941370E-02 0.20788198E+03</pdfrwt>
<totfact> 0.31487127E+04</totfact>
</mgrwt>
</event>
<event>
 4    1  0.6782240E-004  0.5015778E+03  0.7818608E-02  0.1013368E+00
         -2   -1    0    0    0  501 -0.00000000000E+00  0.00000000000E+00  0.21863853449E+03  0.21863853450E+03  0.25500000000E-02 0. -1.
          2   -1    0    0  501    0  0.00000000000E+00 -0.00000000000E+00 -0.28766685881E+03  0.28766685882E+03  0.25500000000E-02 0.  1.
    5000001    1    1    2    0    0 -0.56351306717E+02 -0.22326387108E+03 -0.97906042157E+02  0.26179537618E+03  0.77000000000E+02 0.  0.
   -5000001    1    1    2    0    0  0.56351306717E+02  0.22326387108E+03  0.28877717831E+02  0.24451001715E+03  0.77000000000E+02 0.  0.
<mgrwt>
<rscale>  0 0.50157775E+03</rscale>
<asrwt>0</asrwt>
<pdfrwt beam="1">  1        2 0.41095265E-01 0.50157775E+03</pdfrwt>
<pdfrwt beam="2">  1       -2 0.31234077E-01 0.50157775E+03</pdfrwt>
<totfact> 0.11872059E+03</totfact>
</mgrwt>
</event>
<event>
 4    1  0.6782240E-004  0.2284130E+03  0.7818608E-02  0.1127762E+00
          2   -1    0    0  501    0  0.00000000000E+00  0.00000000000E+00  0.31273627208E+03  0.31273627209E+03  0.25500000000E-02 0.  1.
         -2   -1    0    0    0  501 -0.00000000000E+00 -0.00000000000E+00 -0.41706449567E+02  0.41706449645E+02  0.25500000000E-02 0. -1.
    5000001    1    1    2    0    0  0.21366944723E+02 -0.79251309737E+02  0.16563682727E+03  0.20025452547E+03  0.77000000000E+02 0.  0.
   -5000001    1    1    2    0    0 -0.21366944723E+02  0.79251309737E+02  0.10539299524E+03  0.15418819626E+03  0.77000000000E+02 0.  0.
<mgrwt>
<rscale>  0 0.22841296E+03</rscale>
<asrwt>0</asrwt>
<pdfrwt beam="1">  1        2 0.44676612E-01 0.22841296E+03</pdfrwt>
<pdfrwt beam="2">  1       -2 0.59580640E-02 0.22841296E+03</pdfrwt>
<totfact> 0.16572282E+04</totfact>
</mgrwt>
</event>
<event>
 4    1  0.6782240E-004  0.2328056E+03  0.7818608E-02  0.1124680E+00
          2   -1    0    0  501    0  0.00000000000E+00  0.00000000000E+00  0.90346958643E+03  0.90346958644E+03  0.25500000000E-02 0.  1.
         -2   -1    0    0    0  501 -0.00000000000E+00 -0.00000000000E+00 -0.14997308533E+02  0.14997308750E+02  0.25500000000E-02 0. -1.
    5000001    1    1    2    0    0  0.71311621380E+02 -0.50263344321E+02  0.45598008934E+03  0.47059387268E+03  0.77000000000E+02 0.  0.
   -5000001    1    1    2    0    0 -0.71311621380E+02  0.50263344321E+02  0.43249218856E+03  0.44787302251E+03  0.77000000000E+02 0.  0.
<mgrwt>
<rscale>  0 0.23280560E+03</rscale>
<asrwt>0</asrwt>
<pdfrwt beam="1">  1        2 0.12906712E+00 0.23280560E+03</pdfrwt>
<pdfrwt beam="2">  1       -2 0.21424721E-02 0.23280560E+03</pdfrwt>
<totfact> 0.22976971E+04</totfact>
</mgrwt>
</event>
<event>
 4    1  0.6782240E-004  0.2992010E+03  0.7818608E-02  0.1085641E+00
         -2   -1    0    0    0  501 -0.00000000000E+00  0.00000000000E+00  0.33431065841E+02  0.33431065939E+02  0.25500000000E-02 0. -1.
          2   -1    0    0  501    0  0.00000000000E+00 -0.00000000000E+00 -0.66944664303E+03  0.66944664304E+03  0.25500000000E-02 0.  1.
    5000001    1    1    2    0    0 -0.10728751223E+03  0.67848101100E+02 -0.36115477103E+03  0.39048142560E+03  0.77000000000E+02 0.  0.
   -5000001    1    1    2    0    0  0.10728751223E+03 -0.67848101100E+02 -0.27486080616E+03  0.31239628338E+03  0.77000000000E+02 0.  0.
<mgrwt>
<rscale>  0 0.29920104E+03</rscale>
<asrwt>0</asrwt>
<pdfrwt beam="1">  1        2 0.95635227E-01 0.29920104E+03</pdfrwt>
<pdfrwt beam="2">  1       -2 0.47758670E-02 0.29920104E+03</pdfrwt>
<totfact> 0.10157518E+04</totfact>
</mgrwt>
</event>
<event>
 4    1  0.6782240E-004  0.2248217E+03  0.7818608E-02  0.1130338E+00
          2   -1    0    0  501    0  0.00000000000E+00  0.00000000000E+00  0.65635935636E+01  0.65635940590E+01  0.25500000000E-02 0.  1.
         -2   -1    0    0    0  501 -0.00000000000E+00 -0.00000000000E+00 -0.19251954351E+04  0.19251954351E+04  0.25500000000E-02 0. -1.
    5000001    1    1    2    0    0  0.72564254948E+02  0.34285033395E+02 -0.10994975736E+04  0.11051085689E+04  0.77000000000E+02 0.  0.
   -5000001    1    1    2    0    0 -0.72564254948E+02 -0.34285033395E+02 -0.81913426794E+03  0.82665046030E+03  0.77000000000E+02 0.  0.
<mgrwt>
<rscale>  0 0.22482171E+03</rscale>
<asrwt>0</asrwt>
<pdfrwt beam="1">  1        2 0.93765749E-03 0.22482171E+03</pdfrwt>
<pdfrwt beam="2">  1       -2 0.27502756E+00 0.22482171E+03</pdfrwt>
<totfact> 0.80530021E+02</totfact>
</mgrwt>
</event>
<event>
 4    1  0.6782240E-004  0.2058966E+03  0.7818608E-02  0.1144857E+00
          2   -1    0    0  501    0  0.00000000000E+00  0.00000000000E+00  0.20737087601E+04  0.20737087601E+04  0.25500000000E-02 0.  1.
         -2   -1    0    0    0  501 -0.00000000000E+00 -0.00000000000E+00 -0.51108219758E+01  0.51108226119E+01  0.25500000000E-02 0. -1.
    5000001    1    1    2    0    0 -0.61777697970E+02  0.15466170882E+02  0.12844113414E+04  0.12882923505E+04  0.77000000000E+02 0.  0.
   -5000001    1    1    2    0    0  0.61777697970E+02 -0.15466170882E+02  0.78418659669E+03  0.79052723219E+03  0.77000000000E+02 0.  0.
<mgrwt>
<rscale>  0 0.20589664E+03</rscale>
<asrwt>0</asrwt>
<pdfrwt beam="1">  1        2 0.29624427E+00 0.20589664E+03</pdfrwt>
<pdfrwt beam="2">  1       -2 0.73011708E-03 0.20589664E+03</pdfrwt>
<totfact> 0.27014168E+04</totfact>
</mgrwt>
</event>
<event>
 4    1  0.6782240E-004  0.8483337E+03  0.7818608E-02  0.9492576E-01
         -2   -1    0    0    0  501 -0.00000000000E+00  0.00000000000E+00  0.36035936049E+03  0.36035936050E+03  0.25500000000E-02 0. -1.
          2   -1    0    0  501    0  0.00000000000E+00 -0.00000000000E+00 -0.49927246192E+03  0.49927246193E+03  0.25500000000E-02 0.  1.
    5000001    1    1    2    0    0 -0.33683636132E+03 -0.73334216526E+02  0.16851545658E+03  0.39136057636E+03  0.77000000000E+02 0.  0.
   -5000001    1    1    2    0    0  0.33683636132E+03  0.73334216526E+02 -0.30742855801E+03  0.46827124607E+03  0.77000000000E+02 0.  0.
<mgrwt>
<rscale>  0 0.84833367E+03</rscale>
<asrwt>0</asrwt>
<pdfrwt beam="1">  1        2 0.71324637E-01 0.84833367E+03</pdfrwt>
<pdfrwt beam="2">  1       -2 0.51479909E-01 0.84833367E+03</pdfrwt>
<totfact> 0.24092286E+02</totfact>
</mgrwt>
</event>
<event>
 4    1  0.6782240E-004  0.2205599E+03  0.7818608E-02  0.1133466E+00
          2   -1    0    0  501    0  0.00000000000E+00  0.00000000000E+00  0.16131278098E+04  0.16131278098E+04  0.25500000000E-02 0.  1.
         -2   -1    0    0    0  501 -0.00000000000E+00 -0.00000000000E+00 -0.75391819664E+01  0.75391823976E+01  0.25500000000E-02 0. -1.
    5000001    1    1    2    0    0 -0.74203488452E+02 -0.32561944817E+01  0.60618926780E+03  0.61555762435E+03  0.77000000000E+02 0.  0.
   -5000001    1    1    2    0    0  0.74203488452E+02  0.32561944817E+01  0.99939936000E+03  0.10051093678E+04  0.77000000000E+02 0.  0.
<mgrwt>
<rscale>  0 0.22055987E+03</rscale>
<asrwt>0</asrwt>
<pdfrwt beam="1">  1        2 0.23044675E+00 0.22055987E+03</pdfrwt>
<pdfrwt beam="2">  1       -2 0.10770264E-02 0.22055987E+03</pdfrwt>
<totfact> 0.25897161E+04</totfact>
</mgrwt>
</event>
<event>
 4    1  0.6782240E-004  0.3101654E+03  0.7818608E-02  0.1080267E+00
          2   -1    0    0  501    0  0.00000000000E+00  0.00000000000E+00  0.40360799276E+03  0.40360799277E+03  0.25500000000E-02 0.  1.
         -2   -1    0    0    0  501 -0.00000000000E+00 -0.00000000000E+00 -0.59589099800E+02  0.59589099854E+02  0.25500000000E-02 0. -1.
    5000001    1    1    2    0    0 -0.98528827480E+02  0.86246922700E+02  0.12537423845E+03  0.19696233443E+03  0.77000000000E+02 0.  0.
   -5000001    1    1    2    0    0  0.98528827480E+02 -0.86246922700E+02  0.21864465451E+03  0.26623475819E+03  0.77000000000E+02 0.  0.
<mgrwt>
<rscale>  0 0.31016536E+03</rscale>
<asrwt>0</asrwt>
<pdfrwt beam="1">  1        2 0.57658284E-01 0.31016536E+03</pdfrwt>
<pdfrwt beam="2">  1       -2 0.85127287E-02 0.31016536E+03</pdfrwt>
<totfact> 0.73450934E+03</totfact>
</mgrwt>
</event>
<event>
 4    1  0.6782240E-004  0.2026803E+03  0.7818608E-02  0.1147497E+00
          2   -1    0    0  501    0  0.00000000000E+00  0.00000000000E+00  0.73787120518E+03  0.73787120518E+03  0.25500000000E-02 0.  1.
         -2   -1    0    0    0  501 -0.00000000000E+00 -0.00000000000E+00 -0.13918188272E+02  0.13918188505E+02  0.25500000000E-02 0. -1.
    5000001    1    1    2    0    0  0.23676538915E+02 -0.48209071938E+02  0.50351863951E+03  0.51219597172E+03  0.77000000000E+02 0.  0.
   -5000001    1    1    2    0    0 -0.23676538915E+02  0.48209071938E+02  0.22043437740E+03  0.23959342197E+03  0.77000000000E+02 0.  0.
<mgrwt>
<rscale>  0 0.20268034E+03</rscale>
<asrwt>0</asrwt>
<pdfrwt beam="1">  1        2 0.10541016E+00 0.20268034E+03</pdfrwt>
<pdfrwt beam="2">  1       -2 0.19883129E-02 0.20268034E+03</pdfrwt>
<totfact> 0.32649501E+04</totfact>
</mgrwt>
</event>
<event>
 4    1  0.6782240E-004  0.3038814E+03  0.7818608E-02  0.1083316E+00
         -2   -1    0    0    0  501 -0.00000000000E+00  0.00000000000E+00  0.12040852690E+02  0.12040852960E+02  0.25500000000E-02 0. -1.
          2   -1    0    0  501    0  0.00000000000E+00 -0.00000000000E+00 -0.19173036097E+04  0.19173036097E+04  0.25500000000E-02 0.  1.
    5000001    1    1    2    0    0 -0.37435716661E+02  0.10365033488E+03 -0.14021188130E+04  0.14085492504E+04  0.77000000000E+02 0.  0.
   -5000001    1    1    2    0    0  0.37435716661E+02 -0.10365033488E+03 -0.50314394394E+03  0.52079521227E+03  0.77000000000E+02 0.  0.
<mgrwt>
<rscale>  0 0.30388136E+03</rscale>
<asrwt>0</asrwt>
<pdfrwt beam="1">  1        2 0.27390032E+00 0.30388136E+03</pdfrwt>
<pdfrwt beam="2">  1       -2 0.17201231E-02 0.30388136E+03</pdfrwt>
<totfact> 0.93717972E+03</totfact>
</mgrwt>
</event>
<event>
 4    1  0.6782240E-004  0.2161730E+03  0.7818608E-02  0.1136769E+00
         -2   -1    0    0    0  501 -0.00000000000E+00  0.00000000000E+00  0.34140355033E+02  0.34140355129E+02  0.25500000000E-02 0. -1.
          2   -1    0    0  501    0  0.00000000000E+00 -0.00000000000E+00 -0.34219593094E+03  0.34219593095E+03  0.25500000000E-02 0.  1.
    5000001    1    1    2    0    0  0.65596773516E+02 -0.37229372705E+02 -0.14002160591E+03  0.17670317770E+03  0.77000000000E+02 0.  0.
   -5000001    1    1    2    0    0 -0.65596773516E+02  0.37229372705E+02 -0.16803397000E+03  0.19963310838E+03  0.77000000000E+02 0.  0.
<mgrwt>
<rscale>  0 0.21617299E+03</rscale>
<asrwt>0</asrwt>
<pdfrwt beam="1">  1        2 0.48885131E-01 0.21617299E+03</pdfrwt>
<pdfrwt beam="2">  1       -2 0.48771938E-02 0.21617299E+03</pdfrwt>
<totfact> 0.20326559E+04</totfact>
</mgrwt>
</event>
<event>
 4    1  0.6782240E-004  0.4608437E+03  0.7818608E-02  0.1024537E+00
          2   -1    0    0  501    0  0.00000000000E+00  0.00000000000E+00  0.20630031829E+03  0.20630031830E+03  0.25500000000E-02 0.  1.
         -2   -1    0    0    0  501 -0.00000000000E+00 -0.00000000000E+00 -0.25736375556E+03  0.25736375557E+03  0.25500000000E-02 0. -1.
    5000001    1    1    2    0    0  0.19294891850E+03  0.69936324695E+02 -0.96993516742E+02  0.23970214215E+03  0.77000000000E+02 0.  0.
   -5000001    1    1    2    0    0 -0.19294891850E+03 -0.69936324695E+02  0.45930079466E+02  0.22396193172E+03  0.77000000000E+02 0.  0.
<mgrwt>
<rscale>  0 0.46084368E+03</rscale>
<asrwt>0</asrwt>
<pdfrwt beam="1">  1        2 0.29471474E-01 0.46084368E+03</pdfrwt>
<pdfrwt beam="2">  1       -2 0.36766251E-01 0.46084368E+03</pdfrwt>
<totfact> 0.12625910E+03</totfact>
</mgrwt>
</event>
<event>
 4    1  0.6782240E-004  0.3028699E+03  0.7818608E-02  0.1083815E+00
         -2   -1    0    0    0  501 -0.00000000000E+00  0.00000000000E+00  0.82013492584E+03  0.82013492584E+03  0.25500000000E-02 0. -1.
          2   -1    0    0  501    0  0.00000000000E+00 -0.00000000000E+00 -0.27961922504E+02  0.27961922620E+02  0.25500000000E-02 0.  1.
    5000001    1    1    2    0    0  0.12664960906E+03 -0.25360077100E+02  0.34597210133E+03  0.37723858748E+03  0.77000000000E+02 0.  0.
   -5000001    1    1    2    0    0 -0.12664960906E+03  0.25360077100E+02  0.44620090200E+03  0.47085826098E+03  0.77000000000E+02 0.  0.
<mgrwt>
<rscale>  0 0.30286993E+03</rscale>
<asrwt>0</asrwt>
<pdfrwt beam="1">  1        2 0.39945605E-02 0.30286993E+03</pdfrwt>
<pdfrwt beam="2">  1       -2 0.11716213E+00 0.30286993E+03</pdfrwt>
<totfact> 0.12541129E+03</totfact>
</mgrwt>
</event>
<event>
 4    1  0.6782240E-004  0.4315393E+03  0.7818608E-02  0.1033375E+00
          2   -1    0    0  501    0  0.00000000000E+00  0.00000000000E+00  0.53558448908E+03  0.53558448909E+03  0.25500000000E-02 0.  1.
         -2   -1    0    0    0  501 -0.00000000000E+00 -0.00000000000E+00 -0.86926607661E+02  0.86926607698E+02  0.25500000000E-02 0. -1.
    5000001    1    1    2    0    0 -0.15122838519E+03  0.52927325245E+02  0.47913086295E+02  0.18410863664E+03  0.77000000000E+02 0.  0.
   -5000001    1    1    2    0    0  0.15122838519E+03 -0.52927325245E+02  0.40074479513E+03  0.43840246015E+03  0.77000000000E+02 0.  0.
<mgrwt>
<rscale>  0 0.43153930E+03</rscale>
<asrwt>0</asrwt>
<pdfrwt beam="1">  1        2 0.76512068E-01 0.43153930E+03</pdfrwt>
<pdfrwt beam="2">  1       -2 0.12418087E-01 0.43153930E+03</pdfrwt>
<totfact> 0.29499717E+03</totfact>
</mgrwt>
</event>
<event>
 4    1  0.6782240E-004  0.1418527E+04  0.7818608E-02  0.8940516E-01
         -2   -1    0    0    0  501 -0.00000000000E+00  0.00000000000E+00  0.21532907516E+03  0.21532907517E+03  0.25500000000E-02 0. -1.
          2   -1    0    0  501    0  0.00000000000E+00 -0.00000000000E+00 -0.23362138601E+04  0.23362138601E+04  0.25500000000E-02 0.  1.
    5000001    1    1    2    0    0 -0.33406885041E+03 -0.24295327937E+03 -0.20882342300E+04  0.21300890808E+04  0.77000000000E+02 0.  0.
   -5000001    1    1    2    0    0  0.33406885041E+03  0.24295327937E+03 -0.32650555011E+02  0.42145385455E+03  0.77000000000E+02 0.  0.
<mgrwt>
<rscale>  0 0.14185271E+04</rscale>
<asrwt>0</asrwt>
<pdfrwt beam="1">  1        2 0.33374482E+00 0.14185271E+04</pdfrwt>
<pdfrwt beam="2">  1       -2 0.30761298E-01 0.14185271E+04</pdfrwt>
<totfact> 0.51217793E+01</totfact>
</mgrwt>
</event>
<event>
 4    1  0.6782240E-004  0.1642609E+03  0.7818608E-02  0.1183968E+00
         -2   -1    0    0    0  501 -0.00000000000E+00  0.00000000000E+00  0.10515690749E+02  0.10515691058E+02  0.25500000000E-02 0. -1.
          2   -1    0    0  501    0  0.00000000000E+00 -0.00000000000E+00 -0.64146160961E+03  0.64146160962E+03  0.25500000000E-02 0.  1.
    5000001    1    1    2    0    0 -0.87518814441E+01  0.26829245369E+02 -0.33322719741E+03  0.34317017489E+03  0.77000000000E+02 0.  0.
   -5000001    1    1    2    0    0  0.87518814441E+01 -0.26829245369E+02 -0.29771872145E+03  0.30880712579E+03  0.77000000000E+02 0.  0.
<mgrwt>
<rscale>  0 0.16426091E+03</rscale>
<asrwt>0</asrwt>
<pdfrwt beam="1">  1        2 0.91637348E-01 0.16426091E+03</pdfrwt>
<pdfrwt beam="2">  1       -2 0.15022420E-02 0.16426091E+03</pdfrwt>
<totfact> 0.56750273E+04</totfact>
</mgrwt>
</event>
<event>
 4    1  0.6782240E-004  0.2931835E+03  0.7818608E-02  0.1088699E+00
          2   -1    0    0  501    0  0.00000000000E+00  0.00000000000E+00  0.25170999774E+03  0.25170999775E+03  0.25500000000E-02 0.  1.
         -2   -1    0    0    0  501 -0.00000000000E+00 -0.00000000000E+00 -0.85372589958E+02  0.85372589997E+02  0.25500000000E-02 0. -1.
    5000001    1    1    2    0    0  0.57917781551E+02 -0.10755266134E+03  0.11221146144E+03  0.18287278764E+03  0.77000000000E+02 0.  0.
   -5000001    1    1    2    0    0 -0.57917781551E+02  0.10755266134E+03  0.54125946344E+02  0.15420980011E+03  0.77000000000E+02 0.  0.
<mgrwt>
<rscale>  0 0.29318345E+03</rscale>
<asrwt>0</asrwt>
<pdfrwt beam="1">  1        2 0.35958571E-01 0.29318345E+03</pdfrwt>
<pdfrwt beam="2">  1       -2 0.12196084E-01 0.29318345E+03</pdfrwt>
<totfact> 0.68823109E+03</totfact>
</mgrwt>
</event>
<event>
 4    1  0.6782240E-004  0.2168120E+03  0.7818608E-02  0.1136282E+00
          2   -1    0    0  501    0  0.00000000000E+00  0.00000000000E+00  0.15407829764E+04  0.15407829764E+04  0.25500000000E-02 0.  1.
         -2   -1    0    0    0  501 -0.00000000000E+00 -0.00000000000E+00 -0.76272031019E+01  0.76272035282E+01  0.25500000000E-02 0. -1.
    5000001    1    1    2    0    0 -0.74095873484E+02 -0.18198966516E+02  0.77521959613E+03  0.78276166428E+03  0.77000000000E+02 0.  0.
   -5000001    1    1    2    0    0  0.74095873484E+02  0.18198966516E+02  0.75793617712E+03  0.76564851560E+03  0.77000000000E+02 0.  0.
<mgrwt>
<rscale>  0 0.21681204E+03</rscale>
<asrwt>0</asrwt>
<pdfrwt beam="1">  1        2 0.22011183E+00 0.21681204E+03</pdfrwt>
<pdfrwt beam="2">  1       -2 0.10896006E-02 0.21681204E+03</pdfrwt>
<totfact> 0.27632432E+04</totfact>
</mgrwt>
</event>
<event>
 4    1  0.6782240E-004  0.3530326E+03  0.7818608E-02  0.1061377E+00
          2   -1    0    0  501    0  0.00000000000E+00  0.00000000000E+00  0.41553040072E+02  0.41553040151E+02  0.25500000000E-02 0.  1.
         -2   -1    0    0    0  501 -0.00000000000E+00 -0.00000000000E+00 -0.74983706759E+03  0.74983706759E+03  0.25500000000E-02 0. -1.
    5000001    1    1    2    0    0  0.13612443707E+03 -0.81596162659E+02 -0.33975084212E+03  0.38281513927E+03  0.77000000000E+02 0.  0.
   -5000001    1    1    2    0    0 -0.13612443707E+03  0.81596162659E+02 -0.36853318539E+03  0.40857496848E+03  0.77000000000E+02 0.  0.
<mgrwt>
<rscale>  0 0.35303263E+03</rscale>
<asrwt>0</asrwt>
<pdfrwt beam="1">  1        2 0.59361490E-02 0.35303263E+03</pdfrwt>
<pdfrwt beam="2">  1       -2 0.10711957E+00 0.35303263E+03</pdfrwt>
<totfact> 0.91953898E+02</totfact>
</mgrwt>
</event>
<event>
 4    1  0.6782240E-004  0.2375215E+03  0.7818608E-02  0.1121455E+00
         -2   -1    0    0    0  501 -0.00000000000E+00  0.00000000000E+00  0.18144085555E+03  0.18144085557E+03  0.25500000000E-02 0. -1.
          2   -1    0    0  501    0  0.00000000000E+00 -0.00000000000E+00 -0.77733963384E+02  0.77733963425E+02  0.25500000000E-02 0.  1.
    5000001    1    1    2    0    0  0.86902523761E+02 -0.24450378456E+02  0.57336169709E+02  0.13178128091E+03  0.77000000000E+02 0.  0.
   -5000001    1    1    2    0    0 -0.86902523761E+02  0.24450378456E+02  0.46370722455E+02  0.12739353808E+03  0.77000000000E+02 0.  0.
<mgrwt>
<rscale>  0 0.23752151E+03</rscale>
<asrwt>0</asrwt>
<pdfrwt beam="1">  1        2 0.11104852E-01 0.23752151E+03</pdfrwt>
<pdfrwt beam="2">  1       -2 0.25920123E-01 0.23752151E+03</pdfrwt>
<totfact> 0.73645603E+03</totfact>
</mgrwt>
</event>
<event>
 4    1  0.6782240E-004  0.3092506E+03  0.7818608E-02  0.1080706E+00
         -2   -1    0    0    0  501 -0.00000000000E+00  0.00000000000E+00  0.96158692960E+01  0.96158696341E+01  0.25500000000E-02 0. -1.
          2   -1    0    0  501    0  0.00000000000E+00 -0.00000000000E+00 -0.24864082820E+04  0.24864082820E+04  0.25500000000E-02 0.  1.
    5000001    1    1    2    0    0 -0.19748343792E+02 -0.12291648270E+03 -0.16404619388E+04  0.16469799123E+04  0.77000000000E+02 0.  0.
   -5000001    1    1    2    0    0  0.19748343792E+02  0.12291648270E+03 -0.83633047387E+03  0.84904423932E+03  0.77000000000E+02 0.  0.
<mgrwt>
<rscale>  0 0.30925056E+03</rscale>
<asrwt>0</asrwt>
<pdfrwt beam="1">  1        2 0.35520077E+00 0.30925056E+03</pdfrwt>
<pdfrwt beam="2">  1       -2 0.13736972E-02 0.30925056E+03</pdfrwt>
<totfact> 0.68361336E+03</totfact>
</mgrwt>
</event>
<event>
 4    1  0.6782240E-004  0.2454516E+03  0.7818608E-02  0.1116213E+00
         -2   -1    0    0    0  501 -0.00000000000E+00  0.00000000000E+00  0.11857472085E+02  0.11857472359E+02  0.25500000000E-02 0. -1.
          2   -1    0    0  501    0  0.00000000000E+00 -0.00000000000E+00 -0.12702223662E+04  0.12702223663E+04  0.25500000000E-02 0.  1.
    5000001    1    1    2    0    0 -0.32137011615E+02  0.43089587265E+02 -0.10418973987E+04  0.10461207815E+04  0.77000000000E+02 0.  0.
   -5000001    1    1    2    0    0  0.32137011615E+02 -0.43089587265E+02 -0.21646749549E+03  0.23595905714E+03  0.77000000000E+02 0.  0.
<mgrwt>
<rscale>  0 0.24545164E+03</rscale>
<asrwt>0</asrwt>
<pdfrwt beam="1">  1        2 0.18146025E+00 0.24545164E+03</pdfrwt>
<pdfrwt beam="2">  1       -2 0.16939254E-02 0.24545164E+03</pdfrwt>
<totfact> 0.20128919E+04</totfact>
</mgrwt>
</event>
<event>
 4    1  0.6782240E-004  0.2513311E+03  0.7818608E-02  0.1112466E+00
         -2   -1    0    0    0  501 -0.00000000000E+00  0.00000000000E+00  0.23842133899E+03  0.23842133900E+03  0.25500000000E-02 0. -1.
          2   -1    0    0  501    0  0.00000000000E+00 -0.00000000000E+00 -0.66234981269E+02  0.66234981318E+02  0.25500000000E-02 0.  1.
    5000001    1    1    2    0    0 -0.76208543441E+02  0.54874281035E+02  0.12525782725E+03  0.17446332594E+03  0.77000000000E+02 0.  0.
   -5000001    1    1    2    0    0  0.76208543441E+02 -0.54874281035E+02  0.46928530473E+02  0.13019299438E+03  0.77000000000E+02 0.  0.
<mgrwt>
<rscale>  0 0.25133112E+03</rscale>
<asrwt>0</asrwt>
<pdfrwt beam="1">  1        2 0.94621405E-02 0.25133112E+03</pdfrwt>
<pdfrwt beam="2">  1       -2 0.34060190E-01 0.25133112E+03</pdfrwt>
<totfact> 0.54890385E+03</totfact>
</mgrwt>
</event>
<event>
 4    1  0.6782240E-004  0.4299017E+03  0.7818608E-02  0.1033891E+00
         -2   -1    0    0    0  501 -0.00000000000E+00  0.00000000000E+00  0.63064464541E+02  0.63064464593E+02  0.25500000000E-02 0. -1.
          2   -1    0    0  501    0  0.00000000000E+00 -0.00000000000E+00 -0.73264499137E+03  0.73264499137E+03  0.25500000000E-02 0.  1.
    5000001    1    1    2    0    0  0.14877313318E+03  0.15391441957E+02 -0.58245646622E+03  0.60626304249E+03  0.77000000000E+02 0.  0.
   -5000001    1    1    2    0    0 -0.14877313318E+03 -0.15391441957E+02 -0.87124060602E+02  0.18944641347E+03  0.77000000000E+02 0.  0.
<mgrwt>
<rscale>  0 0.42990168E+03</rscale>
<asrwt>0</asrwt>
<pdfrwt beam="1">  1        2 0.10466357E+00 0.42990168E+03</pdfrwt>
<pdfrwt beam="2">  1       -2 0.90092097E-02 0.42990168E+03</pdfrwt>
<totfact> 0.34270492E+03</totfact>
</mgrwt>
</event>
<event>
 4    1  0.6782240E-004  0.2175714E+03  0.7818608E-02  0.1135707E+00
          2   -1    0    0  501    0  0.00000000000E+00  0.00000000000E+00  0.31454285121E+03  0.31454285122E+03  0.25500000000E-02 0.  1.
         -2   -1    0    0    0  501 -0.00000000000E+00 -0.00000000000E+00 -0.37623893266E+02  0.37623893353E+02  0.25500000000E-02 0. -1.
    5000001    1    1    2    0    0 -0.66867312169E+02 -0.34653408464E+02  0.16317895519E+03  0.19552101568E+03  0.77000000000E+02 0.  0.
   -5000001    1    1    2    0    0  0.66867312169E+02  0.34653408464E+02  0.11374000276E+03  0.15664572890E+03  0.77000000000E+02 0.  0.
<mgrwt>
<rscale>  0 0.21757138E+03</rscale>
<asrwt>0</asrwt>
<pdfrwt beam="1">  1        2 0.44934692E-01 0.21757138E+03</pdfrwt>
<pdfrwt beam="2">  1       -2 0.53748420E-02 0.21757138E+03</pdfrwt>
<totfact> 0.19208126E+04</totfact>
</mgrwt>
</event>
<event>
 4    1  0.6782240E-004  0.2444687E+03  0.7818608E-02  0.1116851E+00
          2   -1    0    0  501    0  0.00000000000E+00  0.00000000000E+00  0.12074006917E+04  0.12074006917E+04  0.25500000000E-02 0.  1.
         -2   -1    0    0    0  501 -0.00000000000E+00 -0.00000000000E+00 -0.12374713704E+02  0.12374713967E+02  0.25500000000E-02 0. -1.
    5000001    1    1    2    0    0 -0.90858189267E+02  0.29600437544E+00  0.46023930922E+03  0.47539932681E+03  0.77000000000E+02 0.  0.
   -5000001    1    1    2    0    0  0.90858189267E+02 -0.29600437544E+00  0.73478666879E+03  0.74437607888E+03  0.77000000000E+02 0.  0.
<mgrwt>
<rscale>  0 0.24446871E+03</rscale>
<asrwt>0</asrwt>
<pdfrwt beam="1">  1        2 0.17248570E+00 0.24446871E+03</pdfrwt>
<pdfrwt beam="2">  1       -2 0.17678175E-02 0.24446871E+03</pdfrwt>
<totfact> 0.20424851E+04</totfact>
</mgrwt>
</event>
<event>
 4    1  0.6782240E-004  0.2486092E+03  0.7818608E-02  0.1114187E+00
          2   -1    0    0  501    0  0.00000000000E+00  0.00000000000E+00  0.20423730668E+04  0.20423730668E+04  0.25500000000E-02 0.  1.
         -2   -1    0    0    0  501 -0.00000000000E+00 -0.00000000000E+00 -0.75655264058E+01  0.75655268356E+01  0.25500000000E-02 0. -1.
    5000001    1    1    2    0    0 -0.74661748415E+02  0.62762157896E+02  0.99244433516E+03  0.10001940929E+04  0.77000000000E+02 0.  0.
   -5000001    1    1    2    0    0  0.74661748415E+02 -0.62762157896E+02  0.10423632053E+04  0.10497445007E+04  0.77000000000E+02 0.  0.
<mgrwt>
<rscale>  0 0.24860915E+03</rscale>
<asrwt>0</asrwt>
<pdfrwt beam="1">  1        2 0.29176749E+00 0.24860915E+03</pdfrwt>
<pdfrwt beam="2">  1       -2 0.10807899E-02 0.24860915E+03</pdfrwt>
<totfact> 0.15989383E+04</totfact>
</mgrwt>
</event>
<event>
 4    1  0.6782240E-004  0.2687102E+03  0.7818608E-02  0.1102020E+00
         -2   -1    0    0    0  501 -0.00000000000E+00  0.00000000000E+00  0.65589210108E+01  0.65589215065E+01  0.25500000000E-02 0. -1.
          2   -1    0    0  501    0  0.00000000000E+00 -0.00000000000E+00 -0.27521736803E+04  0.27521736803E+04  0.25500000000E-02 0.  1.
    5000001    1    1    2    0    0  0.35921646888E+02  0.96872682784E+02 -0.17634243734E+04  0.17681259010E+04  0.77000000000E+02 0.  0.
   -5000001    1    1    2    0    0 -0.35921646888E+02 -0.96872682784E+02 -0.98219038593E+03  0.99060670076E+03  0.77000000000E+02 0.  0.
<mgrwt>
<rscale>  0 0.26871018E+03</rscale>
<asrwt>0</asrwt>
<pdfrwt beam="1">  1        2 0.39316693E+00 0.26871018E+03</pdfrwt>
<pdfrwt beam="2">  1       -2 0.93699051E-03 0.26871018E+03</pdfrwt>
<totfact> 0.87601224E+03</totfact>
</mgrwt>
</event>
<event>
 4    1  0.6782240E-004  0.1953747E+03  0.7818608E-02  0.1153701E+00
         -2   -1    0    0    0  501 -0.00000000000E+00  0.00000000000E+00  0.10093197122E+02  0.10093197444E+02  0.25500000000E-02 0. -1.
          2   -1    0    0  501    0  0.00000000000E+00 -0.00000000000E+00 -0.94547069140E+03  0.94547069140E+03  0.25500000000E-02 0.  1.
    5000001    1    1    2    0    0  0.48642916066E+02  0.20630567911E+01 -0.64015433954E+03  0.64660418180E+03  0.77000000000E+02 0.  0.
   -5000001    1    1    2    0    0 -0.48642916066E+02 -0.20630567911E+01 -0.29522315473E+03  0.30895970704E+03  0.77000000000E+02 0.  0.
<mgrwt>
<rscale>  0 0.19537474E+03</rscale>
<asrwt>0</asrwt>
<pdfrwt beam="1">  1        2 0.13506719E+00 0.19537474E+03</pdfrwt>
<pdfrwt beam="2">  1       -2 0.14418859E-02 0.19537474E+03</pdfrwt>
<totfact> 0.38156926E+04</totfact>
</mgrwt>
</event>
<event>
 4    1  0.6782240E-004  0.2043943E+03  0.7818608E-02  0.1146084E+00
          2   -1    0    0  501    0  0.00000000000E+00  0.00000000000E+00  0.93542241193E+03  0.93542241194E+03  0.25500000000E-02 0.  1.
         -2   -1    0    0    0  501 -0.00000000000E+00 -0.00000000000E+00 -0.11165279836E+02  0.11165280128E+02  0.25500000000E-02 0. -1.
    5000001    1    1    2    0    0  0.54716451581E+02  0.50773357832E+01  0.64122936690E+03  0.64816955374E+03  0.77000000000E+02 0.  0.
   -5000001    1    1    2    0    0 -0.54716451581E+02 -0.50773357832E+01  0.28302776520E+03  0.29841813833E+03  0.77000000000E+02 0.  0.
<mgrwt>
<rscale>  0 0.20439426E+03</rscale>
<asrwt>0</asrwt>
<pdfrwt beam="1">  1        2 0.13363187E+00 0.20439426E+03</pdfrwt>
<pdfrwt beam="2">  1       -2 0.15950388E-02 0.20439426E+03</pdfrwt>
<totfact> 0.33525496E+04</totfact>
</mgrwt>
</event>
<event>
 4    1  0.6782240E-004  0.2432636E+03  0.7818608E-02  0.1117638E+00
          2   -1    0    0  501    0  0.00000000000E+00  0.00000000000E+00  0.36191110476E+02  0.36191110566E+02  0.25500000000E-02 0.  1.
         -2   -1    0    0    0  501 -0.00000000000E+00 -0.00000000000E+00 -0.40878261667E+03  0.40878261668E+03  0.25500000000E-02 0. -1.
    5000001    1    1    2    0    0  0.79205124950E+02  0.37550463100E+02 -0.24917837319E+03  0.27514060181E+03  0.77000000000E+02 0.  0.
   -5000001    1    1    2    0    0 -0.79205124950E+02 -0.37550463100E+02 -0.12341313300E+03  0.16983312543E+03  0.77000000000E+02 0.  0.
<mgrwt>
<rscale>  0 0.24326362E+03</rscale>
<asrwt>0</asrwt>
<pdfrwt beam="1">  1        2 0.51701589E-02 0.24326362E+03</pdfrwt>
<pdfrwt beam="2">  1       -2 0.58397514E-01 0.24326362E+03</pdfrwt>
<totfact> 0.41621223E+03</totfact>
</mgrwt>
</event>
<event>
 4    1  0.6782240E-004  0.5423584E+03  0.7818608E-02  0.1003278E+00
         -2   -1    0    0    0  501 -0.00000000000E+00  0.00000000000E+00  0.48209076772E+03  0.48209076773E+03  0.25500000000E-02 0. -1.
          2   -1    0    0  501    0  0.00000000000E+00 -0.00000000000E+00 -0.15254006769E+03  0.15254006771E+03  0.25500000000E-02 0.  1.
    5000001    1    1    2    0    0  0.16717063505E+03  0.42984540878E+02 -0.62770819901E+02  0.19915538609E+03  0.77000000000E+02 0.  0.
   -5000001    1    1    2    0    0 -0.16717063505E+03 -0.42984540878E+02  0.39232151994E+03  0.43547544935E+03  0.77000000000E+02 0.  0.
<mgrwt>
<rscale>  0 0.54235840E+03</rscale>
<asrwt>0</asrwt>
<pdfrwt beam="1">  1        2 0.21791438E-01 0.54235840E+03</pdfrwt>
<pdfrwt beam="2">  1       -2 0.68870110E-01 0.54235840E+03</pdfrwt>
<totfact> 0.49917449E+02</totfact>
</mgrwt>
</event>
<event>
 4    1  0.6782240E-004  0.3042535E+03  0.7818608E-02  0.1083133E+00
         -2   -1    0    0    0  501 -0.00000000000E+00  0.00000000000E+00  0.38680968167E+02  0.38680968251E+02  0.25500000000E-02 0. -1.
          2   -1    0    0  501    0  0.00000000000E+00 -0.00000000000E+00 -0.59829276595E+03  0.59829276596E+03  0.25500000000E-02 0.  1.
    5000001    1    1    2    0    0  0.46884516284E+02  0.85531429781E+02 -0.46351242396E+03  0.47988180890E+03  0.77000000000E+02 0.  0.
   -5000001    1    1    2    0    0 -0.46884516284E+02 -0.85531429781E+02 -0.96099373825E+02  0.15709192531E+03  0.77000000000E+02 0.  0.
<mgrwt>
<rscale>  0 0.30425347E+03</rscale>
<asrwt>0</asrwt>
<pdfrwt beam="1">  1        2 0.85470390E-01 0.30425347E+03</pdfrwt>
<pdfrwt beam="2">  1       -2 0.55258530E-02 0.30425347E+03</pdfrwt>
<totfact> 0.92690582E+03</totfact>
</mgrwt>
</event>
<event>
 4    1  0.6782240E-004  0.1634172E+03  0.7818608E-02  0.1184892E+00
         -2   -1    0    0    0  501 -0.00000000000E+00  0.00000000000E+00  0.16654309463E+02  0.16654309658E+02  0.25500000000E-02 0. -1.
          2   -1    0    0  501    0  0.00000000000E+00 -0.00000000000E+00 -0.40087512266E+03  0.40087512267E+03  0.25500000000E-02 0.  1.
    5000001    1    1    2    0    0  0.26047370890E+01  0.25297717142E+02 -0.21772910353E+03  0.23233966875E+03  0.77000000000E+02 0.  0.
   -5000001    1    1    2    0    0 -0.26047370890E+01 -0.25297717142E+02 -0.16649170967E+03  0.18518976358E+03  0.77000000000E+02 0.  0.
<mgrwt>
<rscale>  0 0.16341724E+03</rscale>
<asrwt>0</asrwt>
<pdfrwt beam="1">  1        2 0.57267869E-01 0.16341724E+03</pdfrwt>
<pdfrwt beam="2">  1       -2 0.23791873E-02 0.16341724E+03</pdfrwt>
<totfact> 0.48675763E+04</totfact>
</mgrwt>
</event>
<event>
 4    1  0.6782240E-004  0.3264732E+03  0.7818608E-02  0.1072708E+00
          2   -1    0    0  501    0  0.00000000000E+00  0.00000000000E+00  0.21981836462E+04  0.21981836462E+04  0.25500000000E-02 0.  1.
         -2   -1    0    0    0  501 -0.00000000000E+00 -0.00000000000E+00 -0.12121908004E+02  0.12121908272E+02  0.25500000000E-02 0. -1.
    5000001    1    1    2    0    0  0.13624952449E+03 -0.46214533337E+02  0.11213238967E+04  0.11331354717E+04  0.77000000000E+02 0.  0.
   -5000001    1    1    2    0    0 -0.13624952449E+03  0.46214533337E+02  0.10647378415E+04  0.10771700827E+04  0.77000000000E+02 0.  0.
<mgrwt>
<rscale>  0 0.32647315E+03</rscale>
<asrwt>0</asrwt>
<pdfrwt beam="1">  1        2 0.31402653E+00 0.32647315E+03</pdfrwt>
<pdfrwt beam="2">  1       -2 0.17316995E-02 0.32647315E+03</pdfrwt>
<totfact> 0.67604243E+03</totfact>
</mgrwt>
</event>
<event>
 4    1  0.6782240E-004  0.1050394E+04  0.7818608E-02  0.9254937E-01
          2   -1    0    0  501    0  0.00000000000E+00  0.00000000000E+00  0.16429594121E+04  0.16429594121E+04  0.25500000000E-02 0. -1.
         -2   -1    0    0    0  501 -0.00000000000E+00 -0.00000000000E+00 -0.16788735722E+03  0.16788735724E+03  0.25500000000E-02 0.  1.
    5000001    1    1    2    0    0 -0.17758505957E+03  0.48814013473E+03  0.75351129204E+03  0.91843644949E+03  0.77000000000E+02 0.  0.
   -5000001    1    1    2    0    0  0.17758505957E+03 -0.48814013473E+03  0.72156076284E+03  0.89241031986E+03  0.77000000000E+02 0.  0.
<mgrwt>
<rscale>  0 0.10503944E+04</rscale>
<asrwt>0</asrwt>
<pdfrwt beam="1">  1        2 0.23470850E+00 0.10503944E+04</pdfrwt>
<pdfrwt beam="2">  1       -2 0.23983907E-01 0.10503944E+04</pdfrwt>
<totfact> 0.18887519E+02</totfact>
</mgrwt>
</event>
<event>
 4    1  0.6782240E-004  0.2028635E+03  0.7818608E-02  0.1147345E+00
          2   -1    0    0  501    0  0.00000000000E+00  0.00000000000E+00  0.53037308955E+02  0.53037309016E+02  0.25500000000E-02 0.  1.
         -2   -1    0    0    0  501 -0.00000000000E+00 -0.00000000000E+00 -0.19398414603E+03  0.19398414605E+03  0.25500000000E-02 0. -1.
    5000001    1    1    2    0    0 -0.14872607523E+02  0.61726831250E+02 -0.48420383478E+02  0.11092758758E+03  0.77000000000E+02 0.  0.
   -5000001    1    1    2    0    0  0.14872607523E+02 -0.61726831250E+02 -0.92526453597E+02  0.13609386748E+03  0.77000000000E+02 0.  0.
<mgrwt>
<rscale>  0 0.20286347E+03</rscale>
<asrwt>0</asrwt>
<pdfrwt beam="1">  1        2 0.75767585E-02 0.20286347E+03</pdfrwt>
<pdfrwt beam="2">  1       -2 0.27712021E-01 0.20286347E+03</pdfrwt>
<totfact> 0.10442070E+04</totfact>
</mgrwt>
</event>
<event>
 4    1  0.6782240E-004  0.3062072E+03  0.7818608E-02  0.1082178E+00
         -2   -1    0    0    0  501 -0.00000000000E+00  0.00000000000E+00  0.71038999449E+02  0.71038999494E+02  0.25500000000E-02 0. -1.
          2   -1    0    0  501    0  0.00000000000E+00 -0.00000000000E+00 -0.32996968452E+03  0.32996968453E+03  0.25500000000E-02 0.  1.
    5000001    1    1    2    0    0  0.22584966193E+02  0.11858213452E+03 -0.20047306394E+03  0.24635391755E+03  0.77000000000E+02 0.  0.
   -5000001    1    1    2    0    0 -0.22584966193E+02 -0.11858213452E+03 -0.58457621127E+02  0.15465476647E+03  0.77000000000E+02 0.  0.
<mgrwt>
<rscale>  0 0.30620723E+03</rscale>
<asrwt>0</asrwt>
<pdfrwt beam="1">  1        2 0.47138526E-01 0.30620723E+03</pdfrwt>
<pdfrwt beam="2">  1       -2 0.10148429E-01 0.30620723E+03</pdfrwt>
<totfact> 0.69115365E+03</totfact>
</mgrwt>
</event>
<event>
 4    1  0.6782240E-004  0.4081322E+03  0.7818608E-02  0.1041000E+00
         -2   -1    0    0    0  501 -0.00000000000E+00  0.00000000000E+00  0.42773223114E+02  0.42773223190E+02  0.25500000000E-02 0. -1.
          2   -1    0    0  501    0  0.00000000000E+00 -0.00000000000E+00 -0.97357565191E+03  0.97357565191E+03  0.25500000000E-02 0.  1.
    5000001    1    1    2    0    0 -0.11012659097E+03  0.15237770635E+03 -0.51311634994E+03  0.55187337316E+03  0.77000000000E+02 0.  0.
   -5000001    1    1    2    0    0  0.11012659097E+03 -0.15237770635E+03 -0.41768607886E+03  0.46447550194E+03  0.77000000000E+02 0.  0.
<mgrwt>
<rscale>  0 0.40813218E+03</rscale>
<asrwt>0</asrwt>
<pdfrwt beam="1">  1        2 0.13908222E+00 0.40813218E+03</pdfrwt>
<pdfrwt beam="2">  1       -2 0.61104611E-02 0.40813218E+03</pdfrwt>
<totfact> 0.43720043E+03</totfact>
</mgrwt>
</event>
<event>
 4    1  0.6782240E-004  0.2025485E+03  0.7818608E-02  0.1147606E+00
         -2   -1    0    0    0  501 -0.00000000000E+00  0.00000000000E+00  0.21849451144E+02  0.21849451293E+02  0.25500000000E-02 0. -1.
          2   -1    0    0  501    0  0.00000000000E+00 -0.00000000000E+00 -0.46941553465E+03  0.46941553466E+03  0.25500000000E-02 0.  1.
    5000001    1    1    2    0    0  0.41012659940E+02 -0.12016250735E+02 -0.10248677815E+03  0.13512574978E+03  0.77000000000E+02 0.  0.
   -5000001    1    1    2    0    0 -0.41012659940E+02  0.12016250735E+02 -0.34507930536E+03  0.35613923618E+03  0.77000000000E+02 0.  0.
<mgrwt>
<rscale>  0 0.20254848E+03</rscale>
<asrwt>0</asrwt>
<pdfrwt beam="1">  1        2 0.67059356E-01 0.20254848E+03</pdfrwt>
<pdfrwt beam="2">  1       -2 0.31213504E-02 0.20254848E+03</pdfrwt>
<totfact> 0.28062873E+04</totfact>
</mgrwt>
</event>
<event>
 4    1  0.6782240E-004  0.2743332E+03  0.7818608E-02  0.1098825E+00
          2   -1    0    0  501    0  0.00000000000E+00  0.00000000000E+00  0.22471057675E+03  0.22471057677E+03  0.25500000000E-02 0.  1.
         -2   -1    0    0    0  501 -0.00000000000E+00 -0.00000000000E+00 -0.83728477483E+02  0.83728477522E+02  0.25500000000E-02 0. -1.
    5000001    1    1    2    0    0 -0.84986276887E+02  0.71906297447E+02  0.95442191621E+02  0.16562425792E+03  0.77000000000E+02 0.  0.
   -5000001    1    1    2    0    0  0.84986276887E+02 -0.71906297447E+02  0.45539907647E+02  0.14281479636E+03  0.77000000000E+02 0.  0.
<mgrwt>
<rscale>  0 0.27433319E+03</rscale>
<asrwt>0</asrwt>
<pdfrwt beam="1">  1        2 0.32101511E-01 0.27433319E+03</pdfrwt>
<pdfrwt beam="2">  1       -2 0.11961211E-01 0.27433319E+03</pdfrwt>
<totfact> 0.80157555E+03</totfact>
</mgrwt>
</event>
<event>
 4    1  0.6782240E-004  0.2970534E+03  0.7818608E-02  0.1086723E+00
          2   -1    0    0  501    0  0.00000000000E+00  0.00000000000E+00  0.12588773380E+04  0.12588773380E+04  0.25500000000E-02 0.  1.
         -2   -1    0    0    0  501 -0.00000000000E+00 -0.00000000000E+00 -0.17523695075E+02  0.17523695261E+02  0.25500000000E-02 0. -1.
    5000001    1    1    2    0    0  0.11511781174E+03  0.48631061558E+02  0.52325123660E+03  0.54345004125E+03  0.77000000000E+02 0.  0.
   -5000001    1    1    2    0    0 -0.11511781174E+03 -0.48631061558E+02  0.71810240635E+03  0.73295099204E+03  0.77000000000E+02 0.  0.
<mgrwt>
<rscale>  0 0.29705341E+03</rscale>
<asrwt>0</asrwt>
<pdfrwt beam="1">  1        2 0.17983971E+00 0.29705341E+03</pdfrwt>
<pdfrwt beam="2">  1       -2 0.25033838E-02 0.29705341E+03</pdfrwt>
<totfact> 0.11563798E+04</totfact>
</mgrwt>
</event>
<event>
 4    1  0.6782240E-004  0.3298263E+03  0.7818608E-02  0.1071214E+00
          2   -1    0    0  501    0  0.00000000000E+00  0.00000000000E+00  0.53207873842E+02  0.53207873904E+02  0.25500000000E-02 0. -1.
         -2   -1    0    0    0  501 -0.00000000000E+00 -0.00000000000E+00 -0.51113394603E+03  0.51113394604E+03  0.25500000000E-02 0.  1.
    5000001    1    1    2    0    0  0.35807707885E+02 -0.76618472780E+02 -0.43224263686E+03  0.44711886500E+03  0.77000000000E+02 0.  0.
   -5000001    1    1    2    0    0 -0.35807707885E+02  0.76618472780E+02 -0.25683435325E+02  0.11722295494E+03  0.77000000000E+02 0.  0.
<mgrwt>
<rscale>  0 0.32982632E+03</rscale>
<asrwt>0</asrwt>
<pdfrwt beam="1">  1        2 0.76011251E-02 0.32982632E+03</pdfrwt>
<pdfrwt beam="2">  1       -2 0.73019132E-01 0.32982632E+03</pdfrwt>
<totfact> 0.15881886E+03</totfact>
</mgrwt>
</event>
<event>
 4    1  0.6782240E-004  0.3940571E+03  0.7818608E-02  0.1045857E+00
          2   -1    0    0  501    0  0.00000000000E+00  0.00000000000E+00  0.91407629426E+02  0.91407629462E+02  0.25500000000E-02 0.  1.
         -2   -1    0    0    0  501 -0.00000000000E+00 -0.00000000000E+00 -0.42469367367E+03  0.42469367368E+03  0.25500000000E-02 0. -1.
    5000001    1    1    2    0    0  0.38623284039E+02  0.16329424025E+03 -0.25676106558E+03  0.31624675771E+03  0.77000000000E+02 0.  0.
   -5000001    1    1    2    0    0 -0.38623284039E+02 -0.16329424025E+03 -0.76524978672E+02  0.19985454543E+03  0.77000000000E+02 0.  0.
<mgrwt>
<rscale>  0 0.39405706E+03</rscale>
<asrwt>0</asrwt>
<pdfrwt beam="1">  1        2 0.13058233E-01 0.39405706E+03</pdfrwt>
<pdfrwt beam="2">  1       -2 0.60670524E-01 0.39405706E+03</pdfrwt>
<totfact> 0.11996980E+03</totfact>
</mgrwt>
</event>
<event>
 4    1  0.6782240E-004  0.2330209E+03  0.7818608E-02  0.1124531E+00
         -2   -1    0    0    0  501 -0.00000000000E+00  0.00000000000E+00  0.85355273448E+01  0.85355277257E+01  0.25500000000E-02 0. -1.
          2   -1    0    0  501    0  0.00000000000E+00 -0.00000000000E+00 -0.15903744800E+04  0.15903744800E+04  0.25500000000E-02 0.  1.
    5000001    1    1    2    0    0 -0.83705831678E+02 -0.20931888347E+02 -0.88817002170E+03  0.89566723601E+03  0.77000000000E+02 0.  0.
   -5000001    1    1    2    0    0  0.83705831678E+02  0.20931888347E+02 -0.69366893092E+03  0.70324277169E+03  0.77000000000E+02 0.  0.
<mgrwt>
<rscale>  0 0.23302090E+03</rscale>
<asrwt>0</asrwt>
<pdfrwt beam="1">  1        2 0.22719616E+00 0.23302090E+03</pdfrwt>
<pdfrwt beam="2">  1       -2 0.12193621E-02 0.23302090E+03</pdfrwt>
<totfact> 0.22259127E+04</totfact>
</mgrwt>
</event>
<event>
 4    1  0.6782240E-004  0.3815195E+03  0.7818608E-02  0.1050374E+00
         -2   -1    0    0    0  501 -0.00000000000E+00  0.00000000000E+00  0.24370611150E+02  0.24370611283E+02  0.25500000000E-02 0. -1.
          2   -1    0    0  501    0  0.00000000000E+00 -0.00000000000E+00 -0.14931622456E+04  0.14931622456E+04  0.25500000000E-02 0.  1.
    5000001    1    1    2    0    0 -0.62973658518E+02  0.15236680005E+03 -0.50662976098E+03  0.53831592781E+03  0.77000000000E+02 0.  0.
   -5000001    1    1    2    0    0  0.62973658518E+02 -0.15236680005E+03 -0.96216187348E+03  0.97921692908E+03  0.77000000000E+02 0.  0.
<mgrwt>
<rscale>  0 0.38151947E+03</rscale>
<asrwt>0</asrwt>
<pdfrwt beam="1">  1        2 0.21330883E+00 0.38151947E+03</pdfrwt>
<pdfrwt beam="2">  1       -2 0.34815168E-02 0.38151947E+03</pdfrwt>
<totfact> 0.53486050E+03</totfact>
</mgrwt>
</event>
<event>
 4    1  0.6782240E-004  0.4373011E+03  0.7818608E-02  0.1031578E+00
          2   -1    0    0  501    0  0.00000000000E+00  0.00000000000E+00  0.78192182653E+03  0.78192182654E+03  0.25500000000E-02 0.  1.
         -2   -1    0    0    0  501 -0.00000000000E+00 -0.00000000000E+00 -0.61141739359E+02  0.61141739412E+02  0.25500000000E-02 0. -1.
    5000001    1    1    2    0    0 -0.83398782931E+01  0.17451070828E+03  0.15495086523E+03  0.24589085284E+03  0.77000000000E+02 0.  0.
   -5000001    1    1    2    0    0  0.83398782931E+01 -0.17451070828E+03  0.56582922194E+03  0.59717271311E+03  0.77000000000E+02 0.  0.
<mgrwt>
<rscale>  0 0.43730109E+03</rscale>
<asrwt>0</asrwt>
<pdfrwt beam="1">  1        2 0.11170310E+00 0.43730109E+03</pdfrwt>
<pdfrwt beam="2">  1       -2 0.87345352E-02 0.43730109E+03</pdfrwt>
<totfact> 0.33220687E+03</totfact>
</mgrwt>
</event>
<event>
 4    1  0.6782240E-004  0.2278804E+03  0.7818608E-02  0.1128141E+00
         -2   -1    0    0    0  501 -0.00000000000E+00  0.00000000000E+00  0.17053150889E+02  0.17053151080E+02  0.25500000000E-02 0. -1.
          2   -1    0    0  501    0  0.00000000000E+00 -0.00000000000E+00 -0.76128876487E+03  0.76128876488E+03  0.25500000000E-02 0.  1.
    5000001    1    1    2    0    0  0.44312933575E+02 -0.68201553191E+02 -0.44362362153E+03  0.45754344660E+03  0.77000000000E+02 0.  0.
   -5000001    1    1    2    0    0 -0.44312933575E+02  0.68201553191E+02 -0.30061199245E+03  0.32079846936E+03  0.77000000000E+02 0.  0.
<mgrwt>
<rscale>  0 0.22788043E+03</rscale>
<asrwt>0</asrwt>
<pdfrwt beam="1">  1        2 0.10875552E+00 0.22788043E+03</pdfrwt>
<pdfrwt beam="2">  1       -2 0.24361649E-02 0.22788043E+03</pdfrwt>
<totfact> 0.23525136E+04</totfact>
</mgrwt>
</event>
<event>
 4    1  0.6782240E-004  0.3368248E+03  0.7818608E-02  0.1068156E+00
          2   -1    0    0  501    0  0.00000000000E+00  0.00000000000E+00  0.46117143026E+03  0.46117143027E+03  0.25500000000E-02 0.  1.
         -2   -1    0    0    0  501 -0.00000000000E+00 -0.00000000000E+00 -0.61501520599E+02  0.61501520652E+02  0.25500000000E-02 0. -1.
    5000001    1    1    2    0    0  0.60627289782E+02 -0.12466799003E+03  0.28783477410E+03  0.32862689054E+03  0.77000000000E+02 0.  0.
   -5000001    1    1    2    0    0 -0.60627289782E+02  0.12466799003E+03  0.11183513556E+03  0.19404606038E+03  0.77000000000E+02 0.  0.
<mgrwt>
<rscale>  0 0.33682485E+03</rscale>
<asrwt>0</asrwt>
<pdfrwt beam="1">  1        2 0.65881634E-01 0.33682485E+03</pdfrwt>
<pdfrwt beam="2">  1       -2 0.87859314E-02 0.33682485E+03</pdfrwt>
<totfact> 0.60554173E+03</totfact>
</mgrwt>
</event>
<event>
 4    1  0.6782240E-004  0.2248175E+03  0.7818608E-02  0.1130342E+00
          2   -1    0    0  501    0  0.00000000000E+00  0.00000000000E+00  0.44247824838E+03  0.44247824839E+03  0.25500000000E-02 0.  1.
         -2   -1    0    0    0  501 -0.00000000000E+00 -0.00000000000E+00 -0.28556713573E+02  0.28556713686E+02  0.25500000000E-02 0. -1.
    5000001    1    1    2    0    0 -0.62716857711E+02  0.11765222526E+02  0.31450945970E+03  0.33002579436E+03  0.77000000000E+02 0.  0.
   -5000001    1    1    2    0    0  0.62716857711E+02 -0.11765222526E+02  0.99412075108E+02  0.14100916771E+03  0.77000000000E+02 0.  0.
<mgrwt>
<rscale>  0 0.22481748E+03</rscale>
<asrwt>0</asrwt>
<pdfrwt beam="1">  1        2 0.63211174E-01 0.22481748E+03</pdfrwt>
<pdfrwt beam="2">  1       -2 0.40795308E-02 0.22481748E+03</pdfrwt>
<totfact> 0.20225289E+04</totfact>
</mgrwt>
</event>
<event>
 4    1  0.6782240E-004  0.2000117E+03  0.7818608E-02  0.1149729E+00
         -2   -1    0    0    0  501 -0.00000000000E+00  0.00000000000E+00  0.12324003029E+04  0.12324003029E+04  0.25500000000E-02 0. -1.
          2   -1    0    0  501    0  0.00000000000E+00 -0.00000000000E+00 -0.81151979443E+01  0.81151983450E+01  0.25500000000E-02 0.  1.
    5000001    1    1    2    0    0  0.56491934252E+02  0.24552594754E+01  0.42869896095E+03  0.43921425985E+03  0.77000000000E+02 0.  0.
   -5000001    1    1    2    0    0 -0.56491934252E+02 -0.24552594754E+01  0.79558614405E+03  0.80130124144E+03  0.77000000000E+02 0.  0.
<mgrwt>
<rscale>  0 0.20001173E+03</rscale>
<asrwt>0</asrwt>
<pdfrwt beam="1">  1        2 0.11593132E-02 0.20001173E+03</pdfrwt>
<pdfrwt beam="2">  1       -2 0.17605731E+00 0.20001173E+03</pdfrwt>
<totfact> 0.23832283E+03</totfact>
</mgrwt>
</event>
<event>
 4    1  0.6782240E-004  0.2530633E+03  0.7818608E-02  0.1111384E+00
         -2   -1    0    0    0  501 -0.00000000000E+00  0.00000000000E+00  0.46333159696E+02  0.46333159766E+02  0.25500000000E-02 0. -1.
          2   -1    0    0  501    0  0.00000000000E+00 -0.00000000000E+00 -0.34554651817E+03  0.34554651818E+03  0.25500000000E-02 0.  1.
    5000001    1    1    2    0    0 -0.88668535432E+02 -0.46434867936E+02 -0.13731979671E+03  0.18655838953E+03  0.77000000000E+02 0.  0.
   -5000001    1    1    2    0    0  0.88668535432E+02  0.46434867936E+02 -0.16189356176E+03  0.20532128842E+03  0.77000000000E+02 0.  0.
<mgrwt>
<rscale>  0 0.25306333E+03</rscale>
<asrwt>0</asrwt>
<pdfrwt beam="1">  1        2 0.49363787E-01 0.25306333E+03</pdfrwt>
<pdfrwt beam="2">  1       -2 0.66190230E-02 0.25306333E+03</pdfrwt>
<totfact> 0.12743464E+04</totfact>
</mgrwt>
</event>
<event>
 4    1  0.6782240E-004  0.2167151E+03  0.7818608E-02  0.1136356E+00
         -2   -1    0    0    0  501 -0.00000000000E+00  0.00000000000E+00  0.60107824477E+01  0.60107829886E+01  0.25500000000E-02 0. -1.
          2   -1    0    0  501    0  0.00000000000E+00 -0.00000000000E+00 -0.19533825601E+04  0.19533825601E+04  0.25500000000E-02 0.  1.
    5000001    1    1    2    0    0  0.35593548848E+02  0.44459285349E+02 -0.51543840029E+03  0.52426069209E+03  0.77000000000E+02 0.  0.
   -5000001    1    1    2    0    0 -0.35593548848E+02 -0.44459285349E+02 -0.14319333773E+04  0.14351326510E+04  0.77000000000E+02 0.  0.
<mgrwt>
<rscale>  0 0.21671510E+03</rscale>
<asrwt>0</asrwt>
<pdfrwt beam="1">  1        2 0.27905425E+00 0.21671510E+03</pdfrwt>
<pdfrwt beam="2">  1       -2 0.85868450E-03 0.21671510E+03</pdfrwt>
<totfact> 0.24508160E+04</totfact>
</mgrwt>
</event>
<event>
 4    1  0.6782240E-004  0.1969560E+03  0.7818608E-02  0.1152333E+00
          2   -1    0    0  501    0  0.00000000000E+00  0.00000000000E+00  0.11030056484E+04  0.11030056484E+04  0.25500000000E-02 0.  1.
         -2   -1    0    0    0  501 -0.00000000000E+00 -0.00000000000E+00 -0.87922647800E+01  0.87922651497E+01  0.25500000000E-02 0. -1.
    5000001    1    1    2    0    0  0.49865368789E+02 -0.18579681194E+02  0.37429898791E+03  0.38582443146E+03  0.77000000000E+02 0.  0.
   -5000001    1    1    2    0    0 -0.49865368789E+02  0.18579681194E+02  0.71991439574E+03  0.72597348213E+03  0.77000000000E+02 0.  0.
<mgrwt>
<rscale>  0 0.19695601E+03</rscale>
<asrwt>0</asrwt>
<pdfrwt beam="1">  1        2 0.15757199E+00 0.19695601E+03</pdfrwt>
<pdfrwt beam="2">  1       -2 0.12560398E-02 0.19695601E+03</pdfrwt>
<totfact> 0.37818826E+04</totfact>
</mgrwt>
</event>
<event>
 4    1  0.6782240E-004  0.2374378E+03  0.7818608E-02  0.1121512E+00
          2   -1    0    0  501    0  0.00000000000E+00  0.00000000000E+00  0.16251760313E+04  0.16251760313E+04  0.25500000000E-02 0.  1.
         -2   -1    0    0    0  501 -0.00000000000E+00 -0.00000000000E+00 -0.86724001770E+01  0.86724005519E+01  0.25500000000E-02 0. -1.
    5000001    1    1    2    0    0  0.59495461691E+02 -0.46687747820E+02  0.46794910959E+03  0.48023413553E+03  0.77000000000E+02 0.  0.
   -5000001    1    1    2    0    0 -0.59495461691E+02  0.46687747820E+02  0.11485545215E+04  0.11536142963E+04  0.77000000000E+02 0.  0.
<mgrwt>
<rscale>  0 0.23743780E+03</rscale>
<asrwt>0</asrwt>
<pdfrwt beam="1">  1        2 0.23216812E+00 0.23743780E+03</pdfrwt>
<pdfrwt beam="2">  1       -2 0.12389137E-02 0.23743780E+03</pdfrwt>
<totfact> 0.20922045E+04</totfact>
</mgrwt>
</event>
<event>
 4    1  0.6782240E-004  0.2705798E+03  0.7818608E-02  0.1100948E+00
         -2   -1    0    0    0  501 -0.00000000000E+00  0.00000000000E+00  0.11585673224E+03  0.11585673227E+03  0.25500000000E-02 0. -1.
          2   -1    0    0  501    0  0.00000000000E+00 -0.00000000000E+00 -0.15798263744E+03  0.15798263747E+03  0.25500000000E-02 0.  1.
    5000001    1    1    2    0    0 -0.48468004526E+01 -0.10105333825E+03  0.25744439055E+02  0.12971909955E+03  0.77000000000E+02 0.  0.
   -5000001    1    1    2    0    0  0.48468004526E+01  0.10105333825E+03 -0.67870344259E+02  0.14412027018E+03  0.77000000000E+02 0.  0.
<mgrwt>
<rscale>  0 0.27057976E+03</rscale>
<asrwt>0</asrwt>
<pdfrwt beam="1">  1        2 0.22568948E-01 0.27057976E+03</pdfrwt>
<pdfrwt beam="2">  1       -2 0.16550962E-01 0.27057976E+03</pdfrwt>
<totfact> 0.69494247E+03</totfact>
</mgrwt>
</event>
<event>
 4    1  0.6782240E-004  0.1833190E+03  0.7818608E-02  0.1164629E+00
         -2   -1    0    0    0  501 -0.00000000000E+00  0.00000000000E+00  0.28113236625E+02  0.28113236741E+02  0.25500000000E-02 0. -1.
          2   -1    0    0  501    0  0.00000000000E+00 -0.00000000000E+00 -0.29884383822E+03  0.29884383823E+03  0.25500000000E-02 0.  1.
    5000001    1    1    2    0    0 -0.43378949445E+02  0.23884345414E+02 -0.12733493755E+03  0.15682914758E+03  0.77000000000E+02 0.  0.
   -5000001    1    1    2    0    0  0.43378949445E+02 -0.23884345414E+02 -0.14339566405E+03  0.17012792739E+03  0.77000000000E+02 0.  0.
<mgrwt>
<rscale>  0 0.18331904E+03</rscale>
<asrwt>0</asrwt>
<pdfrwt beam="1">  1        2 0.42691975E-01 0.18331904E+03</pdfrwt>
<pdfrwt beam="2">  1       -2 0.40161768E-02 0.18331904E+03</pdfrwt>
<totfact> 0.31050900E+04</totfact>
</mgrwt>
</event>
<event>
 4    1  0.6782240E-004  0.2925246E+03  0.7818608E-02  0.1089038E+00
         -2   -1    0    0    0  501 -0.00000000000E+00  0.00000000000E+00  0.16319990690E+02  0.16319990889E+02  0.25500000000E-02 0. -1.
          2   -1    0    0  501    0  0.00000000000E+00 -0.00000000000E+00 -0.13108256915E+04  0.13108256915E+04  0.25500000000E-02 0.  1.
    5000001    1    1    2    0    0 -0.11067428732E+03 -0.17636064847E+02 -0.40277354083E+03  0.42510628535E+03  0.77000000000E+02 0.  0.
   -5000001    1    1    2    0    0  0.11067428732E+03  0.17636064847E+02 -0.89173216002E+03  0.90203939707E+03  0.77000000000E+02 0.  0.
<mgrwt>
<rscale>  0 0.29252462E+03</rscale>
<asrwt>0</asrwt>
<pdfrwt beam="1">  1        2 0.18726075E+00 0.29252462E+03</pdfrwt>
<pdfrwt beam="2">  1       -2 0.23314281E-02 0.29252462E+03</pdfrwt>
<totfact> 0.12054333E+04</totfact>
</mgrwt>
</event>
<event>
 4    1  0.6782240E-004  0.1822939E+03  0.7818608E-02  0.1165601E+00
          2   -1    0    0  501    0  0.00000000000E+00  0.00000000000E+00  0.17696304028E+04  0.17696304028E+04  0.25500000000E-02 0.  1.
         -2   -1    0    0    0  501 -0.00000000000E+00 -0.00000000000E+00 -0.46946318266E+01  0.46946325192E+01  0.25500000000E-02 0. -1.
    5000001    1    1    2    0    0 -0.19927259222E+02 -0.43629804752E+02  0.96848992137E+03  0.97272934741E+03  0.77000000000E+02 0.  0.
   -5000001    1    1    2    0    0  0.19927259222E+02  0.43629804752E+02  0.79644584963E+03  0.80159568793E+03  0.77000000000E+02 0.  0.
<mgrwt>
<rscale>  0 0.18229387E+03</rscale>
<asrwt>0</asrwt>
<pdfrwt beam="1">  1        2 0.25280429E+00 0.18229387E+03</pdfrwt>
<pdfrwt beam="2">  1       -2 0.67066187E-03 0.18229387E+03</pdfrwt>
<totfact> 0.42471342E+04</totfact>
</mgrwt>
</event>
<event>
 4    1  0.6782240E-004  0.2980931E+03  0.7818608E-02  0.1086198E+00
         -2   -1    0    0    0  501 -0.00000000000E+00  0.00000000000E+00  0.48185473608E+02  0.48185473675E+02  0.25500000000E-02 0. -1.
          2   -1    0    0  501    0  0.00000000000E+00 -0.00000000000E+00 -0.46102831816E+03  0.46102831817E+03  0.25500000000E-02 0.  1.
    5000001    1    1    2    0    0  0.98436615200E+02  0.68325164216E+02 -0.28142400115E+03  0.31541490723E+03  0.77000000000E+02 0.  0.
   -5000001    1    1    2    0    0 -0.98436615200E+02 -0.68325164216E+02 -0.13141884340E+03  0.19379888461E+03  0.77000000000E+02 0.  0.
<mgrwt>
<rscale>  0 0.29809306E+03</rscale>
<asrwt>0</asrwt>
<pdfrwt beam="1">  1        2 0.65861186E-01 0.29809306E+03</pdfrwt>
<pdfrwt beam="2">  1       -2 0.68836394E-02 0.29809306E+03</pdfrwt>
<totfact> 0.88392789E+03</totfact>
</mgrwt>
</event>
<event>
 4    1  0.6782240E-004  0.2411150E+03  0.7818608E-02  0.1119052E+00
         -2   -1    0    0    0  501 -0.00000000000E+00  0.00000000000E+00  0.24990110892E+03  0.24990110893E+03  0.25500000000E-02 0. -1.
          2   -1    0    0  501    0  0.00000000000E+00 -0.00000000000E+00 -0.58159472792E+02  0.58159472847E+02  0.25500000000E-02 0.  1.
    5000001    1    1    2    0    0  0.90315314470E+02  0.20459561963E+02  0.88911783270E+02  0.14969888078E+03  0.77000000000E+02 0.  0.
   -5000001    1    1    2    0    0 -0.90315314470E+02 -0.20459561963E+02  0.10282985286E+03  0.15836170100E+03  0.77000000000E+02 0.  0.
<mgrwt>
<rscale>  0 0.24111505E+03</rscale>
<asrwt>0</asrwt>
<pdfrwt beam="1">  1        2 0.83084960E-02 0.24111505E+03</pdfrwt>
<pdfrwt beam="2">  1       -2 0.35700159E-01 0.24111505E+03</pdfrwt>
<totfact> 0.59102169E+03</totfact>
</mgrwt>
</event>
<event>
 4    1  0.6782240E-004  0.1973360E+03  0.7818608E-02  0.1152006E+00
         -2   -1    0    0    0  501 -0.00000000000E+00  0.00000000000E+00  0.25187903385E+01  0.25187916293E+01  0.25500000000E-02 0. -1.
          2   -1    0    0  501    0  0.00000000000E+00 -0.00000000000E+00 -0.38650966181E+04  0.38650966181E+04  0.25500000000E-02 0.  1.
    5000001    1    1    2    0    0  0.25834224688E+02 -0.19776107429E+02 -0.90389958556E+03  0.90775655457E+03  0.77000000000E+02 0.  0.
   -5000001    1    1    2    0    0 -0.25834224688E+02  0.19776107429E+02 -0.29586782422E+04  0.29598588552E+04  0.77000000000E+02 0.  0.
<mgrwt>
<rscale>  0 0.19733596E+03</rscale>
<asrwt>0</asrwt>
<pdfrwt beam="1">  1        2 0.55215286E+00 0.19733596E+03</pdfrwt>
<pdfrwt beam="2">  1       -2 0.35982976E-03 0.19733596E+03</pdfrwt>
<totfact> 0.82666566E+03</totfact>
</mgrwt>
</event>
<event>
 4    1  0.6782240E-004  0.1776286E+03  0.7818608E-02  0.1170118E+00
          2   -1    0    0  501    0  0.00000000000E+00  0.00000000000E+00  0.27016326410E+04  0.27016326410E+04  0.25500000000E-02 0.  1.
         -2   -1    0    0    0  501 -0.00000000000E+00 -0.00000000000E+00 -0.29197082719E+01  0.29197093854E+01  0.25500000000E-02 0. -1.
    5000001    1    1    2    0    0 -0.27066595052E+02 -0.25991104825E+02  0.99200445646E+03  0.99569572648E+03  0.77000000000E+02 0.  0.
   -5000001    1    1    2    0    0  0.27066595052E+02  0.25991104825E+02  0.17067084763E+04  0.17088566239E+04  0.77000000000E+02 0.  0.
<mgrwt>
<rscale>  0 0.17762861E+03</rscale>
<asrwt>0</asrwt>
<pdfrwt beam="1">  1        2 0.38594703E+00 0.17762861E+03</pdfrwt>
<pdfrwt beam="2">  1       -2 0.41710179E-03 0.17762861E+03</pdfrwt>
<totfact> 0.29440952E+04</totfact>
</mgrwt>
</event>
<event>
 4    1  0.6782240E-004  0.2267043E+03  0.7818608E-02  0.1128981E+00
          2   -1    0    0  501    0  0.00000000000E+00  0.00000000000E+00  0.22096566128E+03  0.22096566130E+03  0.25500000000E-02 0.  1.
         -2   -1    0    0    0  501 -0.00000000000E+00 -0.00000000000E+00 -0.58147988257E+02  0.58147988313E+02  0.25500000000E-02 0. -1.
    5000001    1    1    2    0    0  0.54516227145E+01 -0.71953857037E+02  0.30457775396E+02  0.10983512104E+03  0.77000000000E+02 0.  0.
   -5000001    1    1    2    0    0 -0.54516227145E+01  0.71953857037E+02  0.13235989763E+03  0.16927852856E+03  0.77000000000E+02 0.  0.
<mgrwt>
<rscale>  0 0.22670429E+03</rscale>
<asrwt>0</asrwt>
<pdfrwt beam="1">  1        2 0.31566524E-01 0.22670429E+03</pdfrwt>
<pdfrwt beam="2">  1       -2 0.83068552E-02 0.22670429E+03</pdfrwt>
<totfact> 0.14418866E+04</totfact>
</mgrwt>
</event>
<event>
 4    1  0.6782240E-004  0.1936832E+03  0.7818608E-02  0.1155181E+00
         -2   -1    0    0    0  501 -0.00000000000E+00  0.00000000000E+00  0.72526683430E+02  0.72526683475E+02  0.25500000000E-02 0. -1.
          2   -1    0    0  501    0  0.00000000000E+00 -0.00000000000E+00 -0.12930820622E+03  0.12930820624E+03  0.25500000000E-02 0.  1.
    5000001    1    1    2    0    0 -0.21680097977E+02 -0.50647171395E+02 -0.49597509049E+02  0.10688346702E+03  0.77000000000E+02 0.  0.
   -5000001    1    1    2    0    0  0.21680097977E+02  0.50647171395E+02 -0.71840137382E+01  0.94951422696E+02  0.77000000000E+02 0.  0.
<mgrwt>
<rscale>  0 0.19368320E+03</rscale>
<asrwt>0</asrwt>
<pdfrwt beam="1">  1        2 0.18472601E-01 0.19368320E+03</pdfrwt>
<pdfrwt beam="2">  1       -2 0.10360955E-01 0.19368320E+03</pdfrwt>
<totfact> 0.18328887E+04</totfact>
</mgrwt>
</event>
<event>
 4    1  0.6782240E-004  0.2916655E+03  0.7818608E-02  0.1089483E+00
          2   -1    0    0  501    0  0.00000000000E+00  0.00000000000E+00  0.15588908794E+04  0.15588908794E+04  0.25500000000E-02 0.  1.
         -2   -1    0    0    0  501 -0.00000000000E+00 -0.00000000000E+00 -0.13642515417E+02  0.13642515655E+02  0.25500000000E-02 0. -1.
    5000001    1    1    2    0    0 -0.11273556706E+03 -0.42111893893E+02  0.61492914013E+03  0.63130782276E+03  0.77000000000E+02 0.  0.
   -5000001    1    1    2    0    0  0.11273556706E+03  0.42111893893E+02  0.93031922382E+03  0.94122557227E+03  0.77000000000E+02 0.  0.
<mgrwt>
<rscale>  0 0.29166551E+03</rscale>
<asrwt>0</asrwt>
<pdfrwt beam="1">  1        2 0.22269860E+00 0.29166551E+03</pdfrwt>
<pdfrwt beam="2">  1       -2 0.19489317E-02 0.29166551E+03</pdfrwt>
<totfact> 0.11716070E+04</totfact>
</mgrwt>
</event>
<event>
 4    1  0.6782240E-004  0.2458933E+03  0.7818608E-02  0.1115928E+00
          2   -1    0    0  501    0  0.00000000000E+00  0.00000000000E+00  0.10205240773E+03  0.10205240776E+03  0.25500000000E-02 0.  1.
         -2   -1    0    0    0  501 -0.00000000000E+00 -0.00000000000E+00 -0.14811881761E+03  0.14811881763E+03  0.25500000000E-02 0. -1.
    5000001    1    1    2    0    0  0.34260318419E+02 -0.86712613706E+02 -0.45646796926E+02  0.12924966872E+03  0.77000000000E+02 0.  0.
   -5000001    1    1    2    0    0 -0.34260318419E+02  0.86712613706E+02 -0.41961295075E+00  0.12092155668E+03  0.77000000000E+02 0.  0.
<mgrwt>
<rscale>  0 0.24589333E+03</rscale>
<asrwt>0</asrwt>
<pdfrwt beam="1">  1        2 0.14578915E-01 0.24589333E+03</pdfrwt>
<pdfrwt beam="2">  1       -2 0.21159831E-01 0.24589333E+03</pdfrwt>
<totfact> 0.75688279E+03</totfact>
</mgrwt>
</event>
<event>
 4    1  0.6782240E-004  0.1961019E+03  0.7818608E-02  0.1153070E+00
          2   -1    0    0  501    0  0.00000000000E+00  0.00000000000E+00  0.21081016759E+02  0.21081016913E+02  0.25500000000E-02 0.  1.
         -2   -1    0    0    0  501 -0.00000000000E+00 -0.00000000000E+00 -0.45604969919E+03  0.45604969920E+03  0.25500000000E-02 0. -1.
    5000001    1    1    2    0    0  0.57872707795E+02  0.92792931776E+01 -0.17904207783E+03  0.20352007573E+03  0.77000000000E+02 0.  0.
   -5000001    1    1    2    0    0 -0.57872707795E+02 -0.92792931776E+01 -0.25592660460E+03  0.27361064039E+03  0.77000000000E+02 0.  0.
<mgrwt>
<rscale>  0 0.19610193E+03</rscale>
<asrwt>0</asrwt>
<pdfrwt beam="1">  1        2 0.30115741E-02 0.19610193E+03</pdfrwt>
<pdfrwt beam="2">  1       -2 0.65149951E-01 0.19610193E+03</pdfrwt>
<totfact> 0.67417947E+03</totfact>
</mgrwt>
</event>
<event>
 4    1  0.6782240E-004  0.1949022E+03  0.7818608E-02  0.1154113E+00
         -2   -1    0    0    0  501 -0.00000000000E+00  0.00000000000E+00  0.23235595380E+02  0.23235595520E+02  0.25500000000E-02 0. -1.
          2   -1    0    0  501    0  0.00000000000E+00 -0.00000000000E+00 -0.40871434017E+03  0.40871434018E+03  0.25500000000E-02 0.  1.
    5000001    1    1    2    0    0 -0.34592829206E+02  0.47834771238E+02 -0.17256162832E+03  0.19796803969E+03  0.77000000000E+02 0.  0.
   -5000001    1    1    2    0    0  0.34592829206E+02 -0.47834771238E+02 -0.21291711647E+03  0.23398189601E+03  0.77000000000E+02 0.  0.
<mgrwt>
<rscale>  0 0.19490224E+03</rscale>
<asrwt>0</asrwt>
<pdfrwt beam="1">  1        2 0.58387759E-01 0.19490224E+03</pdfrwt>
<pdfrwt beam="2">  1       -2 0.33193710E-02 0.19490224E+03</pdfrwt>
<totfact> 0.29662214E+04</totfact>
</mgrwt>
</event>
<event>
 4    1  0.6782240E-004  0.2557353E+03  0.7818608E-02  0.1109733E+00
         -2   -1    0    0    0  501 -0.00000000000E+00  0.00000000000E+00  0.21790913758E+03  0.21790913760E+03  0.25500000000E-02 0. -1.
          2   -1    0    0  501    0  0.00000000000E+00 -0.00000000000E+00 -0.75031892248E+02  0.75031892291E+02  0.25500000000E-02 0.  1.
    5000001    1    1    2    0    0 -0.63994727756E+02 -0.73520201380E+02  0.10619404776E+03  0.16342191093E+03  0.77000000000E+02 0.  0.
   -5000001    1    1    2    0    0  0.63994727756E+02  0.73520201380E+02  0.36683197570E+02  0.12951911896E+03  0.77000000000E+02 0.  0.
<mgrwt>
<rscale>  0 0.25573529E+03</rscale>
<asrwt>0</asrwt>
<pdfrwt beam="1">  1        2 0.10718842E-01 0.25573529E+03</pdfrwt>
<pdfrwt beam="2">  1       -2 0.31129877E-01 0.25573529E+03</pdfrwt>
<totfact> 0.55530647E+03</totfact>
</mgrwt>
</event>
<event>
 4    1  0.6782240E-004  0.2474646E+03  0.7818608E-02  0.1114918E+00
          2   -1    0    0  501    0  0.00000000000E+00  0.00000000000E+00  0.71527685603E+03  0.71527685603E+03  0.25500000000E-02 0.  1.
         -2   -1    0    0    0  501 -0.00000000000E+00 -0.00000000000E+00 -0.21403848210E+02  0.21403848362E+02  0.25500000000E-02 0. -1.
    5000001    1    1    2    0    0 -0.76751824275E+02 -0.58648620172E+02  0.32584992010E+03  0.34847908633E+03  0.77000000000E+02 0.  0.
   -5000001    1    1    2    0    0  0.76751824275E+02  0.58648620172E+02  0.36802308771E+03  0.38820161807E+03  0.77000000000E+02 0.  0.
<mgrwt>
<rscale>  0 0.24746456E+03</rscale>
<asrwt>0</asrwt>
<pdfrwt beam="1">  1        2 0.10218243E+00 0.24746456E+03</pdfrwt>
<pdfrwt beam="2">  1       -2 0.30576920E-02 0.24746456E+03</pdfrwt>
<totfact> 0.18198676E+04</totfact>
</mgrwt>
</event>
<event>
 4    1  0.6782240E-004  0.1896287E+03  0.7818608E-02  0.1158797E+00
          2   -1    0    0  501    0  0.00000000000E+00  0.00000000000E+00  0.65106367701E+03  0.65106367701E+03  0.25500000000E-02 0.  1.
         -2   -1    0    0    0  501 -0.00000000000E+00 -0.00000000000E+00 -0.13807808489E+02  0.13807808724E+02  0.25500000000E-02 0. -1.
    5000001    1    1    2    0    0 -0.47879614940E+02  0.27589607998E+02  0.32798268914E+03  0.34140194547E+03  0.77000000000E+02 0.  0.
   -5000001    1    1    2    0    0  0.47879614940E+02 -0.27589607998E+02  0.30927317938E+03  0.32346954026E+03  0.77000000000E+02 0.  0.
<mgrwt>
<rscale>  0 0.18962872E+03</rscale>
<asrwt>0</asrwt>
<pdfrwt beam="1">  1        2 0.93009102E-01 0.18962872E+03</pdfrwt>
<pdfrwt beam="2">  1       -2 0.19725440E-02 0.18962872E+03</pdfrwt>
<totfact> 0.38052426E+04</totfact>
</mgrwt>
</event>
<event>
 4    1  0.6782240E-004  0.3104855E+03  0.7818608E-02  0.1080113E+00
         -2   -1    0    0    0  501 -0.00000000000E+00  0.00000000000E+00  0.12382446231E+03  0.12382446233E+03  0.25500000000E-02 0. -1.
          2   -1    0    0  501    0  0.00000000000E+00 -0.00000000000E+00 -0.19463286731E+03  0.19463286732E+03  0.25500000000E-02 0.  1.
    5000001    1    1    2    0    0  0.94253803107E+02 -0.93555475115E+02 -0.11682394360E+02  0.15395416416E+03  0.77000000000E+02 0.  0.
   -5000001    1    1    2    0    0 -0.94253803107E+02  0.93555475115E+02 -0.59126010638E+02  0.16450316550E+03  0.77000000000E+02 0.  0.
<mgrwt>
<rscale>  0 0.31048549E+03</rscale>
<asrwt>0</asrwt>
<pdfrwt beam="1">  1        2 0.27804695E-01 0.31048549E+03</pdfrwt>
<pdfrwt beam="2">  1       -2 0.17689209E-01 0.31048549E+03</pdfrwt>
<totfact> 0.49449429E+03</totfact>
</mgrwt>
</event>
<event>
 4    1  0.6782240E-004  0.6101173E+03  0.7818608E-02  0.9884635E-01
         -2   -1    0    0    0  501 -0.00000000000E+00  0.00000000000E+00  0.39918918450E+03  0.39918918450E+03  0.25500000000E-02 0. -1.
          2   -1    0    0  501    0  0.00000000000E+00 -0.00000000000E+00 -0.23312446409E+03  0.23312446410E+03  0.25500000000E-02 0.  1.
    5000001    1    1    2    0    0 -0.68860394863E+02 -0.28150714029E+03  0.14114125437E+03  0.33141798035E+03  0.77000000000E+02 0.  0.
   -5000001    1    1    2    0    0  0.68860394863E+02  0.28150714029E+03  0.24923466036E+02  0.30089566825E+03  0.77000000000E+02 0.  0.
<mgrwt>
<rscale>  0 0.61011725E+03</rscale>
<asrwt>0</asrwt>
<pdfrwt beam="1">  1        2 0.33303495E-01 0.61011725E+03</pdfrwt>
<pdfrwt beam="2">  1       -2 0.57027025E-01 0.61011725E+03</pdfrwt>
<totfact> 0.45981083E+02</totfact>
</mgrwt>
</event>
<event>
 4    1  0.6782240E-004  0.3697996E+03  0.7818608E-02  0.1054770E+00
         -2   -1    0    0    0  501 -0.00000000000E+00  0.00000000000E+00  0.17883484007E+02  0.17883484189E+02  0.25500000000E-02 0. -1.
          2   -1    0    0  501    0  0.00000000000E+00 -0.00000000000E+00 -0.19117039384E+04  0.19117039384E+04  0.25500000000E-02 0.  1.
    5000001    1    1    2    0    0  0.10209844983E+03 -0.10638505153E+03 -0.13681445502E+04  0.13782200053E+04  0.77000000000E+02 0.  0.
   -5000001    1    1    2    0    0 -0.10209844983E+03  0.10638505153E+03 -0.52567590417E+03  0.55136741731E+03  0.77000000000E+02 0.  0.
<mgrwt>
<rscale>  0 0.36979955E+03</rscale>
<asrwt>0</asrwt>
<pdfrwt beam="1">  1        2 0.27310043E+00 0.36979955E+03</pdfrwt>
<pdfrwt beam="2">  1       -2 0.25547847E-02 0.36979955E+03</pdfrwt>
<totfact> 0.52543402E+03</totfact>
</mgrwt>
</event>
<event>
 4    1  0.6782240E-004  0.6143528E+03  0.7818608E-02  0.9876068E-01
          2   -1    0    0  501    0  0.00000000000E+00  0.00000000000E+00  0.34075832688E+03  0.34075832689E+03  0.25500000000E-02 0.  1.
         -2   -1    0    0    0  501 -0.00000000000E+00 -0.00000000000E+00 -0.27690395979E+03  0.27690395981E+03  0.25500000000E-02 0. -1.
    5000001    1    1    2    0    0  0.86041171231E+02 -0.28351311704E+03  0.63824508236E+01  0.30619031069E+03  0.77000000000E+02 0.  0.
   -5000001    1    1    2    0    0 -0.86041171231E+02  0.28351311704E+03  0.57471916263E+02  0.31147197601E+03  0.77000000000E+02 0.  0.
<mgrwt>
<rscale>  0 0.61435277E+03</rscale>
<asrwt>0</asrwt>
<pdfrwt beam="1">  1        2 0.48679761E-01 0.61435277E+03</pdfrwt>
<pdfrwt beam="2">  1       -2 0.39557708E-01 0.61435277E+03</pdfrwt>
<totfact> 0.62924240E+02</totfact>
</mgrwt>
</event>
<event>
 4    1  0.6782240E-004  0.3597936E+03  0.7818608E-02  0.1058666E+00
          2   -1    0    0  501    0  0.00000000000E+00  0.00000000000E+00  0.25597697744E+03  0.25597697745E+03  0.25500000000E-02 0.  1.
         -2   -1    0    0    0  501 -0.00000000000E+00 -0.00000000000E+00 -0.12642878658E+03  0.12642878660E+03  0.25500000000E-02 0. -1.
    5000001    1    1    2    0    0 -0.15962354842E+02 -0.16043805941E+03  0.42512804414E+02  0.18366139011E+03  0.77000000000E+02 0.  0.
   -5000001    1    1    2    0    0  0.15962354842E+02  0.16043805941E+03  0.87035386445E+02  0.19874437394E+03  0.77000000000E+02 0.  0.
<mgrwt>
<rscale>  0 0.35979360E+03</rscale>
<asrwt>0</asrwt>
<pdfrwt beam="1">  1        2 0.36568140E-01 0.35979360E+03</pdfrwt>
<pdfrwt beam="2">  1       -2 0.18061255E-01 0.35979360E+03</pdfrwt>
<totfact> 0.35456009E+03</totfact>
</mgrwt>
</event>
<event>
 4    1  0.6782240E-004  0.2216555E+03  0.7818608E-02  0.1132655E+00
          2   -1    0    0  501    0  0.00000000000E+00  0.00000000000E+00  0.65367957383E+03  0.65367957383E+03  0.25500000000E-02 0.  1.
         -2   -1    0    0    0  501 -0.00000000000E+00 -0.00000000000E+00 -0.18790224332E+02  0.18790224505E+02  0.25500000000E-02 0. -1.
    5000001    1    1    2    0    0  0.54582558021E+02  0.24000651982E+02  0.47793798054E+03  0.48775916206E+03  0.77000000000E+02 0.  0.
   -5000001    1    1    2    0    0 -0.54582558021E+02 -0.24000651982E+02  0.15695136896E+03  0.18471063628E+03  0.77000000000E+02 0.  0.
<mgrwt>
<rscale>  0 0.22165546E+03</rscale>
<asrwt>0</asrwt>
<pdfrwt beam="1">  1        2 0.93382805E-01 0.22165546E+03</pdfrwt>
<pdfrwt beam="2">  1       -2 0.26843175E-02 0.22165546E+03</pdfrwt>
<totfact> 0.24373855E+04</totfact>
</mgrwt>
</event>
<event>
 4    1  0.6782240E-004  0.2621832E+03  0.7818608E-02  0.1105839E+00
         -2   -1    0    0    0  501 -0.00000000000E+00  0.00000000000E+00  0.72140407241E+02  0.72140407286E+02  0.25500000000E-02 0. -1.
          2   -1    0    0  501    0  0.00000000000E+00 -0.00000000000E+00 -0.23821616308E+03  0.23821616309E+03  0.25500000000E-02 0.  1.
    5000001    1    1    2    0    0  0.13534783601E+02  0.10294946334E+03 -0.10881592055E+03  0.16897244430E+03  0.77000000000E+02 0.  0.
   -5000001    1    1    2    0    0 -0.13534783601E+02 -0.10294946334E+03 -0.57259835284E+02  0.14138412607E+03  0.77000000000E+02 0.  0.
<mgrwt>
<rscale>  0 0.26218323E+03</rscale>
<asrwt>0</asrwt>
<pdfrwt beam="1">  1        2 0.34030880E-01 0.26218323E+03</pdfrwt>
<pdfrwt beam="2">  1       -2 0.10305773E-01 0.26218323E+03</pdfrwt>
<totfact> 0.95315960E+03</totfact>
</mgrwt>
</event>
<event>
 4    1  0.6782240E-004  0.2316604E+03  0.7818608E-02  0.1125477E+00
          2   -1    0    0  501    0  0.00000000000E+00  0.00000000000E+00  0.53996776306E+03  0.53996776306E+03  0.25500000000E-02 0.  1.
         -2   -1    0    0    0  501 -0.00000000000E+00 -0.00000000000E+00 -0.24847094976E+02  0.24847095107E+02  0.25500000000E-02 0. -1.
    5000001    1    1    2    0    0  0.34166519398E+02  0.79077960100E+02  0.23761012036E+03  0.26421249804E+03  0.77000000000E+02 0.  0.
   -5000001    1    1    2    0    0 -0.34166519398E+02 -0.79077960100E+02  0.27751054772E+03  0.30060236013E+03  0.77000000000E+02 0.  0.
<mgrwt>
<rscale>  0 0.23166036E+03</rscale>
<asrwt>0</asrwt>
<pdfrwt beam="1">  1        2 0.77138256E-01 0.23166036E+03</pdfrwt>
<pdfrwt beam="2">  1       -2 0.35495848E-02 0.23166036E+03</pdfrwt>
<totfact> 0.20053214E+04</totfact>
</mgrwt>
</event>
<event>
 4    1  0.6782240E-004  0.2024330E+03  0.7818608E-02  0.1147702E+00
          2   -1    0    0  501    0  0.00000000000E+00  0.00000000000E+00  0.14001128539E+04  0.14001128539E+04  0.25500000000E-02 0.  1.
         -2   -1    0    0    0  501 -0.00000000000E+00 -0.00000000000E+00 -0.73171062726E+01  0.73171067169E+01  0.25500000000E-02 0. -1.
    5000001    1    1    2    0    0 -0.34966824325E+02 -0.52375494016E+02  0.82645071476E+03  0.83241555434E+03  0.77000000000E+02 0.  0.
   -5000001    1    1    2    0    0  0.34966824325E+02  0.52375494016E+02  0.56634503286E+03  0.57501440627E+03  0.77000000000E+02 0.  0.
<mgrwt>
<rscale>  0 0.20243295E+03</rscale>
<asrwt>0</asrwt>
<pdfrwt beam="1">  1        2 0.20001627E+00 0.20243295E+03</pdfrwt>
<pdfrwt beam="2">  1       -2 0.10453001E-02 0.20243295E+03</pdfrwt>
<totfact> 0.34392468E+04</totfact>
</mgrwt>
</event>
<event>
 4    1  0.6782240E-004  0.2266907E+03  0.7818608E-02  0.1128991E+00
          2   -1    0    0  501    0  0.00000000000E+00  0.00000000000E+00  0.13536871080E+03  0.13536871083E+03  0.25500000000E-02 0.  1.
         -2   -1    0    0    0  501 -0.00000000000E+00 -0.00000000000E+00 -0.94905023760E+02  0.94905023795E+02  0.25500000000E-02 0. -1.
    5000001    1    1    2    0    0  0.57327203921E+02  0.16142765929E+02 -0.38747673885E+02  0.10477299000E+03  0.77000000000E+02 0.  0.
   -5000001    1    1    2    0    0 -0.57327203921E+02 -0.16142765929E+02  0.79211360926E+02  0.12550074462E+03  0.77000000000E+02 0.  0.
<mgrwt>
<rscale>  0 0.22669072E+03</rscale>
<asrwt>0</asrwt>
<pdfrwt beam="1">  1        2 0.19338387E-01 0.22669072E+03</pdfrwt>
<pdfrwt beam="2">  1       -2 0.13557861E-01 0.22669072E+03</pdfrwt>
<totfact> 0.11411007E+04</totfact>
</mgrwt>
</event>
<event>
 4    1  0.6782240E-004  0.2337514E+03  0.7818608E-02  0.1124027E+00
          2   -1    0    0  501    0  0.00000000000E+00  0.00000000000E+00  0.18100762851E+04  0.18100762851E+04  0.25500000000E-02 0.  1.
         -2   -1    0    0    0  501 -0.00000000000E+00 -0.00000000000E+00 -0.75466030336E+01  0.75466034645E+01  0.25500000000E-02 0. -1.
    5000001    1    1    2    0    0 -0.35682643093E+02  0.74417667396E+02  0.66545078261E+03  0.67495554247E+03  0.77000000000E+02 0.  0.
   -5000001    1    1    2    0    0  0.35682643093E+02 -0.74417667396E+02  0.11370788994E+04  0.11426673461E+04  0.77000000000E+02 0.  0.
<mgrwt>
<rscale>  0 0.23375139E+03</rscale>
<asrwt>0</asrwt>
<pdfrwt beam="1">  1        2 0.25858188E+00 0.23375139E+03</pdfrwt>
<pdfrwt beam="2">  1       -2 0.10780881E-02 0.23375139E+03</pdfrwt>
<totfact> 0.20765284E+04</totfact>
</mgrwt>
</event>
<event>
 4    1  0.6782240E-004  0.2436807E+03  0.7818608E-02  0.1117365E+00
         -2   -1    0    0    0  501 -0.00000000000E+00  0.00000000000E+00  0.44407284782E+01  0.44407292103E+01  0.25500000000E-02 0. -1.
          2   -1    0    0  501    0  0.00000000000E+00 -0.00000000000E+00 -0.33429351624E+04  0.33429351624E+04  0.25500000000E-02 0.  1.
    5000001    1    1    2    0    0  0.49163555685E+02 -0.70992206515E+02 -0.21939687545E+04  0.21970172608E+04  0.77000000000E+02 0.  0.
   -5000001    1    1    2    0    0 -0.49163555685E+02  0.70992206515E+02 -0.11445256794E+04  0.11503586308E+04  0.77000000000E+02 0.  0.
<mgrwt>
<rscale>  0 0.24368068E+03</rscale>
<asrwt>0</asrwt>
<pdfrwt beam="1">  1        2 0.47756055E+00 0.24368068E+03</pdfrwt>
<pdfrwt beam="2">  1       -2 0.63439198E-03 0.24368068E+03</pdfrwt>
<totfact> 0.74470269E+03</totfact>
</mgrwt>
</event>
<event>
 4    1  0.6782240E-004  0.3209352E+03  0.7818608E-02  0.1075220E+00
          2   -1    0    0  501    0  0.00000000000E+00  0.00000000000E+00  0.19526463909E+03  0.19526463911E+03  0.25500000000E-02 0.  1.
         -2   -1    0    0    0  501 -0.00000000000E+00 -0.00000000000E+00 -0.13187151939E+03  0.13187151941E+03  0.25500000000E-02 0. -1.
    5000001    1    1    2    0    0 -0.13688803636E+03  0.43140630332E+01 -0.15511280428E+01  0.15712527371E+03  0.77000000000E+02 0.  0.
   -5000001    1    1    2    0    0  0.13688803636E+03 -0.43140630332E+01  0.64944247742E+02  0.17001088481E+03  0.77000000000E+02 0.  0.
<mgrwt>
<rscale>  0 0.32093516E+03</rscale>
<asrwt>0</asrwt>
<pdfrwt beam="1">  1        2 0.27894949E-01 0.32093516E+03</pdfrwt>
<pdfrwt beam="2">  1       -2 0.18838788E-01 0.32093516E+03</pdfrwt>
<totfact> 0.44326985E+03</totfact>
</mgrwt>
</event>
<event>
 4    1  0.6782240E-004  0.3535961E+03  0.7818608E-02  0.1061149E+00
          2   -1    0    0  501    0  0.00000000000E+00  0.00000000000E+00  0.21946444525E+03  0.21946444527E+03  0.25500000000E-02 0.  1.
         -2   -1    0    0    0  501 -0.00000000000E+00 -0.00000000000E+00 -0.14242652658E+03  0.14242652660E+03  0.25500000000E-02 0. -1.
    5000001    1    1    2    0    0 -0.90315959500E+02 -0.69376748166E+02  0.15229538331E+03  0.20516576104E+03  0.77000000000E+02 0.  0.
   -5000001    1    1    2    0    0  0.90315959500E+02  0.69376748166E+02 -0.75257464633E+02  0.15672521083E+03  0.77000000000E+02 0.  0.
<mgrwt>
<rscale>  0 0.35359615E+03</rscale>
<asrwt>0</asrwt>
<pdfrwt beam="1">  1        2 0.31352063E-01 0.35359615E+03</pdfrwt>
<pdfrwt beam="2">  1       -2 0.20346647E-01 0.35359615E+03</pdfrwt>
<totfact> 0.34222492E+03</totfact>
</mgrwt>
</event>
<event>
 4    1  0.6782240E-004  0.1769052E+03  0.7818608E-02  0.1170832E+00
          2   -1    0    0  501    0  0.00000000000E+00  0.00000000000E+00  0.30576411315E+04  0.30576411315E+04  0.25500000000E-02 0.  1.
         -2   -1    0    0    0  501 -0.00000000000E+00 -0.00000000000E+00 -0.25587891018E+01  0.25587903724E+01  0.25500000000E-02 0. -1.
    5000001    1    1    2    0    0  0.10093573737E+02  0.32083032038E+02  0.10495067729E+04  0.10528649807E+04  0.77000000000E+02 0.  0.
   -5000001    1    1    2    0    0 -0.10093573737E+02 -0.32083032038E+02  0.20055755695E+04  0.20073349412E+04  0.77000000000E+02 0.  0.
<mgrwt>
<rscale>  0 0.17690518E+03</rscale>
<asrwt>0</asrwt>
<pdfrwt beam="1">  1        2 0.43680856E+00 0.17690518E+03</pdfrwt>
<pdfrwt beam="2">  1       -2 0.36553915E-03 0.17690518E+03</pdfrwt>
<totfact> 0.23307130E+04</totfact>
</mgrwt>
</event>
<event>
 4    1  0.6782240E-004  0.3514092E+03  0.7818608E-02  0.1062038E+00
         -2   -1    0    0    0  501 -0.00000000000E+00  0.00000000000E+00  0.36598650689E+03  0.36598650690E+03  0.25500000000E-02 0. -1.
          2   -1    0    0  501    0  0.00000000000E+00 -0.00000000000E+00 -0.84353144163E+02  0.84353144202E+02  0.25500000000E-02 0.  1.
    5000001    1    1    2    0    0 -0.90955452665E+02 -0.10202104178E+03  0.39406640840E+02  0.16175002528E+03  0.77000000000E+02 0.  0.
   -5000001    1    1    2    0    0  0.90955452665E+02  0.10202104178E+03  0.24222672189E+03  0.28858962582E+03  0.77000000000E+02 0.  0.
<mgrwt>
<rscale>  0 0.35140923E+03</rscale>
<asrwt>0</asrwt>
<pdfrwt beam="1">  1        2 0.12050449E-01 0.35140923E+03</pdfrwt>
<pdfrwt beam="2">  1       -2 0.52283787E-01 0.35140923E+03</pdfrwt>
<totfact> 0.17943291E+03</totfact>
</mgrwt>
</event>
<event>
 4    1  0.6782240E-004  0.2505360E+03  0.7818608E-02  0.1112967E+00
          2   -1    0    0  501    0  0.00000000000E+00  0.00000000000E+00  0.93562201256E+03  0.93562201256E+03  0.25500000000E-02 0.  1.
         -2   -1    0    0    0  501 -0.00000000000E+00 -0.00000000000E+00 -0.16771806404E+02  0.16771806598E+02  0.25500000000E-02 0. -1.
    5000001    1    1    2    0    0 -0.79388177318E+02  0.32566767031E+02  0.27319428781E+03  0.29652520282E+03  0.77000000000E+02 0.  0.
   -5000001    1    1    2    0    0  0.79388177318E+02 -0.32566767031E+02  0.64565591834E+03  0.65586861634E+03  0.77000000000E+02 0.  0.
<mgrwt>
<rscale>  0 0.25053600E+03</rscale>
<asrwt>0</asrwt>
<pdfrwt beam="1">  1        2 0.13366032E+00 0.25053600E+03</pdfrwt>
<pdfrwt beam="2">  1       -2 0.23959717E-02 0.25053600E+03</pdfrwt>
<totfact> 0.18693031E+04</totfact>
</mgrwt>
</event>
<event>
 4    1  0.6782240E-004  0.1932319E+03  0.7818608E-02  0.1155578E+00
          2   -1    0    0  501    0  0.00000000000E+00  0.00000000000E+00  0.18840092479E+04  0.18840092479E+04  0.25500000000E-02 0.  1.
         -2   -1    0    0    0  501 -0.00000000000E+00 -0.00000000000E+00 -0.49546678452E+01  0.49546685014E+01  0.25500000000E-02 0. -1.
    5000001    1    1    2    0    0  0.14487025179E+02  0.55380214686E+02  0.10504704189E+04  0.10548430893E+04  0.77000000000E+02 0.  0.
   -5000001    1    1    2    0    0 -0.14487025179E+02 -0.55380214686E+02  0.82858416121E+03  0.83412082715E+03  0.77000000000E+02 0.  0.
<mgrwt>
<rscale>  0 0.19323189E+03</rscale>
<asrwt>0</asrwt>
<pdfrwt beam="1">  1        2 0.26914414E+00 0.19323189E+03</pdfrwt>
<pdfrwt beam="2">  1       -2 0.70780983E-03 0.19323189E+03</pdfrwt>
<totfact> 0.34747621E+04</totfact>
</mgrwt>
</event>
<event>
 4    1  0.6782240E-004  0.3207983E+03  0.7818608E-02  0.1075283E+00
          2   -1    0    0  501    0  0.00000000000E+00  0.00000000000E+00  0.11923076152E+04  0.11923076152E+04  0.25500000000E-02 0.  1.
         -2   -1    0    0    0  501 -0.00000000000E+00 -0.00000000000E+00 -0.21578225388E+02  0.21578225539E+02  0.25500000000E-02 0. -1.
    5000001    1    1    2    0    0  0.85489811981E+02 -0.12998519750E+02  0.10053906099E+04  0.10120359421E+04  0.77000000000E+02 0.  0.
   -5000001    1    1    2    0    0 -0.85489811981E+02  0.12998519750E+02  0.16533877988E+03  0.20184989869E+03  0.77000000000E+02 0.  0.
<mgrwt>
<rscale>  0 0.32079827E+03</rscale>
<asrwt>0</asrwt>
<pdfrwt beam="1">  1        2 0.17032964E+00 0.32079827E+03</pdfrwt>
<pdfrwt beam="2">  1       -2 0.30826040E-02 0.32079827E+03</pdfrwt>
<totfact> 0.92326219E+03</totfact>
</mgrwt>
</event>
<event>
 4    1  0.6782240E-004  0.2259290E+03  0.7818608E-02  0.1129538E+00
         -2   -1    0    0    0  501 -0.00000000000E+00  0.00000000000E+00  0.23760649505E+03  0.23760649507E+03  0.25500000000E-02 0. -1.
          2   -1    0    0  501    0  0.00000000000E+00 -0.00000000000E+00 -0.53706332620E+02  0.53706332680E+02  0.25500000000E-02 0.  1.
    5000001    1    1    2    0    0  0.40257499505E+02  0.37588320795E+02  0.12482589069E+02  0.95490120727E+02  0.77000000000E+02 0.  0.
   -5000001    1    1    2    0    0 -0.40257499505E+02 -0.37588320795E+02  0.17141757336E+03  0.19582270702E+03  0.77000000000E+02 0.  0.
<mgrwt>
<rscale>  0 0.22592896E+03</rscale>
<asrwt>0</asrwt>
<pdfrwt beam="1">  1        2 0.76723334E-02 0.22592896E+03</pdfrwt>
<pdfrwt beam="2">  1       -2 0.33943784E-01 0.22592896E+03</pdfrwt>
<totfact> 0.71568489E+03</totfact>
</mgrwt>
</event>
<event>
 4    1  0.6782240E-004  0.2444143E+03  0.7818608E-02  0.1116887E+00
         -2   -1    0    0    0  501 -0.00000000000E+00  0.00000000000E+00  0.84926830610E+01  0.84926834439E+01  0.25500000000E-02 0. -1.
          2   -1    0    0  501    0  0.00000000000E+00 -0.00000000000E+00 -0.17585235922E+04  0.17585235922E+04  0.25500000000E-02 0.  1.
    5000001    1    1    2    0    0 -0.85571992396E+02  0.31869603223E+02 -0.10617779391E+04  0.10684753761E+04  0.77000000000E+02 0.  0.
   -5000001    1    1    2    0    0  0.85571992396E+02 -0.31869603223E+02 -0.68825297003E+03  0.69854089948E+03  0.77000000000E+02 0.  0.
<mgrwt>
<rscale>  0 0.24441427E+03</rscale>
<asrwt>0</asrwt>
<pdfrwt beam="1">  1        2 0.25121742E+00 0.24441427E+03</pdfrwt>
<pdfrwt beam="2">  1       -2 0.12132416E-02 0.24441427E+03</pdfrwt>
<totfact> 0.18569282E+04</totfact>
</mgrwt>
</event>
<event>
 4    1  0.6782240E-004  0.2243785E+03  0.7818608E-02  0.1130660E+00
         -2   -1    0    0    0  501 -0.00000000000E+00  0.00000000000E+00  0.18661175151E+02  0.18661175326E+02  0.25500000000E-02 0. -1.
          2   -1    0    0  501    0  0.00000000000E+00 -0.00000000000E+00 -0.67447161286E+03  0.67447161287E+03  0.25500000000E-02 0.  1.
    5000001    1    1    2    0    0  0.81529977606E+01  0.78259229951E+02 -0.26118771848E+03  0.28344135678E+03  0.77000000000E+02 0.  0.
   -5000001    1    1    2    0    0 -0.81529977606E+01 -0.78259229951E+02 -0.39462271923E+03  0.40969143142E+03  0.77000000000E+02 0.  0.
<mgrwt>
<rscale>  0 0.22437855E+03</rscale>
<asrwt>0</asrwt>
<pdfrwt beam="1">  1        2 0.96353072E-01 0.22437855E+03</pdfrwt>
<pdfrwt beam="2">  1       -2 0.26658826E-02 0.22437855E+03</pdfrwt>
<totfact> 0.23761666E+04</totfact>
</mgrwt>
</event>
<event>
 4    1  0.6782240E-004  0.4677703E+03  0.7818608E-02  0.1022551E+00
          2   -1    0    0  501    0  0.00000000000E+00  0.00000000000E+00  0.41724385052E+03  0.41724385052E+03  0.25500000000E-02 0.  1.
         -2   -1    0    0    0  501 -0.00000000000E+00 -0.00000000000E+00 -0.13110379551E+03  0.13110379554E+03  0.25500000000E-02 0. -1.
    5000001    1    1    2    0    0 -0.21560407673E+03  0.43670111976E+02  0.12018677680E+03  0.26223283147E+03  0.77000000000E+02 0.  0.
   -5000001    1    1    2    0    0  0.21560407673E+03 -0.43670111976E+02  0.16595327820E+03  0.28611481459E+03  0.77000000000E+02 0.  0.
<mgrwt>
<rscale>  0 0.46777025E+03</rscale>
<asrwt>0</asrwt>
<pdfrwt beam="1">  1        2 0.59606264E-01 0.46777025E+03</pdfrwt>
<pdfrwt beam="2">  1       -2 0.18729114E-01 0.46777025E+03</pdfrwt>
<totfact> 0.19607849E+03</totfact>
</mgrwt>
</event>
<event>
 4    1  0.6782240E-004  0.3030328E+03  0.7818608E-02  0.1083734E+00
          2   -1    0    0  501    0  0.00000000000E+00  0.00000000000E+00  0.26411041011E+03  0.26411041012E+03  0.25500000000E-02 0.  1.
         -2   -1    0    0    0  501 -0.00000000000E+00 -0.00000000000E+00 -0.86922810176E+02  0.86922810214E+02  0.25500000000E-02 0. -1.
    5000001    1    1    2    0    0  0.54301675822E+02  0.10888193425E+03  0.33961123516E+02  0.14794020925E+03  0.77000000000E+02 0.  0.
   -5000001    1    1    2    0    0 -0.54301675822E+02 -0.10888193425E+03  0.14322647642E+03  0.20309301108E+03  0.77000000000E+02 0.  0.
<mgrwt>
<rscale>  0 0.30303280E+03</rscale>
<asrwt>0</asrwt>
<pdfrwt beam="1">  1        2 0.37730058E-01 0.30303280E+03</pdfrwt>
<pdfrwt beam="2">  1       -2 0.12417544E-01 0.30303280E+03</pdfrwt>
<totfact> 0.63515478E+03</totfact>
</mgrwt>
</event>
<event>
 4    1  0.6782240E-004  0.1595817E+03  0.7818608E-02  0.1189170E+00
          2   -1    0    0  501    0  0.00000000000E+00  0.00000000000E+00  0.63516446697E+03  0.63516446697E+03  0.25500000000E-02 0.  1.
         -2   -1    0    0    0  501 -0.00000000000E+00 -0.00000000000E+00 -0.10023517434E+02  0.10023517758E+02  0.25500000000E-02 0. -1.
    5000001    1    1    2    0    0 -0.10547050273E+01  0.20069187939E+02  0.33603987470E+03  0.34533416005E+03  0.77000000000E+02 0.  0.
   -5000001    1    1    2    0    0  0.10547050273E+01 -0.20069187939E+02  0.28910107483E+03  0.29985382468E+03  0.77000000000E+02 0.  0.
<mgrwt>
<rscale>  0 0.15958173E+03</rscale>
<asrwt>0</asrwt>
<pdfrwt beam="1">  1        2 0.90737799E-01 0.15958173E+03</pdfrwt>
<pdfrwt beam="2">  1       -2 0.14319308E-02 0.15958173E+03</pdfrwt>
<totfact> 0.61331639E+04</totfact>
</mgrwt>
</event>
<event>
 4    1  0.6782240E-004  0.2716831E+03  0.7818608E-02  0.1100320E+00
         -2   -1    0    0    0  501 -0.00000000000E+00  0.00000000000E+00  0.11264510690E+03  0.11264510693E+03  0.25500000000E-02 0. -1.
          2   -1    0    0  501    0  0.00000000000E+00 -0.00000000000E+00 -0.16381469307E+03  0.16381469309E+03  0.25500000000E-02 0.  1.
    5000001    1    1    2    0    0 -0.10473771495E+03 -0.50322764872E+01  0.14200070656E+02  0.13086617113E+03  0.77000000000E+02 0.  0.
   -5000001    1    1    2    0    0  0.10473771495E+03  0.50322764872E+01 -0.65369656825E+02  0.14559362889E+03  0.77000000000E+02 0.  0.
<mgrwt>
<rscale>  0 0.27168308E+03</rscale>
<asrwt>0</asrwt>
<pdfrwt beam="1">  1        2 0.23402099E-01 0.27168308E+03</pdfrwt>
<pdfrwt beam="2">  1       -2 0.16092158E-01 0.27168308E+03</pdfrwt>
<totfact> 0.69925256E+03</totfact>
</mgrwt>
</event>
<event>
 4    1  0.6782240E-004  0.1717642E+03  0.7818608E-02  0.1176020E+00
          2   -1    0    0  501    0  0.00000000000E+00  0.00000000000E+00  0.25494821662E+04  0.25494821662E+04  0.25500000000E-02 0.  1.
         -2   -1    0    0    0  501 -0.00000000000E+00 -0.00000000000E+00 -0.28930327087E+01  0.28930338326E+01  0.25500000000E-02 0. -1.
    5000001    1    1    2    0    0 -0.32494170422E+02 -0.94073705006E+01  0.10149025962E+04  0.10183813870E+04  0.77000000000E+02 0.  0.
   -5000001    1    1    2    0    0  0.32494170422E+02  0.94073705006E+01  0.15316865373E+04  0.15339938130E+04  0.77000000000E+02 0.  0.
<mgrwt>
<rscale>  0 0.17176422E+03</rscale>
<asrwt>0</asrwt>
<pdfrwt beam="1">  1        2 0.36421194E+00 0.17176422E+03</pdfrwt>
<pdfrwt beam="2">  1       -2 0.41329024E-03 0.17176422E+03</pdfrwt>
<totfact> 0.35447518E+04</totfact>
</mgrwt>
</event>
<event>
 4    1  0.6782240E-004  0.2634327E+03  0.7818608E-02  0.1105098E+00
         -2   -1    0    0    0  501 -0.00000000000E+00  0.00000000000E+00  0.76803432909E+02  0.76803432951E+02  0.25500000000E-02 0. -1.
          2   -1    0    0  501    0  0.00000000000E+00 -0.00000000000E+00 -0.22589095153E+03  0.22589095155E+03  0.25500000000E-02 0.  1.
    5000001    1    1    2    0    0 -0.45649662947E+02  0.59084859525E+02 -0.16239291645E+03  0.19461595944E+03  0.77000000000E+02 0.  0.
   -5000001    1    1    2    0    0  0.45649662947E+02 -0.59084859525E+02  0.13305397832E+02  0.10807842506E+03  0.77000000000E+02 0.  0.
<mgrwt>
<rscale>  0 0.26343273E+03</rscale>
<asrwt>0</asrwt>
<pdfrwt beam="1">  1        2 0.32270136E-01 0.26343273E+03</pdfrwt>
<pdfrwt beam="2">  1       -2 0.10971919E-01 0.26343273E+03</pdfrwt>
<totfact> 0.91401494E+03</totfact>
</mgrwt>
</event>
<event>
 4    1  0.6782240E-004  0.1820600E+03  0.7818608E-02  0.1165824E+00
         -2   -1    0    0    0  501 -0.00000000000E+00  0.00000000000E+00  0.51023736529E+03  0.51023736529E+03  0.25500000000E-02 0. -1.
          2   -1    0    0  501    0  0.00000000000E+00 -0.00000000000E+00 -0.16240411597E+02  0.16240411797E+02  0.25500000000E-02 0.  1.
    5000001    1    1    2    0    0 -0.37650082857E+02 -0.28713773979E+02  0.21592624970E+03  0.23408364929E+03  0.77000000000E+02 0.  0.
   -5000001    1    1    2    0    0  0.37650082857E+02  0.28713773979E+02  0.27807070399E+03  0.29239412780E+03  0.77000000000E+02 0.  0.
<mgrwt>
<rscale>  0 0.18206004E+03</rscale>
<asrwt>0</asrwt>
<pdfrwt beam="1">  1        2 0.23200590E-02 0.18206004E+03</pdfrwt>
<pdfrwt beam="2">  1       -2 0.72891048E-01 0.18206004E+03</pdfrwt>
<totfact> 0.75288394E+03</totfact>
</mgrwt>
</event>
<event>
 4    1  0.6782240E-004  0.5049373E+03  0.7818608E-02  0.1012498E+00
          2   -1    0    0  501    0  0.00000000000E+00  0.00000000000E+00  0.16331625771E+04  0.16331625771E+04  0.25500000000E-02 0.  1.
         -2   -1    0    0    0  501 -0.00000000000E+00 -0.00000000000E+00 -0.39028825564E+02  0.39028825648E+02  0.25500000000E-02 0. -1.
    5000001    1    1    2    0    0  0.14102955975E+03 -0.16786511664E+03  0.47017552255E+03  0.52446358894E+03  0.77000000000E+02 0.  0.
   -5000001    1    1    2    0    0 -0.14102955975E+03  0.16786511664E+03  0.11239582290E+04  0.11477278138E+04  0.77000000000E+02 0.  0.
<mgrwt>
<rscale>  0 0.50493729E+03</rscale>
<asrwt>0</asrwt>
<pdfrwt beam="1">  1        2 0.23330886E+00 0.50493729E+03</pdfrwt>
<pdfrwt beam="2">  1       -2 0.55755484E-02 0.50493729E+03</pdfrwt>
<totfact> 0.22041331E+03</totfact>
</mgrwt>
</event>
<event>
 4    1  0.6782240E-004  0.3483550E+03  0.7818608E-02  0.1063292E+00
          2   -1    0    0  501    0  0.00000000000E+00  0.00000000000E+00  0.11006778044E+04  0.11006778044E+04  0.25500000000E-02 0.  1.
         -2   -1    0    0    0  501 -0.00000000000E+00 -0.00000000000E+00 -0.27562829176E+02  0.27562829294E+02  0.25500000000E-02 0. -1.
    5000001    1    1    2    0    0  0.14492533873E+03 -0.58356145664E+02  0.53646444471E+03  0.56403182001E+03  0.77000000000E+02 0.  0.
   -5000001    1    1    2    0    0 -0.14492533873E+03  0.58356145664E+02  0.53665053054E+03  0.56420881371E+03  0.77000000000E+02 0.  0.
<mgrwt>
<rscale>  0 0.34835496E+03</rscale>
<asrwt>0</asrwt>
<pdfrwt beam="1">  1        2 0.15723970E+00 0.34835496E+03</pdfrwt>
<pdfrwt beam="2">  1       -2 0.39375467E-02 0.34835496E+03</pdfrwt>
<totfact> 0.71990313E+03</totfact>
</mgrwt>
</event>
<event>
 4    1  0.6782240E-004  0.2704287E+03  0.7818608E-02  0.1101034E+00
          2   -1    0    0  501    0  0.00000000000E+00  0.00000000000E+00  0.38991217828E+03  0.38991217829E+03  0.25500000000E-02 0.  1.
         -2   -1    0    0    0  501 -0.00000000000E+00 -0.00000000000E+00 -0.46889852808E+02  0.46889852878E+02  0.25500000000E-02 0. -1.
    5000001    1    1    2    0    0 -0.71696893342E+02  0.80572671086E+02  0.12812437896E+03  0.18432920638E+03  0.77000000000E+02 0.  0.
   -5000001    1    1    2    0    0  0.71696893342E+02 -0.80572671086E+02  0.21489794651E+03  0.25247282479E+03  0.77000000000E+02 0.  0.
<mgrwt>
<rscale>  0 0.27042873E+03</rscale>
<asrwt>0</asrwt>
<pdfrwt beam="1">  1        2 0.55701740E-01 0.27042873E+03</pdfrwt>
<pdfrwt beam="2">  1       -2 0.66985504E-02 0.27042873E+03</pdfrwt>
<totfact> 0.11019515E+04</totfact>
</mgrwt>
</event>
<event>
 4    1  0.6782240E-004  0.1579760E+03  0.7818608E-02  0.1191001E+00
          2   -1    0    0  501    0  0.00000000000E+00  0.00000000000E+00  0.21534347784E+02  0.21534347935E+02  0.25500000000E-02 0.  1.
         -2   -1    0    0    0  501 -0.00000000000E+00 -0.00000000000E+00 -0.28972806958E+03  0.28972806959E+03  0.25500000000E-02 0. -1.
    5000001    1    1    2    0    0 -0.43451721835E+01  0.15861826404E+02 -0.12169373846E+03  0.14494427908E+03  0.77000000000E+02 0.  0.
   -5000001    1    1    2    0    0  0.43451721835E+01 -0.15861826404E+02 -0.14649998334E+03  0.16631813845E+03  0.77000000000E+02 0.  0.
<mgrwt>
<rscale>  0 0.15797601E+03</rscale>
<asrwt>0</asrwt>
<pdfrwt beam="1">  1        2 0.30763356E-02 0.15797601E+03</pdfrwt>
<pdfrwt beam="2">  1       -2 0.41389722E-01 0.15797601E+03</pdfrwt>
<totfact> 0.15943801E+04</totfact>
</mgrwt>
</event>
<event>
 4    1  0.6782240E-004  0.3008570E+03  0.7818608E-02  0.1084813E+00
         -2   -1    0    0    0  501 -0.00000000000E+00  0.00000000000E+00  0.35965647835E+02  0.35965647925E+02  0.25500000000E-02 0. -1.
          2   -1    0    0  501    0  0.00000000000E+00 -0.00000000000E+00 -0.62917635792E+03  0.62917635792E+03  0.25500000000E-02 0.  1.
    5000001    1    1    2    0    0 -0.12350528039E+03  0.10628558808E+01 -0.21256345047E+03  0.25761774866E+03  0.77000000000E+02 0.  0.
   -5000001    1    1    2    0    0  0.12350528039E+03 -0.10628558808E+01 -0.38064725961E+03  0.40752425719E+03  0.77000000000E+02 0.  0.
<mgrwt>
<rscale>  0 0.30085701E+03</rscale>
<asrwt>0</asrwt>
<pdfrwt beam="1">  1        2 0.89882330E-01 0.30085701E+03</pdfrwt>
<pdfrwt beam="2">  1       -2 0.51379501E-02 0.30085701E+03</pdfrwt>
<totfact> 0.97723034E+03</totfact>
</mgrwt>
</event>
<event>
 4    1  0.6782240E-004  0.2880009E+03  0.7818608E-02  0.1091398E+00
          2   -1    0    0  501    0  0.00000000000E+00  0.00000000000E+00  0.15868922387E+04  0.15868922387E+04  0.25500000000E-02 0.  1.
         -2   -1    0    0    0  501 -0.00000000000E+00 -0.00000000000E+00 -0.13067134243E+02  0.13067134492E+02  0.25500000000E-02 0. -1.
    5000001    1    1    2    0    0 -0.85442495477E+02 -0.70015350780E+02  0.10704318606E+04  0.10788678963E+04  0.77000000000E+02 0.  0.
   -5000001    1    1    2    0    0  0.85442495477E+02  0.70015350780E+02  0.50339324380E+03  0.52109147689E+03  0.77000000000E+02 0.  0.
<mgrwt>
<rscale>  0 0.28800093E+03</rscale>
<asrwt>0</asrwt>
<pdfrwt beam="1">  1        2 0.22669891E+00 0.28800093E+03</pdfrwt>
<pdfrwt beam="2">  1       -2 0.18667333E-02 0.28800093E+03</pdfrwt>
<totfact> 0.12082902E+04</totfact>
</mgrwt>
</event>
<event>
 4    1  0.6782240E-004  0.2969859E+03  0.7818608E-02  0.1086757E+00
         -2   -1    0    0    0  501 -0.00000000000E+00  0.00000000000E+00  0.10437671044E+02  0.10437671355E+02  0.25500000000E-02 0. -1.
          2   -1    0    0  501    0  0.00000000000E+00 -0.00000000000E+00 -0.21125550709E+04  0.21125550709E+04  0.25500000000E-02 0.  1.
    5000001    1    1    2    0    0  0.78272194949E+02  0.65796467350E+02 -0.51300001138E+03  0.52872840220E+03  0.77000000000E+02 0.  0.
   -5000001    1    1    2    0    0 -0.78272194949E+02 -0.65796467350E+02 -0.15891173885E+04  0.15942643401E+04  0.77000000000E+02 0.  0.
<mgrwt>
<rscale>  0 0.29698589E+03</rscale>
<asrwt>0</asrwt>
<pdfrwt beam="1">  1        2 0.30179331E+00 0.29698589E+03</pdfrwt>
<pdfrwt beam="2">  1       -2 0.14910972E-02 0.29698589E+03</pdfrwt>
<totfact> 0.92741706E+03</totfact>
</mgrwt>
</event>
<event>
 4    1  0.6782240E-004  0.4952246E+03  0.7818608E-02  0.1015033E+00
         -2   -1    0    0    0  501 -0.00000000000E+00  0.00000000000E+00  0.87173686596E+02  0.87173686633E+02  0.25500000000E-02 0. -1.
          2   -1    0    0  501    0  0.00000000000E+00 -0.00000000000E+00 -0.70332988855E+03  0.70332988856E+03  0.25500000000E-02 0.  1.
    5000001    1    1    2    0    0 -0.14330377647E+03 -0.12999388807E+03 -0.52193112162E+03  0.56193903496E+03  0.77000000000E+02 0.  0.
   -5000001    1    1    2    0    0  0.14330377647E+03  0.12999388807E+03 -0.94225080333E+02  0.22856454023E+03  0.77000000000E+02 0.  0.
<mgrwt>
<rscale>  0 0.49522463E+03</rscale>
<asrwt>0</asrwt>
<pdfrwt beam="1">  1        2 0.10047569E+00 0.49522463E+03</pdfrwt>
<pdfrwt beam="2">  1       -2 0.12453384E-01 0.49522463E+03</pdfrwt>
<totfact> 0.21351389E+03</totfact>
</mgrwt>
</event>
<event>
 4    1  0.6782240E-004  0.2293184E+03  0.7818608E-02  0.1127120E+00
          2   -1    0    0  501    0  0.00000000000E+00  0.00000000000E+00  0.16099459035E+04  0.16099459035E+04  0.25500000000E-02 0.  1.
         -2   -1    0    0    0  501 -0.00000000000E+00 -0.00000000000E+00 -0.81659429218E+01  0.81659433199E+01  0.25500000000E-02 0. -1.
    5000001    1    1    2    0    0  0.62257132317E+02 -0.22279544026E+02  0.42449723739E+03  0.43646217838E+03  0.77000000000E+02 0.  0.
   -5000001    1    1    2    0    0 -0.62257132317E+02  0.22279544026E+02  0.11772827232E+04  0.11816496685E+04  0.77000000000E+02 0.  0.
<mgrwt>
<rscale>  0 0.22931835E+03</rscale>
<asrwt>0</asrwt>
<pdfrwt beam="1">  1        2 0.22999241E+00 0.22931835E+03</pdfrwt>
<pdfrwt beam="2">  1       -2 0.11665626E-02 0.22931835E+03</pdfrwt>
<totfact> 0.23195047E+04</totfact>
</mgrwt>
</event>
<event>
 4    1  0.6782240E-004  0.3190991E+03  0.7818608E-02  0.1076065E+00
         -2   -1    0    0    0  501 -0.00000000000E+00  0.00000000000E+00  0.93147613563E+02  0.93147613598E+02  0.25500000000E-02 0. -1.
          2   -1    0    0  501    0  0.00000000000E+00 -0.00000000000E+00 -0.27328723430E+03  0.27328723431E+03  0.25500000000E-02 0.  1.
    5000001    1    1    2    0    0 -0.11180712334E+03  0.82739432997E+02 -0.10549384683E+03  0.19079989078E+03  0.77000000000E+02 0.  0.
   -5000001    1    1    2    0    0  0.11180712334E+03 -0.82739432997E+02 -0.74645773907E+02  0.17563495713E+03  0.77000000000E+02 0.  0.
<mgrwt>
<rscale>  0 0.31909907E+03</rscale>
<asrwt>0</asrwt>
<pdfrwt beam="1">  1        2 0.39041033E-01 0.31909907E+03</pdfrwt>
<pdfrwt beam="2">  1       -2 0.13306802E-01 0.31909907E+03</pdfrwt>
<totfact> 0.54768137E+03</totfact>
</mgrwt>
</event>
<event>
 4    1  0.6782240E-004  0.2586667E+03  0.7818608E-02  0.1107947E+00
         -2   -1    0    0    0  501 -0.00000000000E+00  0.00000000000E+00  0.26130581703E+02  0.26130581827E+02  0.25500000000E-02 0. -1.
          2   -1    0    0  501    0  0.00000000000E+00 -0.00000000000E+00 -0.64013576302E+03  0.64013576303E+03  0.25500000000E-02 0.  1.
    5000001    1    1    2    0    0 -0.51046898627E+02  0.88053237334E+02 -0.36096862174E+03  0.38286617028E+03  0.77000000000E+02 0.  0.
   -5000001    1    1    2    0    0  0.51046898627E+02 -0.88053237334E+02 -0.25303655958E+03  0.28340017457E+03  0.77000000000E+02 0.  0.
<mgrwt>
<rscale>  0 0.25866673E+03</rscale>
<asrwt>0</asrwt>
<pdfrwt beam="1">  1        2 0.91447956E-01 0.25866673E+03</pdfrwt>
<pdfrwt beam="2">  1       -2 0.37329407E-02 0.25866673E+03</pdfrwt>
<totfact> 0.15425832E+04</totfact>
</mgrwt>
</event>
<event>
 4    1  0.6782240E-004  0.2519419E+03  0.7818608E-02  0.1112084E+00
         -2   -1    0    0    0  501 -0.00000000000E+00  0.00000000000E+00  0.66611016520E+02  0.66611016569E+02  0.25500000000E-02 0. -1.
          2   -1    0    0  501    0  0.00000000000E+00 -0.00000000000E+00 -0.23822908885E+03  0.23822908887E+03  0.25500000000E-02 0.  1.
    5000001    1    1    2    0    0  0.89404507060E+02 -0.89024529272E+01 -0.13809370221E+03  0.18185513504E+03  0.77000000000E+02 0.  0.
   -5000001    1    1    2    0    0 -0.89404507060E+02  0.89024529272E+01 -0.33524370122E+02  0.12298497039E+03  0.77000000000E+02 0.  0.
<mgrwt>
<rscale>  0 0.25194191E+03</rscale>
<asrwt>0</asrwt>
<pdfrwt beam="1">  1        2 0.34032727E-01 0.25194191E+03</pdfrwt>
<pdfrwt beam="2">  1       -2 0.95158596E-02 0.25194191E+03</pdfrwt>
<totfact> 0.10795578E+04</totfact>
</mgrwt>
</event>
<event>
 4    1  0.6782240E-004  0.2115309E+03  0.7818608E-02  0.1140359E+00
          2   -1    0    0  501    0  0.00000000000E+00  0.00000000000E+00  0.21135139317E+04  0.21135139317E+04  0.25500000000E-02 0.  1.
         -2   -1    0    0    0  501 -0.00000000000E+00 -0.00000000000E+00 -0.52927620384E+01  0.52927626527E+01  0.25500000000E-02 0. -1.
    5000001    1    1    2    0    0 -0.96490801893E+01  0.67770474602E+02  0.81467869311E+03  0.82116765339E+03  0.77000000000E+02 0.  0.
   -5000001    1    1    2    0    0  0.96490801893E+01 -0.67770474602E+02  0.12935424765E+04  0.12976390410E+04  0.77000000000E+02 0.  0.
<mgrwt>
<rscale>  0 0.21153087E+03</rscale>
<asrwt>0</asrwt>
<pdfrwt beam="1">  1        2 0.30192999E+00 0.21153087E+03</pdfrwt>
<pdfrwt beam="2">  1       -2 0.75611033E-03 0.21153087E+03</pdfrwt>
<totfact> 0.24606144E+04</totfact>
</mgrwt>
</event>
<event>
 4    1  0.6782240E-004  0.1815337E+03  0.7818608E-02  0.1166327E+00
         -2   -1    0    0    0  501 -0.00000000000E+00  0.00000000000E+00  0.13713499422E+02  0.13713499659E+02  0.25500000000E-02 0. -1.
          2   -1    0    0  501    0  0.00000000000E+00 -0.00000000000E+00 -0.60076753688E+03  0.60076753689E+03  0.25500000000E-02 0.  1.
    5000001    1    1    2    0    0 -0.39071666603E+02  0.20367728339E+02 -0.35847784233E+03  0.36929230013E+03  0.77000000000E+02 0.  0.
   -5000001    1    1    2    0    0  0.39071666603E+02 -0.20367728339E+02 -0.22857619513E+03  0.24518873642E+03  0.77000000000E+02 0.  0.
<mgrwt>
<rscale>  0 0.18153375E+03</rscale>
<asrwt>0</asrwt>
<pdfrwt beam="1">  1        2 0.85823917E-01 0.18153375E+03</pdfrwt>
<pdfrwt beam="2">  1       -2 0.19590717E-02 0.18153375E+03</pdfrwt>
<totfact> 0.41965148E+04</totfact>
</mgrwt>
</event>
<event>
 4    1  0.6782240E-004  0.1592307E+03  0.7818608E-02  0.1189568E+00
         -2   -1    0    0    0  501 -0.00000000000E+00  0.00000000000E+00  0.21642690515E+02  0.21642690665E+02  0.25500000000E-02 0. -1.
          2   -1    0    0  501    0  0.00000000000E+00 -0.00000000000E+00 -0.29287512257E+03  0.29287512258E+03  0.25500000000E-02 0.  1.
    5000001    1    1    2    0    0 -0.18935913919E+02 -0.48178234106E+01 -0.12519690204E+03  0.14827354632E+03  0.77000000000E+02 0.  0.
   -5000001    1    1    2    0    0  0.18935913919E+02  0.48178234106E+01 -0.14603553002E+03  0.16624426693E+03  0.77000000000E+02 0.  0.
<mgrwt>
<rscale>  0 0.15923072E+03</rscale>
<asrwt>0</asrwt>
<pdfrwt beam="1">  1        2 0.41839301E-01 0.15923072E+03</pdfrwt>
<pdfrwt beam="2">  1       -2 0.30918131E-02 0.15923072E+03</pdfrwt>
<totfact> 0.46149819E+04</totfact>
</mgrwt>
</event>
<event>
 4    1  0.6782240E-004  0.2410234E+03  0.7818608E-02  0.1119113E+00
         -2   -1    0    0    0  501 -0.00000000000E+00  0.00000000000E+00  0.92416617520E+02  0.92416617556E+02  0.25500000000E-02 0. -1.
          2   -1    0    0  501    0  0.00000000000E+00 -0.00000000000E+00 -0.15714786752E+03  0.15714786754E+03  0.25500000000E-02 0.  1.
    5000001    1    1    2    0    0 -0.14219993617E+02  0.84392649828E+02  0.45306116262E+01  0.11521221292E+03  0.77000000000E+02 0.  0.
   -5000001    1    1    2    0    0  0.14219993617E+02 -0.84392649828E+02 -0.69261861622E+02  0.13435227218E+03  0.77000000000E+02 0.  0.
<mgrwt>
<rscale>  0 0.24102344E+03</rscale>
<asrwt>0</asrwt>
<pdfrwt beam="1">  1        2 0.22449695E-01 0.24102344E+03</pdfrwt>
<pdfrwt beam="2">  1       -2 0.13202374E-01 0.24102344E+03</pdfrwt>
<totfact> 0.10091967E+04</totfact>
</mgrwt>
</event>
<event>
 4    1  0.6782240E-004  0.3616844E+03  0.7818608E-02  0.1057919E+00
          2   -1    0    0  501    0  0.00000000000E+00  0.00000000000E+00  0.57675893949E+03  0.57675893949E+03  0.25500000000E-02 0.  1.
         -2   -1    0    0    0  501 -0.00000000000E+00 -0.00000000000E+00 -0.56702907293E+02  0.56702907351E+02  0.25500000000E-02 0. -1.
    5000001    1    1    2    0    0 -0.13815257903E+03  0.42983756063E+02  0.12617117525E+03  0.20683786849E+03  0.77000000000E+02 0.  0.
   -5000001    1    1    2    0    0  0.13815257903E+03 -0.42983756063E+02  0.39388485694E+03  0.42662397835E+03  0.77000000000E+02 0.  0.
<mgrwt>
<rscale>  0 0.36168444E+03</rscale>
<asrwt>0</asrwt>
<pdfrwt beam="1">  1        2 0.82394135E-01 0.36168444E+03</pdfrwt>
<pdfrwt beam="2">  1       -2 0.81004152E-02 0.36168444E+03</pdfrwt>
<totfact> 0.53653088E+03</totfact>
</mgrwt>
</event>
<event>
 4    1  0.6782240E-004  0.2945414E+03  0.7818608E-02  0.1088002E+00
         -2   -1    0    0    0  501 -0.00000000000E+00  0.00000000000E+00  0.28859626788E+02  0.28859626901E+02  0.25500000000E-02 0. -1.
          2   -1    0    0  501    0  0.00000000000E+00 -0.00000000000E+00 -0.75152270298E+03  0.75152270299E+03  0.25500000000E-02 0.  1.
    5000001    1    1    2    0    0 -0.10084827017E+03 -0.41527530322E+02 -0.19662075575E+03  0.23766285146E+03  0.77000000000E+02 0.  0.
   -5000001    1    1    2    0    0  0.10084827017E+03  0.41527530322E+02 -0.52604232045E+03  0.54271947843E+03  0.77000000000E+02 0.  0.
<mgrwt>
<rscale>  0 0.29454144E+03</rscale>
<asrwt>0</asrwt>
<pdfrwt beam="1">  1        2 0.10736037E+00 0.29454144E+03</pdfrwt>
<pdfrwt beam="2">  1       -2 0.41228043E-02 0.29454144E+03</pdfrwt>
<totfact> 0.11046144E+04</totfact>
</mgrwt>
</event>
<event>
 4    1  0.6782240E-004  0.2966173E+03  0.7818608E-02  0.1086944E+00
         -2   -1    0    0    0  501 -0.00000000000E+00  0.00000000000E+00  0.68729427058E+02  0.68729427105E+02  0.25500000000E-02 0.  1.
          2   -1    0    0  501    0  0.00000000000E+00 -0.00000000000E+00 -0.32002963831E+03  0.32002963832E+03  0.25500000000E-02 0. -1.
    5000001    1    1    2    0    0 -0.12265790304E+03  0.97974897011E+01 -0.85777677426E+02  0.16860534371E+03  0.77000000000E+02 0.  0.
   -5000001    1    1    2    0    0  0.12265790304E+03 -0.97974897011E+01 -0.16552253383E+03  0.22015372172E+03  0.77000000000E+02 0.  0.
<mgrwt>
<rscale>  0 0.29661729E+03</rscale>
<asrwt>0</asrwt>
<pdfrwt beam="1">  1        2 0.45718519E-01 0.29661729E+03</pdfrwt>
<pdfrwt beam="2">  1       -2 0.98184897E-02 0.29661729E+03</pdfrwt>
<totfact> 0.75211492E+03</totfact>
</mgrwt>
</event>
<event>
 4    1  0.6782240E-004  0.2275831E+03  0.7818608E-02  0.1128353E+00
         -2   -1    0    0    0  501 -0.00000000000E+00  0.00000000000E+00  0.65621031489E+02  0.65621031539E+02  0.25500000000E-02 0. -1.
          2   -1    0    0  501    0  0.00000000000E+00 -0.00000000000E+00 -0.19732259813E+03  0.19732259815E+03  0.25500000000E-02 0.  1.
    5000001    1    1    2    0    0  0.34725293448E+02 -0.73905594142E+02 -0.87516118991E+02  0.14232341316E+03  0.77000000000E+02 0.  0.
   -5000001    1    1    2    0    0 -0.34725293448E+02  0.73905594142E+02 -0.44185447651E+02  0.12062021653E+03  0.77000000000E+02 0.  0.
<mgrwt>
<rscale>  0 0.22758306E+03</rscale>
<asrwt>0</asrwt>
<pdfrwt beam="1">  1        2 0.28188942E-01 0.22758306E+03</pdfrwt>
<pdfrwt beam="2">  1       -2 0.93744332E-02 0.22758306E+03</pdfrwt>
<totfact> 0.13503362E+04</totfact>
</mgrwt>
</event>
<event>
 4    1  0.6782240E-004  0.2257524E+03  0.7818608E-02  0.1129666E+00
         -2   -1    0    0    0  501 -0.00000000000E+00  0.00000000000E+00  0.64951853234E+01  0.64951858240E+01  0.25500000000E-02 0. -1.
          2   -1    0    0  501    0  0.00000000000E+00 -0.00000000000E+00 -0.19616119744E+04  0.19616119744E+04  0.25500000000E-02 0.  1.
    5000001    1    1    2    0    0 -0.62831125786E+02  0.45707446164E+02 -0.12202746513E+04  0.12251678031E+04  0.77000000000E+02 0.  0.
   -5000001    1    1    2    0    0  0.62831125786E+02 -0.45707446164E+02 -0.73484213777E+03  0.74293935718E+03  0.77000000000E+02 0.  0.
<mgrwt>
<rscale>  0 0.22575238E+03</rscale>
<asrwt>0</asrwt>
<pdfrwt beam="1">  1        2 0.28022990E+00 0.22575238E+03</pdfrwt>
<pdfrwt beam="2">  1       -2 0.92788491E-03 0.22575238E+03</pdfrwt>
<totfact> 0.21751623E+04</totfact>
</mgrwt>
</event>
<event>
 4    1  0.6782240E-004  0.2593117E+03  0.7818608E-02  0.1107557E+00
          2   -1    0    0  501    0  0.00000000000E+00  0.00000000000E+00  0.20559109422E+04  0.20559109422E+04  0.25500000000E-02 0.  1.
         -2   -1    0    0    0  501 -0.00000000000E+00 -0.00000000000E+00 -0.81767357746E+01  0.81767361722E+01  0.25500000000E-02 0. -1.
    5000001    1    1    2    0    0  0.57428319546E+02  0.81642933497E+02  0.78268689977E+03  0.79277447206E+03  0.77000000000E+02 0.  0.
   -5000001    1    1    2    0    0 -0.57428319546E+02 -0.81642933497E+02  0.12650473067E+04  0.12713132063E+04  0.77000000000E+02 0.  0.
<mgrwt>
<rscale>  0 0.25931171E+03</rscale>
<asrwt>0</asrwt>
<pdfrwt beam="1">  1        2 0.29370148E+00 0.25931171E+03</pdfrwt>
<pdfrwt beam="2">  1       -2 0.11681055E-02 0.25931171E+03</pdfrwt>
<totfact> 0.14083375E+04</totfact>
</mgrwt>
</event>
<event>
 4    1  0.6782240E-004  0.2435319E+03  0.7818608E-02  0.1117462E+00
          2   -1    0    0  501    0  0.00000000000E+00  0.00000000000E+00  0.80707159156E+03  0.80707159156E+03  0.25500000000E-02 0.  1.
         -2   -1    0    0    0  501 -0.00000000000E+00 -0.00000000000E+00 -0.18371293538E+02  0.18371293715E+02  0.25500000000E-02 0. -1.
    5000001    1    1    2    0    0  0.41999591306E+02  0.67587538179E+02  0.56604279386E+03  0.57677160598E+03  0.77000000000E+02 0.  0.
   -5000001    1    1    2    0    0 -0.41999591306E+02 -0.67587538179E+02  0.22265750416E+03  0.24867127929E+03  0.77000000000E+02 0.  0.
<mgrwt>
<rscale>  0 0.24353192E+03</rscale>
<asrwt>0</asrwt>
<pdfrwt beam="1">  1        2 0.11529592E+00 0.24353192E+03</pdfrwt>
<pdfrwt beam="2">  1       -2 0.26244710E-02 0.24353192E+03</pdfrwt>
<totfact> 0.19697519E+04</totfact>
</mgrwt>
</event>
<event>
 4    1  0.6782240E-004  0.2120798E+03  0.7818608E-02  0.1139930E+00
          2   -1    0    0  501    0  0.00000000000E+00  0.00000000000E+00  0.39886251351E+03  0.39886251352E+03  0.25500000000E-02 0.  1.
         -2   -1    0    0    0  501 -0.00000000000E+00 -0.00000000000E+00 -0.28191310402E+02  0.28191310518E+02  0.25500000000E-02 0. -1.
    5000001    1    1    2    0    0 -0.72365793685E+02 -0.88474363290E+01  0.18410789203E+03  0.21246129326E+03  0.77000000000E+02 0.  0.
   -5000001    1    1    2    0    0  0.72365793685E+02  0.88474363290E+01  0.18656331107E+03  0.21459253078E+03  0.77000000000E+02 0.  0.
<mgrwt>
<rscale>  0 0.21207977E+03</rscale>
<asrwt>0</asrwt>
<pdfrwt beam="1">  1        2 0.56980361E-01 0.21207977E+03</pdfrwt>
<pdfrwt beam="2">  1       -2 0.40273300E-02 0.21207977E+03</pdfrwt>
<totfact> 0.22971184E+04</totfact>
</mgrwt>
</event>
<event>
 4    1  0.6782240E-004  0.1777601E+03  0.7818608E-02  0.1169989E+00
          2   -1    0    0  501    0  0.00000000000E+00  0.00000000000E+00  0.13722664374E+03  0.13722664377E+03  0.25500000000E-02 0.  1.
         -2   -1    0    0    0  501 -0.00000000000E+00 -0.00000000000E+00 -0.57566524556E+02  0.57566524612E+02  0.25500000000E-02 0. -1.
    5000001    1    1    2    0    0 -0.32211194367E+02  0.81209379492E+01  0.72099147201E+02  0.11059293695E+03  0.77000000000E+02 0.  0.
   -5000001    1    1    2    0    0  0.32211194367E+02 -0.81209379492E+01  0.75609719862E+01  0.84200231431E+02  0.77000000000E+02 0.  0.
<mgrwt>
<rscale>  0 0.17776007E+03</rscale>
<asrwt>0</asrwt>
<pdfrwt beam="1">  1        2 0.19603806E-01 0.17776007E+03</pdfrwt>
<pdfrwt beam="2">  1       -2 0.82237894E-02 0.17776007E+03</pdfrwt>
<totfact> 0.24431223E+04</totfact>
</mgrwt>
</event>
<event>
 4    1  0.6782240E-004  0.4992984E+03  0.7818608E-02  0.1013962E+00
         -2   -1    0    0    0  501 -0.00000000000E+00  0.00000000000E+00  0.70697152188E+02  0.70697152234E+02  0.25500000000E-02 0. -1.
          2   -1    0    0  501    0  0.00000000000E+00 -0.00000000000E+00 -0.88157346356E+03  0.88157346357E+03  0.25500000000E-02 0.  1.
    5000001    1    1    2    0    0  0.17884174074E+03  0.47553339515E+02 -0.12158908292E+03  0.23443249224E+03  0.77000000000E+02 0.  0.
   -5000001    1    1    2    0    0 -0.17884174074E+03 -0.47553339515E+02 -0.68928722845E+03  0.71783812356E+03  0.77000000000E+02 0.  0.
<mgrwt>
<rscale>  0 0.49929844E+03</rscale>
<asrwt>0</asrwt>
<pdfrwt beam="1">  1        2 0.12593906E+00 0.49929844E+03</pdfrwt>
<pdfrwt beam="2">  1       -2 0.10099594E-01 0.49929844E+03</pdfrwt>
<totfact> 0.22580501E+03</totfact>
</mgrwt>
</event>
<event>
 4    1  0.6782240E-004  0.1976498E+03  0.7818608E-02  0.1151737E+00
         -2   -1    0    0    0  501 -0.00000000000E+00  0.00000000000E+00  0.48871851222E+01  0.48871857874E+01  0.25500000000E-02 0. -1.
          2   -1    0    0  501    0  0.00000000000E+00 -0.00000000000E+00 -0.19983603430E+04  0.19983603430E+04  0.25500000000E-02 0.  1.
    5000001    1    1    2    0    0 -0.23737143258E+02 -0.18465012710E+02 -0.44783995444E+03  0.45540535071E+03  0.77000000000E+02 0.  0.
   -5000001    1    1    2    0    0  0.23737143258E+02  0.18465012710E+02 -0.15456332034E+04  0.15478421781E+04  0.77000000000E+02 0.  0.
<mgrwt>
<rscale>  0 0.19764977E+03</rscale>
<asrwt>0</asrwt>
<pdfrwt beam="1">  1        2 0.28547953E+00 0.19764977E+03</pdfrwt>
<pdfrwt beam="2">  1       -2 0.69817063E-03 0.19764977E+03</pdfrwt>
<totfact> 0.31256193E+04</totfact>
</mgrwt>
</event>
<event>
 4    1  0.6782240E-004  0.3671541E+03  0.7818608E-02  0.1055787E+00
          2   -1    0    0  501    0  0.00000000000E+00  0.00000000000E+00  0.26636665538E+04  0.26636665538E+04  0.25500000000E-02 0.  1.
         -2   -1    0    0    0  501 -0.00000000000E+00 -0.00000000000E+00 -0.12651934678E+02  0.12651934935E+02  0.25500000000E-02 0. -1.
    5000001    1    1    2    0    0  0.15810291239E+03 -0.52678159049E+02  0.13245783296E+04  0.13372390476E+04  0.77000000000E+02 0.  0.
   -5000001    1    1    2    0    0 -0.15810291239E+03  0.52678159049E+02  0.13264362895E+04  0.13390794411E+04  0.77000000000E+02 0.  0.
<mgrwt>
<rscale>  0 0.36715411E+03</rscale>
<asrwt>0</asrwt>
<pdfrwt beam="1">  1        2 0.38052405E+00 0.36715411E+03</pdfrwt>
<pdfrwt beam="2">  1       -2 0.18074180E-02 0.36715411E+03</pdfrwt>
<totfact> 0.37049250E+03</totfact>
</mgrwt>
</event>
<event>
 4    1  0.6782240E-004  0.2845302E+03  0.7818608E-02  0.1093240E+00
          2   -1    0    0  501    0  0.00000000000E+00  0.00000000000E+00  0.80392534783E+02  0.80392534824E+02  0.25500000000E-02 0.  1.
         -2   -1    0    0    0  501 -0.00000000000E+00 -0.00000000000E+00 -0.25175669056E+03  0.25175669057E+03  0.25500000000E-02 0. -1.
    5000001    1    1    2    0    0  0.69113740400E+02 -0.95525140749E+02 -0.62085316449E+02  0.15390044882E+03  0.77000000000E+02 0.  0.
   -5000001    1    1    2    0    0 -0.69113740400E+02  0.95525140749E+02 -0.10927883932E+03  0.17824877658E+03  0.77000000000E+02 0.  0.
<mgrwt>
<rscale>  0 0.28453020E+03</rscale>
<asrwt>0</asrwt>
<pdfrwt beam="1">  1        2 0.11484648E-01 0.28453020E+03</pdfrwt>
<pdfrwt beam="2">  1       -2 0.35965241E-01 0.28453020E+03</pdfrwt>
<totfact> 0.39219782E+03</totfact>
</mgrwt>
</event>
<event>
 4    1  0.6782240E-004  0.1797581E+03  0.7818608E-02  0.1168037E+00
         -2   -1    0    0    0  501 -0.00000000000E+00  0.00000000000E+00  0.26864230803E+02  0.26864230924E+02  0.25500000000E-02 0. -1.
          2   -1    0    0  501    0  0.00000000000E+00 -0.00000000000E+00 -0.30070645265E+03  0.30070645266E+03  0.25500000000E-02 0.  1.
    5000001    1    1    2    0    0  0.93298193489E+01 -0.22956642495E+02 -0.65521117802E+02  0.10409644490E+03  0.77000000000E+02 0.  0.
   -5000001    1    1    2    0    0 -0.93298193489E+01  0.22956642495E+02 -0.20832110405E+03  0.22347423868E+03  0.77000000000E+02 0.  0.
<mgrwt>
<rscale>  0 0.17975814E+03</rscale>
<asrwt>0</asrwt>
<pdfrwt beam="1">  1        2 0.42958063E-01 0.17975814E+03</pdfrwt>
<pdfrwt beam="2">  1       -2 0.38377475E-02 0.17975814E+03</pdfrwt>
<totfact> 0.32952100E+04</totfact>
</mgrwt>
</event>
<event>
 4    1  0.6782240E-004  0.1947848E+03  0.7818608E-02  0.1154215E+00
         -2   -1    0    0    0  501 -0.00000000000E+00  0.00000000000E+00  0.63420788734E+01  0.63420793860E+01  0.25500000000E-02 0. -1.
          2   -1    0    0  501    0  0.00000000000E+00 -0.00000000000E+00 -0.14956099343E+04  0.14956099343E+04  0.25500000000E-02 0.  1.
    5000001    1    1    2    0    0  0.19502644298E+02 -0.54441955458E+02 -0.85690447068E+03  0.86229841210E+03  0.77000000000E+02 0.  0.
   -5000001    1    1    2    0    0 -0.19502644298E+02  0.54441955458E+02 -0.63236338471E+03  0.63965360155E+03  0.77000000000E+02 0.  0.
<mgrwt>
<rscale>  0 0.19478477E+03</rscale>
<asrwt>0</asrwt>
<pdfrwt beam="1">  1        2 0.21365834E+00 0.19478477E+03</pdfrwt>
<pdfrwt beam="2">  1       -2 0.90601226E-03 0.19478477E+03</pdfrwt>
<totfact> 0.37739287E+04</totfact>
</mgrwt>
</event>
<event>
 4    1  0.6782240E-004  0.3206980E+03  0.7818608E-02  0.1075329E+00
         -2   -1    0    0    0  501 -0.00000000000E+00  0.00000000000E+00  0.58575517283E+02  0.58575517338E+02  0.25500000000E-02 0. -1.
          2   -1    0    0  501    0  0.00000000000E+00 -0.00000000000E+00 -0.43895126510E+03  0.43895126511E+03  0.25500000000E-02 0.  1.
    5000001    1    1    2    0    0  0.12473315852E+03  0.62938340218E+02 -0.16501894223E+03  0.22952090711E+03  0.77000000000E+02 0.  0.
   -5000001    1    1    2    0    0 -0.12473315852E+03 -0.62938340218E+02 -0.21535680558E+03  0.26800587533E+03  0.77000000000E+02 0.  0.
<mgrwt>
<rscale>  0 0.32069797E+03</rscale>
<asrwt>0</asrwt>
<pdfrwt beam="1">  1        2 0.62707322E-01 0.32069797E+03</pdfrwt>
<pdfrwt beam="2">  1       -2 0.83679313E-02 0.32069797E+03</pdfrwt>
<totfact> 0.68935961E+03</totfact>
</mgrwt>
</event>
<event>
 4    1  0.6782240E-004  0.2274065E+03  0.7818608E-02  0.1128479E+00
         -2   -1    0    0    0  501 -0.00000000000E+00  0.00000000000E+00  0.13477308530E+02  0.13477308772E+02  0.25500000000E-02 0. -1.
          2   -1    0    0  501    0  0.00000000000E+00 -0.00000000000E+00 -0.95927360843E+03  0.95927360843E+03  0.25500000000E-02 0.  1.
    5000001    1    1    2    0    0  0.19998454055E+02 -0.65477207847E+02 -0.67858841223E+03  0.68636610939E+03  0.77000000000E+02 0.  0.
   -5000001    1    1    2    0    0 -0.19998454055E+02  0.65477207847E+02 -0.26720788767E+03  0.28638480781E+03  0.77000000000E+02 0.  0.
<mgrwt>
<rscale>  0 0.22740648E+03</rscale>
<asrwt>0</asrwt>
<pdfrwt beam="1">  1        2 0.13703904E+00 0.22740648E+03</pdfrwt>
<pdfrwt beam="2">  1       -2 0.19253304E-02 0.22740648E+03</pdfrwt>
<totfact> 0.24815347E+04</totfact>
</mgrwt>
</event>
<event>
 4    1  0.6782240E-004  0.6631296E+03  0.7818608E-02  0.9782450E-01
          2   -1    0    0  501    0  0.00000000000E+00  0.00000000000E+00  0.36772027847E+04  0.36772027847E+04  0.25500000000E-02 0. -1.
         -2   -1    0    0    0  501 -0.00000000000E+00 -0.00000000000E+00 -0.29896428692E+02  0.29896428801E+02  0.25500000000E-02 0.  1.
    5000001    1    1    2    0    0 -0.11372607045E+03  0.23161045562E+03  0.74211690340E+03  0.78945773830E+03  0.77000000000E+02 0.  0.
   -5000001    1    1    2    0    0  0.11372607045E+03 -0.23161045562E+03  0.29051894526E+04  0.29176414752E+04  0.77000000000E+02 0.  0.
<mgrwt>
<rscale>  0 0.66312964E+03</rscale>
<asrwt>0</asrwt>
<pdfrwt beam="1">  1        2 0.52531506E+00 0.66312964E+03</pdfrwt>
<pdfrwt beam="2">  1       -2 0.42709154E-02 0.66312964E+03</pdfrwt>
<totfact> 0.26635812E+02</totfact>
</mgrwt>
</event>
<event>
 4    1  0.6782240E-004  0.2656335E+03  0.7818608E-02  0.1103805E+00
         -2   -1    0    0    0  501 -0.00000000000E+00  0.00000000000E+00  0.26112985751E+02  0.26112985876E+02  0.25500000000E-02 0. -1.
          2   -1    0    0  501    0  0.00000000000E+00 -0.00000000000E+00 -0.67553727877E+03  0.67553727878E+03  0.25500000000E-02 0.  1.
    5000001    1    1    2    0    0 -0.17989430251E+02  0.99434301533E+02 -0.42703087012E+03  0.44552796091E+03  0.77000000000E+02 0.  0.
   -5000001    1    1    2    0    0  0.17989430251E+02 -0.99434301533E+02 -0.22239342291E+03  0.25612230374E+03  0.77000000000E+02 0.  0.
<mgrwt>
<rscale>  0 0.26563355E+03</rscale>
<asrwt>0</asrwt>
<pdfrwt beam="1">  1        2 0.96505315E-01 0.26563355E+03</pdfrwt>
<pdfrwt beam="2">  1       -2 0.37304269E-02 0.26563355E+03</pdfrwt>
<totfact> 0.14520822E+04</totfact>
</mgrwt>
</event>
<event>
 4    1  0.6782240E-004  0.3106221E+03  0.7818608E-02  0.1080048E+00
          2   -1    0    0  501    0  0.00000000000E+00  0.00000000000E+00  0.51331634004E+03  0.51331634005E+03  0.25500000000E-02 0.  1.
         -2   -1    0    0    0  501 -0.00000000000E+00 -0.00000000000E+00 -0.46991526744E+02  0.46991526813E+02  0.25500000000E-02 0. -1.
    5000001    1    1    2    0    0  0.11329913282E+03  0.64043179898E+02  0.29704675175E+03  0.33332265917E+03  0.77000000000E+02 0.  0.
   -5000001    1    1    2    0    0 -0.11329913282E+03 -0.64043179898E+02  0.16927806155E+03  0.22698520770E+03  0.77000000000E+02 0.  0.
<mgrwt>
<rscale>  0 0.31062208E+03</rscale>
<asrwt>0</asrwt>
<pdfrwt beam="1">  1        2 0.73330902E-01 0.31062208E+03</pdfrwt>
<pdfrwt beam="2">  1       -2 0.67130756E-02 0.31062208E+03</pdfrwt>
<totfact> 0.81718753E+03</totfact>
</mgrwt>
</event>
<event>
 4    1  0.6782240E-004  0.2448192E+03  0.7818608E-02  0.1116623E+00
          2   -1    0    0  501    0  0.00000000000E+00  0.00000000000E+00  0.83352587757E+03  0.83352587757E+03  0.25500000000E-02 0.  1.
         -2   -1    0    0    0  501 -0.00000000000E+00 -0.00000000000E+00 -0.17976780626E+02  0.17976780806E+02  0.25500000000E-02 0. -1.
    5000001    1    1    2    0    0 -0.40825582028E+02  0.85376269204E+02  0.44242936416E+03  0.45894289162E+03  0.77000000000E+02 0.  0.
   -5000001    1    1    2    0    0  0.40825582028E+02 -0.85376269204E+02  0.37311973278E+03  0.39255976677E+03  0.77000000000E+02 0.  0.
<mgrwt>
<rscale>  0 0.24481921E+03</rscale>
<asrwt>0</asrwt>
<pdfrwt beam="1">  1        2 0.11907513E+00 0.24481921E+03</pdfrwt>
<pdfrwt beam="2">  1       -2 0.25681114E-02 0.24481921E+03</pdfrwt>
<totfact> 0.19544695E+04</totfact>
</mgrwt>
</event>
<event>
 4    1  0.6782240E-004  0.2613898E+03  0.7818608E-02  0.1106311E+00
          2   -1    0    0  501    0  0.00000000000E+00  0.00000000000E+00  0.70362131306E+03  0.70362131307E+03  0.25500000000E-02 0.  1.
         -2   -1    0    0    0  501 -0.00000000000E+00 -0.00000000000E+00 -0.24276071814E+02  0.24276071948E+02  0.25500000000E-02 0. -1.
    5000001    1    1    2    0    0  0.24516825357E+02 -0.10264359225E+03  0.35059348729E+03  0.37414111654E+03  0.77000000000E+02 0.  0.
   -5000001    1    1    2    0    0 -0.24516825357E+02  0.10264359225E+03  0.32875175396E+03  0.35375626848E+03  0.77000000000E+02 0.  0.
<mgrwt>
<rscale>  0 0.26138984E+03</rscale>
<asrwt>0</asrwt>
<pdfrwt beam="1">  1        2 0.10051733E+00 0.26138984E+03</pdfrwt>
<pdfrwt beam="2">  1       -2 0.34680104E-02 0.26138984E+03</pdfrwt>
<totfact> 0.15424102E+04</totfact>
</mgrwt>
</event>
<event>
 4    1  0.6782240E-004  0.2165317E+03  0.7818608E-02  0.1136496E+00
          2   -1    0    0  501    0  0.00000000000E+00  0.00000000000E+00  0.83051175378E+02  0.83051175417E+02  0.25500000000E-02 0.  1.
         -2   -1    0    0    0  501 -0.00000000000E+00 -0.00000000000E+00 -0.14113574807E+03  0.14113574810E+03  0.25500000000E-02 0. -1.
    5000001    1    1    2    0    0 -0.65196317920E+02  0.39253810686E+02 -0.30112387933E+02  0.11237071429E+03  0.77000000000E+02 0.  0.
   -5000001    1    1    2    0    0  0.65196317920E+02 -0.39253810686E+02 -0.27972184761E+02  0.11181620922E+03  0.77000000000E+02 0.  0.
<mgrwt>
<rscale>  0 0.21653166E+03</rscale>
<asrwt>0</asrwt>
<pdfrwt beam="1">  1        2 0.11864454E-01 0.21653166E+03</pdfrwt>
<pdfrwt beam="2">  1       -2 0.20162250E-01 0.21653166E+03</pdfrwt>
<totfact> 0.10455309E+04</totfact>
</mgrwt>
</event>
<event>
 4    1  0.6782240E-004  0.2937056E+03  0.7818608E-02  0.1088430E+00
          2   -1    0    0  501    0  0.00000000000E+00  0.00000000000E+00  0.49135737303E+03  0.49135737304E+03  0.25500000000E-02 0.  1.
         -2   -1    0    0    0  501 -0.00000000000E+00 -0.00000000000E+00 -0.43890143883E+02  0.43890143957E+02  0.25500000000E-02 0. -1.
    5000001    1    1    2    0    0 -0.65392986760E+02 -0.97092895724E+02  0.14360060625E+03  0.20063251788E+03  0.77000000000E+02 0.  0.
   -5000001    1    1    2    0    0  0.65392986760E+02  0.97092895724E+02  0.30386662290E+03  0.33461499911E+03  0.77000000000E+02 0.  0.
<mgrwt>
<rscale>  0 0.29370561E+03</rscale>
<asrwt>0</asrwt>
<pdfrwt beam="1">  1        2 0.70193904E-01 0.29370561E+03</pdfrwt>
<pdfrwt beam="2">  1       -2 0.62700211E-02 0.29370561E+03</pdfrwt>
<totfact> 0.95140716E+03</totfact>
</mgrwt>
</event>
<event>
 4    1  0.6782240E-004  0.2762649E+03  0.7818608E-02  0.1097747E+00
          2   -1    0    0  501    0  0.00000000000E+00  0.00000000000E+00  0.94383557837E+03  0.94383557837E+03  0.25500000000E-02 0.  1.
         -2   -1    0    0    0  501 -0.00000000000E+00 -0.00000000000E+00 -0.20215988417E+02  0.20215988578E+02  0.25500000000E-02 0. -1.
    5000001    1    1    2    0    0 -0.52388303007E+01  0.99594635299E+02  0.26425352243E+03  0.29275495015E+03  0.77000000000E+02 0.  0.
   -5000001    1    1    2    0    0  0.52388303007E+01 -0.99594635299E+02  0.65936606752E+03  0.67129661680E+03  0.77000000000E+02 0.  0.
<mgrwt>
<rscale>  0 0.27626487E+03</rscale>
<asrwt>0</asrwt>
<pdfrwt beam="1">  1        2 0.13483366E+00 0.27626487E+03</pdfrwt>
<pdfrwt beam="2">  1       -2 0.28879982E-02 0.27626487E+03</pdfrwt>
<totfact> 0.14073815E+04</totfact>
</mgrwt>
</event>
<event>
 4    1  0.6782240E-004  0.4160246E+03  0.7818608E-02  0.1038368E+00
          2   -1    0    0  501    0  0.00000000000E+00  0.00000000000E+00  0.31453169101E+03  0.31453169102E+03  0.25500000000E-02 0. -1.
         -2   -1    0    0    0  501 -0.00000000000E+00 -0.00000000000E+00 -0.13756677838E+03  0.13756677840E+03  0.25500000000E-02 0.  1.
    5000001    1    1    2    0    0 -0.51389710226E+02 -0.24258081958E+02  0.28918816073E+03  0.30461147247E+03  0.77000000000E+02 0.  0.
   -5000001    1    1    2    0    0  0.51389710226E+02  0.24258081958E+02 -0.11222324810E+03  0.14748699695E+03  0.77000000000E+02 0.  0.
<mgrwt>
<rscale>  0 0.41602457E+03</rscale>
<asrwt>0</asrwt>
<pdfrwt beam="1">  1        2 0.44933098E-01 0.41602457E+03</pdfrwt>
<pdfrwt beam="2">  1       -2 0.19652397E-01 0.41602457E+03</pdfrwt>
<totfact> 0.24576518E+03</totfact>
</mgrwt>
</event>
<event>
 4    1  0.6782240E-004  0.2925760E+03  0.7818608E-02  0.1089012E+00
          2   -1    0    0  501    0  0.00000000000E+00  0.00000000000E+00  0.30027029858E+04  0.30027029858E+04  0.25500000000E-02 0.  1.
         -2   -1    0    0    0  501 -0.00000000000E+00 -0.00000000000E+00 -0.71269706849E+01  0.71269711411E+01  0.25500000000E-02 0. -1.
    5000001    1    1    2    0    0 -0.91881709231E+01 -0.12404324908E+03  0.14961065741E+04  0.15032415080E+04  0.77000000000E+02 0.  0.
   -5000001    1    1    2    0    0  0.91881709231E+01  0.12404324908E+03  0.14994694410E+04  0.15065884490E+04  0.77000000000E+02 0.  0.
<mgrwt>
<rscale>  0 0.29257599E+03</rscale>
<asrwt>0</asrwt>
<pdfrwt beam="1">  1        2 0.42895759E+00 0.29257599E+03</pdfrwt>
<pdfrwt beam="2">  1       -2 0.10181387E-02 0.29257599E+03</pdfrwt>
<totfact> 0.57445809E+03</totfact>
</mgrwt>
</event>
<event>
 4    1  0.6782240E-004  0.2554935E+03  0.7818608E-02  0.1109881E+00
          2   -1    0    0  501    0  0.00000000000E+00  0.00000000000E+00  0.18829965795E+02  0.18829965967E+02  0.25500000000E-02 0.  1.
         -2   -1    0    0    0  501 -0.00000000000E+00 -0.00000000000E+00 -0.86666265760E+03  0.86666265761E+03  0.25500000000E-02 0. -1.
    5000001    1    1    2    0    0  0.52375527564E+02 -0.86587332214E+02 -0.46631647104E+03  0.48334316293E+03  0.77000000000E+02 0.  0.
   -5000001    1    1    2    0    0 -0.52375527564E+02  0.86587332214E+02 -0.38151622077E+03  0.40214946065E+03  0.77000000000E+02 0.  0.
<mgrwt>
<rscale>  0 0.25549347E+03</rscale>
<asrwt>0</asrwt>
<pdfrwt beam="1">  1        2 0.26899957E-02 0.25549347E+03</pdfrwt>
<pdfrwt beam="2">  1       -2 0.12380893E+00 0.25549347E+03</pdfrwt>
<totfact> 0.18652181E+03</totfact>
</mgrwt>
</event>
<event>
 4    1  0.6782240E-004  0.7501266E+03  0.7818608E-02  0.9635152E-01
          2   -1    0    0  501    0  0.00000000000E+00  0.00000000000E+00  0.12009721693E+04  0.12009721693E+04  0.25500000000E-02 0.  1.
         -2   -1    0    0    0  501 -0.00000000000E+00 -0.00000000000E+00 -0.11713216604E+03  0.11713216607E+03  0.25500000000E-02 0. -1.
    5000001    1    1    2    0    0 -0.25030282747E+03 -0.43861420088E+02  0.76456939623E+02  0.27631502534E+03  0.77000000000E+02 0.  0.
   -5000001    1    1    2    0    0  0.25030282747E+03  0.43861420088E+02  0.10073830636E+04  0.10417893100E+04  0.77000000000E+02 0.  0.
<mgrwt>
<rscale>  0 0.75012658E+03</rscale>
<asrwt>0</asrwt>
<pdfrwt beam="1">  1        2 0.17156746E+00 0.75012658E+03</pdfrwt>
<pdfrwt beam="2">  1       -2 0.16733166E-01 0.75012658E+03</pdfrwt>
<totfact> 0.62389120E+02</totfact>
</mgrwt>
</event>
<event>
 4    1  0.6782240E-004  0.2877501E+03  0.7818608E-02  0.1091530E+00
          2   -1    0    0  501    0  0.00000000000E+00  0.00000000000E+00  0.16118930224E+03  0.16118930226E+03  0.25500000000E-02 0.  1.
         -2   -1    0    0    0  501 -0.00000000000E+00 -0.00000000000E+00 -0.12842065651E+03  0.12842065653E+03  0.25500000000E-02 0. -1.
    5000001    1    1    2    0    0 -0.61683204352E+02 -0.22909104970E+02 -0.86459243844E+02  0.13316848590E+03  0.77000000000E+02 0.  0.
   -5000001    1    1    2    0    0  0.61683204352E+02  0.22909104970E+02  0.11922788958E+03  0.15644147290E+03  0.77000000000E+02 0.  0.
<mgrwt>
<rscale>  0 0.28775014E+03</rscale>
<asrwt>0</asrwt>
<pdfrwt beam="1">  1        2 0.23027043E-01 0.28775014E+03</pdfrwt>
<pdfrwt beam="2">  1       -2 0.18345808E-01 0.28775014E+03</pdfrwt>
<totfact> 0.57272593E+03</totfact>
</mgrwt>
</event>
<event>
 4    1  0.6782240E-004  0.2132497E+03  0.7818608E-02  0.1139018E+00
         -2   -1    0    0    0  501 -0.00000000000E+00  0.00000000000E+00  0.35892165360E+03  0.35892165361E+03  0.25500000000E-02 0. -1.
          2   -1    0    0  501    0  0.00000000000E+00 -0.00000000000E+00 -0.31675042725E+02  0.31675042828E+02  0.25500000000E-02 0.  1.
    5000001    1    1    2    0    0 -0.43038313288E+02 -0.59022761827E+02  0.14495531556E+03  0.17965808174E+03  0.77000000000E+02 0.  0.
   -5000001    1    1    2    0    0  0.43038313288E+02  0.59022761827E+02  0.18229129531E+03  0.21093861470E+03  0.77000000000E+02 0.  0.
<mgrwt>
<rscale>  0 0.21324970E+03</rscale>
<asrwt>0</asrwt>
<pdfrwt beam="1">  1        2 0.45250066E-02 0.21324970E+03</pdfrwt>
<pdfrwt beam="2">  1       -2 0.51274517E-01 0.21324970E+03</pdfrwt>
<totfact> 0.64158791E+03</totfact>
</mgrwt>
</event>
<event>
 4    1  0.6782240E-004  0.2507273E+03  0.7818608E-02  0.1112846E+00
         -2   -1    0    0    0  501 -0.00000000000E+00  0.00000000000E+00  0.39205278069E+02  0.39205278152E+02  0.25500000000E-02 0. -1.
          2   -1    0    0  501    0  0.00000000000E+00 -0.00000000000E+00 -0.40086560624E+03  0.40086560624E+03  0.25500000000E-02 0.  1.
    5000001    1    1    2    0    0  0.76056813849E+02 -0.62024242161E+02 -0.15895006320E+03  0.20205387435E+03  0.77000000000E+02 0.  0.
   -5000001    1    1    2    0    0 -0.76056813849E+02  0.62024242161E+02 -0.20271026497E+03  0.23801701005E+03  0.77000000000E+02 0.  0.
<mgrwt>
<rscale>  0 0.25072732E+03</rscale>
<asrwt>0</asrwt>
<pdfrwt beam="1">  1        2 0.57266513E-01 0.25072732E+03</pdfrwt>
<pdfrwt beam="2">  1       -2 0.56007543E-02 0.25072732E+03</pdfrwt>
<totfact> 0.14023529E+04</totfact>
</mgrwt>
</event>
<event>
 4    1  0.6782240E-004  0.2714735E+03  0.7818608E-02  0.1100439E+00
          2   -1    0    0  501    0  0.00000000000E+00  0.00000000000E+00  0.90655208168E+03  0.90655208169E+03  0.25500000000E-02 0.  1.
         -2   -1    0    0    0  501 -0.00000000000E+00 -0.00000000000E+00 -0.20323671823E+02  0.20323671983E+02  0.25500000000E-02 0. -1.
    5000001    1    1    2    0    0  0.44175214030E+02  0.67368097113E+02  0.70770254776E+03  0.71642292408E+03  0.77000000000E+02 0.  0.
   -5000001    1    1    2    0    0 -0.44175214030E+02 -0.67368097113E+02  0.17852586210E+03  0.21045282959E+03  0.77000000000E+02 0.  0.
<mgrwt>
<rscale>  0 0.27147351E+03</rscale>
<asrwt>0</asrwt>
<pdfrwt beam="1">  1        2 0.12950742E+00 0.27147351E+03</pdfrwt>
<pdfrwt beam="2">  1       -2 0.29033822E-02 0.27147351E+03</pdfrwt>
<totfact> 0.14710548E+04</totfact>
</mgrwt>
</event>
<event>
 4    1  0.6782240E-004  0.2295377E+03  0.7818608E-02  0.1126966E+00
          2   -1    0    0  501    0  0.00000000000E+00  0.00000000000E+00  0.11781965249E+03  0.11781965252E+03  0.25500000000E-02 0.  1.
         -2   -1    0    0    0  501 -0.00000000000E+00 -0.00000000000E+00 -0.11179708934E+03  0.11179708937E+03  0.25500000000E-02 0. -1.
    5000001    1    1    2    0    0 -0.73327741719E+02  0.28750819594E+02  0.35260969696E+02  0.11565424038E+03  0.77000000000E+02 0.  0.
   -5000001    1    1    2    0    0  0.73327741719E+02 -0.28750819594E+02 -0.29238406545E+02  0.11396250151E+03  0.77000000000E+02 0.  0.
<mgrwt>
<rscale>  0 0.22953775E+03</rscale>
<asrwt>0</asrwt>
<pdfrwt beam="1">  1        2 0.16831379E-01 0.22953775E+03</pdfrwt>
<pdfrwt beam="2">  1       -2 0.15971013E-01 0.22953775E+03</pdfrwt>
<totfact> 0.10241815E+04</totfact>
</mgrwt>
</event>
<event>
 4    1  0.6782240E-004  0.3478882E+03  0.7818608E-02  0.1063485E+00
         -2   -1    0    0    0  501 -0.00000000000E+00  0.00000000000E+00  0.57508574488E+02  0.57508574545E+02  0.25500000000E-02 0. -1.
          2   -1    0    0  501    0  0.00000000000E+00 -0.00000000000E+00 -0.52612238381E+03  0.52612238382E+03  0.25500000000E-02 0.  1.
    5000001    1    1    2    0    0  0.73776318140E+02 -0.12475346584E+03 -0.33098867117E+03  0.36944400496E+03  0.77000000000E+02 0.  0.
   -5000001    1    1    2    0    0 -0.73776318140E+02  0.12475346584E+03 -0.13762513815E+03  0.21418695340E+03  0.77000000000E+02 0.  0.
<mgrwt>
<rscale>  0 0.34788819E+03</rscale>
<asrwt>0</asrwt>
<pdfrwt beam="1">  1        2 0.75160338E-01 0.34788819E+03</pdfrwt>
<pdfrwt beam="2">  1       -2 0.82155110E-02 0.34788819E+03</pdfrwt>
<totfact> 0.58186174E+03</totfact>
</mgrwt>
</event>
<event>
 4    1  0.6782240E-004  0.1908866E+03  0.7818608E-02  0.1157664E+00
          2   -1    0    0  501    0  0.00000000000E+00  0.00000000000E+00  0.27614347994E+04  0.27614347994E+04  0.25500000000E-02 0.  1.
         -2   -1    0    0    0  501 -0.00000000000E+00 -0.00000000000E+00 -0.32987991747E+01  0.32988001602E+01  0.25500000000E-02 0. -1.
    5000001    1    1    2    0    0  0.52026484164E+01 -0.52766439250E+02  0.11008252923E+04  0.11047880742E+04  0.77000000000E+02 0.  0.
   -5000001    1    1    2    0    0 -0.52026484164E+01  0.52766439250E+02  0.16573107079E+04  0.16599455254E+04  0.77000000000E+02 0.  0.
<mgrwt>
<rscale>  0 0.19088657E+03</rscale>
<asrwt>0</asrwt>
<pdfrwt beam="1">  1        2 0.39449151E+00 0.19088657E+03</pdfrwt>
<pdfrwt beam="2">  1       -2 0.47125612E-03 0.19088657E+03</pdfrwt>
<totfact> 0.23144074E+04</totfact>
</mgrwt>
</event>
<event>
 4    1  0.6782240E-004  0.2179341E+03  0.7818608E-02  0.1135433E+00
         -2   -1    0    0    0  501 -0.00000000000E+00  0.00000000000E+00  0.49748269811E+02  0.49748269877E+02  0.25500000000E-02 0. -1.
          2   -1    0    0  501    0  0.00000000000E+00 -0.00000000000E+00 -0.23867807984E+03  0.23867807985E+03  0.25500000000E-02 0.  1.
    5000001    1    1    2    0    0 -0.43763238616E+02 -0.18390689539E+02 -0.14055984079E+02  0.91542390205E+02  0.77000000000E+02 0.  0.
   -5000001    1    1    2    0    0  0.43763238616E+02  0.18390689539E+02 -0.17487382595E+03  0.19688395952E+03  0.77000000000E+02 0.  0.
<mgrwt>
<rscale>  0 0.21793413E+03</rscale>
<asrwt>0</asrwt>
<pdfrwt beam="1">  1        2 0.34096868E-01 0.21793413E+03</pdfrwt>
<pdfrwt beam="2">  1       -2 0.71068958E-02 0.21793413E+03</pdfrwt>
<totfact> 0.16852129E+04</totfact>
</mgrwt>
</event>
<event>
 4    1  0.6782240E-004  0.9517899E+03  0.7818608E-02  0.9363061E-01
         -2   -1    0    0    0  501 -0.00000000000E+00  0.00000000000E+00  0.13609622538E+03  0.13609622541E+03  0.25500000000E-02 0. -1.
          2   -1    0    0  501    0  0.00000000000E+00 -0.00000000000E+00 -0.16640871716E+04  0.16640871716E+04  0.25500000000E-02 0.  1.
    5000001    1    1    2    0    0 -0.40337294630E+03  0.22283881844E+03 -0.93505814488E+03  0.10452892457E+04  0.77000000000E+02 0.  0.
   -5000001    1    1    2    0    0  0.40337294630E+03 -0.22283881844E+03 -0.59293280132E+03  0.75489415132E+03  0.77000000000E+02 0.  0.
<mgrwt>
<rscale>  0 0.95178986E+03</rscale>
<asrwt>0</asrwt>
<pdfrwt beam="1">  1        2 0.23772673E+00 0.95178986E+03</pdfrwt>
<pdfrwt beam="2">  1       -2 0.19442319E-01 0.95178986E+03</pdfrwt>
<totfact> 0.26887300E+02</totfact>
</mgrwt>
</event>
<event>
 4    1  0.6782240E-004  0.3263235E+03  0.7818608E-02  0.1072775E+00
         -2   -1    0    0    0  501 -0.00000000000E+00  0.00000000000E+00  0.48163828429E+02  0.48163828496E+02  0.25500000000E-02 0. -1.
          2   -1    0    0  501    0  0.00000000000E+00 -0.00000000000E+00 -0.55273334126E+03  0.55273334126E+03  0.25500000000E-02 0.  1.
    5000001    1    1    2    0    0 -0.46930869869E+02  0.11664940074E+03 -0.38096222626E+03  0.40849823387E+03  0.77000000000E+02 0.  0.
   -5000001    1    1    2    0    0  0.46930869869E+02 -0.11664940074E+03 -0.12360728657E+03  0.19239893589E+03  0.77000000000E+02 0.  0.
<mgrwt>
<rscale>  0 0.32632348E+03</rscale>
<asrwt>0</asrwt>
<pdfrwt beam="1">  1        2 0.78961902E-01 0.32632348E+03</pdfrwt>
<pdfrwt beam="2">  1       -2 0.68805472E-02 0.32632348E+03</pdfrwt>
<totfact> 0.72496981E+03</totfact>
</mgrwt>
</event>
<event>
 4    1  0.6782240E-004  0.3520056E+03  0.7818608E-02  0.1061795E+00
          2   -1    0    0  501    0  0.00000000000E+00  0.00000000000E+00  0.30261481945E+03  0.30261481946E+03  0.25500000000E-02 0.  1.
         -2   -1    0    0    0  501 -0.00000000000E+00 -0.00000000000E+00 -0.10236438910E+03  0.10236438913E+03  0.25500000000E-02 0. -1.
    5000001    1    1    2    0    0  0.85424419942E+02 -0.11065616645E+03  0.14757066290E+02  0.16027753961E+03  0.77000000000E+02 0.  0.
   -5000001    1    1    2    0    0 -0.85424419942E+02  0.11065616645E+03  0.18549336405E+03  0.24470166898E+03  0.77000000000E+02 0.  0.
<mgrwt>
<rscale>  0 0.35200557E+03</rscale>
<asrwt>0</asrwt>
<pdfrwt beam="1">  1        2 0.43230688E-01 0.35200557E+03</pdfrwt>
<pdfrwt beam="2">  1       -2 0.14623484E-01 0.35200557E+03</pdfrwt>
<totfact> 0.42091605E+03</totfact>
</mgrwt>
</event>
<event>
 4    1  0.6782240E-004  0.7170915E+03  0.7818608E-02  0.9688442E-01
          2   -1    0    0  501    0  0.00000000000E+00  0.00000000000E+00  0.26004533210E+03  0.26004533211E+03  0.25500000000E-02 0.  1.
         -2   -1    0    0    0  501 -0.00000000000E+00 -0.00000000000E+00 -0.49435625812E+03  0.49435625813E+03  0.25500000000E-02 0. -1.
    5000001    1    1    2    0    0  0.24358207288E+03 -0.22797389520E+03 -0.52157616129E+01  0.34243324501E+03  0.77000000000E+02 0.  0.
   -5000001    1    1    2    0    0 -0.24358207288E+03  0.22797389520E+03 -0.22909516441E+03  0.41196834523E+03  0.77000000000E+02 0.  0.
<mgrwt>
<rscale>  0 0.71709145E+03</rscale>
<asrwt>0</asrwt>
<pdfrwt beam="1">  1        2 0.37149334E-01 0.71709145E+03</pdfrwt>
<pdfrwt beam="2">  1       -2 0.70622322E-01 0.71709145E+03</pdfrwt>
<totfact> 0.25738773E+02</totfact>
</mgrwt>
</event>
<event>
 4    1  0.6782240E-004  0.4141422E+03  0.7818608E-02  0.1038990E+00
         -2   -1    0    0    0  501 -0.00000000000E+00  0.00000000000E+00  0.26957407401E+02  0.26957407521E+02  0.25500000000E-02 0. -1.
          2   -1    0    0  501    0  0.00000000000E+00 -0.00000000000E+00 -0.15905995999E+04  0.15905995999E+04  0.25500000000E-02 0.  1.
    5000001    1    1    2    0    0 -0.17967298798E+03 -0.41895300194E+02 -0.57105824669E+03  0.60504059360E+03  0.77000000000E+02 0.  0.
   -5000001    1    1    2    0    0  0.17967298798E+03  0.41895300194E+02 -0.99258394586E+03  0.10125164139E+04  0.77000000000E+02 0.  0.
<mgrwt>
<rscale>  0 0.41414221E+03</rscale>
<asrwt>0</asrwt>
<pdfrwt beam="1">  1        2 0.22722845E+00 0.41414221E+03</pdfrwt>
<pdfrwt beam="2">  1       -2 0.38510592E-02 0.41414221E+03</pdfrwt>
<totfact> 0.40955493E+03</totfact>
</mgrwt>
</event>
<event>
 4    1  0.6782240E-004  0.1722695E+03  0.7818608E-02  0.1175502E+00
         -2   -1    0    0    0  501 -0.00000000000E+00  0.00000000000E+00  0.14652015896E+03  0.14652015898E+03  0.25500000000E-02 0.  1.
          2   -1    0    0  501    0  0.00000000000E+00 -0.00000000000E+00 -0.50636010553E+02  0.50636010617E+02  0.25500000000E-02 0. -1.
    5000001    1    1    2    0    0 -0.23121005808E+02  0.13164222992E+02  0.79952672076E+02  0.11414599182E+03  0.77000000000E+02 0.  0.
   -5000001    1    1    2    0    0  0.23121005808E+02 -0.13164222992E+02  0.15931476330E+02  0.83010177777E+02  0.77000000000E+02 0.  0.
<mgrwt>
<rscale>  0 0.17226951E+03</rscale>
<asrwt>0</asrwt>
<pdfrwt beam="1">  1        2 0.72337158E-02 0.17226951E+03</pdfrwt>
<pdfrwt beam="2">  1       -2 0.20931451E-01 0.17226951E+03</pdfrwt>
<totfact> 0.17846815E+04</totfact>
</mgrwt>
</event>
<event>
 4    1  0.6782240E-004  0.1964523E+03  0.7818608E-02  0.1152767E+00
         -2   -1    0    0    0  501 -0.00000000000E+00  0.00000000000E+00  0.98347904505E+01  0.98347907811E+01  0.25500000000E-02 0. -1.
          2   -1    0    0  501    0  0.00000000000E+00 -0.00000000000E+00 -0.98104584314E+03  0.98104584314E+03  0.25500000000E-02 0.  1.
    5000001    1    1    2    0    0  0.38238345399E+02 -0.45019881499E+02 -0.56216940145E+03  0.57048435273E+03  0.77000000000E+02 0.  0.
   -5000001    1    1    2    0    0 -0.38238345399E+02  0.45019881499E+02 -0.40904165124E+03  0.42039628119E+03  0.77000000000E+02 0.  0.
<mgrwt>
<rscale>  0 0.19645234E+03</rscale>
<asrwt>0</asrwt>
<pdfrwt beam="1">  1        2 0.14014934E+00 0.19645234E+03</pdfrwt>
<pdfrwt beam="2">  1       -2 0.14049707E-02 0.19645234E+03</pdfrwt>
<totfact> 0.37749074E+04</totfact>
</mgrwt>
</event>
<event>
 4    1  0.6782240E-004  0.2086248E+03  0.7818608E-02  0.1142660E+00
          2   -1    0    0  501    0  0.00000000000E+00  0.00000000000E+00  0.31273237025E+03  0.31273237026E+03  0.25500000000E-02 0.  1.
         -2   -1    0    0    0  501 -0.00000000000E+00 -0.00000000000E+00 -0.34793576681E+02  0.34793576775E+02  0.25500000000E-02 0. -1.
    5000001    1    1    2    0    0 -0.35039501450E+02 -0.59504647931E+02  0.16153509151E+03  0.19181020717E+03  0.77000000000E+02 0.  0.
   -5000001    1    1    2    0    0  0.35039501450E+02  0.59504647931E+02  0.11640370206E+03  0.15571573986E+03  0.77000000000E+02 0.  0.
<mgrwt>
<rscale>  0 0.20862481E+03</rscale>
<asrwt>0</asrwt>
<pdfrwt beam="1">  1        2 0.44676051E-01 0.20862481E+03</pdfrwt>
<pdfrwt beam="2">  1       -2 0.49705112E-02 0.20862481E+03</pdfrwt>
<totfact> 0.21694867E+04</totfact>
</mgrwt>
</event>
<event>
 4    1  0.6782240E-004  0.2320955E+03  0.7818608E-02  0.1125174E+00
         -2   -1    0    0    0  501 -0.00000000000E+00  0.00000000000E+00  0.42980185708E+02  0.42980185784E+02  0.25500000000E-02 0. -1.
          2   -1    0    0  501    0  0.00000000000E+00 -0.00000000000E+00 -0.31333217557E+03  0.31333217558E+03  0.25500000000E-02 0.  1.
    5000001    1    1    2    0    0  0.42302873480E+02  0.22864814057E+02 -0.24615434058E+03  0.26236099598E+03  0.77000000000E+02 0.  0.
   -5000001    1    1    2    0    0 -0.42302873480E+02 -0.22864814057E+02 -0.24197649284E+02  0.93951365383E+02  0.77000000000E+02 0.  0.
<mgrwt>
<rscale>  0 0.23209546E+03</rscale>
<asrwt>0</asrwt>
<pdfrwt beam="1">  1        2 0.44761738E-01 0.23209546E+03</pdfrwt>
<pdfrwt beam="2">  1       -2 0.61400267E-02 0.23209546E+03</pdfrwt>
<totfact> 0.15810325E+04</totfact>
</mgrwt>
</event>
<event>
 4    1  0.6782240E-004  0.2380313E+03  0.7818608E-02  0.1121111E+00
          2   -1    0    0  501    0  0.00000000000E+00  0.00000000000E+00  0.19105614824E+04  0.19105614824E+04  0.25500000000E-02 0.  1.
         -2   -1    0    0    0  501 -0.00000000000E+00 -0.00000000000E+00 -0.74139040133E+01  0.74139044518E+01  0.25500000000E-02 0. -1.
    5000001    1    1    2    0    0  0.19612712171E+02  0.59645329383E+02  0.42359731222E+03  0.43509298628E+03  0.77000000000E+02 0.  0.
   -5000001    1    1    2    0    0 -0.19612712171E+02 -0.59645329383E+02  0.14795502662E+04  0.14828824006E+04  0.77000000000E+02 0.  0.
<mgrwt>
<rscale>  0 0.23803126E+03</rscale>
<asrwt>0</asrwt>
<pdfrwt beam="1">  1        2 0.27293747E+00 0.23803126E+03</pdfrwt>
<pdfrwt beam="2">  1       -2 0.10591287E-02 0.23803126E+03</pdfrwt>
<totfact> 0.19053038E+04</totfact>
</mgrwt>
</event>
<event>
 4    1  0.6782240E-004  0.7424165E+03  0.7818608E-02  0.9647323E-01
          2   -1    0    0  501    0  0.00000000000E+00  0.00000000000E+00  0.74952694498E+03  0.74952694498E+03  0.25500000000E-02 0.  1.
         -2   -1    0    0    0  501 -0.00000000000E+00 -0.00000000000E+00 -0.18384335336E+03  0.18384335337E+03  0.25500000000E-02 0. -1.
    5000001    1    1    2    0    0 -0.32861072992E+03 -0.15067137046E+03  0.32602225598E+03  0.49285533891E+03  0.77000000000E+02 0.  0.
   -5000001    1    1    2    0    0  0.32861072992E+03  0.15067137046E+03  0.23966133564E+03  0.44051495944E+03  0.77000000000E+02 0.  0.
<mgrwt>
<rscale>  0 0.74241645E+03</rscale>
<asrwt>0</asrwt>
<pdfrwt beam="1">  1        2 0.10707528E+00 0.74241645E+03</pdfrwt>
<pdfrwt beam="2">  1       -2 0.26263336E-01 0.74241645E+03</pdfrwt>
<totfact> 0.54326145E+02</totfact>
</mgrwt>
</event>
<event>
 4    1  0.6782240E-004  0.2259319E+03  0.7818608E-02  0.1129536E+00
          2   -1    0    0  501    0  0.00000000000E+00  0.00000000000E+00  0.16208549910E+03  0.16208549912E+03  0.25500000000E-02 0.  1.
         -2   -1    0    0    0  501 -0.00000000000E+00 -0.00000000000E+00 -0.78731924622E+02  0.78731924663E+02  0.25500000000E-02 0. -1.
    5000001    1    1    2    0    0 -0.75020430640E+02  0.11393503271E+02  0.67387321482E+01  0.10831568419E+03  0.77000000000E+02 0.  0.
   -5000001    1    1    2    0    0  0.75020430640E+02 -0.11393503271E+02  0.76614842328E+02  0.13250173959E+03  0.77000000000E+02 0.  0.
<mgrwt>
<rscale>  0 0.22593188E+03</rscale>
<asrwt>0</asrwt>
<pdfrwt beam="1">  1        2 0.23155072E-01 0.22593188E+03</pdfrwt>
<pdfrwt beam="2">  1       -2 0.11247418E-01 0.22593188E+03</pdfrwt>
<totfact> 0.12575958E+04</totfact>
</mgrwt>
</event>
<event>
 4    1  0.6782240E-004  0.3846787E+03  0.7818608E-02  0.1049218E+00
         -2   -1    0    0    0  501 -0.00000000000E+00  0.00000000000E+00  0.31674688408E+02  0.31674688511E+02  0.25500000000E-02 0. -1.
          2   -1    0    0  501    0  0.00000000000E+00 -0.00000000000E+00 -0.11679493067E+04  0.11679493067E+04  0.25500000000E-02 0.  1.
    5000001    1    1    2    0    0 -0.15014760384E+03  0.82642449433E+02 -0.69638929854E+03  0.72129129518E+03  0.77000000000E+02 0.  0.
   -5000001    1    1    2    0    0  0.15014760384E+03 -0.82642449433E+02 -0.43988531979E+03  0.47833270007E+03  0.77000000000E+02 0.  0.
<mgrwt>
<rscale>  0 0.38467873E+03</rscale>
<asrwt>0</asrwt>
<pdfrwt beam="1">  1        2 0.16684987E+00 0.38467873E+03</pdfrwt>
<pdfrwt beam="2">  1       -2 0.45249562E-02 0.38467873E+03</pdfrwt>
<totfact> 0.53494862E+03</totfact>
</mgrwt>
</event>
<event>
 4    1  0.6782240E-004  0.1732131E+03  0.7818608E-02  0.1174538E+00
         -2   -1    0    0    0  501 -0.00000000000E+00  0.00000000000E+00  0.11659997464E+02  0.11659997743E+02  0.25500000000E-02 0. -1.
          2   -1    0    0  501    0  0.00000000000E+00 -0.00000000000E+00 -0.64328466138E+03  0.64328466138E+03  0.25500000000E-02 0.  1.
    5000001    1    1    2    0    0  0.15277776302E+02  0.27019505628E+00 -0.17749181897E+03  0.19407686430E+03  0.77000000000E+02 0.  0.
   -5000001    1    1    2    0    0 -0.15277776302E+02 -0.27019505628E+00 -0.45413284494E+03  0.46086779482E+03  0.77000000000E+02 0.  0.
<mgrwt>
<rscale>  0 0.17321314E+03</rscale>
<asrwt>0</asrwt>
<pdfrwt beam="1">  1        2 0.91897786E-01 0.17321314E+03</pdfrwt>
<pdfrwt beam="2">  1       -2 0.16657143E-02 0.17321314E+03</pdfrwt>
<totfact> 0.48951636E+04</totfact>
</mgrwt>
</event>
<event>
 4    1  0.6782240E-004  0.2036533E+03  0.7818608E-02  0.1146693E+00
          2   -1    0    0  501    0  0.00000000000E+00  0.00000000000E+00  0.35329949325E+03  0.35329949326E+03  0.25500000000E-02 0.  1.
         -2   -1    0    0    0  501 -0.00000000000E+00 -0.00000000000E+00 -0.29348084207E+02  0.29348084317E+02  0.25500000000E-02 0. -1.
    5000001    1    1    2    0    0 -0.14597055111E+02 -0.58297735313E+02  0.21604032276E+03  0.23709517291E+03  0.77000000000E+02 0.  0.
   -5000001    1    1    2    0    0  0.14597055111E+02  0.58297735313E+02  0.10791108629E+03  0.14555240467E+03  0.77000000000E+02 0.  0.
<mgrwt>
<rscale>  0 0.20365327E+03</rscale>
<asrwt>0</asrwt>
<pdfrwt beam="1">  1        2 0.50471356E-01 0.20365327E+03</pdfrwt>
<pdfrwt beam="2">  1       -2 0.41925835E-02 0.20365327E+03</pdfrwt>
<totfact> 0.24560737E+04</totfact>
</mgrwt>
</event>
<event>
 4    1  0.6782240E-004  0.2766397E+03  0.7818608E-02  0.1097539E+00
          2   -1    0    0  501    0  0.00000000000E+00  0.00000000000E+00  0.10407890528E+04  0.10407890529E+04  0.25500000000E-02 0.  1.
         -2   -1    0    0    0  501 -0.00000000000E+00 -0.00000000000E+00 -0.18382566843E+02  0.18382567019E+02  0.25500000000E-02 0. -1.
    5000001    1    1    2    0    0 -0.35552828513E+00 -0.10931363370E+03  0.64677278927E+03  0.66044957253E+03  0.77000000000E+02 0.  0.
   -5000001    1    1    2    0    0  0.35552828513E+00  0.10931363370E+03  0.37563369674E+03  0.39872204734E+03  0.77000000000E+02 0.  0.
<mgrwt>
<rscale>  0 0.27663965E+03</rscale>
<asrwt>0</asrwt>
<pdfrwt beam="1">  1        2 0.14868412E+00 0.27663965E+03</pdfrwt>
<pdfrwt beam="2">  1       -2 0.26260815E-02 0.27663965E+03</pdfrwt>
<totfact> 0.14197766E+04</totfact>
</mgrwt>
</event>
<event>
 4    1  0.6782240E-004  0.2943361E+03  0.7818608E-02  0.1088107E+00
         -2   -1    0    0    0  501 -0.00000000000E+00  0.00000000000E+00  0.90191120115E+02  0.90191120151E+02  0.25500000000E-02 0. -1.
          2   -1    0    0  501    0  0.00000000000E+00 -0.00000000000E+00 -0.24013933974E+03  0.24013933975E+03  0.25500000000E-02 0.  1.
    5000001    1    1    2    0    0  0.11802979030E+03 -0.16296866869E+02 -0.31035106413E+02  0.14521982336E+03  0.77000000000E+02 0.  0.
   -5000001    1    1    2    0    0 -0.11802979030E+03  0.16296866869E+02 -0.11891311321E+03  0.18511063654E+03  0.77000000000E+02 0.  0.
<mgrwt>
<rscale>  0 0.29433611E+03</rscale>
<asrwt>0</asrwt>
<pdfrwt beam="1">  1        2 0.34305620E-01 0.29433611E+03</pdfrwt>
<pdfrwt beam="2">  1       -2 0.12884446E-01 0.29433611E+03</pdfrwt>
<totfact> 0.66268057E+03</totfact>
</mgrwt>
</event>
<event>
 4    1  0.6782240E-004  0.2443024E+03  0.7818608E-02  0.1116959E+00
         -2   -1    0    0    0  501 -0.00000000000E+00  0.00000000000E+00  0.53950648771E+02  0.53950648831E+02  0.25500000000E-02 0. -1.
          2   -1    0    0  501    0  0.00000000000E+00 -0.00000000000E+00 -0.27656595685E+03  0.27656595686E+03  0.25500000000E-02 0.  1.
    5000001    1    1    2    0    0 -0.25465537551E+02  0.89446848887E+02 -0.13635203180E+03  0.18212662890E+03  0.77000000000E+02 0.  0.
   -5000001    1    1    2    0    0  0.25465537551E+02 -0.89446848887E+02 -0.86263276287E+02  0.14838997680E+03  0.77000000000E+02 0.  0.
<mgrwt>
<rscale>  0 0.24430238E+03</rscale>
<asrwt>0</asrwt>
<pdfrwt beam="1">  1        2 0.39509422E-01 0.24430238E+03</pdfrwt>
<pdfrwt beam="2">  1       -2 0.77072357E-02 0.24430238E+03</pdfrwt>
<totfact> 0.12764289E+04</totfact>
</mgrwt>
</event>
<event>
 4    1  0.6782240E-004  0.2035760E+03  0.7818608E-02  0.1146757E+00
          2   -1    0    0  501    0  0.00000000000E+00  0.00000000000E+00  0.31882939443E+04  0.31882939443E+04  0.25500000000E-02 0.  1.
         -2   -1    0    0    0  501 -0.00000000000E+00 -0.00000000000E+00 -0.32496348626E+01  0.32496358631E+01  0.25500000000E-02 0. -1.
    5000001    1    1    2    0    0 -0.15081628132E+02 -0.56908029482E+02  0.11053068647E+04  0.11095486670E+04  0.77000000000E+02 0.  0.
   -5000001    1    1    2    0    0  0.15081628132E+02  0.56908029482E+02  0.20797374447E+04  0.20819949131E+04  0.77000000000E+02 0.  0.
<mgrwt>
<rscale>  0 0.20357596E+03</rscale>
<asrwt>0</asrwt>
<pdfrwt beam="1">  1        2 0.45547115E+00 0.20357596E+03</pdfrwt>
<pdfrwt beam="2">  1       -2 0.46423303E-03 0.20357596E+03</pdfrwt>
<totfact> 0.14167260E+04</totfact>
</mgrwt>
</event>
<event>
 4    1  0.6782240E-004  0.6168530E+03  0.7818608E-02  0.9871045E-01
         -2   -1    0    0    0  501 -0.00000000000E+00  0.00000000000E+00  0.38441077073E+02  0.38441077158E+02  0.25500000000E-02 0. -1.
          2   -1    0    0  501    0  0.00000000000E+00 -0.00000000000E+00 -0.24746158465E+04  0.24746158465E+04  0.25500000000E-02 0.  1.
    5000001    1    1    2    0    0  0.25042531938E+03 -0.57058400447E+02 -0.59716169405E+03  0.65459880117E+03  0.77000000000E+02 0.  0.
   -5000001    1    1    2    0    0 -0.25042531938E+03  0.57058400447E+02 -0.18390130754E+04  0.18584581225E+04  0.77000000000E+02 0.  0.
<mgrwt>
<rscale>  0 0.61685298E+03</rscale>
<asrwt>0</asrwt>
<pdfrwt beam="1">  1        2 0.35351645E+00 0.61685298E+03</pdfrwt>
<pdfrwt beam="2">  1       -2 0.54915840E-02 0.61685298E+03</pdfrwt>
<totfact> 0.84475373E+02</totfact>
</mgrwt>
</event>
<event>
 4    1  0.6782240E-004  0.5868224E+03  0.7818608E-02  0.9933129E-01
          2   -1    0    0  501    0  0.00000000000E+00  0.00000000000E+00  0.20740263870E+03  0.20740263871E+03  0.25500000000E-02 0.  1.
         -2   -1    0    0    0  501 -0.00000000000E+00 -0.00000000000E+00 -0.41508696450E+03  0.41508696450E+03  0.25500000000E-02 0. -1.
    5000001    1    1    2    0    0 -0.74185905405E+02 -0.27082061561E+03 -0.65393051922E+02  0.29841683203E+03  0.77000000000E+02 0.  0.
   -5000001    1    1    2    0    0  0.74185905405E+02  0.27082061561E+03 -0.14229127387E+03  0.32407277118E+03  0.77000000000E+02 0.  0.
<mgrwt>
<rscale>  0 0.58682240E+03</rscale>
<asrwt>0</asrwt>
<pdfrwt beam="1">  1        2 0.29628949E-01 0.58682240E+03</pdfrwt>
<pdfrwt beam="2">  1       -2 0.59298137E-01 0.58682240E+03</pdfrwt>
<totfact> 0.48329157E+02</totfact>
</mgrwt>
</event>
<event>
 4    1  0.6782240E-004  0.5463197E+03  0.7818608E-02  0.1002349E+00
         -2   -1    0    0    0  501 -0.00000000000E+00  0.00000000000E+00  0.16836706294E+03  0.16836706296E+03  0.25500000000E-02 0. -1.
          2   -1    0    0  501    0  0.00000000000E+00 -0.00000000000E+00 -0.44317632818E+03  0.44317632819E+03  0.25500000000E-02 0.  1.
    5000001    1    1    2    0    0 -0.13923559367E+03  0.13339932222E+03 -0.33609312197E+03  0.39505634579E+03  0.77000000000E+02 0.  0.
   -5000001    1    1    2    0    0  0.13923559367E+03 -0.13339932222E+03  0.61283856725E+02  0.21648704536E+03  0.77000000000E+02 0.  0.
<mgrwt>
<rscale>  0 0.54631967E+03</rscale>
<asrwt>0</asrwt>
<pdfrwt beam="1">  1        2 0.63310903E-01 0.54631967E+03</pdfrwt>
<pdfrwt beam="2">  1       -2 0.24052438E-01 0.54631967E+03</pdfrwt>
<totfact> 0.11843821E+03</totfact>
</mgrwt>
</event>
<event>
 4    1  0.6782240E-004  0.1864414E+03  0.7818608E-02  0.1161711E+00
          2   -1    0    0  501    0  0.00000000000E+00  0.00000000000E+00  0.62289931703E+02  0.62289931755E+02  0.25500000000E-02 0.  1.
         -2   -1    0    0    0  501 -0.00000000000E+00 -0.00000000000E+00 -0.13951055021E+03  0.13951055023E+03  0.25500000000E-02 0. -1.
    5000001    1    1    2    0    0 -0.13169824894E+02 -0.50716896529E+02 -0.34355196896E+02  0.99271987162E+02  0.77000000000E+02 0.  0.
   -5000001    1    1    2    0    0  0.13169824894E+02  0.50716896529E+02 -0.42865421610E+02  0.10252849483E+03  0.77000000000E+02 0.  0.
<mgrwt>
<rscale>  0 0.18644144E+03</rscale>
<asrwt>0</asrwt>
<pdfrwt beam="1">  1        2 0.88985617E-02 0.18644144E+03</pdfrwt>
<pdfrwt beam="2">  1       -2 0.19930079E-01 0.18644144E+03</pdfrwt>
<totfact> 0.15040122E+04</totfact>
</mgrwt>
</event>
<event>
 4    1  0.6782240E-004  0.2288539E+03  0.7818608E-02  0.1127449E+00
         -2   -1    0    0    0  501 -0.00000000000E+00  0.00000000000E+00  0.44800183509E+02  0.44800183582E+02  0.25500000000E-02 0. -1.
          2   -1    0    0  501    0  0.00000000000E+00 -0.00000000000E+00 -0.29226512460E+03  0.29226512461E+03  0.25500000000E-02 0.  1.
    5000001    1    1    2    0    0  0.32613664189E+01  0.19896171558E+02 -0.26542719016E+01  0.79640060980E+02  0.77000000000E+02 0.  0.
   -5000001    1    1    2    0    0 -0.32613664189E+01 -0.19896171558E+02 -0.24481066919E+03  0.25742524721E+03  0.77000000000E+02 0.  0.
<mgrwt>
<rscale>  0 0.22885394E+03</rscale>
<asrwt>0</asrwt>
<pdfrwt beam="1">  1        2 0.41752160E-01 0.22885394E+03</pdfrwt>
<pdfrwt beam="2">  1       -2 0.64000264E-02 0.22885394E+03</pdfrwt>
<totfact> 0.15971028E+04</totfact>
</mgrwt>
</event>
<event>
 4    1  0.6782240E-004  0.2484290E+03  0.7818608E-02  0.1114302E+00
         -2   -1    0    0    0  501 -0.00000000000E+00  0.00000000000E+00  0.31774106657E+01  0.31774116889E+01  0.25500000000E-02 0. -1.
          2   -1    0    0  501    0  0.00000000000E+00 -0.00000000000E+00 -0.48559164873E+04  0.48559164873E+04  0.25500000000E-02 0.  1.
    5000001    1    1    2    0    0 -0.45481932469E+02 -0.73809394147E+02 -0.15551992161E+04  0.15595159617E+04  0.77000000000E+02 0.  0.
   -5000001    1    1    2    0    0  0.45481932469E+02  0.73809394147E+02 -0.32975398605E+04  0.32995779374E+04  0.77000000000E+02 0.  0.
<mgrwt>
<rscale>  0 0.24842901E+03</rscale>
<asrwt>0</asrwt>
<pdfrwt beam="1">  1        2 0.69369760E+00 0.24842901E+03</pdfrwt>
<pdfrwt beam="2">  1       -2 0.45391899E-03 0.24842901E+03</pdfrwt>
<totfact> 0.11198702E+03</totfact>
</mgrwt>
</event>
<event>
 4    1  0.6782240E-004  0.2334936E+03  0.7818608E-02  0.1124205E+00
         -2   -1    0    0    0  501 -0.00000000000E+00  0.00000000000E+00  0.26500036598E+02  0.26500036720E+02  0.25500000000E-02 0. -1.
          2   -1    0    0  501    0  0.00000000000E+00 -0.00000000000E+00 -0.51433208083E+03  0.51433208084E+03  0.25500000000E-02 0.  1.
    5000001    1    1    2    0    0  0.67842186131E+02 -0.36123077993E+02 -0.14582627888E+03  0.18193884301E+03  0.77000000000E+02 0.  0.
   -5000001    1    1    2    0    0 -0.67842186131E+02  0.36123077993E+02 -0.34200576535E+03  0.35889327455E+03  0.77000000000E+02 0.  0.
<mgrwt>
<rscale>  0 0.23349363E+03</rscale>
<asrwt>0</asrwt>
<pdfrwt beam="1">  1        2 0.73476005E-01 0.23349363E+03</pdfrwt>
<pdfrwt beam="2">  1       -2 0.37857198E-02 0.23349363E+03</pdfrwt>
<totfact> 0.19232931E+04</totfact>
</mgrwt>
</event>
<event>
 4    1  0.6782240E-004  0.5572290E+03  0.7818608E-02  0.9998344E-01
         -2   -1    0    0    0  501 -0.00000000000E+00  0.00000000000E+00  0.25891414643E+03  0.25891414644E+03  0.25500000000E-02 0. -1.
          2   -1    0    0  501    0  0.00000000000E+00 -0.00000000000E+00 -0.29981377713E+03  0.29981377714E+03  0.25500000000E-02 0.  1.
    5000001    1    1    2    0    0  0.16108412453E+03  0.19753758310E+03  0.61794218980E+02  0.27334358857E+03  0.77000000000E+02 0.  0.
   -5000001    1    1    2    0    0 -0.16108412453E+03 -0.19753758310E+03 -0.10269384969E+03  0.28538433502E+03  0.77000000000E+02 0.  0.
<mgrwt>
<rscale>  0 0.55722896E+03</rscale>
<asrwt>0</asrwt>
<pdfrwt beam="1">  1        2 0.42830540E-01 0.55722896E+03</pdfrwt>
<pdfrwt beam="2">  1       -2 0.36987735E-01 0.55722896E+03</pdfrwt>
<totfact> 0.82520926E+02</totfact>
</mgrwt>
</event>
<event>
 4    1  0.6782240E-004  0.4277731E+03  0.7818608E-02  0.1034566E+00
          2   -1    0    0  501    0  0.00000000000E+00  0.00000000000E+00  0.18872832673E+04  0.18872832673E+04  0.25500000000E-02 0.  1.
         -2   -1    0    0    0  501 -0.00000000000E+00 -0.00000000000E+00 -0.24239845115E+02  0.24239845249E+02  0.25500000000E-02 0. -1.
    5000001    1    1    2    0    0  0.12066274028E+03  0.15835556963E+03  0.99188360992E+03  0.10145925680E+04  0.77000000000E+02 0.  0.
   -5000001    1    1    2    0    0 -0.12066274028E+03 -0.15835556963E+03  0.87115981229E+03  0.89693054462E+03  0.77000000000E+02 0.  0.
<mgrwt>
<rscale>  0 0.42777309E+03</rscale>
<asrwt>0</asrwt>
<pdfrwt beam="1">  1        2 0.26961196E+00 0.42777309E+03</pdfrwt>
<pdfrwt beam="2">  1       -2 0.34628342E-02 0.42777309E+03</pdfrwt>
<totfact> 0.34171186E+03</totfact>
</mgrwt>
</event>
<event>
 4    1  0.6782240E-004  0.2226100E+03  0.7818608E-02  0.1131952E+00
          2   -1    0    0  501    0  0.00000000000E+00  0.00000000000E+00  0.23642692283E+04  0.23642692283E+04  0.25500000000E-02 0.  1.
         -2   -1    0    0    0  501 -0.00000000000E+00 -0.00000000000E+00 -0.52400116098E+01  0.52400122303E+01  0.25500000000E-02 0. -1.
    5000001    1    1    2    0    0 -0.87418914261E+01 -0.68676126773E+02  0.74492691338E+03  0.75208904880E+03  0.77000000000E+02 0.  0.
   -5000001    1    1    2    0    0  0.87418914261E+01  0.68676126773E+02  0.16141023033E+04  0.16174201917E+04  0.77000000000E+02 0.  0.
<mgrwt>
<rscale>  0 0.22260996E+03</rscale>
<asrwt>0</asrwt>
<pdfrwt beam="1">  1        2 0.33775299E+00 0.22260996E+03</pdfrwt>
<pdfrwt beam="2">  1       -2 0.74857259E-03 0.22260996E+03</pdfrwt>
<totfact> 0.18886313E+04</totfact>
</mgrwt>
</event>
<event>
 4    1  0.6782240E-004  0.1950043E+03  0.7818608E-02  0.1154024E+00
         -2   -1    0    0    0  501 -0.00000000000E+00  0.00000000000E+00  0.12554294209E+02  0.12554294468E+02  0.25500000000E-02 0. -1.
          2   -1    0    0  501    0  0.00000000000E+00 -0.00000000000E+00 -0.75724435353E+03  0.75724435353E+03  0.25500000000E-02 0.  1.
    5000001    1    1    2    0    0 -0.29571948687E+02 -0.16693606385E+02 -0.17796871741E+03  0.19686300063E+03  0.77000000000E+02 0.  0.
   -5000001    1    1    2    0    0  0.29571948687E+02  0.16693606385E+02 -0.56672134191E+03  0.57293564737E+03  0.77000000000E+02 0.  0.
<mgrwt>
<rscale>  0 0.19500429E+03</rscale>
<asrwt>0</asrwt>
<pdfrwt beam="1">  1        2 0.10817774E+00 0.19500429E+03</pdfrwt>
<pdfrwt beam="2">  1       -2 0.17934711E-02 0.19500429E+03</pdfrwt>
<totfact> 0.36685112E+04</totfact>
</mgrwt>
</event>
<event>
 4    1  0.6782240E-004  0.1703629E+03  0.7818608E-02  0.1177470E+00
         -2   -1    0    0    0  501 -0.00000000000E+00  0.00000000000E+00  0.21833201881E+01  0.21833216772E+01  0.25500000000E-02 0. -1.
          2   -1    0    0  501    0  0.00000000000E+00 -0.00000000000E+00 -0.33233215494E+04  0.33233215494E+04  0.25500000000E-02 0.  1.
    5000001    1    1    2    0    0 -0.20832933070E+02 -0.25630001968E+01 -0.10794403558E+04  0.10823867431E+04  0.77000000000E+02 0.  0.
   -5000001    1    1    2    0    0  0.20832933070E+02  0.25630001968E+01 -0.22416978734E+04  0.22431181279E+04  0.77000000000E+02 0.  0.
<mgrwt>
<rscale>  0 0.17036288E+03</rscale>
<asrwt>0</asrwt>
<pdfrwt beam="1">  1        2 0.47475698E+00 0.17036288E+03</pdfrwt>
<pdfrwt beam="2">  1       -2 0.31190512E-03 0.17036288E+03</pdfrwt>
<totfact> 0.20974339E+04</totfact>
</mgrwt>
</event>
<event>
 4    1  0.6782240E-004  0.2449047E+03  0.7818608E-02  0.1116568E+00
         -2   -1    0    0    0  501 -0.00000000000E+00  0.00000000000E+00  0.26044609742E+03  0.26044609743E+03  0.25500000000E-02 0. -1.
          2   -1    0    0  501    0  0.00000000000E+00 -0.00000000000E+00 -0.57572672374E+02  0.57572672430E+02  0.25500000000E-02 0.  1.
    5000001    1    1    2    0    0 -0.68529818563E+02  0.11268048702E+02  0.16859194358E+02  0.10505492558E+03  0.77000000000E+02 0.  0.
   -5000001    1    1    2    0    0  0.68529818563E+02 -0.11268048702E+02  0.18601423068E+03  0.21296384428E+03  0.77000000000E+02 0.  0.
<mgrwt>
<rscale>  0 0.24490470E+03</rscale>
<asrwt>0</asrwt>
<pdfrwt beam="1">  1        2 0.82246676E-02 0.24490470E+03</pdfrwt>
<pdfrwt beam="2">  1       -2 0.37206585E-01 0.24490470E+03</pdfrwt>
<totfact> 0.55442142E+03</totfact>
</mgrwt>
</event>
<event>
 4    1  0.6782240E-004  0.3917823E+03  0.7818608E-02  0.1046663E+00
          2   -1    0    0  501    0  0.00000000000E+00  0.00000000000E+00  0.71994969272E+03  0.71994969272E+03  0.25500000000E-02 0.  1.
         -2   -1    0    0    0  501 -0.00000000000E+00 -0.00000000000E+00 -0.53300045923E+02  0.53300045984E+02  0.25500000000E-02 0. -1.
    5000001    1    1    2    0    0  0.59819280431E+02 -0.15722420504E+03  0.20623270429E+03  0.27705365055E+03  0.77000000000E+02 0.  0.
   -5000001    1    1    2    0    0 -0.59819280431E+02  0.15722420504E+03  0.46041694250E+03  0.49619608816E+03  0.77000000000E+02 0.  0.
<mgrwt>
<rscale>  0 0.39178235E+03</rscale>
<asrwt>0</asrwt>
<pdfrwt beam="1">  1        2 0.10284995E+00 0.39178235E+03</pdfrwt>
<pdfrwt beam="2">  1       -2 0.76142929E-02 0.39178235E+03</pdfrwt>
<totfact> 0.45629329E+03</totfact>
</mgrwt>
</event>
<event>
 4    1  0.6782240E-004  0.3543378E+03  0.7818608E-02  0.1060849E+00
          2   -1    0    0  501    0  0.00000000000E+00  0.00000000000E+00  0.39081494530E+03  0.39081494531E+03  0.25500000000E-02 0.  1.
         -2   -1    0    0    0  501 -0.00000000000E+00 -0.00000000000E+00 -0.80316301463E+02  0.80316301503E+02  0.25500000000E-02 0. -1.
    5000001    1    1    2    0    0 -0.12145679129E+03  0.10197998302E+03  0.17858926813E+03  0.25094779492E+03  0.77000000000E+02 0.  0.
   -5000001    1    1    2    0    0  0.12145679129E+03 -0.10197998302E+03  0.13190937571E+03  0.22018345189E+03  0.77000000000E+02 0.  0.
<mgrwt>
<rscale>  0 0.35433775E+03</rscale>
<asrwt>0</asrwt>
<pdfrwt beam="1">  1        2 0.55830707E-01 0.35433775E+03</pdfrwt>
<pdfrwt beam="2">  1       -2 0.11473757E-01 0.35433775E+03</pdfrwt>
<totfact> 0.47432287E+03</totfact>
</mgrwt>
</event>
<event>
 4    1  0.6782240E-004  0.3572289E+03  0.7818608E-02  0.1059686E+00
         -2   -1    0    0    0  501 -0.00000000000E+00  0.00000000000E+00  0.10238439052E+02  0.10238439370E+02  0.25500000000E-02 0. -1.
          2   -1    0    0  501    0  0.00000000000E+00 -0.00000000000E+00 -0.31160150062E+04  0.31160150062E+04  0.25500000000E-02 0.  1.
    5000001    1    1    2    0    0  0.10320089523E+03 -0.59209452814E+02 -0.25042562906E+04  0.25082632942E+04  0.77000000000E+02 0.  0.
   -5000001    1    1    2    0    0 -0.10320089523E+03  0.59209452814E+02 -0.60152027654E+03  0.61799015135E+03  0.77000000000E+02 0.  0.
<mgrwt>
<rscale>  0 0.35722895E+03</rscale>
<asrwt>0</asrwt>
<pdfrwt beam="1">  1        2 0.44514439E+00 0.35722895E+03</pdfrwt>
<pdfrwt beam="2">  1       -2 0.14626362E-02 0.35722895E+03</pdfrwt>
<totfact> 0.29254911E+03</totfact>
</mgrwt>
</event>
<event>
 4    1  0.6782240E-004  0.3713004E+03  0.7818608E-02  0.1054197E+00
          2   -1    0    0  501    0  0.00000000000E+00  0.00000000000E+00  0.18661753342E+02  0.18661753516E+02  0.25500000000E-02 0.  1.
         -2   -1    0    0    0  501 -0.00000000000E+00 -0.00000000000E+00 -0.18468791563E+04  0.18468791563E+04  0.25500000000E-02 0. -1.
    5000001    1    1    2    0    0 -0.90763264235E+02 -0.18146782409E+02 -0.16241202102E+04  0.16285769042E+04  0.77000000000E+02 0.  0.
   -5000001    1    1    2    0    0  0.90763264235E+02  0.18146782409E+02 -0.20409719275E+03  0.23696400557E+03  0.77000000000E+02 0.  0.
<mgrwt>
<rscale>  0 0.37130044E+03</rscale>
<asrwt>0</asrwt>
<pdfrwt beam="1">  1        2 0.26659659E-02 0.37130044E+03</pdfrwt>
<pdfrwt beam="2">  1       -2 0.26383976E+00 0.37130044E+03</pdfrwt>
<totfact> 0.21852441E+02</totfact>
</mgrwt>
</event>
<event>
 4    1  0.6782240E-004  0.1836509E+03  0.7818608E-02  0.1164316E+00
          2   -1    0    0  501    0  0.00000000000E+00  0.00000000000E+00  0.31205530520E+02  0.31205530625E+02  0.25500000000E-02 0.  1.
         -2   -1    0    0    0  501 -0.00000000000E+00 -0.00000000000E+00 -0.27020578250E+03  0.27020578252E+03  0.25500000000E-02 0. -1.
    5000001    1    1    2    0    0  0.32702619609E+02 -0.33064168163E+02 -0.14977223704E+03  0.17470954047E+03  0.77000000000E+02 0.  0.
   -5000001    1    1    2    0    0 -0.32702619609E+02  0.33064168163E+02 -0.89228014947E+02  0.12670177267E+03  0.77000000000E+02 0.  0.
<mgrwt>
<rscale>  0 0.18365092E+03</rscale>
<asrwt>0</asrwt>
<pdfrwt beam="1">  1        2 0.44579331E-02 0.18365092E+03</pdfrwt>
<pdfrwt beam="2">  1       -2 0.38600825E-01 0.18365092E+03</pdfrwt>
<totfact> 0.11239001E+04</totfact>
</mgrwt>
</event>
<event>
 4    1  0.6782240E-004  0.2174206E+03  0.7818608E-02  0.1135821E+00
          2   -1    0    0  501    0  0.00000000000E+00  0.00000000000E+00  0.13210319753E+04  0.13210319753E+04  0.25500000000E-02 0.  1.
         -2   -1    0    0    0  501 -0.00000000000E+00 -0.00000000000E+00 -0.89459865537E+01  0.89459869171E+01  0.25500000000E-02 0. -1.
    5000001    1    1    2    0    0  0.21756335042E+01  0.74421348637E+02  0.76977187006E+03  0.77718788105E+03  0.77000000000E+02 0.  0.
   -5000001    1    1    2    0    0 -0.21756335042E+01 -0.74421348637E+02  0.54231411870E+03  0.55279008118E+03  0.77000000000E+02 0.  0.
<mgrwt>
<rscale>  0 0.21742065E+03</rscale>
<asrwt>0</asrwt>
<pdfrwt beam="1">  1        2 0.18871898E+00 0.21742065E+03</pdfrwt>
<pdfrwt beam="2">  1       -2 0.12779972E-02 0.21742065E+03</pdfrwt>
<totfact> 0.28358373E+04</totfact>
</mgrwt>
</event>
<event>
 4    1  0.6782240E-004  0.2204138E+03  0.7818608E-02  0.1133575E+00
         -2   -1    0    0    0  501 -0.00000000000E+00  0.00000000000E+00  0.57480171006E+03  0.57480171006E+03  0.25500000000E-02 0. -1.
          2   -1    0    0  501    0  0.00000000000E+00 -0.00000000000E+00 -0.21130005477E+02  0.21130005631E+02  0.25500000000E-02 0.  1.
    5000001    1    1    2    0    0  0.43349388691E+02  0.61595914923E+02  0.33985787679E+03  0.35651872693E+03  0.77000000000E+02 0.  0.
   -5000001    1    1    2    0    0 -0.43349388691E+02 -0.61595914923E+02  0.21381382779E+03  0.23941298876E+03  0.77000000000E+02 0.  0.
<mgrwt>
<rscale>  0 0.22041382E+03</rscale>
<asrwt>0</asrwt>
<pdfrwt beam="1">  1        2 0.30185727E-02 0.22041382E+03</pdfrwt>
<pdfrwt beam="2">  1       -2 0.82114516E-01 0.22041382E+03</pdfrwt>
<totfact> 0.41110895E+03</totfact>
</mgrwt>
</event>
<event>
 4    1  0.6782240E-004  0.4732333E+03  0.7818608E-02  0.1021012E+00
         -2   -1    0    0    0  501 -0.00000000000E+00  0.00000000000E+00  0.95761973398E+02  0.95761973432E+02  0.25500000000E-02 0. -1.
          2   -1    0    0  501    0  0.00000000000E+00 -0.00000000000E+00 -0.58465221726E+03  0.58465221727E+03  0.25500000000E-02 0.  1.
    5000001    1    1    2    0    0 -0.15745393246E+03 -0.81623010816E+02 -0.48332394606E+02  0.19929645533E+03  0.77000000000E+02 0.  0.
   -5000001    1    1    2    0    0  0.15745393246E+03  0.81623010816E+02 -0.44055784926E+03  0.48111773536E+03  0.77000000000E+02 0.  0.
<mgrwt>
<rscale>  0 0.47323335E+03</rscale>
<asrwt>0</asrwt>
<pdfrwt beam="1">  1        2 0.83521743E-01 0.47323335E+03</pdfrwt>
<pdfrwt beam="2">  1       -2 0.13680282E-01 0.47323335E+03</pdfrwt>
<totfact> 0.22760215E+03</totfact>
</mgrwt>
</event>
<event>
 4    1  0.6782240E-004  0.2423892E+03  0.7818608E-02  0.1118211E+00
          2   -1    0    0  501    0  0.00000000000E+00  0.00000000000E+00  0.40486570475E+03  0.40486570476E+03  0.25500000000E-02 0.  1.
         -2   -1    0    0    0  501 -0.00000000000E+00 -0.00000000000E+00 -0.36279026395E+02  0.36279026484E+02  0.25500000000E-02 0. -1.
    5000001    1    1    2    0    0  0.42854720676E+02 -0.72167998891E+02  0.10893658948E+03  0.15761004941E+03  0.77000000000E+02 0.  0.
   -5000001    1    1    2    0    0 -0.42854720676E+02  0.72167998891E+02  0.25965008888E+03  0.28353468183E+03  0.77000000000E+02 0.  0.
<mgrwt>
<rscale>  0 0.24238922E+03</rscale>
<asrwt>0</asrwt>
<pdfrwt beam="1">  1        2 0.57837953E-01 0.24238922E+03</pdfrwt>
<pdfrwt beam="2">  1       -2 0.51827185E-02 0.24238922E+03</pdfrwt>
<totfact> 0.15584833E+04</totfact>
</mgrwt>
</event>
<event>
 4    1  0.6782240E-004  0.1392603E+04  0.7818608E-02  0.8959191E-01
          2   -1    0    0  501    0  0.00000000000E+00  0.00000000000E+00  0.16914091169E+04  0.16914091169E+04  0.25500000000E-02 0.  1.
         -2   -1    0    0    0  501 -0.00000000000E+00 -0.00000000000E+00 -0.28664595523E+03  0.28664595524E+03  0.25500000000E-02 0. -1.
    5000001    1    1    2    0    0  0.24393849529E+03 -0.64704456217E+03  0.66390135599E+03  0.96169988323E+03  0.77000000000E+02 0.  0.
   -5000001    1    1    2    0    0 -0.24393849529E+03  0.64704456217E+03  0.74086180568E+03  0.10163551889E+04  0.77000000000E+02 0.  0.
<mgrwt>
<rscale>  0 0.13926027E+04</rscale>
<asrwt>0</asrwt>
<pdfrwt beam="1">  1        2 0.24162987E+00 0.13926027E+04</pdfrwt>
<pdfrwt beam="2">  1       -2 0.40949423E-01 0.13926027E+04</pdfrwt>
<totfact> 0.63778090E+01</totfact>
</mgrwt>
</event>
<event>
 4    1  0.6782240E-004  0.2212667E+03  0.7818608E-02  0.1132942E+00
         -2   -1    0    0    0  501 -0.00000000000E+00  0.00000000000E+00  0.76809441823E+01  0.76809446056E+01  0.25500000000E-02 0. -1.
          2   -1    0    0  501    0  0.00000000000E+00 -0.00000000000E+00 -0.15935192428E+04  0.15935192428E+04  0.25500000000E-02 0.  1.
    5000001    1    1    2    0    0  0.29621965706E+02  0.59202330177E+02 -0.11106967420E+04  0.11153289333E+04  0.77000000000E+02 0.  0.
   -5000001    1    1    2    0    0 -0.29621965706E+02 -0.59202330177E+02 -0.47514155664E+03  0.48587125414E+03  0.77000000000E+02 0.  0.
<mgrwt>
<rscale>  0 0.22126665E+03</rscale>
<asrwt>0</asrwt>
<pdfrwt beam="1">  1        2 0.22764540E+00 0.22126665E+03</pdfrwt>
<pdfrwt beam="2">  1       -2 0.10972788E-02 0.22126665E+03</pdfrwt>
<totfact> 0.25780979E+04</totfact>
</mgrwt>
</event>
<event>
 4    1  0.6782240E-004  0.3414147E+03  0.7818608E-02  0.1066195E+00
          2   -1    0    0  501    0  0.00000000000E+00  0.00000000000E+00  0.69586949503E+02  0.69586949549E+02  0.25500000000E-02 0.  1.
         -2   -1    0    0    0  501 -0.00000000000E+00 -0.00000000000E+00 -0.41877114841E+03  0.41877114842E+03  0.25500000000E-02 0. -1.
    5000001    1    1    2    0    0  0.15158014102E+02  0.11530530642E+03 -0.33809444544E+02  0.14351709871E+03  0.77000000000E+02 0.  0.
   -5000001    1    1    2    0    0 -0.15158014102E+02 -0.11530530642E+03 -0.31537475436E+03  0.34484099926E+03  0.77000000000E+02 0.  0.
<mgrwt>
<rscale>  0 0.34141474E+03</rscale>
<asrwt>0</asrwt>
<pdfrwt beam="1">  1        2 0.99409930E-02 0.34141474E+03</pdfrwt>
<pdfrwt beam="2">  1       -2 0.59824448E-01 0.34141474E+03</pdfrwt>
<totfact> 0.17265932E+03</totfact>
</mgrwt>
</event>
<event>
 4    1  0.6782240E-004  0.3732521E+03  0.7818608E-02  0.1053456E+00
         -2   -1    0    0    0  501 -0.00000000000E+00  0.00000000000E+00  0.75861837308E+02  0.75861837351E+02  0.25500000000E-02 0. -1.
          2   -1    0    0  501    0  0.00000000000E+00 -0.00000000000E+00 -0.45911462627E+03  0.45911462628E+03  0.25500000000E-02 0.  1.
    5000001    1    1    2    0    0 -0.14415041536E+03  0.22539804213E+02 -0.31668319999E+03  0.35707791052E+03  0.77000000000E+02 0.  0.
   -5000001    1    1    2    0    0  0.14415041536E+03 -0.22539804213E+02 -0.66569588973E+02  0.17789855311E+03  0.77000000000E+02 0.  0.
<mgrwt>
<rscale>  0 0.37325208E+03</rscale>
<asrwt>0</asrwt>
<pdfrwt beam="1">  1        2 0.65587803E-01 0.37325208E+03</pdfrwt>
<pdfrwt beam="2">  1       -2 0.10837406E-01 0.37325208E+03</pdfrwt>
<totfact> 0.43637137E+03</totfact>
</mgrwt>
</event>
<event>
 4    1  0.6782240E-004  0.3211257E+03  0.7818608E-02  0.1075132E+00
         -2   -1    0    0    0  501 -0.00000000000E+00  0.00000000000E+00  0.66514568130E+03  0.66514568130E+03  0.25500000000E-02 0. -1.
          2   -1    0    0  501    0  0.00000000000E+00 -0.00000000000E+00 -0.38759066157E+02  0.38759066241E+02  0.25500000000E-02 0.  1.
    5000001    1    1    2    0    0  0.54483976457E+02 -0.60347776932E+02  0.56542541008E+03  0.57640719308E+03  0.77000000000E+02 0.  0.
   -5000001    1    1    2    0    0 -0.54483976457E+02  0.60347776932E+02  0.60961205057E+02  0.12749755446E+03  0.77000000000E+02 0.  0.
<mgrwt>
<rscale>  0 0.32112568E+03</rscale>
<asrwt>0</asrwt>
<pdfrwt beam="1">  1        2 0.55370093E-02 0.32112568E+03</pdfrwt>
<pdfrwt beam="2">  1       -2 0.95020814E-01 0.32112568E+03</pdfrwt>
<totfact> 0.13316875E+03</totfact>
</mgrwt>
</event>
<event>
 4    1  0.6782240E-004  0.2155170E+03  0.7818608E-02  0.1137270E+00
         -2   -1    0    0    0  501 -0.00000000000E+00  0.00000000000E+00  0.34496507037E+02  0.34496507131E+02  0.25500000000E-02 0. -1.
          2   -1    0    0  501    0  0.00000000000E+00 -0.00000000000E+00 -0.33661085396E+03  0.33661085397E+03  0.25500000000E-02 0.  1.
    5000001    1    1    2    0    0  0.20880642579E+02 -0.69846527591E+02 -0.11800848558E+03  0.15864911383E+03  0.77000000000E+02 0.  0.
   -5000001    1    1    2    0    0 -0.20880642579E+02  0.69846527591E+02 -0.18410586135E+03  0.21245824727E+03  0.77000000000E+02 0.  0.
<mgrwt>
<rscale>  0 0.21551704E+03</rscale>
<asrwt>0</asrwt>
<pdfrwt beam="1">  1        2 0.48087263E-01 0.21551704E+03</pdfrwt>
<pdfrwt beam="2">  1       -2 0.49280726E-02 0.21551704E+03</pdfrwt>
<totfact> 0.20361435E+04</totfact>
</mgrwt>
</event>
<event>
 4    1  0.6782240E-004  0.2923996E+03  0.7818608E-02  0.1089103E+00
          2   -1    0    0  501    0  0.00000000000E+00  0.00000000000E+00  0.17250030464E+04  0.17250030464E+04  0.25500000000E-02 0.  1.
         -2   -1    0    0    0  501 -0.00000000000E+00 -0.00000000000E+00 -0.12390923954E+02  0.12390924217E+02  0.25500000000E-02 0. -1.
    5000001    1    1    2    0    0 -0.74005768896E+02  0.96341788328E+02  0.10120219095E+04  0.10221917332E+04  0.77000000000E+02 0.  0.
   -5000001    1    1    2    0    0  0.74005768896E+02 -0.96341788328E+02  0.70059021296E+03  0.71520223748E+03  0.77000000000E+02 0.  0.
<mgrwt>
<rscale>  0 0.29239960E+03</rscale>
<asrwt>0</asrwt>
<pdfrwt beam="1">  1        2 0.24642890E+00 0.29239960E+03</pdfrwt>
<pdfrwt beam="2">  1       -2 0.17701328E-02 0.29239960E+03</pdfrwt>
<totfact> 0.11160823E+04</totfact>
</mgrwt>
</event>
<event>
 4    1  0.6782240E-004  0.2498318E+03  0.7818608E-02  0.1113411E+00
         -2   -1    0    0    0  501 -0.00000000000E+00  0.00000000000E+00  0.13586891693E+03  0.13586891695E+03  0.25500000000E-02 0. -1.
          2   -1    0    0  501    0  0.00000000000E+00 -0.00000000000E+00 -0.11484581817E+03  0.11484581820E+03  0.25500000000E-02 0.  1.
    5000001    1    1    2    0    0 -0.52861930826E+02  0.81735298818E+02 -0.36782313274E+01  0.12416751664E+03  0.77000000000E+02 0.  0.
   -5000001    1    1    2    0    0  0.52861930826E+02 -0.81735298818E+02  0.24701330084E+02  0.12654721851E+03  0.77000000000E+02 0.  0.
<mgrwt>
<rscale>  0 0.24983176E+03</rscale>
<asrwt>0</asrwt>
<pdfrwt beam="1">  1        2 0.16406545E-01 0.24983176E+03</pdfrwt>
<pdfrwt beam="2">  1       -2 0.19409845E-01 0.24983176E+03</pdfrwt>
<totfact> 0.76386818E+03</totfact>
</mgrwt>
</event>
<event>
 4    1  0.6782240E-004  0.2079815E+03  0.7818608E-02  0.1143174E+00
         -2   -1    0    0    0  501 -0.00000000000E+00  0.00000000000E+00  0.48433095236E+02  0.48433095303E+02  0.25500000000E-02 0. -1.
          2   -1    0    0  501    0  0.00000000000E+00 -0.00000000000E+00 -0.22327865931E+03  0.22327865933E+03  0.25500000000E-02 0.  1.
    5000001    1    1    2    0    0 -0.58351918199E+02 -0.33919302733E+02 -0.11114114128E+03  0.15111855856E+03  0.77000000000E+02 0.  0.
   -5000001    1    1    2    0    0  0.58351918199E+02  0.33919302733E+02 -0.63704422798E+02  0.12059319607E+03  0.77000000000E+02 0.  0.
<mgrwt>
<rscale>  0 0.20798150E+03</rscale>
<asrwt>0</asrwt>
<pdfrwt beam="1">  1        2 0.31896951E-01 0.20798150E+03</pdfrwt>
<pdfrwt beam="2">  1       -2 0.69190137E-02 0.20798150E+03</pdfrwt>
<totfact> 0.18819769E+04</totfact>
</mgrwt>
</event>
<event>
 4    1  0.6782240E-004  0.2038894E+03  0.7818608E-02  0.1146498E+00
          2   -1    0    0  501    0  0.00000000000E+00  0.00000000000E+00  0.35844494373E+04  0.35844494373E+04  0.25500000000E-02 0.  1.
         -2   -1    0    0    0  501 -0.00000000000E+00 -0.00000000000E+00 -0.28993902538E+01  0.28993913752E+01  0.25500000000E-02 0. -1.
    5000001    1    1    2    0    0 -0.33977721141E+02 -0.57093161742E+02  0.19146952729E+04  0.19173943524E+04  0.77000000000E+02 0.  0.
   -5000001    1    1    2    0    0  0.33977721141E+02  0.57093161742E+02  0.16668547741E+04  0.16699544762E+04  0.77000000000E+02 0.  0.
<mgrwt>
<rscale>  0 0.20388938E+03</rscale>
<asrwt>0</asrwt>
<pdfrwt beam="1">  1        2 0.51206366E+00 0.20388938E+03</pdfrwt>
<pdfrwt beam="2">  1       -2 0.41419913E-03 0.20388938E+03</pdfrwt>
<totfact> 0.99883702E+03</totfact>
</mgrwt>
</event>
<event>
 4    1  0.6782240E-004  0.2914175E+03  0.7818608E-02  0.1089611E+00
          2   -1    0    0  501    0  0.00000000000E+00  0.00000000000E+00  0.12030271578E+02  0.12030271848E+02  0.25500000000E-02 0.  1.
         -2   -1    0    0    0  501 -0.00000000000E+00 -0.00000000000E+00 -0.17648010703E+04  0.17648010703E+04  0.25500000000E-02 0. -1.
    5000001    1    1    2    0    0  0.58825876510E+02  0.10819426064E+03 -0.80539693680E+03  0.81838848207E+03  0.77000000000E+02 0.  0.
   -5000001    1    1    2    0    0 -0.58825876510E+02 -0.10819426064E+03 -0.94737386193E+03  0.95844286008E+03  0.77000000000E+02 0.  0.
<mgrwt>
<rscale>  0 0.29141748E+03</rscale>
<asrwt>0</asrwt>
<pdfrwt beam="1">  1        2 0.17186114E-02 0.29141748E+03</pdfrwt>
<pdfrwt beam="2">  1       -2 0.25211427E+00 0.29141748E+03</pdfrwt>
<totfact> 0.47175518E+02</totfact>
</mgrwt>
</event>
<event>
 4    1  0.6782240E-004  0.2776863E+03  0.7818608E-02  0.1096959E+00
         -2   -1    0    0    0  501 -0.00000000000E+00  0.00000000000E+00  0.12438395934E+02  0.12438396196E+02  0.25500000000E-02 0. -1.
          2   -1    0    0  501    0  0.00000000000E+00 -0.00000000000E+00 -0.15498317737E+04  0.15498317737E+04  0.25500000000E-02 0.  1.
    5000001    1    1    2    0    0 -0.10299696494E+03 -0.37351548903E+02 -0.97501987438E+03  0.98417288543E+03  0.77000000000E+02 0.  0.
   -5000001    1    1    2    0    0  0.10299696494E+03  0.37351548903E+02 -0.56237350344E+03  0.57809728451E+03  0.77000000000E+02 0.  0.
<mgrwt>
<rscale>  0 0.27768631E+03</rscale>
<asrwt>0</asrwt>
<pdfrwt beam="1">  1        2 0.22140442E+00 0.27768631E+03</pdfrwt>
<pdfrwt beam="2">  1       -2 0.17769147E-02 0.27768631E+03</pdfrwt>
<totfact> 0.13545263E+04</totfact>
</mgrwt>
</event>
<event>
 4    1  0.6782240E-004  0.4255585E+03  0.7818608E-02  0.1035272E+00
         -2   -1    0    0    0  501 -0.00000000000E+00  0.00000000000E+00  0.45207382510E+02  0.45207382582E+02  0.25500000000E-02 0. -1.
          2   -1    0    0  501    0  0.00000000000E+00 -0.00000000000E+00 -0.10014958244E+04  0.10014958244E+04  0.25500000000E-02 0.  1.
    5000001    1    1    2    0    0 -0.11624030071E+03  0.44667753562E+02 -0.85790335137E+03  0.87030694356E+03  0.77000000000E+02 0.  0.
   -5000001    1    1    2    0    0  0.11624030071E+03 -0.44667753562E+02 -0.98385090552E+02  0.17639626346E+03  0.77000000000E+02 0.  0.
<mgrwt>
<rscale>  0 0.42555848E+03</rscale>
<asrwt>0</asrwt>
<pdfrwt beam="1">  1        2 0.14307082E+00 0.42555848E+03</pdfrwt>
<pdfrwt beam="2">  1       -2 0.64581981E-02 0.42555848E+03</pdfrwt>
<totfact> 0.38598370E+03</totfact>
</mgrwt>
</event>
<event>
 4    1  0.6782240E-004  0.2075283E+03  0.7818608E-02  0.1143538E+00
          2   -1    0    0  501    0  0.00000000000E+00  0.00000000000E+00  0.97851097672E+03  0.97851097673E+03  0.25500000000E-02 0.  1.
         -2   -1    0    0    0  501 -0.00000000000E+00 -0.00000000000E+00 -0.11003447626E+02  0.11003447921E+02  0.25500000000E-02 0. -1.
    5000001    1    1    2    0    0  0.59104682515E+02 -0.29396071133E+02  0.37923543466E+03  0.39256338010E+03  0.77000000000E+02 0.  0.
   -5000001    1    1    2    0    0 -0.59104682515E+02  0.29396071133E+02  0.58827209444E+03  0.59695104455E+03  0.77000000000E+02 0.  0.
<mgrwt>
<rscale>  0 0.20752826E+03</rscale>
<asrwt>0</asrwt>
<pdfrwt beam="1">  1        2 0.13978725E+00 0.20752826E+03</pdfrwt>
<pdfrwt beam="2">  1       -2 0.15719215E-02 0.20752826E+03</pdfrwt>
<totfact> 0.32304938E+04</totfact>
</mgrwt>
</event>
<event>
 4    1  0.6782240E-004  0.3904757E+03  0.7818608E-02  0.1047128E+00
         -2   -1    0    0    0  501 -0.00000000000E+00  0.00000000000E+00  0.28070999605E+02  0.28070999721E+02  0.25500000000E-02 0. -1.
          2   -1    0    0  501    0  0.00000000000E+00 -0.00000000000E+00 -0.13579071813E+04  0.13579071813E+04  0.25500000000E-02 0.  1.
    5000001    1    1    2    0    0  0.28623603192E+02  0.17294237306E+03 -0.80056310196E+03  0.82313951143E+03  0.77000000000E+02 0.  0.
   -5000001    1    1    2    0    0 -0.28623603192E+02 -0.17294237306E+03 -0.52927307975E+03  0.56283866961E+03  0.77000000000E+02 0.  0.
<mgrwt>
<rscale>  0 0.39047567E+03</rscale>
<asrwt>0</asrwt>
<pdfrwt beam="1">  1        2 0.19398670E+00 0.39047567E+03</pdfrwt>
<pdfrwt beam="2">  1       -2 0.40101437E-02 0.39047567E+03</pdfrwt>
<totfact> 0.50765568E+03</totfact>
</mgrwt>
</event>
<event>
 4    1  0.6782240E-004  0.2683171E+03  0.7818608E-02  0.1102247E+00
          2   -1    0    0  501    0  0.00000000000E+00  0.00000000000E+00  0.96681236559E+02  0.96681236592E+02  0.25500000000E-02 0.  1.
         -2   -1    0    0    0  501 -0.00000000000E+00 -0.00000000000E+00 -0.18616345334E+03  0.18616345335E+03  0.25500000000E-02 0. -1.
    5000001    1    1    2    0    0  0.94916117518E+01 -0.10691140274E+03 -0.20033322354E+02  0.13360566131E+03  0.77000000000E+02 0.  0.
   -5000001    1    1    2    0    0 -0.94916117518E+01  0.10691140274E+03 -0.69448894422E+02  0.14923902863E+03  0.77000000000E+02 0.  0.
<mgrwt>
<rscale>  0 0.26831707E+03</rscale>
<asrwt>0</asrwt>
<pdfrwt beam="1">  1        2 0.13811605E-01 0.26831707E+03</pdfrwt>
<pdfrwt beam="2">  1       -2 0.26594779E-01 0.26831707E+03</pdfrwt>
<totfact> 0.54321280E+03</totfact>
</mgrwt>
</event>
<event>
 4    1  0.6782240E-004  0.2007991E+03  0.7818608E-02  0.1149067E+00
          2   -1    0    0  501    0  0.00000000000E+00  0.00000000000E+00  0.35250361626E+04  0.35250361626E+04  0.25500000000E-02 0.  1.
         -2   -1    0    0    0  501 -0.00000000000E+00 -0.00000000000E+00 -0.28595633268E+01  0.28595644637E+01  0.25500000000E-02 0. -1.
    5000001    1    1    2    0    0 -0.46610378872E+02  0.33278237214E+02  0.22796345228E+04  0.22816534632E+04  0.77000000000E+02 0.  0.
   -5000001    1    1    2    0    0  0.46610378872E+02 -0.33278237214E+02  0.12425420764E+04  0.12462422639E+04  0.77000000000E+02 0.  0.
<mgrwt>
<rscale>  0 0.20079907E+03</rscale>
<asrwt>0</asrwt>
<pdfrwt beam="1">  1        2 0.50357421E+00 0.20079907E+03</pdfrwt>
<pdfrwt beam="2">  1       -2 0.40851106E-03 0.20079907E+03</pdfrwt>
<totfact> 0.11028924E+04</totfact>
</mgrwt>
</event>
<event>
 4    1  0.6782240E-004  0.4332005E+03  0.7818608E-02  0.1032854E+00
         -2   -1    0    0    0  501 -0.00000000000E+00  0.00000000000E+00  0.14232505137E+03  0.14232505139E+03  0.25500000000E-02 0. -1.
          2   -1    0    0  501    0  0.00000000000E+00 -0.00000000000E+00 -0.32963750906E+03  0.32963750907E+03  0.25500000000E-02 0.  1.
    5000001    1    1    2    0    0 -0.14545814801E+03 -0.10194050295E+03 -0.19949126916E+03  0.27798508132E+03  0.77000000000E+02 0.  0.
   -5000001    1    1    2    0    0  0.14545814801E+03  0.10194050295E+03  0.12178811472E+02  0.19397747914E+03  0.77000000000E+02 0.  0.
<mgrwt>
<rscale>  0 0.43320053E+03</rscale>
<asrwt>0</asrwt>
<pdfrwt beam="1">  1        2 0.47091072E-01 0.43320053E+03</pdfrwt>
<pdfrwt beam="2">  1       -2 0.20332150E-01 0.43320053E+03</pdfrwt>
<totfact> 0.22027913E+03</totfact>
</mgrwt>
</event>
<event>
 4    1  0.6782240E-004  0.2122069E+03  0.7818608E-02  0.1139830E+00
         -2   -1    0    0    0  501 -0.00000000000E+00  0.00000000000E+00  0.20315402998E+03  0.20315402999E+03  0.25500000000E-02 0.  1.
          2   -1    0    0  501    0  0.00000000000E+00 -0.00000000000E+00 -0.55415816090E+02  0.55415816149E+02  0.25500000000E-02 0. -1.
    5000001    1    1    2    0    0  0.42506442804E+02 -0.27478315921E+01  0.16327010831E+01  0.88011442274E+02  0.77000000000E+02 0.  0.
   -5000001    1    1    2    0    0 -0.42506442804E+02  0.27478315921E+01  0.14610551280E+03  0.17055840387E+03  0.77000000000E+02 0.  0.
<mgrwt>
<rscale>  0 0.21220694E+03</rscale>
<asrwt>0</asrwt>
<pdfrwt beam="1">  1        2 0.79165452E-02 0.21220694E+03</pdfrwt>
<pdfrwt beam="2">  1       -2 0.29022004E-01 0.21220694E+03</pdfrwt>
<totfact> 0.91184660E+03</totfact>
</mgrwt>
</event>
<event>
 4    1  0.6782240E-004  0.1948729E+03  0.7818608E-02  0.1154138E+00
         -2   -1    0    0    0  501 -0.00000000000E+00  0.00000000000E+00  0.61493929915E+01  0.61493935202E+01  0.25500000000E-02 0. -1.
          2   -1    0    0  501    0  0.00000000000E+00 -0.00000000000E+00 -0.15438695206E+04  0.15438695206E+04  0.25500000000E-02 0.  1.
    5000001    1    1    2    0    0  0.22337953332E+02 -0.52309514747E+02 -0.62445798000E+03  0.63175314663E+03  0.77000000000E+02 0.  0.
   -5000001    1    1    2    0    0 -0.22337953332E+02  0.52309514747E+02 -0.91326214759E+03  0.91826576747E+03  0.77000000000E+02 0.  0.
<mgrwt>
<rscale>  0 0.19487289E+03</rscale>
<asrwt>0</asrwt>
<pdfrwt beam="1">  1        2 0.22055254E+00 0.19487289E+03</pdfrwt>
<pdfrwt beam="2">  1       -2 0.87848574E-03 0.19487289E+03</pdfrwt>
<totfact> 0.37332567E+04</totfact>
</mgrwt>
</event>
<event>
 4    1  0.6782240E-004  0.2126433E+03  0.7818608E-02  0.1139490E+00
         -2   -1    0    0    0  501 -0.00000000000E+00  0.00000000000E+00  0.12457225364E+03  0.12457225367E+03  0.25500000000E-02 0. -1.
          2   -1    0    0  501    0  0.00000000000E+00 -0.00000000000E+00 -0.90744873742E+02  0.90744873778E+02  0.25500000000E-02 0.  1.
    5000001    1    1    2    0    0  0.19628703147E+02 -0.67194790388E+02 -0.51517777115E+01  0.10419197021E+03  0.77000000000E+02 0.  0.
   -5000001    1    1    2    0    0 -0.19628703147E+02  0.67194790388E+02  0.38979157610E+02  0.11112515723E+03  0.77000000000E+02 0.  0.
<mgrwt>
<rscale>  0 0.21264330E+03</rscale>
<asrwt>0</asrwt>
<pdfrwt beam="1">  1        2 0.12963553E-01 0.21264330E+03</pdfrwt>
<pdfrwt beam="2">  1       -2 0.17796036E-01 0.21264330E+03</pdfrwt>
<totfact> 0.11590577E+04</totfact>
</mgrwt>
</event>
<event>
 4    1  0.6782240E-004  0.4173690E+03  0.7818608E-02  0.1037926E+00
         -2   -1    0    0    0  501 -0.00000000000E+00  0.00000000000E+00  0.10329098345E+03  0.10329098348E+03  0.25500000000E-02 0.  1.
          2   -1    0    0  501    0  0.00000000000E+00 -0.00000000000E+00 -0.42161688923E+03  0.42161688923E+03  0.25500000000E-02 0. -1.
    5000001    1    1    2    0    0 -0.10748703661E+03  0.15361357675E+03 -0.22166277121E+03  0.30035641851E+03  0.77000000000E+02 0.  0.
   -5000001    1    1    2    0    0  0.10748703661E+03 -0.15361357675E+03 -0.96663134570E+02  0.22455145420E+03  0.77000000000E+02 0.  0.
<mgrwt>
<rscale>  0 0.41736901E+03</rscale>
<asrwt>0</asrwt>
<pdfrwt beam="1">  1        2 0.60230983E-01 0.41736901E+03</pdfrwt>
<pdfrwt beam="2">  1       -2 0.14755855E-01 0.41736901E+03</pdfrwt>
<totfact> 0.28972850E+03</totfact>
</mgrwt>
</event>
<event>
 4    1  0.6782240E-004  0.2367337E+03  0.7818608E-02  0.1121988E+00
         -2   -1    0    0    0  501 -0.00000000000E+00  0.00000000000E+00  0.87825208244E+03  0.87825208244E+03  0.25500000000E-02 0. -1.
          2   -1    0    0  501    0  0.00000000000E+00 -0.00000000000E+00 -0.15952951088E+02  0.15952951291E+02  0.25500000000E-02 0.  1.
    5000001    1    1    2    0    0 -0.99787616093E+01 -0.87342045005E+02  0.36013061873E+03  0.37861757890E+03  0.77000000000E+02 0.  0.
   -5000001    1    1    2    0    0  0.99787616093E+01  0.87342045005E+02  0.50216851262E+03  0.51558745483E+03  0.77000000000E+02 0.  0.
<mgrwt>
<rscale>  0 0.23673371E+03</rscale>
<asrwt>0</asrwt>
<pdfrwt beam="1">  1        2 0.22789918E-02 0.23673371E+03</pdfrwt>
<pdfrwt beam="2">  1       -2 0.12546465E+00 0.23673371E+03</pdfrwt>
<totfact> 0.22585867E+03</totfact>
</mgrwt>
</event>
<event>
 4    1  0.6782240E-004  0.2555421E+03  0.7818608E-02  0.1109852E+00
         -2   -1    0    0    0  501 -0.00000000000E+00  0.00000000000E+00  0.15245212824E+03  0.15245212826E+03  0.25500000000E-02 0. -1.
          2   -1    0    0  501    0  0.00000000000E+00 -0.00000000000E+00 -0.10708567209E+03  0.10708567213E+03  0.25500000000E-02 0.  1.
    5000001    1    1    2    0    0 -0.16777118368E+02  0.85144924883E+02 -0.31682336572E+02  0.12026595688E+03  0.77000000000E+02 0.  0.
   -5000001    1    1    2    0    0  0.16777118368E+02 -0.85144924883E+02  0.77048792717E+02  0.13927184350E+03  0.77000000000E+02 0.  0.
<mgrwt>
<rscale>  0 0.25554208E+03</rscale>
<asrwt>0</asrwt>
<pdfrwt beam="1">  1        2 0.15297953E-01 0.25554208E+03</pdfrwt>
<pdfrwt beam="2">  1       -2 0.21778875E-01 0.25554208E+03</pdfrwt>
<totfact> 0.68146881E+03</totfact>
</mgrwt>
</event>
<event>
 4    1  0.6782240E-004  0.1754177E+03  0.7818608E-02  0.1172313E+00
          2   -1    0    0  501    0  0.00000000000E+00  0.00000000000E+00  0.19602158456E+03  0.19602158457E+03  0.25500000000E-02 0.  1.
         -2   -1    0    0    0  501 -0.00000000000E+00 -0.00000000000E+00 -0.39244894011E+02  0.39244894094E+02  0.25500000000E-02 0. -1.
    5000001    1    1    2    0    0  0.30790699310E+02  0.17348208101E+02  0.10881917130E+03  0.13791170919E+03  0.77000000000E+02 0.  0.
   -5000001    1    1    2    0    0 -0.30790699310E+02 -0.17348208101E+02  0.47957519245E+02  0.97354769479E+02  0.77000000000E+02 0.  0.
<mgrwt>
<rscale>  0 0.17541775E+03</rscale>
<asrwt>0</asrwt>
<pdfrwt beam="1">  1        2 0.28003084E-01 0.17541775E+03</pdfrwt>
<pdfrwt beam="2">  1       -2 0.56064134E-02 0.17541775E+03</pdfrwt>
<totfact> 0.29504928E+04</totfact>
</mgrwt>
</event>
<event>
 4    1  0.6782240E-004  0.4987103E+03  0.7818608E-02  0.1014116E+00
         -2   -1    0    0    0  501 -0.00000000000E+00  0.00000000000E+00  0.27002516670E+02  0.27002516791E+02  0.25500000000E-02 0. -1.
          2   -1    0    0  501    0  0.00000000000E+00 -0.00000000000E+00 -0.23026738021E+04  0.23026738021E+04  0.25500000000E-02 0.  1.
    5000001    1    1    2    0    0 -0.19304825356E+02 -0.22700261238E+03 -0.82987274875E+03  0.86401425997E+03  0.77000000000E+02 0.  0.
   -5000001    1    1    2    0    0  0.19304825356E+02  0.22700261238E+03 -0.14457985367E+04  0.14656620589E+04  0.77000000000E+02 0.  0.
<mgrwt>
<rscale>  0 0.49871029E+03</rscale>
<asrwt>0</asrwt>
<pdfrwt beam="1">  1        2 0.32895328E+00 0.49871029E+03</pdfrwt>
<pdfrwt beam="2">  1       -2 0.38575038E-02 0.49871029E+03</pdfrwt>
<totfact> 0.17950052E+03</totfact>
</mgrwt>
</event>
<event>
 4    1  0.6782240E-004  0.2643438E+03  0.7818608E-02  0.1104561E+00
         -2   -1    0    0    0  501 -0.00000000000E+00  0.00000000000E+00  0.20030684714E+02  0.20030684876E+02  0.25500000000E-02 0. -1.
          2   -1    0    0  501    0  0.00000000000E+00 -0.00000000000E+00 -0.87213281254E+03  0.87213281254E+03  0.25500000000E-02 0.  1.
    5000001    1    1    2    0    0  0.58284366209E+02 -0.90236686924E+02 -0.42885549209E+03  0.44876024792E+03  0.77000000000E+02 0.  0.
   -5000001    1    1    2    0    0 -0.58284366209E+02  0.90236686924E+02 -0.42324663573E+03  0.44340324950E+03  0.77000000000E+02 0.  0.
<mgrwt>
<rscale>  0 0.26434385E+03</rscale>
<asrwt>0</asrwt>
<pdfrwt beam="1">  1        2 0.12459038E+00 0.26434385E+03</pdfrwt>
<pdfrwt beam="2">  1       -2 0.28615269E-02 0.26434385E+03</pdfrwt>
<totfact> 0.15782074E+04</totfact>
</mgrwt>
</event>
<event>
 4    1  0.6782240E-004  0.1831886E+03  0.7818608E-02  0.1164752E+00
         -2   -1    0    0    0  501 -0.00000000000E+00  0.00000000000E+00  0.42079711034E+01  0.42079718761E+01  0.25500000000E-02 0. -1.
          2   -1    0    0  501    0  0.00000000000E+00 -0.00000000000E+00 -0.19937187419E+04  0.19937187419E+04  0.25500000000E-02 0.  1.
    5000001    1    1    2    0    0 -0.33415306337E+02  0.36533545049E+02 -0.10278882456E+04  0.10319566503E+04  0.77000000000E+02 0.  0.
   -5000001    1    1    2    0    0  0.33415306337E+02 -0.36533545049E+02 -0.96162252523E+03  0.96597006353E+03  0.77000000000E+02 0.  0.
<mgrwt>
<rscale>  0 0.18318855E+03</rscale>
<asrwt>0</asrwt>
<pdfrwt beam="1">  1        2 0.28481636E+00 0.18318855E+03</pdfrwt>
<pdfrwt beam="2">  1       -2 0.60114006E-03 0.18318855E+03</pdfrwt>
<totfact> 0.38760451E+04</totfact>
</mgrwt>
</event>
<event>
 4    1  0.6782240E-004  0.2790773E+03  0.7818608E-02  0.1096194E+00
         -2   -1    0    0    0  501 -0.00000000000E+00  0.00000000000E+00  0.26884486201E+02  0.26884486322E+02  0.25500000000E-02 0. -1.
          2   -1    0    0  501    0  0.00000000000E+00 -0.00000000000E+00 -0.72424807387E+03  0.72424807387E+03  0.25500000000E-02 0.  1.
    5000001    1    1    2    0    0 -0.11086696392E+03  0.32028732161E+01 -0.25389352366E+03  0.28756332075E+03  0.77000000000E+02 0.  0.
   -5000001    1    1    2    0    0  0.11086696392E+03 -0.32028732161E+01 -0.44347006401E+03  0.46356923944E+03  0.77000000000E+02 0.  0.
<mgrwt>
<rscale>  0 0.27907732E+03</rscale>
<asrwt>0</asrwt>
<pdfrwt beam="1">  1        2 0.10346400E+00 0.27907732E+03</pdfrwt>
<pdfrwt beam="2">  1       -2 0.38406414E-02 0.27907732E+03</pdfrwt>
<totfact> 0.12825495E+04</totfact>
</mgrwt>
</event>
<event>
 4    1  0.6782240E-004  0.2187089E+03  0.7818608E-02  0.1134849E+00
         -2   -1    0    0    0  501 -0.00000000000E+00  0.00000000000E+00  0.14029315534E+02  0.14029315766E+02  0.25500000000E-02 0. -1.
          2   -1    0    0  501    0  0.00000000000E+00 -0.00000000000E+00 -0.85238594130E+03  0.85238594131E+03  0.25500000000E-02 0.  1.
    5000001    1    1    2    0    0 -0.51393756479E+02 -0.58182164606E+02 -0.41242172331E+03  0.42666984935E+03  0.77000000000E+02 0.  0.
   -5000001    1    1    2    0    0  0.51393756479E+02  0.58182164606E+02 -0.42593490246E+03  0.43974540773E+03  0.77000000000E+02 0.  0.
<mgrwt>
<rscale>  0 0.21870886E+03</rscale>
<asrwt>0</asrwt>
<pdfrwt beam="1">  1        2 0.12176939E+00 0.21870886E+03</pdfrwt>
<pdfrwt beam="2">  1       -2 0.20041885E-02 0.21870886E+03</pdfrwt>
<totfact> 0.27186475E+04</totfact>
</mgrwt>
</event>
<event>
 4    1  0.6782240E-004  0.2258159E+03  0.7818608E-02  0.1129620E+00
         -2   -1    0    0    0  501 -0.00000000000E+00  0.00000000000E+00  0.11288110300E+02  0.11288110588E+02  0.25500000000E-02 0. -1.
          2   -1    0    0  501    0  0.00000000000E+00 -0.00000000000E+00 -0.11293484868E+04  0.11293484868E+04  0.25500000000E-02 0.  1.
    5000001    1    1    2    0    0  0.74767408285E+02  0.26105499987E+02 -0.67722646189E+03  0.68617515487E+03  0.77000000000E+02 0.  0.
   -5000001    1    1    2    0    0 -0.74767408285E+02 -0.26105499987E+02 -0.44083391459E+03  0.45446144251E+03  0.77000000000E+02 0.  0.
<mgrwt>
<rscale>  0 0.22581595E+03</rscale>
<asrwt>0</asrwt>
<pdfrwt beam="1">  1        2 0.16133543E+00 0.22581595E+03</pdfrwt>
<pdfrwt beam="2">  1       -2 0.16125879E-02 0.22581595E+03</pdfrwt>
<totfact> 0.25662168E+04</totfact>
</mgrwt>
</event>
<event>
 4    1  0.6782240E-004  0.2351148E+03  0.7818608E-02  0.1123091E+00
          2   -1    0    0  501    0  0.00000000000E+00  0.00000000000E+00  0.12999793819E+03  0.12999793821E+03  0.25500000000E-02 0.  1.
         -2   -1    0    0    0  501 -0.00000000000E+00 -0.00000000000E+00 -0.10630735744E+03  0.10630735747E+03  0.25500000000E-02 0. -1.
    5000001    1    1    2    0    0  0.47877942763E+02 -0.21112564600E+01  0.87016946105E+02  0.12568891644E+03  0.77000000000E+02 0.  0.
   -5000001    1    1    2    0    0 -0.47877942763E+02  0.21112564600E+01 -0.63326365351E+02  0.11061637924E+03  0.77000000000E+02 0.  0.
<mgrwt>
<rscale>  0 0.23511476E+03</rscale>
<asrwt>0</asrwt>
<pdfrwt beam="1">  1        2 0.18571134E-01 0.23511476E+03</pdfrwt>
<pdfrwt beam="2">  1       -2 0.15186765E-01 0.23511476E+03</pdfrwt>
<totfact> 0.99456074E+03</totfact>
</mgrwt>
</event>
<event>
 4    1  0.6782240E-004  0.2708964E+03  0.7818608E-02  0.1100768E+00
         -2   -1    0    0    0  501 -0.00000000000E+00  0.00000000000E+00  0.16426242692E+02  0.16426242890E+02  0.25500000000E-02 0. -1.
          2   -1    0    0  501    0  0.00000000000E+00 -0.00000000000E+00 -0.11168843843E+04  0.11168843843E+04  0.25500000000E-02 0.  1.
    5000001    1    1    2    0    0 -0.62608166052E+02  0.90870732331E+02 -0.61503258068E+03  0.62958029492E+03  0.77000000000E+02 0.  0.
   -5000001    1    1    2    0    0  0.62608166052E+02 -0.90870732331E+02 -0.48542556092E+03  0.50373033227E+03  0.77000000000E+02 0.  0.
<mgrwt>
<rscale>  0 0.27089639E+03</rscale>
<asrwt>0</asrwt>
<pdfrwt beam="1">  1        2 0.15955486E+00 0.27089639E+03</pdfrwt>
<pdfrwt beam="2">  1       -2 0.23466068E-02 0.27089639E+03</pdfrwt>
<totfact> 0.15167366E+04</totfact>
</mgrwt>
</event>
<event>
 4    1  0.6782240E-004  0.2981565E+03  0.7818608E-02  0.1086166E+00
         -2   -1    0    0    0  501 -0.00000000000E+00  0.00000000000E+00  0.66248948848E+02  0.66248948897E+02  0.25500000000E-02 0. -1.
          2   -1    0    0  501    0  0.00000000000E+00 -0.00000000000E+00 -0.33546691417E+03  0.33546691418E+03  0.25500000000E-02 0.  1.
    5000001    1    1    2    0    0 -0.33764912287E+02 -0.11794155986E+03 -0.87068020115E+02  0.16899739930E+03  0.77000000000E+02 0.  0.
   -5000001    1    1    2    0    0  0.33764912287E+02  0.11794155986E+03 -0.18214994521E+03  0.23271846378E+03  0.77000000000E+02 0.  0.
<mgrwt>
<rscale>  0 0.29815654E+03</rscale>
<asrwt>0</asrwt>
<pdfrwt beam="1">  1        2 0.47923844E-01 0.29815654E+03</pdfrwt>
<pdfrwt beam="2">  1       -2 0.94641357E-02 0.29815654E+03</pdfrwt>
<totfact> 0.75796519E+03</totfact>
</mgrwt>
</event>
<event>
 4    1  0.6782240E-004  0.2196379E+03  0.7818608E-02  0.1134153E+00
         -2   -1    0    0    0  501 -0.00000000000E+00  0.00000000000E+00  0.65170424608E+01  0.65170429597E+01  0.25500000000E-02 0. -1.
          2   -1    0    0  501    0  0.00000000000E+00 -0.00000000000E+00 -0.18505630241E+04  0.18505630241E+04  0.25500000000E-02 0.  1.
    5000001    1    1    2    0    0 -0.73812334835E+02  0.11319893528E+02 -0.72286824543E+03  0.73078307384E+03  0.77000000000E+02 0.  0.
   -5000001    1    1    2    0    0  0.73812334835E+02 -0.11319893528E+02 -0.11211777362E+04  0.11262969932E+04  0.77000000000E+02 0.  0.
<mgrwt>
<rscale>  0 0.21963787E+03</rscale>
<asrwt>0</asrwt>
<pdfrwt beam="1">  1        2 0.26436581E+00 0.21963787E+03</pdfrwt>
<pdfrwt beam="2">  1       -2 0.93100728E-03 0.21963787E+03</pdfrwt>
<totfact> 0.24471769E+04</totfact>
</mgrwt>
</event>
<event>
 4    1  0.6782240E-004  0.2417338E+03  0.7818608E-02  0.1118643E+00
          2   -1    0    0  501    0  0.00000000000E+00  0.00000000000E+00  0.79244617313E+03  0.79244617314E+03  0.25500000000E-02 0.  1.
         -2   -1    0    0    0  501 -0.00000000000E+00 -0.00000000000E+00 -0.18435076419E+02  0.18435076596E+02  0.25500000000E-02 0. -1.
    5000001    1    1    2    0    0  0.72971270858E+02  0.44015434830E+02  0.51330545525E+03  0.52599777116E+03  0.77000000000E+02 0.  0.
   -5000001    1    1    2    0    0 -0.72971270858E+02 -0.44015434830E+02  0.26070564147E+03  0.28488347858E+03  0.77000000000E+02 0.  0.
<mgrwt>
<rscale>  0 0.24173379E+03</rscale>
<asrwt>0</asrwt>
<pdfrwt beam="1">  1        2 0.11320658E+00 0.24173379E+03</pdfrwt>
<pdfrwt beam="2">  1       -2 0.26335828E-02 0.24173379E+03</pdfrwt>
<totfact> 0.20035988E+04</totfact>
</mgrwt>
</event>
<event>
 4    1  0.6782240E-004  0.2417005E+03  0.7818608E-02  0.1118665E+00
         -2   -1    0    0    0  501 -0.00000000000E+00  0.00000000000E+00  0.11115560181E+02  0.11115560474E+02  0.25500000000E-02 0. -1.
          2   -1    0    0  501    0  0.00000000000E+00 -0.00000000000E+00 -0.13139039413E+04  0.13139039413E+04  0.25500000000E-02 0.  1.
    5000001    1    1    2    0    0 -0.99834125056E+00  0.92340996011E+02 -0.71806897329E+03  0.72806586695E+03  0.77000000000E+02 0.  0.
   -5000001    1    1    2    0    0  0.99834125056E+00 -0.92340996011E+02 -0.58471940781E+03  0.59695363480E+03  0.77000000000E+02 0.  0.
<mgrwt>
<rscale>  0 0.24170046E+03</rscale>
<asrwt>0</asrwt>
<pdfrwt beam="1">  1        2 0.18770046E+00 0.24170046E+03</pdfrwt>
<pdfrwt beam="2">  1       -2 0.15879380E-02 0.24170046E+03</pdfrwt>
<totfact> 0.20967764E+04</totfact>
</mgrwt>
</event>
<event>
 4    1  0.6782240E-004  0.3470435E+03  0.7818608E-02  0.1063835E+00
         -2   -1    0    0    0  501 -0.00000000000E+00  0.00000000000E+00  0.41405288826E+02  0.41405288904E+02  0.25500000000E-02 0. -1.
          2   -1    0    0  501    0  0.00000000000E+00 -0.00000000000E+00 -0.72719694095E+03  0.72719694095E+03  0.25500000000E-02 0.  1.
    5000001    1    1    2    0    0  0.99775555218E+02  0.93535405827E+02 -0.50679614548E+03  0.53054252104E+03  0.77000000000E+02 0.  0.
   -5000001    1    1    2    0    0 -0.99775555218E+02 -0.93535405827E+02 -0.17899550664E+03  0.23805970882E+03  0.77000000000E+02 0.  0.
<mgrwt>
<rscale>  0 0.34704351E+03</rscale>
<asrwt>0</asrwt>
<pdfrwt beam="1">  1        2 0.10388527E+00 0.34704351E+03</pdfrwt>
<pdfrwt beam="2">  1       -2 0.59150417E-02 0.34704351E+03</pdfrwt>
<totfact> 0.66622325E+03</totfact>
</mgrwt>
</event>
<event>
 4    1  0.6782240E-004  0.3115156E+03  0.7818608E-02  0.1079622E+00
          2   -1    0    0  501    0  0.00000000000E+00  0.00000000000E+00  0.30446466735E+04  0.30446466735E+04  0.25500000000E-02 0.  1.
         -2   -1    0    0    0  501 -0.00000000000E+00 -0.00000000000E+00 -0.79682466441E+01  0.79682470521E+01  0.25500000000E-02 0. -1.
    5000001    1    1    2    0    0 -0.52799205180E+02 -0.12326078908E+03  0.13348766775E+04  0.13438027096E+04  0.77000000000E+02 0.  0.
   -5000001    1    1    2    0    0  0.52799205180E+02  0.12326078908E+03  0.17018017493E+04  0.17088122109E+04  0.77000000000E+02 0.  0.
<mgrwt>
<rscale>  0 0.31151563E+03</rscale>
<asrwt>0</asrwt>
<pdfrwt beam="1">  1        2 0.43494884E+00 0.31151563E+03</pdfrwt>
<pdfrwt beam="2">  1       -2 0.11383228E-02 0.31151563E+03</pdfrwt>
<totfact> 0.46326081E+03</totfact>
</mgrwt>
</event>
<event>
 4    1  0.6782240E-004  0.3553178E+03  0.7818608E-02  0.1060453E+00
         -2   -1    0    0    0  501 -0.00000000000E+00  0.00000000000E+00  0.17323779521E+02  0.17323779708E+02  0.25500000000E-02 0. -1.
          2   -1    0    0  501    0  0.00000000000E+00 -0.00000000000E+00 -0.18219287181E+04  0.18219287181E+04  0.25500000000E-02 0.  1.
    5000001    1    1    2    0    0 -0.42982127796E+02  0.12287055350E+03 -0.13848172541E+04  0.13930514935E+04  0.77000000000E+02 0.  0.
   -5000001    1    1    2    0    0  0.42982127796E+02 -0.12287055350E+03 -0.41978768447E+03  0.44620100433E+03  0.77000000000E+02 0.  0.
<mgrwt>
<rscale>  0 0.35531784E+03</rscale>
<asrwt>0</asrwt>
<pdfrwt beam="1">  1        2 0.26027541E+00 0.35531784E+03</pdfrwt>
<pdfrwt beam="2">  1       -2 0.24748268E-02 0.35531784E+03</pdfrwt>
<totfact> 0.61015095E+03</totfact>
</mgrwt>
</event>
<event>
 4    1  0.6782240E-004  0.2295519E+03  0.7818608E-02  0.1126956E+00
         -2   -1    0    0    0  501 -0.00000000000E+00  0.00000000000E+00  0.69457635777E+02  0.69457635824E+02  0.25500000000E-02 0. -1.
          2   -1    0    0  501    0  0.00000000000E+00 -0.00000000000E+00 -0.18966263010E+03  0.18966263011E+03  0.25500000000E-02 0.  1.
    5000001    1    1    2    0    0  0.58287347191E+02  0.50319535468E+02 -0.10103715884E+03  0.14854958081E+03  0.77000000000E+02 0.  0.
   -5000001    1    1    2    0    0 -0.58287347191E+02 -0.50319535468E+02 -0.19167835475E+02  0.11057068513E+03  0.77000000000E+02 0.  0.
<mgrwt>
<rscale>  0 0.22955189E+03</rscale>
<asrwt>0</asrwt>
<pdfrwt beam="1">  1        2 0.27094661E-01 0.22955189E+03</pdfrwt>
<pdfrwt beam="2">  1       -2 0.99225195E-02 0.22955189E+03</pdfrwt>
<totfact> 0.12901088E+04</totfact>
</mgrwt>
</event>
<event>
 4    1  0.6782240E-004  0.6331094E+03  0.7818608E-02  0.9839000E-01
          2   -1    0    0  501    0  0.00000000000E+00  0.00000000000E+00  0.76936865384E+03  0.76936865384E+03  0.25500000000E-02 0.  1.
         -2   -1    0    0    0  501 -0.00000000000E+00 -0.00000000000E+00 -0.13024561294E+03  0.13024561296E+03  0.25500000000E-02 0. -1.
    5000001    1    1    2    0    0 -0.25375096885E+03 -0.15639326289E+03  0.21485906591E+03  0.37542219577E+03  0.77000000000E+02 0.  0.
   -5000001    1    1    2    0    0  0.25375096885E+03  0.15639326289E+03  0.42426397499E+03  0.52419207104E+03  0.77000000000E+02 0.  0.
<mgrwt>
<rscale>  0 0.63310944E+03</rscale>
<asrwt>0</asrwt>
<pdfrwt beam="1">  1        2 0.10990980E+00 0.63310944E+03</pdfrwt>
<pdfrwt beam="2">  1       -2 0.18606517E-01 0.63310944E+03</pdfrwt>
<totfact> 0.97027778E+02</totfact>
</mgrwt>
</event>
<event>
 4    1  0.6782240E-004  0.3832197E+03  0.7818608E-02  0.1049750E+00
         -2   -1    0    0    0  501 -0.00000000000E+00  0.00000000000E+00  0.50845501050E+02  0.50845501114E+02  0.25500000000E-02 0. -1.
          2   -1    0    0  501    0  0.00000000000E+00 -0.00000000000E+00 -0.72207624719E+03  0.72207624719E+03  0.25500000000E-02 0.  1.
    5000001    1    1    2    0    0  0.97859267051E+02  0.14434796550E+03 -0.37454536250E+03  0.42026896134E+03  0.77000000000E+02 0.  0.
   -5000001    1    1    2    0    0 -0.97859267051E+02 -0.14434796550E+03 -0.29668538363E+03  0.35265278697E+03  0.77000000000E+02 0.  0.
<mgrwt>
<rscale>  0 0.38321967E+03</rscale>
<asrwt>0</asrwt>
<pdfrwt beam="1">  1        2 0.10315374E+00 0.38321967E+03</pdfrwt>
<pdfrwt beam="2">  1       -2 0.72636435E-02 0.38321967E+03</pdfrwt>
<totfact> 0.48936981E+03</totfact>
</mgrwt>
</event>
<event>
 4    1  0.6782240E-004  0.4303767E+03  0.7818608E-02  0.1033741E+00
         -2   -1    0    0    0  501 -0.00000000000E+00  0.00000000000E+00  0.16250092627E+03  0.16250092629E+03  0.25500000000E-02 0. -1.
          2   -1    0    0  501    0  0.00000000000E+00 -0.00000000000E+00 -0.28495856110E+03  0.28495856111E+03  0.25500000000E-02 0.  1.
    5000001    1    1    2    0    0  0.17353845683E+03  0.85198293275E+02 -0.11820060343E+03  0.23932139024E+03  0.77000000000E+02 0.  0.
   -5000001    1    1    2    0    0 -0.17353845683E+03 -0.85198293275E+02 -0.42570314028E+01  0.20813809716E+03  0.77000000000E+02 0.  0.
<mgrwt>
<rscale>  0 0.43037672E+03</rscale>
<asrwt>0</asrwt>
<pdfrwt beam="1">  1        2 0.40708366E-01 0.43037672E+03</pdfrwt>
<pdfrwt beam="2">  1       -2 0.23214418E-01 0.43037672E+03</pdfrwt>
<totfact> 0.20483698E+03</totfact>
</mgrwt>
</event>
<event>
 4    1  0.6782240E-004  0.2380116E+03  0.7818608E-02  0.1121125E+00
         -2   -1    0    0    0  501 -0.00000000000E+00  0.00000000000E+00  0.69102875033E+01  0.69102879738E+01  0.25500000000E-02 0. -1.
          2   -1    0    0  501    0  0.00000000000E+00 -0.00000000000E+00 -0.20494625052E+04  0.20494625052E+04  0.25500000000E-02 0.  1.
    5000001    1    1    2    0    0 -0.10213168310E+02 -0.89974915289E+02 -0.97120889489E+03  0.97845567692E+03  0.77000000000E+02 0.  0.
   -5000001    1    1    2    0    0  0.10213168310E+02  0.89974915289E+02 -0.10713433228E+04  0.10779171162E+04  0.77000000000E+02 0.  0.
<mgrwt>
<rscale>  0 0.23801156E+03</rscale>
<asrwt>0</asrwt>
<pdfrwt beam="1">  1        2 0.29277997E+00 0.23801156E+03</pdfrwt>
<pdfrwt beam="2">  1       -2 0.98718528E-03 0.23801156E+03</pdfrwt>
<totfact> 0.18065158E+04</totfact>
</mgrwt>
</event>
<event>
 4    1  0.6782240E-004  0.2615330E+03  0.7818608E-02  0.1106226E+00
          2   -1    0    0  501    0  0.00000000000E+00  0.00000000000E+00  0.18005131879E+03  0.18005131881E+03  0.25500000000E-02 0.  1.
         -2   -1    0    0    0  501 -0.00000000000E+00 -0.00000000000E+00 -0.94972252078E+02  0.94972252112E+02  0.25500000000E-02 0. -1.
    5000001    1    1    2    0    0 -0.80053880578E+02  0.61704122179E+02  0.10044834896E+02  0.12745948846E+03  0.77000000000E+02 0.  0.
   -5000001    1    1    2    0    0  0.80053880578E+02 -0.61704122179E+02  0.75034231819E+02  0.14756408247E+03  0.77000000000E+02 0.  0.
<mgrwt>
<rscale>  0 0.26153301E+03</rscale>
<asrwt>0</asrwt>
<pdfrwt beam="1">  1        2 0.25721617E-01 0.26153301E+03</pdfrwt>
<pdfrwt beam="2">  1       -2 0.13567465E-01 0.26153301E+03</pdfrwt>
<totfact> 0.83213140E+03</totfact>
</mgrwt>
</event>
<event>
 4    1  0.6782240E-004  0.2662013E+04  0.7818608E-02  0.8347437E-01
         -2   -1    0    0    0  501 -0.00000000000E+00  0.00000000000E+00  0.10118959814E+04  0.10118959814E+04  0.25500000000E-02 0. -1.
          2   -1    0    0  501    0  0.00000000000E+00 -0.00000000000E+00 -0.17507515583E+04  0.17507515583E+04  0.25500000000E-02 0.  1.
    5000001    1    1    2    0    0 -0.67384311682E+03 -0.10461652025E+04  0.11415239279E+03  0.12519927898E+04  0.77000000000E+02 0.  0.
   -5000001    1    1    2    0    0  0.67384311682E+03  0.10461652025E+04 -0.85300796975E+03  0.15106547499E+04  0.77000000000E+02 0.  0.
<mgrwt>
<rscale>  0 0.26620131E+04</rscale>
<asrwt>0</asrwt>
<pdfrwt beam="1">  1        2 0.25010736E+00 0.26620131E+04</pdfrwt>
<pdfrwt beam="2">  1       -2 0.14455657E+00 0.26620131E+04</pdfrwt>
<totfact> 0.31594027E+00</totfact>
</mgrwt>
</event>
<event>
 4    1  0.6782240E-004  0.1640666E+03  0.7818608E-02  0.1184181E+00
          2   -1    0    0  501    0  0.00000000000E+00  0.00000000000E+00  0.75274013967E+03  0.75274013967E+03  0.25500000000E-02 0.  1.
         -2   -1    0    0    0  501 -0.00000000000E+00 -0.00000000000E+00 -0.89399566789E+01  0.89399570426E+01  0.25500000000E-02 0. -1.
    5000001    1    1    2    0    0  0.25520343264E+02 -0.51590758219E+01  0.32050431411E+03  0.33065075131E+03  0.77000000000E+02 0.  0.
   -5000001    1    1    2    0    0 -0.25520343264E+02  0.51590758219E+01  0.42329586888E+03  0.43102934540E+03  0.77000000000E+02 0.  0.
<mgrwt>
<rscale>  0 0.16406663E+03</rscale>
<asrwt>0</asrwt>
<pdfrwt beam="1">  1        2 0.10753430E+00 0.16406663E+03</pdfrwt>
<pdfrwt beam="2">  1       -2 0.12771367E-02 0.16406663E+03</pdfrwt>
<totfact> 0.59521747E+04</totfact>
</mgrwt>
</event>
<event>
 4    1  0.6782240E-004  0.2837200E+03  0.7818608E-02  0.1093674E+00
         -2   -1    0    0    0  501 -0.00000000000E+00  0.00000000000E+00  0.62292612502E+01  0.62292617722E+01  0.25500000000E-02 0. -1.
          2   -1    0    0  501    0  0.00000000000E+00 -0.00000000000E+00 -0.32306014318E+04  0.32306014318E+04  0.25500000000E-02 0.  1.
    5000001    1    1    2    0    0 -0.11764938866E+03  0.17472996237E+02 -0.16917003337E+04  0.16976235458E+04  0.77000000000E+02 0.  0.
   -5000001    1    1    2    0    0  0.11764938866E+03 -0.17472996237E+02 -0.15326718368E+04  0.15392071478E+04  0.77000000000E+02 0.  0.
<mgrwt>
<rscale>  0 0.28372001E+03</rscale>
<asrwt>0</asrwt>
<pdfrwt beam="1">  1        2 0.46151342E+00 0.28372001E+03</pdfrwt>
<pdfrwt beam="2">  1       -2 0.88989657E-03 0.28372001E+03</pdfrwt>
<totfact> 0.52615369E+03</totfact>
</mgrwt>
</event>
<event>
 4    1  0.6782240E-004  0.2276704E+03  0.7818608E-02  0.1128290E+00
         -2   -1    0    0    0  501 -0.00000000000E+00  0.00000000000E+00  0.19898010419E+03  0.19898010420E+03  0.25500000000E-02 0. -1.
          2   -1    0    0  501    0  0.00000000000E+00 -0.00000000000E+00 -0.65124361422E+02  0.65124361472E+02  0.25500000000E-02 0.  1.
    5000001    1    1    2    0    0  0.73791068265E+02  0.18875424695E+01  0.11304934807E+03  0.15542792436E+03  0.77000000000E+02 0.  0.
   -5000001    1    1    2    0    0 -0.73791068265E+02 -0.18875424695E+01  0.20806394699E+02  0.10867654132E+03  0.77000000000E+02 0.  0.
<mgrwt>
<rscale>  0 0.22767040E+03</rscale>
<asrwt>0</asrwt>
<pdfrwt beam="1">  1        2 0.93034800E-02 0.22767040E+03</pdfrwt>
<pdfrwt beam="2">  1       -2 0.28425730E-01 0.22767040E+03</pdfrwt>
<totfact> 0.77586105E+03</totfact>
</mgrwt>
</event>
<event>
 4    1  0.6782240E-004  0.2471283E+03  0.7818608E-02  0.1115133E+00
          2   -1    0    0  501    0  0.00000000000E+00  0.00000000000E+00  0.11086465712E+03  0.11086465715E+03  0.25500000000E-02 0. -1.
         -2   -1    0    0    0  501 -0.00000000000E+00 -0.00000000000E+00 -0.13771838525E+03  0.13771838527E+03  0.25500000000E-02 0.  1.
    5000001    1    1    2    0    0  0.54649669123E+02  0.64419980644E+02 -0.60634794268E+02  0.12939126136E+03  0.77000000000E+02 0.  0.
   -5000001    1    1    2    0    0 -0.54649669123E+02 -0.64419980644E+02  0.33781066140E+02  0.11919178105E+03  0.77000000000E+02 0.  0.
<mgrwt>
<rscale>  0 0.24712832E+03</rscale>
<asrwt>0</asrwt>
<pdfrwt beam="1">  1        2 0.15837808E-01 0.24712832E+03</pdfrwt>
<pdfrwt beam="2">  1       -2 0.19674055E-01 0.24712832E+03</pdfrwt>
<totfact> 0.77763108E+03</totfact>
</mgrwt>
</event>
<event>
 4    1  0.6782240E-004  0.2480612E+03  0.7818608E-02  0.1114536E+00
          2   -1    0    0  501    0  0.00000000000E+00  0.00000000000E+00  0.25544011342E+03  0.25544011344E+03  0.25500000000E-02 0.  1.
         -2   -1    0    0    0  501 -0.00000000000E+00 -0.00000000000E+00 -0.60223839598E+02  0.60223839652E+02  0.25500000000E-02 0. -1.
    5000001    1    1    2    0    0  0.36586985520E+02 -0.74069947616E+02  0.32353300627E+02  0.11747638363E+03  0.77000000000E+02 0.  0.
   -5000001    1    1    2    0    0 -0.36586985520E+02  0.74069947616E+02  0.16286297320E+03  0.19818756946E+03  0.77000000000E+02 0.  0.
<mgrwt>
<rscale>  0 0.24806116E+03</rscale>
<asrwt>0</asrwt>
<pdfrwt beam="1">  1        2 0.36491445E-01 0.24806116E+03</pdfrwt>
<pdfrwt beam="2">  1       -2 0.86034056E-02 0.24806116E+03</pdfrwt>
<totfact> 0.11721843E+04</totfact>
</mgrwt>
</event>
<event>
 4    1  0.6782240E-004  0.5308270E+03  0.7818608E-02  0.1006032E+00
         -2   -1    0    0    0  501 -0.00000000000E+00  0.00000000000E+00  0.51051657372E+02  0.51051657436E+02  0.25500000000E-02 0.  1.
          2   -1    0    0  501    0  0.00000000000E+00 -0.00000000000E+00 -0.13798635701E+04  0.13798635701E+04  0.25500000000E-02 0. -1.
    5000001    1    1    2    0    0  0.20408252324E+03 -0.87234393087E+02 -0.99735555809E+03  0.10246495132E+04  0.77000000000E+02 0.  0.
   -5000001    1    1    2    0    0 -0.20408252324E+03  0.87234393087E+02 -0.33145635467E+03  0.40626571438E+03  0.77000000000E+02 0.  0.
<mgrwt>
<rscale>  0 0.53082699E+03</rscale>
<asrwt>0</asrwt>
<pdfrwt beam="1">  1        2 0.19712334E+00 0.53082699E+03</pdfrwt>
<pdfrwt beam="2">  1       -2 0.72930948E-02 0.53082699E+03</pdfrwt>
<totfact> 0.19571756E+03</totfact>
</mgrwt>
</event>
<event>
 4    1  0.6782240E-004  0.2125439E+03  0.7818608E-02  0.1139567E+00
         -2   -1    0    0    0  501 -0.00000000000E+00  0.00000000000E+00  0.11192846601E+02  0.11192846891E+02  0.25500000000E-02 0. -1.
          2   -1    0    0  501    0  0.00000000000E+00 -0.00000000000E+00 -0.10090133154E+04  0.10090133154E+04  0.25500000000E-02 0.  1.
    5000001    1    1    2    0    0  0.61609955748E+02  0.67430588787E+01 -0.31155880282E+03  0.32686257526E+03  0.77000000000E+02 0.  0.
   -5000001    1    1    2    0    0 -0.61609955748E+02 -0.67430588787E+01 -0.68626166601E+03  0.69334358707E+03  0.77000000000E+02 0.  0.
<mgrwt>
<rscale>  0 0.21254394E+03</rscale>
<asrwt>0</asrwt>
<pdfrwt beam="1">  1        2 0.14414470E+00 0.21254394E+03</pdfrwt>
<pdfrwt beam="2">  1       -2 0.15989788E-02 0.21254394E+03</pdfrwt>
<totfact> 0.30288079E+04</totfact>
</mgrwt>
</event>
<event>
 4    1  0.6782240E-004  0.1878265E+03  0.7818608E-02  0.1160436E+00
         -2   -1    0    0    0  501 -0.00000000000E+00  0.00000000000E+00  0.23378785257E+01  0.23378799164E+01  0.25500000000E-02 0. -1.
          2   -1    0    0  501    0  0.00000000000E+00 -0.00000000000E+00 -0.37725203582E+04  0.37725203582E+04  0.25500000000E-02 0.  1.
    5000001    1    1    2    0    0 -0.46992265851E+02  0.24467940857E+02 -0.20690074885E+04  0.20711175584E+04  0.77000000000E+02 0.  0.
   -5000001    1    1    2    0    0  0.46992265851E+02 -0.24467940857E+02 -0.17011749912E+04  0.17037406797E+04  0.77000000000E+02 0.  0.
<mgrwt>
<rscale>  0 0.18782648E+03</rscale>
<asrwt>0</asrwt>
<pdfrwt beam="1">  1        2 0.53892758E+00 0.18782648E+03</pdfrwt>
<pdfrwt beam="2">  1       -2 0.33398516E-03 0.18782648E+03</pdfrwt>
<totfact> 0.10481555E+04</totfact>
</mgrwt>
</event>
<event>
 4    1  0.6782240E-004  0.1909269E+03  0.7818608E-02  0.1157628E+00
         -2   -1    0    0    0  501 -0.00000000000E+00  0.00000000000E+00  0.18922280780E+02  0.18922280952E+02  0.25500000000E-02 0. -1.
          2   -1    0    0  501    0  0.00000000000E+00 -0.00000000000E+00 -0.48161581859E+03  0.48161581859E+03  0.25500000000E-02 0.  1.
    5000001    1    1    2    0    0  0.54617722147E+02  0.97947597862E+01 -0.20445285224E+03  0.22540852175E+03  0.77000000000E+02 0.  0.
   -5000001    1    1    2    0    0 -0.54617722147E+02 -0.97947597862E+01 -0.25824068557E+03  0.27512957779E+03  0.77000000000E+02 0.  0.
<mgrwt>
<rscale>  0 0.19092689E+03</rscale>
<asrwt>0</asrwt>
<pdfrwt beam="1">  1        2 0.68802252E-01 0.19092689E+03</pdfrwt>
<pdfrwt beam="2">  1       -2 0.27031833E-02 0.19092689E+03</pdfrwt>
<totfact> 0.33593247E+04</totfact>
</mgrwt>
</event>
<event>
 4    1  0.6782240E-004  0.2576059E+03  0.7818608E-02  0.1108590E+00
         -2   -1    0    0    0  501 -0.00000000000E+00  0.00000000000E+00  0.53462544929E+02  0.53462544990E+02  0.25500000000E-02 0. -1.
          2   -1    0    0  501    0  0.00000000000E+00 -0.00000000000E+00 -0.31031446495E+03  0.31031446496E+03  0.25500000000E-02 0.  1.
    5000001    1    1    2    0    0  0.11714234119E+02 -0.59819914988E+02 -0.24611416062E+03  0.26498457609E+03  0.77000000000E+02 0.  0.
   -5000001    1    1    2    0    0 -0.11714234119E+02  0.59819914988E+02 -0.10737759401E+02  0.98792433856E+02  0.77000000000E+02 0.  0.
<mgrwt>
<rscale>  0 0.25760591E+03</rscale>
<asrwt>0</asrwt>
<pdfrwt beam="1">  1        2 0.44330637E-01 0.25760591E+03</pdfrwt>
<pdfrwt beam="2">  1       -2 0.76375066E-02 0.25760591E+03</pdfrwt>
<totfact> 0.11470793E+04</totfact>
</mgrwt>
</event>
<event>
 4    1  0.6782240E-004  0.1837130E+03  0.7818608E-02  0.1164257E+00
         -2   -1    0    0    0  501 -0.00000000000E+00  0.00000000000E+00  0.36465044898E+03  0.36465044899E+03  0.25500000000E-02 0. -1.
          2   -1    0    0  501    0  0.00000000000E+00 -0.00000000000E+00 -0.23138904876E+02  0.23138905017E+02  0.25500000000E-02 0.  1.
    5000001    1    1    2    0    0 -0.31172733383E+02 -0.30686118806E+02  0.22225495014E+03  0.23924807221E+03  0.77000000000E+02 0.  0.
   -5000001    1    1    2    0    0  0.31172733383E+02  0.30686118806E+02  0.11925659396E+03  0.14854128180E+03  0.77000000000E+02 0.  0.
<mgrwt>
<rscale>  0 0.18371295E+03</rscale>
<asrwt>0</asrwt>
<pdfrwt beam="1">  1        2 0.33055581E-02 0.18371295E+03</pdfrwt>
<pdfrwt beam="2">  1       -2 0.52092917E-01 0.18371295E+03</pdfrwt>
<totfact> 0.93575157E+03</totfact>
</mgrwt>
</event>
<event>
 4    1  0.6782240E-004  0.2512752E+03  0.7818608E-02  0.1112502E+00
          2   -1    0    0  501    0  0.00000000000E+00  0.00000000000E+00  0.21104615085E+03  0.21104615087E+03  0.25500000000E-02 0.  1.
         -2   -1    0    0    0  501 -0.00000000000E+00 -0.00000000000E+00 -0.74793173408E+02  0.74793173451E+02  0.25500000000E-02 0. -1.
    5000001    1    1    2    0    0  0.10299699226E+02  0.96575940428E+02  0.44735551358E+02  0.13176974474E+03  0.77000000000E+02 0.  0.
   -5000001    1    1    2    0    0 -0.10299699226E+02 -0.96575940428E+02  0.91517426086E+02  0.15406957958E+03  0.77000000000E+02 0.  0.
<mgrwt>
<rscale>  0 0.25127524E+03</rscale>
<asrwt>0</asrwt>
<pdfrwt beam="1">  1        2 0.30149450E-01 0.25127524E+03</pdfrwt>
<pdfrwt beam="2">  1       -2 0.10684739E-01 0.25127524E+03</pdfrwt>
<totfact> 0.10248180E+04</totfact>
</mgrwt>
</event>
<event>
 4    1  0.6782240E-004  0.4465680E+03  0.7818608E-02  0.1028750E+00
          2   -1    0    0  501    0  0.00000000000E+00  0.00000000000E+00  0.64003973509E+03  0.64003973509E+03  0.25500000000E-02 0.  1.
         -2   -1    0    0    0  501 -0.00000000000E+00 -0.00000000000E+00 -0.77894773741E+02  0.77894773782E+02  0.25500000000E-02 0. -1.
    5000001    1    1    2    0    0  0.18134588426E+03  0.13232277790E+02  0.11349385882E+03  0.22775267046E+03  0.77000000000E+02 0.  0.
   -5000001    1    1    2    0    0 -0.18134588426E+03 -0.13232277790E+02  0.44865110252E+03  0.49018183841E+03  0.77000000000E+02 0.  0.
<mgrwt>
<rscale>  0 0.44656803E+03</rscale>
<asrwt>0</asrwt>
<pdfrwt beam="1">  1        2 0.91434249E-01 0.44656803E+03</pdfrwt>
<pdfrwt beam="2">  1       -2 0.11127825E-01 0.44656803E+03</pdfrwt>
<totfact> 0.28713049E+03</totfact>
</mgrwt>
</event>
<event>
 4    1  0.6782240E-004  0.1939819E+03  0.7818608E-02  0.1154918E+00
         -2   -1    0    0    0  501 -0.00000000000E+00  0.00000000000E+00  0.31225409934E+01  0.31225420346E+01  0.25500000000E-02 0. -1.
          2   -1    0    0  501    0  0.00000000000E+00 -0.00000000000E+00 -0.30126888132E+04  0.30126888132E+04  0.25500000000E-02 0.  1.
    5000001    1    1    2    0    0 -0.57769563718E+02  0.76804752284E+01 -0.13640571794E+04  0.13674711334E+04  0.77000000000E+02 0.  0.
   -5000001    1    1    2    0    0  0.57769563718E+02 -0.76804752284E+01 -0.16455090928E+04  0.16483402218E+04  0.77000000000E+02 0.  0.
<mgrwt>
<rscale>  0 0.19398192E+03</rscale>
<asrwt>0</asrwt>
<pdfrwt beam="1">  1        2 0.43038225E+00 0.19398192E+03</pdfrwt>
<pdfrwt beam="2">  1       -2 0.44607929E-03 0.19398192E+03</pdfrwt>
<totfact> 0.18584494E+04</totfact>
</mgrwt>
</event>
<event>
 4    1  0.6782240E-004  0.1993621E+03  0.7818608E-02  0.1150278E+00
         -2   -1    0    0    0  501 -0.00000000000E+00  0.00000000000E+00  0.62507979460E+01  0.62507984661E+01  0.25500000000E-02 0. -1.
          2   -1    0    0  501    0  0.00000000000E+00 -0.00000000000E+00 -0.15896069340E+04  0.15896069340E+04  0.25500000000E-02 0.  1.
    5000001    1    1    2    0    0 -0.19023707453E+02 -0.52212968251E+01 -0.12731763856E+04  0.12756552325E+04  0.77000000000E+02 0.  0.
   -5000001    1    1    2    0    0  0.19023707453E+02  0.52212968251E+01 -0.31017975042E+03  0.32020249992E+03  0.77000000000E+02 0.  0.
<mgrwt>
<rscale>  0 0.19936210E+03</rscale>
<asrwt>0</asrwt>
<pdfrwt beam="1">  1        2 0.22708645E+00 0.19936210E+03</pdfrwt>
<pdfrwt beam="2">  1       -2 0.89297219E-03 0.19936210E+03</pdfrwt>
<totfact> 0.34664475E+04</totfact>
</mgrwt>
</event>
<event>
 4    1  0.6782240E-004  0.2124688E+03  0.7818608E-02  0.1139626E+00
          2   -1    0    0  501    0  0.00000000000E+00  0.00000000000E+00  0.19770233551E+03  0.19770233552E+03  0.25500000000E-02 0.  1.
         -2   -1    0    0    0  501 -0.00000000000E+00 -0.00000000000E+00 -0.57084538624E+02  0.57084538681E+02  0.25500000000E-02 0. -1.
    5000001    1    1    2    0    0  0.65032136798E+02  0.33529103731E+02  0.72509308688E+02  0.12860785147E+03  0.77000000000E+02 0.  0.
   -5000001    1    1    2    0    0 -0.65032136798E+02 -0.33529103731E+02  0.68108488196E+02  0.12617902273E+03  0.77000000000E+02 0.  0.
<mgrwt>
<rscale>  0 0.21246879E+03</rscale>
<asrwt>0</asrwt>
<pdfrwt beam="1">  1        2 0.28243191E-01 0.21246879E+03</pdfrwt>
<pdfrwt beam="2">  1       -2 0.81549339E-02 0.21246879E+03</pdfrwt>
<totfact> 0.16688212E+04</totfact>
</mgrwt>
</event>
<event>
 4    1  0.6782240E-004  0.2143169E+03  0.7818608E-02  0.1138192E+00
         -2   -1    0    0    0  501 -0.00000000000E+00  0.00000000000E+00  0.22948893950E+02  0.22948894092E+02  0.25500000000E-02 0. -1.
          2   -1    0    0  501    0  0.00000000000E+00 -0.00000000000E+00 -0.50036972186E+03  0.50036972187E+03  0.25500000000E-02 0.  1.
    5000001    1    1    2    0    0 -0.30916186131E+02 -0.56474102438E+02 -0.14706009251E+03  0.17804720054E+03  0.77000000000E+02 0.  0.
   -5000001    1    1    2    0    0  0.30916186131E+02  0.56474102438E+02 -0.33036073541E+03  0.34527141542E+03  0.77000000000E+02 0.  0.
<mgrwt>
<rscale>  0 0.21431688E+03</rscale>
<asrwt>0</asrwt>
<pdfrwt beam="1">  1        2 0.71481382E-01 0.21431688E+03</pdfrwt>
<pdfrwt beam="2">  1       -2 0.32784137E-02 0.21431688E+03</pdfrwt>
<totfact> 0.24431288E+04</totfact>
</mgrwt>
</event>
<event>
 4    1  0.6782240E-004  0.2492935E+03  0.7818608E-02  0.1113752E+00
          2   -1    0    0  501    0  0.00000000000E+00  0.00000000000E+00  0.25254397760E+04  0.25254397760E+04  0.25500000000E-02 0.  1.
         -2   -1    0    0    0  501 -0.00000000000E+00 -0.00000000000E+00 -0.61521220099E+01  0.61521225383E+01  0.25500000000E-02 0. -1.
    5000001    1    1    2    0    0  0.73773343847E+02  0.16114897437E+02  0.18942840625E+04  0.18973516558E+04  0.77000000000E+02 0.  0.
   -5000001    1    1    2    0    0 -0.73773343847E+02 -0.16114897437E+02  0.62500359142E+03  0.63424024271E+03  0.77000000000E+02 0.  0.
<mgrwt>
<rscale>  0 0.24929352E+03</rscale>
<asrwt>0</asrwt>
<pdfrwt beam="1">  1        2 0.36077756E+00 0.24929352E+03</pdfrwt>
<pdfrwt beam="2">  1       -2 0.87887351E-03 0.24929352E+03</pdfrwt>
<totfact> 0.12503545E+04</totfact>
</mgrwt>
</event>
<event>
 4    1  0.6782240E-004  0.2783164E+03  0.7818608E-02  0.1096612E+00
          2   -1    0    0  501    0  0.00000000000E+00  0.00000000000E+00  0.92480699200E+03  0.92480699200E+03  0.25500000000E-02 0.  1.
         -2   -1    0    0    0  501 -0.00000000000E+00 -0.00000000000E+00 -0.20939516727E+02  0.20939516882E+02  0.25500000000E-02 0. -1.
    5000001    1    1    2    0    0  0.84940779571E+02  0.19963439833E+02  0.19264002618E+03  0.22506144639E+03  0.77000000000E+02 0.  0.
   -5000001    1    1    2    0    0 -0.84940779571E+02 -0.19963439833E+02  0.71122744909E+03  0.72068506249E+03  0.77000000000E+02 0.  0.
<mgrwt>
<rscale>  0 0.27831645E+03</rscale>
<asrwt>0</asrwt>
<pdfrwt beam="1">  1        2 0.13211529E+00 0.27831645E+03</pdfrwt>
<pdfrwt beam="2">  1       -2 0.29913594E-02 0.27831645E+03</pdfrwt>
<totfact> 0.13723710E+04</totfact>
</mgrwt>
</event>
<event>
 4    1  0.6782240E-004  0.2810115E+03  0.7818608E-02  0.1095138E+00
         -2   -1    0    0    0  501 -0.00000000000E+00  0.00000000000E+00  0.58178286828E+03  0.58178286828E+03  0.25500000000E-02 0. -1.
          2   -1    0    0  501    0  0.00000000000E+00 -0.00000000000E+00 -0.33933379831E+02  0.33933379927E+02  0.25500000000E-02 0.  1.
    5000001    1    1    2    0    0  0.40957108588E+02 -0.50034553479E+02  0.58887850135E+02  0.11652347480E+03  0.77000000000E+02 0.  0.
   -5000001    1    1    2    0    0 -0.40957108588E+02  0.50034553479E+02  0.48896163831E+03  0.49919277341E+03  0.77000000000E+02 0.  0.
<mgrwt>
<rscale>  0 0.28101145E+03</rscale>
<asrwt>0</asrwt>
<pdfrwt beam="1">  1        2 0.48476263E-02 0.28101145E+03</pdfrwt>
<pdfrwt beam="2">  1       -2 0.83111829E-01 0.28101145E+03</pdfrwt>
<totfact> 0.21419589E+03</totfact>
</mgrwt>
</event>
<event>
 4    1  0.6782240E-004  0.2313918E+03  0.7818608E-02  0.1125664E+00
          2   -1    0    0  501    0  0.00000000000E+00  0.00000000000E+00  0.34112165413E+04  0.34112165413E+04  0.25500000000E-02 0.  1.
         -2   -1    0    0    0  501 -0.00000000000E+00 -0.00000000000E+00 -0.39239799993E+01  0.39239808278E+01  0.25500000000E-02 0. -1.
    5000001    1    1    2    0    0 -0.49464565353E+02 -0.41178305031E+02  0.85398337216E+03  0.85985986996E+03  0.77000000000E+02 0.  0.
   -5000001    1    1    2    0    0  0.49464565353E+02  0.41178305031E+02  0.25533091891E+04  0.25552806522E+04  0.77000000000E+02 0.  0.
<mgrwt>
<rscale>  0 0.23139185E+03</rscale>
<asrwt>0</asrwt>
<pdfrwt beam="1">  1        2 0.48731456E+00 0.23139185E+03</pdfrwt>
<pdfrwt beam="2">  1       -2 0.56057103E-03 0.23139185E+03</pdfrwt>
<totfact> 0.81449223E+03</totfact>
</mgrwt>
</event>
<event>
 4    1  0.6782240E-004  0.1765441E+03  0.7818608E-02  0.1171190E+00
          2   -1    0    0  501    0  0.00000000000E+00  0.00000000000E+00  0.23246881405E+03  0.23246881406E+03  0.25500000000E-02 0.  1.
         -2   -1    0    0    0  501 -0.00000000000E+00 -0.00000000000E+00 -0.33518288412E+02  0.33518288509E+02  0.25500000000E-02 0. -1.
    5000001    1    1    2    0    0  0.53041930564E+01  0.34020597235E+02  0.13868886425E+03  0.16232417124E+03  0.77000000000E+02 0.  0.
   -5000001    1    1    2    0    0 -0.53041930564E+01 -0.34020597235E+02  0.60261661383E+02  0.10366293133E+03  0.77000000000E+02 0.  0.
<mgrwt>
<rscale>  0 0.17654412E+03</rscale>
<asrwt>0</asrwt>
<pdfrwt beam="1">  1        2 0.33209830E-01 0.17654412E+03</pdfrwt>
<pdfrwt beam="2">  1       -2 0.47883269E-02 0.17654412E+03</pdfrwt>
<totfact> 0.31126232E+04</totfact>
</mgrwt>
</event>
<event>
 4    1  0.6782240E-004  0.1842703E+03  0.7818608E-02  0.1163733E+00
          2   -1    0    0  501    0  0.00000000000E+00  0.00000000000E+00  0.13856829921E+03  0.13856829924E+03  0.25500000000E-02 0.  1.
         -2   -1    0    0    0  501 -0.00000000000E+00 -0.00000000000E+00 -0.61261354108E+02  0.61261354161E+02  0.25500000000E-02 0. -1.
    5000001    1    1    2    0    0 -0.46791555865E+02  0.10565509835E+02  0.56099175637E+02  0.10666394520E+03  0.77000000000E+02 0.  0.
   -5000001    1    1    2    0    0  0.46791555865E+02 -0.10565509835E+02  0.21207769470E+02  0.93165708199E+02  0.77000000000E+02 0.  0.
<mgrwt>
<rscale>  0 0.18427025E+03</rscale>
<asrwt>0</asrwt>
<pdfrwt beam="1">  1        2 0.19795471E-01 0.18427025E+03</pdfrwt>
<pdfrwt beam="2">  1       -2 0.87516222E-02 0.18427025E+03</pdfrwt>
<totfact> 0.21998145E+04</totfact>
</mgrwt>
</event>
<event>
 4    1  0.6782240E-004  0.1945761E+03  0.7818608E-02  0.1154398E+00
          2   -1    0    0  501    0  0.00000000000E+00  0.00000000000E+00  0.50636982593E+03  0.50636982594E+03  0.25500000000E-02 0.  1.
         -2   -1    0    0    0  501 -0.00000000000E+00 -0.00000000000E+00 -0.18691802239E+02  0.18691802413E+02  0.25500000000E-02 0. -1.
    5000001    1    1    2    0    0 -0.50241213903E+02 -0.32219858384E+01  0.32923263316E+03  0.34184453704E+03  0.77000000000E+02 0.  0.
   -5000001    1    1    2    0    0  0.50241213903E+02  0.32219858384E+01  0.15844539053E+03  0.18321709131E+03  0.77000000000E+02 0.  0.
<mgrwt>
<rscale>  0 0.19457610E+03</rscale>
<asrwt>0</asrwt>
<pdfrwt beam="1">  1        2 0.72338546E-01 0.19457610E+03</pdfrwt>
<pdfrwt beam="2">  1       -2 0.26702575E-02 0.19457610E+03</pdfrwt>
<totfact> 0.32430267E+04</totfact>
</mgrwt>
</event>
<event>
 4    1  0.6782240E-004  0.2112273E+03  0.7818608E-02  0.1140598E+00
          2   -1    0    0  501    0  0.00000000000E+00  0.00000000000E+00  0.53771916491E+03  0.53771916492E+03  0.25500000000E-02 0.  1.
         -2   -1    0    0    0  501 -0.00000000000E+00 -0.00000000000E+00 -0.20743625737E+02  0.20743625894E+02  0.25500000000E-02 0. -1.
    5000001    1    1    2    0    0 -0.68344827944E+02  0.20084706060E+02  0.22601688583E+03  0.24917271842E+03  0.77000000000E+02 0.  0.
   -5000001    1    1    2    0    0  0.68344827944E+02 -0.20084706060E+02  0.29095865335E+03  0.30929007240E+03  0.77000000000E+02 0.  0.
<mgrwt>
<rscale>  0 0.21122732E+03</rscale>
<asrwt>0</asrwt>
<pdfrwt beam="1">  1        2 0.76817024E-01 0.21122732E+03</pdfrwt>
<pdfrwt beam="2">  1       -2 0.29633751E-02 0.21122732E+03</pdfrwt>
<totfact> 0.26183990E+04</totfact>
</mgrwt>
</event>
<event>
 4    1  0.6782240E-004  0.2770602E+03  0.7818608E-02  0.1097306E+00
          2   -1    0    0  501    0  0.00000000000E+00  0.00000000000E+00  0.10578889246E+02  0.10578889553E+02  0.25500000000E-02 0.  1.
         -2   -1    0    0    0  501 -0.00000000000E+00 -0.00000000000E+00 -0.18140454517E+04  0.18140454517E+04  0.25500000000E-02 0. -1.
    5000001    1    1    2    0    0  0.97752107653E+02 -0.26687484587E+02 -0.12620772477E+04  0.12684777001E+04  0.77000000000E+02 0.  0.
   -5000001    1    1    2    0    0 -0.97752107653E+02  0.26687484587E+02 -0.54138931478E+03  0.55614664122E+03  0.77000000000E+02 0.  0.
<mgrwt>
<rscale>  0 0.27706018E+03</rscale>
<asrwt>0</asrwt>
<pdfrwt beam="1">  1        2 0.15112711E-02 0.27706018E+03</pdfrwt>
<pdfrwt beam="2">  1       -2 0.25914915E+00 0.27706018E+03</pdfrwt>
<totfact> 0.51296835E+02</totfact>
</mgrwt>
</event>
<event>
 4    1  0.6782240E-004  0.3155036E+03  0.7818608E-02  0.1077737E+00
          2   -1    0    0  501    0  0.00000000000E+00  0.00000000000E+00  0.44810852806E+03  0.44810852807E+03  0.25500000000E-02 0.  1.
         -2   -1    0    0    0  501 -0.00000000000E+00 -0.00000000000E+00 -0.55534814903E+02  0.55534814961E+02  0.25500000000E-02 0. -1.
    5000001    1    1    2    0    0  0.99634377989E+02 -0.50254648195E+02  0.67547318872E+02  0.15147336145E+03  0.77000000000E+02 0.  0.
   -5000001    1    1    2    0    0 -0.99634377989E+02  0.50254648195E+02  0.32502639429E+03  0.35216998158E+03  0.77000000000E+02 0.  0.
<mgrwt>
<rscale>  0 0.31550356E+03</rscale>
<asrwt>0</asrwt>
<pdfrwt beam="1">  1        2 0.64015501E-01 0.31550356E+03</pdfrwt>
<pdfrwt beam="2">  1       -2 0.79335453E-02 0.31550356E+03</pdfrwt>
<totfact> 0.73238373E+03</totfact>
</mgrwt>
</event>
<event>
 4    1  0.6782240E-004  0.1829572E+03  0.7818608E-02  0.1164971E+00
          2   -1    0    0  501    0  0.00000000000E+00  0.00000000000E+00  0.73321105721E+03  0.73321105722E+03  0.25500000000E-02 0.  1.
         -2   -1    0    0    0  501 -0.00000000000E+00 -0.00000000000E+00 -0.11413268769E+02  0.11413269054E+02  0.25500000000E-02 0. -1.
    5000001    1    1    2    0    0 -0.73873366584E+01  0.44365920220E+02  0.44395227552E+03  0.45281953421E+03  0.77000000000E+02 0.  0.
   -5000001    1    1    2    0    0  0.73873366584E+01 -0.44365920220E+02  0.27784551292E+03  0.29180479206E+03  0.77000000000E+02 0.  0.
<mgrwt>
<rscale>  0 0.18295721E+03</rscale>
<asrwt>0</asrwt>
<pdfrwt beam="1">  1        2 0.10474443E+00 0.18295721E+03</pdfrwt>
<pdfrwt beam="2">  1       -2 0.16304671E-02 0.18295721E+03</pdfrwt>
<totfact> 0.43565589E+04</totfact>
</mgrwt>
</event>
<event>
 4    1  0.6782240E-004  0.2012982E+03  0.7818608E-02  0.1148648E+00
          2   -1    0    0  501    0  0.00000000000E+00  0.00000000000E+00  0.14043153603E+04  0.14043153603E+04  0.25500000000E-02 0.  1.
         -2   -1    0    0    0  501 -0.00000000000E+00 -0.00000000000E+00 -0.72136531094E+01  0.72136535601E+01  0.25500000000E-02 0. -1.
    5000001    1    1    2    0    0  0.57048579272E+02 -0.15296897732E+01  0.91403708755E+03  0.91904824561E+03  0.77000000000E+02 0.  0.
   -5000001    1    1    2    0    0 -0.57048579272E+02  0.15296897732E+01  0.48306461969E+03  0.49248076830E+03  0.77000000000E+02 0.  0.
<mgrwt>
<rscale>  0 0.20129823E+03</rscale>
<asrwt>0</asrwt>
<pdfrwt beam="1">  1        2 0.20061648E+00 0.20129823E+03</pdfrwt>
<pdfrwt beam="2">  1       -2 0.10305219E-02 0.20129823E+03</pdfrwt>
<totfact> 0.34921783E+04</totfact>
</mgrwt>
</event>
<event>
 4    1  0.6782240E-004  0.2557710E+03  0.7818608E-02  0.1109711E+00
         -2   -1    0    0    0  501 -0.00000000000E+00  0.00000000000E+00  0.21912090218E+02  0.21912090366E+02  0.25500000000E-02 0. -1.
          2   -1    0    0  501    0  0.00000000000E+00 -0.00000000000E+00 -0.74637780116E+03  0.74637780116E+03  0.25500000000E-02 0.  1.
    5000001    1    1    2    0    0 -0.96222625778E+02  0.34152087585E+02 -0.36002760180E+03  0.38206548241E+03  0.77000000000E+02 0.  0.
   -5000001    1    1    2    0    0  0.96222625778E+02 -0.34152087585E+02 -0.36443810915E+03  0.38622440912E+03  0.77000000000E+02 0.  0.
<mgrwt>
<rscale>  0 0.25577097E+03</rscale>
<asrwt>0</asrwt>
<pdfrwt beam="1">  1        2 0.10662538E+00 0.25577097E+03</pdfrwt>
<pdfrwt beam="2">  1       -2 0.31302991E-02 0.25577097E+03</pdfrwt>
<totfact> 0.16728004E+04</totfact>
</mgrwt>
</event>
<event>
 4    1  0.6782240E-004  0.1804599E+03  0.7818608E-02  0.1167359E+00
         -2   -1    0    0    0  501 -0.00000000000E+00  0.00000000000E+00  0.43552594227E+01  0.43552601692E+01  0.25500000000E-02 0. -1.
          2   -1    0    0  501    0  0.00000000000E+00 -0.00000000000E+00 -0.18693366994E+04  0.18693366994E+04  0.25500000000E-02 0.  1.
    5000001    1    1    2    0    0  0.46407066469E+02  0.44292260705E+01 -0.86747280170E+03  0.87213032028E+03  0.77000000000E+02 0.  0.
   -5000001    1    1    2    0    0 -0.46407066469E+02 -0.44292260705E+01 -0.99750863824E+03  0.10015616393E+04  0.77000000000E+02 0.  0.
<mgrwt>
<rscale>  0 0.18045993E+03</rscale>
<asrwt>0</asrwt>
<pdfrwt beam="1">  1        2 0.26704759E+00 0.18045993E+03</pdfrwt>
<pdfrwt beam="2">  1       -2 0.62218117E-03 0.18045993E+03</pdfrwt>
<totfact> 0.42302886E+04</totfact>
</mgrwt>
</event>
<event>
 4    1  0.6782240E-004  0.1754666E+03  0.7818608E-02  0.1172264E+00
          2   -1    0    0  501    0  0.00000000000E+00  0.00000000000E+00  0.31416956726E+03  0.31416956727E+03  0.25500000000E-02 0.  1.
         -2   -1    0    0    0  501 -0.00000000000E+00 -0.00000000000E+00 -0.24499939940E+02  0.24499940073E+02  0.25500000000E-02 0. -1.
    5000001    1    1    2    0    0  0.20726997548E+02  0.23429275042E+02  0.90599262644E+02  0.12294619046E+03  0.77000000000E+02 0.  0.
   -5000001    1    1    2    0    0 -0.20726997548E+02 -0.23429275042E+02  0.19907036468E+03  0.21572331689E+03  0.77000000000E+02 0.  0.
<mgrwt>
<rscale>  0 0.17546664E+03</rscale>
<asrwt>0</asrwt>
<pdfrwt beam="1">  1        2 0.44881365E-01 0.17546664E+03</pdfrwt>
<pdfrwt beam="2">  1       -2 0.34999916E-02 0.17546664E+03</pdfrwt>
<totfact> 0.35988167E+04</totfact>
</mgrwt>
</event>
<event>
 4    1  0.6782240E-004  0.1768228E+03  0.7818608E-02  0.1170914E+00
          2   -1    0    0  501    0  0.00000000000E+00  0.00000000000E+00  0.12080903441E+04  0.12080903441E+04  0.25500000000E-02 0.  1.
         -2   -1    0    0    0  501 -0.00000000000E+00 -0.00000000000E+00 -0.64701926244E+01  0.64701931269E+01  0.25500000000E-02 0. -1.
    5000001    1    1    2    0    0  0.25202377985E+00 -0.37031455666E+02  0.44475292505E+03  0.45288580963E+03  0.77000000000E+02 0.  0.
   -5000001    1    1    2    0    0 -0.25202377985E+00  0.37031455666E+02  0.75686722640E+03  0.76167472757E+03  0.77000000000E+02 0.  0.
<mgrwt>
<rscale>  0 0.17682282E+03</rscale>
<asrwt>0</asrwt>
<pdfrwt beam="1">  1        2 0.17258443E+00 0.17682282E+03</pdfrwt>
<pdfrwt beam="2">  1       -2 0.92431275E-03 0.17682282E+03</pdfrwt>
<totfact> 0.51157461E+04</totfact>
</mgrwt>
</event>
<event>
 4    1  0.6782240E-004  0.1933374E+03  0.7818608E-02  0.1155485E+00
         -2   -1    0    0    0  501 -0.00000000000E+00  0.00000000000E+00  0.61234667644E+02  0.61234667697E+02  0.25500000000E-02 0. -1.
          2   -1    0    0  501    0  0.00000000000E+00 -0.00000000000E+00 -0.15260705329E+03  0.15260705331E+03  0.25500000000E-02 0.  1.
    5000001    1    1    2    0    0  0.58206787061E+01  0.57859602186E+02 -0.52157161799E+02  0.10968583953E+03  0.77000000000E+02 0.  0.
   -5000001    1    1    2    0    0 -0.58206787061E+01 -0.57859602186E+02 -0.39215223845E+02  0.10415588148E+03  0.77000000000E+02 0.  0.
<mgrwt>
<rscale>  0 0.19333745E+03</rscale>
<asrwt>0</asrwt>
<pdfrwt beam="1">  1        2 0.21801007E-01 0.19333745E+03</pdfrwt>
<pdfrwt beam="2">  1       -2 0.87478097E-02 0.19333745E+03</pdfrwt>
<totfact> 0.19812419E+04</totfact>
</mgrwt>
</event>
<event>
 4    1  0.6782240E-004  0.1909898E+03  0.7818608E-02  0.1157572E+00
          2   -1    0    0  501    0  0.00000000000E+00  0.00000000000E+00  0.96443816324E+03  0.96443816325E+03  0.25500000000E-02 0.  1.
         -2   -1    0    0    0  501 -0.00000000000E+00 -0.00000000000E+00 -0.94555354066E+01  0.94555357504E+01  0.25500000000E-02 0. -1.
    5000001    1    1    2    0    0 -0.25037207338E+02 -0.13841030575E+02  0.72582996289E+03  0.73046325774E+03  0.77000000000E+02 0.  0.
   -5000001    1    1    2    0    0  0.25037207338E+02  0.13841030575E+02  0.22915266495E+03  0.24343044126E+03  0.77000000000E+02 0.  0.
<mgrwt>
<rscale>  0 0.19098984E+03</rscale>
<asrwt>0</asrwt>
<pdfrwt beam="1">  1        2 0.13777680E+00 0.19098984E+03</pdfrwt>
<pdfrwt beam="2">  1       -2 0.13507915E-02 0.19098984E+03</pdfrwt>
<totfact> 0.40789814E+04</totfact>
</mgrwt>
</event>
<event>
 4    1  0.6782240E-004  0.4466147E+03  0.7818608E-02  0.1028736E+00
          2   -1    0    0  501    0  0.00000000000E+00  0.00000000000E+00  0.15339914524E+04  0.15339914524E+04  0.25500000000E-02 0.  1.
         -2   -1    0    0    0  501 -0.00000000000E+00 -0.00000000000E+00 -0.32507465347E+02  0.32507465447E+02  0.25500000000E-02 0. -1.
    5000001    1    1    2    0    0 -0.39498562704E+02  0.20023535709E+03  0.91832684419E+03  0.94387897924E+03  0.77000000000E+02 0.  0.
   -5000001    1    1    2    0    0  0.39498562704E+02 -0.20023535709E+03  0.58315714283E+03  0.62261993858E+03  0.77000000000E+02 0.  0.
<mgrwt>
<rscale>  0 0.44661471E+03</rscale>
<asrwt>0</asrwt>
<pdfrwt beam="1">  1        2 0.21914165E+00 0.44661471E+03</pdfrwt>
<pdfrwt beam="2">  1       -2 0.46439232E-02 0.44661471E+03</pdfrwt>
<totfact> 0.32880616E+03</totfact>
</mgrwt>
</event>
<event>
 4    1  0.6782240E-004  0.2332173E+03  0.7818608E-02  0.1124396E+00
         -2   -1    0    0    0  501 -0.00000000000E+00  0.00000000000E+00  0.28776861642E+02  0.28776861755E+02  0.25500000000E-02 0. -1.
          2   -1    0    0  501    0  0.00000000000E+00 -0.00000000000E+00 -0.47251764954E+03  0.47251764955E+03  0.25500000000E-02 0.  1.
    5000001    1    1    2    0    0 -0.69433888384E+02  0.45753121821E+01 -0.10759239947E+03  0.14948954064E+03  0.77000000000E+02 0.  0.
   -5000001    1    1    2    0    0  0.69433888384E+02 -0.45753121821E+01 -0.33614838843E+03  0.35180497066E+03  0.77000000000E+02 0.  0.
<mgrwt>
<rscale>  0 0.23321728E+03</rscale>
<asrwt>0</asrwt>
<pdfrwt beam="1">  1        2 0.67502517E-01 0.23321728E+03</pdfrwt>
<pdfrwt beam="2">  1       -2 0.41109805E-02 0.23321728E+03</pdfrwt>
<totfact> 0.18657192E+04</totfact>
</mgrwt>
</event>
<event>
 4    1  0.6782240E-004  0.2591919E+03  0.7818608E-02  0.1107630E+00
         -2   -1    0    0    0  501 -0.00000000000E+00  0.00000000000E+00  0.59173243360E+02  0.59173243415E+02  0.25500000000E-02 0. -1.
          2   -1    0    0  501    0  0.00000000000E+00 -0.00000000000E+00 -0.28382945590E+03  0.28382945591E+03  0.25500000000E-02 0.  1.
    5000001    1    1    2    0    0  0.96301833732E+02 -0.39898918100E+02 -0.11282789340E+03  0.17182869486E+03  0.77000000000E+02 0.  0.
   -5000001    1    1    2    0    0 -0.96301833732E+02  0.39898918100E+02 -0.11182831913E+03  0.17117400447E+03  0.77000000000E+02 0.  0.
<mgrwt>
<rscale>  0 0.25919189E+03</rscale>
<asrwt>0</asrwt>
<pdfrwt beam="1">  1        2 0.40547064E-01 0.25919189E+03</pdfrwt>
<pdfrwt beam="2">  1       -2 0.84533206E-02 0.25919189E+03</pdfrwt>
<totfact> 0.10778356E+04</totfact>
</mgrwt>
</event>
<event>
 4    1  0.6782240E-004  0.2445584E+03  0.7818608E-02  0.1116793E+00
         -2   -1    0    0    0  501 -0.00000000000E+00  0.00000000000E+00  0.73723750893E+02  0.73723750937E+02  0.25500000000E-02 0. -1.
          2   -1    0    0  501    0  0.00000000000E+00 -0.00000000000E+00 -0.20281390383E+03  0.20281390385E+03  0.25500000000E-02 0.  1.
    5000001    1    1    2    0    0 -0.87936840566E+02  0.32448345192E+02 -0.81968326346E+02  0.14640215012E+03  0.77000000000E+02 0.  0.
   -5000001    1    1    2    0    0  0.87936840566E+02 -0.32448345192E+02 -0.47121826595E+02  0.13013550467E+03  0.77000000000E+02 0.  0.
<mgrwt>
<rscale>  0 0.24455839E+03</rscale>
<asrwt>0</asrwt>
<pdfrwt beam="1">  1        2 0.28973415E-01 0.24455839E+03</pdfrwt>
<pdfrwt beam="2">  1       -2 0.10531965E-01 0.24455839E+03</pdfrwt>
<totfact> 0.10938898E+04</totfact>
</mgrwt>
</event>
<event>
 4    1  0.6782240E-004  0.2104288E+03  0.7818608E-02  0.1141227E+00
         -2   -1    0    0    0  501 -0.00000000000E+00  0.00000000000E+00  0.88229566656E+02  0.88229566693E+02  0.25500000000E-02 0. -1.
          2   -1    0    0  501    0  0.00000000000E+00 -0.00000000000E+00 -0.12546887776E+03  0.12546887779E+03  0.25500000000E-02 0.  1.
    5000001    1    1    2    0    0 -0.71417933143E+02 -0.33702079786E+01 -0.24105935346E+02  0.10780526701E+03  0.77000000000E+02 0.  0.
   -5000001    1    1    2    0    0  0.71417933143E+02  0.33702079786E+01 -0.13133375760E+02  0.10589317747E+03  0.77000000000E+02 0.  0.
<mgrwt>
<rscale>  0 0.21042875E+03</rscale>
<asrwt>0</asrwt>
<pdfrwt beam="1">  1        2 0.17924125E-01 0.21042875E+03</pdfrwt>
<pdfrwt beam="2">  1       -2 0.12604224E-01 0.21042875E+03</pdfrwt>
<totfact> 0.13950940E+04</totfact>
</mgrwt>
</event>
<event>
 4    1  0.6782240E-004  0.1767965E+03  0.7818608E-02  0.1170940E+00
          2   -1    0    0  501    0  0.00000000000E+00  0.00000000000E+00  0.75536230305E+03  0.75536230305E+03  0.25500000000E-02 0.  1.
         -2   -1    0    0    0  501 -0.00000000000E+00 -0.00000000000E+00 -0.10345034893E+02  0.10345035207E+02  0.25500000000E-02 0. -1.
    5000001    1    1    2    0    0  0.36089404686E+02 -0.14473198079E+02  0.28882584402E+03  0.30143205996E+03  0.77000000000E+02 0.  0.
   -5000001    1    1    2    0    0 -0.36089404686E+02  0.14473198079E+02  0.45619142413E+03  0.46427527831E+03  0.77000000000E+02 0.  0.
<mgrwt>
<rscale>  0 0.17679649E+03</rscale>
<asrwt>0</asrwt>
<pdfrwt beam="1">  1        2 0.10790893E+00 0.17679649E+03</pdfrwt>
<pdfrwt beam="2">  1       -2 0.14778617E-02 0.17679649E+03</pdfrwt>
<totfact> 0.48339604E+04</totfact>
</mgrwt>
</event>
<event>
 4    1  0.6782240E-004  0.1635225E+03  0.7818608E-02  0.1184776E+00
         -2   -1    0    0    0  501 -0.00000000000E+00  0.00000000000E+00  0.35962246134E+02  0.35962246224E+02  0.25500000000E-02 0. -1.
          2   -1    0    0  501    0  0.00000000000E+00 -0.00000000000E+00 -0.18588671064E+03  0.18588671065E+03  0.25500000000E-02 0.  1.
    5000001    1    1    2    0    0 -0.17316681530E+02  0.21330754358E+02 -0.73581932154E+02  0.10999167823E+03  0.77000000000E+02 0.  0.
   -5000001    1    1    2    0    0  0.17316681530E+02 -0.21330754358E+02 -0.76342532347E+02  0.11185727865E+03  0.77000000000E+02 0.  0.
<mgrwt>
<rscale>  0 0.16352252E+03</rscale>
<asrwt>0</asrwt>
<pdfrwt beam="1">  1        2 0.26555244E-01 0.16352252E+03</pdfrwt>
<pdfrwt beam="2">  1       -2 0.51374639E-02 0.16352252E+03</pdfrwt>
<totfact> 0.35456216E+04</totfact>
</mgrwt>
</event>
<event>
 4    1  0.6782240E-004  0.3287690E+03  0.7818608E-02  0.1071683E+00
          2   -1    0    0  501    0  0.00000000000E+00  0.00000000000E+00  0.14500224137E+04  0.14500224137E+04  0.25500000000E-02 0.  1.
         -2   -1    0    0    0  501 -0.00000000000E+00 -0.00000000000E+00 -0.18635757346E+02  0.18635757521E+02  0.25500000000E-02 0. -1.
    5000001    1    1    2    0    0 -0.10988582243E+03 -0.83834821367E+02  0.91497470884E+03  0.92855311591E+03  0.77000000000E+02 0.  0.
   -5000001    1    1    2    0    0  0.10988582243E+03  0.83834821367E+02  0.51641194754E+03  0.54010505534E+03  0.77000000000E+02 0.  0.
<mgrwt>
<rscale>  0 0.32876901E+03</rscale>
<asrwt>0</asrwt>
<pdfrwt beam="1">  1        2 0.20714604E+00 0.32876901E+03</pdfrwt>
<pdfrwt beam="2">  1       -2 0.26622513E-02 0.32876901E+03</pdfrwt>
<totfact> 0.84023701E+03</totfact>
</mgrwt>
</event>
<event>
 4    1  0.6782240E-004  0.1741941E+03  0.7818608E-02  0.1173543E+00
         -2   -1    0    0    0  501 -0.00000000000E+00  0.00000000000E+00  0.46063722512E+01  0.46063729570E+01  0.25500000000E-02 0.  1.
          2   -1    0    0  501    0  0.00000000000E+00 -0.00000000000E+00 -0.16468269649E+04  0.16468269649E+04  0.25500000000E-02 0. -1.
    5000001    1    1    2    0    0  0.38983191250E+02 -0.11660285653E+02 -0.83169766449E+03  0.83624497403E+03  0.77000000000E+02 0.  0.
   -5000001    1    1    2    0    0 -0.38983191250E+02  0.11660285653E+02 -0.81052292816E+03  0.81518836383E+03  0.77000000000E+02 0.  0.
<mgrwt>
<rscale>  0 0.17419413E+03</rscale>
<asrwt>0</asrwt>
<pdfrwt beam="1">  1        2 0.23526062E+00 0.17419413E+03</pdfrwt>
<pdfrwt beam="2">  1       -2 0.65805428E-03 0.17419413E+03</pdfrwt>
<totfact> 0.49895588E+04</totfact>
</mgrwt>
</event>
<event>
 4    1  0.6782240E-004  0.4364139E+03  0.7818608E-02  0.1031853E+00
          2   -1    0    0  501    0  0.00000000000E+00  0.00000000000E+00  0.93899612261E+03  0.93899612261E+03  0.25500000000E-02 0.  1.
         -2   -1    0    0    0  501 -0.00000000000E+00 -0.00000000000E+00 -0.50707645373E+02  0.50707645437E+02  0.25500000000E-02 0. -1.
    5000001    1    1    2    0    0 -0.96838538507E+02  0.82035043748E+02  0.80683664848E+03  0.82037907596E+03  0.77000000000E+02 0.  0.
   -5000001    1    1    2    0    0  0.96838538507E+02 -0.82035043748E+02  0.81451828753E+02  0.16932469209E+03  0.77000000000E+02 0.  0.
<mgrwt>
<rscale>  0 0.43641394E+03</rscale>
<asrwt>0</asrwt>
<pdfrwt beam="1">  1        2 0.13414230E+00 0.43641394E+03</pdfrwt>
<pdfrwt beam="2">  1       -2 0.72439494E-02 0.43641394E+03</pdfrwt>
<totfact> 0.35221951E+03</totfact>
</mgrwt>
</event>
<event>
 4    1  0.6782240E-004  0.2740118E+03  0.7818608E-02  0.1099005E+00
         -2   -1    0    0    0  501 -0.00000000000E+00  0.00000000000E+00  0.48125976493E+01  0.48125983248E+01  0.25500000000E-02 0. -1.
          2   -1    0    0  501    0  0.00000000000E+00 -0.00000000000E+00 -0.39003075982E+04  0.39003075982E+04  0.25500000000E-02 0.  1.
    5000001    1    1    2    0    0  0.73491922044E+02 -0.85802057922E+02 -0.18214319143E+04  0.18265558503E+04  0.77000000000E+02 0.  0.
   -5000001    1    1    2    0    0 -0.73491922044E+02  0.85802057922E+02 -0.20740630862E+04  0.20785643462E+04  0.77000000000E+02 0.  0.
<mgrwt>
<rscale>  0 0.27401177E+03</rscale>
<asrwt>0</asrwt>
<pdfrwt beam="1">  1        2 0.55718477E+00 0.27401177E+03</pdfrwt>
<pdfrwt beam="2">  1       -2 0.68751650E-03 0.27401177E+03</pdfrwt>
<totfact> 0.30824963E+03</totfact>
</mgrwt>
</event>
<event>
 4    1  0.6782240E-004  0.1930249E+03  0.7818608E-02  0.1155761E+00
          2   -1    0    0  501    0  0.00000000000E+00  0.00000000000E+00  0.24366606631E+03  0.24366606633E+03  0.25500000000E-02 0.  1.
         -2   -1    0    0    0  501 -0.00000000000E+00 -0.00000000000E+00 -0.38227107450E+02  0.38227107535E+02  0.25500000000E-02 0. -1.
    5000001    1    1    2    0    0  0.25352411640E+02  0.52140337286E+02  0.95522017203E+02  0.13570119866E+03  0.77000000000E+02 0.  0.
   -5000001    1    1    2    0    0 -0.25352411640E+02 -0.52140337286E+02  0.10991694166E+03  0.14619197520E+03  0.77000000000E+02 0.  0.
<mgrwt>
<rscale>  0 0.19302486E+03</rscale>
<asrwt>0</asrwt>
<pdfrwt beam="1">  1        2 0.34809438E-01 0.19302486E+03</pdfrwt>
<pdfrwt beam="2">  1       -2 0.54610154E-02 0.19302486E+03</pdfrwt>
<totfact> 0.24444269E+04</totfact>
</mgrwt>
</event>
<event>
 4    1  0.6782240E-004  0.2090572E+03  0.7818608E-02  0.1142315E+00
          2   -1    0    0  501    0  0.00000000000E+00  0.00000000000E+00  0.53211436705E+03  0.53211436706E+03  0.25500000000E-02 0.  1.
         -2   -1    0    0    0  501 -0.00000000000E+00 -0.00000000000E+00 -0.20533608472E+02  0.20533608630E+02  0.25500000000E-02 0. -1.
    5000001    1    1    2    0    0  0.49090965367E+01  0.56524064453E+02  0.36726313973E+03  0.37951321834E+03  0.77000000000E+02 0.  0.
   -5000001    1    1    2    0    0 -0.49090965367E+01 -0.56524064453E+02  0.14431761885E+03  0.17313475735E+03  0.77000000000E+02 0.  0.
<mgrwt>
<rscale>  0 0.20905720E+03</rscale>
<asrwt>0</asrwt>
<pdfrwt beam="1">  1        2 0.76016346E-01 0.20905720E+03</pdfrwt>
<pdfrwt beam="2">  1       -2 0.29333724E-02 0.20905720E+03</pdfrwt>
<totfact> 0.26872301E+04</totfact>
</mgrwt>
</event>
<event>
 4    1  0.6782240E-004  0.3486827E+03  0.7818608E-02  0.1063157E+00
          2   -1    0    0  501    0  0.00000000000E+00  0.00000000000E+00  0.25215324170E+03  0.25215324171E+03  0.25500000000E-02 0.  1.
         -2   -1    0    0    0  501 -0.00000000000E+00 -0.00000000000E+00 -0.12054139917E+03  0.12054139919E+03  0.25500000000E-02 0. -1.
    5000001    1    1    2    0    0 -0.46428922909E+02 -0.14550628541E+03  0.29745703293E+02  0.17361316437E+03  0.77000000000E+02 0.  0.
   -5000001    1    1    2    0    0  0.46428922909E+02  0.14550628541E+03  0.10186613924E+03  0.19908147654E+03  0.77000000000E+02 0.  0.
<mgrwt>
<rscale>  0 0.34868269E+03</rscale>
<asrwt>0</asrwt>
<pdfrwt beam="1">  1        2 0.36021892E-01 0.34868269E+03</pdfrwt>
<pdfrwt beam="2">  1       -2 0.17220200E-01 0.34868269E+03</pdfrwt>
<totfact> 0.39047169E+03</totfact>
</mgrwt>
</event>
<event>
 4    1  0.6782240E-004  0.2225973E+03  0.7818608E-02  0.1131961E+00
         -2   -1    0    0    0  501 -0.00000000000E+00  0.00000000000E+00  0.55220437007E+02  0.55220437066E+02  0.25500000000E-02 0. -1.
          2   -1    0    0  501    0  0.00000000000E+00 -0.00000000000E+00 -0.22432620643E+03  0.22432620644E+03  0.25500000000E-02 0.  1.
    5000001    1    1    2    0    0 -0.67842967428E+02 -0.37553593984E+02 -0.58047501277E+02  0.12373945634E+03  0.77000000000E+02 0.  0.
   -5000001    1    1    2    0    0  0.67842967428E+02  0.37553593984E+02 -0.11105826814E+03  0.15580718717E+03  0.77000000000E+02 0.  0.
<mgrwt>
<rscale>  0 0.22259732E+03</rscale>
<asrwt>0</asrwt>
<pdfrwt beam="1">  1        2 0.32046600E-01 0.22259732E+03</pdfrwt>
<pdfrwt beam="2">  1       -2 0.78886340E-02 0.22259732E+03</pdfrwt>
<totfact> 0.15355082E+04</totfact>
</mgrwt>
</event>
<event>
 4    1  0.6782240E-004  0.1972044E+03  0.7818608E-02  0.1152119E+00
          2   -1    0    0  501    0  0.00000000000E+00  0.00000000000E+00  0.52010794708E+03  0.52010794709E+03  0.25500000000E-02 0.  1.
         -2   -1    0    0    0  501 -0.00000000000E+00 -0.00000000000E+00 -0.18693023349E+02  0.18693023523E+02  0.25500000000E-02 0. -1.
    5000001    1    1    2    0    0  0.34817790782E+02 -0.39642185275E+02  0.33752118513E+03  0.35019042223E+03  0.77000000000E+02 0.  0.
   -5000001    1    1    2    0    0 -0.34817790782E+02  0.39642185275E+02  0.16389373860E+03  0.18861054838E+03  0.77000000000E+02 0.  0.
<mgrwt>
<rscale>  0 0.19720436E+03</rscale>
<asrwt>0</asrwt>
<pdfrwt beam="1">  1        2 0.74301141E-01 0.19720436E+03</pdfrwt>
<pdfrwt beam="2">  1       -2 0.26704317E-02 0.19720436E+03</pdfrwt>
<totfact> 0.31519019E+04</totfact>
</mgrwt>
</event>
<event>
 4    1  0.6782240E-004  0.3416886E+03  0.7818608E-02  0.1066079E+00
         -2   -1    0    0    0  501 -0.00000000000E+00  0.00000000000E+00  0.20349545483E+02  0.20349545643E+02  0.25500000000E-02 0. -1.
          2   -1    0    0  501    0  0.00000000000E+00 -0.00000000000E+00 -0.14343207764E+04  0.14343207764E+04  0.25500000000E-02 0.  1.
    5000001    1    1    2    0    0 -0.10060078034E+03 -0.62333065419E+02 -0.29746874916E+03  0.32927584907E+03  0.77000000000E+02 0.  0.
   -5000001    1    1    2    0    0  0.10060078034E+03  0.62333065419E+02 -0.11165024818E+04  0.11253944730E+04  0.77000000000E+02 0.  0.
<mgrwt>
<rscale>  0 0.34168861E+03</rscale>
<asrwt>0</asrwt>
<pdfrwt beam="1">  1        2 0.20490290E+00 0.34168861E+03</pdfrwt>
<pdfrwt beam="2">  1       -2 0.29070789E-02 0.34168861E+03</pdfrwt>
<totfact> 0.75110348E+03</totfact>
</mgrwt>
</event>
<event>
 4    1  0.6782240E-004  0.2452418E+03  0.7818608E-02  0.1116349E+00
          2   -1    0    0  501    0  0.00000000000E+00  0.00000000000E+00  0.80828608802E+02  0.80828608842E+02  0.25500000000E-02 0.  1.
         -2   -1    0    0    0  501 -0.00000000000E+00 -0.00000000000E+00 -0.18602177429E+03  0.18602177430E+03  0.25500000000E-02 0. -1.
    5000001    1    1    2    0    0 -0.52467949961E+02 -0.56930700079E+02  0.81127329962E+01  0.10949340994E+03  0.77000000000E+02 0.  0.
   -5000001    1    1    2    0    0  0.52467949961E+02  0.56930700079E+02 -0.11330589848E+03  0.15735697320E+03  0.77000000000E+02 0.  0.
<mgrwt>
<rscale>  0 0.24524177E+03</rscale>
<asrwt>0</asrwt>
<pdfrwt beam="1">  1        2 0.11546944E-01 0.24524177E+03</pdfrwt>
<pdfrwt beam="2">  1       -2 0.26574539E-01 0.24524177E+03</pdfrwt>
<totfact> 0.67278661E+03</totfact>
</mgrwt>
</event>
<event>
 4    1  0.6782240E-004  0.2815278E+03  0.7818608E-02  0.1094857E+00
         -2   -1    0    0    0  501 -0.00000000000E+00  0.00000000000E+00  0.64083266736E+02  0.64083266787E+02  0.25500000000E-02 0. -1.
          2   -1    0    0  501    0  0.00000000000E+00 -0.00000000000E+00 -0.30919893997E+03  0.30919893998E+03  0.25500000000E-02 0.  1.
    5000001    1    1    2    0    0 -0.23083955267E+02  0.85075117956E+02 -0.22624101234E+03  0.25472463632E+03  0.77000000000E+02 0.  0.
   -5000001    1    1    2    0    0  0.23083955267E+02 -0.85075117956E+02 -0.18874660896E+02  0.11855757045E+03  0.77000000000E+02 0.  0.
<mgrwt>
<rscale>  0 0.28152782E+03</rscale>
<asrwt>0</asrwt>
<pdfrwt beam="1">  1        2 0.44171276E-01 0.28152782E+03</pdfrwt>
<pdfrwt beam="2">  1       -2 0.91547526E-02 0.28152782E+03</pdfrwt>
<totfact> 0.87038590E+03</totfact>
</mgrwt>
</event>
<event>
 4    1  0.6782240E-004  0.2592656E+03  0.7818608E-02  0.1107585E+00
          2   -1    0    0  501    0  0.00000000000E+00  0.00000000000E+00  0.59841054677E+03  0.59841054678E+03  0.25500000000E-02 0.  1.
         -2   -1    0    0    0  501 -0.00000000000E+00 -0.00000000000E+00 -0.28082167957E+02  0.28082168072E+02  0.25500000000E-02 0. -1.
    5000001    1    1    2    0    0  0.68034239098E+02 -0.77108555860E+02  0.24322161128E+03  0.27506388216E+03  0.77000000000E+02 0.  0.
   -5000001    1    1    2    0    0 -0.68034239098E+02  0.77108555860E+02  0.32710676753E+03  0.35142883269E+03  0.77000000000E+02 0.  0.
<mgrwt>
<rscale>  0 0.25926562E+03</rscale>
<asrwt>0</asrwt>
<pdfrwt beam="1">  1        2 0.85487217E-01 0.25926562E+03</pdfrwt>
<pdfrwt beam="2">  1       -2 0.40117385E-02 0.25926562E+03</pdfrwt>
<totfact> 0.14961050E+04</totfact>
</mgrwt>
</event>
<event>
 4    1  0.6782240E-004  0.1953316E+03  0.7818608E-02  0.1153739E+00
         -2   -1    0    0    0  501 -0.00000000000E+00  0.00000000000E+00  0.95091474451E+02  0.95091474485E+02  0.25500000000E-02 0. -1.
          2   -1    0    0  501    0  0.00000000000E+00 -0.00000000000E+00 -0.10030978192E+03  0.10030978195E+03  0.25500000000E-02 0.  1.
    5000001    1    1    2    0    0 -0.22065703652E+02 -0.55579660468E+02  0.31904258919E+01  0.97545746974E+02  0.77000000000E+02 0.  0.
   -5000001    1    1    2    0    0  0.22065703652E+02  0.55579660468E+02 -0.84087333602E+01  0.97855509462E+02  0.77000000000E+02 0.  0.
<mgrwt>
<rscale>  0 0.19533156E+03</rscale>
<asrwt>0</asrwt>
<pdfrwt beam="1">  1        2 0.14329969E-01 0.19533156E+03</pdfrwt>
<pdfrwt beam="2">  1       -2 0.13584496E-01 0.19533156E+03</pdfrwt>
<totfact> 0.15970587E+04</totfact>
</mgrwt>
</event>
<event>
 4    1  0.6782240E-004  0.3816609E+03  0.7818608E-02  0.1050322E+00
         -2   -1    0    0    0  501 -0.00000000000E+00  0.00000000000E+00  0.42158994424E+02  0.42158994501E+02  0.25500000000E-02 0. -1.
          2   -1    0    0  501    0  0.00000000000E+00 -0.00000000000E+00 -0.86378375371E+03  0.86378375371E+03  0.25500000000E-02 0.  1.
    5000001    1    1    2    0    0  0.34084075985E+02 -0.16791592326E+03 -0.49059691315E+03  0.52533019399E+03  0.77000000000E+02 0.  0.
   -5000001    1    1    2    0    0 -0.34084075985E+02  0.16791592326E+03 -0.33102784613E+03  0.38061255423E+03  0.77000000000E+02 0.  0.
<mgrwt>
<rscale>  0 0.38166087E+03</rscale>
<asrwt>0</asrwt>
<pdfrwt beam="1">  1        2 0.12339767E+00 0.38166087E+03</pdfrwt>
<pdfrwt beam="2">  1       -2 0.60227140E-02 0.38166087E+03</pdfrwt>
<totfact> 0.52353958E+03</totfact>
</mgrwt>
</event>
<event>
 4    1  0.6782240E-004  0.2953305E+03  0.7818608E-02  0.1087598E+00
          2   -1    0    0  501    0  0.00000000000E+00  0.00000000000E+00  0.29065676023E+04  0.29065676023E+04  0.25500000000E-02 0.  1.
         -2   -1    0    0    0  501 -0.00000000000E+00 -0.00000000000E+00 -0.75019859750E+01  0.75019864084E+01  0.25500000000E-02 0. -1.
    5000001    1    1    2    0    0  0.96536193230E+02 -0.80535569126E+02  0.13664988364E+04  0.13744283482E+04  0.77000000000E+02 0.  0.
   -5000001    1    1    2    0    0 -0.96536193230E+02  0.80535569126E+02  0.15325667799E+04  0.15396412404E+04  0.77000000000E+02 0.  0.
<mgrwt>
<rscale>  0 0.29533053E+03</rscale>
<asrwt>0</asrwt>
<pdfrwt beam="1">  1        2 0.41522573E+00 0.29533053E+03</pdfrwt>
<pdfrwt beam="2">  1       -2 0.10717077E-02 0.29533053E+03</pdfrwt>
<totfact> 0.59913943E+03</totfact>
</mgrwt>
</event>
<event>
 4    1  0.6782240E-004  0.3710155E+03  0.7818608E-02  0.1054305E+00
          2   -1    0    0  501    0  0.00000000000E+00  0.00000000000E+00  0.63353399648E+03  0.63353399649E+03  0.25500000000E-02 0.  1.
         -2   -1    0    0    0  501 -0.00000000000E+00 -0.00000000000E+00 -0.54319316588E+02  0.54319316648E+02  0.25500000000E-02 0. -1.
    5000001    1    1    2    0    0  0.77312229874E+02 -0.14284616387E+03  0.20460860319E+03  0.27235250673E+03  0.77000000000E+02 0.  0.
   -5000001    1    1    2    0    0 -0.77312229874E+02  0.14284616387E+03  0.37460607670E+03  0.41550080641E+03  0.77000000000E+02 0.  0.
<mgrwt>
<rscale>  0 0.37101555E+03</rscale>
<asrwt>0</asrwt>
<pdfrwt beam="1">  1        2 0.90504859E-01 0.37101555E+03</pdfrwt>
<pdfrwt beam="2">  1       -2 0.77599021E-02 0.37101555E+03</pdfrwt>
<totfact> 0.51523149E+03</totfact>
</mgrwt>
</event>
<event>
 4    1  0.6782240E-004  0.2294697E+03  0.7818608E-02  0.1127014E+00
         -2   -1    0    0    0  501 -0.00000000000E+00  0.00000000000E+00  0.12071993520E+02  0.12071993789E+02  0.25500000000E-02 0. -1.
          2   -1    0    0  501    0  0.00000000000E+00 -0.00000000000E+00 -0.10904644704E+04  0.10904644704E+04  0.25500000000E-02 0.  1.
    5000001    1    1    2    0    0 -0.50311386315E+02  0.66433775122E+02 -0.62107374196E+03  0.63135273423E+03  0.77000000000E+02 0.  0.
   -5000001    1    1    2    0    0  0.50311386315E+02 -0.66433775122E+02 -0.45731873491E+03  0.47118372995E+03  0.77000000000E+02 0.  0.
<mgrwt>
<rscale>  0 0.22946965E+03</rscale>
<asrwt>0</asrwt>
<pdfrwt beam="1">  1        2 0.15578058E+00 0.22946965E+03</pdfrwt>
<pdfrwt beam="2">  1       -2 0.17245712E-02 0.22946965E+03</pdfrwt>
<totfact> 0.24480117E+04</totfact>
</mgrwt>
</event>
<event>
 4    1  0.6782240E-004  0.2333106E+03  0.7818608E-02  0.1124331E+00
          2   -1    0    0  501    0  0.00000000000E+00  0.00000000000E+00  0.11359404766E+03  0.11359404769E+03  0.25500000000E-02 0.  1.
         -2   -1    0    0    0  501 -0.00000000000E+00 -0.00000000000E+00 -0.11979904940E+03  0.11979904943E+03  0.25500000000E-02 0. -1.
    5000001    1    1    2    0    0  0.73469074635E+02 -0.46389890423E+02 -0.14496527152E+02  0.11699947077E+03  0.77000000000E+02 0.  0.
   -5000001    1    1    2    0    0 -0.73469074635E+02  0.46389890423E+02  0.82915254135E+01  0.11639362635E+03  0.77000000000E+02 0.  0.
<mgrwt>
<rscale>  0 0.23331060E+03</rscale>
<asrwt>0</asrwt>
<pdfrwt beam="1">  1        2 0.16227721E-01 0.23331060E+03</pdfrwt>
<pdfrwt beam="2">  1       -2 0.17114150E-01 0.23331060E+03</pdfrwt>
<totfact> 0.95346749E+03</totfact>
</mgrwt>
</event>
<event>
 4    1  0.6782240E-004  0.3032239E+03  0.7818608E-02  0.1083640E+00
          2   -1    0    0  501    0  0.00000000000E+00  0.00000000000E+00  0.15504452667E+04  0.15504452667E+04  0.25500000000E-02 0.  1.
         -2   -1    0    0    0  501 -0.00000000000E+00 -0.00000000000E+00 -0.14825538976E+02  0.14825539195E+02  0.25500000000E-02 0. -1.
    5000001    1    1    2    0    0 -0.79192856172E+02 -0.10288451906E+03  0.84089575969E+03  0.85433682549E+03  0.77000000000E+02 0.  0.
   -5000001    1    1    2    0    0  0.79192856172E+02  0.10288451906E+03  0.69472396802E+03  0.71093398038E+03  0.77000000000E+02 0.  0.
<mgrwt>
<rscale>  0 0.30322392E+03</rscale>
<asrwt>0</asrwt>
<pdfrwt beam="1">  1        2 0.22149220E+00 0.30322392E+03</pdfrwt>
<pdfrwt beam="2">  1       -2 0.21179339E-02 0.30322392E+03</pdfrwt>
<totfact> 0.10474121E+04</totfact>
</mgrwt>
</event>
<event>
 4    1  0.6782240E-004  0.2270471E+03  0.7818608E-02  0.1128736E+00
         -2   -1    0    0    0  501 -0.00000000000E+00  0.00000000000E+00  0.12395552542E+02  0.12395552804E+02  0.25500000000E-02 0. -1.
          2   -1    0    0  501    0  0.00000000000E+00 -0.00000000000E+00 -0.10396954399E+04  0.10396954399E+04  0.25500000000E-02 0.  1.
    5000001    1    1    2    0    0 -0.22465440312E+02  0.48303335724E+02 -0.81110566883E+03  0.81649207851E+03  0.77000000000E+02 0.  0.
   -5000001    1    1    2    0    0  0.22465440312E+02 -0.48303335724E+02 -0.21619421856E+03  0.23559891423E+03  0.77000000000E+02 0.  0.
<mgrwt>
<rscale>  0 0.22704713E+03</rscale>
<asrwt>0</asrwt>
<pdfrwt beam="1">  1        2 0.14852786E+00 0.22704713E+03</pdfrwt>
<pdfrwt beam="2">  1       -2 0.17707939E-02 0.22704713E+03</pdfrwt>
<totfact> 0.25155285E+04</totfact>
</mgrwt>
</event>
<event>
 4    1  0.6782240E-004  0.3790101E+03  0.7818608E-02  0.1051300E+00
         -2   -1    0    0    0  501 -0.00000000000E+00  0.00000000000E+00  0.11503221853E+02  0.11503222136E+02  0.25500000000E-02 0. -1.
          2   -1    0    0  501    0  0.00000000000E+00 -0.00000000000E+00 -0.31219224646E+04  0.31219224646E+04  0.25500000000E-02 0.  1.
    5000001    1    1    2    0    0 -0.16436332832E+03  0.51071393990E+02 -0.13984392251E+04  0.14110934970E+04  0.77000000000E+02 0.  0.
   -5000001    1    1    2    0    0  0.16436332832E+03 -0.51071393990E+02 -0.17119800177E+04  0.17223321898E+04  0.77000000000E+02 0.  0.
<mgrwt>
<rscale>  0 0.37901012E+03</rscale>
<asrwt>0</asrwt>
<pdfrwt beam="1">  1        2 0.44598838E+00 0.37901012E+03</pdfrwt>
<pdfrwt beam="2">  1       -2 0.16433194E-02 0.37901012E+03</pdfrwt>
<totfact> 0.24408275E+03</totfact>
</mgrwt>
</event>
<event>
 4    1  0.6782240E-004  0.4362614E+03  0.7818608E-02  0.1031900E+00
          2   -1    0    0  501    0  0.00000000000E+00  0.00000000000E+00  0.51298489741E+03  0.51298489742E+03  0.25500000000E-02 0.  1.
         -2   -1    0    0    0  501 -0.00000000000E+00 -0.00000000000E+00 -0.92753233122E+02  0.92753233157E+02  0.25500000000E-02 0. -1.
    5000001    1    1    2    0    0  0.11297261723E+03 -0.16994419735E+03  0.21408340627E+03  0.30562157531E+03  0.77000000000E+02 0.  0.
   -5000001    1    1    2    0    0 -0.11297261723E+03  0.16994419735E+03  0.20614825802E+03  0.30011655526E+03  0.77000000000E+02 0.  0.
<mgrwt>
<rscale>  0 0.43626143E+03</rscale>
<asrwt>0</asrwt>
<pdfrwt beam="1">  1        2 0.73283556E-01 0.43626143E+03</pdfrwt>
<pdfrwt beam="2">  1       -2 0.13250462E-01 0.43626143E+03</pdfrwt>
<totfact> 0.27846807E+03</totfact>
</mgrwt>
</event>
<event>
 4    1  0.6782240E-004  0.4788076E+03  0.7818608E-02  0.1019463E+00
         -2   -1    0    0    0  501 -0.00000000000E+00  0.00000000000E+00  0.19605199176E+03  0.19605199177E+03  0.25500000000E-02 0. -1.
          2   -1    0    0  501    0  0.00000000000E+00 -0.00000000000E+00 -0.29234171577E+03  0.29234171578E+03  0.25500000000E-02 0.  1.
    5000001    1    1    2    0    0  0.13812030699E+02 -0.12432272816E+03 -0.24097537544E+03  0.28221453630E+03  0.77000000000E+02 0.  0.
   -5000001    1    1    2    0    0 -0.13812030699E+02  0.12432272816E+03  0.14468565143E+03  0.20617917125E+03  0.77000000000E+02 0.  0.
<mgrwt>
<rscale>  0 0.47880758E+03</rscale>
<asrwt>0</asrwt>
<pdfrwt beam="1">  1        2 0.41763102E-01 0.47880758E+03</pdfrwt>
<pdfrwt beam="2">  1       -2 0.28007428E-01 0.47880758E+03</pdfrwt>
<totfact> 0.14245774E+03</totfact>
</mgrwt>
</event>
<event>
 4    1  0.6782240E-004  0.3664391E+03  0.7818608E-02  0.1056063E+00
          2   -1    0    0  501    0  0.00000000000E+00  0.00000000000E+00  0.46048935763E+03  0.46048935763E+03  0.25500000000E-02 0.  1.
         -2   -1    0    0    0  501 -0.00000000000E+00 -0.00000000000E+00 -0.72899423058E+02  0.72899423102E+02  0.25500000000E-02 0. -1.
    5000001    1    1    2    0    0 -0.10330803710E+03  0.43739213697E+02  0.37239381561E+03  0.39647424033E+03  0.77000000000E+02 0.  0.
   -5000001    1    1    2    0    0  0.10330803710E+03 -0.43739213697E+02  0.15196118963E+02  0.13691454041E+03  0.77000000000E+02 0.  0.
<mgrwt>
<rscale>  0 0.36643913E+03</rscale>
<asrwt>0</asrwt>
<pdfrwt beam="1">  1        2 0.65784191E-01 0.36643913E+03</pdfrwt>
<pdfrwt beam="2">  1       -2 0.10414204E-01 0.36643913E+03</pdfrwt>
<totfact> 0.46353918E+03</totfact>
</mgrwt>
</event>
<event>
 4    1  0.6782240E-004  0.2150647E+03  0.7818608E-02  0.1137617E+00
          2   -1    0    0  501    0  0.00000000000E+00  0.00000000000E+00  0.96365980149E+03  0.96365980150E+03  0.25500000000E-02 0.  1.
         -2   -1    0    0    0  501 -0.00000000000E+00 -0.00000000000E+00 -0.11999257526E+02  0.11999257797E+02  0.25500000000E-02 0. -1.
    5000001    1    1    2    0    0 -0.42890789566E+02  0.46253942230E+02  0.29126567712E+03  0.30780471352E+03  0.77000000000E+02 0.  0.
   -5000001    1    1    2    0    0  0.42890789566E+02 -0.46253942230E+02  0.66039486685E+03  0.66785434577E+03  0.77000000000E+02 0.  0.
<mgrwt>
<rscale>  0 0.21506466E+03</rscale>
<asrwt>0</asrwt>
<pdfrwt beam="1">  1        2 0.13766574E+00 0.21506466E+03</pdfrwt>
<pdfrwt beam="2">  1       -2 0.17141790E-02 0.21506466E+03</pdfrwt>
<totfact> 0.29128221E+04</totfact>
</mgrwt>
</event>
<event>
 4    1  0.6782240E-004  0.3853499E+03  0.7818608E-02  0.1048974E+00
         -2   -1    0    0    0  501 -0.00000000000E+00  0.00000000000E+00  0.90250505447E+02  0.90250505483E+02  0.25500000000E-02 0. -1.
          2   -1    0    0  501    0  0.00000000000E+00 -0.00000000000E+00 -0.41133989467E+03  0.41133989468E+03  0.25500000000E-02 0.  1.
    5000001    1    1    2    0    0 -0.14773554798E+03 -0.95798146183E+02 -0.17856003160E+03  0.26232758497E+03  0.77000000000E+02 0.  0.
   -5000001    1    1    2    0    0  0.14773554798E+03  0.95798146183E+02 -0.14252935762E+03  0.23926281519E+03  0.77000000000E+02 0.  0.
<mgrwt>
<rscale>  0 0.38534988E+03</rscale>
<asrwt>0</asrwt>
<pdfrwt beam="1">  1        2 0.58762841E-01 0.38534988E+03</pdfrwt>
<pdfrwt beam="2">  1       -2 0.12892930E-01 0.38534988E+03</pdfrwt>
<totfact> 0.37158944E+03</totfact>
</mgrwt>
</event>
<event>
 4    1  0.6782240E-004  0.2528302E+03  0.7818608E-02  0.1111529E+00
          2   -1    0    0  501    0  0.00000000000E+00  0.00000000000E+00  0.12621682104E+02  0.12621682362E+02  0.25500000000E-02 0.  1.
         -2   -1    0    0    0  501 -0.00000000000E+00 -0.00000000000E+00 -0.12661372162E+04  0.12661372162E+04  0.25500000000E-02 0. -1.
    5000001    1    1    2    0    0 -0.76785066311E+02  0.51824068000E+02 -0.82068253365E+03  0.82947604033E+03  0.77000000000E+02 0.  0.
   -5000001    1    1    2    0    0  0.76785066311E+02 -0.51824068000E+02 -0.43283300040E+03  0.44928285820E+03  0.77000000000E+02 0.  0.
<mgrwt>
<rscale>  0 0.25283023E+03</rscale>
<asrwt>0</asrwt>
<pdfrwt beam="1">  1        2 0.18030983E-02 0.25283023E+03</pdfrwt>
<pdfrwt beam="2">  1       -2 0.18087666E+00 0.25283023E+03</pdfrwt>
<totfact> 0.12111159E+03</totfact>
</mgrwt>
</event>
<event>
 4    1  0.6782240E-004  0.2287849E+03  0.7818608E-02  0.1127498E+00
         -2   -1    0    0    0  501 -0.00000000000E+00  0.00000000000E+00  0.51132701453E+02  0.51132701517E+02  0.25500000000E-02 0. -1.
          2   -1    0    0  501    0  0.00000000000E+00 -0.00000000000E+00 -0.25591519655E+03  0.25591519656E+03  0.25500000000E-02 0.  1.
    5000001    1    1    2    0    0 -0.71647813322E+02 -0.43290447816E+02 -0.11878241014E+03  0.16445586941E+03  0.77000000000E+02 0.  0.
   -5000001    1    1    2    0    0  0.71647813322E+02  0.43290447816E+02 -0.86000084956E+02  0.14259202866E+03  0.77000000000E+02 0.  0.
<mgrwt>
<rscale>  0 0.22878492E+03</rscale>
<asrwt>0</asrwt>
<pdfrwt beam="1">  1        2 0.36559313E-01 0.22878492E+03</pdfrwt>
<pdfrwt beam="2">  1       -2 0.73046718E-02 0.22878492E+03</pdfrwt>
<totfact> 0.15026359E+04</totfact>
</mgrwt>
</event>
<event>
 4    1  0.6782240E-004  0.2286210E+03  0.7818608E-02  0.1127614E+00
         -2   -1    0    0    0  501 -0.00000000000E+00  0.00000000000E+00  0.52034522386E+01  0.52034528634E+01  0.25500000000E-02 0. -1.
          2   -1    0    0  501    0  0.00000000000E+00 -0.00000000000E+00 -0.25111957043E+04  0.25111957043E+04  0.25500000000E-02 0.  1.
    5000001    1    1    2    0    0  0.53548574748E+02  0.37803386442E+02 -0.18397084319E+04  0.18424854572E+04  0.77000000000E+02 0.  0.
   -5000001    1    1    2    0    0 -0.53548574748E+02 -0.37803386442E+02 -0.66628382021E+03  0.67391369993E+03  0.77000000000E+02 0.  0.
<mgrwt>
<rscale>  0 0.22862098E+03</rscale>
<asrwt>0</asrwt>
<pdfrwt beam="1">  1        2 0.35874147E+00 0.22862098E+03</pdfrwt>
<pdfrwt beam="2">  1       -2 0.74335197E-03 0.22862098E+03</pdfrwt>
<totfact> 0.16157516E+04</totfact>
</mgrwt>
</event>
<event>
 4    1  0.6782240E-004  0.2998552E+03  0.7818608E-02  0.1085313E+00
          2   -1    0    0  501    0  0.00000000000E+00  0.00000000000E+00  0.14217373980E+04  0.14217373980E+04  0.25500000000E-02 0.  1.
         -2   -1    0    0    0  501 -0.00000000000E+00 -0.00000000000E+00 -0.15810437366E+02  0.15810437572E+02  0.25500000000E-02 0. -1.
    5000001    1    1    2    0    0 -0.26187440837E+02 -0.12513255961E+03  0.63426315949E+03  0.65158475659E+03  0.77000000000E+02 0.  0.
   -5000001    1    1    2    0    0  0.26187440837E+02  0.12513255961E+03  0.77166380111E+03  0.78596307896E+03  0.77000000000E+02 0.  0.
<mgrwt>
<rscale>  0 0.29985523E+03</rscale>
<asrwt>0</asrwt>
<pdfrwt beam="1">  1        2 0.20310525E+00 0.29985523E+03</pdfrwt>
<pdfrwt beam="2">  1       -2 0.22586349E-02 0.29985523E+03</pdfrwt>
<totfact> 0.11069580E+04</totfact>
</mgrwt>
</event>
<event>
 4    1  0.6782240E-004  0.2118312E+03  0.7818608E-02  0.1140124E+00
         -2   -1    0    0    0  501 -0.00000000000E+00  0.00000000000E+00  0.73861474065E+01  0.73861478467E+01  0.25500000000E-02 0. -1.
          2   -1    0    0  501    0  0.00000000000E+00 -0.00000000000E+00 -0.15188051504E+04  0.15188051504E+04  0.25500000000E-02 0.  1.
    5000001    1    1    2    0    0  0.64648095618E+02 -0.64937117446E+01 -0.52030321797E+03  0.52996790770E+03  0.77000000000E+02 0.  0.
   -5000001    1    1    2    0    0 -0.64648095618E+02  0.64937117446E+01 -0.99111578507E+03  0.99622339060E+03  0.77000000000E+02 0.  0.
<mgrwt>
<rscale>  0 0.21183124E+03</rscale>
<asrwt>0</asrwt>
<pdfrwt beam="1">  1        2 0.21697197E+00 0.21183124E+03</pdfrwt>
<pdfrwt beam="2">  1       -2 0.10551649E-02 0.21183124E+03</pdfrwt>
<totfact> 0.29647290E+04</totfact>
</mgrwt>
</event>
<event>
 4    1  0.6782240E-004  0.2003388E+03  0.7818608E-02  0.1149453E+00
         -2   -1    0    0    0  501 -0.00000000000E+00  0.00000000000E+00  0.36179598596E+01  0.36179607583E+01  0.25500000000E-02 0. -1.
          2   -1    0    0  501    0  0.00000000000E+00 -0.00000000000E+00 -0.27733607364E+04  0.27733607364E+04  0.25500000000E-02 0.  1.
    5000001    1    1    2    0    0 -0.51685220857E+02 -0.37706925893E+02 -0.13373876965E+04  0.13411293841E+04  0.77000000000E+02 0.  0.
   -5000001    1    1    2    0    0  0.51685220857E+02  0.37706925893E+02 -0.14323550801E+04  0.14358493130E+04  0.77000000000E+02 0.  0.
<mgrwt>
<rscale>  0 0.20033880E+03</rscale>
<asrwt>0</asrwt>
<pdfrwt beam="1">  1        2 0.39619303E+00 0.20033880E+03</pdfrwt>
<pdfrwt beam="2">  1       -2 0.51685325E-03 0.20033880E+03</pdfrwt>
<totfact> 0.20034495E+04</totfact>
</mgrwt>
</event>
<event>
 4    1  0.6782240E-004  0.1944322E+03  0.7818608E-02  0.1154523E+00
         -2   -1    0    0    0  501 -0.00000000000E+00  0.00000000000E+00  0.90292066286E+01  0.90292069886E+01  0.25500000000E-02 0. -1.
          2   -1    0    0  501    0  0.00000000000E+00 -0.00000000000E+00 -0.10467115019E+04  0.10467115019E+04  0.25500000000E-02 0.  1.
    5000001    1    1    2    0    0 -0.54289645034E+02 -0.23969464149E+02 -0.51736552575E+03  0.52641997303E+03  0.77000000000E+02 0.  0.
   -5000001    1    1    2    0    0  0.54289645034E+02  0.23969464149E+02 -0.52031676956E+03  0.52932073590E+03  0.77000000000E+02 0.  0.
<mgrwt>
<rscale>  0 0.19443225E+03</rscale>
<asrwt>0</asrwt>
<pdfrwt beam="1">  1        2 0.14953014E+00 0.19443225E+03</pdfrwt>
<pdfrwt beam="2">  1       -2 0.12898873E-02 0.19443225E+03</pdfrwt>
<totfact> 0.39109536E+04</totfact>
</mgrwt>
</event>
<event>
 4    1  0.6782240E-004  0.2066834E+03  0.7818608E-02  0.1144220E+00
         -2   -1    0    0    0  501 -0.00000000000E+00  0.00000000000E+00  0.35165869545E+02  0.35165869638E+02  0.25500000000E-02 0. -1.
          2   -1    0    0  501    0  0.00000000000E+00 -0.00000000000E+00 -0.30368953000E+03  0.30368953001E+03  0.25500000000E-02 0.  1.
    5000001    1    1    2    0    0 -0.59098193933E+02 -0.11518842836E+02 -0.18925752992E+03  0.21300866860E+03  0.77000000000E+02 0.  0.
   -5000001    1    1    2    0    0  0.59098193933E+02  0.11518842836E+02 -0.79266130537E+02  0.12584673105E+03  0.77000000000E+02 0.  0.
<mgrwt>
<rscale>  0 0.20668339E+03</rscale>
<asrwt>0</asrwt>
<pdfrwt beam="1">  1        2 0.43384217E-01 0.20668339E+03</pdfrwt>
<pdfrwt beam="2">  1       -2 0.50236958E-02 0.20668339E+03</pdfrwt>
<totfact> 0.22013922E+04</totfact>
</mgrwt>
</event>
<event>
 4    1  0.6782240E-004  0.2238815E+03  0.7818608E-02  0.1131022E+00
         -2   -1    0    0    0  501 -0.00000000000E+00  0.00000000000E+00  0.98625286601E+01  0.98625289898E+01  0.25500000000E-02 0. -1.
          2   -1    0    0  501    0  0.00000000000E+00 -0.00000000000E+00 -0.12705390792E+04  0.12705390792E+04  0.25500000000E-02 0.  1.
    5000001    1    1    2    0    0  0.78025032246E+02 -0.19634195836E+02 -0.69512364070E+03  0.70398812715E+03  0.77000000000E+02 0.  0.
   -5000001    1    1    2    0    0 -0.78025032246E+02  0.19634195836E+02 -0.56555290984E+03  0.57641348105E+03  0.77000000000E+02 0.  0.
<mgrwt>
<rscale>  0 0.22388147E+03</rscale>
<asrwt>0</asrwt>
<pdfrwt beam="1">  1        2 0.18150548E+00 0.22388147E+03</pdfrwt>
<pdfrwt beam="2">  1       -2 0.14089335E-02 0.22388147E+03</pdfrwt>
<totfact> 0.26200347E+04</totfact>
</mgrwt>
</event>
<event>
 4    1  0.6782240E-004  0.5262152E+03  0.7818608E-02  0.1007154E+00
          2   -1    0    0  501    0  0.00000000000E+00  0.00000000000E+00  0.38463162639E+03  0.38463162640E+03  0.25500000000E-02 0.  1.
         -2   -1    0    0    0  501 -0.00000000000E+00 -0.00000000000E+00 -0.17997898773E+03  0.17997898774E+03  0.25500000000E-02 0. -1.
    5000001    1    1    2    0    0 -0.23025413881E+03 -0.36424357987E+02  0.20385008476E+03  0.31910430794E+03  0.77000000000E+02 0.  0.
   -5000001    1    1    2    0    0  0.23025413881E+03  0.36424357987E+02  0.80255390626E+00  0.24550630620E+03  0.77000000000E+02 0.  0.
<mgrwt>
<rscale>  0 0.52621521E+03</rscale>
<asrwt>0</asrwt>
<pdfrwt beam="1">  1        2 0.54947375E-01 0.52621521E+03</pdfrwt>
<pdfrwt beam="2">  1       -2 0.25711284E-01 0.52621521E+03</pdfrwt>
<totfact> 0.12302376E+03</totfact>
</mgrwt>
</event>
<event>
 4    1  0.6782240E-004  0.5868362E+03  0.7818608E-02  0.9933099E-01
         -2   -1    0    0    0  501 -0.00000000000E+00  0.00000000000E+00  0.73362592318E+02  0.73362592362E+02  0.25500000000E-02 0. -1.
          2   -1    0    0  501    0  0.00000000000E+00 -0.00000000000E+00 -0.11735435336E+04  0.11735435336E+04  0.25500000000E-02 0.  1.
    5000001    1    1    2    0    0  0.55691995534E+02 -0.26922437552E+03 -0.40626478304E+03  0.49655154484E+03  0.77000000000E+02 0.  0.
   -5000001    1    1    2    0    0 -0.55691995534E+02  0.26922437552E+03 -0.69391615820E+03  0.75035458109E+03  0.77000000000E+02 0.  0.
<mgrwt>
<rscale>  0 0.58683625E+03</rscale>
<asrwt>0</asrwt>
<pdfrwt beam="1">  1        2 0.16764906E+00 0.58683625E+03</pdfrwt>
<pdfrwt beam="2">  1       -2 0.10480371E-01 0.58683625E+03</pdfrwt>
<totfact> 0.14177198E+03</totfact>
</mgrwt>
</event>
<event>
 4    1  0.6782240E-004  0.1594570E+03  0.7818608E-02  0.1189311E+00
          2   -1    0    0  501    0  0.00000000000E+00  0.00000000000E+00  0.45790350904E+03  0.45790350905E+03  0.25500000000E-02 0.  1.
         -2   -1    0    0    0  501 -0.00000000000E+00 -0.00000000000E+00 -0.13882034551E+02  0.13882034786E+02  0.25500000000E-02 0. -1.
    5000001    1    1    2    0    0 -0.15216055173E+02 -0.64254022775E+01  0.25882466690E+03  0.27054024160E+03  0.77000000000E+02 0.  0.
   -5000001    1    1    2    0    0  0.15216055173E+02  0.64254022775E+01  0.18519680759E+03  0.20124530224E+03  0.77000000000E+02 0.  0.
<mgrwt>
<rscale>  0 0.15945698E+03</rscale>
<asrwt>0</asrwt>
<pdfrwt beam="1">  1        2 0.65414773E-01 0.15945698E+03</pdfrwt>
<pdfrwt beam="2">  1       -2 0.19831482E-02 0.15945698E+03</pdfrwt>
<totfact> 0.54907997E+04</totfact>
</mgrwt>
</event>
<event>
 4    1  0.6782240E-004  0.3111536E+03  0.7818608E-02  0.1079794E+00
          2   -1    0    0  501    0  0.00000000000E+00  0.00000000000E+00  0.29180393121E+03  0.29180393122E+03  0.25500000000E-02 0.  1.
         -2   -1    0    0    0  501 -0.00000000000E+00 -0.00000000000E+00 -0.82946591434E+02  0.82946591473E+02  0.25500000000E-02 0. -1.
    5000001    1    1    2    0    0 -0.11945853207E+03 -0.38813381452E+02  0.44229345541E+02  0.15382475247E+03  0.77000000000E+02 0.  0.
   -5000001    1    1    2    0    0  0.11945853207E+03  0.38813381452E+02  0.16462799424E+03  0.22092577023E+03  0.77000000000E+02 0.  0.
<mgrwt>
<rscale>  0 0.31115360E+03</rscale>
<asrwt>0</asrwt>
<pdfrwt beam="1">  1        2 0.41686275E-01 0.31115360E+03</pdfrwt>
<pdfrwt beam="2">  1       -2 0.11849513E-01 0.31115360E+03</pdfrwt>
<totfact> 0.61564806E+03</totfact>
</mgrwt>
</event>
<event>
 4    1  0.6782240E-004  0.2890705E+03  0.7818608E-02  0.1090835E+00
          2   -1    0    0  501    0  0.00000000000E+00  0.00000000000E+00  0.78978164864E+03  0.78978164864E+03  0.25500000000E-02 0.  1.
         -2   -1    0    0    0  501 -0.00000000000E+00 -0.00000000000E+00 -0.26450896387E+02  0.26450896510E+02  0.25500000000E-02 0. -1.
    5000001    1    1    2    0    0  0.11620008871E+03  0.24214601963E+02  0.29825424102E+03  0.33011119316E+03  0.77000000000E+02 0.  0.
   -5000001    1    1    2    0    0 -0.11620008871E+03 -0.24214601963E+02  0.46507651122E+03  0.48612135199E+03  0.77000000000E+02 0.  0.
<mgrwt>
<rscale>  0 0.28907046E+03</rscale>
<asrwt>0</asrwt>
<pdfrwt beam="1">  1        2 0.11282593E+00 0.28907046E+03</pdfrwt>
<pdfrwt beam="2">  1       -2 0.37787000E-02 0.28907046E+03</pdfrwt>
<totfact> 0.11843732E+04</totfact>
</mgrwt>
</event>
<event>
 4    1  0.6782240E-004  0.2645582E+03  0.7818608E-02  0.1104435E+00
          2   -1    0    0  501    0  0.00000000000E+00  0.00000000000E+00  0.25963115481E+03  0.25963115482E+03  0.25500000000E-02 0.  1.
         -2   -1    0    0    0  501 -0.00000000000E+00 -0.00000000000E+00 -0.67394702237E+02  0.67394702285E+02  0.25500000000E-02 0. -1.
    5000001    1    1    2    0    0  0.80648971041E+02  0.65881463268E+02  0.12938205823E+03  0.18306649263E+03  0.77000000000E+02 0.  0.
   -5000001    1    1    2    0    0 -0.80648971041E+02 -0.65881463268E+02  0.62854394342E+02  0.14395936448E+03  0.77000000000E+02 0.  0.
<mgrwt>
<rscale>  0 0.26455823E+03</rscale>
<asrwt>0</asrwt>
<pdfrwt beam="1">  1        2 0.37090164E-01 0.26455823E+03</pdfrwt>
<pdfrwt beam="2">  1       -2 0.96278148E-02 0.26455823E+03</pdfrwt>
<totfact> 0.96769395E+03</totfact>
</mgrwt>
</event>
<event>
 4    1  0.6782240E-004  0.2870054E+03  0.7818608E-02  0.1091923E+00
         -2   -1    0    0    0  501 -0.00000000000E+00  0.00000000000E+00  0.35890697441E+02  0.35890697532E+02  0.25500000000E-02 0. -1.
          2   -1    0    0  501    0  0.00000000000E+00 -0.00000000000E+00 -0.57377038688E+03  0.57377038688E+03  0.25500000000E-02 0.  1.
    5000001    1    1    2    0    0 -0.14597873710E+02 -0.10504559826E+03 -0.39309914202E+03  0.41437134444E+03  0.77000000000E+02 0.  0.
   -5000001    1    1    2    0    0  0.14597873710E+02  0.10504559826E+03 -0.14478054741E+03  0.19528973998E+03  0.77000000000E+02 0.  0.
<mgrwt>
<rscale>  0 0.28700536E+03</rscale>
<asrwt>0</asrwt>
<pdfrwt beam="1">  1        2 0.81967192E-01 0.28700536E+03</pdfrwt>
<pdfrwt beam="2">  1       -2 0.51272429E-02 0.28700536E+03</pdfrwt>
<totfact> 0.10876269E+04</totfact>
</mgrwt>
</event>
<event>
 4    1  0.6782240E-004  0.2592404E+03  0.7818608E-02  0.1107600E+00
          2   -1    0    0  501    0  0.00000000000E+00  0.00000000000E+00  0.11911983570E+03  0.11911983573E+03  0.25500000000E-02 0.  1.
         -2   -1    0    0    0  501 -0.00000000000E+00 -0.00000000000E+00 -0.14104618310E+03  0.14104618312E+03  0.25500000000E-02 0. -1.
    5000001    1    1    2    0    0 -0.71191415536E+02  0.29398944927E+02  0.59572070707E+02  0.12413841959E+03  0.77000000000E+02 0.  0.
   -5000001    1    1    2    0    0  0.71191415536E+02 -0.29398944927E+02 -0.81498418103E+02  0.13602759927E+03  0.77000000000E+02 0.  0.
<mgrwt>
<rscale>  0 0.25924041E+03</rscale>
<asrwt>0</asrwt>
<pdfrwt beam="1">  1        2 0.17017119E-01 0.25924041E+03</pdfrwt>
<pdfrwt beam="2">  1       -2 0.20149455E-01 0.25924041E+03</pdfrwt>
<totfact> 0.68784718E+03</totfact>
</mgrwt>
</event>
<event>
 4    1  0.6782240E-004  0.2701386E+03  0.7818608E-02  0.1101200E+00
         -2   -1    0    0    0  501 -0.00000000000E+00  0.00000000000E+00  0.14316884763E+02  0.14316884990E+02  0.25500000000E-02 0. -1.
          2   -1    0    0  501    0  0.00000000000E+00 -0.00000000000E+00 -0.12742795014E+04  0.12742795014E+04  0.25500000000E-02 0.  1.
    5000001    1    1    2    0    0  0.14650309575E+02  0.10072777086E+03 -0.84084038672E+03  0.85047179338E+03  0.77000000000E+02 0.  0.
   -5000001    1    1    2    0    0 -0.14650309575E+02 -0.10072777086E+03 -0.41912222993E+03  0.43812459303E+03  0.77000000000E+02 0.  0.
<mgrwt>
<rscale>  0 0.27013858E+03</rscale>
<asrwt>0</asrwt>
<pdfrwt beam="1">  1        2 0.18203986E+00 0.27013858E+03</pdfrwt>
<pdfrwt beam="2">  1       -2 0.20452701E-02 0.27013858E+03</pdfrwt>
<totfact> 0.15250447E+04</totfact>
</mgrwt>
</event>
<event>
 4    1  0.6782240E-004  0.5089143E+03  0.7818608E-02  0.1011478E+00
          2   -1    0    0  501    0  0.00000000000E+00  0.00000000000E+00  0.95182990948E+03  0.95182990948E+03  0.25500000000E-02 0.  1.
         -2   -1    0    0    0  501 -0.00000000000E+00 -0.00000000000E+00 -0.68025214206E+02  0.68025214254E+02  0.25500000000E-02 0. -1.
    5000001    1    1    2    0    0 -0.22683248879E+03 -0.83986868789E+02  0.40646746564E+03  0.47921975411E+03  0.77000000000E+02 0.  0.
   -5000001    1    1    2    0    0  0.22683248879E+03  0.83986868789E+02  0.47733722963E+03  0.54063536963E+03  0.77000000000E+02 0.  0.
<mgrwt>
<rscale>  0 0.50891427E+03</rscale>
<asrwt>0</asrwt>
<pdfrwt beam="1">  1        2 0.13597570E+00 0.50891427E+03</pdfrwt>
<pdfrwt beam="2">  1       -2 0.97178879E-02 0.50891427E+03</pdfrwt>
<totfact> 0.21682758E+03</totfact>
</mgrwt>
</event>
<event>
 4    1  0.6782240E-004  0.1938888E+03  0.7818608E-02  0.1155000E+00
         -2   -1    0    0    0  501 -0.00000000000E+00  0.00000000000E+00  0.26407967706E+01  0.26407980017E+01  0.25500000000E-02 0. -1.
          2   -1    0    0  501    0  0.00000000000E+00 -0.00000000000E+00 -0.35588556712E+04  0.35588556712E+04  0.25500000000E-02 0.  1.
    5000001    1    1    2    0    0 -0.52775847709E+02 -0.24202674784E+02 -0.19600946405E+04  0.19624655562E+04  0.77000000000E+02 0.  0.
   -5000001    1    1    2    0    0  0.52775847709E+02  0.24202674784E+02 -0.15961202340E+04  0.15990309130E+04  0.77000000000E+02 0.  0.
<mgrwt>
<rscale>  0 0.19388880E+03</rscale>
<asrwt>0</asrwt>
<pdfrwt beam="1">  1        2 0.50840488E+00 0.19388880E+03</pdfrwt>
<pdfrwt beam="2">  1       -2 0.37725905E-03 0.19388880E+03</pdfrwt>
<totfact> 0.11805888E+04</totfact>
</mgrwt>
</event>
<event>
 4    1  0.6782240E-004  0.1789940E+03  0.7818608E-02  0.1168780E+00
          2   -1    0    0  501    0  0.00000000000E+00  0.00000000000E+00  0.14767685825E+03  0.14767685827E+03  0.25500000000E-02 0.  1.
         -2   -1    0    0    0  501 -0.00000000000E+00 -0.00000000000E+00 -0.54238077862E+02  0.54238077922E+02  0.25500000000E-02 0. -1.
    5000001    1    1    2    0    0 -0.36691756210E+02 -0.23995936151E+02  0.60926564629E+02  0.10753202408E+03  0.77000000000E+02 0.  0.
   -5000001    1    1    2    0    0  0.36691756210E+02  0.23995936151E+02  0.32512215761E+02  0.94382912114E+02  0.77000000000E+02 0.  0.
<mgrwt>
<rscale>  0 0.17899395E+03</rscale>
<asrwt>0</asrwt>
<pdfrwt beam="1">  1        2 0.21096694E-01 0.17899395E+03</pdfrwt>
<pdfrwt beam="2">  1       -2 0.77482969E-02 0.17899395E+03</pdfrwt>
<totfact> 0.24670810E+04</totfact>
</mgrwt>
</event>
<event>
 4    1  0.6782240E-004  0.2566019E+03  0.7818608E-02  0.1109202E+00
          2   -1    0    0  501    0  0.00000000000E+00  0.00000000000E+00  0.29898057921E+04  0.29898057921E+04  0.25500000000E-02 0.  1.
         -2   -1    0    0    0  501 -0.00000000000E+00 -0.00000000000E+00 -0.55057546490E+01  0.55057552395E+01  0.25500000000E-02 0. -1.
    5000001    1    1    2    0    0 -0.45695296445E+02  0.91882319839E+02  0.15074465756E+04  0.15128960966E+04  0.77000000000E+02 0.  0.
   -5000001    1    1    2    0    0  0.45695296445E+02 -0.91882319839E+02  0.14768534619E+04  0.14824154508E+04  0.77000000000E+02 0.  0.
<mgrwt>
<rscale>  0 0.25660193E+03</rscale>
<asrwt>0</asrwt>
<pdfrwt beam="1">  1        2 0.42711358E+00 0.25660193E+03</pdfrwt>
<pdfrwt beam="2">  1       -2 0.78653924E-03 0.25660193E+03</pdfrwt>
<totfact> 0.84925964E+03</totfact>
</mgrwt>
</event>
<event>
 4    1  0.6782240E-004  0.1935570E+03  0.7818608E-02  0.1155292E+00
          2   -1    0    0  501    0  0.00000000000E+00  0.00000000000E+00  0.21022476695E+03  0.21022476697E+03  0.25500000000E-02 0.  1.
         -2   -1    0    0    0  501 -0.00000000000E+00 -0.00000000000E+00 -0.44552671854E+02  0.44552671927E+02  0.25500000000E-02 0. -1.
    5000001    1    1    2    0    0 -0.46252078897E+02  0.32406214915E+02  0.10355071179E+03  0.14085867910E+03  0.77000000000E+02 0.  0.
   -5000001    1    1    2    0    0  0.46252078897E+02 -0.32406214915E+02  0.62121383310E+02  0.11391875979E+03  0.77000000000E+02 0.  0.
<mgrwt>
<rscale>  0 0.19355697E+03</rscale>
<asrwt>0</asrwt>
<pdfrwt beam="1">  1        2 0.30032109E-01 0.19355697E+03</pdfrwt>
<pdfrwt beam="2">  1       -2 0.63646675E-02 0.19355697E+03</pdfrwt>
<totfact> 0.22722413E+04</totfact>
</mgrwt>
</event>
<event>
 4    1  0.6782240E-004  0.2804924E+03  0.7818608E-02  0.1095420E+00
         -2   -1    0    0    0  501 -0.00000000000E+00  0.00000000000E+00  0.61419760514E+02  0.61419760567E+02  0.25500000000E-02 0. -1.
          2   -1    0    0  501    0  0.00000000000E+00 -0.00000000000E+00 -0.32023895092E+03  0.32023895093E+03  0.25500000000E-02 0.  1.
    5000001    1    1    2    0    0  0.74713019679E+02 -0.85091098262E+02 -0.17062407616E+03  0.21877866825E+03  0.77000000000E+02 0.  0.
   -5000001    1    1    2    0    0 -0.74713019679E+02  0.85091098262E+02 -0.88195114240E+02  0.16288004325E+03  0.77000000000E+02 0.  0.
<mgrwt>
<rscale>  0 0.28049242E+03</rscale>
<asrwt>0</asrwt>
<pdfrwt beam="1">  1        2 0.45748421E-01 0.28049242E+03</pdfrwt>
<pdfrwt beam="2">  1       -2 0.87742517E-02 0.28049242E+03</pdfrwt>
<totfact> 0.89601066E+03</totfact>
</mgrwt>
</event>
<event>
 4    1  0.6782240E-004  0.5508018E+03  0.7818608E-02  0.1001309E+00
          2   -1    0    0  501    0  0.00000000000E+00  0.00000000000E+00  0.20175343772E+04  0.20175343772E+04  0.25500000000E-02 0.  1.
         -2   -1    0    0    0  501 -0.00000000000E+00 -0.00000000000E+00 -0.37593244349E+02  0.37593244435E+02  0.25500000000E-02 0. -1.
    5000001    1    1    2    0    0  0.24130063160E+03  0.65783909524E+02  0.13101364939E+04  0.13360165232E+04  0.77000000000E+02 0.  0.
   -5000001    1    1    2    0    0 -0.24130063160E+03 -0.65783909524E+02  0.66980463897E+03  0.71911109847E+03  0.77000000000E+02 0.  0.
<mgrwt>
<rscale>  0 0.55080183E+03</rscale>
<asrwt>0</asrwt>
<pdfrwt beam="1">  1        2 0.28821925E+00 0.55080183E+03</pdfrwt>
<pdfrwt beam="2">  1       -2 0.53704624E-02 0.55080183E+03</pdfrwt>
<totfact> 0.14943204E+03</totfact>
</mgrwt>
</event>
<event>
 4    1  0.6782240E-004  0.2875509E+03  0.7818608E-02  0.1091635E+00
         -2   -1    0    0    0  501 -0.00000000000E+00  0.00000000000E+00  0.18271259091E+02  0.18271259269E+02  0.25500000000E-02 0. -1.
          2   -1    0    0  501    0  0.00000000000E+00 -0.00000000000E+00 -0.11313607711E+04  0.11313607711E+04  0.25500000000E-02 0.  1.
    5000001    1    1    2    0    0  0.58599495141E+02 -0.54730780856E+02 -0.92106667645E+03  0.92775114210E+03  0.77000000000E+02 0.  0.
   -5000001    1    1    2    0    0 -0.58599495141E+02  0.54730780856E+02 -0.19202283557E+03  0.22188088828E+03  0.77000000000E+02 0.  0.
<mgrwt>
<rscale>  0 0.28755094E+03</rscale>
<asrwt>0</asrwt>
<pdfrwt beam="1">  1        2 0.16162292E+00 0.28755094E+03</pdfrwt>
<pdfrwt beam="2">  1       -2 0.26101806E-02 0.28755094E+03</pdfrwt>
<totfact> 0.12744046E+04</totfact>
</mgrwt>
</event>
<event>
 4    1  0.6782240E-004  0.4935678E+03  0.7818608E-02  0.1015472E+00
         -2   -1    0    0    0  501 -0.00000000000E+00  0.00000000000E+00  0.50732521893E+02  0.50732521957E+02  0.25500000000E-02 0. -1.
          2   -1    0    0  501    0  0.00000000000E+00 -0.00000000000E+00 -0.12004584694E+04  0.12004584694E+04  0.25500000000E-02 0.  1.
    5000001    1    1    2    0    0  0.16768734205E+03  0.13480260985E+03 -0.81107344505E+03  0.84265053348E+03  0.77000000000E+02 0.  0.
   -5000001    1    1    2    0    0 -0.16768734205E+03 -0.13480260985E+03 -0.33865250248E+03  0.40854045790E+03  0.77000000000E+02 0.  0.
<mgrwt>
<rscale>  0 0.49356777E+03</rscale>
<asrwt>0</asrwt>
<pdfrwt beam="1">  1        2 0.17149405E+00 0.49356777E+03</pdfrwt>
<pdfrwt beam="2">  1       -2 0.72475039E-02 0.49356777E+03</pdfrwt>
<totfact> 0.24746380E+03</totfact>
</mgrwt>
</event>
<event>
 4    1  0.6782240E-004  0.1979010E+03  0.7818608E-02  0.1151522E+00
          2   -1    0    0  501    0  0.00000000000E+00  0.00000000000E+00  0.31790911614E+03  0.31790911615E+03  0.25500000000E-02 0.  1.
         -2   -1    0    0    0  501 -0.00000000000E+00 -0.00000000000E+00 -0.30798733644E+02  0.30798733750E+02  0.25500000000E-02 0. -1.
    5000001    1    1    2    0    0 -0.12046335113E+02  0.54158032025E+02  0.19289182439E+03  0.21497549288E+03  0.77000000000E+02 0.  0.
   -5000001    1    1    2    0    0  0.12046335113E+02 -0.54158032025E+02  0.94218558102E+02  0.13373235702E+03  0.77000000000E+02 0.  0.
<mgrwt>
<rscale>  0 0.19790097E+03</rscale>
<asrwt>0</asrwt>
<pdfrwt beam="1">  1        2 0.45415590E-01 0.19790097E+03</pdfrwt>
<pdfrwt beam="2">  1       -2 0.43998189E-02 0.19790097E+03</pdfrwt>
<totfact> 0.25517434E+04</totfact>
</mgrwt>
</event>
<event>
 4    1  0.6782240E-004  0.1601275E+03  0.7818608E-02  0.1188553E+00
          2   -1    0    0  501    0  0.00000000000E+00  0.00000000000E+00  0.42664484513E+01  0.42664492134E+01  0.25500000000E-02 0.  1.
         -2   -1    0    0    0  501 -0.00000000000E+00 -0.00000000000E+00 -0.15024684462E+04  0.15024684462E+04  0.25500000000E-02 0. -1.
    5000001    1    1    2    0    0 -0.21096272596E+02 -0.21404098476E+01 -0.80197143154E+03  0.80593846606E+03  0.77000000000E+02 0.  0.
   -5000001    1    1    2    0    0  0.21096272596E+02  0.21404098476E+01 -0.69623056622E+03  0.70079642937E+03  0.77000000000E+02 0.  0.
<mgrwt>
<rscale>  0 0.16012751E+03</rscale>
<asrwt>0</asrwt>
<pdfrwt beam="1">  1        2 0.60949365E-03 0.16012751E+03</pdfrwt>
<pdfrwt beam="2">  1       -2 0.21463801E+00 0.16012751E+03</pdfrwt>
<totfact> 0.32695339E+03</totfact>
</mgrwt>
</event>
<event>
 4    1  0.6782240E-004  0.1927412E+03  0.7818608E-02  0.1156012E+00
         -2   -1    0    0    0  501 -0.00000000000E+00  0.00000000000E+00  0.96283793068E+01  0.96283796445E+01  0.25500000000E-02 0. -1.
          2   -1    0    0  501    0  0.00000000000E+00 -0.00000000000E+00 -0.96457491053E+03  0.96457491054E+03  0.25500000000E-02 0.  1.
    5000001    1    1    2    0    0 -0.27112811330E+02  0.25054641794E+02 -0.70325865738E+03  0.70842401060E+03  0.77000000000E+02 0.  0.
   -5000001    1    1    2    0    0  0.27112811330E+02 -0.25054641794E+02 -0.25168787384E+03  0.26577927958E+03  0.77000000000E+02 0.  0.
<mgrwt>
<rscale>  0 0.19274121E+03</rscale>
<asrwt>0</asrwt>
<pdfrwt beam="1">  1        2 0.13779635E+00 0.19274121E+03</pdfrwt>
<pdfrwt beam="2">  1       -2 0.13754834E-02 0.19274121E+03</pdfrwt>
<totfact> 0.39754561E+04</totfact>
</mgrwt>
</event>
<event>
 4    1  0.6782240E-004  0.2314099E+03  0.7818608E-02  0.1125651E+00
         -2   -1    0    0    0  501 -0.00000000000E+00  0.00000000000E+00  0.28819047734E+02  0.28819047847E+02  0.25500000000E-02 0. -1.
          2   -1    0    0  501    0  0.00000000000E+00 -0.00000000000E+00 -0.46454126756E+03  0.46454126757E+03  0.25500000000E-02 0.  1.
    5000001    1    1    2    0    0  0.27232860056E+02  0.79355007438E+02 -0.26154274415E+03  0.28525857198E+03  0.77000000000E+02 0.  0.
   -5000001    1    1    2    0    0 -0.27232860056E+02 -0.79355007438E+02 -0.17417947568E+03  0.20810174343E+03  0.77000000000E+02 0.  0.
<mgrwt>
<rscale>  0 0.23140991E+03</rscale>
<asrwt>0</asrwt>
<pdfrwt beam="1">  1        2 0.66363034E-01 0.23140991E+03</pdfrwt>
<pdfrwt beam="2">  1       -2 0.41170071E-02 0.23140991E+03</pdfrwt>
<totfact> 0.18956411E+04</totfact>
</mgrwt>
</event>
<event>
 4    1  0.6782240E-004  0.2688172E+03  0.7818608E-02  0.1101958E+00
         -2   -1    0    0    0  501 -0.00000000000E+00  0.00000000000E+00  0.13194388225E+03  0.13194388227E+03  0.25500000000E-02 0. -1.
          2   -1    0    0  501    0  0.00000000000E+00 -0.00000000000E+00 -0.13691931406E+03  0.13691931409E+03  0.25500000000E-02 0.  1.
    5000001    1    1    2    0    0  0.50481604337E+02 -0.76957871189E+02 -0.63043601817E+02  0.13555221151E+03  0.77000000000E+02 0.  0.
   -5000001    1    1    2    0    0 -0.50481604337E+02  0.76957871189E+02  0.58068170000E+02  0.13331098485E+03  0.77000000000E+02 0.  0.
<mgrwt>
<rscale>  0 0.26881716E+03</rscale>
<asrwt>0</asrwt>
<pdfrwt beam="1">  1        2 0.19559902E-01 0.26881716E+03</pdfrwt>
<pdfrwt beam="2">  1       -2 0.18849126E-01 0.26881716E+03</pdfrwt>
<totfact> 0.65696255E+03</totfact>
</mgrwt>
</event>
<event>
 4    1  0.6782240E-004  0.3225395E+03  0.7818608E-02  0.1074486E+00
          2   -1    0    0  501    0  0.00000000000E+00  0.00000000000E+00  0.47576811863E+03  0.47576811863E+03  0.25500000000E-02 0.  1.
         -2   -1    0    0    0  501 -0.00000000000E+00 -0.00000000000E+00 -0.54665158430E+02  0.54665158489E+02  0.25500000000E-02 0. -1.
    5000001    1    1    2    0    0 -0.94097259643E+02 -0.51397115396E+02  0.58192909464E+02  0.14426147253E+03  0.77000000000E+02 0.  0.
   -5000001    1    1    2    0    0  0.94097259643E+02  0.51397115396E+02  0.36291005073E+03  0.38617180460E+03  0.77000000000E+02 0.  0.
<mgrwt>
<rscale>  0 0.32253955E+03</rscale>
<asrwt>0</asrwt>
<pdfrwt beam="1">  1        2 0.67966878E-01 0.32253955E+03</pdfrwt>
<pdfrwt beam="2">  1       -2 0.78093079E-02 0.32253955E+03</pdfrwt>
<totfact> 0.70331917E+03</totfact>
</mgrwt>
</event>
<event>
 4    1  0.6782240E-004  0.5788098E+03  0.7818608E-02  0.9950371E-01
          2   -1    0    0  501    0  0.00000000000E+00  0.00000000000E+00  0.39234995074E+03  0.39234995075E+03  0.25500000000E-02 0. -1.
         -2   -1    0    0    0  501 -0.00000000000E+00 -0.00000000000E+00 -0.21347062277E+03  0.21347062279E+03  0.25500000000E-02 0.  1.
    5000001    1    1    2    0    0  0.21893565994E+03  0.16809678066E+03  0.13178552246E+03  0.31541365664E+03  0.77000000000E+02 0.  0.
   -5000001    1    1    2    0    0 -0.21893565994E+03 -0.16809678066E+03  0.47093805507E+02  0.29040691690E+03  0.77000000000E+02 0.  0.
<mgrwt>
<rscale>  0 0.57880977E+03</rscale>
<asrwt>0</asrwt>
<pdfrwt beam="1">  1        2 0.56049992E-01 0.57880977E+03</pdfrwt>
<pdfrwt beam="2">  1       -2 0.30495804E-01 0.57880977E+03</pdfrwt>
<totfact> 0.88131933E+02</totfact>
</mgrwt>
</event>
<event>
 4    1  0.6782240E-004  0.2470412E+03  0.7818608E-02  0.1115189E+00
          2   -1    0    0  501    0  0.00000000000E+00  0.00000000000E+00  0.12115369444E+03  0.12115369447E+03  0.25500000000E-02 0.  1.
         -2   -1    0    0    0  501 -0.00000000000E+00 -0.00000000000E+00 -0.12593369740E+03  0.12593369743E+03  0.25500000000E-02 0. -1.
    5000001    1    1    2    0    0 -0.95530830774E+02  0.13321465402E+02 -0.73640232112E+01  0.12363992036E+03  0.77000000000E+02 0.  0.
   -5000001    1    1    2    0    0  0.95530830774E+02 -0.13321465402E+02  0.25840202514E+01  0.12344747154E+03  0.77000000000E+02 0.  0.
<mgrwt>
<rscale>  0 0.24704115E+03</rscale>
<asrwt>0</asrwt>
<pdfrwt beam="1">  1        2 0.17307671E-01 0.24704115E+03</pdfrwt>
<pdfrwt beam="2">  1       -2 0.17990528E-01 0.24704115E+03</pdfrwt>
<totfact> 0.81565355E+03</totfact>
</mgrwt>
</event>
<event>
 4    1  0.6782240E-004  0.2089655E+03  0.7818608E-02  0.1142388E+00
          2   -1    0    0  501    0  0.00000000000E+00  0.00000000000E+00  0.36915666520E+03  0.36915666521E+03  0.25500000000E-02 0.  1.
         -2   -1    0    0    0  501 -0.00000000000E+00 -0.00000000000E+00 -0.29571835785E+02  0.29571835895E+02  0.25500000000E-02 0. -1.
    5000001    1    1    2    0    0  0.66816092972E+01  0.59712401183E+02  0.24060930481E+03  0.25967682284E+03  0.77000000000E+02 0.  0.
   -5000001    1    1    2    0    0 -0.66816092972E+01 -0.59712401183E+02  0.98975524604E+02  0.13905167827E+03  0.77000000000E+02 0.  0.
<mgrwt>
<rscale>  0 0.20896545E+03</rscale>
<asrwt>0</asrwt>
<pdfrwt beam="1">  1        2 0.52736670E-01 0.20896545E+03</pdfrwt>
<pdfrwt beam="2">  1       -2 0.42245477E-02 0.20896545E+03</pdfrwt>
<totfact> 0.23211286E+04</totfact>
</mgrwt>
</event>
<event>
 4    1  0.6782240E-004  0.2802250E+03  0.7818608E-02  0.1095566E+00
          2   -1    0    0  501    0  0.00000000000E+00  0.00000000000E+00  0.22036228020E+04  0.22036228020E+04  0.25500000000E-02 0.  1.
         -2   -1    0    0    0  501 -0.00000000000E+00 -0.00000000000E+00 -0.89087426253E+01  0.89087429903E+01  0.25500000000E-02 0. -1.
    5000001    1    1    2    0    0  0.73392260888E+02  0.80346769968E+02  0.75679572475E+03  0.76844700299E+03  0.77000000000E+02 0.  0.
   -5000001    1    1    2    0    0 -0.73392260888E+02 -0.80346769968E+02  0.14379183346E+04  0.14440845420E+04  0.77000000000E+02 0.  0.
<mgrwt>
<rscale>  0 0.28022497E+03</rscale>
<asrwt>0</asrwt>
<pdfrwt beam="1">  1        2 0.31480368E+00 0.28022497E+03</pdfrwt>
<pdfrwt beam="2">  1       -2 0.12726758E-02 0.28022497E+03</pdfrwt>
<totfact> 0.10543171E+04</totfact>
</mgrwt>
</event>
<event>
 4    1  0.6782240E-004  0.1965761E+03  0.7818608E-02  0.1152660E+00
          2   -1    0    0  501    0  0.00000000000E+00  0.00000000000E+00  0.47735508971E+03  0.47735508972E+03  0.25500000000E-02 0.  1.
         -2   -1    0    0    0  501 -0.00000000000E+00 -0.00000000000E+00 -0.20237636638E+02  0.20237636799E+02  0.25500000000E-02 0. -1.
    5000001    1    1    2    0    0  0.13484596468E+02  0.56820227328E+02  0.18319503923E+03  0.20712265683E+03  0.77000000000E+02 0.  0.
   -5000001    1    1    2    0    0 -0.13484596468E+02 -0.56820227328E+02  0.27392241384E+03  0.29047006968E+03  0.77000000000E+02 0.  0.
<mgrwt>
<rscale>  0 0.19657608E+03</rscale>
<asrwt>0</asrwt>
<pdfrwt beam="1">  1        2 0.68193565E-01 0.19657608E+03</pdfrwt>
<pdfrwt beam="2">  1       -2 0.28910918E-02 0.19657608E+03</pdfrwt>
<totfact> 0.30791899E+04</totfact>
</mgrwt>
</event>
<event>
 4    1  0.6782240E-004  0.2294092E+03  0.7818608E-02  0.1127056E+00
          2   -1    0    0  501    0  0.00000000000E+00  0.00000000000E+00  0.13704354832E+03  0.13704354834E+03  0.25500000000E-02 0.  1.
         -2   -1    0    0    0  501 -0.00000000000E+00 -0.00000000000E+00 -0.96007013945E+02  0.96007013979E+02  0.25500000000E-02 0. -1.
    5000001    1    1    2    0    0 -0.76878191501E+02 -0.62234466195E+01  0.56851232062E+02  0.12292294417E+03  0.77000000000E+02 0.  0.
   -5000001    1    1    2    0    0  0.76878191501E+02  0.62234466195E+01 -0.15814697690E+02  0.11012761815E+03  0.77000000000E+02 0.  0.
<mgrwt>
<rscale>  0 0.22940917E+03</rscale>
<asrwt>0</asrwt>
<pdfrwt beam="1">  1        2 0.19577650E-01 0.22940917E+03</pdfrwt>
<pdfrwt beam="2">  1       -2 0.13715288E-01 0.22940917E+03</pdfrwt>
<totfact> 0.11049517E+04</totfact>
</mgrwt>
</event>
<event>
 4    1  0.6782240E-004  0.2518634E+03  0.7818608E-02  0.1112133E+00
         -2   -1    0    0    0  501 -0.00000000000E+00  0.00000000000E+00  0.13695280071E+02  0.13695280308E+02  0.25500000000E-02 0. -1.
          2   -1    0    0  501    0  0.00000000000E+00 -0.00000000000E+00 -0.11579750891E+04  0.11579750891E+04  0.25500000000E-02 0.  1.
    5000001    1    1    2    0    0 -0.44930673792E+02  0.88698457206E+02 -0.60286131179E+03  0.61583840657E+03  0.77000000000E+02 0.  0.
   -5000001    1    1    2    0    0  0.44930673792E+02 -0.88698457206E+02 -0.54141849721E+03  0.55583196281E+03  0.77000000000E+02 0.  0.
<mgrwt>
<rscale>  0 0.25186340E+03</rscale>
<asrwt>0</asrwt>
<pdfrwt beam="1">  1        2 0.16542495E+00 0.25186340E+03</pdfrwt>
<pdfrwt beam="2">  1       -2 0.19564693E-02 0.25186340E+03</pdfrwt>
<totfact> 0.18754356E+04</totfact>
</mgrwt>
</event>
<event>
 4    1  0.6782240E-004  0.3315766E+03  0.7818608E-02  0.1070441E+00
          2   -1    0    0  501    0  0.00000000000E+00  0.00000000000E+00  0.15231510830E+03  0.15231510832E+03  0.25500000000E-02 0.  1.
         -2   -1    0    0    0  501 -0.00000000000E+00 -0.00000000000E+00 -0.18045323843E+03  0.18045323845E+03  0.25500000000E-02 0. -1.
    5000001    1    1    2    0    0 -0.99022396499E+02  0.74706769655E+02  0.64764004964E+02  0.15971822933E+03  0.77000000000E+02 0.  0.
   -5000001    1    1    2    0    0  0.99022396499E+02 -0.74706769655E+02 -0.92902135100E+02  0.17305011744E+03  0.77000000000E+02 0.  0.
<mgrwt>
<rscale>  0 0.33157656E+03</rscale>
<asrwt>0</asrwt>
<pdfrwt beam="1">  1        2 0.21759301E-01 0.33157656E+03</pdfrwt>
<pdfrwt beam="2">  1       -2 0.25779034E-01 0.33157656E+03</pdfrwt>
<totfact> 0.33991117E+03</totfact>
</mgrwt>
</event>
<event>
 4    1  0.6782240E-004  0.4049125E+03  0.7818608E-02  0.1042092E+00
          2   -1    0    0  501    0  0.00000000000E+00  0.00000000000E+00  0.67972572505E+03  0.67972572505E+03  0.25500000000E-02 0.  1.
         -2   -1    0    0    0  501 -0.00000000000E+00 -0.00000000000E+00 -0.60301575572E+02  0.60301575626E+02  0.25500000000E-02 0. -1.
    5000001    1    1    2    0    0 -0.13378462237E+03  0.11489425413E+03  0.42472920431E+03  0.46628629811E+03  0.77000000000E+02 0.  0.
   -5000001    1    1    2    0    0  0.13378462237E+03 -0.11489425413E+03  0.19469494517E+03  0.27374100257E+03  0.77000000000E+02 0.  0.
<mgrwt>
<rscale>  0 0.40491250E+03</rscale>
<asrwt>0</asrwt>
<pdfrwt beam="1">  1        2 0.97103670E-01 0.40491250E+03</pdfrwt>
<pdfrwt beam="2">  1       -2 0.86145113E-02 0.40491250E+03</pdfrwt>
<totfact> 0.40265172E+03</totfact>
</mgrwt>
</event>
<event>
 4    1  0.6782240E-004  0.5296585E+03  0.7818608E-02  0.1006315E+00
          2   -1    0    0  501    0  0.00000000000E+00  0.00000000000E+00  0.11951059675E+04  0.11951059676E+04  0.25500000000E-02 0.  1.
         -2   -1    0    0    0  501 -0.00000000000E+00 -0.00000000000E+00 -0.58684786378E+02  0.58684786433E+02  0.25500000000E-02 0. -1.
    5000001    1    1    2    0    0  0.12663289423E+03  0.17983554526E+03  0.27039088009E+03  0.35695509701E+03  0.77000000000E+02 0.  0.
   -5000001    1    1    2    0    0 -0.12663289423E+03 -0.17983554526E+03  0.86603030108E+03  0.89683565698E+03  0.77000000000E+02 0.  0.
<mgrwt>
<rscale>  0 0.52965853E+03</rscale>
<asrwt>0</asrwt>
<pdfrwt beam="1">  1        2 0.17072942E+00 0.52965853E+03</pdfrwt>
<pdfrwt beam="2">  1       -2 0.83835410E-02 0.52965853E+03</pdfrwt>
<totfact> 0.19772263E+03</totfact>
</mgrwt>
</event>
<event>
 4    1  0.6782240E-004  0.5013626E+03  0.7818608E-02  0.1013424E+00
         -2   -1    0    0    0  501 -0.00000000000E+00  0.00000000000E+00  0.26661292036E+02  0.26661292158E+02  0.25500000000E-02 0. -1.
          2   -1    0    0  501    0  0.00000000000E+00 -0.00000000000E+00 -0.23570165631E+04  0.23570165631E+04  0.25500000000E-02 0.  1.
    5000001    1    1    2    0    0 -0.10666674539E+03 -0.18328093419E+03 -0.16847447694E+04  0.16997834078E+04  0.77000000000E+02 0.  0.
   -5000001    1    1    2    0    0  0.10666674539E+03  0.18328093419E+03 -0.64561050170E+03  0.68389444749E+03  0.77000000000E+02 0.  0.
<mgrwt>
<rscale>  0 0.50136257E+03</rscale>
<asrwt>0</asrwt>
<pdfrwt beam="1">  1        2 0.33671652E+00 0.50136257E+03</pdfrwt>
<pdfrwt beam="2">  1       -2 0.38087575E-02 0.50136257E+03</pdfrwt>
<totfact> 0.17181307E+03</totfact>
</mgrwt>
</event>
<event>
 4    1  0.6782240E-004  0.3319470E+03  0.7818608E-02  0.1070279E+00
         -2   -1    0    0    0  501 -0.00000000000E+00  0.00000000000E+00  0.53539244911E+02  0.53539244972E+02  0.25500000000E-02 0. -1.
          2   -1    0    0  501    0  0.00000000000E+00 -0.00000000000E+00 -0.51452360831E+03  0.51452360831E+03  0.25500000000E-02 0.  1.
    5000001    1    1    2    0    0  0.55764489011E+02  0.13180824766E+03 -0.17283582570E+03  0.23724315593E+03  0.77000000000E+02 0.  0.
   -5000001    1    1    2    0    0 -0.55764489011E+02 -0.13180824766E+03 -0.28814853769E+03  0.33081969736E+03  0.77000000000E+02 0.  0.
<mgrwt>
<rscale>  0 0.33194702E+03</rscale>
<asrwt>0</asrwt>
<pdfrwt beam="1">  1        2 0.73503370E-01 0.33194702E+03</pdfrwt>
<pdfrwt beam="2">  1       -2 0.76484639E-02 0.33194702E+03</pdfrwt>
<totfact> 0.66662435E+03</totfact>
</mgrwt>
</event>
<event>
 4    1  0.6782240E-004  0.1995763E+03  0.7818608E-02  0.1150097E+00
         -2   -1    0    0    0  501 -0.00000000000E+00  0.00000000000E+00  0.27139803116E+02  0.27139803235E+02  0.25500000000E-02 0. -1.
          2   -1    0    0  501    0  0.00000000000E+00 -0.00000000000E+00 -0.36690289857E+03  0.36690289858E+03  0.25500000000E-02 0.  1.
    5000001    1    1    2    0    0 -0.52268334124E+02  0.23143679207E+02 -0.11541311095E+03  0.15005597229E+03  0.77000000000E+02 0.  0.
   -5000001    1    1    2    0    0  0.52268334124E+02 -0.23143679207E+02 -0.22434998450E+03  0.24398672952E+03  0.77000000000E+02 0.  0.
<mgrwt>
<rscale>  0 0.19957628E+03</rscale>
<asrwt>0</asrwt>
<pdfrwt beam="1">  1        2 0.52414697E-01 0.19957628E+03</pdfrwt>
<pdfrwt beam="2">  1       -2 0.38771150E-02 0.19957628E+03</pdfrwt>
<totfact> 0.26475981E+04</totfact>
</mgrwt>
</event>
<event>
 4    1  0.6782240E-004  0.2914206E+03  0.7818608E-02  0.1089610E+00
          2   -1    0    0  501    0  0.00000000000E+00  0.00000000000E+00  0.25732281249E+03  0.25732281250E+03  0.25500000000E-02 0.  1.
         -2   -1    0    0    0  501 -0.00000000000E+00 -0.00000000000E+00 -0.82509149897E+02  0.82509149936E+02  0.25500000000E-02 0. -1.
    5000001    1    1    2    0    0  0.19030808405E+02  0.10632379793E+03  0.15771891590E+03  0.20608536607E+03  0.77000000000E+02 0.  0.
   -5000001    1    1    2    0    0 -0.19030808405E+02 -0.10632379793E+03  0.17094746691E+02  0.13374659637E+03  0.77000000000E+02 0.  0.
<mgrwt>
<rscale>  0 0.29142057E+03</rscale>
<asrwt>0</asrwt>
<pdfrwt beam="1">  1        2 0.36760402E-01 0.29142057E+03</pdfrwt>
<pdfrwt beam="2">  1       -2 0.11787021E-01 0.29142057E+03</pdfrwt>
<totfact> 0.70990384E+03</totfact>
</mgrwt>
</event>
<event>
 4    1  0.6782240E-004  0.2267743E+03  0.7818608E-02  0.1128931E+00
         -2   -1    0    0    0  501 -0.00000000000E+00  0.00000000000E+00  0.15335123844E+02  0.15335124056E+02  0.25500000000E-02 0. -1.
          2   -1    0    0  501    0  0.00000000000E+00 -0.00000000000E+00 -0.83837934828E+03  0.83837934829E+03  0.25500000000E-02 0.  1.
    5000001    1    1    2    0    0 -0.20521979742E+02  0.60425337906E+02 -0.21036151103E+03  0.23292346047E+03  0.77000000000E+02 0.  0.
   -5000001    1    1    2    0    0  0.20521979742E+02 -0.60425337906E+02 -0.61268271341E+03  0.62079101187E+03  0.77000000000E+02 0.  0.
<mgrwt>
<rscale>  0 0.22677435E+03</rscale>
<asrwt>0</asrwt>
<pdfrwt beam="1">  1        2 0.11976845E+00 0.22677435E+03</pdfrwt>
<pdfrwt beam="2">  1       -2 0.21907325E-02 0.22677435E+03</pdfrwt>
<totfact> 0.24416744E+04</totfact>
</mgrwt>
</event>
<event>
 4    1  0.6782240E-004  0.2899924E+03  0.7818608E-02  0.1090353E+00
          2   -1    0    0  501    0  0.00000000000E+00  0.00000000000E+00  0.52533793590E+03  0.52533793591E+03  0.25500000000E-02 0.  1.
         -2   -1    0    0    0  501 -0.00000000000E+00 -0.00000000000E+00 -0.40019765757E+02  0.40019765839E+02  0.25500000000E-02 0. -1.
    5000001    1    1    2    0    0  0.95645018161E+02  0.40081172908E+02  0.37109991541E+03  0.39293589444E+03  0.77000000000E+02 0.  0.
   -5000001    1    1    2    0    0 -0.95645018161E+02 -0.40081172908E+02  0.11421825473E+03  0.17242180731E+03  0.77000000000E+02 0.  0.
<mgrwt>
<rscale>  0 0.28999242E+03</rscale>
<asrwt>0</asrwt>
<pdfrwt beam="1">  1        2 0.75048277E-01 0.28999242E+03</pdfrwt>
<pdfrwt beam="2">  1       -2 0.57171094E-02 0.28999242E+03</pdfrwt>
<totfact> 0.10173950E+04</totfact>
</mgrwt>
</event>
<event>
 4    1  0.6782240E-004  0.2494826E+03  0.7818608E-02  0.1113632E+00
         -2   -1    0    0    0  501 -0.00000000000E+00  0.00000000000E+00  0.13145969353E+02  0.13145969601E+02  0.25500000000E-02 0. -1.
          2   -1    0    0  501    0  0.00000000000E+00 -0.00000000000E+00 -0.11836621888E+04  0.11836621888E+04  0.25500000000E-02 0.  1.
    5000001    1    1    2    0    0  0.48989217598E+02 -0.81748008083E+02 -0.47288704486E+03  0.48850162483E+03  0.77000000000E+02 0.  0.
   -5000001    1    1    2    0    0 -0.48989217598E+02  0.81748008083E+02 -0.69762917458E+03  0.70830653356E+03  0.77000000000E+02 0.  0.
<mgrwt>
<rscale>  0 0.24948256E+03</rscale>
<asrwt>0</asrwt>
<pdfrwt beam="1">  1        2 0.16909453E+00 0.24948256E+03</pdfrwt>
<pdfrwt beam="2">  1       -2 0.18779964E-02 0.24948256E+03</pdfrwt>
<totfact> 0.19273383E+04</totfact>
</mgrwt>
</event>
<event>
 4    1  0.6782240E-004  0.2120805E+03  0.7818608E-02  0.1139929E+00
          2   -1    0    0  501    0  0.00000000000E+00  0.00000000000E+00  0.33549612083E+03  0.33549612084E+03  0.25500000000E-02 0.  1.
         -2   -1    0    0    0  501 -0.00000000000E+00 -0.00000000000E+00 -0.33516139816E+02  0.33516139913E+02  0.25500000000E-02 0. -1.
    5000001    1    1    2    0    0  0.45881352898E+02  0.11172625337E+02  0.24764191035E+03  0.26360091400E+03  0.77000000000E+02 0.  0.
   -5000001    1    1    2    0    0 -0.45881352898E+02 -0.11172625337E+02  0.54338070668E+02  0.10541134675E+03  0.77000000000E+02 0.  0.
<mgrwt>
<rscale>  0 0.21208050E+03</rscale>
<asrwt>0</asrwt>
<pdfrwt beam="1">  1        2 0.47928016E-01 0.21208050E+03</pdfrwt>
<pdfrwt beam="2">  1       -2 0.47880201E-02 0.21208050E+03</pdfrwt>
<totfact> 0.21319573E+04</totfact>
</mgrwt>
</event>
<event>
 4    1  0.6782240E-004  0.2260148E+03  0.7818608E-02  0.1129477E+00
          2   -1    0    0  501    0  0.00000000000E+00  0.00000000000E+00  0.11956157805E+04  0.11956157805E+04  0.25500000000E-02 0.  1.
         -2   -1    0    0    0  501 -0.00000000000E+00 -0.00000000000E+00 -0.10681253499E+02  0.10681253803E+02  0.25500000000E-02 0. -1.
    5000001    1    1    2    0    0 -0.79115837731E+01  0.37621205071E+02  0.20158076360E+03  0.21918428886E+03  0.77000000000E+02 0.  0.
   -5000001    1    1    2    0    0  0.79115837731E+01 -0.37621205071E+02  0.98335376339E+03  0.98711274543E+03  0.77000000000E+02 0.  0.
<mgrwt>
<rscale>  0 0.22601483E+03</rscale>
<asrwt>0</asrwt>
<pdfrwt beam="1">  1        2 0.17080224E+00 0.22601483E+03</pdfrwt>
<pdfrwt beam="2">  1       -2 0.15258935E-02 0.22601483E+03</pdfrwt>
<totfact> 0.25591225E+04</totfact>
</mgrwt>
</event>
<event>
 4    1  0.6782240E-004  0.3883710E+03  0.7818608E-02  0.1047882E+00
          2   -1    0    0  501    0  0.00000000000E+00  0.00000000000E+00  0.75043428928E+03  0.75043428928E+03  0.25500000000E-02 0.  1.
         -2   -1    0    0    0  501 -0.00000000000E+00 -0.00000000000E+00 -0.50248256303E+02  0.50248256367E+02  0.25500000000E-02 0. -1.
    5000001    1    1    2    0    0 -0.16187204718E+03 -0.72603849177E+02  0.38610609336E+03  0.43183422040E+03  0.77000000000E+02 0.  0.
   -5000001    1    1    2    0    0  0.16187204718E+03  0.72603849177E+02  0.31407993961E+03  0.36884832525E+03  0.77000000000E+02 0.  0.
<mgrwt>
<rscale>  0 0.38837103E+03</rscale>
<asrwt>0</asrwt>
<pdfrwt beam="1">  1        2 0.10720489E+00 0.38837103E+03</pdfrwt>
<pdfrwt beam="2">  1       -2 0.71783227E-02 0.38837103E+03</pdfrwt>
<totfact> 0.47570867E+03</totfact>
</mgrwt>
</event>
<event>
 4    1  0.6782240E-004  0.5561046E+03  0.7818608E-02  0.1000091E+00
         -2   -1    0    0    0  501 -0.00000000000E+00  0.00000000000E+00  0.36616188430E+02  0.36616188519E+02  0.25500000000E-02 0. -1.
          2   -1    0    0  501    0  0.00000000000E+00 -0.00000000000E+00 -0.21114456186E+04  0.21114456186E+04  0.25500000000E-02 0.  1.
    5000001    1    1    2    0    0 -0.20511238554E+03 -0.16967144016E+03 -0.94894280481E+03  0.98857520458E+03  0.77000000000E+02 0.  0.
   -5000001    1    1    2    0    0  0.20511238554E+03  0.16967144016E+03 -0.11258866253E+04  0.11594866025E+04  0.77000000000E+02 0.  0.
<mgrwt>
<rscale>  0 0.55610463E+03</rscale>
<asrwt>0</asrwt>
<pdfrwt beam="1">  1        2 0.30163501E+00 0.55610463E+03</pdfrwt>
<pdfrwt beam="2">  1       -2 0.52308854E-02 0.55610463E+03</pdfrwt>
<totfact> 0.13965253E+03</totfact>
</mgrwt>
</event>
<event>
 4    1  0.6782240E-004  0.2374333E+03  0.7818608E-02  0.1121515E+00
         -2   -1    0    0    0  501 -0.00000000000E+00  0.00000000000E+00  0.12884953788E+02  0.12884954040E+02  0.25500000000E-02 0. -1.
          2   -1    0    0  501    0  0.00000000000E+00 -0.00000000000E+00 -0.10938065798E+04  0.10938065798E+04  0.25500000000E-02 0.  1.
    5000001    1    1    2    0    0 -0.53379181065E+02  0.70062887178E+02 -0.44648494083E+03  0.46155817350E+03  0.77000000000E+02 0.  0.
   -5000001    1    1    2    0    0  0.53379181065E+02 -0.70062887178E+02 -0.63443668521E+03  0.64513336038E+03  0.77000000000E+02 0.  0.
<mgrwt>
<rscale>  0 0.23743334E+03</rscale>
<asrwt>0</asrwt>
<pdfrwt beam="1">  1        2 0.15625802E+00 0.23743334E+03</pdfrwt>
<pdfrwt beam="2">  1       -2 0.18407084E-02 0.23743334E+03</pdfrwt>
<totfact> 0.22199402E+04</totfact>
</mgrwt>
</event>
<event>
 4    1  0.6782240E-004  0.4526625E+03  0.7818608E-02  0.1026931E+00
         -2   -1    0    0    0  501 -0.00000000000E+00  0.00000000000E+00  0.18155678575E+03  0.18155678577E+03  0.25500000000E-02 0. -1.
          2   -1    0    0  501    0  0.00000000000E+00 -0.00000000000E+00 -0.28214769825E+03  0.28214769826E+03  0.25500000000E-02 0.  1.
    5000001    1    1    2    0    0  0.90719391265E+02 -0.18534468916E+03 -0.10366397152E+03  0.24342941635E+03  0.77000000000E+02 0.  0.
   -5000001    1    1    2    0    0 -0.90719391265E+02  0.18534468916E+03  0.30730590273E+01  0.22027506768E+03  0.77000000000E+02 0.  0.
<mgrwt>
<rscale>  0 0.45266248E+03</rscale>
<asrwt>0</asrwt>
<pdfrwt beam="1">  1        2 0.40306814E-01 0.45266248E+03</pdfrwt>
<pdfrwt beam="2">  1       -2 0.25936684E-01 0.45266248E+03</pdfrwt>
<totfact> 0.17008544E+03</totfact>
</mgrwt>
</event>
<event>
 4    1  0.6782240E-004  0.2687869E+03  0.7818608E-02  0.1101976E+00
         -2   -1    0    0    0  501 -0.00000000000E+00  0.00000000000E+00  0.51886152983E+02  0.51886153046E+02  0.25500000000E-02 0. -1.
          2   -1    0    0  501    0  0.00000000000E+00 -0.00000000000E+00 -0.34810062772E+03  0.34810062773E+03  0.25500000000E-02 0.  1.
    5000001    1    1    2    0    0  0.71320640363E+02  0.82456311408E+02 -0.17149132292E+03  0.21731072424E+03  0.77000000000E+02 0.  0.
   -5000001    1    1    2    0    0 -0.71320640363E+02 -0.82456311408E+02 -0.12472315182E+03  0.18267605654E+03  0.77000000000E+02 0.  0.
<mgrwt>
<rscale>  0 0.26878692E+03</rscale>
<asrwt>0</asrwt>
<pdfrwt beam="1">  1        2 0.49728660E-01 0.26878692E+03</pdfrwt>
<pdfrwt beam="2">  1       -2 0.74123078E-02 0.26878692E+03</pdfrwt>
<totfact> 0.10642623E+04</totfact>
</mgrwt>
</event>
<event>
 4    1  0.6782240E-004  0.2930798E+03  0.7818608E-02  0.1088752E+00
          2   -1    0    0  501    0  0.00000000000E+00  0.00000000000E+00  0.11906879996E+04  0.11906879996E+04  0.25500000000E-02 0.  1.
         -2   -1    0    0    0  501 -0.00000000000E+00 -0.00000000000E+00 -0.18034903174E+02  0.18034903354E+02  0.25500000000E-02 0. -1.
    5000001    1    1    2    0    0 -0.95706569475E+01 -0.12329305088E+03  0.52083477848E+03  0.54082403825E+03  0.77000000000E+02 0.  0.
   -5000001    1    1    2    0    0  0.95706569475E+01  0.12329305088E+03  0.65181831791E+03  0.66789886467E+03  0.77000000000E+02 0.  0.
<mgrwt>
<rscale>  0 0.29307980E+03</rscale>
<asrwt>0</asrwt>
<pdfrwt beam="1">  1        2 0.17009836E+00 0.29307980E+03</pdfrwt>
<pdfrwt beam="2">  1       -2 0.25764136E-02 0.29307980E+03</pdfrwt>
<totfact> 0.12056818E+04</totfact>
</mgrwt>
</event>
<event>
 4    1  0.6782240E-004  0.2770084E+03  0.7818608E-02  0.1097334E+00
          2   -1    0    0  501    0  0.00000000000E+00  0.00000000000E+00  0.33430666195E+03  0.33430666196E+03  0.25500000000E-02 0.  1.
         -2   -1    0    0    0  501 -0.00000000000E+00 -0.00000000000E+00 -0.57382701212E+02  0.57382701269E+02  0.25500000000E-02 0. -1.
    5000001    1    1    2    0    0 -0.10452035593E+03  0.46957371733E+02  0.12265807879E+03  0.18467134011E+03  0.77000000000E+02 0.  0.
   -5000001    1    1    2    0    0  0.10452035593E+03 -0.46957371733E+02  0.15426588195E+03  0.20701802312E+03  0.77000000000E+02 0.  0.
<mgrwt>
<rscale>  0 0.27700844E+03</rscale>
<asrwt>0</asrwt>
<pdfrwt beam="1">  1        2 0.47758094E-01 0.27700844E+03</pdfrwt>
<pdfrwt beam="2">  1       -2 0.81975289E-02 0.27700844E+03</pdfrwt>
<totfact> 0.95132749E+03</totfact>
</mgrwt>
</event>
<event>
 4    1  0.6782240E-004  0.2217694E+03  0.7818608E-02  0.1132571E+00
         -2   -1    0    0    0  501 -0.00000000000E+00  0.00000000000E+00  0.14416839336E+02  0.14416839561E+02  0.25500000000E-02 0. -1.
          2   -1    0    0  501    0  0.00000000000E+00 -0.00000000000E+00 -0.85285071871E+03  0.85285071872E+03  0.25500000000E-02 0.  1.
    5000001    1    1    2    0    0  0.68550954261E+01  0.73308182399E+02 -0.29897851633E+03  0.31739287195E+03  0.77000000000E+02 0.  0.
   -5000001    1    1    2    0    0 -0.68550954261E+01 -0.73308182399E+02 -0.53945536305E+03  0.54987468633E+03  0.77000000000E+02 0.  0.
<mgrwt>
<rscale>  0 0.22176936E+03</rscale>
<asrwt>0</asrwt>
<pdfrwt beam="1">  1        2 0.12183578E+00 0.22176936E+03</pdfrwt>
<pdfrwt beam="2">  1       -2 0.20595490E-02 0.22176936E+03</pdfrwt>
<totfact> 0.26127749E+04</totfact>
</mgrwt>
</event>
<event>
 4    1  0.6782240E-004  0.4312566E+03  0.7818608E-02  0.1033464E+00
         -2   -1    0    0    0  501 -0.00000000000E+00  0.00000000000E+00  0.24940774977E+02  0.24940775107E+02  0.25500000000E-02 0. -1.
          2   -1    0    0  501    0  0.00000000000E+00 -0.00000000000E+00 -0.18642385733E+04  0.18642385733E+04  0.25500000000E-02 0.  1.
    5000001    1    1    2    0    0  0.17266828677E+03 -0.85963886288E+02 -0.11736665911E+04  0.11919003289E+04  0.77000000000E+02 0.  0.
   -5000001    1    1    2    0    0 -0.17266828677E+03  0.85963886288E+02 -0.66563120726E+03  0.69727901953E+03  0.77000000000E+02 0.  0.
<mgrwt>
<rscale>  0 0.43125656E+03</rscale>
<asrwt>0</asrwt>
<pdfrwt beam="1">  1        2 0.26631971E+00 0.43125656E+03</pdfrwt>
<pdfrwt beam="2">  1       -2 0.35629690E-02 0.43125656E+03</pdfrwt>
<totfact> 0.33598386E+03</totfact>
</mgrwt>
</event>
<event>
 4    1  0.6782240E-004  0.2176050E+03  0.7818608E-02  0.1135681E+00
          2   -1    0    0  501    0  0.00000000000E+00  0.00000000000E+00  0.80916813236E+03  0.80916813237E+03  0.25500000000E-02 0.  1.
         -2   -1    0    0    0  501 -0.00000000000E+00 -0.00000000000E+00 -0.14629826056E+02  0.14629826278E+02  0.25500000000E-02 0. -1.
    5000001    1    1    2    0    0  0.80153078470E+01 -0.63436111582E+02  0.55880148365E+03  0.56769400520E+03  0.77000000000E+02 0.  0.
   -5000001    1    1    2    0    0 -0.80153078470E+01  0.63436111582E+02  0.23573682266E+03  0.25610395344E+03  0.77000000000E+02 0.  0.
<mgrwt>
<rscale>  0 0.21760505E+03</rscale>
<asrwt>0</asrwt>
<pdfrwt beam="1">  1        2 0.11559543E+00 0.21760505E+03</pdfrwt>
<pdfrwt beam="2">  1       -2 0.20899754E-02 0.21760505E+03</pdfrwt>
<totfact> 0.27271047E+04</totfact>
</mgrwt>
</event>
<event>
 4    1  0.6782240E-004  0.1992608E+03  0.7818608E-02  0.1150364E+00
          2   -1    0    0  501    0  0.00000000000E+00  0.00000000000E+00  0.30547345866E+03  0.30547345867E+03  0.25500000000E-02 0.  1.
         -2   -1    0    0    0  501 -0.00000000000E+00 -0.00000000000E+00 -0.32494530488E+02  0.32494530588E+02  0.25500000000E-02 0. -1.
    5000001    1    1    2    0    0 -0.68101873236E+01 -0.57262701961E+02  0.18045177041E+03  0.20449263344E+03  0.77000000000E+02 0.  0.
   -5000001    1    1    2    0    0  0.68101873236E+01  0.57262701961E+02  0.92527157760E+02  0.13347535582E+03  0.77000000000E+02 0.  0.
<mgrwt>
<rscale>  0 0.19926080E+03</rscale>
<asrwt>0</asrwt>
<pdfrwt beam="1">  1        2 0.43639066E-01 0.19926080E+03</pdfrwt>
<pdfrwt beam="2">  1       -2 0.46420757E-02 0.19926080E+03</pdfrwt>
<totfact> 0.24579324E+04</totfact>
</mgrwt>
</event>
<event>
 4    1  0.6782240E-004  0.4395920E+03  0.7818608E-02  0.1030872E+00
         -2   -1    0    0    0  501 -0.00000000000E+00  0.00000000000E+00  0.43633334898E+02  0.43633334972E+02  0.25500000000E-02 0. -1.
          2   -1    0    0  501    0  0.00000000000E+00 -0.00000000000E+00 -0.11071875855E+04  0.11071875855E+04  0.25500000000E-02 0.  1.
    5000001    1    1    2    0    0 -0.10755897328E+03  0.16973523871E+03 -0.64892187213E+03  0.68367212911E+03  0.77000000000E+02 0.  0.
   -5000001    1    1    2    0    0  0.10755897328E+03 -0.16973523871E+03 -0.41463237846E+03  0.46714879135E+03  0.77000000000E+02 0.  0.
<mgrwt>
<rscale>  0 0.43959202E+03</rscale>
<asrwt>0</asrwt>
<pdfrwt beam="1">  1        2 0.15816964E+00 0.43959202E+03</pdfrwt>
<pdfrwt beam="2">  1       -2 0.62333342E-02 0.43959202E+03</pdfrwt>
<totfact> 0.35373977E+03</totfact>
</mgrwt>
</event>
<event>
 4    1  0.6782240E-004  0.3934289E+03  0.7818608E-02  0.1046079E+00
          2   -1    0    0  501    0  0.00000000000E+00  0.00000000000E+00  0.16543255028E+04  0.16543255028E+04  0.25500000000E-02 0.  1.
         -2   -1    0    0    0  501 -0.00000000000E+00 -0.00000000000E+00 -0.23391154253E+02  0.23391154392E+02  0.25500000000E-02 0. -1.
    5000001    1    1    2    0    0 -0.17381885279E+03  0.46215690473E+02  0.90272482895E+03  0.92368284624E+03  0.77000000000E+02 0.  0.
   -5000001    1    1    2    0    0  0.17381885279E+03 -0.46215690473E+02  0.72820951955E+03  0.75403381091E+03  0.77000000000E+02 0.  0.
<mgrwt>
<rscale>  0 0.39342894E+03</rscale>
<asrwt>0</asrwt>
<pdfrwt beam="1">  1        2 0.23633224E+00 0.39342894E+03</pdfrwt>
<pdfrwt beam="2">  1       -2 0.33415932E-02 0.39342894E+03</pdfrwt>
<totfact> 0.47147640E+03</totfact>
</mgrwt>
</event>
<event>
 4    1  0.6782240E-004  0.1805805E+03  0.7818608E-02  0.1167242E+00
         -2   -1    0    0    0  501 -0.00000000000E+00  0.00000000000E+00  0.61238676732E+01  0.61238682041E+01  0.25500000000E-02 0. -1.
          2   -1    0    0  501    0  0.00000000000E+00 -0.00000000000E+00 -0.13312392588E+04  0.13312392588E+04  0.25500000000E-02 0.  1.
    5000001    1    1    2    0    0 -0.23683053597E+02  0.40281300896E+02 -0.61579878295E+03  0.62235087476E+03  0.77000000000E+02 0.  0.
   -5000001    1    1    2    0    0  0.23683053597E+02 -0.40281300896E+02 -0.70931660815E+03  0.71501225222E+03  0.77000000000E+02 0.  0.
<mgrwt>
<rscale>  0 0.18058055E+03</rscale>
<asrwt>0</asrwt>
<pdfrwt beam="1">  1        2 0.19017685E+00 0.18058055E+03</pdfrwt>
<pdfrwt beam="2">  1       -2 0.87483913E-03 0.18058055E+03</pdfrwt>
<totfact> 0.47809297E+04</totfact>
</mgrwt>
</event>
<event>
 4    1  0.6782240E-004  0.4528131E+03  0.7818608E-02  0.1026886E+00
          2   -1    0    0  501    0  0.00000000000E+00  0.00000000000E+00  0.17207629690E+03  0.17207629692E+03  0.25500000000E-02 0.  1.
         -2   -1    0    0    0  501 -0.00000000000E+00 -0.00000000000E+00 -0.29789072196E+03  0.29789072197E+03  0.25500000000E-02 0. -1.
    5000001    1    1    2    0    0 -0.18644023136E+03  0.10202557358E+03 -0.49707120965E+02  0.23144972545E+03  0.77000000000E+02 0.  0.
   -5000001    1    1    2    0    0  0.18644023136E+03 -0.10202557358E+03 -0.76107304091E+02  0.23851729344E+03  0.77000000000E+02 0.  0.
<mgrwt>
<rscale>  0 0.45281313E+03</rscale>
<asrwt>0</asrwt>
<pdfrwt beam="1">  1        2 0.24582328E-01 0.45281313E+03</pdfrwt>
<pdfrwt beam="2">  1       -2 0.42555817E-01 0.45281313E+03</pdfrwt>
<totfact> 0.11684120E+03</totfact>
</mgrwt>
</event>
<event>
 4    1  0.6782240E-004  0.2052189E+03  0.7818608E-02  0.1145409E+00
          2   -1    0    0  501    0  0.00000000000E+00  0.00000000000E+00  0.18047651540E+03  0.18047651542E+03  0.25500000000E-02 0.  1.
         -2   -1    0    0    0  501 -0.00000000000E+00 -0.00000000000E+00 -0.58338306584E+02  0.58338306639E+02  0.25500000000E-02 0. -1.
    5000001    1    1    2    0    0 -0.51801793347E+02 -0.30695209782E+02  0.97388589875E+02  0.13798245952E+03  0.77000000000E+02 0.  0.
   -5000001    1    1    2    0    0  0.51801793347E+02  0.30695209782E+02  0.24749618945E+02  0.10083236254E+03  0.77000000000E+02 0.  0.
<mgrwt>
<rscale>  0 0.20521885E+03</rscale>
<asrwt>0</asrwt>
<pdfrwt beam="1">  1        2 0.25782359E-01 0.20521885E+03</pdfrwt>
<pdfrwt beam="2">  1       -2 0.83340438E-02 0.20521885E+03</pdfrwt>
<totfact> 0.17795926E+04</totfact>
</mgrwt>
</event>
<event>
 4    1  0.6782240E-004  0.2424493E+03  0.7818608E-02  0.1118172E+00
         -2   -1    0    0    0  501 -0.00000000000E+00  0.00000000000E+00  0.12172523227E+02  0.12172523494E+02  0.25500000000E-02 0. -1.
          2   -1    0    0  501    0  0.00000000000E+00 -0.00000000000E+00 -0.12072616636E+04  0.12072616636E+04  0.25500000000E-02 0.  1.
    5000001    1    1    2    0    0  0.36642068911E+02  0.74551778017E+02 -0.81480032876E+03  0.82263551137E+03  0.77000000000E+02 0.  0.
   -5000001    1    1    2    0    0 -0.36642068911E+02 -0.74551778017E+02 -0.38028881159E+03  0.39679867570E+03  0.77000000000E+02 0.  0.
<mgrwt>
<rscale>  0 0.24244934E+03</rscale>
<asrwt>0</asrwt>
<pdfrwt beam="1">  1        2 0.17246588E+00 0.24244934E+03</pdfrwt>
<pdfrwt beam="2">  1       -2 0.17389327E-02 0.24244934E+03</pdfrwt>
<totfact> 0.20918585E+04</totfact>
</mgrwt>
</event>
<event>
 4    1  0.6782240E-004  0.3643193E+03  0.7818608E-02  0.1056887E+00
          2   -1    0    0  501    0  0.00000000000E+00  0.00000000000E+00  0.11498312763E+04  0.11498312764E+04  0.25500000000E-02 0.  1.
         -2   -1    0    0    0  501 -0.00000000000E+00 -0.00000000000E+00 -0.28858264251E+02  0.28858264364E+02  0.25500000000E-02 0. -1.
    5000001    1    1    2    0    0  0.89769322282E+02  0.13700505311E+03  0.62712303588E+03  0.65271832971E+03  0.77000000000E+02 0.  0.
   -5000001    1    1    2    0    0 -0.89769322282E+02 -0.13700505311E+03  0.49384997621E+03  0.52597121101E+03  0.77000000000E+02 0.  0.
<mgrwt>
<rscale>  0 0.36431928E+03</rscale>
<asrwt>0</asrwt>
<pdfrwt beam="1">  1        2 0.16426157E+00 0.36431928E+03</pdfrwt>
<pdfrwt beam="2">  1       -2 0.41226103E-02 0.36431928E+03</pdfrwt>
<totfact> 0.63046665E+03</totfact>
</mgrwt>
</event>
<event>
 4    1  0.6782240E-004  0.2702987E+03  0.7818608E-02  0.1101109E+00
          2   -1    0    0  501    0  0.00000000000E+00  0.00000000000E+00  0.17120912441E+03  0.17120912443E+03  0.25500000000E-02 0.  1.
         -2   -1    0    0    0  501 -0.00000000000E+00 -0.00000000000E+00 -0.10668440443E+03  0.10668440446E+03  0.25500000000E-02 0. -1.
    5000001    1    1    2    0    0 -0.51943088198E+02 -0.96454036295E+02  0.13448505037E+02  0.13457833339E+03  0.77000000000E+02 0.  0.
   -5000001    1    1    2    0    0  0.51943088198E+02  0.96454036295E+02  0.51076214950E+02  0.14331519550E+03  0.77000000000E+02 0.  0.
<mgrwt>
<rscale>  0 0.27029868E+03</rscale>
<asrwt>0</asrwt>
<pdfrwt beam="1">  1        2 0.24458447E-01 0.27029868E+03</pdfrwt>
<pdfrwt beam="2">  1       -2 0.15240629E-01 0.27029868E+03</pdfrwt>
<totfact> 0.72812882E+03</totfact>
</mgrwt>
</event>
<event>
 4    1  0.6782240E-004  0.2597194E+03  0.7818608E-02  0.1107312E+00
          2   -1    0    0  501    0  0.00000000000E+00  0.00000000000E+00  0.18926706191E+04  0.18926706191E+04  0.25500000000E-02 0.  1.
         -2   -1    0    0    0  501 -0.00000000000E+00 -0.00000000000E+00 -0.89099195848E+01  0.89099199497E+01  0.25500000000E-02 0. -1.
    5000001    1    1    2    0    0 -0.81594628078E+02  0.50710582752E+02  0.63953011922E+03  0.65127338340E+03  0.77000000000E+02 0.  0.
   -5000001    1    1    2    0    0  0.81594628078E+02 -0.50710582752E+02  0.12442305803E+04  0.12503071556E+04  0.77000000000E+02 0.  0.
<mgrwt>
<rscale>  0 0.25971941E+03</rscale>
<asrwt>0</asrwt>
<pdfrwt beam="1">  1        2 0.27038180E+00 0.25971941E+03</pdfrwt>
<pdfrwt beam="2">  1       -2 0.12728443E-02 0.25971941E+03</pdfrwt>
<totfact> 0.14923967E+04</totfact>
</mgrwt>
</event>
<event>
 4    1  0.6782240E-004  0.2806765E+03  0.7818608E-02  0.1095320E+00
          2   -1    0    0  501    0  0.00000000000E+00  0.00000000000E+00  0.80745180972E+03  0.80745180972E+03  0.25500000000E-02 0. -1.
         -2   -1    0    0    0  501 -0.00000000000E+00 -0.00000000000E+00 -0.24391335815E+02  0.24391335948E+02  0.25500000000E-02 0.  1.
    5000001    1    1    2    0    0 -0.73791256642E+02 -0.65861326368E+02  0.20448848511E+03  0.23984871151E+03  0.77000000000E+02 0.  0.
   -5000001    1    1    2    0    0  0.73791256642E+02  0.65861326368E+02  0.57857198879E+03  0.59199443417E+03  0.77000000000E+02 0.  0.
<mgrwt>
<rscale>  0 0.28067653E+03</rscale>
<asrwt>0</asrwt>
<pdfrwt beam="1">  1        2 0.11535026E+00 0.28067653E+03</pdfrwt>
<pdfrwt beam="2">  1       -2 0.34844766E-02 0.28067653E+03</pdfrwt>
<totfact> 0.12998913E+04</totfact>
</mgrwt>
</event>
<event>
 4    1  0.6782240E-004  0.1928761E+03  0.7818608E-02  0.1155893E+00
          2   -1    0    0  501    0  0.00000000000E+00  0.00000000000E+00  0.29702916542E+03  0.29702916543E+03  0.25500000000E-02 0.  1.
         -2   -1    0    0    0  501 -0.00000000000E+00 -0.00000000000E+00 -0.31311046687E+02  0.31311046791E+02  0.25500000000E-02 0. -1.
    5000001    1    1    2    0    0 -0.20983323352E+02 -0.53306606998E+02  0.11676319895E+03  0.15114409958E+03  0.77000000000E+02 0.  0.
   -5000001    1    1    2    0    0  0.20983323352E+02  0.53306606998E+02  0.14895491978E+03  0.17719611264E+03  0.77000000000E+02 0.  0.
<mgrwt>
<rscale>  0 0.19287606E+03</rscale>
<asrwt>0</asrwt>
<pdfrwt beam="1">  1        2 0.42432737E-01 0.19287606E+03</pdfrwt>
<pdfrwt beam="2">  1       -2 0.44730068E-02 0.19287606E+03</pdfrwt>
<totfact> 0.26711838E+04</totfact>
</mgrwt>
</event>
<event>
 4    1  0.6782240E-004  0.5511174E+03  0.7818608E-02  0.1001236E+00
          2   -1    0    0  501    0  0.00000000000E+00  0.00000000000E+00  0.81708121650E+03  0.81708121650E+03  0.25500000000E-02 0.  1.
         -2   -1    0    0    0  501 -0.00000000000E+00 -0.00000000000E+00 -0.92931524945E+02  0.92931524980E+02  0.25500000000E-02 0. -1.
    5000001    1    1    2    0    0 -0.91240896263E+02 -0.24796629828E+03  0.33922970407E+03  0.43682717218E+03  0.77000000000E+02 0.  0.
   -5000001    1    1    2    0    0  0.91240896263E+02  0.24796629828E+03  0.38491998748E+03  0.47318556930E+03  0.77000000000E+02 0.  0.
<mgrwt>
<rscale>  0 0.55111742E+03</rscale>
<asrwt>0</asrwt>
<pdfrwt beam="1">  1        2 0.11672588E+00 0.55111742E+03</pdfrwt>
<pdfrwt beam="2">  1       -2 0.13275933E-01 0.55111742E+03</pdfrwt>
<totfact> 0.15929197E+03</totfact>
</mgrwt>
</event>
<event>
 4    1  0.6782240E-004  0.2830547E+03  0.7818608E-02  0.1094032E+00
          2   -1    0    0  501    0  0.00000000000E+00  0.00000000000E+00  0.47218284469E+04  0.47218284469E+04  0.25500000000E-02 0.  1.
         -2   -1    0    0    0  501 -0.00000000000E+00 -0.00000000000E+00 -0.42419995405E+01  0.42420003069E+01  0.25500000000E-02 0. -1.
    5000001    1    1    2    0    0 -0.10661663542E+03 -0.52125270152E+02  0.22902653001E+04  0.22946303179E+04  0.77000000000E+02 0.  0.
   -5000001    1    1    2    0    0  0.10661663542E+03  0.52125270152E+02  0.24273211472E+04  0.24314401293E+04  0.77000000000E+02 0.  0.
<mgrwt>
<rscale>  0 0.28305474E+03</rscale>
<asrwt>0</asrwt>
<pdfrwt beam="1">  1        2 0.67454472E+00 0.28305474E+03</pdfrwt>
<pdfrwt beam="2">  1       -2 0.60600197E-03 0.28305474E+03</pdfrwt>
<totfact> 0.94920354E+02</totfact>
</mgrwt>
</event>
<event>
 4    1  0.6782240E-004  0.2273928E+03  0.7818608E-02  0.1128488E+00
          2   -1    0    0  501    0  0.00000000000E+00  0.00000000000E+00  0.95450467428E+02  0.95450467462E+02  0.25500000000E-02 0.  1.
         -2   -1    0    0    0  501 -0.00000000000E+00 -0.00000000000E+00 -0.13543011232E+03  0.13543011234E+03  0.25500000000E-02 0. -1.
    5000001    1    1    2    0    0 -0.47873005287E+02  0.68574102950E+02 -0.21925713609E+02  0.11577551187E+03  0.77000000000E+02 0.  0.
   -5000001    1    1    2    0    0  0.47873005287E+02 -0.68574102950E+02 -0.18053931284E+02  0.11510506794E+03  0.77000000000E+02 0.  0.
<mgrwt>
<rscale>  0 0.22739277E+03</rscale>
<asrwt>0</asrwt>
<pdfrwt beam="1">  1        2 0.13635781E-01 0.22739277E+03</pdfrwt>
<pdfrwt beam="2">  1       -2 0.19347159E-01 0.22739277E+03</pdfrwt>
<totfact> 0.95132680E+03</totfact>
</mgrwt>
</event>
<event>
 4    1  0.6782240E-004  0.2158794E+03  0.7818608E-02  0.1136993E+00
          2   -1    0    0  501    0  0.00000000000E+00  0.00000000000E+00  0.14549803948E+04  0.14549803948E+04  0.25500000000E-02 0.  1.
         -2   -1    0    0    0  501 -0.00000000000E+00 -0.00000000000E+00 -0.80076514934E+01  0.80076518995E+01  0.25500000000E-02 0. -1.
    5000001    1    1    2    0    0 -0.61530068154E+02 -0.40027963670E+02  0.84729920957E+03  0.85395148440E+03  0.77000000000E+02 0.  0.
   -5000001    1    1    2    0    0  0.61530068154E+02  0.40027963670E+02  0.59967353376E+03  0.60903656233E+03  0.77000000000E+02 0.  0.
<mgrwt>
<rscale>  0 0.21587938E+03</rscale>
<asrwt>0</asrwt>
<pdfrwt beam="1">  1        2 0.20785483E+00 0.21587938E+03</pdfrwt>
<pdfrwt beam="2">  1       -2 0.11439476E-02 0.21587938E+03</pdfrwt>
<totfact> 0.28425566E+04</totfact>
</mgrwt>
</event>
<event>
 4    1  0.6782240E-004  0.2715398E+03  0.7818608E-02  0.1100402E+00
          2   -1    0    0  501    0  0.00000000000E+00  0.00000000000E+00  0.22534974269E+04  0.22534974269E+04  0.25500000000E-02 0.  1.
         -2   -1    0    0    0  501 -0.00000000000E+00 -0.00000000000E+00 -0.81799365742E+01  0.81799369717E+01  0.25500000000E-02 0. -1.
    5000001    1    1    2    0    0 -0.95256118141E+02 -0.43376463888E+02  0.79482488297E+03  0.80537621039E+03  0.77000000000E+02 0.  0.
   -5000001    1    1    2    0    0  0.95256118141E+02  0.43376463888E+02  0.14504926073E+04  0.14563011535E+04  0.77000000000E+02 0.  0.
<mgrwt>
<rscale>  0 0.27153981E+03</rscale>
<asrwt>0</asrwt>
<pdfrwt beam="1">  1        2 0.32192872E+00 0.27153981E+03</pdfrwt>
<pdfrwt beam="2">  1       -2 0.11685605E-02 0.27153981E+03</pdfrwt>
<totfact> 0.11281560E+04</totfact>
</mgrwt>
</event>
<event>
 4    1  0.6782240E-004  0.2387356E+03  0.7818608E-02  0.1120638E+00
          2   -1    0    0  501    0  0.00000000000E+00  0.00000000000E+00  0.22464061393E+03  0.22464061395E+03  0.25500000000E-02 0.  1.
         -2   -1    0    0    0  501 -0.00000000000E+00 -0.00000000000E+00 -0.63428758334E+02  0.63428758385E+02  0.25500000000E-02 0. -1.
    5000001    1    1    2    0    0 -0.29183702835E+02 -0.52478161434E+02  0.16345277487E+03  0.19039815007E+03  0.77000000000E+02 0.  0.
   -5000001    1    1    2    0    0  0.29183702835E+02  0.52478161434E+02 -0.22409192692E+01  0.97671222260E+02  0.77000000000E+02 0.  0.
<mgrwt>
<rscale>  0 0.23873563E+03</rscale>
<asrwt>0</asrwt>
<pdfrwt beam="1">  1        2 0.32091517E-01 0.23873563E+03</pdfrwt>
<pdfrwt beam="2">  1       -2 0.90612511E-02 0.23873563E+03</pdfrwt>
<totfact> 0.12396123E+04</totfact>
</mgrwt>
</event>
<event>
 4    1  0.6782240E-004  0.2395334E+03  0.7818608E-02  0.1120104E+00
          2   -1    0    0  501    0  0.00000000000E+00  0.00000000000E+00  0.44557403502E+04  0.44557403502E+04  0.25500000000E-02 0.  1.
         -2   -1    0    0    0  501 -0.00000000000E+00 -0.00000000000E+00 -0.32192309477E+01  0.32192319577E+01  0.25500000000E-02 0. -1.
    5000001    1    1    2    0    0 -0.31586278411E+02 -0.84988574724E+02  0.24857463535E+04  0.24885909034E+04  0.77000000000E+02 0.  0.
   -5000001    1    1    2    0    0  0.31586278411E+02  0.84988574724E+02  0.19667747658E+04  0.19703686787E+04  0.77000000000E+02 0.  0.
<mgrwt>
<rscale>  0 0.23953338E+03</rscale>
<asrwt>0</asrwt>
<pdfrwt beam="1">  1        2 0.63653969E+00 0.23953338E+03</pdfrwt>
<pdfrwt beam="2">  1       -2 0.45988634E-03 0.23953338E+03</pdfrwt>
<totfact> 0.23006227E+03</totfact>
</mgrwt>
</event>
<event>
 4    1  0.6782240E-004  0.3334433E+03  0.7818608E-02  0.1069623E+00
         -2   -1    0    0    0  501 -0.00000000000E+00  0.00000000000E+00  0.26526263314E+02  0.26526263436E+02  0.25500000000E-02 0. -1.
          2   -1    0    0  501    0  0.00000000000E+00 -0.00000000000E+00 -0.10478714240E+04  0.10478714240E+04  0.25500000000E-02 0.  1.
    5000001    1    1    2    0    0 -0.80406027920E+02  0.93624332449E+02 -0.24818331447E+03  0.28767099703E+03  0.77000000000E+02 0.  0.
   -5000001    1    1    2    0    0  0.80406027920E+02 -0.93624332449E+02 -0.77316184618E+03  0.78672669037E+03  0.77000000000E+02 0.  0.
<mgrwt>
<rscale>  0 0.33344333E+03</rscale>
<asrwt>0</asrwt>
<pdfrwt beam="1">  1        2 0.14969589E+00 0.33344333E+03</pdfrwt>
<pdfrwt beam="2">  1       -2 0.37894668E-02 0.33344333E+03</pdfrwt>
<totfact> 0.81731251E+03</totfact>
</mgrwt>
</event>
<event>
 4    1  0.6782240E-004  0.3608957E+03  0.7818608E-02  0.1058230E+00
          2   -1    0    0  501    0  0.00000000000E+00  0.00000000000E+00  0.12683019617E+04  0.12683019617E+04  0.25500000000E-02 0.  1.
         -2   -1    0    0    0  501 -0.00000000000E+00 -0.00000000000E+00 -0.25673242426E+02  0.25673242552E+02  0.25500000000E-02 0. -1.
    5000001    1    1    2    0    0  0.69681002583E+02  0.13340140066E+03  0.39508812248E+03  0.42973829285E+03  0.77000000000E+02 0.  0.
   -5000001    1    1    2    0    0 -0.69681002583E+02 -0.13340140066E+03  0.84754059681E+03  0.86423691142E+03  0.77000000000E+02 0.  0.
<mgrwt>
<rscale>  0 0.36089568E+03</rscale>
<asrwt>0</asrwt>
<pdfrwt beam="1">  1        2 0.18118602E+00 0.36089568E+03</pdfrwt>
<pdfrwt beam="2">  1       -2 0.36676056E-02 0.36089568E+03</pdfrwt>
<totfact> 0.64805769E+03</totfact>
</mgrwt>
</event>
<event>
 4    1  0.6782240E-004  0.2606109E+03  0.7818608E-02  0.1106777E+00
          2   -1    0    0  501    0  0.00000000000E+00  0.00000000000E+00  0.18230501664E+04  0.18230501664E+04  0.25500000000E-02 0.  1.
         -2   -1    0    0    0  501 -0.00000000000E+00 -0.00000000000E+00 -0.93137898636E+01  0.93137902126E+01  0.25500000000E-02 0. -1.
    5000001    1    1    2    0    0  0.66688170109E+02 -0.68872853534E+02  0.60365818930E+03  0.61605437382E+03  0.77000000000E+02 0.  0.
   -5000001    1    1    2    0    0 -0.66688170109E+02  0.68872853534E+02  0.12100781872E+04  0.12163095828E+04  0.77000000000E+02 0.  0.
<mgrwt>
<rscale>  0 0.26061087E+03</rscale>
<asrwt>0</asrwt>
<pdfrwt beam="1">  1        2 0.26043575E+00 0.26061087E+03</pdfrwt>
<pdfrwt beam="2">  1       -2 0.13305414E-02 0.26061087E+03</pdfrwt>
<totfact> 0.15129750E+04</totfact>
</mgrwt>
</event>
<event>
 4    1  0.6782240E-004  0.4044671E+03  0.7818608E-02  0.1042244E+00
          2   -1    0    0  501    0  0.00000000000E+00  0.00000000000E+00  0.84003615316E+03  0.84003615316E+03  0.25500000000E-02 0.  1.
         -2   -1    0    0    0  501 -0.00000000000E+00 -0.00000000000E+00 -0.48686494036E+02  0.48686494103E+02  0.25500000000E-02 0. -1.
    5000001    1    1    2    0    0  0.13389360700E+03  0.12996407442E+03  0.42269823745E+03  0.46842390906E+03  0.77000000000E+02 0.  0.
   -5000001    1    1    2    0    0 -0.13389360700E+03 -0.12996407442E+03  0.36865142168E+03  0.42029873821E+03  0.77000000000E+02 0.  0.
<mgrwt>
<rscale>  0 0.40446713E+03</rscale>
<asrwt>0</asrwt>
<pdfrwt beam="1">  1        2 0.12000516E+00 0.40446713E+03</pdfrwt>
<pdfrwt beam="2">  1       -2 0.69552137E-02 0.40446713E+03</pdfrwt>
<totfact> 0.43415170E+03</totfact>
</mgrwt>
</event>
<event>
 4    1  0.6782240E-004  0.2127804E+03  0.7818608E-02  0.1139383E+00
          2   -1    0    0  501    0  0.00000000000E+00  0.00000000000E+00  0.41048538069E+02  0.41048538148E+02  0.25500000000E-02 0.  1.
         -2   -1    0    0    0  501 -0.00000000000E+00 -0.00000000000E+00 -0.27574379481E+03  0.27574379482E+03  0.25500000000E-02 0. -1.
    5000001    1    1    2    0    0 -0.30404938440E+02  0.44466430671E+02 -0.19161221059E+03  0.21341500178E+03  0.77000000000E+02 0.  0.
   -5000001    1    1    2    0    0  0.30404938440E+02 -0.44466430671E+02 -0.43083046153E+02  0.10337733119E+03  0.77000000000E+02 0.  0.
<mgrwt>
<rscale>  0 0.21278045E+03</rscale>
<asrwt>0</asrwt>
<pdfrwt beam="1">  1        2 0.58640770E-02 0.21278045E+03</pdfrwt>
<pdfrwt beam="2">  1       -2 0.39391970E-01 0.21278045E+03</pdfrwt>
<totfact> 0.76258907E+03</totfact>
</mgrwt>
</event>
<event>
 4    1  0.6782240E-004  0.2434052E+03  0.7818608E-02  0.1117545E+00
         -2   -1    0    0    0  501 -0.00000000000E+00  0.00000000000E+00  0.13865621208E+02  0.13865621442E+02  0.25500000000E-02 0. -1.
          2   -1    0    0  501    0  0.00000000000E+00 -0.00000000000E+00 -0.10682193326E+04  0.10682193326E+04  0.25500000000E-02 0.  1.
    5000001    1    1    2    0    0  0.50545859264E+02  0.39798396040E+02 -0.22098658074E+03  0.24269912461E+03  0.77000000000E+02 0.  0.
   -5000001    1    1    2    0    0 -0.50545859264E+02 -0.39798396040E+02 -0.83336713062E+03  0.83938582941E+03  0.77000000000E+02 0.  0.
<mgrwt>
<rscale>  0 0.24340522E+03</rscale>
<asrwt>0</asrwt>
<pdfrwt beam="1">  1        2 0.15260271E+00 0.24340522E+03</pdfrwt>
<pdfrwt beam="2">  1       -2 0.19808037E-02 0.24340522E+03</pdfrwt>
<totfact> 0.20637944E+04</totfact>
</mgrwt>
</event>
<event>
 4    1  0.6782240E-004  0.1707905E+03  0.7818608E-02  0.1177026E+00
         -2   -1    0    0    0  501 -0.00000000000E+00  0.00000000000E+00  0.33901541901E+03  0.33901541902E+03  0.25500000000E-02 0. -1.
          2   -1    0    0  501    0  0.00000000000E+00 -0.00000000000E+00 -0.21510380408E+02  0.21510380560E+02  0.25500000000E-02 0.  1.
    5000001    1    1    2    0    0  0.20064791096E+02 -0.20462242221E+02  0.10960599159E+03  0.13698092054E+03  0.77000000000E+02 0.  0.
   -5000001    1    1    2    0    0 -0.20064791096E+02  0.20462242221E+02  0.20789904701E+03  0.22354487904E+03  0.77000000000E+02 0.  0.
<mgrwt>
<rscale>  0 0.17079052E+03</rscale>
<asrwt>0</asrwt>
<pdfrwt beam="1">  1        2 0.30729117E-02 0.17079052E+03</pdfrwt>
<pdfrwt beam="2">  1       -2 0.48430771E-01 0.17079052E+03</pdfrwt>
<totfact> 0.11859719E+04</totfact>
</mgrwt>
</event>
<event>
 4    1  0.6782240E-004  0.1683481E+03  0.7818608E-02  0.1179582E+00
         -2   -1    0    0    0  501 -0.00000000000E+00  0.00000000000E+00  0.53970469526E+01  0.53970475551E+01  0.25500000000E-02 0. -1.
          2   -1    0    0  501    0  0.00000000000E+00 -0.00000000000E+00 -0.13128042563E+04  0.13128042563E+04  0.25500000000E-02 0.  1.
    5000001    1    1    2    0    0 -0.20707932513E+02 -0.26889264077E+02 -0.67015752534E+03  0.67541983962E+03  0.77000000000E+02 0.  0.
   -5000001    1    1    2    0    0  0.20707932513E+02  0.26889264077E+02 -0.63724968404E+03  0.64278146426E+03  0.77000000000E+02 0.  0.
<mgrwt>
<rscale>  0 0.16834805E+03</rscale>
<asrwt>0</asrwt>
<pdfrwt beam="1">  1        2 0.18754326E+00 0.16834805E+03</pdfrwt>
<pdfrwt beam="2">  1       -2 0.77100759E-03 0.16834805E+03</pdfrwt>
<totfact> 0.58235163E+04</totfact>
</mgrwt>
</event>
<event>
 4    1  0.6782240E-004  0.2560375E+03  0.7818608E-02  0.1109548E+00
          2   -1    0    0  501    0  0.00000000000E+00  0.00000000000E+00  0.21187287763E+04  0.21187287763E+04  0.25500000000E-02 0.  1.
         -2   -1    0    0    0  501 -0.00000000000E+00 -0.00000000000E+00 -0.77352039085E+01  0.77352043288E+01  0.25500000000E-02 0. -1.
    5000001    1    1    2    0    0  0.89986673539E+02 -0.39236048546E+02  0.12937195721E+04  0.12997216625E+04  0.77000000000E+02 0.  0.
   -5000001    1    1    2    0    0 -0.89986673539E+02  0.39236048546E+02  0.81727400037E+03  0.82674231814E+03  0.77000000000E+02 0.  0.
<mgrwt>
<rscale>  0 0.25603749E+03</rscale>
<asrwt>0</asrwt>
<pdfrwt beam="1">  1        2 0.30267566E+00 0.25603749E+03</pdfrwt>
<pdfrwt beam="2">  1       -2 0.11050287E-02 0.25603749E+03</pdfrwt>
<totfact> 0.14224661E+04</totfact>
</mgrwt>
</event>
<event>
 4    1  0.6782240E-004  0.5321453E+03  0.7818608E-02  0.1005713E+00
          2   -1    0    0  501    0  0.00000000000E+00  0.00000000000E+00  0.12141682207E+04  0.12141682207E+04  0.25500000000E-02 0.  1.
         -2   -1    0    0    0  501 -0.00000000000E+00 -0.00000000000E+00 -0.58307125222E+02  0.58307125277E+02  0.25500000000E-02 0. -1.
    5000001    1    1    2    0    0  0.20780083855E+03 -0.16119290350E+02  0.92793686803E+03  0.95416814613E+03  0.77000000000E+02 0.  0.
   -5000001    1    1    2    0    0 -0.20780083855E+03  0.16119290350E+02  0.22792422743E+03  0.31830719984E+03  0.77000000000E+02 0.  0.
<mgrwt>
<rscale>  0 0.53214531E+03</rscale>
<asrwt>0</asrwt>
<pdfrwt beam="1">  1        2 0.17345261E+00 0.53214531E+03</pdfrwt>
<pdfrwt beam="2">  1       -2 0.83295892E-02 0.53214531E+03</pdfrwt>
<totfact> 0.19493572E+03</totfact>
</mgrwt>
</event>
<event>
 4    1  0.6782240E-004  0.2067159E+03  0.7818608E-02  0.1144193E+00
          2   -1    0    0  501    0  0.00000000000E+00  0.00000000000E+00  0.46720248984E+02  0.46720249054E+02  0.25500000000E-02 0.  1.
         -2   -1    0    0    0  501 -0.00000000000E+00 -0.00000000000E+00 -0.22865597908E+03  0.22865597910E+03  0.25500000000E-02 0. -1.
    5000001    1    1    2    0    0 -0.18986659213E+02  0.29760332943E+02 -0.12070332083E+02  0.85562045099E+02  0.77000000000E+02 0.  0.
   -5000001    1    1    2    0    0  0.18986659213E+02 -0.29760332943E+02 -0.16986539802E+03  0.18981418305E+03  0.77000000000E+02 0.  0.
<mgrwt>
<rscale>  0 0.20671589E+03</rscale>
<asrwt>0</asrwt>
<pdfrwt beam="1">  1        2 0.66743214E-02 0.20671589E+03</pdfrwt>
<pdfrwt beam="2">  1       -2 0.32665139E-01 0.20671589E+03</pdfrwt>
<totfact> 0.91309449E+03</totfact>
</mgrwt>
</event>
<event>
 4    1  0.6782240E-004  0.2032274E+03  0.7818608E-02  0.1147044E+00
         -2   -1    0    0    0  501 -0.00000000000E+00  0.00000000000E+00  0.20381431349E+02  0.20381431508E+02  0.25500000000E-02 0. -1.
          2   -1    0    0  501    0  0.00000000000E+00 -0.00000000000E+00 -0.50660523404E+03  0.50660523405E+03  0.25500000000E-02 0.  1.
    5000001    1    1    2    0    0  0.53814590025E+02  0.31008030631E+01 -0.34323049247E+03  0.35586766647E+03  0.77000000000E+02 0.  0.
   -5000001    1    1    2    0    0 -0.53814590025E+02 -0.31008030631E+01 -0.14299331023E+03  0.17111899909E+03  0.77000000000E+02 0.  0.
<mgrwt>
<rscale>  0 0.20322736E+03</rscale>
<asrwt>0</asrwt>
<pdfrwt beam="1">  1        2 0.72372169E-01 0.20322736E+03</pdfrwt>
<pdfrwt beam="2">  1       -2 0.29116334E-02 0.20322736E+03</pdfrwt>
<totfact> 0.28624112E+04</totfact>
</mgrwt>
</event>
<event>
 4    1  0.6782240E-004  0.2852173E+03  0.7818608E-02  0.1092873E+00
         -2   -1    0    0    0  501 -0.00000000000E+00  0.00000000000E+00  0.33326717859E+02  0.33326717957E+02  0.25500000000E-02 0. -1.
          2   -1    0    0  501    0  0.00000000000E+00 -0.00000000000E+00 -0.61023771362E+03  0.61023771363E+03  0.25500000000E-02 0.  1.
    5000001    1    1    2    0    0  0.57233363405E+02 -0.33795891470E+02 -0.51398724333E+03  0.52395582492E+03  0.77000000000E+02 0.  0.
   -5000001    1    1    2    0    0 -0.57233363405E+02  0.33795891470E+02 -0.62923752435E+02  0.11960860666E+03  0.77000000000E+02 0.  0.
<mgrwt>
<rscale>  0 0.28521725E+03</rscale>
<asrwt>0</asrwt>
<pdfrwt beam="1">  1        2 0.87176809E-01 0.28521725E+03</pdfrwt>
<pdfrwt beam="2">  1       -2 0.47609601E-02 0.28521725E+03</pdfrwt>
<totfact> 0.11344782E+04</totfact>
</mgrwt>
</event>
<event>
 4    1  0.6782240E-004  0.3760340E+03  0.7818608E-02  0.1052409E+00
         -2   -1    0    0    0  501 -0.00000000000E+00  0.00000000000E+00  0.10863356141E+03  0.10863356144E+03  0.25500000000E-02 0. -1.
          2   -1    0    0  501    0  0.00000000000E+00 -0.00000000000E+00 -0.32540945303E+03  0.32540945304E+03  0.25500000000E-02 0.  1.
    5000001    1    1    2    0    0  0.13247769823E+03  0.10836928938E+03 -0.95372642407E+02  0.21052122062E+03  0.77000000000E+02 0.  0.
   -5000001    1    1    2    0    0 -0.13247769823E+03 -0.10836928938E+03 -0.12140324922E+03  0.22352179386E+03  0.77000000000E+02 0.  0.
<mgrwt>
<rscale>  0 0.37603398E+03</rscale>
<asrwt>0</asrwt>
<pdfrwt beam="1">  1        2 0.46487064E-01 0.37603398E+03</pdfrwt>
<pdfrwt beam="2">  1       -2 0.15519080E-01 0.37603398E+03</pdfrwt>
<totfact> 0.35287286E+03</totfact>
</mgrwt>
</event>
<event>
 4    1  0.6782240E-004  0.3199781E+03  0.7818608E-02  0.1075659E+00
         -2   -1    0    0    0  501 -0.00000000000E+00  0.00000000000E+00  0.15703513291E+04  0.15703513291E+04  0.25500000000E-02 0. -1.
          2   -1    0    0  501    0  0.00000000000E+00 -0.00000000000E+00 -0.16299853282E+02  0.16299853481E+02  0.25500000000E-02 0.  1.
    5000001    1    1    2    0    0  0.13972932784E+03 -0.27894175428E+01  0.71931993785E+03  0.73680542811E+03  0.77000000000E+02 0.  0.
   -5000001    1    1    2    0    0 -0.13972932784E+03  0.27894175428E+01  0.83473153794E+03  0.84984575444E+03  0.77000000000E+02 0.  0.
<mgrwt>
<rscale>  0 0.31997810E+03</rscale>
<asrwt>0</asrwt>
<pdfrwt beam="1">  1        2 0.23285507E-02 0.31997810E+03</pdfrwt>
<pdfrwt beam="2">  1       -2 0.22433588E+00 0.31997810E+03</pdfrwt>
<totfact> 0.45351511E+02</totfact>
</mgrwt>
</event>
<event>
 4    1  0.6782240E-004  0.3299325E+03  0.7818608E-02  0.1071167E+00
         -2   -1    0    0    0  501 -0.00000000000E+00  0.00000000000E+00  0.26351739788E+02  0.26351739912E+02  0.25500000000E-02 0. -1.
          2   -1    0    0  501    0  0.00000000000E+00 -0.00000000000E+00 -0.10327157087E+04  0.10327157087E+04  0.25500000000E-02 0.  1.
    5000001    1    1    2    0    0  0.46346391793E+02  0.11959171563E+03 -0.72637616479E+03  0.74162085950E+03  0.77000000000E+02 0.  0.
   -5000001    1    1    2    0    0 -0.46346391793E+02 -0.11959171563E+03 -0.27998780410E+03  0.31744658909E+03  0.77000000000E+02 0.  0.
<mgrwt>
<rscale>  0 0.32993245E+03</rscale>
<asrwt>0</asrwt>
<pdfrwt beam="1">  1        2 0.14753079E+00 0.32993245E+03</pdfrwt>
<pdfrwt beam="2">  1       -2 0.37645349E-02 0.32993245E+03</pdfrwt>
<totfact> 0.84224847E+03</totfact>
</mgrwt>
</event>
<event>
 4    1  0.6782240E-004  0.3644403E+03  0.7818608E-02  0.1056839E+00
          2   -1    0    0  501    0  0.00000000000E+00  0.00000000000E+00  0.73352022982E+03  0.73352022982E+03  0.25500000000E-02 0.  1.
         -2   -1    0    0    0  501 -0.00000000000E+00 -0.00000000000E+00 -0.45266889031E+02  0.45266889103E+02  0.25500000000E-02 0. -1.
    5000001    1    1    2    0    0  0.31396737591E+02 -0.16188404776E+03  0.32466070138E+03  0.37219050373E+03  0.77000000000E+02 0.  0.
   -5000001    1    1    2    0    0 -0.31396737591E+02  0.16188404776E+03  0.36359263941E+03  0.40659661519E+03  0.77000000000E+02 0.  0.
<mgrwt>
<rscale>  0 0.36444028E+03</rscale>
<asrwt>0</asrwt>
<pdfrwt beam="1">  1        2 0.10478859E+00 0.36444028E+03</pdfrwt>
<pdfrwt beam="2">  1       -2 0.64666995E-02 0.36444028E+03</pdfrwt>
<totfact> 0.57491256E+03</totfact>
</mgrwt>
</event>
<event>
 4    1  0.6782240E-004  0.2359936E+03  0.7818608E-02  0.1122491E+00
          2   -1    0    0  501    0  0.00000000000E+00  0.00000000000E+00  0.56260344765E+03  0.56260344766E+03  0.25500000000E-02 0.  1.
         -2   -1    0    0    0  501 -0.00000000000E+00 -0.00000000000E+00 -0.24747886165E+02  0.24747886297E+02  0.25500000000E-02 0. -1.
    5000001    1    1    2    0    0 -0.80308439286E+01 -0.88912802454E+02  0.25666779767E+03  0.28244882590E+03  0.77000000000E+02 0.  0.
   -5000001    1    1    2    0    0  0.80308439286E+01  0.88912802454E+02  0.28118776382E+03  0.30490250805E+03  0.77000000000E+02 0.  0.
<mgrwt>
<rscale>  0 0.23599361E+03</rscale>
<asrwt>0</asrwt>
<pdfrwt beam="1">  1        2 0.80371923E-01 0.23599361E+03</pdfrwt>
<pdfrwt beam="2">  1       -2 0.35354122E-02 0.23599361E+03</pdfrwt>
<totfact> 0.19288756E+04</totfact>
</mgrwt>
</event>
<event>
 4    1  0.6782240E-004  0.2934306E+03  0.7818608E-02  0.1088571E+00
          2   -1    0    0  501    0  0.00000000000E+00  0.00000000000E+00  0.86855938315E+03  0.86855938316E+03  0.25500000000E-02 0.  1.
         -2   -1    0    0    0  501 -0.00000000000E+00 -0.00000000000E+00 -0.24782852515E+02  0.24782852646E+02  0.25500000000E-02 0. -1.
    5000001    1    1    2    0    0  0.12308117679E+03  0.20275252225E+02  0.40354110895E+03  0.42934192498E+03  0.77000000000E+02 0.  0.
   -5000001    1    1    2    0    0 -0.12308117679E+03 -0.20275252225E+02  0.44023542169E+03  0.46400031082E+03  0.77000000000E+02 0.  0.
<mgrwt>
<rscale>  0 0.29343060E+03</rscale>
<asrwt>0</asrwt>
<pdfrwt beam="1">  1        2 0.12407988E+00 0.29343060E+03</pdfrwt>
<pdfrwt beam="2">  1       -2 0.35404084E-02 0.29343060E+03</pdfrwt>
<totfact> 0.11594948E+04</totfact>
</mgrwt>
</event>
<event>
 4    1  0.6782240E-004  0.2245909E+03  0.7818608E-02  0.1130506E+00
         -2   -1    0    0    0  501 -0.00000000000E+00  0.00000000000E+00  0.61360520613E+02  0.61360520666E+02  0.25500000000E-02 0. -1.
          2   -1    0    0  501    0  0.00000000000E+00 -0.00000000000E+00 -0.20551104717E+03  0.20551104719E+03  0.25500000000E-02 0.  1.
    5000001    1    1    2    0    0 -0.61204574439E+02  0.47424985643E+02 -0.40949844540E+02  0.11662340658E+03  0.77000000000E+02 0.  0.
   -5000001    1    1    2    0    0  0.61204574439E+02 -0.47424985643E+02 -0.10320068202E+03  0.15024816127E+03  0.77000000000E+02 0.  0.
<mgrwt>
<rscale>  0 0.22459087E+03</rscale>
<asrwt>0</asrwt>
<pdfrwt beam="1">  1        2 0.29358721E-01 0.22459087E+03</pdfrwt>
<pdfrwt beam="2">  1       -2 0.87657887E-02 0.22459087E+03</pdfrwt>
<totfact> 0.14339440E+04</totfact>
</mgrwt>
</event>
<event>
 4    1  0.6782240E-004  0.4242170E+03  0.7818608E-02  0.1035702E+00
          2   -1    0    0  501    0  0.00000000000E+00  0.00000000000E+00  0.57943829033E+03  0.57943829033E+03  0.25500000000E-02 0.  1.
         -2   -1    0    0    0  501 -0.00000000000E+00 -0.00000000000E+00 -0.77644198490E+02  0.77644198532E+02  0.25500000000E-02 0. -1.
    5000001    1    1    2    0    0 -0.16621879530E+03 -0.81479741244E+02  0.35813610024E+03  0.41043647796E+03  0.77000000000E+02 0.  0.
   -5000001    1    1    2    0    0  0.16621879530E+03  0.81479741244E+02  0.14365799159E+03  0.24664601090E+03  0.77000000000E+02 0.  0.
<mgrwt>
<rscale>  0 0.42421703E+03</rscale>
<asrwt>0</asrwt>
<pdfrwt beam="1">  1        2 0.82776898E-01 0.42421703E+03</pdfrwt>
<pdfrwt beam="2">  1       -2 0.11092028E-01 0.42421703E+03</pdfrwt>
<totfact> 0.32397206E+03</totfact>
</mgrwt>
</event>
<event>
 4    1  0.6782240E-004  0.1805543E+03  0.7818608E-02  0.1167268E+00
         -2   -1    0    0    0  501 -0.00000000000E+00  0.00000000000E+00  0.23704849306E+02  0.23704849444E+02  0.25500000000E-02 0. -1.
          2   -1    0    0  501    0  0.00000000000E+00 -0.00000000000E+00 -0.34381017080E+03  0.34381017081E+03  0.25500000000E-02 0.  1.
    5000001    1    1    2    0    0 -0.44514406391E+01 -0.45846157387E+02 -0.18033435560E+03  0.20142285193E+03  0.77000000000E+02 0.  0.
   -5000001    1    1    2    0    0  0.44514406391E+01  0.45846157387E+02 -0.13977096590E+03  0.16609216833E+03  0.77000000000E+02 0.  0.
<mgrwt>
<rscale>  0 0.18055435E+03</rscale>
<asrwt>0</asrwt>
<pdfrwt beam="1">  1        2 0.49115736E-01 0.18055435E+03</pdfrwt>
<pdfrwt beam="2">  1       -2 0.33864073E-02 0.18055435E+03</pdfrwt>
<totfact> 0.34421751E+04</totfact>
</mgrwt>
</event>
<event>
 4    1  0.6782240E-004  0.3085256E+03  0.7818608E-02  0.1081055E+00
          2   -1    0    0  501    0  0.00000000000E+00  0.00000000000E+00  0.14161123470E+03  0.14161123473E+03  0.25500000000E-02 0.  1.
         -2   -1    0    0    0  501 -0.00000000000E+00 -0.00000000000E+00 -0.16804462941E+03  0.16804462942E+03  0.25500000000E-02 0. -1.
    5000001    1    1    2    0    0 -0.19351612617E+02  0.12594016834E+03  0.27336731176E+02  0.15136613817E+03  0.77000000000E+02 0.  0.
   -5000001    1    1    2    0    0  0.19351612617E+02 -0.12594016834E+03 -0.53770125879E+02  0.15828972598E+03  0.77000000000E+02 0.  0.
<mgrwt>
<rscale>  0 0.30852557E+03</rscale>
<asrwt>0</asrwt>
<pdfrwt beam="1">  1        2 0.20230176E-01 0.30852557E+03</pdfrwt>
<pdfrwt beam="2">  1       -2 0.24006376E-01 0.30852557E+03</pdfrwt>
<totfact> 0.41825218E+03</totfact>
</mgrwt>
</event>
<event>
 4    1  0.6782240E-004  0.2965224E+03  0.7818608E-02  0.1086992E+00
          2   -1    0    0  501    0  0.00000000000E+00  0.00000000000E+00  0.87104053635E+03  0.87104053635E+03  0.25500000000E-02 0.  1.
         -2   -1    0    0    0  501 -0.00000000000E+00 -0.00000000000E+00 -0.25235775326E+02  0.25235775455E+02  0.25500000000E-02 0. -1.
    5000001    1    1    2    0    0 -0.10470608792E+03  0.52192727009E+02  0.27591018791E+03  0.30942345966E+03  0.77000000000E+02 0.  0.
   -5000001    1    1    2    0    0  0.10470608792E+03 -0.52192727009E+02  0.56989457312E+03  0.58685285214E+03  0.77000000000E+02 0.  0.
<mgrwt>
<rscale>  0 0.29652240E+03</rscale>
<asrwt>0</asrwt>
<pdfrwt beam="1">  1        2 0.12443436E+00 0.29652240E+03</pdfrwt>
<pdfrwt beam="2">  1       -2 0.36051108E-02 0.29652240E+03</pdfrwt>
<totfact> 0.11246928E+04</totfact>
</mgrwt>
</event>
<event>
 4    1  0.6782240E-004  0.2005371E+03  0.7818608E-02  0.1149287E+00
         -2   -1    0    0    0  501 -0.00000000000E+00  0.00000000000E+00  0.89111854828E+02  0.89111854865E+02  0.25500000000E-02 0. -1.
          2   -1    0    0  501    0  0.00000000000E+00 -0.00000000000E+00 -0.11282208678E+03  0.11282208681E+03  0.25500000000E-02 0.  1.
    5000001    1    1    2    0    0  0.16954739951E+02  0.60642778803E+02  0.87316476561E+00  0.99472469782E+02  0.77000000000E+02 0.  0.
   -5000001    1    1    2    0    0 -0.16954739951E+02 -0.60642778803E+02 -0.24583396715E+02  0.10246147189E+03  0.77000000000E+02 0.  0.
<mgrwt>
<rscale>  0 0.20053713E+03</rscale>
<asrwt>0</asrwt>
<pdfrwt beam="1">  1        2 0.16117441E-01 0.20053713E+03</pdfrwt>
<pdfrwt beam="2">  1       -2 0.12730265E-01 0.20053713E+03</pdfrwt>
<totfact> 0.15480774E+04</totfact>
</mgrwt>
</event>
<event>
 4    1  0.6782240E-004  0.4090158E+03  0.7818608E-02  0.1040702E+00
         -2   -1    0    0    0  501 -0.00000000000E+00  0.00000000000E+00  0.42914927403E+03  0.42914927404E+03  0.25500000000E-02 0. -1.
          2   -1    0    0  501    0  0.00000000000E+00 -0.00000000000E+00 -0.97456735729E+02  0.97456735762E+02  0.25500000000E-02 0.  1.
    5000001    1    1    2    0    0 -0.17193202607E+03 -0.52829097624E+02  0.24248147773E+03  0.31157310889E+03  0.77000000000E+02 0.  0.
   -5000001    1    1    2    0    0  0.17193202607E+03  0.52829097624E+02  0.89211060570E+02  0.21503290090E+03  0.77000000000E+02 0.  0.
<mgrwt>
<rscale>  0 0.40901583E+03</rscale>
<asrwt>0</asrwt>
<pdfrwt beam="1">  1        2 0.13922391E-01 0.40901583E+03</pdfrwt>
<pdfrwt beam="2">  1       -2 0.61307038E-01 0.40901583E+03</pdfrwt>
<totfact> 0.10863228E+03</totfact>
</mgrwt>
</event>
<event>
 4    1  0.6782240E-004  0.1998627E+03  0.7818608E-02  0.1149855E+00
         -2   -1    0    0    0  501 -0.00000000000E+00  0.00000000000E+00  0.93426520770E+01  0.93426524250E+01  0.25500000000E-02 0. -1.
          2   -1    0    0  501    0  0.00000000000E+00 -0.00000000000E+00 -0.10688905859E+04  0.10688905859E+04  0.25500000000E-02 0.  1.
    5000001    1    1    2    0    0 -0.52637383704E+02 -0.34628948792E+02 -0.58021377745E+03  0.58868233013E+03  0.77000000000E+02 0.  0.
   -5000001    1    1    2    0    0  0.52637383704E+02  0.34628948792E+02 -0.47933415638E+03  0.48955090821E+03  0.77000000000E+02 0.  0.
<mgrwt>
<rscale>  0 0.19986268E+03</rscale>
<asrwt>0</asrwt>
<pdfrwt beam="1">  1        2 0.15269858E+00 0.19986268E+03</pdfrwt>
<pdfrwt beam="2">  1       -2 0.13346653E-02 0.19986268E+03</pdfrwt>
<totfact> 0.36232736E+04</totfact>
</mgrwt>
</event>
<event>
 4    1  0.6782240E-004  0.3615191E+03  0.7818608E-02  0.1057984E+00
          2   -1    0    0  501    0  0.00000000000E+00  0.00000000000E+00  0.21922084197E+04  0.21922084197E+04  0.25500000000E-02 0. -1.
         -2   -1    0    0    0  501 -0.00000000000E+00 -0.00000000000E+00 -0.14904613425E+02  0.14904613643E+02  0.25500000000E-02 0.  1.
    5000001    1    1    2    0    0 -0.13854005018E+02 -0.14974677706E+03  0.69635476439E+03  0.71655773570E+03  0.77000000000E+02 0.  0.
   -5000001    1    1    2    0    0  0.13854005018E+02  0.14974677706E+03  0.14809490419E+04  0.14905552976E+04  0.77000000000E+02 0.  0.
<mgrwt>
<rscale>  0 0.36151912E+03</rscale>
<asrwt>0</asrwt>
<pdfrwt beam="1">  1        2 0.31317249E+00 0.36151912E+03</pdfrwt>
<pdfrwt beam="2">  1       -2 0.21292315E-02 0.36151912E+03</pdfrwt>
<totfact> 0.50122491E+03</totfact>
</mgrwt>
</event>
<event>
 4    1  0.6782240E-004  0.5227448E+03  0.7818608E-02  0.1008007E+00
          2   -1    0    0  501    0  0.00000000000E+00  0.00000000000E+00  0.11796443757E+04  0.11796443757E+04  0.25500000000E-02 0.  1.
         -2   -1    0    0    0  501 -0.00000000000E+00 -0.00000000000E+00 -0.57911968331E+02  0.57911968387E+02  0.25500000000E-02 0. -1.
    5000001    1    1    2    0    0 -0.22986990751E+03  0.69118983645E+02  0.72435397234E+03  0.76696498324E+03  0.77000000000E+02 0.  0.
   -5000001    1    1    2    0    0  0.22986990751E+03 -0.69118983645E+02  0.39737843502E+03  0.47059136084E+03  0.77000000000E+02 0.  0.
<mgrwt>
<rscale>  0 0.52274479E+03</rscale>
<asrwt>0</asrwt>
<pdfrwt beam="1">  1        2 0.16852061E+00 0.52274479E+03</pdfrwt>
<pdfrwt beam="2">  1       -2 0.82731392E-02 0.52274479E+03</pdfrwt>
<totfact> 0.20603115E+03</totfact>
</mgrwt>
</event>
<event>
 4    1  0.6782240E-004  0.2581585E+03  0.7818608E-02  0.1108255E+00
         -2   -1    0    0    0  501 -0.00000000000E+00  0.00000000000E+00  0.19466631655E+03  0.19466631657E+03  0.25500000000E-02 0. -1.
          2   -1    0    0  501    0  0.00000000000E+00 -0.00000000000E+00 -0.85589829805E+02  0.85589829843E+02  0.25500000000E-02 0.  1.
    5000001    1    1    2    0    0  0.55221864785E+02  0.87318442690E+02  0.62840905535E+02  0.14335949286E+03  0.77000000000E+02 0.  0.
   -5000001    1    1    2    0    0 -0.55221864785E+02 -0.87318442690E+02  0.46235581211E+02  0.13689665355E+03  0.77000000000E+02 0.  0.
<mgrwt>
<rscale>  0 0.25815853E+03</rscale>
<asrwt>0</asrwt>
<pdfrwt beam="1">  1        2 0.12227119E-01 0.25815853E+03</pdfrwt>
<pdfrwt beam="2">  1       -2 0.27809473E-01 0.25815853E+03</pdfrwt>
<totfact> 0.57997377E+03</totfact>
</mgrwt>
</event>
<event>
 4    1  0.6782240E-004  0.1659398E+03  0.7818608E-02  0.1182149E+00
          2   -1    0    0  501    0  0.00000000000E+00  0.00000000000E+00  0.63042523543E+02  0.63042523595E+02  0.25500000000E-02 0.  1.
         -2   -1    0    0    0  501 -0.00000000000E+00 -0.00000000000E+00 -0.10919626190E+03  0.10919626193E+03  0.25500000000E-02 0. -1.
    5000001    1    1    2    0    0  0.26738666855E+02  0.79851510446E+01 -0.36858253877E+02  0.89812303284E+02  0.77000000000E+02 0.  0.
   -5000001    1    1    2    0    0 -0.26738666855E+02 -0.79851510446E+01 -0.92954844774E+01  0.82426482238E+02  0.77000000000E+02 0.  0.
<mgrwt>
<rscale>  0 0.16593984E+03</rscale>
<asrwt>0</asrwt>
<pdfrwt beam="1">  1        2 0.90060748E-02 0.16593984E+03</pdfrwt>
<pdfrwt beam="2">  1       -2 0.15599466E-01 0.16593984E+03</pdfrwt>
<totfact> 0.22094819E+04</totfact>
</mgrwt>
</event>
<event>
 4    1  0.6782240E-004  0.4836334E+03  0.7818608E-02  0.1018141E+00
          2   -1    0    0  501    0  0.00000000000E+00  0.00000000000E+00  0.34870768398E+03  0.34870768399E+03  0.25500000000E-02 0.  1.
         -2   -1    0    0    0  501 -0.00000000000E+00 -0.00000000000E+00 -0.16769151080E+03  0.16769151082E+03  0.25500000000E-02 0. -1.
    5000001    1    1    2    0    0  0.10920531716E+03  0.48682152236E+02 -0.11831965475E+03  0.18499809172E+03  0.77000000000E+02 0.  0.
   -5000001    1    1    2    0    0 -0.10920531716E+03 -0.48682152236E+02  0.29933582793E+03  0.33140110308E+03  0.77000000000E+02 0.  0.
<mgrwt>
<rscale>  0 0.48363341E+03</rscale>
<asrwt>0</asrwt>
<pdfrwt beam="1">  1        2 0.49815384E-01 0.48363341E+03</pdfrwt>
<pdfrwt beam="2">  1       -2 0.23955930E-01 0.48363341E+03</pdfrwt>
<totfact> 0.15548321E+03</totfact>
</mgrwt>
</event>
<event>
 4    1  0.6782240E-004  0.2158982E+03  0.7818608E-02  0.1136979E+00
         -2   -1    0    0    0  501 -0.00000000000E+00  0.00000000000E+00  0.43494067205E+02  0.43494067280E+02  0.25500000000E-02 0. -1.
          2   -1    0    0  501    0  0.00000000000E+00 -0.00000000000E+00 -0.26792174319E+03  0.26792174321E+03  0.25500000000E-02 0.  1.
    5000001    1    1    2    0    0 -0.42958790701E+02  0.37327485895E+02 -0.18412113958E+03  0.20752925804E+03  0.77000000000E+02 0.  0.
   -5000001    1    1    2    0    0  0.42958790701E+02 -0.37327485895E+02 -0.40306536405E+02  0.10388655244E+03  0.77000000000E+02 0.  0.
<mgrwt>
<rscale>  0 0.21589818E+03</rscale>
<asrwt>0</asrwt>
<pdfrwt beam="1">  1        2 0.38274534E-01 0.21589818E+03</pdfrwt>
<pdfrwt beam="2">  1       -2 0.62134383E-02 0.21589818E+03</pdfrwt>
<totfact> 0.18277856E+04</totfact>
</mgrwt>
</event>
<event>
 4    1  0.6782240E-004  0.2070853E+03  0.7818608E-02  0.1143895E+00
         -2   -1    0    0    0  501 -0.00000000000E+00  0.00000000000E+00  0.67527852446E+01  0.67527857261E+01  0.25500000000E-02 0.  1.
          2   -1    0    0  501    0  0.00000000000E+00 -0.00000000000E+00 -0.15876534566E+04  0.15876534566E+04  0.25500000000E-02 0. -1.
    5000001    1    1    2    0    0 -0.41184647996E+02  0.53341191559E+02 -0.66856201645E+03  0.67634726863E+03  0.77000000000E+02 0.  0.
   -5000001    1    1    2    0    0  0.41184647996E+02 -0.53341191559E+02 -0.91233865489E+03  0.91805897368E+03  0.77000000000E+02 0.  0.
<mgrwt>
<rscale>  0 0.20708533E+03</rscale>
<asrwt>0</asrwt>
<pdfrwt beam="1">  1        2 0.22680740E+00 0.20708533E+03</pdfrwt>
<pdfrwt beam="2">  1       -2 0.96468466E-03 0.20708533E+03</pdfrwt>
<totfact> 0.31151680E+04</totfact>
</mgrwt>
</event>
<event>
 4    1  0.6782240E-004  0.2487326E+03  0.7818608E-02  0.1114108E+00
          2   -1    0    0  501    0  0.00000000000E+00  0.00000000000E+00  0.40977497303E+03  0.40977497303E+03  0.25500000000E-02 0.  1.
         -2   -1    0    0    0  501 -0.00000000000E+00 -0.00000000000E+00 -0.37745058277E+02  0.37745058363E+02  0.25500000000E-02 0. -1.
    5000001    1    1    2    0    0 -0.20563273023E+02 -0.80783030713E+02  0.94463477321E+02  0.14765193800E+03  0.77000000000E+02 0.  0.
   -5000001    1    1    2    0    0  0.20563273023E+02  0.80783030713E+02  0.27756643743E+03  0.29986809339E+03  0.77000000000E+02 0.  0.
<mgrwt>
<rscale>  0 0.24873263E+03</rscale>
<asrwt>0</asrwt>
<pdfrwt beam="1">  1        2 0.58539282E-01 0.24873263E+03</pdfrwt>
<pdfrwt beam="2">  1       -2 0.53921512E-02 0.24873263E+03</pdfrwt>
<totfact> 0.14504258E+04</totfact>
</mgrwt>
</event>
<event>
 4    1  0.6782240E-004  0.7136840E+03  0.7818608E-02  0.9694113E-01
         -2   -1    0    0    0  501 -0.00000000000E+00  0.00000000000E+00  0.85078767631E+02  0.85078767669E+02  0.25500000000E-02 0. -1.
          2   -1    0    0  501    0  0.00000000000E+00 -0.00000000000E+00 -0.14966860828E+04  0.14966860828E+04  0.25500000000E-02 0.  1.
    5000001    1    1    2    0    0 -0.23576710633E+02  0.26844668535E+03 -0.11953471091E+04  0.12277634933E+04  0.77000000000E+02 0.  0.
   -5000001    1    1    2    0    0  0.23576710633E+02 -0.26844668535E+03 -0.21626020602E+03  0.35400135716E+03  0.77000000000E+02 0.  0.
<mgrwt>
<rscale>  0 0.71368398E+03</rscale>
<asrwt>0</asrwt>
<pdfrwt beam="1">  1        2 0.21381228E+00 0.71368398E+03</pdfrwt>
<pdfrwt beam="2">  1       -2 0.12154111E-01 0.71368398E+03</pdfrwt>
<totfact> 0.73952017E+02</totfact>
</mgrwt>
</event>
<event>
 4    1  0.6782240E-004  0.3370082E+03  0.7818608E-02  0.1068077E+00
          2   -1    0    0  501    0  0.00000000000E+00  0.00000000000E+00  0.32194513289E+04  0.32194513289E+04  0.25500000000E-02 0.  1.
         -2   -1    0    0    0  501 -0.00000000000E+00 -0.00000000000E+00 -0.88194029925E+01  0.88194033611E+01  0.25500000000E-02 0. -1.
    5000001    1    1    2    0    0  0.39063120463E+02  0.10660839739E+03  0.66805257577E+03  0.68199305111E+03  0.77000000000E+02 0.  0.
   -5000001    1    1    2    0    0 -0.39063120463E+02 -0.10660839739E+03  0.25425793501E+04  0.25462776811E+04  0.77000000000E+02 0.  0.
<mgrwt>
<rscale>  0 0.33700824E+03</rscale>
<asrwt>0</asrwt>
<pdfrwt beam="1">  1        2 0.45992092E+00 0.33700824E+03</pdfrwt>
<pdfrwt beam="2">  1       -2 0.12599167E-02 0.33700824E+03</pdfrwt>
<totfact> 0.32013469E+03</totfact>
</mgrwt>
</event>
<event>
 4    1  0.6782240E-004  0.3226549E+03  0.7818608E-02  0.1074434E+00
         -2   -1    0    0    0  501 -0.00000000000E+00  0.00000000000E+00  0.34684725217E+02  0.34684725311E+02  0.25500000000E-02 0. -1.
          2   -1    0    0  501    0  0.00000000000E+00 -0.00000000000E+00 -0.75037482013E+03  0.75037482013E+03  0.25500000000E-02 0.  1.
    5000001    1    1    2    0    0  0.32809292743E+02 -0.12613815483E+03 -0.22215039189E+03  0.26882537159E+03  0.77000000000E+02 0.  0.
   -5000001    1    1    2    0    0 -0.32809292743E+02  0.12613815483E+03 -0.49353970302E+03  0.51623417385E+03  0.77000000000E+02 0.  0.
<mgrwt>
<rscale>  0 0.32265489E+03</rscale>
<asrwt>0</asrwt>
<pdfrwt beam="1">  1        2 0.10719639E+00 0.32265489E+03</pdfrwt>
<pdfrwt beam="2">  1       -2 0.49549612E-02 0.32265489E+03</pdfrwt>
<totfact> 0.83978586E+03</totfact>
</mgrwt>
</event>
<event>
 4    1  0.6782240E-004  0.2268055E+03  0.7818608E-02  0.1128909E+00
          2   -1    0    0  501    0  0.00000000000E+00  0.00000000000E+00  0.57939754672E+03  0.57939754672E+03  0.25500000000E-02 0.  1.
         -2   -1    0    0    0  501 -0.00000000000E+00 -0.00000000000E+00 -0.22195790628E+02  0.22195790774E+02  0.25500000000E-02 0. -1.
    5000001    1    1    2    0    0  0.79424561055E+02  0.34521545853E+01  0.21303573987E+03  0.24006958311E+03  0.77000000000E+02 0.  0.
   -5000001    1    1    2    0    0 -0.79424561055E+02 -0.34521545853E+01  0.34416601622E+03  0.36152375439E+03  0.77000000000E+02 0.  0.
<mgrwt>
<rscale>  0 0.22680553E+03</rscale>
<asrwt>0</asrwt>
<pdfrwt beam="1">  1        2 0.82771080E-01 0.22680553E+03</pdfrwt>
<pdfrwt beam="2">  1       -2 0.31708272E-02 0.22680553E+03</pdfrwt>
<totfact> 0.21890504E+04</totfact>
</mgrwt>
</event>
<event>
 4    1  0.6782240E-004  0.1994811E+03  0.7818608E-02  0.1150178E+00
          2   -1    0    0  501    0  0.00000000000E+00  0.00000000000E+00  0.28822621816E+04  0.28822621816E+04  0.25500000000E-02 0.  1.
         -2   -1    0    0    0  501 -0.00000000000E+00 -0.00000000000E+00 -0.34515170098E+01  0.34515179517E+01  0.25500000000E-02 0. -1.
    5000001    1    1    2    0    0 -0.25989327800E+02  0.51531521662E+02  0.10598981705E+04  0.10642575228E+04  0.77000000000E+02 0.  0.
   -5000001    1    1    2    0    0  0.25989327800E+02 -0.51531521662E+02  0.18189124941E+04  0.18214561768E+04  0.77000000000E+02 0.  0.
<mgrwt>
<rscale>  0 0.19948111E+03</rscale>
<asrwt>0</asrwt>
<pdfrwt beam="1">  1        2 0.41175233E+00 0.19948111E+03</pdfrwt>
<pdfrwt beam="2">  1       -2 0.49307322E-03 0.19948111E+03</pdfrwt>
<totfact> 0.18845724E+04</totfact>
</mgrwt>
</event>
<event>
 4    1  0.6782240E-004  0.2844428E+03  0.7818608E-02  0.1093287E+00
          2   -1    0    0  501    0  0.00000000000E+00  0.00000000000E+00  0.25344704774E+03  0.25344704775E+03  0.25500000000E-02 0.  1.
         -2   -1    0    0    0  501 -0.00000000000E+00 -0.00000000000E+00 -0.79807319690E+02  0.79807319731E+02  0.25500000000E-02 0. -1.
    5000001    1    1    2    0    0  0.96235464371E+02  0.71285771945E+01  0.16954746030E+03  0.20973178707E+03  0.77000000000E+02 0.  0.
   -5000001    1    1    2    0    0 -0.96235464371E+02 -0.71285771945E+01  0.40922677504E+01  0.12352258041E+03  0.77000000000E+02 0.  0.
<mgrwt>
<rscale>  0 0.28444282E+03</rscale>
<asrwt>0</asrwt>
<pdfrwt beam="1">  1        2 0.36206722E-01 0.28444282E+03</pdfrwt>
<pdfrwt beam="2">  1       -2 0.11401045E-01 0.28444282E+03</pdfrwt>
<totfact> 0.76079334E+03</totfact>
</mgrwt>
</event>
<event>
 4    1  0.6782240E-004  0.2719580E+03  0.7818608E-02  0.1100164E+00
          2   -1    0    0  501    0  0.00000000000E+00  0.00000000000E+00  0.74014698489E+03  0.74014698490E+03  0.25500000000E-02 0.  1.
         -2   -1    0    0    0  501 -0.00000000000E+00 -0.00000000000E+00 -0.24981918179E+02  0.24981918310E+02  0.25500000000E-02 0. -1.
    5000001    1    1    2    0    0 -0.96880586470E+02  0.11546912341E+02  0.20240803460E+03  0.23752303402E+03  0.77000000000E+02 0.  0.
   -5000001    1    1    2    0    0  0.96880586470E+02 -0.11546912341E+02  0.51275703211E+03  0.52760586918E+03  0.77000000000E+02 0.  0.
<mgrwt>
<rscale>  0 0.27195802E+03</rscale>
<asrwt>0</asrwt>
<pdfrwt beam="1">  1        2 0.10573527E+00 0.27195802E+03</pdfrwt>
<pdfrwt beam="2">  1       -2 0.35688458E-02 0.27195802E+03</pdfrwt>
<totfact> 0.13933539E+04</totfact>
</mgrwt>
</event>
<event>
 4    1  0.6782240E-004  0.2583706E+03  0.7818608E-02  0.1108126E+00
         -2   -1    0    0    0  501 -0.00000000000E+00  0.00000000000E+00  0.23867593253E+02  0.23867593389E+02  0.25500000000E-02 0. -1.
          2   -1    0    0  501    0  0.00000000000E+00 -0.00000000000E+00 -0.69922611968E+03  0.69922611968E+03  0.25500000000E-02 0.  1.
    5000001    1    1    2    0    0  0.86687471798E+02 -0.22668475676E+02 -0.48394194807E+03  0.49815397887E+03  0.77000000000E+02 0.  0.
   -5000001    1    1    2    0    0 -0.86687471798E+02  0.22668475676E+02 -0.19141657836E+03  0.22493973421E+03  0.77000000000E+02 0.  0.
<mgrwt>
<rscale>  0 0.25837062E+03</rscale>
<asrwt>0</asrwt>
<pdfrwt beam="1">  1        2 0.99889433E-01 0.25837062E+03</pdfrwt>
<pdfrwt beam="2">  1       -2 0.34096566E-02 0.25837062E+03</pdfrwt>
<totfact> 0.15929228E+04</totfact>
</mgrwt>
</event>
<event>
 4    1  0.6782240E-004  0.3327044E+03  0.7818608E-02  0.1069946E+00
          2   -1    0    0  501    0  0.00000000000E+00  0.00000000000E+00  0.11018054491E+04  0.11018054491E+04  0.25500000000E-02 0.  1.
         -2   -1    0    0    0  501 -0.00000000000E+00 -0.00000000000E+00 -0.25116102305E+02  0.25116102434E+02  0.25500000000E-02 0. -1.
    5000001    1    1    2    0    0 -0.10729194231E+03 -0.85508490879E+02  0.35528794840E+03  0.38856375175E+03  0.77000000000E+02 0.  0.
   -5000001    1    1    2    0    0  0.10729194231E+03  0.85508490879E+02  0.72140139840E+03  0.73835779979E+03  0.77000000000E+02 0.  0.
<mgrwt>
<rscale>  0 0.33270442E+03</rscale>
<asrwt>0</asrwt>
<pdfrwt beam="1">  1        2 0.15740079E+00 0.33270442E+03</pdfrwt>
<pdfrwt beam="2">  1       -2 0.35880143E-02 0.33270442E+03</pdfrwt>
<totfact> 0.82633636E+03</totfact>
</mgrwt>
</event>
<event>
 4    1  0.6782240E-004  0.2724760E+03  0.7818608E-02  0.1099871E+00
         -2   -1    0    0    0  501 -0.00000000000E+00  0.00000000000E+00  0.21927128949E+02  0.21927129097E+02  0.25500000000E-02 0. -1.
          2   -1    0    0  501    0  0.00000000000E+00 -0.00000000000E+00 -0.84647602532E+03  0.84647602532E+03  0.25500000000E-02 0.  1.
    5000001    1    1    2    0    0 -0.16813879216E+01 -0.10062522465E+03 -0.57174086774E+03  0.58561496117E+03  0.77000000000E+02 0.  0.
   -5000001    1    1    2    0    0  0.16813879216E+01  0.10062522465E+03 -0.25280802864E+03  0.28278819325E+03  0.77000000000E+02 0.  0.
<mgrwt>
<rscale>  0 0.27247597E+03</rscale>
<asrwt>0</asrwt>
<pdfrwt beam="1">  1        2 0.12092513E+00 0.27247597E+03</pdfrwt>
<pdfrwt beam="2">  1       -2 0.31324475E-02 0.27247597E+03</pdfrwt>
<totfact> 0.14347299E+04</totfact>
</mgrwt>
</event>
<event>
 4    1  0.6782240E-004  0.3906536E+03  0.7818608E-02  0.1047065E+00
          2   -1    0    0  501    0  0.00000000000E+00  0.00000000000E+00  0.58527359248E+03  0.58527359248E+03  0.25500000000E-02 0.  1.
         -2   -1    0    0    0  501 -0.00000000000E+00 -0.00000000000E+00 -0.65187547719E+02  0.65187547769E+02  0.25500000000E-02 0. -1.
    5000001    1    1    2    0    0  0.82592413965E+02  0.10075483538E+03  0.46566603065E+03  0.48963955702E+03  0.77000000000E+02 0.  0.
   -5000001    1    1    2    0    0 -0.82592413965E+02 -0.10075483538E+03  0.54420014109E+02  0.16082158323E+03  0.77000000000E+02 0.  0.
<mgrwt>
<rscale>  0 0.39065356E+03</rscale>
<asrwt>0</asrwt>
<pdfrwt beam="1">  1        2 0.83610514E-01 0.39065356E+03</pdfrwt>
<pdfrwt beam="2">  1       -2 0.93125067E-02 0.39065356E+03</pdfrwt>
<totfact> 0.42366465E+03</totfact>
</mgrwt>
</event>
<event>
 4    1  0.6782240E-004  0.2451353E+03  0.7818608E-02  0.1116418E+00
          2   -1    0    0  501    0  0.00000000000E+00  0.00000000000E+00  0.53295311869E+03  0.53295311870E+03  0.25500000000E-02 0. -1.
         -2   -1    0    0    0  501 -0.00000000000E+00 -0.00000000000E+00 -0.28187907394E+02  0.28187907509E+02  0.25500000000E-02 0.  1.
    5000001    1    1    2    0    0 -0.65717034434E+01 -0.94904528019E+02  0.26752820431E+03  0.29419448810E+03  0.77000000000E+02 0.  0.
   -5000001    1    1    2    0    0  0.65717034434E+01  0.94904528019E+02  0.23723700699E+03  0.26694653811E+03  0.77000000000E+02 0.  0.
<mgrwt>
<rscale>  0 0.24513534E+03</rscale>
<asrwt>0</asrwt>
<pdfrwt beam="1">  1        2 0.76136167E-01 0.24513534E+03</pdfrwt>
<pdfrwt beam="2">  1       -2 0.40268435E-02 0.24513534E+03</pdfrwt>
<totfact> 0.16900757E+04</totfact>
</mgrwt>
</event>
<event>
 4    1  0.6782240E-004  0.3649976E+03  0.7818608E-02  0.1056622E+00
         -2   -1    0    0    0  501 -0.00000000000E+00  0.00000000000E+00  0.19367351454E+02  0.19367351622E+02  0.25500000000E-02 0. -1.
          2   -1    0    0  501    0  0.00000000000E+00 -0.00000000000E+00 -0.17196888455E+04  0.17196888455E+04  0.25500000000E-02 0.  1.
    5000001    1    1    2    0    0 -0.53265081680E+02  0.98785274164E+02 -0.14294256605E+04  0.14358908100E+04  0.77000000000E+02 0.  0.
   -5000001    1    1    2    0    0  0.53265081680E+02 -0.98785274164E+02 -0.27089583347E+03  0.30316538706E+03  0.77000000000E+02 0.  0.
<mgrwt>
<rscale>  0 0.36499764E+03</rscale>
<asrwt>0</asrwt>
<pdfrwt beam="1">  1        2 0.24566974E+00 0.36499764E+03</pdfrwt>
<pdfrwt beam="2">  1       -2 0.27667656E-02 0.36499764E+03</pdfrwt>
<totfact> 0.58060506E+03</totfact>
</mgrwt>
</event>
<event>
 4    1  0.6782240E-004  0.1965302E+03  0.7818608E-02  0.1152700E+00
          2   -1    0    0  501    0  0.00000000000E+00  0.00000000000E+00  0.17466259944E+03  0.17466259946E+03  0.25500000000E-02 0.  1.
         -2   -1    0    0    0  501 -0.00000000000E+00 -0.00000000000E+00 -0.55283924410E+02  0.55283924469E+02  0.25500000000E-02 0. -1.
    5000001    1    1    2    0    0  0.55527216319E+02  0.10782542734E+02  0.32816825205E+02  0.10102217082E+03  0.77000000000E+02 0.  0.
   -5000001    1    1    2    0    0 -0.55527216319E+02 -0.10782542734E+02  0.86561849828E+02  0.12892435311E+03  0.77000000000E+02 0.  0.
<mgrwt>
<rscale>  0 0.19653024E+03</rscale>
<asrwt>0</asrwt>
<pdfrwt beam="1">  1        2 0.24951800E-01 0.19653024E+03</pdfrwt>
<pdfrwt beam="2">  1       -2 0.78977035E-02 0.19653024E+03</pdfrwt>
<totfact> 0.20001204E+04</totfact>
</mgrwt>
</event>
<event>
 4    1  0.6782240E-004  0.4017350E+03  0.7818608E-02  0.1043181E+00
         -2   -1    0    0    0  501 -0.00000000000E+00  0.00000000000E+00  0.11230879119E+03  0.11230879122E+03  0.25500000000E-02 0. -1.
          2   -1    0    0  501    0  0.00000000000E+00 -0.00000000000E+00 -0.35925736169E+03  0.35925736170E+03  0.25500000000E-02 0.  1.
    5000001    1    1    2    0    0  0.14363129666E+03 -0.95601789944E+02 -0.43437847296E+02  0.19386979702E+03  0.77000000000E+02 0.  0.
   -5000001    1    1    2    0    0 -0.14363129666E+03  0.95601789944E+02 -0.20351072321E+03  0.27769635590E+03  0.77000000000E+02 0.  0.
<mgrwt>
<rscale>  0 0.40173504E+03</rscale>
<asrwt>0</asrwt>
<pdfrwt beam="1">  1        2 0.51322480E-01 0.40173504E+03</pdfrwt>
<pdfrwt beam="2">  1       -2 0.16044113E-01 0.40173504E+03</pdfrwt>
<totfact> 0.30001354E+03</totfact>
</mgrwt>
</event>
<event>
 4    1  0.6782240E-004  0.2397038E+03  0.7818608E-02  0.1119990E+00
          2   -1    0    0  501    0  0.00000000000E+00  0.00000000000E+00  0.94578761958E+02  0.94578761992E+02  0.25500000000E-02 0.  1.
         -2   -1    0    0    0  501 -0.00000000000E+00 -0.00000000000E+00 -0.15187848919E+03  0.15187848921E+03  0.25500000000E-02 0. -1.
    5000001    1    1    2    0    0 -0.84289986387E+02  0.15378482703E+02  0.53604810904E+01  0.11532143900E+03  0.77000000000E+02 0.  0.
   -5000001    1    1    2    0    0  0.84289986387E+02 -0.15378482703E+02 -0.62660208323E+02  0.13113581220E+03  0.77000000000E+02 0.  0.
<mgrwt>
<rscale>  0 0.23970381E+03</rscale>
<asrwt>0</asrwt>
<pdfrwt beam="1">  1        2 0.13511252E-01 0.23970381E+03</pdfrwt>
<pdfrwt beam="2">  1       -2 0.21696927E-01 0.23970381E+03</pdfrwt>
<totfact> 0.79271107E+03</totfact>
</mgrwt>
</event>
<event>
 4    1  0.6782240E-004  0.3182324E+03  0.7818608E-02  0.1076466E+00
          2   -1    0    0  501    0  0.00000000000E+00  0.00000000000E+00  0.34663489559E+03  0.34663489560E+03  0.25500000000E-02 0.  1.
         -2   -1    0    0    0  501 -0.00000000000E+00 -0.00000000000E+00 -0.73039293890E+02  0.73039293935E+02  0.25500000000E-02 0. -1.
    5000001    1    1    2    0    0  0.13388935741E+03 -0.18325902756E+02  0.92530265672E+02  0.18097803404E+03  0.77000000000E+02 0.  0.
   -5000001    1    1    2    0    0 -0.13388935741E+03  0.18325902756E+02  0.18106533603E+03  0.23869615550E+03  0.77000000000E+02 0.  0.
<mgrwt>
<rscale>  0 0.31823242E+03</rscale>
<asrwt>0</asrwt>
<pdfrwt beam="1">  1        2 0.49519271E-01 0.31823242E+03</pdfrwt>
<pdfrwt beam="2">  1       -2 0.10434185E-01 0.31823242E+03</pdfrwt>
<totfact> 0.62767105E+03</totfact>
</mgrwt>
</event>
<event>
 4    1  0.6782240E-004  0.1982437E+03  0.7818608E-02  0.1151229E+00
         -2   -1    0    0    0  501 -0.00000000000E+00  0.00000000000E+00  0.58686978571E+01  0.58686984111E+01  0.25500000000E-02 0. -1.
          2   -1    0    0  501    0  0.00000000000E+00 -0.00000000000E+00 -0.16741610628E+04  0.16741610628E+04  0.25500000000E-02 0.  1.
    5000001    1    1    2    0    0  0.19365764522E+02  0.51871879283E+02 -0.10783580093E+04  0.10825205407E+04  0.77000000000E+02 0.  0.
   -5000001    1    1    2    0    0 -0.19365764522E+02 -0.51871879283E+02 -0.58993435559E+03  0.59750922052E+03  0.77000000000E+02 0.  0.
<mgrwt>
<rscale>  0 0.19824375E+03</rscale>
<asrwt>0</asrwt>
<pdfrwt beam="1">  1        2 0.23916556E+00 0.19824375E+03</pdfrwt>
<pdfrwt beam="2">  1       -2 0.83838652E-03 0.19824375E+03</pdfrwt>
<totfact> 0.34488698E+04</totfact>
</mgrwt>
</event>
<event>
 4    1  0.6782240E-004  0.3148908E+03  0.7818608E-02  0.1078025E+00
          2   -1    0    0  501    0  0.00000000000E+00  0.00000000000E+00  0.36268866828E+02  0.36268866918E+02  0.25500000000E-02 0.  1.
         -2   -1    0    0    0  501 -0.00000000000E+00 -0.00000000000E+00 -0.68348034535E+03  0.68348034536E+03  0.25500000000E-02 0. -1.
    5000001    1    1    2    0    0 -0.45557727923E+02  0.12858571615E+03 -0.35976511972E+03  0.39238977349E+03  0.77000000000E+02 0.  0.
   -5000001    1    1    2    0    0  0.45557727923E+02 -0.12858571615E+03 -0.28744635881E+03  0.32735943879E+03  0.77000000000E+02 0.  0.
<mgrwt>
<rscale>  0 0.31489082E+03</rscale>
<asrwt>0</asrwt>
<pdfrwt beam="1">  1        2 0.51812671E-02 0.31489082E+03</pdfrwt>
<pdfrwt beam="2">  1       -2 0.97640042E-01 0.31489082E+03</pdfrwt>
<totfact> 0.13648666E+03</totfact>
</mgrwt>
</event>
<event>
 4    1  0.6782240E-004  0.2506171E+03  0.7818608E-02  0.1112915E+00
          2   -1    0    0  501    0  0.00000000000E+00  0.00000000000E+00  0.82745811464E+03  0.82745811465E+03  0.25500000000E-02 0.  1.
         -2   -1    0    0    0  501 -0.00000000000E+00 -0.00000000000E+00 -0.18976469419E+02  0.18976469591E+02  0.25500000000E-02 0. -1.
    5000001    1    1    2    0    0  0.90630705634E+02  0.38987226483E+02  0.42541501540E+03  0.44344206382E+03  0.77000000000E+02 0.  0.
   -5000001    1    1    2    0    0 -0.90630705634E+02 -0.38987226483E+02  0.38306662982E+03  0.40299252042E+03  0.77000000000E+02 0.  0.
<mgrwt>
<rscale>  0 0.25061711E+03</rscale>
<asrwt>0</asrwt>
<pdfrwt beam="1">  1        2 0.11820831E+00 0.25061711E+03</pdfrwt>
<pdfrwt beam="2">  1       -2 0.27109241E-02 0.25061711E+03</pdfrwt>
<totfact> 0.18228496E+04</totfact>
</mgrwt>
</event>
<event>
 4    1  0.6782240E-004  0.2653852E+03  0.7818608E-02  0.1103950E+00
         -2   -1    0    0    0  501 -0.00000000000E+00  0.00000000000E+00  0.41851342368E+02  0.41851342446E+02  0.25500000000E-02 0. -1.
          2   -1    0    0  501    0  0.00000000000E+00 -0.00000000000E+00 -0.42071115867E+03  0.42071115868E+03  0.25500000000E-02 0.  1.
    5000001    1    1    2    0    0  0.91241143421E+02 -0.34633902898E+02 -0.27032157582E+03  0.29753522117E+03  0.77000000000E+02 0.  0.
   -5000001    1    1    2    0    0 -0.91241143421E+02  0.34633902898E+02 -0.10853824049E+03  0.16502727996E+03  0.77000000000E+02 0.  0.
<mgrwt>
<rscale>  0 0.26538521E+03</rscale>
<asrwt>0</asrwt>
<pdfrwt beam="1">  1        2 0.60101592E-01 0.26538521E+03</pdfrwt>
<pdfrwt beam="2">  1       -2 0.59787635E-02 0.26538521E+03</pdfrwt>
<totfact> 0.12078445E+04</totfact>
</mgrwt>
</event>
<event>
 4    1  0.6782240E-004  0.2327109E+03  0.7818608E-02  0.1124746E+00
         -2   -1    0    0    0  501 -0.00000000000E+00  0.00000000000E+00  0.36275730489E+01  0.36275739452E+01  0.25500000000E-02 0. -1.
          2   -1    0    0  501    0  0.00000000000E+00 -0.00000000000E+00 -0.37321351660E+04  0.37321351660E+04  0.25500000000E-02 0.  1.
    5000001    1    1    2    0    0  0.45539253154E+02  0.57940059978E+02 -0.26135667790E+04  0.26157391274E+04  0.77000000000E+02 0.  0.
   -5000001    1    1    2    0    0 -0.45539253154E+02 -0.57940059978E+02 -0.11149408139E+04  0.11200236125E+04  0.77000000000E+02 0.  0.
<mgrwt>
<rscale>  0 0.23271093E+03</rscale>
<asrwt>0</asrwt>
<pdfrwt beam="1">  1        2 0.53315971E+00 0.23271093E+03</pdfrwt>
<pdfrwt beam="2">  1       -2 0.51822718E-03 0.23271093E+03</pdfrwt>
<totfact> 0.59136372E+03</totfact>
</mgrwt>
</event>
<event>
 4    1  0.6782240E-004  0.2740703E+03  0.7818608E-02  0.1098972E+00
          2   -1    0    0  501    0  0.00000000000E+00  0.00000000000E+00  0.15714496615E+04  0.15714496615E+04  0.25500000000E-02 0.  1.
         -2   -1    0    0    0  501 -0.00000000000E+00 -0.00000000000E+00 -0.11949877064E+02  0.11949877336E+02  0.25500000000E-02 0. -1.
    5000001    1    1    2    0    0 -0.18059798891E+02 -0.89116081097E+02  0.11708127240E+04  0.11768599182E+04  0.77000000000E+02 0.  0.
   -5000001    1    1    2    0    0  0.18059798891E+02  0.89116081097E+02  0.38868706044E+03  0.40653962070E+03  0.77000000000E+02 0.  0.
<mgrwt>
<rscale>  0 0.27407029E+03</rscale>
<asrwt>0</asrwt>
<pdfrwt beam="1">  1        2 0.22449269E+00 0.27407029E+03</pdfrwt>
<pdfrwt beam="2">  1       -2 0.17071262E-02 0.27407029E+03</pdfrwt>
<totfact> 0.14006505E+04</totfact>
</mgrwt>
</event>
<event>
 4    1  0.6782240E-004  0.1626156E+03  0.7818608E-02  0.1185775E+00
          2   -1    0    0  501    0  0.00000000000E+00  0.00000000000E+00  0.53359782119E+04  0.53359782119E+04  0.25500000000E-02 0.  1.
         -2   -1    0    0    0  501 -0.00000000000E+00 -0.00000000000E+00 -0.12389385377E+01  0.12389411619E+01  0.25500000000E-02 0. -1.
    5000001    1    1    2    0    0  0.24629326782E+01  0.18312576833E+02  0.32730402675E+04  0.32739980161E+04  0.77000000000E+02 0.  0.
   -5000001    1    1    2    0    0 -0.24629326782E+01 -0.18312576833E+02  0.20616990059E+04  0.20632191370E+04  0.77000000000E+02 0.  0.
<mgrwt>
<rscale>  0 0.16261557E+03</rscale>
<asrwt>0</asrwt>
<pdfrwt beam="1">  1        2 0.76228235E+00 0.16261557E+03</pdfrwt>
<pdfrwt beam="2">  1       -2 0.17699146E-03 0.16261557E+03</pdfrwt>
<totfact> 0.15210661E+03</totfact>
</mgrwt>
</event>
<event>
 4    1  0.6782240E-004  0.2072621E+03  0.7818608E-02  0.1143753E+00
          2   -1    0    0  501    0  0.00000000000E+00  0.00000000000E+00  0.61066115289E+03  0.61066115289E+03  0.25500000000E-02 0.  1.
         -2   -1    0    0    0  501 -0.00000000000E+00 -0.00000000000E+00 -0.17586501413E+02  0.17586501598E+02  0.25500000000E-02 0. -1.
    5000001    1    1    2    0    0  0.35002215480E+02 -0.25829824858E+02  0.13279611685E+03  0.15954981539E+03  0.77000000000E+02 0.  0.
   -5000001    1    1    2    0    0 -0.35002215480E+02  0.25829824858E+02  0.46027853463E+03  0.46869783911E+03  0.77000000000E+02 0.  0.
<mgrwt>
<rscale>  0 0.20726209E+03</rscale>
<asrwt>0</asrwt>
<pdfrwt beam="1">  1        2 0.87237313E-01 0.20726209E+03</pdfrwt>
<pdfrwt beam="2">  1       -2 0.25123572E-02 0.20726209E+03</pdfrwt>
<totfact> 0.28921266E+04</totfact>
</mgrwt>
</event>
<event>
 4    1  0.6782240E-004  0.5020091E+03  0.7818608E-02  0.1013256E+00
          2   -1    0    0  501    0  0.00000000000E+00  0.00000000000E+00  0.54542886656E+03  0.54542886657E+03  0.25500000000E-02 0.  1.
         -2   -1    0    0    0  501 -0.00000000000E+00 -0.00000000000E+00 -0.11551145548E+03  0.11551145551E+03  0.25500000000E-02 0. -1.
    5000001    1    1    2    0    0  0.22490570291E+03 -0.28097566097E+02  0.11553883907E+03  0.26580118840E+03  0.77000000000E+02 0.  0.
   -5000001    1    1    2    0    0 -0.22490570291E+03  0.28097566097E+02  0.31437857201E+03  0.39513913368E+03  0.77000000000E+02 0.  0.
<mgrwt>
<rscale>  0 0.50200909E+03</rscale>
<asrwt>0</asrwt>
<pdfrwt beam="1">  1        2 0.77918407E-01 0.50200909E+03</pdfrwt>
<pdfrwt beam="2">  1       -2 0.16501637E-01 0.50200909E+03</pdfrwt>
<totfact> 0.18014893E+03</totfact>
</mgrwt>
</event>
<event>
 4    1  0.6782240E-004  0.1932752E+03  0.7818608E-02  0.1155540E+00
         -2   -1    0    0    0  501 -0.00000000000E+00  0.00000000000E+00  0.37855831401E+01  0.37855839990E+01  0.25500000000E-02 0. -1.
          2   -1    0    0  501    0  0.00000000000E+00 -0.00000000000E+00 -0.24669454196E+04  0.24669454196E+04  0.25500000000E-02 0.  1.
    5000001    1    1    2    0    0  0.15517492714E+02 -0.27970954018E+02 -0.60706234089E+03  0.61276166050E+03  0.77000000000E+02 0.  0.
   -5000001    1    1    2    0    0 -0.15517492714E+02  0.27970954018E+02 -0.18560974955E+04  0.18579693431E+04  0.77000000000E+02 0.  0.
<mgrwt>
<rscale>  0 0.19327522E+03</rscale>
<asrwt>0</asrwt>
<pdfrwt beam="1">  1        2 0.35241974E+00 0.19327522E+03</pdfrwt>
<pdfrwt beam="2">  1       -2 0.54079923E-03 0.19327522E+03</pdfrwt>
<totfact> 0.26674709E+04</totfact>
</mgrwt>
</event>
<event>
 4    1  0.6782240E-004  0.1812245E+03  0.7818608E-02  0.1166623E+00
         -2   -1    0    0    0  501 -0.00000000000E+00  0.00000000000E+00  0.54208565795E+01  0.54208571793E+01  0.25500000000E-02 0. -1.
          2   -1    0    0  501    0  0.00000000000E+00 -0.00000000000E+00 -0.15146269224E+04  0.15146269224E+04  0.25500000000E-02 0.  1.
    5000001    1    1    2    0    0  0.46796054413E+02 -0.65802401010E+01 -0.69624672290E+03  0.70208380512E+03  0.77000000000E+02 0.  0.
   -5000001    1    1    2    0    0 -0.46796054413E+02  0.65802401010E+01 -0.81295934293E+03  0.81796397446E+03  0.77000000000E+02 0.  0.
<mgrwt>
<rscale>  0 0.18122446E+03</rscale>
<asrwt>0</asrwt>
<pdfrwt beam="1">  1        2 0.21637500E+00 0.18122446E+03</pdfrwt>
<pdfrwt beam="2">  1       -2 0.77440909E-03 0.18122446E+03</pdfrwt>
<totfact> 0.46032579E+04</totfact>
</mgrwt>
</event>
<event>
 4    1  0.6782240E-004  0.1624381E+03  0.7818608E-02  0.1185971E+00
         -2   -1    0    0    0  501 -0.00000000000E+00  0.00000000000E+00  0.25839291734E+02  0.25839291859E+02  0.25500000000E-02 0. -1.
          2   -1    0    0  501    0  0.00000000000E+00 -0.00000000000E+00 -0.25529066812E+03  0.25529066813E+03  0.25500000000E-02 0.  1.
    5000001    1    1    2    0    0 -0.40357475837E+01  0.21801682017E+02 -0.13768128891E+03  0.15930077813E+03  0.77000000000E+02 0.  0.
   -5000001    1    1    2    0    0  0.40357475837E+01 -0.21801682017E+02 -0.91770087473E+02  0.12182918186E+03  0.77000000000E+02 0.  0.
<mgrwt>
<rscale>  0 0.16243805E+03</rscale>
<asrwt>0</asrwt>
<pdfrwt beam="1">  1        2 0.36470094E-01 0.16243805E+03</pdfrwt>
<pdfrwt beam="2">  1       -2 0.36913276E-02 0.16243805E+03</pdfrwt>
<totfact> 0.41193514E+04</totfact>
</mgrwt>
</event>
<event>
 4    1  0.6782240E-004  0.2304662E+03  0.7818608E-02  0.1126312E+00
          2   -1    0    0  501    0  0.00000000000E+00  0.00000000000E+00  0.28023673790E+03  0.28023673791E+03  0.25500000000E-02 0.  1.
         -2   -1    0    0    0  501 -0.00000000000E+00 -0.00000000000E+00 -0.47383742868E+02  0.47383742937E+02  0.25500000000E-02 0. -1.
    5000001    1    1    2    0    0  0.82171343893E+02 -0.12977189884E+02  0.14587460737E+03  0.18474019132E+03  0.77000000000E+02 0.  0.
   -5000001    1    1    2    0    0 -0.82171343893E+02  0.12977189884E+02  0.86978387659E+02  0.14288028952E+03  0.77000000000E+02 0.  0.
<mgrwt>
<rscale>  0 0.23046618E+03</rscale>
<asrwt>0</asrwt>
<pdfrwt beam="1">  1        2 0.40033820E-01 0.23046618E+03</pdfrwt>
<pdfrwt beam="2">  1       -2 0.67691061E-02 0.23046618E+03</pdfrwt>
<totfact> 0.15334023E+04</totfact>
</mgrwt>
</event>
<event>
 4    1  0.6782240E-004  0.3198016E+03  0.7818608E-02  0.1075741E+00
         -2   -1    0    0    0  501 -0.00000000000E+00  0.00000000000E+00  0.43178968163E+03  0.43178968164E+03  0.25500000000E-02 0. -1.
          2   -1    0    0  501    0  0.00000000000E+00 -0.00000000000E+00 -0.59214622795E+02  0.59214622849E+02  0.25500000000E-02 0.  1.
    5000001    1    1    2    0    0  0.80106188219E+02  0.11230502122E+03  0.14837226815E+03  0.21673197535E+03  0.77000000000E+02 0.  0.
   -5000001    1    1    2    0    0 -0.80106188219E+02 -0.11230502122E+03  0.22420279068E+03  0.27427232914E+03  0.77000000000E+02 0.  0.
<mgrwt>
<rscale>  0 0.31980158E+03</rscale>
<asrwt>0</asrwt>
<pdfrwt beam="1">  1        2 0.84592318E-02 0.31980158E+03</pdfrwt>
<pdfrwt beam="2">  1       -2 0.61684240E-01 0.31980158E+03</pdfrwt>
<totfact> 0.19826697E+03</totfact>
</mgrwt>
</event>
<event>
 4    1  0.6782240E-004  0.3265838E+03  0.7818608E-02  0.1072658E+00
         -2   -1    0    0    0  501 -0.00000000000E+00  0.00000000000E+00  0.13030511344E+02  0.13030511594E+02  0.25500000000E-02 0. -1.
          2   -1    0    0  501    0  0.00000000000E+00 -0.00000000000E+00 -0.20462933521E+04  0.20462933521E+04  0.25500000000E-02 0.  1.
    5000001    1    1    2    0    0 -0.14096761468E+03  0.25391089204E+02 -0.11098768930E+04  0.11217273704E+04  0.77000000000E+02 0.  0.
   -5000001    1    1    2    0    0  0.14096761468E+03 -0.25391089204E+02 -0.92338594769E+03  0.93759649327E+03  0.77000000000E+02 0.  0.
<mgrwt>
<rscale>  0 0.32658383E+03</rscale>
<asrwt>0</asrwt>
<pdfrwt beam="1">  1        2 0.29232742E+00 0.32658383E+03</pdfrwt>
<pdfrwt beam="2">  1       -2 0.18615029E-02 0.32658383E+03</pdfrwt>
<totfact> 0.72165251E+03</totfact>
</mgrwt>
</event>
<event>
 4    1  0.6782240E-004  0.2918061E+03  0.7818608E-02  0.1089410E+00
          2   -1    0    0  501    0  0.00000000000E+00  0.00000000000E+00  0.77492795585E+03  0.77492795585E+03  0.25500000000E-02 0.  1.
         -2   -1    0    0    0  501 -0.00000000000E+00 -0.00000000000E+00 -0.27470544592E+02  0.27470544711E+02  0.25500000000E-02 0. -1.
    5000001    1    1    2    0    0  0.73124947895E+02 -0.85050599314E+02  0.51865550119E+03  0.53620275210E+03  0.77000000000E+02 0.  0.
   -5000001    1    1    2    0    0 -0.73124947895E+02  0.85050599314E+02  0.22880191006E+03  0.26619574846E+03  0.77000000000E+02 0.  0.
<mgrwt>
<rscale>  0 0.29180605E+03</rscale>
<asrwt>0</asrwt>
<pdfrwt beam="1">  1        2 0.11070400E+00 0.29180605E+03</pdfrwt>
<pdfrwt beam="2">  1       -2 0.39243635E-02 0.29180605E+03</pdfrwt>
<totfact> 0.11457289E+04</totfact>
</mgrwt>
</event>
<event>
 4    1  0.6782240E-004  0.3397664E+03  0.7818608E-02  0.1066895E+00
          2   -1    0    0  501    0  0.00000000000E+00  0.00000000000E+00  0.60929928330E+03  0.60929928330E+03  0.25500000000E-02 0.  1.
         -2   -1    0    0    0  501 -0.00000000000E+00 -0.00000000000E+00 -0.47366369242E+02  0.47366369310E+02  0.25500000000E-02 0. -1.
    5000001    1    1    2    0    0  0.87516345367E+02  0.11664525819E+03  0.35985433438E+03  0.39584008000E+03  0.77000000000E+02 0.  0.
   -5000001    1    1    2    0    0 -0.87516345367E+02 -0.11664525819E+03  0.20207857968E+03  0.26082557261E+03  0.77000000000E+02 0.  0.
<mgrwt>
<rscale>  0 0.33976636E+03</rscale>
<asrwt>0</asrwt>
<pdfrwt beam="1">  1        2 0.87042756E-01 0.33976636E+03</pdfrwt>
<pdfrwt beam="2">  1       -2 0.67666241E-02 0.33976636E+03</pdfrwt>
<totfact> 0.66641058E+03</totfact>
</mgrwt>
</event>
<event>
 4    1  0.6782240E-004  0.1802085E+03  0.7818608E-02  0.1167601E+00
         -2   -1    0    0    0  501 -0.00000000000E+00  0.00000000000E+00  0.11342490354E+02  0.11342490641E+02  0.25500000000E-02 0. -1.
          2   -1    0    0  501    0  0.00000000000E+00 -0.00000000000E+00 -0.71578423927E+03  0.71578423927E+03  0.25500000000E-02 0.  1.
    5000001    1    1    2    0    0  0.18020135157E+02 -0.38789055882E+02 -0.42882695807E+03  0.43777948341E+03  0.77000000000E+02 0.  0.
   -5000001    1    1    2    0    0 -0.18020135157E+02  0.38789055882E+02 -0.27561479084E+03  0.28934724650E+03  0.77000000000E+02 0.  0.
<mgrwt>
<rscale>  0 0.18020850E+03</rscale>
<asrwt>0</asrwt>
<pdfrwt beam="1">  1        2 0.10225486E+00 0.18020850E+03</pdfrwt>
<pdfrwt beam="2">  1       -2 0.16203562E-02 0.18020850E+03</pdfrwt>
<totfact> 0.45170965E+04</totfact>
</mgrwt>
</event>
<event>
 4    1  0.6782240E-004  0.3305662E+03  0.7818608E-02  0.1070887E+00
          2   -1    0    0  501    0  0.00000000000E+00  0.00000000000E+00  0.13790457130E+04  0.13790457130E+04  0.25500000000E-02 0. -1.
         -2   -1    0    0    0  501 -0.00000000000E+00 -0.00000000000E+00 -0.19809714894E+02  0.19809715058E+02  0.25500000000E-02 0.  1.
    5000001    1    1    2    0    0  0.77437186436E+02 -0.11297997675E+03  0.89657275246E+03  0.91023771260E+03  0.77000000000E+02 0.  0.
   -5000001    1    1    2    0    0 -0.77437186436E+02  0.11297997675E+03  0.46266324565E+03  0.48861771547E+03  0.77000000000E+02 0.  0.
<mgrwt>
<rscale>  0 0.33056620E+03</rscale>
<asrwt>0</asrwt>
<pdfrwt beam="1">  1        2 0.19700658E+00 0.33056620E+03</pdfrwt>
<pdfrwt beam="2">  1       -2 0.28299586E-02 0.33056620E+03</pdfrwt>
<totfact> 0.83474417E+03</totfact>
</mgrwt>
</event>
<event>
 4    1  0.6782240E-004  0.1829027E+03  0.7818608E-02  0.1165023E+00
         -2   -1    0    0    0  501 -0.00000000000E+00  0.00000000000E+00  0.75906337340E+01  0.75906341623E+01  0.25500000000E-02 0. -1.
          2   -1    0    0  501    0  0.00000000000E+00 -0.00000000000E+00 -0.11017984464E+04  0.11017984464E+04  0.25500000000E-02 0.  1.
    5000001    1    1    2    0    0 -0.13834501559E+02  0.46469168068E+02 -0.49165495261E+03  0.50000436942E+03  0.77000000000E+02 0.  0.
   -5000001    1    1    2    0    0  0.13834501559E+02 -0.46469168068E+02 -0.60255286005E+03  0.60938471114E+03  0.77000000000E+02 0.  0.
<mgrwt>
<rscale>  0 0.18290269E+03</rscale>
<asrwt>0</asrwt>
<pdfrwt beam="1">  1        2 0.15739968E+00 0.18290269E+03</pdfrwt>
<pdfrwt beam="2">  1       -2 0.10843770E-02 0.18290269E+03</pdfrwt>
<totfact> 0.46567046E+04</totfact>
</mgrwt>
</event>
<event>
 4    1  0.6782240E-004  0.1926353E+03  0.7818608E-02  0.1156106E+00
         -2   -1    0    0    0  501 -0.00000000000E+00  0.00000000000E+00  0.54122639267E+02  0.54122639328E+02  0.25500000000E-02 0. -1.
          2   -1    0    0  501    0  0.00000000000E+00 -0.00000000000E+00 -0.17140858668E+03  0.17140858670E+03  0.25500000000E-02 0.  1.
    5000001    1    1    2    0    0  0.43763737864E+02  0.56220961505E+01 -0.14817875296E+02  0.89974675022E+02  0.77000000000E+02 0.  0.
   -5000001    1    1    2    0    0 -0.43763737864E+02 -0.56220961505E+01 -0.10246807211E+03  0.13555655100E+03  0.77000000000E+02 0.  0.
<mgrwt>
<rscale>  0 0.19263525E+03</rscale>
<asrwt>0</asrwt>
<pdfrwt beam="1">  1        2 0.24486941E-01 0.19263525E+03</pdfrwt>
<pdfrwt beam="2">  1       -2 0.77318057E-02 0.19263525E+03</pdfrwt>
<totfact> 0.21075071E+04</totfact>
</mgrwt>
</event>
<event>
 4    1  0.6782240E-004  0.2711444E+03  0.7818608E-02  0.1100626E+00
         -2   -1    0    0    0  501 -0.00000000000E+00  0.00000000000E+00  0.15112193341E+02  0.15112193556E+02  0.25500000000E-02 0. -1.
          2   -1    0    0  501    0  0.00000000000E+00 -0.00000000000E+00 -0.12162249383E+04  0.12162249383E+04  0.25500000000E-02 0.  1.
    5000001    1    1    2    0    0  0.97295320395E+02 -0.52154937891E+02 -0.67438635586E+03  0.68768631940E+03  0.77000000000E+02 0.  0.
   -5000001    1    1    2    0    0 -0.97295320395E+02  0.52154937891E+02 -0.52672638913E+03  0.54365081249E+03  0.77000000000E+02 0.  0.
<mgrwt>
<rscale>  0 0.27114444E+03</rscale>
<asrwt>0</asrwt>
<pdfrwt beam="1">  1        2 0.17374636E+00 0.27114444E+03</pdfrwt>
<pdfrwt beam="2">  1       -2 0.21588856E-02 0.27114444E+03</pdfrwt>
<totfact> 0.15128903E+04</totfact>
</mgrwt>
</event>
<event>
 4    1  0.6782240E-004  0.1990506E+03  0.7818608E-02  0.1150543E+00
         -2   -1    0    0    0  501 -0.00000000000E+00  0.00000000000E+00  0.83919123378E+01  0.83919127253E+01  0.25500000000E-02 0. -1.
          2   -1    0    0  501    0  0.00000000000E+00 -0.00000000000E+00 -0.11803369721E+04  0.11803369721E+04  0.25500000000E-02 0.  1.
    5000001    1    1    2    0    0 -0.23029455561E+02  0.26563916623E+02 -0.27335208510E+03  0.28615792828E+03  0.77000000000E+02 0.  0.
   -5000001    1    1    2    0    0  0.23029455561E+02 -0.26563916623E+02 -0.89859297470E+03  0.90257095658E+03  0.77000000000E+02 0.  0.
<mgrwt>
<rscale>  0 0.19905059E+03</rscale>
<asrwt>0</asrwt>
<pdfrwt beam="1">  1        2 0.16861946E+00 0.19905059E+03</pdfrwt>
<pdfrwt beam="2">  1       -2 0.11988454E-02 0.19905059E+03</pdfrwt>
<totfact> 0.36722362E+04</totfact>
</mgrwt>
</event>
<event>
 4    1  0.6782240E-004  0.1924205E+03  0.7818608E-02  0.1156296E+00
          2   -1    0    0  501    0  0.00000000000E+00  0.00000000000E+00  0.13260174524E+03  0.13260174527E+03  0.25500000000E-02 0.  1.
         -2   -1    0    0    0  501 -0.00000000000E+00 -0.00000000000E+00 -0.69806112789E+02  0.69806112836E+02  0.25500000000E-02 0. -1.
    5000001    1    1    2    0    0 -0.57469983439E+02 -0.41497334225E+01  0.34257971070E+02  0.10209127223E+03  0.77000000000E+02 0.  0.
   -5000001    1    1    2    0    0  0.57469983439E+02  0.41497334225E+01  0.28537661386E+02  0.10031658587E+03  0.77000000000E+02 0.  0.
<mgrwt>
<rscale>  0 0.19242050E+03</rscale>
<asrwt>0</asrwt>
<pdfrwt beam="1">  1        2 0.18943106E-01 0.19242050E+03</pdfrwt>
<pdfrwt beam="2">  1       -2 0.99723019E-02 0.19242050E+03</pdfrwt>
<totfact> 0.18908654E+04</totfact>
</mgrwt>
</event>
<event>
 4    1  0.6782240E-004  0.4802546E+03  0.7818608E-02  0.1019065E+00
          2   -1    0    0  501    0  0.00000000000E+00  0.00000000000E+00  0.12330586897E+03  0.12330586899E+03  0.25500000000E-02 0. -1.
         -2   -1    0    0    0  501 -0.00000000000E+00 -0.00000000000E+00 -0.46762672473E+03  0.46762672473E+03  0.25500000000E-02 0.  1.
    5000001    1    1    2    0    0  0.20872956351E+03  0.16103441413E+02 -0.62762025025E+02  0.23172272934E+03  0.77000000000E+02 0.  0.
   -5000001    1    1    2    0    0 -0.20872956351E+03 -0.16103441413E+02 -0.28155883074E+03  0.35920986439E+03  0.77000000000E+02 0.  0.
<mgrwt>
<rscale>  0 0.48025460E+03</rscale>
<asrwt>0</asrwt>
<pdfrwt beam="1">  1        2 0.17615124E-01 0.48025460E+03</pdfrwt>
<pdfrwt beam="2">  1       -2 0.66803817E-01 0.48025460E+03</pdfrwt>
<totfact> 0.68384687E+02</totfact>
</mgrwt>
</event>
<event>
 4    1  0.6782240E-004  0.4323378E+03  0.7818608E-02  0.1033124E+00
         -2   -1    0    0    0  501 -0.00000000000E+00  0.00000000000E+00  0.20387682560E+03  0.20387682562E+03  0.25500000000E-02 0. -1.
          2   -1    0    0  501    0  0.00000000000E+00 -0.00000000000E+00 -0.22920210215E+03  0.22920210216E+03  0.25500000000E-02 0.  1.
    5000001    1    1    2    0    0  0.48862908283E+02 -0.19248693004E+03 -0.49620258233E+02  0.21870064488E+03  0.77000000000E+02 0.  0.
   -5000001    1    1    2    0    0 -0.48862908283E+02  0.19248693004E+03  0.24294981688E+02  0.21437828290E+03  0.77000000000E+02 0.  0.
<mgrwt>
<rscale>  0 0.43233782E+03</rscale>
<asrwt>0</asrwt>
<pdfrwt beam="1">  1        2 0.32743158E-01 0.43233782E+03</pdfrwt>
<pdfrwt beam="2">  1       -2 0.29125261E-01 0.43233782E+03</pdfrwt>
<totfact> 0.17326599E+03</totfact>
</mgrwt>
</event>
<event>
 4    1  0.6782240E-004  0.1752785E+03  0.7818608E-02  0.1172452E+00
         -2   -1    0    0    0  501 -0.00000000000E+00  0.00000000000E+00  0.62414950164E+02  0.62414950216E+02  0.25500000000E-02 0. -1.
          2   -1    0    0  501    0  0.00000000000E+00 -0.00000000000E+00 -0.12305772610E+03  0.12305772612E+03  0.25500000000E-02 0.  1.
    5000001    1    1    2    0    0  0.28854191153E+02  0.23997176032E+02 -0.49924863674E+02  0.99145957141E+02  0.77000000000E+02 0.  0.
   -5000001    1    1    2    0    0 -0.28854191153E+02 -0.23997176032E+02 -0.10717912261E+02  0.86326719200E+02  0.77000000000E+02 0.  0.
<mgrwt>
<rscale>  0 0.17527854E+03</rscale>
<asrwt>0</asrwt>
<pdfrwt beam="1">  1        2 0.17579675E-01 0.17527854E+03</pdfrwt>
<pdfrwt beam="2">  1       -2 0.89164214E-02 0.17527854E+03</pdfrwt>
<totfact> 0.24374036E+04</totfact>
</mgrwt>
</event>
<event>
 4    1  0.6782240E-004  0.2441452E+03  0.7818608E-02  0.1117062E+00
          2   -1    0    0  501    0  0.00000000000E+00  0.00000000000E+00  0.31361394422E+03  0.31361394423E+03  0.25500000000E-02 0.  1.
         -2   -1    0    0    0  501 -0.00000000000E+00 -0.00000000000E+00 -0.47516136423E+02  0.47516136491E+02  0.25500000000E-02 0. -1.
    5000001    1    1    2    0    0  0.48772082104E+02 -0.66982153306E+02  0.20095186611E+03  0.23059917031E+03  0.77000000000E+02 0.  0.
   -5000001    1    1    2    0    0 -0.48772082104E+02  0.66982153306E+02  0.65145941684E+02  0.13053091041E+03  0.77000000000E+02 0.  0.
<mgrwt>
<rscale>  0 0.24414523E+03</rscale>
<asrwt>0</asrwt>
<pdfrwt beam="1">  1        2 0.44801991E-01 0.24414523E+03</pdfrwt>
<pdfrwt beam="2">  1       -2 0.67880196E-02 0.24414523E+03</pdfrwt>
<totfact> 0.13576397E+04</totfact>
</mgrwt>
</event>
<event>
 4    1  0.6782240E-004  0.3812075E+03  0.7818608E-02  0.1050488E+00
          2   -1    0    0  501    0  0.00000000000E+00  0.00000000000E+00  0.29951814748E+04  0.29951814748E+04  0.25500000000E-02 0.  1.
         -2   -1    0    0    0  501 -0.00000000000E+00 -0.00000000000E+00 -0.12129409254E+02  0.12129409522E+02  0.25500000000E-02 0. -1.
    5000001    1    1    2    0    0  0.63269781735E+02 -0.16235319417E+03  0.15408915464E+04  0.15526227432E+04  0.77000000000E+02 0.  0.
   -5000001    1    1    2    0    0 -0.63269781735E+02  0.16235319417E+03  0.14421605191E+04  0.14546881411E+04  0.77000000000E+02 0.  0.
<mgrwt>
<rscale>  0 0.38120746E+03</rscale>
<asrwt>0</asrwt>
<pdfrwt beam="1">  1        2 0.42788315E+00 0.38120746E+03</pdfrwt>
<pdfrwt beam="2">  1       -2 0.17327724E-02 0.38120746E+03</pdfrwt>
<totfact> 0.26421137E+03</totfact>
</mgrwt>
</event>
<event>
 4    1  0.6782240E-004  0.3134887E+03  0.7818608E-02  0.1078686E+00
          2   -1    0    0  501    0  0.00000000000E+00  0.00000000000E+00  0.10512417246E+03  0.10512417249E+03  0.25500000000E-02 0.  1.
         -2   -1    0    0    0  501 -0.00000000000E+00 -0.00000000000E+00 -0.23371204036E+03  0.23371204037E+03  0.25500000000E-02 0. -1.
    5000001    1    1    2    0    0  0.24679411926E+02 -0.13426991060E+03 -0.62653815624E+02  0.16879568383E+03  0.77000000000E+02 0.  0.
   -5000001    1    1    2    0    0 -0.24679411926E+02  0.13426991060E+03 -0.65934052273E+02  0.17004052904E+03  0.77000000000E+02 0.  0.
<mgrwt>
<rscale>  0 0.31348866E+03</rscale>
<asrwt>0</asrwt>
<pdfrwt beam="1">  1        2 0.15017739E-01 0.31348866E+03</pdfrwt>
<pdfrwt beam="2">  1       -2 0.33387434E-01 0.31348866E+03</pdfrwt>
<totfact> 0.32681270E+03</totfact>
</mgrwt>
</event>
<event>
 4    1  0.6782240E-004  0.4179930E+03  0.7818608E-02  0.1037722E+00
          2   -1    0    0  501    0  0.00000000000E+00  0.00000000000E+00  0.65880051735E+03  0.65880051735E+03  0.25500000000E-02 0.  1.
         -2   -1    0    0    0  501 -0.00000000000E+00 -0.00000000000E+00 -0.66301604594E+02  0.66301604643E+02  0.25500000000E-02 0. -1.
    5000001    1    1    2    0    0 -0.95465868603E+02  0.10415641474E+03  0.64884972254E+02  0.17349740754E+03  0.77000000000E+02 0.  0.
   -5000001    1    1    2    0    0  0.95465868603E+02 -0.10415641474E+03  0.52761394050E+03  0.55160471445E+03  0.77000000000E+02 0.  0.
<mgrwt>
<rscale>  0 0.41799297E+03</rscale>
<asrwt>0</asrwt>
<pdfrwt beam="1">  1        2 0.94114357E-01 0.41799297E+03</pdfrwt>
<pdfrwt beam="2">  1       -2 0.94716581E-02 0.41799297E+03</pdfrwt>
<totfact> 0.35948098E+03</totfact>
</mgrwt>
</event>
<event>
 4    1  0.6782240E-004  0.2284174E+03  0.7818608E-02  0.1127759E+00
         -2   -1    0    0    0  501 -0.00000000000E+00  0.00000000000E+00  0.15726154787E+02  0.15726154994E+02  0.25500000000E-02 0. -1.
          2   -1    0    0  501    0  0.00000000000E+00 -0.00000000000E+00 -0.82942256953E+03  0.82942256954E+03  0.25500000000E-02 0.  1.
    5000001    1    1    2    0    0 -0.17110111504E+02  0.78262784553E+02 -0.30917832898E+03  0.32853927995E+03  0.77000000000E+02 0.  0.
   -5000001    1    1    2    0    0  0.17110111504E+02 -0.78262784553E+02 -0.50451808577E+03  0.51660944458E+03  0.77000000000E+02 0.  0.
<mgrwt>
<rscale>  0 0.22841741E+03</rscale>
<asrwt>0</asrwt>
<pdfrwt beam="1">  1        2 0.11848891E+00 0.22841741E+03</pdfrwt>
<pdfrwt beam="2">  1       -2 0.22465941E-02 0.22841741E+03</pdfrwt>
<totfact> 0.23858325E+04</totfact>
</mgrwt>
</event>
<event>
 4    1  0.6782240E-004  0.7784642E+03  0.7818608E-02  0.9591723E-01
         -2   -1    0    0    0  501 -0.00000000000E+00  0.00000000000E+00  0.11730378348E+03  0.11730378350E+03  0.25500000000E-02 0. -1.
          2   -1    0    0  501    0  0.00000000000E+00 -0.00000000000E+00 -0.12915323788E+04  0.12915323788E+04  0.25500000000E-02 0.  1.
    5000001    1    1    2    0    0 -0.17313514577E+03  0.32804309164E+03 -0.42540014352E+03  0.56963350568E+03  0.77000000000E+02 0.  0.
   -5000001    1    1    2    0    0  0.17313514577E+03 -0.32804309164E+03 -0.74882845184E+03  0.83920265667E+03  0.77000000000E+02 0.  0.
<mgrwt>
<rscale>  0 0.77846422E+03</rscale>
<asrwt>0</asrwt>
<pdfrwt beam="1">  1        2 0.18450462E+00 0.77846422E+03</pdfrwt>
<pdfrwt beam="2">  1       -2 0.16757684E-01 0.77846422E+03</pdfrwt>
<totfact> 0.55341256E+02</totfact>
</mgrwt>
</event>
<event>
 4    1  0.6782240E-004  0.2901356E+03  0.7818608E-02  0.1090278E+00
         -2   -1    0    0    0  501 -0.00000000000E+00  0.00000000000E+00  0.27141394696E+02  0.27141394815E+02  0.25500000000E-02 0. -1.
          2   -1    0    0  501    0  0.00000000000E+00 -0.00000000000E+00 -0.77537136375E+03  0.77537136376E+03  0.25500000000E-02 0.  1.
    5000001    1    1    2    0    0 -0.61548778262E+02  0.10611520974E+03 -0.39675061104E+03  0.42236090871E+03  0.77000000000E+02 0.  0.
   -5000001    1    1    2    0    0  0.61548778262E+02 -0.10611520974E+03 -0.35147935802E+03  0.38015184987E+03  0.77000000000E+02 0.  0.
<mgrwt>
<rscale>  0 0.29013556E+03</rscale>
<asrwt>0</asrwt>
<pdfrwt beam="1">  1        2 0.11076732E+00 0.29013556E+03</pdfrwt>
<pdfrwt beam="2">  1       -2 0.38773426E-02 0.29013556E+03</pdfrwt>
<totfact> 0.11656440E+04</totfact>
</mgrwt>
</event>
<event>
 4    1  0.6782240E-004  0.3148240E+03  0.7818608E-02  0.1078056E+00
          2   -1    0    0  501    0  0.00000000000E+00  0.00000000000E+00  0.10325599186E+04  0.10325599186E+04  0.25500000000E-02 0.  1.
         -2   -1    0    0    0  501 -0.00000000000E+00 -0.00000000000E+00 -0.23997190255E+02  0.23997190390E+02  0.25500000000E-02 0. -1.
    5000001    1    1    2    0    0  0.70160215940E+02  0.26605941841E+02  0.11842308982E+03  0.15994799231E+03  0.77000000000E+02 0.  0.
   -5000001    1    1    2    0    0 -0.70160215940E+02 -0.26605941841E+02  0.89013963856E+03  0.89660911671E+03  0.77000000000E+02 0.  0.
<mgrwt>
<rscale>  0 0.31482399E+03</rscale>
<asrwt>0</asrwt>
<pdfrwt beam="1">  1        2 0.14750856E+00 0.31482399E+03</pdfrwt>
<pdfrwt beam="2">  1       -2 0.34281700E-02 0.31482399E+03</pdfrwt>
<totfact> 0.96863050E+03</totfact>
</mgrwt>
</event>
<event>
 4    1  0.6782240E-004  0.2401146E+03  0.7818608E-02  0.1119717E+00
          2   -1    0    0  501    0  0.00000000000E+00  0.00000000000E+00  0.65625507715E+03  0.65625507715E+03  0.25500000000E-02 0.  1.
         -2   -1    0    0    0  501 -0.00000000000E+00 -0.00000000000E+00 -0.21963644590E+02  0.21963644738E+02  0.25500000000E-02 0. -1.
    5000001    1    1    2    0    0 -0.40247514259E+02  0.72579739268E+02  0.43002481521E+03  0.44467743664E+03  0.77000000000E+02 0.  0.
   -5000001    1    1    2    0    0  0.40247514259E+02 -0.72579739268E+02  0.20426661734E+03  0.23354128525E+03  0.77000000000E+02 0.  0.
<mgrwt>
<rscale>  0 0.24011458E+03</rscale>
<asrwt>0</asrwt>
<pdfrwt beam="1">  1        2 0.93750727E-01 0.24011458E+03</pdfrwt>
<pdfrwt beam="2">  1       -2 0.31376635E-02 0.24011458E+03</pdfrwt>
<totfact> 0.19348250E+04</totfact>
</mgrwt>
</event>
<event>
 4    1  0.6782240E-004  0.2531632E+03  0.7818608E-02  0.1111322E+00
          2   -1    0    0  501    0  0.00000000000E+00  0.00000000000E+00  0.29732174237E+03  0.29732174238E+03  0.25500000000E-02 0.  1.
         -2   -1    0    0    0  501 -0.00000000000E+00 -0.00000000000E+00 -0.53890773247E+02  0.53890773307E+02  0.25500000000E-02 0. -1.
    5000001    1    1    2    0    0  0.46041287691E+02  0.79483644748E+02  0.65253201427E+02  0.13647135323E+03  0.77000000000E+02 0.  0.
   -5000001    1    1    2    0    0 -0.46041287691E+02 -0.79483644748E+02  0.17817776770E+03  0.21474116247E+03  0.77000000000E+02 0.  0.
<mgrwt>
<rscale>  0 0.25316318E+03</rscale>
<asrwt>0</asrwt>
<pdfrwt beam="1">  1        2 0.42474535E-01 0.25316318E+03</pdfrwt>
<pdfrwt beam="2">  1       -2 0.76986818E-02 0.25316318E+03</pdfrwt>
<totfact> 0.11851579E+04</totfact>
</mgrwt>
</event>
<event>
 4    1  0.6782240E-004  0.2837001E+03  0.7818608E-02  0.1093685E+00
         -2   -1    0    0    0  501 -0.00000000000E+00  0.00000000000E+00  0.19320584312E+02  0.19320584480E+02  0.25500000000E-02 0. -1.
          2   -1    0    0  501    0  0.00000000000E+00 -0.00000000000E+00 -0.10414506361E+04  0.10414506361E+04  0.25500000000E-02 0.  1.
    5000001    1    1    2    0    0  0.65999252181E+02  0.96653102928E+02 -0.59422956446E+03  0.61052067850E+03  0.77000000000E+02 0.  0.
   -5000001    1    1    2    0    0 -0.65999252181E+02 -0.96653102928E+02 -0.42790048736E+03  0.45025054211E+03  0.77000000000E+02 0.  0.
<mgrwt>
<rscale>  0 0.28370009E+03</rscale>
<asrwt>0</asrwt>
<pdfrwt beam="1">  1        2 0.14877863E+00 0.28370009E+03</pdfrwt>
<pdfrwt beam="2">  1       -2 0.27600841E-02 0.28370009E+03</pdfrwt>
<totfact> 0.13187406E+04</totfact>
</mgrwt>
</event>
<event>
 4    1  0.6782240E-004  0.2887146E+03  0.7818608E-02  0.1091022E+00
         -2   -1    0    0    0  501 -0.00000000000E+00  0.00000000000E+00  0.88859435621E+02  0.88859435658E+02  0.25500000000E-02 0. -1.
          2   -1    0    0  501    0  0.00000000000E+00 -0.00000000000E+00 -0.23451678027E+03  0.23451678029E+03  0.25500000000E-02 0.  1.
    5000001    1    1    2    0    0  0.42091907966E+02 -0.10398447282E+03 -0.18815428102E+02  0.13735909012E+03  0.77000000000E+02 0.  0.
   -5000001    1    1    2    0    0 -0.42091907966E+02  0.10398447282E+03 -0.12684191655E+03  0.18601712582E+03  0.77000000000E+02 0.  0.
<mgrwt>
<rscale>  0 0.28871459E+03</rscale>
<asrwt>0</asrwt>
<pdfrwt beam="1">  1        2 0.33502397E-01 0.28871459E+03</pdfrwt>
<pdfrwt beam="2">  1       -2 0.12694205E-01 0.28871459E+03</pdfrwt>
<totfact> 0.69619596E+03</totfact>
</mgrwt>
</event>
<event>
 4    1  0.6782240E-004  0.3764238E+03  0.7818608E-02  0.1052263E+00
         -2   -1    0    0    0  501 -0.00000000000E+00  0.00000000000E+00  0.38967887782E+03  0.38967887783E+03  0.25500000000E-02 0. -1.
          2   -1    0    0  501    0  0.00000000000E+00 -0.00000000000E+00 -0.90904918935E+02  0.90904918971E+02  0.25500000000E-02 0.  1.
    5000001    1    1    2    0    0  0.51901762233E+02  0.10546871876E+03  0.30924241425E+03  0.33967236321E+03  0.77000000000E+02 0.  0.
   -5000001    1    1    2    0    0 -0.51901762233E+02 -0.10546871876E+03 -0.10468455363E+02  0.14091143359E+03  0.77000000000E+02 0.  0.
<mgrwt>
<rscale>  0 0.37642384E+03</rscale>
<asrwt>0</asrwt>
<pdfrwt beam="1">  1        2 0.12986417E-01 0.37642384E+03</pdfrwt>
<pdfrwt beam="2">  1       -2 0.55668411E-01 0.37642384E+03</pdfrwt>
<totfact> 0.14426162E+03</totfact>
</mgrwt>
</event>
<event>
 4    1  0.6782240E-004  0.2843746E+03  0.7818608E-02  0.1093323E+00
          2   -1    0    0  501    0  0.00000000000E+00  0.00000000000E+00  0.18119928751E+03  0.18119928753E+03  0.25500000000E-02 0.  1.
         -2   -1    0    0    0  501 -0.00000000000E+00 -0.00000000000E+00 -0.11157458009E+03  0.11157458012E+03  0.25500000000E-02 0. -1.
    5000001    1    1    2    0    0 -0.39817692130E+02 -0.28519490472E+02 -0.77446824115E+02  0.11969051971E+03  0.77000000000E+02 0.  0.
   -5000001    1    1    2    0    0  0.39817692130E+02  0.28519490472E+02  0.14707153154E+03  0.17308334793E+03  0.77000000000E+02 0.  0.
<mgrwt>
<rscale>  0 0.28437464E+03</rscale>
<asrwt>0</asrwt>
<pdfrwt beam="1">  1        2 0.25885613E-01 0.28437464E+03</pdfrwt>
<pdfrwt beam="2">  1       -2 0.15939226E-01 0.28437464E+03</pdfrwt>
<totfact> 0.63572190E+03</totfact>
</mgrwt>
</event>
<event>
 4    1  0.6782240E-004  0.3931129E+03  0.7818608E-02  0.1046191E+00
         -2   -1    0    0    0  501 -0.00000000000E+00  0.00000000000E+00  0.90605372923E+02  0.90605372958E+02  0.25500000000E-02 0. -1.
          2   -1    0    0  501    0  0.00000000000E+00 -0.00000000000E+00 -0.42640338720E+03  0.42640338720E+03  0.25500000000E-02 0.  1.
    5000001    1    1    2    0    0 -0.14402764108E+03  0.94270153664E+02 -0.24082392582E+03  0.30586923107E+03  0.77000000000E+02 0.  0.
   -5000001    1    1    2    0    0  0.14402764108E+03 -0.94270153664E+02 -0.94974088454E+02  0.21113952909E+03  0.77000000000E+02 0.  0.
<mgrwt>
<rscale>  0 0.39311290E+03</rscale>
<asrwt>0</asrwt>
<pdfrwt beam="1">  1        2 0.60914768E-01 0.39311290E+03</pdfrwt>
<pdfrwt beam="2">  1       -2 0.12943625E-01 0.39311290E+03</pdfrwt>
<totfact> 0.35503967E+03</totfact>
</mgrwt>
</event>
<event>
 4    1  0.6782240E-004  0.2079285E+03  0.7818608E-02  0.1143217E+00
          2   -1    0    0  501    0  0.00000000000E+00  0.00000000000E+00  0.48734800341E+02  0.48734800408E+02  0.25500000000E-02 0.  1.
         -2   -1    0    0    0  501 -0.00000000000E+00 -0.00000000000E+00 -0.22178323653E+03  0.22178323654E+03  0.25500000000E-02 0. -1.
    5000001    1    1    2    0    0 -0.29726948579E+02 -0.41408113473E+02 -0.24384737785E+02  0.95508841319E+02  0.77000000000E+02 0.  0.
   -5000001    1    1    2    0    0  0.29726948579E+02  0.41408113473E+02 -0.14866369840E+03  0.17500919563E+03  0.77000000000E+02 0.  0.
<mgrwt>
<rscale>  0 0.20792847E+03</rscale>
<asrwt>0</asrwt>
<pdfrwt beam="1">  1        2 0.69621144E-02 0.20792847E+03</pdfrwt>
<pdfrwt beam="2">  1       -2 0.31683319E-01 0.20792847E+03</pdfrwt>
<totfact> 0.91494952E+03</totfact>
</mgrwt>
</event>
<event>
 4    1  0.6782240E-004  0.2156598E+03  0.7818608E-02  0.1137161E+00
          2   -1    0    0  501    0  0.00000000000E+00  0.00000000000E+00  0.32566222229E+04  0.32566222229E+04  0.25500000000E-02 0.  1.
         -2   -1    0    0    0  501 -0.00000000000E+00 -0.00000000000E+00 -0.35703508351E+01  0.35703517457E+01  0.25500000000E-02 0. -1.
    5000001    1    1    2    0    0 -0.62409675707E+02  0.42012251618E+02  0.15329836469E+04  0.15367588811E+04  0.77000000000E+02 0.  0.
   -5000001    1    1    2    0    0  0.62409675707E+02 -0.42012251618E+02  0.17200682252E+04  0.17234336936E+04  0.77000000000E+02 0.  0.
<mgrwt>
<rscale>  0 0.21565978E+03</rscale>
<asrwt>0</asrwt>
<pdfrwt beam="1">  1        2 0.46522993E+00 0.21565978E+03</pdfrwt>
<pdfrwt beam="2">  1       -2 0.51005218E-03 0.21565978E+03</pdfrwt>
<totfact> 0.11372860E+04</totfact>
</mgrwt>
</event>
<event>
 4    1  0.6782240E-004  0.1799577E+03  0.7818608E-02  0.1167844E+00
         -2   -1    0    0    0  501 -0.00000000000E+00  0.00000000000E+00  0.58363202792E+01  0.58363208363E+01  0.25500000000E-02 0. -1.
          2   -1    0    0  501    0  0.00000000000E+00 -0.00000000000E+00 -0.13872077859E+04  0.13872077859E+04  0.25500000000E-02 0.  1.
    5000001    1    1    2    0    0  0.10562530458E+02  0.36286021252E+02 -0.90111259044E+03  0.90518569533E+03  0.77000000000E+02 0.  0.
   -5000001    1    1    2    0    0 -0.10562530458E+02 -0.36286021252E+02 -0.48025887516E+03  0.48785841138E+03  0.77000000000E+02 0.  0.
<mgrwt>
<rscale>  0 0.17995765E+03</rscale>
<asrwt>0</asrwt>
<pdfrwt beam="1">  1        2 0.19817233E+00 0.17995765E+03</pdfrwt>
<pdfrwt beam="2">  1       -2 0.83376097E-03 0.17995765E+03</pdfrwt>
<totfact> 0.47947557E+04</totfact>
</mgrwt>
</event>
<event>
 4    1  0.6782240E-004  0.1721134E+03  0.7818608E-02  0.1175662E+00
          2   -1    0    0  501    0  0.00000000000E+00  0.00000000000E+00  0.22570308036E+04  0.22570308036E+04  0.25500000000E-02 0.  1.
         -2   -1    0    0    0  501 -0.00000000000E+00 -0.00000000000E+00 -0.32811947194E+01  0.32811957103E+01  0.25500000000E-02 0. -1.
    5000001    1    1    2    0    0  0.37381069056E+02  0.83541822236E+01  0.11676115281E+04  0.11707744519E+04  0.77000000000E+02 0.  0.
   -5000001    1    1    2    0    0 -0.37381069056E+02 -0.83541822236E+01  0.10861380808E+04  0.10895375474E+04  0.77000000000E+02 0.  0.
<mgrwt>
<rscale>  0 0.17211344E+03</rscale>
<asrwt>0</asrwt>
<pdfrwt beam="1">  1        2 0.32243278E+00 0.17211344E+03</pdfrwt>
<pdfrwt beam="2">  1       -2 0.46874245E-03 0.17211344E+03</pdfrwt>
<totfact> 0.41145294E+04</totfact>
</mgrwt>
</event>
<event>
 4    1  0.6782240E-004  0.2510673E+03  0.7818608E-02  0.1112632E+00
          2   -1    0    0  501    0  0.00000000000E+00  0.00000000000E+00  0.15194293360E+04  0.15194293360E+04  0.25500000000E-02 0.  1.
         -2   -1    0    0    0  501 -0.00000000000E+00 -0.00000000000E+00 -0.10371457192E+02  0.10371457506E+02  0.25500000000E-02 0. -1.
    5000001    1    1    2    0    0  0.30649546522E+02  0.80995254710E+02  0.46040574315E+03  0.47476528339E+03  0.77000000000E+02 0.  0.
   -5000001    1    1    2    0    0 -0.30649546522E+02 -0.80995254710E+02  0.10486521357E+04  0.10550355101E+04  0.77000000000E+02 0.  0.
<mgrwt>
<rscale>  0 0.25106729E+03</rscale>
<asrwt>0</asrwt>
<pdfrwt beam="1">  1        2 0.21706102E+00 0.25106729E+03</pdfrwt>
<pdfrwt beam="2">  1       -2 0.14816389E-02 0.25106729E+03</pdfrwt>
<totfact> 0.18243158E+04</totfact>
</mgrwt>
</event>
<event>
 4    1  0.6782240E-004  0.2682235E+03  0.7818608E-02  0.1102301E+00
         -2   -1    0    0    0  501 -0.00000000000E+00  0.00000000000E+00  0.79595041718E+01  0.79595045802E+01  0.25500000000E-02 0. -1.
          2   -1    0    0  501    0  0.00000000000E+00 -0.00000000000E+00 -0.22596842858E+04  0.22596842858E+04  0.25500000000E-02 0.  1.
    5000001    1    1    2    0    0 -0.63577606058E+02  0.87946487429E+02 -0.12673982545E+04  0.12743641678E+04  0.77000000000E+02 0.  0.
   -5000001    1    1    2    0    0  0.63577606058E+02 -0.87946487429E+02 -0.98432652713E+03  0.99327962259E+03  0.77000000000E+02 0.  0.
<mgrwt>
<rscale>  0 0.26822354E+03</rscale>
<asrwt>0</asrwt>
<pdfrwt beam="1">  1        2 0.32281163E+00 0.26822354E+03</pdfrwt>
<pdfrwt beam="2">  1       -2 0.11370735E-02 0.26822354E+03</pdfrwt>
<totfact> 0.11655363E+04</totfact>
</mgrwt>
</event>
<event>
 4    1  0.6782240E-004  0.2749095E+03  0.7818608E-02  0.1098502E+00
         -2   -1    0    0    0  501 -0.00000000000E+00  0.00000000000E+00  0.12840354884E+02  0.12840355137E+02  0.25500000000E-02 0. -1.
          2   -1    0    0  501    0  0.00000000000E+00 -0.00000000000E+00 -0.14714392537E+04  0.14714392537E+04  0.25500000000E-02 0.  1.
    5000001    1    1    2    0    0  0.85882740309E+02  0.74379855035E+02 -0.76991693866E+03  0.78205453797E+03  0.77000000000E+02 0.  0.
   -5000001    1    1    2    0    0 -0.85882740309E+02 -0.74379855035E+02 -0.68868196017E+03  0.70222507088E+03  0.77000000000E+02 0.  0.
<mgrwt>
<rscale>  0 0.27490946E+03</rscale>
<asrwt>0</asrwt>
<pdfrwt beam="1">  1        2 0.21020550E+00 0.27490946E+03</pdfrwt>
<pdfrwt beam="2">  1       -2 0.18343374E-02 0.27490946E+03</pdfrwt>
<totfact> 0.14155447E+04</totfact>
</mgrwt>
</event>
<event>
 4    1  0.6782240E-004  0.8015519E+03  0.7818608E-02  0.9557774E-01
          2   -1    0    0  501    0  0.00000000000E+00  0.00000000000E+00  0.15208348737E+04  0.15208348737E+04  0.25500000000E-02 0.  1.
         -2   -1    0    0    0  501 -0.00000000000E+00 -0.00000000000E+00 -0.10561394013E+03  0.10561394017E+03  0.25500000000E-02 0. -1.
    5000001    1    1    2    0    0 -0.30787683235E+03 -0.79223322407E+02  0.11775089938E+04  0.12220969312E+04  0.77000000000E+02 0.  0.
   -5000001    1    1    2    0    0  0.30787683235E+03  0.79223322407E+02  0.23771193971E+03  0.40435188264E+03  0.77000000000E+02 0.  0.
<mgrwt>
<rscale>  0 0.80155190E+03</rscale>
<asrwt>0</asrwt>
<pdfrwt beam="1">  1        2 0.21726211E+00 0.80155190E+03</pdfrwt>
<pdfrwt beam="2">  1       -2 0.15087707E-01 0.80155190E+03</pdfrwt>
<totfact> 0.49805630E+02</totfact>
</mgrwt>
</event>
<event>
 4    1  0.6782240E-004  0.2008631E+03  0.7818608E-02  0.1149013E+00
         -2   -1    0    0    0  501 -0.00000000000E+00  0.00000000000E+00  0.24420480900E+02  0.24420481033E+02  0.25500000000E-02 0. -1.
          2   -1    0    0  501    0  0.00000000000E+00 -0.00000000000E+00 -0.41303441599E+03  0.41303441599E+03  0.25500000000E-02 0.  1.
    5000001    1    1    2    0    0 -0.49124769883E+02 -0.34439443239E+02 -0.14285280445E+03  0.17301803954E+03  0.77000000000E+02 0.  0.
   -5000001    1    1    2    0    0  0.49124769883E+02  0.34439443239E+02 -0.24576113064E+03  0.26443685749E+03  0.77000000000E+02 0.  0.
<mgrwt>
<rscale>  0 0.20086313E+03</rscale>
<asrwt>0</asrwt>
<pdfrwt beam="1">  1        2 0.59004912E-01 0.20086313E+03</pdfrwt>
<pdfrwt beam="2">  1       -2 0.34886404E-02 0.20086313E+03</pdfrwt>
<totfact> 0.27303558E+04</totfact>
</mgrwt>
</event>
<event>
 4    1  0.6782240E-004  0.4861809E+03  0.7818608E-02  0.1017450E+00
          2   -1    0    0  501    0  0.00000000000E+00  0.00000000000E+00  0.15339611892E+04  0.15339611892E+04  0.25500000000E-02 0.  1.
         -2   -1    0    0    0  501 -0.00000000000E+00 -0.00000000000E+00 -0.38523116399E+02  0.38523116484E+02  0.25500000000E-02 0. -1.
    5000001    1    1    2    0    0 -0.12236412610E+03  0.19274333870E+03  0.64336433219E+03  0.68700046426E+03  0.77000000000E+02 0.  0.
   -5000001    1    1    2    0    0  0.12236412610E+03 -0.19274333870E+03  0.85207374057E+03  0.88548384137E+03  0.77000000000E+02 0.  0.
<mgrwt>
<rscale>  0 0.48618089E+03</rscale>
<asrwt>0</asrwt>
<pdfrwt beam="1">  1        2 0.21913729E+00 0.48618089E+03</pdfrwt>
<pdfrwt beam="2">  1       -2 0.55033029E-02 0.48618089E+03</pdfrwt>
<totfact> 0.25289954E+03</totfact>
</mgrwt>
</event>
<event>
 4    1  0.6782240E-004  0.3138681E+03  0.7818608E-02  0.1078507E+00
         -2   -1    0    0    0  501 -0.00000000000E+00  0.00000000000E+00  0.61533402990E+02  0.61533403042E+02  0.25500000000E-02 0. -1.
          2   -1    0    0  501    0  0.00000000000E+00 -0.00000000000E+00 -0.40024261476E+03  0.40024261477E+03  0.25500000000E-02 0.  1.
    5000001    1    1    2    0    0 -0.76650299904E+02 -0.10615235259E+03 -0.11132533282E+03  0.18832397660E+03  0.77000000000E+02 0.  0.
   -5000001    1    1    2    0    0  0.76650299904E+02  0.10615235259E+03 -0.22738387895E+03  0.27345204121E+03  0.77000000000E+02 0.  0.
<mgrwt>
<rscale>  0 0.31386806E+03</rscale>
<asrwt>0</asrwt>
<pdfrwt beam="1">  1        2 0.57177515E-01 0.31386806E+03</pdfrwt>
<pdfrwt beam="2">  1       -2 0.87904864E-02 0.31386806E+03</pdfrwt>
<totfact> 0.70492655E+03</totfact>
</mgrwt>
</event>
<event>
 4    1  0.6782240E-004  0.2675444E+03  0.7818608E-02  0.1102693E+00
         -2   -1    0    0    0  501 -0.00000000000E+00  0.00000000000E+00  0.14623128965E+02  0.14623129187E+02  0.25500000000E-02 0. -1.
          2   -1    0    0  501    0  0.00000000000E+00 -0.00000000000E+00 -0.12237463397E+04  0.12237463397E+04  0.25500000000E-02 0.  1.
    5000001    1    1    2    0    0  0.55761940415E+02  0.84463850355E+02 -0.41246064230E+03  0.43162057118E+03  0.77000000000E+02 0.  0.
   -5000001    1    1    2    0    0 -0.55761940415E+02 -0.84463850355E+02 -0.79666256841E+03  0.80674889769E+03  0.77000000000E+02 0.  0.
<mgrwt>
<rscale>  0 0.26754439E+03</rscale>
<asrwt>0</asrwt>
<pdfrwt beam="1">  1        2 0.17482084E+00 0.26754439E+03</pdfrwt>
<pdfrwt beam="2">  1       -2 0.20890192E-02 0.26754439E+03</pdfrwt>
<totfact> 0.15724804E+04</totfact>
</mgrwt>
</event>
<event>
 4    1  0.6782240E-004  0.4620010E+03  0.7818608E-02  0.1024202E+00
         -2   -1    0    0    0  501 -0.00000000000E+00  0.00000000000E+00  0.29656768162E+03  0.29656768163E+03  0.25500000000E-02 0. -1.
          2   -1    0    0  501    0  0.00000000000E+00 -0.00000000000E+00 -0.17992937511E+03  0.17992937513E+03  0.25500000000E-02 0.  1.
    5000001    1    1    2    0    0  0.20691292608E+03 -0.64420932849E+02  0.35977953316E+02  0.23277978583E+03  0.77000000000E+02 0.  0.
   -5000001    1    1    2    0    0 -0.20691292608E+03  0.64420932849E+02  0.80660353198E+02  0.24371727092E+03  0.77000000000E+02 0.  0.
<mgrwt>
<rscale>  0 0.46200103E+03</rscale>
<asrwt>0</asrwt>
<pdfrwt beam="1">  1        2 0.25704196E-01 0.46200103E+03</pdfrwt>
<pdfrwt beam="2">  1       -2 0.42366812E-01 0.46200103E+03</pdfrwt>
<totfact> 0.11205426E+03</totfact>
</mgrwt>
</event>
<event>
 4    1  0.6782240E-004  0.4047950E+03  0.7818608E-02  0.1042132E+00
          2   -1    0    0  501    0  0.00000000000E+00  0.00000000000E+00  0.18848017112E+04  0.18848017112E+04  0.25500000000E-02 0. -1.
         -2   -1    0    0    0  501 -0.00000000000E+00 -0.00000000000E+00 -0.21734242976E+02  0.21734243125E+02  0.25500000000E-02 0.  1.
    5000001    1    1    2    0    0 -0.18114538958E+03 -0.30885179993E+02  0.76380695266E+03  0.78936531938E+03  0.77000000000E+02 0.  0.
   -5000001    1    1    2    0    0  0.18114538958E+03  0.30885179993E+02  0.10992605156E+04  0.11171706349E+04  0.77000000000E+02 0.  0.
<mgrwt>
<rscale>  0 0.40479495E+03</rscale>
<asrwt>0</asrwt>
<pdfrwt beam="1">  1        2 0.26925749E+00 0.40479495E+03</pdfrwt>
<pdfrwt beam="2">  1       -2 0.31048907E-02 0.40479495E+03</pdfrwt>
<totfact> 0.40425527E+03</totfact>
</mgrwt>
</event>
<event>
 4    1  0.6782240E-004  0.1688321E+03  0.7818608E-02  0.1179071E+00
          2   -1    0    0  501    0  0.00000000000E+00  0.00000000000E+00  0.11014193355E+04  0.11014193355E+04  0.25500000000E-02 0.  1.
         -2   -1    0    0    0  501 -0.00000000000E+00 -0.00000000000E+00 -0.64698996692E+01  0.64699001717E+01  0.25500000000E-02 0. -1.
    5000001    1    1    2    0    0 -0.35814277048E+01  0.25102612832E+02  0.39300715915E+03  0.40128119186E+03  0.77000000000E+02 0.  0.
   -5000001    1    1    2    0    0  0.35814277048E+01 -0.25102612832E+02  0.70194227669E+03  0.70660804383E+03  0.77000000000E+02 0.  0.
<mgrwt>
<rscale>  0 0.16883214E+03</rscale>
<asrwt>0</asrwt>
<pdfrwt beam="1">  1        2 0.15734553E+00 0.16883214E+03</pdfrwt>
<pdfrwt beam="2">  1       -2 0.92427196E-03 0.16883214E+03</pdfrwt>
<totfact> 0.58224153E+04</totfact>
</mgrwt>
</event>
<event>
 4    1  0.6782240E-004  0.2978572E+03  0.7818608E-02  0.1086317E+00
          2   -1    0    0  501    0  0.00000000000E+00  0.00000000000E+00  0.41511069570E+03  0.41511069571E+03  0.25500000000E-02 0.  1.
         -2   -1    0    0    0  501 -0.00000000000E+00 -0.00000000000E+00 -0.53430863279E+02  0.53430863340E+02  0.25500000000E-02 0. -1.
    5000001    1    1    2    0    0 -0.91435796491E+02 -0.88767412433E+02  0.18595277254E+03  0.23821753086E+03  0.77000000000E+02 0.  0.
   -5000001    1    1    2    0    0  0.91435796491E+02  0.88767412433E+02  0.17572705987E+03  0.23032402819E+03  0.77000000000E+02 0.  0.
<mgrwt>
<rscale>  0 0.29785717E+03</rscale>
<asrwt>0</asrwt>
<pdfrwt beam="1">  1        2 0.59301532E-01 0.29785717E+03</pdfrwt>
<pdfrwt beam="2">  1       -2 0.76329800E-02 0.29785717E+03</pdfrwt>
<totfact> 0.84404041E+03</totfact>
</mgrwt>
</event>
<event>
 4    1  0.6782240E-004  0.3226539E+03  0.7818608E-02  0.1074434E+00
         -2   -1    0    0    0  501 -0.00000000000E+00  0.00000000000E+00  0.38380009843E+02  0.38380009927E+02  0.25500000000E-02 0. -1.
          2   -1    0    0  501    0  0.00000000000E+00 -0.00000000000E+00 -0.67812344145E+03  0.67812344146E+03  0.25500000000E-02 0.  1.
    5000001    1    1    2    0    0  0.12628481430E+03 -0.45694298114E+02 -0.42069932880E+03  0.44827753508E+03  0.77000000000E+02 0.  0.
   -5000001    1    1    2    0    0 -0.12628481430E+03  0.45694298114E+02 -0.21904410281E+03  0.26822591631E+03  0.77000000000E+02 0.  0.
<mgrwt>
<rscale>  0 0.32265390E+03</rscale>
<asrwt>0</asrwt>
<pdfrwt beam="1">  1        2 0.96874770E-01 0.32265390E+03</pdfrwt>
<pdfrwt beam="2">  1       -2 0.54828590E-02 0.32265390E+03</pdfrwt>
<totfact> 0.81236787E+03</totfact>
</mgrwt>
</event>
<event>
 4    1  0.6782240E-004  0.4889412E+03  0.7818608E-02  0.1016706E+00
          2   -1    0    0  501    0  0.00000000000E+00  0.00000000000E+00  0.66286252142E+03  0.66286252143E+03  0.25500000000E-02 0.  1.
         -2   -1    0    0    0  501 -0.00000000000E+00 -0.00000000000E+00 -0.90163290584E+02  0.90163290620E+02  0.25500000000E-02 0. -1.
    5000001    1    1    2    0    0 -0.16758797719E+03  0.14881438410E+03  0.19387321914E+03  0.30618176973E+03  0.77000000000E+02 0.  0.
   -5000001    1    1    2    0    0  0.16758797719E+03 -0.14881438410E+03  0.37882601170E+03  0.44684404232E+03  0.77000000000E+02 0.  0.
<mgrwt>
<rscale>  0 0.48894117E+03</rscale>
<asrwt>0</asrwt>
<pdfrwt beam="1">  1        2 0.94694648E-01 0.48894117E+03</pdfrwt>
<pdfrwt beam="2">  1       -2 0.12880470E-01 0.48894117E+03</pdfrwt>
<totfact> 0.21693863E+03</totfact>
</mgrwt>
</event>
<event>
 4    1  0.6782240E-004  0.2947672E+03  0.7818608E-02  0.1087886E+00
          2   -1    0    0  501    0  0.00000000000E+00  0.00000000000E+00  0.10795221227E+04  0.10795221227E+04  0.25500000000E-02 0.  1.
         -2   -1    0    0    0  501 -0.00000000000E+00 -0.00000000000E+00 -0.20121797449E+02  0.20121797610E+02  0.25500000000E-02 0. -1.
    5000001    1    1    2    0    0  0.42332507260E+02  0.86954533184E+02  0.82907058776E+03  0.83823634585E+03  0.77000000000E+02 0.  0.
   -5000001    1    1    2    0    0 -0.42332507260E+02 -0.86954533184E+02  0.23032973745E+03  0.26140757442E+03  0.77000000000E+02 0.  0.
<mgrwt>
<rscale>  0 0.29476720E+03</rscale>
<asrwt>0</asrwt>
<pdfrwt beam="1">  1        2 0.15421743E+00 0.29476720E+03</pdfrwt>
<pdfrwt beam="2">  1       -2 0.28745427E-02 0.29476720E+03</pdfrwt>
<totfact> 0.11819188E+04</totfact>
</mgrwt>
</event>
<event>
 4    1  0.6782240E-004  0.2561952E+03  0.7818608E-02  0.1109451E+00
         -2   -1    0    0    0  501 -0.00000000000E+00  0.00000000000E+00  0.11318389380E+03  0.11318389383E+03  0.25500000000E-02 0. -1.
          2   -1    0    0  501    0  0.00000000000E+00 -0.00000000000E+00 -0.14497640872E+03  0.14497640874E+03  0.25500000000E-02 0.  1.
    5000001    1    1    2    0    0  0.42637308244E+02  0.24357746892E+02 -0.10641150309E+03  0.14022712961E+03  0.77000000000E+02 0.  0.
   -5000001    1    1    2    0    0 -0.42637308244E+02 -0.24357746892E+02  0.74618988176E+02  0.11793317296E+03  0.77000000000E+02 0.  0.
<mgrwt>
<rscale>  0 0.25619519E+03</rscale>
<asrwt>0</asrwt>
<pdfrwt beam="1">  1        2 0.20710915E-01 0.25619519E+03</pdfrwt>
<pdfrwt beam="2">  1       -2 0.16169128E-01 0.25619519E+03</pdfrwt>
<totfact> 0.79455299E+03</totfact>
</mgrwt>
</event>
<event>
 4    1  0.6782240E-004  0.2565559E+03  0.7818608E-02  0.1109230E+00
          2   -1    0    0  501    0  0.00000000000E+00  0.00000000000E+00  0.63677307657E+03  0.63677307657E+03  0.25500000000E-02 0.  1.
         -2   -1    0    0    0  501 -0.00000000000E+00 -0.00000000000E+00 -0.25841590167E+02  0.25841590293E+02  0.25500000000E-02 0. -1.
    5000001    1    1    2    0    0 -0.16280588782E+01  0.10102694327E+03  0.35145974774E+03  0.37371385862E+03  0.77000000000E+02 0.  0.
   -5000001    1    1    2    0    0  0.16280588782E+01 -0.10102694327E+03  0.25947173866E+03  0.28890080825E+03  0.77000000000E+02 0.  0.
<mgrwt>
<rscale>  0 0.25655587E+03</rscale>
<asrwt>0</asrwt>
<pdfrwt beam="1">  1        2 0.90967582E-01 0.25655587E+03</pdfrwt>
<pdfrwt beam="2">  1       -2 0.36916557E-02 0.25655587E+03</pdfrwt>
<totfact> 0.15774405E+04</totfact>
</mgrwt>
</event>
<event>
 4    1  0.6782240E-004  0.1768256E+03  0.7818608E-02  0.1170911E+00
          2   -1    0    0  501    0  0.00000000000E+00  0.00000000000E+00  0.43539578403E+02  0.43539578477E+02  0.25500000000E-02 0.  1.
         -2   -1    0    0    0  501 -0.00000000000E+00 -0.00000000000E+00 -0.17953382090E+03  0.17953382092E+03  0.25500000000E-02 0. -1.
    5000001    1    1    2    0    0  0.19387340987E+02 -0.29739057986E+02 -0.99599912095E+02  0.13080299328E+03  0.77000000000E+02 0.  0.
   -5000001    1    1    2    0    0 -0.19387340987E+02  0.29739057986E+02 -0.36394330406E+02  0.92270406123E+02  0.77000000000E+02 0.  0.
<mgrwt>
<rscale>  0 0.17682564E+03</rscale>
<asrwt>0</asrwt>
<pdfrwt beam="1">  1        2 0.62199399E-02 0.17682564E+03</pdfrwt>
<pdfrwt beam="2">  1       -2 0.25647688E-01 0.17682564E+03</pdfrwt>
<totfact> 0.15261275E+04</totfact>
</mgrwt>
</event>
<event>
 4    1  0.6782240E-004  0.2491972E+03  0.7818608E-02  0.1113813E+00
          2   -1    0    0  501    0  0.00000000000E+00  0.00000000000E+00  0.69391482721E+03  0.69391482722E+03  0.25500000000E-02 0.  1.
         -2   -1    0    0    0  501 -0.00000000000E+00 -0.00000000000E+00 -0.22372792269E+02  0.22372792414E+02  0.25500000000E-02 0. -1.
    5000001    1    1    2    0    0 -0.27041382172E+02 -0.87959354501E+02  0.43229749100E+03  0.44864039622E+03  0.77000000000E+02 0.  0.
   -5000001    1    1    2    0    0  0.27041382172E+02  0.87959354501E+02  0.23924454395E+03  0.26764722342E+03  0.77000000000E+02 0.  0.
<mgrwt>
<rscale>  0 0.24919721E+03</rscale>
<asrwt>0</asrwt>
<pdfrwt beam="1">  1        2 0.99130683E-01 0.24919721E+03</pdfrwt>
<pdfrwt beam="2">  1       -2 0.31961134E-02 0.24919721E+03</pdfrwt>
<totfact> 0.17668704E+04</totfact>
</mgrwt>
</event>
<event>
 4    1  0.6782240E-004  0.3173172E+03  0.7818608E-02  0.1076891E+00
          2   -1    0    0  501    0  0.00000000000E+00  0.00000000000E+00  0.39104399802E+04  0.39104399802E+04  0.25500000000E-02 0.  1.
         -2   -1    0    0    0  501 -0.00000000000E+00 -0.00000000000E+00 -0.64372694755E+01  0.64372699806E+01  0.25500000000E-02 0. -1.
    5000001    1    1    2    0    0 -0.12082562981E+03  0.56618600191E+02  0.14837430597E+04  0.14917194663E+04  0.77000000000E+02 0.  0.
   -5000001    1    1    2    0    0  0.12082562981E+03 -0.56618600191E+02  0.24202596509E+04  0.24251577839E+04  0.77000000000E+02 0.  0.
<mgrwt>
<rscale>  0 0.31731724E+03</rscale>
<asrwt>0</asrwt>
<pdfrwt beam="1">  1        2 0.55863351E+00 0.31731724E+03</pdfrwt>
<pdfrwt beam="2">  1       -2 0.91961124E-03 0.31731724E+03</pdfrwt>
<totfact> 0.19797118E+03</totfact>
</mgrwt>
</event>
<event>
 4    1  0.6782240E-004  0.1883045E+03  0.7818608E-02  0.1160000E+00
          2   -1    0    0  501    0  0.00000000000E+00  0.00000000000E+00  0.13849608630E+03  0.13849608632E+03  0.25500000000E-02 0.  1.
         -2   -1    0    0    0  501 -0.00000000000E+00 -0.00000000000E+00 -0.64006448258E+02  0.64006448308E+02  0.25500000000E-02 0. -1.
    5000001    1    1    2    0    0 -0.51724451197E+02 -0.13944438378E+02  0.45966592905E+02  0.10445953224E+03  0.77000000000E+02 0.  0.
   -5000001    1    1    2    0    0  0.51724451197E+02  0.13944438378E+02  0.28523045137E+02  0.98043002388E+02  0.77000000000E+02 0.  0.
<mgrwt>
<rscale>  0 0.18830446E+03</rscale>
<asrwt>0</asrwt>
<pdfrwt beam="1">  1        2 0.19785155E-01 0.18830446E+03</pdfrwt>
<pdfrwt beam="2">  1       -2 0.91437783E-02 0.18830446E+03</pdfrwt>
<totfact> 0.20588665E+04</totfact>
</mgrwt>
</event>
<event>
 4    1  0.6782240E-004  0.1835530E+03  0.7818608E-02  0.1164408E+00
          2   -1    0    0  501    0  0.00000000000E+00  0.00000000000E+00  0.41090680094E+04  0.41090680094E+04  0.25500000000E-02 0.  1.
         -2   -1    0    0    0  501 -0.00000000000E+00 -0.00000000000E+00 -0.20498383578E+01  0.20498399439E+01  0.25500000000E-02 0. -1.
    5000001    1    1    2    0    0  0.44406406058E+02 -0.17565954896E+02  0.23807239596E+04  0.23824474944E+04  0.77000000000E+02 0.  0.
   -5000001    1    1    2    0    0 -0.44406406058E+02  0.17565954896E+02  0.17262942115E+04  0.17286703550E+04  0.77000000000E+02 0.  0.
<mgrwt>
<rscale>  0 0.18355303E+03</rscale>
<asrwt>0</asrwt>
<pdfrwt beam="1">  1        2 0.58700955E+00 0.18355303E+03</pdfrwt>
<pdfrwt beam="2">  1       -2 0.29283425E-03 0.18355303E+03</pdfrwt>
<totfact> 0.77253887E+03</totfact>
</mgrwt>
</event>
<event>
 4    1  0.6782240E-004  0.2494100E+03  0.7818608E-02  0.1113678E+00
         -2   -1    0    0    0  501 -0.00000000000E+00  0.00000000000E+00  0.13735814094E+02  0.13735814331E+02  0.25500000000E-02 0. -1.
          2   -1    0    0  501    0  0.00000000000E+00 -0.00000000000E+00 -0.11321748382E+04  0.11321748382E+04  0.25500000000E-02 0.  1.
    5000001    1    1    2    0    0  0.87198367312E+02  0.37352322669E+02 -0.44448685190E+03  0.46097322350E+03  0.77000000000E+02 0.  0.
   -5000001    1    1    2    0    0 -0.87198367312E+02 -0.37352322669E+02 -0.67395217216E+03  0.68493742899E+03  0.77000000000E+02 0.  0.
<mgrwt>
<rscale>  0 0.24941005E+03</rscale>
<asrwt>0</asrwt>
<pdfrwt beam="1">  1        2 0.16173920E+00 0.24941005E+03</pdfrwt>
<pdfrwt beam="2">  1       -2 0.19622599E-02 0.24941005E+03</pdfrwt>
<totfact> 0.19286815E+04</totfact>
</mgrwt>
</event>
<event>
 4    1  0.6782240E-004  0.1848232E+03  0.7818608E-02  0.1163215E+00
         -2   -1    0    0    0  501 -0.00000000000E+00  0.00000000000E+00  0.48151483500E+02  0.48151483568E+02  0.25500000000E-02 0. -1.
          2   -1    0    0  501    0  0.00000000000E+00 -0.00000000000E+00 -0.17735492258E+03  0.17735492260E+03  0.25500000000E-02 0.  1.
    5000001    1    1    2    0    0  0.45335129963E+02 -0.20418207650E+02 -0.50230935561E+02  0.10451949148E+03  0.77000000000E+02 0.  0.
   -5000001    1    1    2    0    0 -0.45335129963E+02  0.20418207650E+02 -0.78972503516E+02  0.12098691468E+03  0.77000000000E+02 0.  0.
<mgrwt>
<rscale>  0 0.18482319E+03</rscale>
<asrwt>0</asrwt>
<pdfrwt beam="1">  1        2 0.25336417E-01 0.18482319E+03</pdfrwt>
<pdfrwt beam="2">  1       -2 0.68787834E-02 0.18482319E+03</pdfrwt>
<totfact> 0.24219729E+04</totfact>
</mgrwt>
</event>
<event>
 4    1  0.6782240E-004  0.1847997E+03  0.7818608E-02  0.1163237E+00
         -2   -1    0    0    0  501 -0.00000000000E+00  0.00000000000E+00  0.24970230144E+01  0.24970243164E+01  0.25500000000E-02 0. -1.
          2   -1    0    0  501    0  0.00000000000E+00 -0.00000000000E+00 -0.34191631666E+04  0.34191631666E+04  0.25500000000E-02 0.  1.
    5000001    1    1    2    0    0  0.38668547436E+02  0.27917480755E+02 -0.13699047020E+04  0.13728956751E+04  0.77000000000E+02 0.  0.
   -5000001    1    1    2    0    0 -0.38668547436E+02 -0.27917480755E+02 -0.20467614416E+04  0.20487645158E+04  0.77000000000E+02 0.  0.
<mgrwt>
<rscale>  0 0.18479969E+03</rscale>
<asrwt>0</asrwt>
<pdfrwt beam="1">  1        2 0.48844888E+00 0.18479969E+03</pdfrwt>
<pdfrwt beam="2">  1       -2 0.35671986E-03 0.18479969E+03</pdfrwt>
<totfact> 0.15357538E+04</totfact>
</mgrwt>
</event>
<event>
 4    1  0.6782240E-004  0.3270305E+03  0.7818608E-02  0.1072458E+00
         -2   -1    0    0    0  501 -0.00000000000E+00  0.00000000000E+00  0.70847262811E+02  0.70847262857E+02  0.25500000000E-02 0. -1.
          2   -1    0    0  501    0  0.00000000000E+00 -0.00000000000E+00 -0.37739261314E+03  0.37739261315E+03  0.25500000000E-02 0.  1.
    5000001    1    1    2    0    0 -0.72467130390E+02 -0.10474047965E+03 -0.60451335083E+02  0.16064064547E+03  0.77000000000E+02 0.  0.
   -5000001    1    1    2    0    0  0.72467130390E+02  0.10474047965E+03 -0.24609401525E+03  0.28759923053E+03  0.77000000000E+02 0.  0.
<mgrwt>
<rscale>  0 0.32703048E+03</rscale>
<asrwt>0</asrwt>
<pdfrwt beam="1">  1        2 0.53913230E-01 0.32703048E+03</pdfrwt>
<pdfrwt beam="2">  1       -2 0.10121038E-01 0.32703048E+03</pdfrwt>
<totfact> 0.60152587E+03</totfact>
</mgrwt>
</event>
<event>
 4    1  0.6782240E-004  0.2329231E+03  0.7818608E-02  0.1124599E+00
         -2   -1    0    0    0  501 -0.00000000000E+00  0.00000000000E+00  0.60963713002E+01  0.60963718335E+01  0.25500000000E-02 0. -1.
          2   -1    0    0  501    0  0.00000000000E+00 -0.00000000000E+00 -0.22248139022E+04  0.22248139022E+04  0.25500000000E-02 0.  1.
    5000001    1    1    2    0    0  0.61111016617E+02  0.20665856592E+02 -0.16737763953E+04  0.16767880174E+04  0.77000000000E+02 0.  0.
   -5000001    1    1    2    0    0 -0.61111016617E+02 -0.20665856592E+02 -0.54494113561E+03  0.55412225660E+03  0.77000000000E+02 0.  0.
<mgrwt>
<rscale>  0 0.23292310E+03</rscale>
<asrwt>0</asrwt>
<pdfrwt beam="1">  1        2 0.31783004E+00 0.23292310E+03</pdfrwt>
<pdfrwt beam="2">  1       -2 0.87091165E-03 0.23292310E+03</pdfrwt>
<totfact> 0.17784813E+04</totfact>
</mgrwt>
</event>
<event>
 4    1  0.6782240E-004  0.2213336E+03  0.7818608E-02  0.1132893E+00
          2   -1    0    0  501    0  0.00000000000E+00  0.00000000000E+00  0.73311248034E+01  0.73311252469E+01  0.25500000000E-02 0.  1.
         -2   -1    0    0    0  501 -0.00000000000E+00 -0.00000000000E+00 -0.16705672658E+04  0.16705672658E+04  0.25500000000E-02 0. -1.
    5000001    1    1    2    0    0  0.30549830341E+02 -0.56592827041E+02 -0.47749402272E+03  0.48791964701E+03  0.77000000000E+02 0.  0.
   -5000001    1    1    2    0    0 -0.30549830341E+02  0.56592827041E+02 -0.11857421183E+04  0.11899787441E+04  0.77000000000E+02 0.  0.
<mgrwt>
<rscale>  0 0.22133357E+03</rscale>
<asrwt>0</asrwt>
<pdfrwt beam="1">  1        2 0.10473046E-02 0.22133357E+03</pdfrwt>
<pdfrwt beam="2">  1       -2 0.23865222E+00 0.22133357E+03</pdfrwt>
<totfact> 0.11239886E+03</totfact>
</mgrwt>
</event>
<event>
 4    1  0.6782240E-004  0.1900278E+03  0.7818608E-02  0.1158436E+00
         -2   -1    0    0    0  501 -0.00000000000E+00  0.00000000000E+00  0.27460973829E+01  0.27460985669E+01  0.25500000000E-02 0. -1.
          2   -1    0    0  501    0  0.00000000000E+00 -0.00000000000E+00 -0.32874445558E+04  0.32874445558E+04  0.25500000000E-02 0.  1.
    5000001    1    1    2    0    0  0.27719028708E+02 -0.39788338437E+02 -0.21156300443E+04  0.21175861118E+04  0.77000000000E+02 0.  0.
   -5000001    1    1    2    0    0 -0.27719028708E+02  0.39788338437E+02 -0.11690684141E+04  0.11726045426E+04  0.77000000000E+02 0.  0.
<mgrwt>
<rscale>  0 0.19002784E+03</rscale>
<asrwt>0</asrwt>
<pdfrwt beam="1">  1        2 0.46963242E+00 0.19002784E+03</pdfrwt>
<pdfrwt beam="2">  1       -2 0.39230182E-03 0.19002784E+03</pdfrwt>
<totfact> 0.15885570E+04</totfact>
</mgrwt>
</event>
<event>
 4    1  0.6782240E-004  0.3063531E+03  0.7818608E-02  0.1082107E+00
          2   -1    0    0  501    0  0.00000000000E+00  0.00000000000E+00  0.75528599137E+03  0.75528599138E+03  0.25500000000E-02 0.  1.
         -2   -1    0    0    0  501 -0.00000000000E+00 -0.00000000000E+00 -0.31065131988E+02  0.31065132093E+02  0.25500000000E-02 0. -1.
    5000001    1    1    2    0    0  0.32676557002E+02 -0.12624466126E+03  0.30309677495E+03  0.33882462552E+03  0.77000000000E+02 0.  0.
   -5000001    1    1    2    0    0 -0.32676557002E+02  0.12624466126E+03  0.42112408444E+03  0.44752649795E+03  0.77000000000E+02 0.  0.
<mgrwt>
<rscale>  0 0.30635312E+03</rscale>
<asrwt>0</asrwt>
<pdfrwt beam="1">  1        2 0.10789802E+00 0.30635312E+03</pdfrwt>
<pdfrwt beam="2">  1       -2 0.44378752E-02 0.30635312E+03</pdfrwt>
<totfact> 0.98352551E+03</totfact>
</mgrwt>
</event>
<event>
 4    1  0.6782240E-004  0.2393755E+03  0.7818608E-02  0.1120210E+00
         -2   -1    0    0    0  501 -0.00000000000E+00  0.00000000000E+00  0.14344608522E+02  0.14344608748E+02  0.25500000000E-02 0. -1.
          2   -1    0    0  501    0  0.00000000000E+00 -0.00000000000E+00 -0.99864401963E+03  0.99864401963E+03  0.25500000000E-02 0.  1.
    5000001    1    1    2    0    0  0.90298317242E+02 -0.30241554856E+01 -0.42752279910E+03  0.44369772972E+03  0.77000000000E+02 0.  0.
   -5000001    1    1    2    0    0 -0.90298317242E+02  0.30241554856E+01 -0.55677661201E+03  0.56929089866E+03  0.77000000000E+02 0.  0.
<mgrwt>
<rscale>  0 0.23937550E+03</rscale>
<asrwt>0</asrwt>
<pdfrwt beam="1">  1        2 0.14266339E+00 0.23937550E+03</pdfrwt>
<pdfrwt beam="2">  1       -2 0.20492304E-02 0.23937550E+03</pdfrwt>
<totfact> 0.21521643E+04</totfact>
</mgrwt>
</event>
<event>
 4    1  0.6782240E-004  0.1673265E+03  0.7818608E-02  0.1180665E+00
          2   -1    0    0  501    0  0.00000000000E+00  0.00000000000E+00  0.76970058651E+03  0.76970058652E+03  0.25500000000E-02 0.  1.
         -2   -1    0    0    0  501 -0.00000000000E+00 -0.00000000000E+00 -0.90938449827E+01  0.90938453403E+01  0.25500000000E-02 0. -1.
    5000001    1    1    2    0    0 -0.25453098769E+02 -0.41116337687E+01  0.28654732242E+03  0.29783071325E+03  0.77000000000E+02 0.  0.
   -5000001    1    1    2    0    0  0.25453098769E+02  0.41116337687E+01  0.47405941911E+03  0.48096371861E+03  0.77000000000E+02 0.  0.
<mgrwt>
<rscale>  0 0.16732648E+03</rscale>
<asrwt>0</asrwt>
<pdfrwt beam="1">  1        2 0.10995728E+00 0.16732648E+03</pdfrwt>
<pdfrwt beam="2">  1       -2 0.12991201E-02 0.16732648E+03</pdfrwt>
<totfact> 0.56651620E+04</totfact>
</mgrwt>
</event>
<event>
 4    1  0.6782240E-004  0.2140477E+03  0.7818608E-02  0.1138400E+00
          2   -1    0    0  501    0  0.00000000000E+00  0.00000000000E+00  0.37784148697E+02  0.37784148783E+02  0.25500000000E-02 0.  1.
         -2   -1    0    0    0  501 -0.00000000000E+00 -0.00000000000E+00 -0.30314587999E+03  0.30314588000E+03  0.25500000000E-02 0. -1.
    5000001    1    1    2    0    0  0.19910161484E+02  0.43192656667E+02 -0.22366570998E+03  0.24128275931E+03  0.77000000000E+02 0.  0.
   -5000001    1    1    2    0    0 -0.19910161484E+02 -0.43192656667E+02 -0.41696021317E+02  0.99647269475E+02  0.77000000000E+02 0.  0.
<mgrwt>
<rscale>  0 0.21404774E+03</rscale>
<asrwt>0</asrwt>
<pdfrwt beam="1">  1        2 0.53977357E-02 0.21404774E+03</pdfrwt>
<pdfrwt beam="2">  1       -2 0.43306553E-01 0.21404774E+03</pdfrwt>
<totfact> 0.70893268E+03</totfact>
</mgrwt>
</event>
<event>
 4    1  0.6782240E-004  0.2043017E+03  0.7818608E-02  0.1146160E+00
         -2   -1    0    0    0  501 -0.00000000000E+00  0.00000000000E+00  0.63029322413E+01  0.63029327571E+01  0.25500000000E-02 0. -1.
          2   -1    0    0  501    0  0.00000000000E+00 -0.00000000000E+00 -0.16555457295E+04  0.16555457295E+04  0.25500000000E-02 0.  1.
    5000001    1    1    2    0    0  0.51659950450E+02 -0.36221714598E+02 -0.63823613409E+03  0.64595288214E+03  0.77000000000E+02 0.  0.
   -5000001    1    1    2    0    0 -0.51659950450E+02  0.36221714598E+02 -0.10110066632E+04  0.10158957801E+04  0.77000000000E+02 0.  0.
<mgrwt>
<rscale>  0 0.20430167E+03</rscale>
<asrwt>0</asrwt>
<pdfrwt beam="1">  1        2 0.23650626E+00 0.20430167E+03</pdfrwt>
<pdfrwt beam="2">  1       -2 0.90041998E-03 0.20430167E+03</pdfrwt>
<totfact> 0.31836370E+04</totfact>
</mgrwt>
</event>
<event>
 4    1  0.6782240E-004  0.2931295E+03  0.7818608E-02  0.1088726E+00
         -2   -1    0    0    0  501 -0.00000000000E+00  0.00000000000E+00  0.15452289136E+03  0.15452289138E+03  0.25500000000E-02 0. -1.
          2   -1    0    0  501    0  0.00000000000E+00 -0.00000000000E+00 -0.13901646504E+03  0.13901646506E+03  0.25500000000E-02 0.  1.
    5000001    1    1    2    0    0 -0.10084020847E+03  0.31402243549E+02 -0.58652231303E+02  0.14326176315E+03  0.77000000000E+02 0.  0.
   -5000001    1    1    2    0    0  0.10084020847E+03 -0.31402243549E+02  0.74158657624E+02  0.15027759329E+03  0.77000000000E+02 0.  0.
<mgrwt>
<rscale>  0 0.29312950E+03</rscale>
<asrwt>0</asrwt>
<pdfrwt beam="1">  1        2 0.19859495E-01 0.29312950E+03</pdfrwt>
<pdfrwt beam="2">  1       -2 0.22074699E-01 0.29312950E+03</pdfrwt>
<totfact> 0.49387695E+03</totfact>
</mgrwt>
</event>
<event>
 4    1  0.6782240E-004  0.2096868E+03  0.7818608E-02  0.1141814E+00
          2   -1    0    0  501    0  0.00000000000E+00  0.00000000000E+00  0.44113959627E+03  0.44113959628E+03  0.25500000000E-02 0.  1.
         -2   -1    0    0    0  501 -0.00000000000E+00 -0.00000000000E+00 -0.24917589727E+02  0.24917589858E+02  0.25500000000E-02 0. -1.
    5000001    1    1    2    0    0 -0.66766780987E+02 -0.24349345187E+02  0.21595090570E+03  0.24003018003E+03  0.77000000000E+02 0.  0.
   -5000001    1    1    2    0    0  0.66766780987E+02  0.24349345187E+02  0.20027110085E+03  0.22602700610E+03  0.77000000000E+02 0.  0.
<mgrwt>
<rscale>  0 0.20968677E+03</rscale>
<asrwt>0</asrwt>
<pdfrwt beam="1">  1        2 0.63019937E-01 0.20968677E+03</pdfrwt>
<pdfrwt beam="2">  1       -2 0.35596560E-02 0.20968677E+03</pdfrwt>
<totfact> 0.24759170E+04</totfact>
</mgrwt>
</event>
<event>
 4    1  0.6782240E-004  0.5272689E+03  0.7818608E-02  0.1006897E+00
         -2   -1    0    0    0  501 -0.00000000000E+00  0.00000000000E+00  0.20007799881E+03  0.20007799882E+03  0.25500000000E-02 0.  1.
          2   -1    0    0  501    0  0.00000000000E+00 -0.00000000000E+00 -0.34738018700E+03  0.34738018700E+03  0.25500000000E-02 0. -1.
    5000001    1    1    2    0    0 -0.66043224184E+02 -0.20000786072E+03 -0.21755557638E+03  0.31244884481E+03  0.77000000000E+02 0.  0.
   -5000001    1    1    2    0    0  0.66043224184E+02  0.20000786072E+03  0.70253388194E+02  0.23500934101E+03  0.77000000000E+02 0.  0.
<mgrwt>
<rscale>  0 0.52726894E+03</rscale>
<asrwt>0</asrwt>
<pdfrwt beam="1">  1        2 0.49625741E-01 0.52726894E+03</pdfrwt>
<pdfrwt beam="2">  1       -2 0.28582572E-01 0.52726894E+03</pdfrwt>
<totfact> 0.11361288E+03</totfact>
</mgrwt>
</event>
<event>
 4    1  0.6782240E-004  0.3587379E+03  0.7818608E-02  0.1059085E+00
         -2   -1    0    0    0  501 -0.00000000000E+00  0.00000000000E+00  0.12869513323E+02  0.12869513575E+02  0.25500000000E-02 0. -1.
          2   -1    0    0  501    0  0.00000000000E+00 -0.00000000000E+00 -0.24999558149E+04  0.24999558149E+04  0.25500000000E-02 0.  1.
    5000001    1    1    2    0    0  0.11159494656E+03  0.43256475968E+02 -0.47879750697E+03  0.49950035785E+03  0.77000000000E+02 0.  0.
   -5000001    1    1    2    0    0 -0.11159494656E+03 -0.43256475968E+02 -0.20082887946E+04  0.20133249706E+04  0.77000000000E+02 0.  0.
<mgrwt>
<rscale>  0 0.35873787E+03</rscale>
<asrwt>0</asrwt>
<pdfrwt beam="1">  1        2 0.35713623E+00 0.35873787E+03</pdfrwt>
<pdfrwt beam="2">  1       -2 0.18385035E-02 0.35873787E+03</pdfrwt>
<totfact> 0.43768443E+03</totfact>
</mgrwt>
</event>
<event>
 4    1  0.6782240E-004  0.2081276E+03  0.7818608E-02  0.1143057E+00
         -2   -1    0    0    0  501 -0.00000000000E+00  0.00000000000E+00  0.93863010509E+03  0.93863010509E+03  0.25500000000E-02 0. -1.
          2   -1    0    0  501    0  0.00000000000E+00 -0.00000000000E+00 -0.11537321040E+02  0.11537321322E+02  0.25500000000E-02 0.  1.
    5000001    1    1    2    0    0 -0.53136504198E+02  0.42203245665E+02  0.54204784480E+03  0.55167877254E+03  0.77000000000E+02 0.  0.
   -5000001    1    1    2    0    0  0.53136504198E+02 -0.42203245665E+02  0.38504493925E+03  0.39848865387E+03  0.77000000000E+02 0.  0.
<mgrwt>
<rscale>  0 0.20812762E+03</rscale>
<asrwt>0</asrwt>
<pdfrwt beam="1">  1        2 0.16481886E-02 0.20812762E+03</pdfrwt>
<pdfrwt beam="2">  1       -2 0.13409003E+00 0.20812762E+03</pdfrwt>
<totfact> 0.29752074E+03</totfact>
</mgrwt>
</event>
<event>
 4    1  0.6782240E-004  0.1981304E+03  0.7818608E-02  0.1151326E+00
          2   -1    0    0  501    0  0.00000000000E+00  0.00000000000E+00  0.19565249407E+03  0.19565249409E+03  0.25500000000E-02 0.  1.
         -2   -1    0    0    0  501 -0.00000000000E+00 -0.00000000000E+00 -0.50159924503E+02  0.50159924568E+02  0.25500000000E-02 0. -1.
    5000001    1    1    2    0    0  0.91920244655E+01  0.60648815363E+02  0.86457804824E+02  0.13102184602E+03  0.77000000000E+02 0.  0.
   -5000001    1    1    2    0    0 -0.91920244655E+01 -0.60648815363E+02  0.59034764747E+02  0.11479057264E+03  0.77000000000E+02 0.  0.
<mgrwt>
<rscale>  0 0.19813040E+03</rscale>
<asrwt>0</asrwt>
<pdfrwt beam="1">  1        2 0.27950356E-01 0.19813040E+03</pdfrwt>
<pdfrwt beam="2">  1       -2 0.71657035E-02 0.19813040E+03</pdfrwt>
<totfact> 0.20523517E+04</totfact>
</mgrwt>
</event>
<event>
 4    1  0.6782240E-004  0.4269148E+03  0.7818608E-02  0.1034839E+00
          2   -1    0    0  501    0  0.00000000000E+00  0.00000000000E+00  0.12679572839E+04  0.12679572839E+04  0.25500000000E-02 0.  1.
         -2   -1    0    0    0  501 -0.00000000000E+00 -0.00000000000E+00 -0.35935012580E+02  0.35935012671E+02  0.25500000000E-02 0. -1.
    5000001    1    1    2    0    0 -0.18760166751E+03  0.65398376729E+02  0.65509176623E+03  0.68887267002E+03  0.77000000000E+02 0.  0.
   -5000001    1    1    2    0    0  0.18760166751E+03 -0.65398376729E+02  0.57693050508E+03  0.61501962654E+03  0.77000000000E+02 0.  0.
<mgrwt>
<rscale>  0 0.42691480E+03</rscale>
<asrwt>0</asrwt>
<pdfrwt beam="1">  1        2 0.18113675E+00 0.42691480E+03</pdfrwt>
<pdfrwt beam="2">  1       -2 0.51335733E-02 0.42691480E+03</pdfrwt>
<totfact> 0.38882627E+03</totfact>
</mgrwt>
</event>
<event>
 4    1  0.6782240E-004  0.1884015E+03  0.7818608E-02  0.1159911E+00
          2   -1    0    0  501    0  0.00000000000E+00  0.00000000000E+00  0.10450058622E+04  0.10450058622E+04  0.25500000000E-02 0.  1.
         -2   -1    0    0    0  501 -0.00000000000E+00 -0.00000000000E+00 -0.84916122318E+01  0.84916126147E+01  0.25500000000E-02 0. -1.
    5000001    1    1    2    0    0 -0.15367531135E+02 -0.51332684943E+02  0.47029188590E+03  0.47955673648E+03  0.77000000000E+02 0.  0.
   -5000001    1    1    2    0    0  0.15367531135E+02  0.51332684943E+02  0.56622236406E+03  0.57394073833E+03  0.77000000000E+02 0.  0.
<mgrwt>
<rscale>  0 0.18840154E+03</rscale>
<asrwt>0</asrwt>
<pdfrwt beam="1">  1        2 0.14928653E+00 0.18840154E+03</pdfrwt>
<pdfrwt beam="2">  1       -2 0.12130877E-02 0.18840154E+03</pdfrwt>
<totfact> 0.42732004E+04</totfact>
</mgrwt>
</event>
<event>
 4    1  0.6782240E-004  0.7233937E+03  0.7818608E-02  0.9678042E-01
          2   -1    0    0  501    0  0.00000000000E+00  0.00000000000E+00  0.69837592052E+03  0.69837592053E+03  0.25500000000E-02 0.  1.
         -2   -1    0    0    0  501 -0.00000000000E+00 -0.00000000000E+00 -0.18732693552E+03  0.18732693554E+03  0.25500000000E-02 0. -1.
    5000001    1    1    2    0    0  0.85692693911E+02  0.33767295375E+03  0.18278650862E+03  0.40088173969E+03  0.77000000000E+02 0.  0.
   -5000001    1    1    2    0    0 -0.85692693911E+02 -0.33767295375E+03  0.32826247638E+03  0.48482111637E+03  0.77000000000E+02 0.  0.
<mgrwt>
<rscale>  0 0.72339373E+03</rscale>
<asrwt>0</asrwt>
<pdfrwt beam="1">  1        2 0.99767987E-01 0.72339373E+03</pdfrwt>
<pdfrwt beam="2">  1       -2 0.26760991E-01 0.72339373E+03</pdfrwt>
<totfact> 0.57363479E+02</totfact>
</mgrwt>
</event>
<event>
 4    1  0.6782240E-004  0.2939258E+03  0.7818608E-02  0.1088317E+00
         -2   -1    0    0    0  501 -0.00000000000E+00  0.00000000000E+00  0.76683035531E+03  0.76683035531E+03  0.25500000000E-02 0. -1.
          2   -1    0    0  501    0  0.00000000000E+00 -0.00000000000E+00 -0.28165404872E+02  0.28165404988E+02  0.25500000000E-02 0.  1.
    5000001    1    1    2    0    0  0.29736401795E+01  0.11634434232E+03  0.49399297180E+03  0.51332534003E+03  0.77000000000E+02 0.  0.
   -5000001    1    1    2    0    0 -0.29736401795E+01 -0.11634434232E+03  0.24467197863E+03  0.28167042027E+03  0.77000000000E+02 0.  0.
<mgrwt>
<rscale>  0 0.29392576E+03</rscale>
<asrwt>0</asrwt>
<pdfrwt beam="1">  1        2 0.40236298E-02 0.29392576E+03</pdfrwt>
<pdfrwt beam="2">  1       -2 0.10954718E+00 0.29392576E+03</pdfrwt>
<totfact> 0.14573730E+03</totfact>
</mgrwt>
</event>
<event>
 4    1  0.6782240E-004  0.2712630E+03  0.7818608E-02  0.1100559E+00
          2   -1    0    0  501    0  0.00000000000E+00  0.00000000000E+00  0.21955261134E+04  0.21955261134E+04  0.25500000000E-02 0.  1.
         -2   -1    0    0    0  501 -0.00000000000E+00 -0.00000000000E+00 -0.83788162674E+01  0.83788166554E+01  0.25500000000E-02 0. -1.
    5000001    1    1    2    0    0  0.65406415228E+02  0.40507845131E+02  0.43613170870E+03  0.44950945708E+03  0.77000000000E+02 0.  0.
   -5000001    1    1    2    0    0 -0.65406415228E+02 -0.40507845131E+02  0.17510155884E+04  0.17543954729E+04  0.77000000000E+02 0.  0.
<mgrwt>
<rscale>  0 0.27126305E+03</rscale>
<asrwt>0</asrwt>
<pdfrwt beam="1">  1        2 0.31364630E+00 0.27126305E+03</pdfrwt>
<pdfrwt beam="2">  1       -2 0.11969749E-02 0.27126305E+03</pdfrwt>
<totfact> 0.11629619E+04</totfact>
</mgrwt>
</event>
<event>
 4    1  0.6782240E-004  0.3662283E+03  0.7818608E-02  0.1056145E+00
         -2   -1    0    0    0  501 -0.00000000000E+00  0.00000000000E+00  0.24673544402E+02  0.24673544534E+02  0.25500000000E-02 0. -1.
          2   -1    0    0  501    0  0.00000000000E+00 -0.00000000000E+00 -0.13589774780E+04  0.13589774780E+04  0.25500000000E-02 0.  1.
    5000001    1    1    2    0    0 -0.12881566374E+03 -0.10490810017E+03 -0.66105229847E+03  0.68594338397E+03  0.77000000000E+02 0.  0.
   -5000001    1    1    2    0    0  0.12881566374E+03  0.10490810017E+03 -0.67325163516E+03  0.69770763859E+03  0.77000000000E+02 0.  0.
<mgrwt>
<rscale>  0 0.36622830E+03</rscale>
<asrwt>0</asrwt>
<pdfrwt beam="1">  1        2 0.19413959E+00 0.36622830E+03</pdfrwt>
<pdfrwt beam="2">  1       -2 0.35247929E-02 0.36622830E+03</pdfrwt>
<totfact> 0.61598218E+03</totfact>
</mgrwt>
</event>
<event>
 4    1  0.6782240E-004  0.2166313E+03  0.7818608E-02  0.1136420E+00
          2   -1    0    0  501    0  0.00000000000E+00  0.00000000000E+00  0.20756443528E+03  0.20756443529E+03  0.25500000000E-02 0.  1.
         -2   -1    0    0    0  501 -0.00000000000E+00 -0.00000000000E+00 -0.56523579668E+02  0.56523579725E+02  0.25500000000E-02 0. -1.
    5000001    1    1    2    0    0 -0.29904539068E+01  0.60536369769E+02  0.13177859696E+03  0.16421995462E+03  0.77000000000E+02 0.  0.
   -5000001    1    1    2    0    0  0.29904539068E+01 -0.60536369769E+02  0.19262258653E+02  0.99868060398E+02  0.77000000000E+02 0.  0.
<mgrwt>
<rscale>  0 0.21663134E+03</rscale>
<asrwt>0</asrwt>
<pdfrwt beam="1">  1        2 0.29652062E-01 0.21663134E+03</pdfrwt>
<pdfrwt beam="2">  1       -2 0.80747971E-02 0.21663134E+03</pdfrwt>
<totfact> 0.16087699E+04</totfact>
</mgrwt>
</event>
<event>
 4    1  0.6782240E-004  0.2902910E+03  0.7818608E-02  0.1090197E+00
         -2   -1    0    0    0  501 -0.00000000000E+00  0.00000000000E+00  0.73136470560E+01  0.73136475005E+01  0.25500000000E-02 0. -1.
          2   -1    0    0  501    0  0.00000000000E+00 -0.00000000000E+00 -0.28805348641E+04  0.28805348641E+04  0.25500000000E-02 0.  1.
    5000001    1    1    2    0    0  0.80531304851E+02  0.90089239112E+02 -0.16671095299E+04  0.16732556729E+04  0.77000000000E+02 0.  0.
   -5000001    1    1    2    0    0 -0.80531304851E+02 -0.90089239112E+02 -0.12061116871E+04  0.12145928387E+04  0.77000000000E+02 0.  0.
<mgrwt>
<rscale>  0 0.29029100E+03</rscale>
<asrwt>0</asrwt>
<pdfrwt beam="1">  1        2 0.41150425E+00 0.29029100E+03</pdfrwt>
<pdfrwt beam="2">  1       -2 0.10448086E-02 0.29029100E+03</pdfrwt>
<totfact> 0.64164660E+03</totfact>
</mgrwt>
</event>
<event>
 4    1  0.6782240E-004  0.3147364E+03  0.7818608E-02  0.1078098E+00
         -2   -1    0    0    0  501 -0.00000000000E+00  0.00000000000E+00  0.22977322465E+02  0.22977322607E+02  0.25500000000E-02 0. -1.
          2   -1    0    0  501    0  0.00000000000E+00 -0.00000000000E+00 -0.10777908635E+04  0.10777908635E+04  0.25500000000E-02 0.  1.
    5000001    1    1    2    0    0 -0.67559244677E+01  0.13665354823E+03 -0.56506119380E+03  0.58646652717E+03  0.77000000000E+02 0.  0.
   -5000001    1    1    2    0    0  0.67559244677E+01 -0.13665354823E+03 -0.48975234721E+03  0.51430165891E+03  0.77000000000E+02 0.  0.
<mgrwt>
<rscale>  0 0.31473639E+03</rscale>
<asrwt>0</asrwt>
<pdfrwt beam="1">  1        2 0.15397009E+00 0.31473639E+03</pdfrwt>
<pdfrwt beam="2">  1       -2 0.32824753E-02 0.31473639E+03</pdfrwt>
<totfact> 0.97342724E+03</totfact>
</mgrwt>
</event>
<event>
 4    1  0.6782240E-004  0.2890034E+03  0.7818608E-02  0.1090871E+00
          2   -1    0    0  501    0  0.00000000000E+00  0.00000000000E+00  0.24629211340E+03  0.24629211342E+03  0.25500000000E-02 0.  1.
         -2   -1    0    0    0  501 -0.00000000000E+00 -0.00000000000E+00 -0.84780389694E+02  0.84780389732E+02  0.25500000000E-02 0. -1.
    5000001    1    1    2    0    0  0.41767690311E+02  0.79266339662E+02  0.17607941451E+03  0.21203927177E+03  0.77000000000E+02 0.  0.
   -5000001    1    1    2    0    0 -0.41767690311E+02 -0.79266339662E+02 -0.14567690803E+02  0.11903323138E+03  0.77000000000E+02 0.  0.
<mgrwt>
<rscale>  0 0.28900340E+03</rscale>
<asrwt>0</asrwt>
<pdfrwt beam="1">  1        2 0.35184587E-01 0.28900340E+03</pdfrwt>
<pdfrwt beam="2">  1       -2 0.12111484E-01 0.28900340E+03</pdfrwt>
<totfact> 0.71232118E+03</totfact>
</mgrwt>
</event>
<event>
 4    1  0.6782240E-004  0.2547231E+03  0.7818608E-02  0.1110356E+00
          2   -1    0    0  501    0  0.00000000000E+00  0.00000000000E+00  0.84475259870E+03  0.84475259870E+03  0.25500000000E-02 0.  1.
         -2   -1    0    0    0  501 -0.00000000000E+00 -0.00000000000E+00 -0.19202022829E+02  0.19202022998E+02  0.25500000000E-02 0. -1.
    5000001    1    1    2    0    0  0.99456995022E+02  0.62190673852E+01  0.47727083670E+03  0.49360593820E+03  0.77000000000E+02 0.  0.
   -5000001    1    1    2    0    0 -0.99456995022E+02 -0.62190673852E+01  0.34827973917E+03  0.37034868351E+03  0.77000000000E+02 0.  0.
<mgrwt>
<rscale>  0 0.25472306E+03</rscale>
<asrwt>0</asrwt>
<pdfrwt beam="1">  1        2 0.12067892E+00 0.25472306E+03</pdfrwt>
<pdfrwt beam="2">  1       -2 0.27431465E-02 0.25472306E+03</pdfrwt>
<totfact> 0.17466996E+04</totfact>
</mgrwt>
</event>
<event>
 4    1  0.6782240E-004  0.2510183E+03  0.7818608E-02  0.1112663E+00
          2   -1    0    0  501    0  0.00000000000E+00  0.00000000000E+00  0.27155580837E+04  0.27155580837E+04  0.25500000000E-02 0.  1.
         -2   -1    0    0    0  501 -0.00000000000E+00 -0.00000000000E+00 -0.58008522313E+01  0.58008527918E+01  0.25500000000E-02 0. -1.
    5000001    1    1    2    0    0 -0.62097915415E+02  0.71300341025E+02  0.10326059203E+04  0.10397806866E+04  0.77000000000E+02 0.  0.
   -5000001    1    1    2    0    0  0.62097915415E+02 -0.71300341025E+02  0.16771513112E+04  0.16815782498E+04  0.77000000000E+02 0.  0.
<mgrwt>
<rscale>  0 0.25101834E+03</rscale>
<asrwt>0</asrwt>
<pdfrwt beam="1">  1        2 0.38793717E+00 0.25101834E+03</pdfrwt>
<pdfrwt beam="2">  1       -2 0.82869258E-03 0.25101834E+03</pdfrwt>
<totfact> 0.10921448E+04</totfact>
</mgrwt>
</event>
<event>
 4    1  0.6782240E-004  0.1770152E+03  0.7818608E-02  0.1170723E+00
          2   -1    0    0  501    0  0.00000000000E+00  0.00000000000E+00  0.16457487842E+02  0.16457488039E+02  0.25500000000E-02 0.  1.
         -2   -1    0    0    0  501 -0.00000000000E+00 -0.00000000000E+00 -0.47598968269E+03  0.47598968270E+03  0.25500000000E-02 0. -1.
    5000001    1    1    2    0    0 -0.24724940206E+02 -0.26785218188E+02 -0.29652265693E+03  0.30851816260E+03  0.77000000000E+02 0.  0.
   -5000001    1    1    2    0    0  0.24724940206E+02  0.26785218188E+02 -0.16300953792E+03  0.18392900814E+03  0.77000000000E+02 0.  0.
<mgrwt>
<rscale>  0 0.17701519E+03</rscale>
<asrwt>0</asrwt>
<pdfrwt beam="1">  1        2 0.23510700E-02 0.17701519E+03</pdfrwt>
<pdfrwt beam="2">  1       -2 0.67998517E-01 0.17701519E+03</pdfrwt>
<totfact> 0.85553369E+03</totfact>
</mgrwt>
</event>
<event>
 4    1  0.6782240E-004  0.5453276E+03  0.7818608E-02  0.1002581E+00
         -2   -1    0    0    0  501 -0.00000000000E+00  0.00000000000E+00  0.98568224586E+02  0.98568224619E+02  0.25500000000E-02 0. -1.
          2   -1    0    0  501    0  0.00000000000E+00 -0.00000000000E+00 -0.75425478579E+03  0.75425478580E+03  0.25500000000E-02 0.  1.
    5000001    1    1    2    0    0 -0.25553783902E+03 -0.10507035988E+02 -0.41359386354E+03  0.49234019634E+03  0.77000000000E+02 0.  0.
   -5000001    1    1    2    0    0  0.25553783902E+03  0.10507035988E+02 -0.24209269767E+03  0.36048281407E+03  0.77000000000E+02 0.  0.
<mgrwt>
<rscale>  0 0.54532763E+03</rscale>
<asrwt>0</asrwt>
<pdfrwt beam="1">  1        2 0.10775068E+00 0.54532763E+03</pdfrwt>
<pdfrwt beam="2">  1       -2 0.14081175E-01 0.54532763E+03</pdfrwt>
<totfact> 0.15981348E+03</totfact>
</mgrwt>
</event>
<event>
 4    1  0.6782240E-004  0.2433749E+03  0.7818608E-02  0.1117565E+00
         -2   -1    0    0    0  501 -0.00000000000E+00  0.00000000000E+00  0.70175323971E+01  0.70175328605E+01  0.25500000000E-02 0. -1.
          2   -1    0    0  501    0  0.00000000000E+00 -0.00000000000E+00 -0.21101202194E+04  0.21101202194E+04  0.25500000000E-02 0.  1.
    5000001    1    1    2    0    0  0.57795138111E+02 -0.62075515582E+02 -0.69444487181E+03  0.70382975754E+03  0.77000000000E+02 0.  0.
   -5000001    1    1    2    0    0 -0.57795138111E+02  0.62075515582E+02 -0.14086578152E+04  0.14133079947E+04  0.77000000000E+02 0.  0.
<mgrwt>
<rscale>  0 0.24337492E+03</rscale>
<asrwt>0</asrwt>
<pdfrwt beam="1">  1        2 0.30144534E+00 0.24337492E+03</pdfrwt>
<pdfrwt beam="2">  1       -2 0.10025060E-02 0.24337492E+03</pdfrwt>
<totfact> 0.16519756E+04</totfact>
</mgrwt>
</event>
<event>
 4    1  0.6782240E-004  0.3415937E+03  0.7818608E-02  0.1066119E+00
          2   -1    0    0  501    0  0.00000000000E+00  0.00000000000E+00  0.10605799242E+04  0.10605799242E+04  0.25500000000E-02 0.  1.
         -2   -1    0    0    0  501 -0.00000000000E+00 -0.00000000000E+00 -0.27505294604E+02  0.27505294722E+02  0.25500000000E-02 0. -1.
    5000001    1    1    2    0    0  0.64859773940E+02  0.94824407559E+02  0.83577097727E+03  0.84713669793E+03  0.77000000000E+02 0.  0.
   -5000001    1    1    2    0    0 -0.64859773940E+02 -0.94824407559E+02  0.19730365232E+03  0.24094852098E+03  0.77000000000E+02 0.  0.
<mgrwt>
<rscale>  0 0.34159370E+03</rscale>
<asrwt>0</asrwt>
<pdfrwt beam="1">  1        2 0.15151143E+00 0.34159370E+03</pdfrwt>
<pdfrwt beam="2">  1       -2 0.39293274E-02 0.34159370E+03</pdfrwt>
<totfact> 0.76116408E+03</totfact>
</mgrwt>
</event>
<event>
 4    1  0.6782240E-004  0.4230796E+03  0.7818608E-02  0.1036069E+00
          2   -1    0    0  501    0  0.00000000000E+00  0.00000000000E+00  0.24186481258E+04  0.24186481258E+04  0.25500000000E-02 0.  1.
         -2   -1    0    0    0  501 -0.00000000000E+00 -0.00000000000E+00 -0.18501697082E+02  0.18501697258E+02  0.25500000000E-02 0. -1.
    5000001    1    1    2    0    0  0.57444719823E+02  0.13988066452E+03  0.47247866040E+03  0.50202747004E+03  0.77000000000E+02 0.  0.
   -5000001    1    1    2    0    0 -0.57444719823E+02 -0.13988066452E+03  0.19276677683E+04  0.19351223530E+04  0.77000000000E+02 0.  0.
<mgrwt>
<rscale>  0 0.42307964E+03</rscale>
<asrwt>0</asrwt>
<pdfrwt beam="1">  1        2 0.34552122E+00 0.42307964E+03</pdfrwt>
<pdfrwt beam="2">  1       -2 0.26430991E-02 0.42307964E+03</pdfrwt>
<totfact> 0.27924880E+03</totfact>
</mgrwt>
</event>
<event>
 4    1  0.6782240E-004  0.3819504E+03  0.7818608E-02  0.1050215E+00
          2   -1    0    0  501    0  0.00000000000E+00  0.00000000000E+00  0.72025456103E+03  0.72025456104E+03  0.25500000000E-02 0.  1.
         -2   -1    0    0    0  501 -0.00000000000E+00 -0.00000000000E+00 -0.50636998770E+02  0.50636998835E+02  0.25500000000E-02 0. -1.
    5000001    1    1    2    0    0 -0.15751979753E+03  0.72663354642E+02  0.37762723535E+03  0.42263906421E+03  0.77000000000E+02 0.  0.
   -5000001    1    1    2    0    0  0.15751979753E+03 -0.72663354642E+02  0.29199032691E+03  0.34825249566E+03  0.77000000000E+02 0.  0.
<mgrwt>
<rscale>  0 0.38195041E+03</rscale>
<asrwt>0</asrwt>
<pdfrwt beam="1">  1        2 0.10289350E+00 0.38195041E+03</pdfrwt>
<pdfrwt beam="2">  1       -2 0.72338578E-02 0.38195041E+03</pdfrwt>
<totfact> 0.49400968E+03</totfact>
</mgrwt>
</event>
<event>
 4    1  0.6782240E-004  0.2381882E+03  0.7818608E-02  0.1121006E+00
         -2   -1    0    0    0  501 -0.00000000000E+00  0.00000000000E+00  0.23101894256E+02  0.23101894397E+02  0.25500000000E-02 0. -1.
          2   -1    0    0  501    0  0.00000000000E+00 -0.00000000000E+00 -0.61394972613E+03  0.61394972613E+03  0.25500000000E-02 0.  1.
    5000001    1    1    2    0    0 -0.44020994735E+02  0.24651658172E+02 -0.49750642409E+03  0.50595177066E+03  0.77000000000E+02 0.  0.
   -5000001    1    1    2    0    0  0.44020994735E+02 -0.24651658172E+02 -0.93341407783E+02  0.13109984987E+03  0.77000000000E+02 0.  0.
<mgrwt>
<rscale>  0 0.23818818E+03</rscale>
<asrwt>0</asrwt>
<pdfrwt beam="1">  1        2 0.87707094E-01 0.23818818E+03</pdfrwt>
<pdfrwt beam="2">  1       -2 0.33002710E-02 0.23818818E+03</pdfrwt>
<totfact> 0.19370362E+04</totfact>
</mgrwt>
</event>
<event>
 4    1  0.6782240E-004  0.3634130E+03  0.7818608E-02  0.1057241E+00
         -2   -1    0    0    0  501 -0.00000000000E+00  0.00000000000E+00  0.15132207276E+03  0.15132207278E+03  0.25500000000E-02 0. -1.
          2   -1    0    0  501    0  0.00000000000E+00 -0.00000000000E+00 -0.21819191136E+03  0.21819191137E+03  0.25500000000E-02 0.  1.
    5000001    1    1    2    0    0 -0.59381260280E+02  0.15021507852E+03 -0.65549141506E+02  0.19056860665E+03  0.77000000000E+02 0.  0.
   -5000001    1    1    2    0    0  0.59381260280E+02 -0.15021507852E+03 -0.13206970906E+01  0.17894537750E+03  0.77000000000E+02 0.  0.
<mgrwt>
<rscale>  0 0.36341300E+03</rscale>
<asrwt>0</asrwt>
<pdfrwt beam="1">  1        2 0.31170273E-01 0.36341300E+03</pdfrwt>
<pdfrwt beam="2">  1       -2 0.21617439E-01 0.36341300E+03</pdfrwt>
<totfact> 0.31029642E+03</totfact>
</mgrwt>
</event>
<event>
 4    1  0.6782240E-004  0.2742733E+03  0.7818608E-02  0.1098859E+00
          2   -1    0    0  501    0  0.00000000000E+00  0.00000000000E+00  0.21306169691E+04  0.21306169691E+04  0.25500000000E-02 0.  1.
         -2   -1    0    0    0  501 -0.00000000000E+00 -0.00000000000E+00 -0.88267662064E+01  0.88267665748E+01  0.25500000000E-02 0. -1.
    5000001    1    1    2    0    0 -0.95771222926E+02  0.39528378346E+02  0.14219822895E+04  0.14278295597E+04  0.77000000000E+02 0.  0.
   -5000001    1    1    2    0    0  0.95771222926E+02 -0.39528378346E+02  0.69980791339E+03  0.71161417600E+03  0.77000000000E+02 0.  0.
<mgrwt>
<rscale>  0 0.27427328E+03</rscale>
<asrwt>0</asrwt>
<pdfrwt beam="1">  1        2 0.30437399E+00 0.27427328E+03</pdfrwt>
<pdfrwt beam="2">  1       -2 0.12609661E-02 0.27427328E+03</pdfrwt>
<totfact> 0.11598451E+04</totfact>
</mgrwt>
</event>
<event>
 4    1  0.6782240E-004  0.4428795E+03  0.7818608E-02  0.1029867E+00
          2   -1    0    0  501    0  0.00000000000E+00  0.00000000000E+00  0.40313780904E+03  0.40313780905E+03  0.25500000000E-02 0.  1.
         -2   -1    0    0    0  501 -0.00000000000E+00 -0.00000000000E+00 -0.12163473304E+03  0.12163473307E+03  0.25500000000E-02 0. -1.
    5000001    1    1    2    0    0 -0.32338921394E+02  0.20455154135E+03  0.15830345355E+03  0.27180162308E+03  0.77000000000E+02 0.  0.
   -5000001    1    1    2    0    0  0.32338921394E+02 -0.20455154135E+03  0.12319962246E+03  0.25297091904E+03  0.77000000000E+02 0.  0.
<mgrwt>
<rscale>  0 0.44287949E+03</rscale>
<asrwt>0</asrwt>
<pdfrwt beam="1">  1        2 0.57591116E-01 0.44287949E+03</pdfrwt>
<pdfrwt beam="2">  1       -2 0.17376390E-01 0.44287949E+03</pdfrwt>
<totfact> 0.23136157E+03</totfact>
</mgrwt>
</event>
<event>
 4    1  0.6782240E-004  0.2028393E+03  0.7818608E-02  0.1147365E+00
          2   -1    0    0  501    0  0.00000000000E+00  0.00000000000E+00  0.25177080504E+03  0.25177080505E+03  0.25500000000E-02 0.  1.
         -2   -1    0    0    0  501 -0.00000000000E+00 -0.00000000000E+00 -0.40854392324E+02  0.40854392404E+02  0.25500000000E-02 0. -1.
    5000001    1    1    2    0    0  0.33405172491E+02  0.49150359928E+02  0.14690207389E+03  0.17618422956E+03  0.77000000000E+02 0.  0.
   -5000001    1    1    2    0    0 -0.33405172491E+02 -0.49150359928E+02  0.64014338819E+02  0.11644096790E+03  0.77000000000E+02 0.  0.
<mgrwt>
<rscale>  0 0.20283928E+03</rscale>
<asrwt>0</asrwt>
<pdfrwt beam="1">  1        2 0.35967259E-01 0.20283928E+03</pdfrwt>
<pdfrwt beam="2">  1       -2 0.58363415E-02 0.20283928E+03</pdfrwt>
<totfact> 0.21409524E+04</totfact>
</mgrwt>
</event>
<event>
 4    1  0.6782240E-004  0.2539804E+03  0.7818608E-02  0.1110815E+00
          2   -1    0    0  501    0  0.00000000000E+00  0.00000000000E+00  0.13228697376E+04  0.13228697376E+04  0.25500000000E-02 0.  1.
         -2   -1    0    0    0  501 -0.00000000000E+00 -0.00000000000E+00 -0.12190548920E+02  0.12190549187E+02  0.25500000000E-02 0. -1.
    5000001    1    1    2    0    0 -0.76695762081E+02  0.22786176712E+02  0.33147224621E+03  0.34957731588E+03  0.77000000000E+02 0.  0.
   -5000001    1    1    2    0    0  0.76695762081E+02 -0.22786176712E+02  0.97920694251E+03  0.98548297095E+03  0.77000000000E+02 0.  0.
<mgrwt>
<rscale>  0 0.25398038E+03</rscale>
<asrwt>0</asrwt>
<pdfrwt beam="1">  1        2 0.18898129E+00 0.25398038E+03</pdfrwt>
<pdfrwt beam="2">  1       -2 0.17415079E-02 0.25398038E+03</pdfrwt>
<totfact> 0.18162911E+04</totfact>
</mgrwt>
</event>
<event>
 4    1  0.6782240E-004  0.2121505E+03  0.7818608E-02  0.1139874E+00
         -2   -1    0    0    0  501 -0.00000000000E+00  0.00000000000E+00  0.57122837508E+01  0.57122843199E+01  0.25500000000E-02 0. -1.
          2   -1    0    0  501    0  0.00000000000E+00 -0.00000000000E+00 -0.19697829065E+04  0.19697829065E+04  0.25500000000E-02 0.  1.
    5000001    1    1    2    0    0 -0.42406522276E+02  0.44269965713E+02 -0.61368282614E+03  0.62152534469E+03  0.77000000000E+02 0.  0.
   -5000001    1    1    2    0    0  0.42406522276E+02 -0.44269965713E+02 -0.13503877966E+04  0.13539698461E+04  0.77000000000E+02 0.  0.
<mgrwt>
<rscale>  0 0.21215051E+03</rscale>
<asrwt>0</asrwt>
<pdfrwt beam="1">  1        2 0.28139712E+00 0.21215051E+03</pdfrwt>
<pdfrwt beam="2">  1       -2 0.81604184E-03 0.21215051E+03</pdfrwt>
<totfact> 0.25872935E+04</totfact>
</mgrwt>
</event>
<event>
 4    1  0.6782240E-004  0.1995961E+03  0.7818608E-02  0.1150080E+00
          2   -1    0    0  501    0  0.00000000000E+00  0.00000000000E+00  0.67585671638E+03  0.67585671639E+03  0.25500000000E-02 0.  1.
         -2   -1    0    0    0  501 -0.00000000000E+00 -0.00000000000E+00 -0.14736334832E+02  0.14736335053E+02  0.25500000000E-02 0. -1.
    5000001    1    1    2    0    0  0.42161754165E+02 -0.22652711153E+02  0.18623859936E+03  0.20713419498E+03  0.77000000000E+02 0.  0.
   -5000001    1    1    2    0    0 -0.42161754165E+02  0.22652711153E+02  0.47488178219E+03  0.48345885646E+03  0.77000000000E+02 0.  0.
<mgrwt>
<rscale>  0 0.19959610E+03</rscale>
<asrwt>0</asrwt>
<pdfrwt beam="1">  1        2 0.96550947E-01 0.19959610E+03</pdfrwt>
<pdfrwt beam="2">  1       -2 0.21051910E-02 0.19959610E+03</pdfrwt>
<totfact> 0.33269056E+04</totfact>
</mgrwt>
</event>
<event>
 4    1  0.6782240E-004  0.1633561E+03  0.7818608E-02  0.1184959E+00
         -2   -1    0    0    0  501 -0.00000000000E+00  0.00000000000E+00  0.46929455000E+01  0.46929461928E+01  0.25500000000E-02 0. -1.
          2   -1    0    0  501    0  0.00000000000E+00 -0.00000000000E+00 -0.14215606847E+04  0.14215606847E+04  0.25500000000E-02 0.  1.
    5000001    1    1    2    0    0 -0.12084935742E+02 -0.16694608823E+02 -0.55284859166E+03  0.55856541330E+03  0.77000000000E+02 0.  0.
   -5000001    1    1    2    0    0  0.12084935742E+02  0.16694608823E+02 -0.86401914749E+03  0.86768821754E+03  0.77000000000E+02 0.  0.
<mgrwt>
<rscale>  0 0.16335614E+03</rscale>
<asrwt>0</asrwt>
<pdfrwt beam="1">  1        2 0.20307982E+00 0.16335614E+03</pdfrwt>
<pdfrwt beam="2">  1       -2 0.67042174E-03 0.16335614E+03</pdfrwt>
<totfact> 0.62447459E+04</totfact>
</mgrwt>
</event>
<event>
 4    1  0.6782240E-004  0.5237798E+03  0.7818608E-02  0.1007752E+00
         -2   -1    0    0    0  501 -0.00000000000E+00  0.00000000000E+00  0.42163288866E+03  0.42163288867E+03  0.25500000000E-02 0.  1.
          2   -1    0    0  501    0  0.00000000000E+00 -0.00000000000E+00 -0.16266833089E+03  0.16266833091E+03  0.25500000000E-02 0. -1.
    5000001    1    1    2    0    0  0.53179570108E+02 -0.24376733236E+03  0.15198039193E+03  0.30212186040E+03  0.77000000000E+02 0.  0.
   -5000001    1    1    2    0    0 -0.53179570108E+02  0.24376733236E+03  0.10698416585E+03  0.28217935917E+03  0.77000000000E+02 0.  0.
<mgrwt>
<rscale>  0 0.52377979E+03</rscale>
<asrwt>0</asrwt>
<pdfrwt beam="1">  1        2 0.23238333E-01 0.52377979E+03</pdfrwt>
<pdfrwt beam="2">  1       -2 0.60233269E-01 0.52377979E+03</pdfrwt>
<totfact> 0.61675993E+02</totfact>
</mgrwt>
</event>
<event>
 4    1  0.6782240E-004  0.5905314E+03  0.7818608E-02  0.9925247E-01
          2   -1    0    0  501    0  0.00000000000E+00  0.00000000000E+00  0.94404550829E+03  0.94404550829E+03  0.25500000000E-02 0.  1.
         -2   -1    0    0    0  501 -0.00000000000E+00 -0.00000000000E+00 -0.92349182015E+02  0.92349182050E+02  0.25500000000E-02 0. -1.
    5000001    1    1    2    0    0 -0.15582086505E+03  0.22575674018E+03  0.28983030704E+03  0.40641955489E+03  0.77000000000E+02 0.  0.
   -5000001    1    1    2    0    0  0.15582086505E+03 -0.22575674018E+03  0.56186601923E+03  0.62997513545E+03  0.77000000000E+02 0.  0.
<mgrwt>
<rscale>  0 0.59053139E+03</rscale>
<asrwt>0</asrwt>
<pdfrwt beam="1">  1        2 0.13486364E+00 0.59053139E+03</pdfrwt>
<pdfrwt beam="2">  1       -2 0.13192741E-01 0.59053139E+03</pdfrwt>
<totfact> 0.13290414E+03</totfact>
</mgrwt>
</event>
<event>
 4    1  0.6782240E-004  0.2532470E+03  0.7818608E-02  0.1111270E+00
          2   -1    0    0  501    0  0.00000000000E+00  0.00000000000E+00  0.49492114310E+04  0.49492114310E+04  0.25500000000E-02 0.  1.
         -2   -1    0    0    0  501 -0.00000000000E+00 -0.00000000000E+00 -0.32396079442E+01  0.32396089478E+01  0.25500000000E-02 0. -1.
    5000001    1    1    2    0    0  0.10019769187E+03  0.48376692601E+01  0.25990058930E+04  0.26020806314E+04  0.77000000000E+02 0.  0.
   -5000001    1    1    2    0    0 -0.10019769187E+03 -0.48376692601E+01  0.23469659300E+04  0.23503704085E+04  0.77000000000E+02 0.  0.
<mgrwt>
<rscale>  0 0.25324697E+03</rscale>
<asrwt>0</asrwt>
<pdfrwt beam="1">  1        2 0.70702558E+00 0.25324697E+03</pdfrwt>
<pdfrwt beam="2">  1       -2 0.46280424E-03 0.25324697E+03</pdfrwt>
<totfact> 0.90034140E+02</totfact>
</mgrwt>
</event>
<event>
 4    1  0.6782240E-004  0.2044948E+03  0.7818608E-02  0.1146001E+00
          2   -1    0    0  501    0  0.00000000000E+00  0.00000000000E+00  0.23480917522E+03  0.23480917524E+03  0.25500000000E-02 0.  1.
         -2   -1    0    0    0  501 -0.00000000000E+00 -0.00000000000E+00 -0.44523502227E+02  0.44523502300E+02  0.25500000000E-02 0. -1.
    5000001    1    1    2    0    0  0.40804377188E+02  0.53131766923E+02  0.10351264608E+03  0.14536798049E+03  0.77000000000E+02 0.  0.
   -5000001    1    1    2    0    0 -0.40804377188E+02 -0.53131766923E+02  0.86773026915E+02  0.13396469704E+03  0.77000000000E+02 0.  0.
<mgrwt>
<rscale>  0 0.20449476E+03</rscale>
<asrwt>0</asrwt>
<pdfrwt beam="1">  1        2 0.33544167E-01 0.20449476E+03</pdfrwt>
<pdfrwt beam="2">  1       -2 0.63605004E-02 0.20449476E+03</pdfrwt>
<totfact> 0.20254332E+04</totfact>
</mgrwt>
</event>
<event>
 4    1  0.6782240E-004  0.3099388E+03  0.7818608E-02  0.1080375E+00
          2   -1    0    0  501    0  0.00000000000E+00  0.00000000000E+00  0.57915413648E+03  0.57915413648E+03  0.25500000000E-02 0.  1.
         -2   -1    0    0    0  501 -0.00000000000E+00 -0.00000000000E+00 -0.41466541093E+02  0.41466541171E+02  0.25500000000E-02 0. -1.
    5000001    1    1    2    0    0  0.97974892563E+02 -0.89400762789E+02  0.31339175480E+03  0.34890538537E+03  0.77000000000E+02 0.  0.
   -5000001    1    1    2    0    0 -0.97974892563E+02  0.89400762789E+02  0.22429584058E+03  0.27171529228E+03  0.77000000000E+02 0.  0.
<mgrwt>
<rscale>  0 0.30993883E+03</rscale>
<asrwt>0</asrwt>
<pdfrwt beam="1">  1        2 0.82736298E-01 0.30993883E+03</pdfrwt>
<pdfrwt beam="2">  1       -2 0.59237921E-02 0.30993883E+03</pdfrwt>
<totfact> 0.86515161E+03</totfact>
</mgrwt>
</event>
<event>
 4    1  0.6782240E-004  0.2271668E+03  0.7818608E-02  0.1128650E+00
         -2   -1    0    0    0  501 -0.00000000000E+00  0.00000000000E+00  0.43041018001E+02  0.43041018077E+02  0.25500000000E-02 0. -1.
          2   -1    0    0  501    0  0.00000000000E+00 -0.00000000000E+00 -0.29974159500E+03  0.29974159501E+03  0.25500000000E-02 0.  1.
    5000001    1    1    2    0    0 -0.82093233947E+02  0.51397038090E+01 -0.10666824732E+03  0.15515421554E+03  0.77000000000E+02 0.  0.
   -5000001    1    1    2    0    0  0.82093233947E+02 -0.51397038090E+01 -0.15003232968E+03  0.18762839754E+03  0.77000000000E+02 0.  0.
<mgrwt>
<rscale>  0 0.22716675E+03</rscale>
<asrwt>0</asrwt>
<pdfrwt beam="1">  1        2 0.42820227E-01 0.22716675E+03</pdfrwt>
<pdfrwt beam="2">  1       -2 0.61487170E-02 0.22716675E+03</pdfrwt>
<totfact> 0.16521467E+04</totfact>
</mgrwt>
</event>
<event>
 4    1  0.6782240E-004  0.2356601E+03  0.7818608E-02  0.1122718E+00
         -2   -1    0    0    0  501 -0.00000000000E+00  0.00000000000E+00  0.17379241470E+02  0.17379241657E+02  0.25500000000E-02 0. -1.
          2   -1    0    0  501    0  0.00000000000E+00 -0.00000000000E+00 -0.79887962523E+03  0.79887962524E+03  0.25500000000E-02 0.  1.
    5000001    1    1    2    0    0  0.20144159318E+02  0.86354461103E+02 -0.42398051636E+03  0.43994472194E+03  0.77000000000E+02 0.  0.
   -5000001    1    1    2    0    0 -0.20144159318E+02 -0.86354461103E+02 -0.35751986740E+03  0.37631414496E+03  0.77000000000E+02 0.  0.
<mgrwt>
<rscale>  0 0.23566011E+03</rscale>
<asrwt>0</asrwt>
<pdfrwt beam="1">  1        2 0.11412564E+00 0.23566011E+03</pdfrwt>
<pdfrwt beam="2">  1       -2 0.24827493E-02 0.23566011E+03</pdfrwt>
<totfact> 0.21612707E+04</totfact>
</mgrwt>
</event>
<event>
 4    1  0.6782240E-004  0.2124038E+03  0.7818608E-02  0.1139676E+00
         -2   -1    0    0    0  501 -0.00000000000E+00  0.00000000000E+00  0.32624344625E+02  0.32624344724E+02  0.25500000000E-02 0. -1.
          2   -1    0    0  501    0  0.00000000000E+00 -0.00000000000E+00 -0.34571852147E+03  0.34571852148E+03  0.25500000000E-02 0.  1.
    5000001    1    1    2    0    0 -0.28846102691E+02 -0.63374439893E+02 -0.11666063428E+03  0.15616376296E+03  0.77000000000E+02 0.  0.
   -5000001    1    1    2    0    0  0.28846102691E+02  0.63374439893E+02 -0.19643354257E+03  0.22217910324E+03  0.77000000000E+02 0.  0.
<mgrwt>
<rscale>  0 0.21240377E+03</rscale>
<asrwt>0</asrwt>
<pdfrwt beam="1">  1        2 0.49388358E-01 0.21240377E+03</pdfrwt>
<pdfrwt beam="2">  1       -2 0.46606209E-02 0.21240377E+03</pdfrwt>
<totfact> 0.21505384E+04</totfact>
</mgrwt>
</event>
<event>
 4    1  0.6782240E-004  0.3530778E+03  0.7818608E-02  0.1061359E+00
          2   -1    0    0  501    0  0.00000000000E+00  0.00000000000E+00  0.14344031570E+04  0.14344031570E+04  0.25500000000E-02 0.  1.
         -2   -1    0    0    0  501 -0.00000000000E+00 -0.00000000000E+00 -0.21727497900E+02  0.21727498050E+02  0.25500000000E-02 0. -1.
    5000001    1    1    2    0    0 -0.15732942531E+03  0.19181518675E+02  0.66182174038E+03  0.68487772249E+03  0.77000000000E+02 0.  0.
   -5000001    1    1    2    0    0  0.15732942531E+03 -0.19181518675E+02  0.75085391873E+03  0.77125293257E+03  0.77000000000E+02 0.  0.
<mgrwt>
<rscale>  0 0.35307785E+03</rscale>
<asrwt>0</asrwt>
<pdfrwt beam="1">  1        2 0.20491479E+00 0.35307785E+03</pdfrwt>
<pdfrwt beam="2">  1       -2 0.31039275E-02 0.35307785E+03</pdfrwt>
<totfact> 0.68109451E+03</totfact>
</mgrwt>
</event>
<event>
 4    1  0.6782240E-004  0.2151825E+03  0.7818608E-02  0.1137526E+00
          2   -1    0    0  501    0  0.00000000000E+00  0.00000000000E+00  0.72407329202E+03  0.72407329202E+03  0.25500000000E-02 0.  1.
         -2   -1    0    0    0  501 -0.00000000000E+00 -0.00000000000E+00 -0.15987168567E+02  0.15987168771E+02  0.25500000000E-02 0. -1.
    5000001    1    1    2    0    0  0.27646239773E+02  0.49738225285E+02  0.18525202674E+03  0.20853181781E+03  0.77000000000E+02 0.  0.
   -5000001    1    1    2    0    0 -0.27646239773E+02 -0.49738225285E+02  0.52283409670E+03  0.53152864298E+03  0.77000000000E+02 0.  0.
<mgrwt>
<rscale>  0 0.21518254E+03</rscale>
<asrwt>0</asrwt>
<pdfrwt beam="1">  1        2 0.10343903E+00 0.21518254E+03</pdfrwt>
<pdfrwt beam="2">  1       -2 0.22838816E-02 0.21518254E+03</pdfrwt>
<totfact> 0.27370463E+04</totfact>
</mgrwt>
</event>
<event>
 4    1  0.6782240E-004  0.2431708E+03  0.7818608E-02  0.1117698E+00
          2   -1    0    0  501    0  0.00000000000E+00  0.00000000000E+00  0.18358095044E+03  0.18358095046E+03  0.25500000000E-02 0.  1.
         -2   -1    0    0    0  501 -0.00000000000E+00 -0.00000000000E+00 -0.80525836771E+02  0.80525836811E+02  0.25500000000E-02 0. -1.
    5000001    1    1    2    0    0 -0.87056471802E+02 -0.34658390420E+02  0.42186100668E+02  0.12840833462E+03  0.77000000000E+02 0.  0.
   -5000001    1    1    2    0    0  0.87056471802E+02  0.34658390420E+02  0.60869013004E+02  0.13569845266E+03  0.77000000000E+02 0.  0.
<mgrwt>
<rscale>  0 0.24317080E+03</rscale>
<asrwt>0</asrwt>
<pdfrwt beam="1">  1        2 0.26225850E-01 0.24317080E+03</pdfrwt>
<pdfrwt beam="2">  1       -2 0.11503691E-01 0.24317080E+03</pdfrwt>
<totfact> 0.10600041E+04</totfact>
</mgrwt>
</event>
<event>
 4    1  0.6782240E-004  0.2811152E+03  0.7818608E-02  0.1095081E+00
          2   -1    0    0  501    0  0.00000000000E+00  0.00000000000E+00  0.98974059520E+03  0.98974059520E+03  0.25500000000E-02 0.  1.
         -2   -1    0    0    0  501 -0.00000000000E+00 -0.00000000000E+00 -0.19961222698E+02  0.19961222861E+02  0.25500000000E-02 0. -1.
    5000001    1    1    2    0    0 -0.52277388321E+02  0.98851372546E+02  0.35425016601E+03  0.37937672478E+03  0.77000000000E+02 0.  0.
   -5000001    1    1    2    0    0  0.52277388321E+02 -0.98851372546E+02  0.61552920649E+03  0.63032509329E+03  0.77000000000E+02 0.  0.
<mgrwt>
<rscale>  0 0.28111515E+03</rscale>
<asrwt>0</asrwt>
<pdfrwt beam="1">  1        2 0.14139150E+00 0.28111515E+03</pdfrwt>
<pdfrwt beam="2">  1       -2 0.28516036E-02 0.28111515E+03</pdfrwt>
<totfact> 0.13467481E+04</totfact>
</mgrwt>
</event>
<event>
 4    1  0.6782240E-004  0.2542701E+03  0.7818608E-02  0.1110636E+00
          2   -1    0    0  501    0  0.00000000000E+00  0.00000000000E+00  0.25011040285E+03  0.25011040287E+03  0.25500000000E-02 0.  1.
         -2   -1    0    0    0  501 -0.00000000000E+00 -0.00000000000E+00 -0.64624753265E+02  0.64624753315E+02  0.25500000000E-02 0. -1.
    5000001    1    1    2    0    0 -0.90775377197E+02 -0.44375372533E+02  0.98929376916E+02  0.16101355350E+03  0.77000000000E+02 0.  0.
   -5000001    1    1    2    0    0  0.90775377197E+02  0.44375372533E+02  0.86556272671E+02  0.15372160268E+03  0.77000000000E+02 0.  0.
<mgrwt>
<rscale>  0 0.25427012E+03</rscale>
<asrwt>0</asrwt>
<pdfrwt beam="1">  1        2 0.35730057E-01 0.25427012E+03</pdfrwt>
<pdfrwt beam="2">  1       -2 0.92321077E-02 0.25427012E+03</pdfrwt>
<totfact> 0.10746901E+04</totfact>
</mgrwt>
</event>
<event>
 4    1  0.6782240E-004  0.2725782E+03  0.7818608E-02  0.1099813E+00
         -2   -1    0    0    0  501 -0.00000000000E+00  0.00000000000E+00  0.66201191917E+01  0.66201196828E+01  0.25500000000E-02 0. -1.
          2   -1    0    0  501    0  0.00000000000E+00 -0.00000000000E+00 -0.28057981132E+04  0.28057981132E+04  0.25500000000E-02 0.  1.
    5000001    1    1    2    0    0  0.11068643424E+03  0.39931278734E+01 -0.16002668293E+04  0.16059422021E+04  0.77000000000E+02 0.  0.
   -5000001    1    1    2    0    0 -0.11068643424E+03 -0.39931278734E+01 -0.11989111648E+04  0.12064760307E+04  0.77000000000E+02 0.  0.
<mgrwt>
<rscale>  0 0.27257820E+03</rscale>
<asrwt>0</asrwt>
<pdfrwt beam="1">  1        2 0.40082754E+00 0.27257820E+03</pdfrwt>
<pdfrwt beam="2">  1       -2 0.94573314E-03 0.27257820E+03</pdfrwt>
<totfact> 0.81113596E+03</totfact>
</mgrwt>
</event>
<event>
 4    1  0.6782240E-004  0.4744173E+03  0.7818608E-02  0.1020681E+00
          2   -1    0    0  501    0  0.00000000000E+00  0.00000000000E+00  0.11283906979E+04  0.11283906979E+04  0.25500000000E-02 0.  1.
         -2   -1    0    0    0  501 -0.00000000000E+00 -0.00000000000E+00 -0.49865660864E+02  0.49865660929E+02  0.25500000000E-02 0. -1.
    5000001    1    1    2    0    0 -0.21738748657E+01 -0.16061215796E+03  0.15021875506E+03  0.23301430296E+03  0.77000000000E+02 0.  0.
   -5000001    1    1    2    0    0  0.21738748657E+01  0.16061215796E+03  0.92830628195E+03  0.94524205584E+03  0.77000000000E+02 0.  0.
<mgrwt>
<rscale>  0 0.47441732E+03</rscale>
<asrwt>0</asrwt>
<pdfrwt beam="1">  1        2 0.16119867E+00 0.47441732E+03</pdfrwt>
<pdfrwt beam="2">  1       -2 0.71236659E-02 0.47441732E+03</pdfrwt>
<totfact> 0.27918351E+03</totfact>
</mgrwt>
</event>
<event>
 4    1  0.6782240E-004  0.2162600E+03  0.7818608E-02  0.1136702E+00
          2   -1    0    0  501    0  0.00000000000E+00  0.00000000000E+00  0.21929009430E+03  0.21929009432E+03  0.25500000000E-02 0.  1.
         -2   -1    0    0    0  501 -0.00000000000E+00 -0.00000000000E+00 -0.53317937759E+02  0.53317937820E+02  0.25500000000E-02 0. -1.
    5000001    1    1    2    0    0 -0.72414539757E+02  0.21047360013E+02  0.71979555137E+02  0.12960290618E+03  0.77000000000E+02 0.  0.
   -5000001    1    1    2    0    0  0.72414539757E+02 -0.21047360013E+02  0.93992601407E+02  0.14300512596E+03  0.77000000000E+02 0.  0.
<mgrwt>
<rscale>  0 0.21625999E+03</rscale>
<asrwt>0</asrwt>
<pdfrwt beam="1">  1        2 0.31327156E-01 0.21625999E+03</pdfrwt>
<pdfrwt beam="2">  1       -2 0.76168484E-02 0.21625999E+03</pdfrwt>
<totfact> 0.16588410E+04</totfact>
</mgrwt>
</event>
<event>
 4    1  0.6782240E-004  0.3195858E+03  0.7818608E-02  0.1075840E+00
         -2   -1    0    0    0  501 -0.00000000000E+00  0.00000000000E+00  0.85485172769E+01  0.85485176573E+01  0.25500000000E-02 0. -1.
          2   -1    0    0  501    0  0.00000000000E+00 -0.00000000000E+00 -0.29869246228E+04  0.29869246228E+04  0.25500000000E-02 0.  1.
    5000001    1    1    2    0    0 -0.72726457261E+02  0.10570020432E+03 -0.96370652777E+03  0.97525429630E+03  0.77000000000E+02 0.  0.
   -5000001    1    1    2    0    0  0.72726457261E+02 -0.10570020432E+03 -0.20146695777E+04  0.20202188441E+04  0.77000000000E+02 0.  0.
<mgrwt>
<rscale>  0 0.31958584E+03</rscale>
<asrwt>0</asrwt>
<pdfrwt beam="1">  1        2 0.42670285E+00 0.31958584E+03</pdfrwt>
<pdfrwt beam="2">  1       -2 0.12212187E-02 0.31958584E+03</pdfrwt>
<totfact> 0.44855452E+03</totfact>
</mgrwt>
</event>
<event>
 4    1  0.6782240E-004  0.4858292E+03  0.7818608E-02  0.1017545E+00
         -2   -1    0    0    0  501 -0.00000000000E+00  0.00000000000E+00  0.21228249851E+02  0.21228250004E+02  0.25500000000E-02 0. -1.
          2   -1    0    0  501    0  0.00000000000E+00 -0.00000000000E+00 -0.27796682707E+04  0.27796682707E+04  0.25500000000E-02 0.  1.
    5000001    1    1    2    0    0  0.10113550670E+03  0.18930086779E+03 -0.89634347630E+03  0.92489125673E+03  0.77000000000E+02 0.  0.
   -5000001    1    1    2    0    0 -0.10113550670E+03 -0.18930086779E+03 -0.18620965445E+04  0.18760052640E+04  0.77000000000E+02 0.  0.
<mgrwt>
<rscale>  0 0.48582916E+03</rscale>
<asrwt>0</asrwt>
<pdfrwt beam="1">  1        2 0.39709524E+00 0.48582916E+03</pdfrwt>
<pdfrwt beam="2">  1       -2 0.30326089E-02 0.48582916E+03</pdfrwt>
<totfact> 0.14753326E+03</totfact>
</mgrwt>
</event>
<event>
 4    1  0.6782240E-004  0.2227462E+03  0.7818608E-02  0.1131852E+00
          2   -1    0    0  501    0  0.00000000000E+00  0.00000000000E+00  0.13834531837E+04  0.13834531837E+04  0.25500000000E-02 0.  1.
         -2   -1    0    0    0  501 -0.00000000000E+00 -0.00000000000E+00 -0.89659442180E+01  0.89659445806E+01  0.25500000000E-02 0. -1.
    5000001    1    1    2    0    0  0.68700805944E+02  0.19931927294E+02  0.91759495011E+03  0.92359437792E+03  0.77000000000E+02 0.  0.
   -5000001    1    1    2    0    0 -0.68700805944E+02 -0.19931927294E+02  0.45689228939E+03  0.46882475037E+03  0.77000000000E+02 0.  0.
<mgrwt>
<rscale>  0 0.22274617E+03</rscale>
<asrwt>0</asrwt>
<pdfrwt beam="1">  1        2 0.19763621E+00 0.22274617E+03</pdfrwt>
<pdfrwt beam="2">  1       -2 0.12808489E-02 0.22274617E+03</pdfrwt>
<totfact> 0.26282072E+04</totfact>
</mgrwt>
</event>
<event>
 4    1  0.6782240E-004  0.2623213E+03  0.7818608E-02  0.1105757E+00
         -2   -1    0    0    0  501 -0.00000000000E+00  0.00000000000E+00  0.48983763579E+01  0.48983770216E+01  0.25500000000E-02 0. -1.
          2   -1    0    0  501    0  0.00000000000E+00 -0.00000000000E+00 -0.35120028718E+04  0.35120028718E+04  0.25500000000E-02 0.  1.
    5000001    1    1    2    0    0 -0.39254288637E+01  0.71161426689E+02 -0.28087618569E+04  0.28107208197E+04  0.77000000000E+02 0.  0.
   -5000001    1    1    2    0    0  0.39254288637E+01 -0.71161426689E+02 -0.69834263861E+03  0.70618042916E+03  0.77000000000E+02 0.  0.
<mgrwt>
<rscale>  0 0.26232128E+03</rscale>
<asrwt>0</asrwt>
<pdfrwt beam="1">  1        2 0.50171308E+00 0.26232128E+03</pdfrwt>
<pdfrwt beam="2">  1       -2 0.69977035E-03 0.26232128E+03</pdfrwt>
<totfact> 0.51740808E+03</totfact>
</mgrwt>
</event>
<event>
 4    1  0.6782240E-004  0.3488706E+03  0.7818608E-02  0.1063080E+00
          2   -1    0    0  501    0  0.00000000000E+00  0.00000000000E+00  0.15937569432E+03  0.15937569434E+03  0.25500000000E-02 0.  1.
         -2   -1    0    0    0  501 -0.00000000000E+00 -0.00000000000E+00 -0.19091794588E+03  0.19091794590E+03  0.25500000000E-02 0. -1.
    5000001    1    1    2    0    0 -0.13990845721E+03 -0.69907487680E+02 -0.21899047877E+02  0.17569860993E+03  0.77000000000E+02 0.  0.
   -5000001    1    1    2    0    0  0.13990845721E+03  0.69907487680E+02 -0.96432036820E+01  0.17459503031E+03  0.77000000000E+02 0.  0.
<mgrwt>
<rscale>  0 0.34887064E+03</rscale>
<asrwt>0</asrwt>
<pdfrwt beam="1">  1        2 0.22767956E-01 0.34887064E+03</pdfrwt>
<pdfrwt beam="2">  1       -2 0.27273992E-01 0.34887064E+03</pdfrwt>
<totfact> 0.29219839E+03</totfact>
</mgrwt>
</event>
<event>
 4    1  0.6782240E-004  0.2917359E+03  0.7818608E-02  0.1089446E+00
         -2   -1    0    0    0  501 -0.00000000000E+00  0.00000000000E+00  0.30167249797E+03  0.30167249798E+03  0.25500000000E-02 0. -1.
          2   -1    0    0  501    0  0.00000000000E+00 -0.00000000000E+00 -0.70531666979E+02  0.70531667025E+02  0.25500000000E-02 0.  1.
    5000001    1    1    2    0    0 -0.16565024868E+02  0.88869767534E+02  0.74918853580E+01  0.11898472161E+03  0.77000000000E+02 0.  0.
   -5000001    1    1    2    0    0  0.16565024868E+02 -0.88869767534E+02  0.22364894563E+03  0.25321944339E+03  0.77000000000E+02 0.  0.
<mgrwt>
<rscale>  0 0.29173594E+03</rscale>
<asrwt>0</asrwt>
<pdfrwt beam="1">  1        2 0.10075952E-01 0.29173594E+03</pdfrwt>
<pdfrwt beam="2">  1       -2 0.43096071E-01 0.29173594E+03</pdfrwt>
<totfact> 0.32674247E+03</totfact>
</mgrwt>
</event>
<event>
 4    1  0.6782240E-004  0.2916282E+03  0.7818608E-02  0.1089502E+00
         -2   -1    0    0    0  501 -0.00000000000E+00  0.00000000000E+00  0.11021974894E+03  0.11021974897E+03  0.25500000000E-02 0. -1.
          2   -1    0    0  501    0  0.00000000000E+00 -0.00000000000E+00 -0.19290333679E+03  0.19290333681E+03  0.25500000000E-02 0.  1.
    5000001    1    1    2    0    0  0.82721657892E+02  0.92122240531E+02 -0.39431565159E+02  0.15104048535E+03  0.77000000000E+02 0.  0.
   -5000001    1    1    2    0    0 -0.82721657892E+02 -0.92122240531E+02 -0.43252022695E+02  0.15208260043E+03  0.77000000000E+02 0.  0.
<mgrwt>
<rscale>  0 0.29162824E+03</rscale>
<asrwt>0</asrwt>
<pdfrwt beam="1">  1        2 0.27557620E-01 0.29162824E+03</pdfrwt>
<pdfrwt beam="2">  1       -2 0.15745678E-01 0.29162824E+03</pdfrwt>
<totfact> 0.60570921E+03</totfact>
</mgrwt>
</event>
<event>
 4    1  0.6782240E-004  0.3305891E+03  0.7818608E-02  0.1070877E+00
         -2   -1    0    0    0  501 -0.00000000000E+00  0.00000000000E+00  0.11420485896E+04  0.11420485896E+04  0.25500000000E-02 0.  1.
          2   -1    0    0  501    0  0.00000000000E+00 -0.00000000000E+00 -0.23923925524E+02  0.23923925660E+02  0.25500000000E-02 0. -1.
    5000001    1    1    2    0    0  0.41732356178E+02  0.10632335187E+03  0.23683225680E+03  0.27397949296E+03  0.77000000000E+02 0.  0.
   -5000001    1    1    2    0    0 -0.41732356178E+02 -0.10632335187E+03  0.88129240729E+03  0.89199302231E+03  0.77000000000E+02 0.  0.
<mgrwt>
<rscale>  0 0.33058908E+03</rscale>
<asrwt>0</asrwt>
<pdfrwt beam="1">  1        2 0.34177026E-02 0.33058908E+03</pdfrwt>
<pdfrwt beam="2">  1       -2 0.16314985E+00 0.33058908E+03</pdfrwt>
<totfact> 0.66989190E+02</totfact>
</mgrwt>
</event>
<event>
 4    1  0.6782240E-004  0.1807896E+03  0.7818608E-02  0.1167041E+00
          2   -1    0    0  501    0  0.00000000000E+00  0.00000000000E+00  0.14850809781E+04  0.14850809781E+04  0.25500000000E-02 0.  1.
         -2   -1    0    0    0  501 -0.00000000000E+00 -0.00000000000E+00 -0.55022018915E+01  0.55022024824E+01  0.25500000000E-02 0. -1.
    5000001    1    1    2    0    0  0.24900019152E+02 -0.39866623627E+02  0.69252892268E+03  0.69838003077E+03  0.77000000000E+02 0.  0.
   -5000001    1    1    2    0    0 -0.24900019152E+02  0.39866623627E+02  0.78704985354E+03  0.79220314983E+03  0.77000000000E+02 0.  0.
<mgrwt>
<rscale>  0 0.18078956E+03</rscale>
<asrwt>0</asrwt>
<pdfrwt beam="1">  1        2 0.21215409E+00 0.18078956E+03</pdfrwt>
<pdfrwt beam="2">  1       -2 0.78603014E-03 0.18078956E+03</pdfrwt>
<totfact> 0.46602452E+04</totfact>
</mgrwt>
</event>
<event>
 4    1  0.6782240E-004  0.3604392E+03  0.7818608E-02  0.1058410E+00
          2   -1    0    0  501    0  0.00000000000E+00  0.00000000000E+00  0.23885943465E+03  0.23885943467E+03  0.25500000000E-02 0.  1.
         -2   -1    0    0    0  501 -0.00000000000E+00 -0.00000000000E+00 -0.13597581719E+03  0.13597581722E+03  0.25500000000E-02 0. -1.
    5000001    1    1    2    0    0  0.11708721658E+03 -0.41308770406E+02  0.16117534760E+03  0.21753694738E+03  0.77000000000E+02 0.  0.
   -5000001    1    1    2    0    0 -0.11708721658E+03  0.41308770406E+02 -0.58291730146E+02  0.15729830451E+03  0.77000000000E+02 0.  0.
<mgrwt>
<rscale>  0 0.36043921E+03</rscale>
<asrwt>0</asrwt>
<pdfrwt beam="1">  1        2 0.34122776E-01 0.36043921E+03</pdfrwt>
<pdfrwt beam="2">  1       -2 0.19425117E-01 0.36043921E+03</pdfrwt>
<totfact> 0.33780122E+03</totfact>
</mgrwt>
</event>
<event>
 4    1  0.6782240E-004  0.1829262E+03  0.7818608E-02  0.1165001E+00
          2   -1    0    0  501    0  0.00000000000E+00  0.00000000000E+00  0.64709329679E+03  0.64709329680E+03  0.25500000000E-02 0.  1.
         -2   -1    0    0    0  501 -0.00000000000E+00 -0.00000000000E+00 -0.12927812743E+02  0.12927812995E+02  0.25500000000E-02 0. -1.
    5000001    1    1    2    0    0 -0.48301583698E+02  0.94148621313E+01  0.33097212778E+03  0.34335583872E+03  0.77000000000E+02 0.  0.
   -5000001    1    1    2    0    0  0.48301583698E+02 -0.94148621313E+01  0.30319335627E+03  0.31666527107E+03  0.77000000000E+02 0.  0.
<mgrwt>
<rscale>  0 0.18292623E+03</rscale>
<asrwt>0</asrwt>
<pdfrwt beam="1">  1        2 0.92441901E-01 0.18292623E+03</pdfrwt>
<pdfrwt beam="2">  1       -2 0.18468304E-02 0.18292623E+03</pdfrwt>
<totfact> 0.42053032E+04</totfact>
</mgrwt>
</event>
<event>
 4    1  0.6782240E-004  0.3115937E+03  0.7818608E-02  0.1079584E+00
         -2   -1    0    0    0  501 -0.00000000000E+00  0.00000000000E+00  0.77047681155E+01  0.77047685375E+01  0.25500000000E-02 0. -1.
          2   -1    0    0  501    0  0.00000000000E+00 -0.00000000000E+00 -0.31503419773E+04  0.31503419773E+04  0.25500000000E-02 0.  1.
    5000001    1    1    2    0    0  0.12389173083E+03 -0.31301849483E+02 -0.11163998385E+04  0.11263243610E+04  0.77000000000E+02 0.  0.
   -5000001    1    1    2    0    0 -0.12389173083E+03  0.31301849483E+02 -0.20262373706E+04  0.20317223848E+04  0.77000000000E+02 0.  0.
<mgrwt>
<rscale>  0 0.31159368E+03</rscale>
<asrwt>0</asrwt>
<pdfrwt beam="1">  1        2 0.45004803E+00 0.31159368E+03</pdfrwt>
<pdfrwt beam="2">  1       -2 0.11006832E-02 0.31159368E+03</pdfrwt>
<totfact> 0.42658577E+03</totfact>
</mgrwt>
</event>
<event>
 4    1  0.6782240E-004  0.2188827E+03  0.7818608E-02  0.1134719E+00
         -2   -1    0    0    0  501 -0.00000000000E+00  0.00000000000E+00  0.39485327566E+02  0.39485327648E+02  0.25500000000E-02 0. -1.
          2   -1    0    0  501    0  0.00000000000E+00 -0.00000000000E+00 -0.30333809561E+03  0.30333809562E+03  0.25500000000E-02 0.  1.
    5000001    1    1    2    0    0  0.20685350745E+02 -0.31661634784E+02 -0.23836249171E+03  0.25332986462E+03  0.77000000000E+02 0.  0.
   -5000001    1    1    2    0    0 -0.20685350745E+02  0.31661634784E+02 -0.25490276335E+02  0.89493558652E+02  0.77000000000E+02 0.  0.
<mgrwt>
<rscale>  0 0.21888265E+03</rscale>
<asrwt>0</asrwt>
<pdfrwt beam="1">  1        2 0.43334012E-01 0.21888265E+03</pdfrwt>
<pdfrwt beam="2">  1       -2 0.56407613E-02 0.21888265E+03</pdfrwt>
<totfact> 0.18562003E+04</totfact>
</mgrwt>
</event>
<event>
 4    1  0.6782240E-004  0.4251013E+03  0.7818608E-02  0.1035419E+00
          2   -1    0    0  501    0  0.00000000000E+00  0.00000000000E+00  0.57550117117E+03  0.57550117117E+03  0.25500000000E-02 0.  1.
         -2   -1    0    0    0  501 -0.00000000000E+00 -0.00000000000E+00 -0.78501621019E+02  0.78501621061E+02  0.25500000000E-02 0. -1.
    5000001    1    1    2    0    0  0.10925064012E+02 -0.19638342326E+03  0.28500284493E+03  0.35474135306E+03  0.77000000000E+02 0.  0.
   -5000001    1    1    2    0    0 -0.10925064012E+02  0.19638342326E+03  0.21199670522E+03  0.29926143918E+03  0.77000000000E+02 0.  0.
<mgrwt>
<rscale>  0 0.42510128E+03</rscale>
<asrwt>0</asrwt>
<pdfrwt beam="1">  1        2 0.82214455E-01 0.42510128E+03</pdfrwt>
<pdfrwt beam="2">  1       -2 0.11214517E-01 0.42510128E+03</pdfrwt>
<totfact> 0.32077182E+03</totfact>
</mgrwt>
</event>
<event>
 4    1  0.6782240E-004  0.3950589E+03  0.7818608E-02  0.1045504E+00
         -2   -1    0    0    0  501 -0.00000000000E+00  0.00000000000E+00  0.16068684214E+03  0.16068684216E+03  0.25500000000E-02 0. -1.
          2   -1    0    0  501    0  0.00000000000E+00 -0.00000000000E+00 -0.24281946476E+03  0.24281946478E+03  0.25500000000E-02 0.  1.
    5000001    1    1    2    0    0  0.39530052632E+02 -0.49561132112E+02  0.13307854764E+03  0.16630643619E+03  0.77000000000E+02 0.  0.
   -5000001    1    1    2    0    0 -0.39530052632E+02  0.49561132112E+02 -0.21521117026E+03  0.23719987075E+03  0.77000000000E+02 0.  0.
<mgrwt>
<rscale>  0 0.39505895E+03</rscale>
<asrwt>0</asrwt>
<pdfrwt beam="1">  1        2 0.34688495E-01 0.39505895E+03</pdfrwt>
<pdfrwt beam="2">  1       -2 0.22955263E-01 0.39505895E+03</pdfrwt>
<totfact> 0.24870813E+03</totfact>
</mgrwt>
</event>
<event>
 4    1  0.6782240E-004  0.3549396E+03  0.7818608E-02  0.1060606E+00
         -2   -1    0    0    0  501 -0.00000000000E+00  0.00000000000E+00  0.61003241601E+02  0.61003241654E+02  0.25500000000E-02 0. -1.
          2   -1    0    0  501    0  0.00000000000E+00 -0.00000000000E+00 -0.51629277904E+03  0.51629277905E+03  0.25500000000E-02 0.  1.
    5000001    1    1    2    0    0 -0.13630108509E+03 -0.27017295359E+02 -0.35631649831E+03  0.39012609117E+03  0.77000000000E+02 0.  0.
   -5000001    1    1    2    0    0  0.13630108509E+03  0.27017295359E+02 -0.98973039134E+02  0.18716992953E+03  0.77000000000E+02 0.  0.
<mgrwt>
<rscale>  0 0.35493962E+03</rscale>
<asrwt>0</asrwt>
<pdfrwt beam="1">  1        2 0.73756109E-01 0.35493962E+03</pdfrwt>
<pdfrwt beam="2">  1       -2 0.87147491E-02 0.35493962E+03</pdfrwt>
<totfact> 0.54174348E+03</totfact>
</mgrwt>
</event>
<event>
 4    1  0.6782240E-004  0.1641563E+03  0.7818608E-02  0.1184083E+00
         -2   -1    0    0    0  501 -0.00000000000E+00  0.00000000000E+00  0.12721070871E+02  0.12721071126E+02  0.25500000000E-02 0. -1.
          2   -1    0    0  501    0  0.00000000000E+00 -0.00000000000E+00 -0.52957993745E+03  0.52957993745E+03  0.25500000000E-02 0.  1.
    5000001    1    1    2    0    0 -0.26218524822E+02  0.22080650163E+01 -0.29393889559E+03  0.30499403427E+03  0.77000000000E+02 0.  0.
   -5000001    1    1    2    0    0  0.26218524822E+02 -0.22080650163E+01 -0.22291997098E+03  0.23730697431E+03  0.77000000000E+02 0.  0.
<mgrwt>
<rscale>  0 0.16415632E+03</rscale>
<asrwt>0</asrwt>
<pdfrwt beam="1">  1        2 0.75654263E-01 0.16415632E+03</pdfrwt>
<pdfrwt beam="2">  1       -2 0.18172962E-02 0.16415632E+03</pdfrwt>
<totfact> 0.53368605E+04</totfact>
</mgrwt>
</event>
<event>
 4    1  0.6782240E-004  0.1903384E+03  0.7818608E-02  0.1158156E+00
         -2   -1    0    0    0  501 -0.00000000000E+00  0.00000000000E+00  0.57480158481E+01  0.57480164138E+01  0.25500000000E-02 0. -1.
          2   -1    0    0  501    0  0.00000000000E+00 -0.00000000000E+00 -0.15757046679E+04  0.15757046679E+04  0.25500000000E-02 0.  1.
    5000001    1    1    2    0    0  0.82948218834E+01 -0.32793414770E+02 -0.11550592256E+04  0.11581170178E+04  0.77000000000E+02 0.  0.
   -5000001    1    1    2    0    0 -0.82948218834E+01  0.32793414770E+02 -0.41489742637E+03  0.42333566650E+03  0.77000000000E+02 0.  0.
<mgrwt>
<rscale>  0 0.19033839E+03</rscale>
<asrwt>0</asrwt>
<pdfrwt beam="1">  1        2 0.22510039E+00 0.19033839E+03</pdfrwt>
<pdfrwt beam="2">  1       -2 0.82114617E-03 0.19033839E+03</pdfrwt>
<totfact> 0.39611773E+04</totfact>
</mgrwt>
</event>
<event>
 4    1  0.6782240E-004  0.2240590E+03  0.7818608E-02  0.1130893E+00
         -2   -1    0    0    0  501 -0.00000000000E+00  0.00000000000E+00  0.87912900802E+02  0.87912900839E+02  0.25500000000E-02 0. -1.
          2   -1    0    0  501    0  0.00000000000E+00 -0.00000000000E+00 -0.14276189891E+03  0.14276189893E+03  0.25500000000E-02 0.  1.
    5000001    1    1    2    0    0 -0.32544296643E+02 -0.74575023592E+02 -0.26370917124E+02  0.11508688308E+03  0.77000000000E+02 0.  0.
   -5000001    1    1    2    0    0  0.32544296643E+02  0.74575023592E+02 -0.28478080983E+02  0.11558791669E+03  0.77000000000E+02 0.  0.
<mgrwt>
<rscale>  0 0.22405903E+03</rscale>
<asrwt>0</asrwt>
<pdfrwt beam="1">  1        2 0.20394557E-01 0.22405903E+03</pdfrwt>
<pdfrwt beam="2">  1       -2 0.12558986E-01 0.22405903E+03</pdfrwt>
<totfact> 0.12150433E+04</totfact>
</mgrwt>
</event>
<event>
 4    1  0.6782240E-004  0.2895799E+03  0.7818608E-02  0.1090569E+00
          2   -1    0    0  501    0  0.00000000000E+00  0.00000000000E+00  0.40944658091E+02  0.40944658171E+02  0.25500000000E-02 0.  1.
         -2   -1    0    0    0  501 -0.00000000000E+00 -0.00000000000E+00 -0.51201123072E+03  0.51201123073E+03  0.25500000000E-02 0. -1.
    5000001    1    1    2    0    0  0.95367968070E+02  0.20205609471E+02 -0.37755531265E+03  0.39746739502E+03  0.77000000000E+02 0.  0.
   -5000001    1    1    2    0    0 -0.95367968070E+02 -0.20205609471E+02 -0.93511259980E+02  0.15548849389E+03  0.77000000000E+02 0.  0.
<mgrwt>
<rscale>  0 0.28957987E+03</rscale>
<asrwt>0</asrwt>
<pdfrwt beam="1">  1        2 0.58492372E-02 0.28957987E+03</pdfrwt>
<pdfrwt beam="2">  1       -2 0.73144458E-01 0.28957987E+03</pdfrwt>
<totfact> 0.22156336E+03</totfact>
</mgrwt>
</event>
<event>
 4    1  0.6782240E-004  0.3354746E+03  0.7818608E-02  0.1068740E+00
          2   -1    0    0  501    0  0.00000000000E+00  0.00000000000E+00  0.63223479692E+03  0.63223479692E+03  0.25500000000E-02 0.  1.
         -2   -1    0    0    0  501 -0.00000000000E+00 -0.00000000000E+00 -0.44502132122E+02  0.44502132195E+02  0.25500000000E-02 0. -1.
    5000001    1    1    2    0    0 -0.11711186321E+03  0.64818012198E+02  0.16173654766E+03  0.22361635463E+03  0.77000000000E+02 0.  0.
   -5000001    1    1    2    0    0  0.11711186321E+03 -0.64818012198E+02  0.42599611713E+03  0.45312057448E+03  0.77000000000E+02 0.  0.
<mgrwt>
<rscale>  0 0.33547457E+03</rscale>
<asrwt>0</asrwt>
<pdfrwt beam="1">  1        2 0.90319245E-01 0.33547457E+03</pdfrwt>
<pdfrwt beam="2">  1       -2 0.63574483E-02 0.33547457E+03</pdfrwt>
<totfact> 0.70304537E+03</totfact>
</mgrwt>
</event>
<event>
 4    1  0.6782240E-004  0.2378463E+03  0.7818608E-02  0.1121236E+00
         -2   -1    0    0    0  501 -0.00000000000E+00  0.00000000000E+00  0.69488955745E+01  0.69488960424E+01  0.25500000000E-02 0. -1.
          2   -1    0    0  501    0  0.00000000000E+00 -0.00000000000E+00 -0.20352468134E+04  0.20352468134E+04  0.25500000000E-02 0.  1.
    5000001    1    1    2    0    0 -0.89050241144E+02  0.50049632184E+01 -0.87604109799E+03  0.88392986174E+03  0.77000000000E+02 0.  0.
   -5000001    1    1    2    0    0  0.89050241144E+02 -0.50049632184E+01 -0.11522568198E+04  0.11582658477E+04  0.77000000000E+02 0.  0.
<mgrwt>
<rscale>  0 0.23784632E+03</rscale>
<asrwt>0</asrwt>
<pdfrwt beam="1">  1        2 0.29074916E+00 0.23784632E+03</pdfrwt>
<pdfrwt beam="2">  1       -2 0.99270071E-03 0.23784632E+03</pdfrwt>
<totfact> 0.18206378E+04</totfact>
</mgrwt>
</event>
<event>
 4    1  0.6782240E-004  0.2066286E+03  0.7818608E-02  0.1144264E+00
          2   -1    0    0  501    0  0.00000000000E+00  0.00000000000E+00  0.28751338295E+02  0.28751338408E+02  0.25500000000E-02 0.  1.
         -2   -1    0    0    0  501 -0.00000000000E+00 -0.00000000000E+00 -0.37124690938E+03  0.37124690939E+03  0.25500000000E-02 0. -1.
    5000001    1    1    2    0    0 -0.39819255144E+02 -0.51645025867E+02 -0.12830617646E+03  0.16323068552E+03  0.77000000000E+02 0.  0.
   -5000001    1    1    2    0    0  0.39819255144E+02  0.51645025867E+02 -0.21418939463E+03  0.23676756228E+03  0.77000000000E+02 0.  0.
<mgrwt>
<rscale>  0 0.20662861E+03</rscale>
<asrwt>0</asrwt>
<pdfrwt beam="1">  1        2 0.41073343E-02 0.20662861E+03</pdfrwt>
<pdfrwt beam="2">  1       -2 0.53035270E-01 0.20662861E+03</pdfrwt>
<totfact> 0.68058935E+03</totfact>
</mgrwt>
</event>
<event>
 4    1  0.6782240E-004  0.2032432E+03  0.7818608E-02  0.1147031E+00
         -2   -1    0    0    0  501 -0.00000000000E+00  0.00000000000E+00  0.55839748642E+01  0.55839754465E+01  0.25500000000E-02 0. -1.
          2   -1    0    0  501    0  0.00000000000E+00 -0.00000000000E+00 -0.18493896014E+04  0.18493896014E+04  0.25500000000E-02 0.  1.
    5000001    1    1    2    0    0  0.89873348492E+01 -0.45429961521E+02 -0.48866084036E+03  0.49685316794E+03  0.77000000000E+02 0.  0.
   -5000001    1    1    2    0    0 -0.89873348492E+01  0.45429961521E+02 -0.13551447862E+04  0.13581204089E+04  0.77000000000E+02 0.  0.
<mgrwt>
<rscale>  0 0.20324316E+03</rscale>
<asrwt>0</asrwt>
<pdfrwt beam="1">  1        2 0.26419812E+00 0.20324316E+03</pdfrwt>
<pdfrwt beam="2">  1       -2 0.79771192E-03 0.20324316E+03</pdfrwt>
<totfact> 0.30498195E+04</totfact>
</mgrwt>
</event>
<event>
 4    1  0.6782240E-004  0.2194022E+03  0.7818608E-02  0.1134329E+00
         -2   -1    0    0    0  501 -0.00000000000E+00  0.00000000000E+00  0.26194354859E+03  0.26194354860E+03  0.25500000000E-02 0. -1.
          2   -1    0    0  501    0  0.00000000000E+00 -0.00000000000E+00 -0.45942478070E+02  0.45942478140E+02  0.25500000000E-02 0.  1.
    5000001    1    1    2    0    0 -0.61191366037E+02  0.44016883326E+02  0.79123112709E+02  0.13368371726E+03  0.77000000000E+02 0.  0.
   -5000001    1    1    2    0    0  0.61191366037E+02 -0.44016883326E+02  0.13687795781E+03  0.17420230948E+03  0.77000000000E+02 0.  0.
<mgrwt>
<rscale>  0 0.21940224E+03</rscale>
<asrwt>0</asrwt>
<pdfrwt beam="1">  1        2 0.65632112E-02 0.21940224E+03</pdfrwt>
<pdfrwt beam="2">  1       -2 0.37420507E-01 0.21940224E+03</pdfrwt>
<totfact> 0.72755834E+03</totfact>
</mgrwt>
</event>
<event>
 4    1  0.6782240E-004  0.2576186E+03  0.7818608E-02  0.1108583E+00
          2   -1    0    0  501    0  0.00000000000E+00  0.00000000000E+00  0.79638357677E+03  0.79638357678E+03  0.25500000000E-02 0.  1.
         -2   -1    0    0    0  501 -0.00000000000E+00 -0.00000000000E+00 -0.20833977842E+02  0.20833977998E+02  0.25500000000E-02 0. -1.
    5000001    1    1    2    0    0 -0.98382107660E+02  0.12919399490E+02  0.47844021718E+03  0.49465138371E+03  0.77000000000E+02 0.  0.
   -5000001    1    1    2    0    0  0.98382107660E+02 -0.12919399490E+02  0.29710938175E+03  0.32256617106E+03  0.77000000000E+02 0.  0.
<mgrwt>
<rscale>  0 0.25761862E+03</rscale>
<asrwt>0</asrwt>
<pdfrwt beam="1">  1        2 0.11376907E+00 0.25761862E+03</pdfrwt>
<pdfrwt beam="2">  1       -2 0.29762829E-02 0.25761862E+03</pdfrwt>
<totfact> 0.16665430E+04</totfact>
</mgrwt>
</event>
<event>
 4    1  0.6782240E-004  0.2304787E+03  0.7818608E-02  0.1126303E+00
          2   -1    0    0  501    0  0.00000000000E+00  0.00000000000E+00  0.18786569152E+03  0.18786569154E+03  0.25500000000E-02 0.  1.
         -2   -1    0    0    0  501 -0.00000000000E+00 -0.00000000000E+00 -0.70689392122E+02  0.70689392168E+02  0.25500000000E-02 0. -1.
    5000001    1    1    2    0    0  0.40073770456E+02  0.70122596970E+02  0.26307358262E+02  0.11464799511E+03  0.77000000000E+02 0.  0.
   -5000001    1    1    2    0    0 -0.40073770456E+02 -0.70122596970E+02  0.90868941138E+02  0.14390708860E+03  0.77000000000E+02 0.  0.
<mgrwt>
<rscale>  0 0.23047873E+03</rscale>
<asrwt>0</asrwt>
<pdfrwt beam="1">  1        2 0.26837956E-01 0.23047873E+03</pdfrwt>
<pdfrwt beam="2">  1       -2 0.10098485E-01 0.23047873E+03</pdfrwt>
<totfact> 0.12682464E+04</totfact>
</mgrwt>
</event>
<event>
 4    1  0.6782240E-004  0.2856955E+03  0.7818608E-02  0.1092618E+00
          2   -1    0    0  501    0  0.00000000000E+00  0.00000000000E+00  0.24262117074E+03  0.24262117075E+03  0.25500000000E-02 0.  1.
         -2   -1    0    0    0  501 -0.00000000000E+00 -0.00000000000E+00 -0.84104278109E+02  0.84104278148E+02  0.25500000000E-02 0. -1.
    5000001    1    1    2    0    0 -0.22114542323E+02  0.62440180004E+02 -0.35608768524E+02  0.10763277130E+03  0.77000000000E+02 0.  0.
   -5000001    1    1    2    0    0  0.22114542323E+02 -0.62440180004E+02  0.19412566116E+03  0.21909267760E+03  0.77000000000E+02 0.  0.
<mgrwt>
<rscale>  0 0.28569549E+03</rscale>
<asrwt>0</asrwt>
<pdfrwt beam="1">  1        2 0.34660168E-01 0.28569549E+03</pdfrwt>
<pdfrwt beam="2">  1       -2 0.12014897E-01 0.28569549E+03</pdfrwt>
<totfact> 0.73317866E+03</totfact>
</mgrwt>
</event>
<event>
 4    1  0.6782240E-004  0.3782723E+03  0.7818608E-02  0.1051574E+00
         -2   -1    0    0    0  501 -0.00000000000E+00  0.00000000000E+00  0.11006001711E+03  0.11006001714E+03  0.25500000000E-02 0. -1.
          2   -1    0    0  501    0  0.00000000000E+00 -0.00000000000E+00 -0.32502703727E+03  0.32502703728E+03  0.25500000000E-02 0.  1.
    5000001    1    1    2    0    0 -0.11064502522E+03 -0.13154109952E+03 -0.12734225349E+03  0.22735529902E+03  0.77000000000E+02 0.  0.
   -5000001    1    1    2    0    0  0.11064502522E+03  0.13154109952E+03 -0.87624766668E+02  0.20773175540E+03  0.77000000000E+02 0.  0.
<mgrwt>
<rscale>  0 0.37827229E+03</rscale>
<asrwt>0</asrwt>
<pdfrwt beam="1">  1        2 0.46432433E-01 0.37827229E+03</pdfrwt>
<pdfrwt beam="2">  1       -2 0.15722860E-01 0.37827229E+03</pdfrwt>
<totfact> 0.34574146E+03</totfact>
</mgrwt>
</event>
<event>
 4    1  0.6782240E-004  0.2383530E+03  0.7818608E-02  0.1120895E+00
          2   -1    0    0  501    0  0.00000000000E+00  0.00000000000E+00  0.16924782153E+03  0.16924782155E+03  0.25500000000E-02 0.  1.
         -2   -1    0    0    0  501 -0.00000000000E+00 -0.00000000000E+00 -0.83918574364E+02  0.83918574402E+02  0.25500000000E-02 0. -1.
    5000001    1    1    2    0    0 -0.84600393734E+02  0.33302784553E+02  0.45618434301E+02  0.12757877420E+03  0.77000000000E+02 0.  0.
   -5000001    1    1    2    0    0  0.84600393734E+02 -0.33302784553E+02  0.39710812870E+02  0.12558762175E+03  0.77000000000E+02 0.  0.
<mgrwt>
<rscale>  0 0.23835298E+03</rscale>
<asrwt>0</asrwt>
<pdfrwt beam="1">  1        2 0.24178260E-01 0.23835298E+03</pdfrwt>
<pdfrwt beam="2">  1       -2 0.11988368E-01 0.23835298E+03</pdfrwt>
<totfact> 0.10848161E+04</totfact>
</mgrwt>
</event>
<event>
 4    1  0.6782240E-004  0.1775272E+03  0.7818608E-02  0.1170218E+00
         -2   -1    0    0    0  501 -0.00000000000E+00  0.00000000000E+00  0.70542979555E+01  0.70542984164E+01  0.25500000000E-02 0. -1.
          2   -1    0    0  501    0  0.00000000000E+00 -0.00000000000E+00 -0.11169047804E+04  0.11169047804E+04  0.25500000000E-02 0.  1.
    5000001    1    1    2    0    0  0.75527837049E+01 -0.43505986344E+02 -0.55236146107E+03  0.55944794134E+03  0.77000000000E+02 0.  0.
   -5000001    1    1    2    0    0 -0.75527837049E+01  0.43505986344E+02 -0.55748902136E+03  0.56451113746E+03  0.77000000000E+02 0.  0.
<mgrwt>
<rscale>  0 0.17752723E+03</rscale>
<asrwt>0</asrwt>
<pdfrwt beam="1">  1        2 0.15955771E+00 0.17752723E+03</pdfrwt>
<pdfrwt beam="2">  1       -2 0.10077576E-02 0.17752723E+03</pdfrwt>
<totfact> 0.50638403E+04</totfact>
</mgrwt>
</event>
<event>
 4    1  0.6782240E-004  0.1915951E+03  0.7818608E-02  0.1157030E+00
         -2   -1    0    0    0  501 -0.00000000000E+00  0.00000000000E+00  0.12652488722E+02  0.12652488979E+02  0.25500000000E-02 0. -1.
          2   -1    0    0  501    0  0.00000000000E+00 -0.00000000000E+00 -0.72532569341E+03  0.72532569341E+03  0.25500000000E-02 0.  1.
    5000001    1    1    2    0    0 -0.38692594276E+02 -0.13315910354E+02 -0.50913759882E+03  0.51655060241E+03  0.77000000000E+02 0.  0.
   -5000001    1    1    2    0    0  0.38692594276E+02  0.13315910354E+02 -0.20353560587E+03  0.22142757998E+03  0.77000000000E+02 0.  0.
<mgrwt>
<rscale>  0 0.19159515E+03</rscale>
<asrwt>0</asrwt>
<pdfrwt beam="1">  1        2 0.10361793E+00 0.19159515E+03</pdfrwt>
<pdfrwt beam="2">  1       -2 0.18074989E-02 0.19159515E+03</pdfrwt>
<totfact> 0.38132093E+04</totfact>
</mgrwt>
</event>
<event>
 4    1  0.6782240E-004  0.2179289E+03  0.7818608E-02  0.1135437E+00
         -2   -1    0    0    0  501 -0.00000000000E+00  0.00000000000E+00  0.11218076835E+02  0.11218077125E+02  0.25500000000E-02 0. -1.
          2   -1    0    0  501    0  0.00000000000E+00 -0.00000000000E+00 -0.10584029886E+04  0.10584029886E+04  0.25500000000E-02 0.  1.
    5000001    1    1    2    0    0  0.67277098308E+02  0.17359787137E+02 -0.35957925139E+03  0.37423763600E+03  0.77000000000E+02 0.  0.
   -5000001    1    1    2    0    0 -0.67277098308E+02 -0.17359787137E+02 -0.68760566034E+03  0.69538342970E+03  0.77000000000E+02 0.  0.
<mgrwt>
<rscale>  0 0.21792885E+03</rscale>
<asrwt>0</asrwt>
<pdfrwt beam="1">  1        2 0.15120036E+00 0.21792885E+03</pdfrwt>
<pdfrwt beam="2">  1       -2 0.16025831E-02 0.21792885E+03</pdfrwt>
<totfact> 0.28320773E+04</totfact>
</mgrwt>
</event>
<event>
 4    1  0.6782240E-004  0.1817257E+03  0.7818608E-02  0.1166143E+00
          2   -1    0    0  501    0  0.00000000000E+00  0.00000000000E+00  0.24728326750E+04  0.24728326750E+04  0.25500000000E-02 0.  1.
         -2   -1    0    0    0  501 -0.00000000000E+00 -0.00000000000E+00 -0.33387044402E+01  0.33387054140E+01  0.25500000000E-02 0. -1.
    5000001    1    1    2    0    0  0.42569153016E+02  0.11940247317E+02  0.14976791390E+04  0.15003088035E+04  0.77000000000E+02 0.  0.
   -5000001    1    1    2    0    0 -0.42569153016E+02 -0.11940247317E+02  0.97181483155E+03  0.97586257696E+03  0.77000000000E+02 0.  0.
<mgrwt>
<rscale>  0 0.18172571E+03</rscale>
<asrwt>0</asrwt>
<pdfrwt beam="1">  1        2 0.35326120E+00 0.18172571E+03</pdfrwt>
<pdfrwt beam="2">  1       -2 0.47695867E-03 0.18172571E+03</pdfrwt>
<totfact> 0.31616803E+04</totfact>
</mgrwt>
</event>
<event>
 4    1  0.6782240E-004  0.2314426E+03  0.7818608E-02  0.1125628E+00
         -2   -1    0    0    0  501 -0.00000000000E+00  0.00000000000E+00  0.30258431259E+02  0.30258431366E+02  0.25500000000E-02 0. -1.
          2   -1    0    0  501    0  0.00000000000E+00 -0.00000000000E+00 -0.44256838375E+03  0.44256838376E+03  0.25500000000E-02 0.  1.
    5000001    1    1    2    0    0  0.75211382555E+02  0.22350015812E+02 -0.27998877182E+03  0.30079725335E+03  0.77000000000E+02 0.  0.
   -5000001    1    1    2    0    0 -0.75211382555E+02 -0.22350015812E+02 -0.13232118067E+03  0.17202956178E+03  0.77000000000E+02 0.  0.
<mgrwt>
<rscale>  0 0.23144265E+03</rscale>
<asrwt>0</asrwt>
<pdfrwt beam="1">  1        2 0.63224051E-01 0.23144265E+03</pdfrwt>
<pdfrwt beam="2">  1       -2 0.43226333E-02 0.23144265E+03</pdfrwt>
<totfact> 0.18571312E+04</totfact>
</mgrwt>
</event>
<event>
 4    1  0.6782240E-004  0.1924188E+03  0.7818608E-02  0.1156298E+00
         -2   -1    0    0    0  501 -0.00000000000E+00  0.00000000000E+00  0.40125511894E+02  0.40125511975E+02  0.25500000000E-02 0. -1.
          2   -1    0    0  501    0  0.00000000000E+00 -0.00000000000E+00 -0.23068230474E+03  0.23068230475E+03  0.25500000000E-02 0.  1.
    5000001    1    1    2    0    0 -0.57504900937E+02  0.31939779520E+01 -0.90776856540E+02  0.13223635208E+03  0.77000000000E+02 0.  0.
   -5000001    1    1    2    0    0  0.57504900937E+02 -0.31939779520E+01 -0.99779936302E+02  0.13857146465E+03  0.77000000000E+02 0.  0.
<mgrwt>
<rscale>  0 0.19241877E+03</rscale>
<asrwt>0</asrwt>
<pdfrwt beam="1">  1        2 0.32954614E-01 0.19241877E+03</pdfrwt>
<pdfrwt beam="2">  1       -2 0.57322161E-02 0.19241877E+03</pdfrwt>
<totfact> 0.24087274E+04</totfact>
</mgrwt>
</event>
<event>
 4    1  0.6782240E-004  0.3350347E+03  0.7818608E-02  0.1068931E+00
         -2   -1    0    0    0  501 -0.00000000000E+00  0.00000000000E+00  0.22797032529E+02  0.22797032672E+02  0.25500000000E-02 0. -1.
          2   -1    0    0  501    0  0.00000000000E+00 -0.00000000000E+00 -0.12309522473E+04  0.12309522473E+04  0.25500000000E-02 0.  1.
    5000001    1    1    2    0    0  0.12461193312E+03  0.23477984543E+02 -0.31291761182E+03  0.34630301965E+03  0.77000000000E+02 0.  0.
   -5000001    1    1    2    0    0 -0.12461193312E+03 -0.23477984543E+02 -0.89523760297E+03  0.90744626034E+03  0.77000000000E+02 0.  0.
<mgrwt>
<rscale>  0 0.33503468E+03</rscale>
<asrwt>0</asrwt>
<pdfrwt beam="1">  1        2 0.17585028E+00 0.33503468E+03</pdfrwt>
<pdfrwt beam="2">  1       -2 0.32567197E-02 0.33503468E+03</pdfrwt>
<totfact> 0.81082501E+03</totfact>
</mgrwt>
</event>
<event>
 4    1  0.6782240E-004  0.2577834E+03  0.7818608E-02  0.1108482E+00
         -2   -1    0    0    0  501 -0.00000000000E+00  0.00000000000E+00  0.78252530016E+01  0.78252534170E+01  0.25500000000E-02 0. -1.
          2   -1    0    0  501    0  0.00000000000E+00 -0.00000000000E+00 -0.21230071868E+04  0.21230071868E+04  0.25500000000E-02 0.  1.
    5000001    1    1    2    0    0  0.66629820268E+02 -0.78979616938E+02 -0.10790761003E+04  0.10867435499E+04  0.77000000000E+02 0.  0.
   -5000001    1    1    2    0    0 -0.66629820268E+02  0.78979616938E+02 -0.10361058335E+04  0.10440888904E+04  0.77000000000E+02 0.  0.
<mgrwt>
<rscale>  0 0.25778339E+03</rscale>
<asrwt>0</asrwt>
<pdfrwt beam="1">  1        2 0.30328637E+00 0.25778339E+03</pdfrwt>
<pdfrwt beam="2">  1       -2 0.11178947E-02 0.25778339E+03</pdfrwt>
<totfact> 0.13922703E+04</totfact>
</mgrwt>
</event>
<event>
 4    1  0.6782240E-004  0.2810625E+03  0.7818608E-02  0.1095110E+00
          2   -1    0    0  501    0  0.00000000000E+00  0.00000000000E+00  0.22971954711E+04  0.22971954711E+04  0.25500000000E-02 0.  1.
         -2   -1    0    0    0  501 -0.00000000000E+00 -0.00000000000E+00 -0.85970183783E+01  0.85970187565E+01  0.25500000000E-02 0. -1.
    5000001    1    1    2    0    0 -0.66739604092E+02  0.15550217766E+02  0.19279293086E+04  0.19306828852E+04  0.77000000000E+02 0.  0.
   -5000001    1    1    2    0    0  0.66739604092E+02 -0.15550217766E+02  0.36066914410E+03  0.37510960469E+03  0.77000000000E+02 0.  0.
<mgrwt>
<rscale>  0 0.28106250E+03</rscale>
<asrwt>0</asrwt>
<pdfrwt beam="1">  1        2 0.32817130E+00 0.28106250E+03</pdfrwt>
<pdfrwt beam="2">  1       -2 0.12281436E-02 0.28106250E+03</pdfrwt>
<totfact> 0.99909020E+03</totfact>
</mgrwt>
</event>
<event>
 4    1  0.6782240E-004  0.2874215E+03  0.7818608E-02  0.1091703E+00
         -2   -1    0    0    0  501 -0.00000000000E+00  0.00000000000E+00  0.63522615136E+02  0.63522615187E+02  0.25500000000E-02 0. -1.
          2   -1    0    0  501    0  0.00000000000E+00 -0.00000000000E+00 -0.32512475558E+03  0.32512475559E+03  0.25500000000E-02 0.  1.
    5000001    1    1    2    0    0  0.71340277331E+02 -0.28625566665E+02 -0.38472904407E+01  0.10886992183E+03  0.77000000000E+02 0.  0.
   -5000001    1    1    2    0    0 -0.71340277331E+02  0.28625566665E+02 -0.25775485000E+03  0.27977744894E+03  0.77000000000E+02 0.  0.
<mgrwt>
<rscale>  0 0.28742147E+03</rscale>
<asrwt>0</asrwt>
<pdfrwt beam="1">  1        2 0.46446393E-01 0.28742147E+03</pdfrwt>
<pdfrwt beam="2">  1       -2 0.90746595E-02 0.28742147E+03</pdfrwt>
<totfact> 0.83675775E+03</totfact>
</mgrwt>
</event>
<event>
 4    1  0.6782240E-004  0.2623777E+03  0.7818608E-02  0.1105723E+00
          2   -1    0    0  501    0  0.00000000000E+00  0.00000000000E+00  0.13244403387E+02  0.13244403633E+02  0.25500000000E-02 0.  1.
         -2   -1    0    0    0  501 -0.00000000000E+00 -0.00000000000E+00 -0.12994559949E+04  0.12994559949E+04  0.25500000000E-02 0. -1.
    5000001    1    1    2    0    0  0.78597399743E+02 -0.63867322323E+02 -0.80327774535E+03  0.81329006036E+03  0.77000000000E+02 0.  0.
   -5000001    1    1    2    0    0 -0.78597399743E+02  0.63867322323E+02 -0.48293384619E+03  0.49941033820E+03  0.77000000000E+02 0.  0.
<mgrwt>
<rscale>  0 0.26237774E+03</rscale>
<asrwt>0</asrwt>
<pdfrwt beam="1">  1        2 0.18920585E-02 0.26237774E+03</pdfrwt>
<pdfrwt beam="2">  1       -2 0.18563649E+00 0.26237774E+03</pdfrwt>
<totfact> 0.10549841E+03</totfact>
</mgrwt>
</event>
<event>
 4    1  0.6782240E-004  0.1996469E+03  0.7818608E-02  0.1150037E+00
          2   -1    0    0  501    0  0.00000000000E+00  0.00000000000E+00  0.11411772011E+02  0.11411772296E+02  0.25500000000E-02 0.  1.
         -2   -1    0    0    0  501 -0.00000000000E+00 -0.00000000000E+00 -0.87319656414E+03  0.87319656415E+03  0.25500000000E-02 0. -1.
    5000001    1    1    2    0    0 -0.57026906693E+01 -0.48251750970E+02 -0.61223161687E+03  0.61896470404E+03  0.77000000000E+02 0.  0.
   -5000001    1    1    2    0    0  0.57026906693E+01  0.48251750970E+02 -0.24955317526E+03  0.26564363240E+03  0.77000000000E+02 0.  0.
<mgrwt>
<rscale>  0 0.19964689E+03</rscale>
<asrwt>0</asrwt>
<pdfrwt beam="1">  1        2 0.16302537E-02 0.19964689E+03</pdfrwt>
<pdfrwt beam="2">  1       -2 0.12474232E+00 0.19964689E+03</pdfrwt>
<totfact> 0.35994503E+03</totfact>
</mgrwt>
</event>
<event>
 4    1  0.6782240E-004  0.2760552E+03  0.7818608E-02  0.1097863E+00
          2   -1    0    0  501    0  0.00000000000E+00  0.00000000000E+00  0.17728190356E+03  0.17728190357E+03  0.25500000000E-02 0.  1.
         -2   -1    0    0    0  501 -0.00000000000E+00 -0.00000000000E+00 -0.10746513487E+03  0.10746513490E+03  0.25500000000E-02 0. -1.
    5000001    1    1    2    0    0  0.90070258787E+02 -0.44696461055E+02  0.91519930889E+02  0.15625403322E+03  0.77000000000E+02 0.  0.
   -5000001    1    1    2    0    0 -0.90070258787E+02  0.44696461055E+02 -0.21703162206E+02  0.12849300525E+03  0.77000000000E+02 0.  0.
<mgrwt>
<rscale>  0 0.27605524E+03</rscale>
<asrwt>0</asrwt>
<pdfrwt beam="1">  1        2 0.25325986E-01 0.27605524E+03</pdfrwt>
<pdfrwt beam="2">  1       -2 0.15352162E-01 0.27605524E+03</pdfrwt>
<totfact> 0.69250285E+03</totfact>
</mgrwt>
</event>
<event>
 4    1  0.6782240E-004  0.2536647E+03  0.7818608E-02  0.1111010E+00
          2   -1    0    0  501    0  0.00000000000E+00  0.00000000000E+00  0.16732031015E+03  0.16732031017E+03  0.25500000000E-02 0.  1.
         -2   -1    0    0    0  501 -0.00000000000E+00 -0.00000000000E+00 -0.96141624068E+02  0.96141624102E+02  0.25500000000E-02 0. -1.
    5000001    1    1    2    0    0 -0.24219104713E+02 -0.97144102743E+02  0.47607991303E+02  0.13497800772E+03  0.77000000000E+02 0.  0.
   -5000001    1    1    2    0    0  0.24219104713E+02  0.97144102743E+02  0.23570694779E+02  0.12848392656E+03  0.77000000000E+02 0.  0.
<mgrwt>
<rscale>  0 0.25366471E+03</rscale>
<asrwt>0</asrwt>
<pdfrwt beam="1">  1        2 0.23902901E-01 0.25366471E+03</pdfrwt>
<pdfrwt beam="2">  1       -2 0.13734518E-01 0.25366471E+03</pdfrwt>
<totfact> 0.88403101E+03</totfact>
</mgrwt>
</event>
<event>
 4    1  0.6782240E-004  0.1928934E+03  0.7818608E-02  0.1155877E+00
          2   -1    0    0  501    0  0.00000000000E+00  0.00000000000E+00  0.17149578390E+04  0.17149578390E+04  0.25500000000E-02 0.  1.
         -2   -1    0    0    0  501 -0.00000000000E+00 -0.00000000000E+00 -0.54240200417E+01  0.54240206412E+01  0.25500000000E-02 0. -1.
    5000001    1    1    2    0    0  0.32564924531E+02 -0.48064172009E+02  0.84116090808E+03  0.84667072244E+03  0.77000000000E+02 0.  0.
   -5000001    1    1    2    0    0 -0.32564924531E+02  0.48064172009E+02  0.86837291089E+03  0.87371113723E+03  0.77000000000E+02 0.  0.
<mgrwt>
<rscale>  0 0.19289340E+03</rscale>
<asrwt>0</asrwt>
<pdfrwt beam="1">  1        2 0.24499409E+00 0.19289340E+03</pdfrwt>
<pdfrwt beam="2">  1       -2 0.77485968E-03 0.19289340E+03</pdfrwt>
<totfact> 0.36833964E+04</totfact>
</mgrwt>
</event>
<event>
 4    1  0.6782240E-004  0.1842654E+03  0.7818608E-02  0.1163738E+00
          2   -1    0    0  501    0  0.00000000000E+00  0.00000000000E+00  0.31438455056E+02  0.31438455159E+02  0.25500000000E-02 0.  1.
         -2   -1    0    0    0  501 -0.00000000000E+00 -0.00000000000E+00 -0.27000158214E+03  0.27000158215E+03  0.25500000000E-02 0. -1.
    5000001    1    1    2    0    0 -0.48461789563E+02  0.13986276011E+02 -0.12567449850E+03  0.15577946122E+03  0.77000000000E+02 0.  0.
   -5000001    1    1    2    0    0  0.48461789563E+02 -0.13986276011E+02 -0.11288862858E+03  0.14566057609E+03  0.77000000000E+02 0.  0.
<mgrwt>
<rscale>  0 0.18426538E+03</rscale>
<asrwt>0</asrwt>
<pdfrwt beam="1">  1        2 0.44912080E-02 0.18426538E+03</pdfrwt>
<pdfrwt beam="2">  1       -2 0.38571653E-01 0.18426538E+03</pdfrwt>
<totfact> 0.11147850E+04</totfact>
</mgrwt>
</event>
<event>
 4    1  0.6782240E-004  0.2728242E+03  0.7818608E-02  0.1099674E+00
          2   -1    0    0  501    0  0.00000000000E+00  0.00000000000E+00  0.31569417277E+04  0.31569417277E+04  0.25500000000E-02 0.  1.
         -2   -1    0    0    0  501 -0.00000000000E+00 -0.00000000000E+00 -0.58943939368E+01  0.58943944884E+01  0.25500000000E-02 0. -1.
    5000001    1    1    2    0    0 -0.46514175523E+02 -0.67025126810E+02  0.24752530333E+04  0.24777938807E+04  0.77000000000E+02 0.  0.
   -5000001    1    1    2    0    0  0.46514175523E+02  0.67025126810E+02  0.67579430046E+03  0.68504224153E+03  0.77000000000E+02 0.  0.
<mgrwt>
<rscale>  0 0.27282419E+03</rscale>
<asrwt>0</asrwt>
<pdfrwt beam="1">  1        2 0.45099153E+00 0.27282419E+03</pdfrwt>
<pdfrwt beam="2">  1       -2 0.84205658E-03 0.27282419E+03</pdfrwt>
<totfact> 0.62584886E+03</totfact>
</mgrwt>
</event>
<event>
 4    1  0.6782240E-004  0.2204174E+03  0.7818608E-02  0.1133572E+00
          2   -1    0    0  501    0  0.00000000000E+00  0.00000000000E+00  0.64513191498E+03  0.64513191499E+03  0.25500000000E-02 0.  1.
         -2   -1    0    0    0  501 -0.00000000000E+00 -0.00000000000E+00 -0.18827088171E+02  0.18827088344E+02  0.25500000000E-02 0. -1.
    5000001    1    1    2    0    0 -0.38521587042E+02  0.43892977693E+02  0.15357404156E+03  0.18145107439E+03  0.77000000000E+02 0.  0.
   -5000001    1    1    2    0    0  0.38521587042E+02 -0.43892977693E+02  0.47273078525E+03  0.48250792894E+03  0.77000000000E+02 0.  0.
<mgrwt>
<rscale>  0 0.22041738E+03</rscale>
<asrwt>0</asrwt>
<pdfrwt beam="1">  1        2 0.92161704E-01 0.22041738E+03</pdfrwt>
<pdfrwt beam="2">  1       -2 0.26895840E-02 0.22041738E+03</pdfrwt>
<totfact> 0.24666870E+04</totfact>
</mgrwt>
</event>
<event>
 4    1  0.6782240E-004  0.3383033E+03  0.7818608E-02  0.1067521E+00
         -2   -1    0    0    0  501 -0.00000000000E+00  0.00000000000E+00  0.45332996642E+02  0.45332996714E+02  0.25500000000E-02 0. -1.
          2   -1    0    0  501    0  0.00000000000E+00 -0.00000000000E+00 -0.63115805632E+03  0.63115805633E+03  0.25500000000E-02 0.  1.
    5000001    1    1    2    0    0 -0.14557458858E+03 -0.31110607921E+02 -0.33866300261E+03  0.37786434087E+03  0.77000000000E+02 0.  0.
   -5000001    1    1    2    0    0  0.14557458858E+03  0.31110607921E+02 -0.24716205707E+03  0.29862671217E+03  0.77000000000E+02 0.  0.
<mgrwt>
<rscale>  0 0.33830333E+03</rscale>
<asrwt>0</asrwt>
<pdfrwt beam="1">  1        2 0.90165431E-01 0.33830333E+03</pdfrwt>
<pdfrwt beam="2">  1       -2 0.64761428E-02 0.33830333E+03</pdfrwt>
<totfact> 0.68471131E+03</totfact>
</mgrwt>
</event>
<event>
 4    1  0.6782240E-004  0.1725202E+03  0.7818608E-02  0.1175245E+00
         -2   -1    0    0    0  501 -0.00000000000E+00  0.00000000000E+00  0.51820920084E+01  0.51820926358E+01  0.25500000000E-02 0. -1.
          2   -1    0    0  501    0  0.00000000000E+00 -0.00000000000E+00 -0.14358686596E+04  0.14358686596E+04  0.25500000000E-02 0.  1.
    5000001    1    1    2    0    0  0.25070466635E+02  0.28904979124E+02 -0.77308007256E+03  0.77784691598E+03  0.77000000000E+02 0.  0.
   -5000001    1    1    2    0    0 -0.25070466635E+02 -0.28904979124E+02 -0.65760649506E+03  0.66320383629E+03  0.77000000000E+02 0.  0.
<mgrwt>
<rscale>  0 0.17252019E+03</rscale>
<asrwt>0</asrwt>
<pdfrwt beam="1">  1        2 0.20512384E+00 0.17252019E+03</pdfrwt>
<pdfrwt beam="2">  1       -2 0.74029982E-03 0.17252019E+03</pdfrwt>
<totfact> 0.53549151E+04</totfact>
</mgrwt>
</event>
<event>
 4    1  0.6782240E-004  0.2189410E+03  0.7818608E-02  0.1134675E+00
         -2   -1    0    0    0  501 -0.00000000000E+00  0.00000000000E+00  0.70124584796E+01  0.70124589432E+01  0.25500000000E-02 0. -1.
          2   -1    0    0  501    0  0.00000000000E+00 -0.00000000000E+00 -0.17089276983E+04  0.17089276983E+04  0.25500000000E-02 0.  1.
    5000001    1    1    2    0    0 -0.26335818888E+02 -0.44212699963E+02 -0.13083889854E+04  0.13116627140E+04  0.77000000000E+02 0.  0.
   -5000001    1    1    2    0    0  0.26335818888E+02  0.44212699963E+02 -0.39352625441E+03  0.40427744323E+03  0.77000000000E+02 0.  0.
<mgrwt>
<rscale>  0 0.21894095E+03</rscale>
<asrwt>0</asrwt>
<pdfrwt beam="1">  1        2 0.24413226E+00 0.21894095E+03</pdfrwt>
<pdfrwt beam="2">  1       -2 0.10017809E-02 0.21894095E+03</pdfrwt>
<totfact> 0.25795768E+04</totfact>
</mgrwt>
</event>
<event>
 4    1  0.6782240E-004  0.2840840E+03  0.7818608E-02  0.1093479E+00
          2   -1    0    0  501    0  0.00000000000E+00  0.00000000000E+00  0.54912996453E+03  0.54912996454E+03  0.25500000000E-02 0.  1.
         -2   -1    0    0    0  501 -0.00000000000E+00 -0.00000000000E+00 -0.36741632832E+02  0.36741632920E+02  0.25500000000E-02 0. -1.
    5000001    1    1    2    0    0 -0.11925812960E+03 -0.37721366666E+00  0.26635781563E+03  0.30182466717E+03  0.77000000000E+02 0.  0.
   -5000001    1    1    2    0    0  0.11925812960E+03  0.37721366666E+00  0.24603051607E+03  0.28404693028E+03  0.77000000000E+02 0.  0.
<mgrwt>
<rscale>  0 0.28408401E+03</rscale>
<asrwt>0</asrwt>
<pdfrwt beam="1">  1        2 0.78447133E-01 0.28408401E+03</pdfrwt>
<pdfrwt beam="2">  1       -2 0.52488050E-02 0.28408401E+03</pdfrwt>
<totfact> 0.11023525E+04</totfact>
</mgrwt>
</event>
<event>
 4    1  0.6782240E-004  0.1731724E+03  0.7818608E-02  0.1174579E+00
          2   -1    0    0  501    0  0.00000000000E+00  0.00000000000E+00  0.56223457711E+02  0.56223457769E+02  0.25500000000E-02 0.  1.
         -2   -1    0    0    0  501 -0.00000000000E+00 -0.00000000000E+00 -0.13334598716E+03  0.13334598719E+03  0.25500000000E-02 0. -1.
    5000001    1    1    2    0    0 -0.36614569316E+02  0.13588369903E+02 -0.45731416288E+02  0.97701754941E+02  0.77000000000E+02 0.  0.
   -5000001    1    1    2    0    0  0.36614569316E+02 -0.13588369903E+02 -0.31391113163E+02  0.91867690013E+02  0.77000000000E+02 0.  0.
<mgrwt>
<rscale>  0 0.17317243E+03</rscale>
<asrwt>0</asrwt>
<pdfrwt beam="1">  1        2 0.80319226E-02 0.17317243E+03</pdfrwt>
<pdfrwt beam="2">  1       -2 0.19049427E-01 0.17317243E+03</pdfrwt>
<totfact> 0.18351122E+04</totfact>
</mgrwt>
</event>
<event>
 4    1  0.6782240E-004  0.3941493E+03  0.7818608E-02  0.1045825E+00
         -2   -1    0    0    0  501 -0.00000000000E+00  0.00000000000E+00  0.28997505997E+03  0.28997505998E+03  0.25500000000E-02 0. -1.
          2   -1    0    0  501    0  0.00000000000E+00 -0.00000000000E+00 -0.13393711380E+03  0.13393711383E+03  0.25500000000E-02 0.  1.
    5000001    1    1    2    0    0 -0.28521332479E+01  0.15531570057E+03  0.17878655405E+03  0.24904765290E+03  0.77000000000E+02 0.  0.
   -5000001    1    1    2    0    0  0.28521332479E+01 -0.15531570057E+03 -0.22748607886E+02  0.17486452090E+03  0.77000000000E+02 0.  0.
<mgrwt>
<rscale>  0 0.39414933E+03</rscale>
<asrwt>0</asrwt>
<pdfrwt beam="1">  1        2 0.19133874E-01 0.39414933E+03</pdfrwt>
<pdfrwt beam="2">  1       -2 0.41425008E-01 0.39414933E+03</pdfrwt>
<totfact> 0.16402693E+03</totfact>
</mgrwt>
</event>
<event>
 4    1  0.6782240E-004  0.2430522E+03  0.7818608E-02  0.1117776E+00
         -2   -1    0    0    0  501 -0.00000000000E+00  0.00000000000E+00  0.35295992130E+02  0.35295992222E+02  0.25500000000E-02 0. -1.
          2   -1    0    0  501    0  0.00000000000E+00 -0.00000000000E+00 -0.41842120616E+03  0.41842120617E+03  0.25500000000E-02 0.  1.
    5000001    1    1    2    0    0 -0.28237121260E+02 -0.89569283339E+02 -0.19982707133E+03  0.23383722965E+03  0.77000000000E+02 0.  0.
   -5000001    1    1    2    0    0  0.28237121260E+02  0.89569283339E+02 -0.18329814270E+03  0.21987996874E+03  0.77000000000E+02 0.  0.
<mgrwt>
<rscale>  0 0.24305219E+03</rscale>
<asrwt>0</asrwt>
<pdfrwt beam="1">  1        2 0.59774455E-01 0.24305219E+03</pdfrwt>
<pdfrwt beam="2">  1       -2 0.50422848E-02 0.24305219E+03</pdfrwt>
<totfact> 0.15683035E+04</totfact>
</mgrwt>
</event>
<event>
 4    1  0.6782240E-004  0.2121404E+03  0.7818608E-02  0.1139882E+00
          2   -1    0    0  501    0  0.00000000000E+00  0.00000000000E+00  0.25989527068E+04  0.25989527068E+04  0.25500000000E-02 0.  1.
         -2   -1    0    0    0  501 -0.00000000000E+00 -0.00000000000E+00 -0.43290076778E+01  0.43290084288E+01  0.25500000000E-02 0. -1.
    5000001    1    1    2    0    0 -0.62808838885E+02  0.26829476403E+02  0.98274072186E+03  0.98811593320E+03  0.77000000000E+02 0.  0.
   -5000001    1    1    2    0    0  0.62808838885E+02 -0.26829476403E+02  0.16118829773E+04  0.16151657820E+04  0.77000000000E+02 0.  0.
<mgrwt>
<rscale>  0 0.21214040E+03</rscale>
<asrwt>0</asrwt>
<pdfrwt beam="1">  1        2 0.37128056E+00 0.21214040E+03</pdfrwt>
<pdfrwt beam="2">  1       -2 0.61842706E-03 0.21214040E+03</pdfrwt>
<totfact> 0.18998821E+04</totfact>
</mgrwt>
</event>
<event>
 4    1  0.6782240E-004  0.1891679E+03  0.7818608E-02  0.1159214E+00
         -2   -1    0    0    0  501 -0.00000000000E+00  0.00000000000E+00  0.53180722414E+01  0.53180728527E+01  0.25500000000E-02 0. -1.
          2   -1    0    0  501    0  0.00000000000E+00 -0.00000000000E+00 -0.16822121963E+04  0.16822121963E+04  0.25500000000E-02 0.  1.
    5000001    1    1    2    0    0  0.35340951263E+02 -0.16392879786E+02 -0.49301289105E+03  0.50050816186E+03  0.77000000000E+02 0.  0.
   -5000001    1    1    2    0    0 -0.35340951263E+02  0.16392879786E+02 -0.11838812330E+04  0.11870221073E+04  0.77000000000E+02 0.  0.
<mgrwt>
<rscale>  0 0.18916793E+03</rscale>
<asrwt>0</asrwt>
<pdfrwt beam="1">  1        2 0.24031569E+00 0.18916793E+03</pdfrwt>
<pdfrwt beam="2">  1       -2 0.75972572E-03 0.18916793E+03</pdfrwt>
<totfact> 0.39259822E+04</totfact>
</mgrwt>
</event>
<event>
 4    1  0.6782240E-004  0.1866779E+03  0.7818608E-02  0.1161492E+00
          2   -1    0    0  501    0  0.00000000000E+00  0.00000000000E+00  0.24702450898E+03  0.24702450899E+03  0.25500000000E-02 0.  1.
         -2   -1    0    0    0  501 -0.00000000000E+00 -0.00000000000E+00 -0.35268403143E+02  0.35268403235E+02  0.25500000000E-02 0. -1.
    5000001    1    1    2    0    0  0.52211625214E+02 -0.53690373559E+01  0.97836428312E+02  0.13511420012E+03  0.77000000000E+02 0.  0.
   -5000001    1    1    2    0    0 -0.52211625214E+02  0.53690373559E+01  0.11391967752E+03  0.14717871210E+03  0.77000000000E+02 0.  0.
<mgrwt>
<rscale>  0 0.18667790E+03</rscale>
<asrwt>0</asrwt>
<pdfrwt beam="1">  1        2 0.35289218E-01 0.18667790E+03</pdfrwt>
<pdfrwt beam="2">  1       -2 0.50383430E-02 0.18667790E+03</pdfrwt>
<totfact> 0.27133156E+04</totfact>
</mgrwt>
</event>
<event>
 4    1  0.6782240E-004  0.6837602E+03  0.7818608E-02  0.9745415E-01
          2   -1    0    0  501    0  0.00000000000E+00  0.00000000000E+00  0.53603275213E+03  0.53603275214E+03  0.25500000000E-02 0.  1.
         -2   -1    0    0    0  501 -0.00000000000E+00 -0.00000000000E+00 -0.21805013246E+03  0.21805013247E+03  0.25500000000E-02 0. -1.
    5000001    1    1    2    0    0 -0.28228431599E+03  0.16846956053E+03  0.21824390856E+03  0.40202715270E+03  0.77000000000E+02 0.  0.
   -5000001    1    1    2    0    0  0.28228431599E+03 -0.16846956053E+03  0.99738711110E+02  0.35205573191E+03  0.77000000000E+02 0.  0.
<mgrwt>
<rscale>  0 0.68376023E+03</rscale>
<asrwt>0</asrwt>
<pdfrwt beam="1">  1        2 0.76576108E-01 0.68376023E+03</pdfrwt>
<pdfrwt beam="2">  1       -2 0.31150019E-01 0.68376023E+03</pdfrwt>
<totfact> 0.59469773E+02</totfact>
</mgrwt>
</event>
<event>
 4    1  0.6782240E-004  0.2189612E+03  0.7818608E-02  0.1134660E+00
          2   -1    0    0  501    0  0.00000000000E+00  0.00000000000E+00  0.11035042435E+04  0.11035042435E+04  0.25500000000E-02 0.  1.
         -2   -1    0    0    0  501 -0.00000000000E+00 -0.00000000000E+00 -0.10861758644E+02  0.10861758944E+02  0.25500000000E-02 0. -1.
    5000001    1    1    2    0    0 -0.60453535480E+02  0.47190703884E+02  0.61372452802E+03  0.62327232313E+03  0.77000000000E+02 0.  0.
   -5000001    1    1    2    0    0  0.60453535480E+02 -0.47190703884E+02  0.47891795680E+03  0.49109367928E+03  0.77000000000E+02 0.  0.
<mgrwt>
<rscale>  0 0.21896116E+03</rscale>
<asrwt>0</asrwt>
<pdfrwt beam="1">  1        2 0.15764340E+00 0.21896116E+03</pdfrwt>
<pdfrwt beam="2">  1       -2 0.15516804E-02 0.21896116E+03</pdfrwt>
<totfact> 0.28004584E+04</totfact>
</mgrwt>
</event>
<event>
 4    1  0.6782240E-004  0.2260788E+03  0.7818608E-02  0.1129431E+00
          2   -1    0    0  501    0  0.00000000000E+00  0.00000000000E+00  0.26274498459E+03  0.26274498460E+03  0.25500000000E-02 0.  1.
         -2   -1    0    0    0  501 -0.00000000000E+00 -0.00000000000E+00 -0.48632345026E+02  0.48632345093E+02  0.25500000000E-02 0. -1.
    5000001    1    1    2    0    0  0.68562411871E+01 -0.46564078340E+02  0.13302203248E+02  0.91220447522E+02  0.77000000000E+02 0.  0.
   -5000001    1    1    2    0    0 -0.68562411871E+01  0.46564078340E+02  0.20081043631E+03  0.22015688217E+03  0.77000000000E+02 0.  0.
<mgrwt>
<rscale>  0 0.22607879E+03</rscale>
<asrwt>0</asrwt>
<pdfrwt beam="1">  1        2 0.37535000E-01 0.22607879E+03</pdfrwt>
<pdfrwt beam="2">  1       -2 0.69474775E-02 0.22607879E+03</pdfrwt>
<totfact> 0.15770220E+04</totfact>
</mgrwt>
</event>
<event>
 4    1  0.6782240E-004  0.2618369E+03  0.7818608E-02  0.1106045E+00
         -2   -1    0    0    0  501 -0.00000000000E+00  0.00000000000E+00  0.26095697467E+03  0.26095697468E+03  0.25500000000E-02 0. -1.
          2   -1    0    0  501    0  0.00000000000E+00 -0.00000000000E+00 -0.65679925407E+02  0.65679925457E+02  0.25500000000E-02 0.  1.
    5000001    1    1    2    0    0 -0.73550166209E+02 -0.49339664156E+02  0.17002052259E+03  0.20659140231E+03  0.77000000000E+02 0.  0.
   -5000001    1    1    2    0    0  0.73550166209E+02  0.49339664156E+02  0.25256526673E+02  0.12004549782E+03  0.77000000000E+02 0.  0.
<mgrwt>
<rscale>  0 0.26183685E+03</rscale>
<asrwt>0</asrwt>
<pdfrwt beam="1">  1        2 0.93828464E-02 0.26183685E+03</pdfrwt>
<pdfrwt beam="2">  1       -2 0.37279568E-01 0.26183685E+03</pdfrwt>
<totfact> 0.46937217E+03</totfact>
</mgrwt>
</event>
<event>
 4    1  0.6782240E-004  0.2272477E+03  0.7818608E-02  0.1128592E+00
          2   -1    0    0  501    0  0.00000000000E+00  0.00000000000E+00  0.79140492987E+02  0.79140493028E+02  0.25500000000E-02 0.  1.
         -2   -1    0    0    0  501 -0.00000000000E+00 -0.00000000000E+00 -0.16313244858E+03  0.16313244860E+03  0.25500000000E-02 0. -1.
    5000001    1    1    2    0    0  0.80864369047E+02  0.24303928800E+00 -0.19575099569E+02  0.11336352929E+03  0.77000000000E+02 0.  0.
   -5000001    1    1    2    0    0 -0.80864369047E+02 -0.24303928800E+00 -0.64416856022E+02  0.12890941234E+03  0.77000000000E+02 0.  0.
<mgrwt>
<rscale>  0 0.22724773E+03</rscale>
<asrwt>0</asrwt>
<pdfrwt beam="1">  1        2 0.11305785E-01 0.22724773E+03</pdfrwt>
<pdfrwt beam="2">  1       -2 0.23304635E-01 0.22724773E+03</pdfrwt>
<totfact> 0.86633799E+03</totfact>
</mgrwt>
</event>
<event>
 4    1  0.6782240E-004  0.2135956E+03  0.7818608E-02  0.1138750E+00
         -2   -1    0    0    0  501 -0.00000000000E+00  0.00000000000E+00  0.11620534942E+02  0.11620535221E+02  0.25500000000E-02 0. -1.
          2   -1    0    0  501    0  0.00000000000E+00 -0.00000000000E+00 -0.98151848752E+03  0.98151848753E+03  0.25500000000E-02 0.  1.
    5000001    1    1    2    0    0 -0.54175358326E+02  0.26144185112E+02 -0.68538398259E+03  0.69231401218E+03  0.77000000000E+02 0.  0.
   -5000001    1    1    2    0    0  0.54175358326E+02 -0.26144185112E+02 -0.28451396999E+03  0.30082501057E+03  0.77000000000E+02 0.  0.
<mgrwt>
<rscale>  0 0.21359560E+03</rscale>
<asrwt>0</asrwt>
<pdfrwt beam="1">  1        2 0.14021687E+00 0.21359560E+03</pdfrwt>
<pdfrwt beam="2">  1       -2 0.16600771E-02 0.21359560E+03</pdfrwt>
<totfact> 0.29772764E+04</totfact>
</mgrwt>
</event>
<event>
 4    1  0.6782240E-004  0.3680612E+03  0.7818608E-02  0.1055437E+00
          2   -1    0    0  501    0  0.00000000000E+00  0.00000000000E+00  0.15967458848E+03  0.15967458850E+03  0.25500000000E-02 0.  1.
         -2   -1    0    0    0  501 -0.00000000000E+00 -0.00000000000E+00 -0.21210175818E+03  0.21210175820E+03  0.25500000000E-02 0. -1.
    5000001    1    1    2    0    0 -0.30172145484E+02  0.12523900269E+03 -0.13379258500E+03  0.20105875251E+03  0.77000000000E+02 0.  0.
   -5000001    1    1    2    0    0  0.30172145484E+02 -0.12523900269E+03  0.81365415298E+02  0.17071759419E+03  0.77000000000E+02 0.  0.
<mgrwt>
<rscale>  0 0.36806120E+03</rscale>
<asrwt>0</asrwt>
<pdfrwt beam="1">  1        2 0.22810656E-01 0.36806120E+03</pdfrwt>
<pdfrwt beam="2">  1       -2 0.30300251E-01 0.36806120E+03</pdfrwt>
<totfact> 0.24114680E+03</totfact>
</mgrwt>
</event>
<event>
 4    1  0.6782240E-004  0.1719766E+03  0.7818608E-02  0.1175802E+00
          2   -1    0    0  501    0  0.00000000000E+00  0.00000000000E+00  0.70785984000E+02  0.70785984046E+02  0.25500000000E-02 0.  1.
         -2   -1    0    0    0  501 -0.00000000000E+00 -0.00000000000E+00 -0.10445553049E+03  0.10445553052E+03  0.25500000000E-02 0. -1.
    5000001    1    1    2    0    0 -0.37029903448E+01  0.34485657925E+02 -0.34060051851E+00  0.84451694765E+02  0.77000000000E+02 0.  0.
   -5000001    1    1    2    0    0  0.37029903448E+01 -0.34485657925E+02 -0.33328945970E+02  0.90789819801E+02  0.77000000000E+02 0.  0.
<mgrwt>
<rscale>  0 0.17197660E+03</rscale>
<asrwt>0</asrwt>
<pdfrwt beam="1">  1        2 0.10112284E-01 0.17197660E+03</pdfrwt>
<pdfrwt beam="2">  1       -2 0.14922218E-01 0.17197660E+03</pdfrwt>
<totfact> 0.20657136E+04</totfact>
</mgrwt>
</event>
<event>
 4    1  0.6782240E-004  0.2402334E+03  0.7818608E-02  0.1119637E+00
          2   -1    0    0  501    0  0.00000000000E+00  0.00000000000E+00  0.82056158898E+03  0.82056158899E+03  0.25500000000E-02 0.  1.
         -2   -1    0    0    0  501 -0.00000000000E+00 -0.00000000000E+00 -0.17583100189E+02  0.17583100373E+02  0.25500000000E-02 0. -1.
    5000001    1    1    2    0    0 -0.89958668806E+02 -0.11747445976E+02  0.34432570519E+03  0.36430722726E+03  0.77000000000E+02 0.  0.
   -5000001    1    1    2    0    0  0.89958668806E+02  0.11747445976E+02  0.45865278361E+03  0.47383746210E+03  0.77000000000E+02 0.  0.
<mgrwt>
<rscale>  0 0.24023336E+03</rscale>
<asrwt>0</asrwt>
<pdfrwt beam="1">  1        2 0.11722310E+00 0.24023336E+03</pdfrwt>
<pdfrwt beam="2">  1       -2 0.25118710E-02 0.24023336E+03</pdfrwt>
<totfact> 0.20572931E+04</totfact>
</mgrwt>
</event>
<event>
 4    1  0.6782240E-004  0.2636306E+03  0.7818608E-02  0.1104981E+00
          2   -1    0    0  501    0  0.00000000000E+00  0.00000000000E+00  0.44997040149E+04  0.44997040149E+04  0.25500000000E-02 0.  1.
         -2   -1    0    0    0  501 -0.00000000000E+00 -0.00000000000E+00 -0.38614246648E+01  0.38614255068E+01  0.25500000000E-02 0. -1.
    5000001    1    1    2    0    0  0.89549492830E+02 -0.23582187199E+02  0.31632566309E+04  0.31655484113E+04  0.77000000000E+02 0.  0.
   -5000001    1    1    2    0    0 -0.89549492830E+02  0.23582187199E+02  0.13325859593E+04  0.13380170291E+04  0.77000000000E+02 0.  0.
<mgrwt>
<rscale>  0 0.26363057E+03</rscale>
<asrwt>0</asrwt>
<pdfrwt beam="1">  1        2 0.64281839E+00 0.26363057E+03</pdfrwt>
<pdfrwt beam="2">  1       -2 0.55162913E-03 0.26363057E+03</pdfrwt>
<totfact> 0.16341001E+03</totfact>
</mgrwt>
</event>
<event>
 4    1  0.6782240E-004  0.2834398E+03  0.7818608E-02  0.1093825E+00
          2   -1    0    0  501    0  0.00000000000E+00  0.00000000000E+00  0.12411414190E+04  0.12411414190E+04  0.25500000000E-02 0.  1.
         -2   -1    0    0    0  501 -0.00000000000E+00 -0.00000000000E+00 -0.16182304811E+02  0.16182305012E+02  0.25500000000E-02 0. -1.
    5000001    1    1    2    0    0  0.11218644163E+03 -0.28560027625E+02  0.73429100222E+03  0.74733777424E+03  0.77000000000E+02 0.  0.
   -5000001    1    1    2    0    0 -0.11218644163E+03  0.28560027625E+02  0.49066811195E+03  0.50998594976E+03  0.77000000000E+02 0.  0.
<mgrwt>
<rscale>  0 0.28343979E+03</rscale>
<asrwt>0</asrwt>
<pdfrwt beam="1">  1        2 0.17730584E+00 0.28343979E+03</pdfrwt>
<pdfrwt beam="2">  1       -2 0.23117589E-02 0.28343979E+03</pdfrwt>
<totfact> 0.13280266E+04</totfact>
</mgrwt>
</event>
<event>
 4    1  0.6782240E-004  0.2040079E+03  0.7818608E-02  0.1146401E+00
         -2   -1    0    0    0  501 -0.00000000000E+00  0.00000000000E+00  0.30108239518E+01  0.30108250317E+01  0.25500000000E-02 0. -1.
          2   -1    0    0  501    0  0.00000000000E+00 -0.00000000000E+00 -0.34557988363E+04  0.34557988363E+04  0.25500000000E-02 0.  1.
    5000001    1    1    2    0    0 -0.33369413420E+02  0.49743138360E+02 -0.22315939200E+04  0.22337252117E+04  0.77000000000E+02 0.  0.
   -5000001    1    1    2    0    0  0.33369413420E+02 -0.49743138360E+02 -0.12211940923E+04  0.12250844496E+04  0.77000000000E+02 0.  0.
<mgrwt>
<rscale>  0 0.20400788E+03</rscale>
<asrwt>0</asrwt>
<pdfrwt beam="1">  1        2 0.49368301E+00 0.20400788E+03</pdfrwt>
<pdfrwt beam="2">  1       -2 0.43012000E-03 0.20400788E+03</pdfrwt>
<totfact> 0.11227976E+04</totfact>
</mgrwt>
</event>
<event>
 4    1  0.6782240E-004  0.1730120E+03  0.7818608E-02  0.1174743E+00
         -2   -1    0    0    0  501 -0.00000000000E+00  0.00000000000E+00  0.28034804416E+01  0.28034816013E+01  0.25500000000E-02 0. -1.
          2   -1    0    0  501    0  0.00000000000E+00 -0.00000000000E+00 -0.26692850938E+04  0.26692850938E+04  0.25500000000E-02 0.  1.
    5000001    1    1    2    0    0  0.38518572533E+02 -0.82591027539E+01 -0.13571518858E+04  0.13599051931E+04  0.77000000000E+02 0.  0.
   -5000001    1    1    2    0    0 -0.38518572533E+02  0.82591027539E+01 -0.13093297276E+04  0.13121833823E+04  0.77000000000E+02 0.  0.
<mgrwt>
<rscale>  0 0.17301202E+03</rscale>
<asrwt>0</asrwt>
<pdfrwt beam="1">  1        2 0.38132481E+00 0.17301202E+03</pdfrwt>
<pdfrwt beam="2">  1       -2 0.40049900E-03 0.17301202E+03</pdfrwt>
<totfact> 0.32338137E+04</totfact>
</mgrwt>
</event>
<event>
 4    1  0.6782240E-004  0.2015466E+03  0.7818608E-02  0.1148441E+00
         -2   -1    0    0    0  501 -0.00000000000E+00  0.00000000000E+00  0.25870571837E+02  0.25870571963E+02  0.25500000000E-02 0. -1.
          2   -1    0    0  501    0  0.00000000000E+00 -0.00000000000E+00 -0.39254076309E+03  0.39254076310E+03  0.25500000000E-02 0.  1.
    5000001    1    1    2    0    0  0.64027125313E+02  0.80628311950E+01 -0.19965148035E+03  0.22350435259E+03  0.77000000000E+02 0.  0.
   -5000001    1    1    2    0    0 -0.64027125313E+02 -0.80628311950E+01 -0.16701871090E+03  0.19490698247E+03  0.77000000000E+02 0.  0.
<mgrwt>
<rscale>  0 0.20154656E+03</rscale>
<asrwt>0</asrwt>
<pdfrwt beam="1">  1        2 0.56077248E-01 0.20154656E+03</pdfrwt>
<pdfrwt beam="2">  1       -2 0.36957962E-02 0.20154656E+03</pdfrwt>
<totfact> 0.26470851E+04</totfact>
</mgrwt>
</event>
<event>
 4    1  0.6782240E-004  0.1806495E+03  0.7818608E-02  0.1167176E+00
          2   -1    0    0  501    0  0.00000000000E+00  0.00000000000E+00  0.42765990534E+03  0.42765990534E+03  0.25500000000E-02 0.  1.
         -2   -1    0    0    0  501 -0.00000000000E+00 -0.00000000000E+00 -0.19077222937E+02  0.19077223107E+02  0.25500000000E-02 0. -1.
    5000001    1    1    2    0    0 -0.46548685191E+02 -0.70673764203E+01  0.19543159101E+03  0.21526549809E+03  0.77000000000E+02 0.  0.
   -5000001    1    1    2    0    0  0.46548685191E+02  0.70673764203E+01  0.21315109139E+03  0.23147163037E+03  0.77000000000E+02 0.  0.
<mgrwt>
<rscale>  0 0.18064953E+03</rscale>
<asrwt>0</asrwt>
<pdfrwt beam="1">  1        2 0.61094275E-01 0.18064953E+03</pdfrwt>
<pdfrwt beam="2">  1       -2 0.27253174E-02 0.18064953E+03</pdfrwt>
<totfact> 0.37565823E+04</totfact>
</mgrwt>
</event>
<event>
 4    1  0.6782240E-004  0.2566579E+03  0.7818608E-02  0.1109168E+00
         -2   -1    0    0    0  501 -0.00000000000E+00  0.00000000000E+00  0.11886107696E+02  0.11886107969E+02  0.25500000000E-02 0. -1.
          2   -1    0    0  501    0  0.00000000000E+00 -0.00000000000E+00 -0.13855094971E+04  0.13855094971E+04  0.25500000000E-02 0.  1.
    5000001    1    1    2    0    0  0.67116930099E+02 -0.12952759273E+02 -0.11038420006E+04  0.11086336719E+04  0.77000000000E+02 0.  0.
   -5000001    1    1    2    0    0 -0.67116930099E+02  0.12952759273E+02 -0.26978138881E+03  0.28876193313E+03  0.77000000000E+02 0.  0.
<mgrwt>
<rscale>  0 0.25665787E+03</rscale>
<asrwt>0</asrwt>
<pdfrwt beam="1">  1        2 0.19792983E+00 0.25665787E+03</pdfrwt>
<pdfrwt beam="2">  1       -2 0.16980163E-02 0.25665787E+03</pdfrwt>
<totfact> 0.17497460E+04</totfact>
</mgrwt>
</event>
<event>
 4    1  0.6782240E-004  0.1692552E+03  0.7818608E-02  0.1178627E+00
         -2   -1    0    0    0  501 -0.00000000000E+00  0.00000000000E+00  0.10374453165E+02  0.10374453479E+02  0.25500000000E-02 0. -1.
          2   -1    0    0  501    0  0.00000000000E+00 -0.00000000000E+00 -0.69033365717E+03  0.69033365717E+03  0.25500000000E-02 0.  1.
    5000001    1    1    2    0    0 -0.51921134311E+01 -0.14814181174E+02 -0.47000408463E+03  0.47652833869E+03  0.77000000000E+02 0.  0.
   -5000001    1    1    2    0    0  0.51921134311E+01  0.14814181174E+02 -0.20995511937E+03  0.22417977196E+03  0.77000000000E+02 0.  0.
<mgrwt>
<rscale>  0 0.16925524E+03</rscale>
<asrwt>0</asrwt>
<pdfrwt beam="1">  1        2 0.98619065E-01 0.16925524E+03</pdfrwt>
<pdfrwt beam="2">  1       -2 0.14820652E-02 0.16925524E+03</pdfrwt>
<totfact> 0.53326782E+04</totfact>
</mgrwt>
</event>
<event>
 4    1  0.6782240E-004  0.2430049E+03  0.7818608E-02  0.1117807E+00
         -2   -1    0    0    0  501 -0.00000000000E+00  0.00000000000E+00  0.51867482533E+03  0.51867482533E+03  0.25500000000E-02 0. -1.
          2   -1    0    0  501    0  0.00000000000E+00 -0.00000000000E+00 -0.28462632833E+02  0.28462632948E+02  0.25500000000E-02 0.  1.
    5000001    1    1    2    0    0 -0.43745384304E+02 -0.51088883985E+02  0.97288568515E+02  0.14113043002E+03  0.77000000000E+02 0.  0.
   -5000001    1    1    2    0    0  0.43745384304E+02  0.51088883985E+02  0.39292362398E+03  0.40600702826E+03  0.77000000000E+02 0.  0.
<mgrwt>
<rscale>  0 0.24300495E+03</rscale>
<asrwt>0</asrwt>
<pdfrwt beam="1">  1        2 0.40660906E-02 0.24300495E+03</pdfrwt>
<pdfrwt beam="2">  1       -2 0.74096401E-01 0.24300495E+03</pdfrwt>
<totfact> 0.34639633E+03</totfact>
</mgrwt>
</event>
<event>
 4    1  0.6782240E-004  0.2328670E+03  0.7818608E-02  0.1124638E+00
          2   -1    0    0  501    0  0.00000000000E+00  0.00000000000E+00  0.29651096694E+03  0.29651096695E+03  0.25500000000E-02 0.  1.
         -2   -1    0    0    0  501 -0.00000000000E+00 -0.00000000000E+00 -0.45720925363E+02  0.45720925434E+02  0.25500000000E-02 0. -1.
    5000001    1    1    2    0    0 -0.80318885764E+02  0.31218542286E+02  0.10450562334E+03  0.15580804248E+03  0.77000000000E+02 0.  0.
   -5000001    1    1    2    0    0  0.80318885764E+02 -0.31218542286E+02  0.14628441823E+03  0.18642384990E+03  0.77000000000E+02 0.  0.
<mgrwt>
<rscale>  0 0.23286696E+03</rscale>
<asrwt>0</asrwt>
<pdfrwt beam="1">  1        2 0.42358709E-01 0.23286696E+03</pdfrwt>
<pdfrwt beam="2">  1       -2 0.65315608E-02 0.23286696E+03</pdfrwt>
<totfact> 0.15258456E+04</totfact>
</mgrwt>
</event>
<event>
 4    1  0.6782240E-004  0.1754301E+03  0.7818608E-02  0.1172301E+00
          2   -1    0    0  501    0  0.00000000000E+00  0.00000000000E+00  0.57019306265E+02  0.57019306322E+02  0.25500000000E-02 0.  1.
         -2   -1    0    0    0  501 -0.00000000000E+00 -0.00000000000E+00 -0.13493545009E+03  0.13493545012E+03  0.25500000000E-02 0. -1.
    5000001    1    1    2    0    0  0.19732438615E+02  0.31131671527E+02 -0.61015695882E+02  0.10493076408E+03  0.77000000000E+02 0.  0.
   -5000001    1    1    2    0    0 -0.19732438615E+02 -0.31131671527E+02 -0.16900447944E+02  0.87023992361E+02  0.77000000000E+02 0.  0.
<mgrwt>
<rscale>  0 0.17543005E+03</rscale>
<asrwt>0</asrwt>
<pdfrwt beam="1">  1        2 0.81456152E-02 0.17543005E+03</pdfrwt>
<pdfrwt beam="2">  1       -2 0.19276493E-01 0.17543005E+03</pdfrwt>
<totfact> 0.17691544E+04</totfact>
</mgrwt>
</event>
<event>
 4    1  0.6782240E-004  0.1973364E+03  0.7818608E-02  0.1152006E+00
          2   -1    0    0  501    0  0.00000000000E+00  0.00000000000E+00  0.32163055457E+03  0.32163055458E+03  0.25500000000E-02 0.  1.
         -2   -1    0    0    0  501 -0.00000000000E+00 -0.00000000000E+00 -0.30268931984E+02  0.30268932091E+02  0.25500000000E-02 0. -1.
    5000001    1    1    2    0    0  0.10938270990E+02 -0.60696174621E+02  0.14272792760E+03  0.17350484922E+03  0.77000000000E+02 0.  0.
   -5000001    1    1    2    0    0 -0.10938270990E+02  0.60696174621E+02  0.14863369499E+03  0.17839463745E+03  0.77000000000E+02 0.  0.
<mgrwt>
<rscale>  0 0.19733640E+03</rscale>
<asrwt>0</asrwt>
<pdfrwt beam="1">  1        2 0.45947219E-01 0.19733640E+03</pdfrwt>
<pdfrwt beam="2">  1       -2 0.43241334E-02 0.19733640E+03</pdfrwt>
<totfact> 0.25861691E+04</totfact>
</mgrwt>
</event>
<event>
 4    1  0.6782240E-004  0.4027212E+03  0.7818608E-02  0.1042841E+00
          2   -1    0    0  501    0  0.00000000000E+00  0.00000000000E+00  0.90155974055E+02  0.90155974091E+02  0.25500000000E-02 0.  1.
         -2   -1    0    0    0  501 -0.00000000000E+00 -0.00000000000E+00 -0.44973282657E+03  0.44973282658E+03  0.25500000000E-02 0. -1.
    5000001    1    1    2    0    0 -0.15683728972E+03 -0.92149256825E+02 -0.23218657951E+03  0.30484262938E+03  0.77000000000E+02 0.  0.
   -5000001    1    1    2    0    0  0.15683728972E+03  0.92149256825E+02 -0.12739027300E+03  0.23504617129E+03  0.77000000000E+02 0.  0.
<mgrwt>
<rscale>  0 0.40272125E+03</rscale>
<asrwt>0</asrwt>
<pdfrwt beam="1">  1        2 0.12879425E-01 0.40272125E+03</pdfrwt>
<pdfrwt beam="2">  1       -2 0.64247546E-01 0.40272125E+03</pdfrwt>
<totfact> 0.10817444E+03</totfact>
</mgrwt>
</event>
<event>
 4    1  0.6782240E-004  0.1026958E+04  0.7818608E-02  0.9279462E-01
         -2   -1    0    0    0  501 -0.00000000000E+00  0.00000000000E+00  0.19969742580E+03  0.19969742581E+03  0.25500000000E-02 0. -1.
          2   -1    0    0  501    0  0.00000000000E+00 -0.00000000000E+00 -0.13203002190E+04  0.13203002190E+04  0.25500000000E-02 0.  1.
    5000001    1    1    2    0    0 -0.38833561654E+03 -0.25181774270E+03 -0.25154996778E+03  0.53237497396E+03  0.77000000000E+02 0.  0.
   -5000001    1    1    2    0    0  0.38833561654E+03  0.25181774270E+03 -0.86905282547E+03  0.98762267090E+03  0.77000000000E+02 0.  0.
<mgrwt>
<rscale>  0 0.10269577E+04</rscale>
<asrwt>0</asrwt>
<pdfrwt beam="1">  1        2 0.18861431E+00 0.10269577E+04</pdfrwt>
<pdfrwt beam="2">  1       -2 0.28528204E-01 0.10269577E+04</pdfrwt>
<totfact> 0.20484243E+02</totfact>
</mgrwt>
</event>
<event>
 4    1  0.6782240E-004  0.2017794E+03  0.7818608E-02  0.1148246E+00
         -2   -1    0    0    0  501 -0.00000000000E+00  0.00000000000E+00  0.43296777921E+03  0.43296777921E+03  0.25500000000E-02 0. -1.
          2   -1    0    0  501    0  0.00000000000E+00 -0.00000000000E+00 -0.23509210352E+02  0.23509210490E+02  0.25500000000E-02 0.  1.
    5000001    1    1    2    0    0  0.38356515803E+02  0.42321933078E+02  0.13364389357E+03  0.16447510028E+03  0.77000000000E+02 0.  0.
   -5000001    1    1    2    0    0 -0.38356515803E+02 -0.42321933078E+02  0.27581467528E+03  0.29200188942E+03  0.77000000000E+02 0.  0.
<mgrwt>
<rscale>  0 0.20177939E+03</rscale>
<asrwt>0</asrwt>
<pdfrwt beam="1">  1        2 0.33584589E-02 0.20177939E+03</pdfrwt>
<pdfrwt beam="2">  1       -2 0.61852536E-01 0.20177939E+03</pdfrwt>
<totfact> 0.64983718E+03</totfact>
</mgrwt>
</event>
<event>
 4    1  0.6782240E-004  0.4584401E+03  0.7818608E-02  0.1025235E+00
         -2   -1    0    0    0  501 -0.00000000000E+00  0.00000000000E+00  0.25630266487E+02  0.25630266614E+02  0.25500000000E-02 0. -1.
          2   -1    0    0  501    0  0.00000000000E+00 -0.00000000000E+00 -0.20499918247E+04  0.20499918247E+04  0.25500000000E-02 0.  1.
    5000001    1    1    2    0    0  0.17153332686E+03 -0.10288785234E+03 -0.64426844098E+03  0.67898484256E+03  0.77000000000E+02 0.  0.
   -5000001    1    1    2    0    0 -0.17153332686E+03  0.10288785234E+03 -0.13800931172E+04  0.13966372487E+04  0.77000000000E+02 0.  0.
<mgrwt>
<rscale>  0 0.45844012E+03</rscale>
<asrwt>0</asrwt>
<pdfrwt beam="1">  1        2 0.29285587E+00 0.45844012E+03</pdfrwt>
<pdfrwt beam="2">  1       -2 0.36614679E-02 0.45844012E+03</pdfrwt>
<totfact> 0.26041534E+03</totfact>
</mgrwt>
</event>
<event>
 4    1  0.6782240E-004  0.2624916E+03  0.7818608E-02  0.1105655E+00
          2   -1    0    0  501    0  0.00000000000E+00  0.00000000000E+00  0.21203544614E+02  0.21203544767E+02  0.25500000000E-02 0.  1.
         -2   -1    0    0    0  501 -0.00000000000E+00 -0.00000000000E+00 -0.81238617090E+03  0.81238617091E+03  0.25500000000E-02 0. -1.
    5000001    1    1    2    0    0  0.65796535025E+01 -0.80765582977E+02 -0.17718167494E+03  0.20949634166E+03  0.77000000000E+02 0.  0.
   -5000001    1    1    2    0    0 -0.65796535025E+01  0.80765582977E+02 -0.61400095135E+03  0.62409337401E+03  0.77000000000E+02 0.  0.
<mgrwt>
<rscale>  0 0.26249165E+03</rscale>
<asrwt>0</asrwt>
<pdfrwt beam="1">  1        2 0.30290783E-02 0.26249165E+03</pdfrwt>
<pdfrwt beam="2">  1       -2 0.11605515E+00 0.26249165E+03</pdfrwt>
<totfact> 0.18578275E+03</totfact>
</mgrwt>
</event>
<event>
 4    1  0.6782240E-004  0.1867101E+03  0.7818608E-02  0.1161463E+00
          2   -1    0    0  501    0  0.00000000000E+00  0.00000000000E+00  0.30892946064E+04  0.30892946064E+04  0.25500000000E-02 0.  1.
         -2   -1    0    0    0  501 -0.00000000000E+00 -0.00000000000E+00 -0.28210854453E+01  0.28210865978E+01  0.25500000000E-02 0. -1.
    5000001    1    1    2    0    0 -0.50425414018E+02  0.11621661155E+02  0.17156471290E+04  0.17181536185E+04  0.77000000000E+02 0.  0.
   -5000001    1    1    2    0    0  0.50425414018E+02 -0.11621661155E+02  0.13708263919E+04  0.13739620745E+04  0.77000000000E+02 0.  0.
<mgrwt>
<rscale>  0 0.18671011E+03</rscale>
<asrwt>0</asrwt>
<pdfrwt beam="1">  1        2 0.44132870E+00 0.18671011E+03</pdfrwt>
<pdfrwt beam="2">  1       -2 0.40301147E-03 0.18671011E+03</pdfrwt>
<totfact> 0.19550116E+04</totfact>
</mgrwt>
</event>
<event>
 4    1  0.6782240E-004  0.2372151E+03  0.7818608E-02  0.1121662E+00
         -2   -1    0    0    0  501 -0.00000000000E+00  0.00000000000E+00  0.16503532123E+02  0.16503532320E+02  0.25500000000E-02 0. -1.
          2   -1    0    0  501    0  0.00000000000E+00 -0.00000000000E+00 -0.85240842462E+03  0.85240842463E+03  0.25500000000E-02 0.  1.
    5000001    1    1    2    0    0 -0.65128804443E+02 -0.95391780398E+00 -0.18931501971E+03  0.21450372448E+03  0.77000000000E+02 0.  0.
   -5000001    1    1    2    0    0  0.65128804443E+02  0.95391780398E+00 -0.64658987279E+03  0.65440823247E+03  0.77000000000E+02 0.  0.
<mgrwt>
<rscale>  0 0.23721509E+03</rscale>
<asrwt>0</asrwt>
<pdfrwt beam="1">  1        2 0.12177260E+00 0.23721509E+03</pdfrwt>
<pdfrwt beam="2">  1       -2 0.23576480E-02 0.23721509E+03</pdfrwt>
<totfact> 0.21520597E+04</totfact>
</mgrwt>
</event>
<event>
 4    1  0.6782240E-004  0.2334010E+03  0.7818608E-02  0.1124269E+00
         -2   -1    0    0    0  501 -0.00000000000E+00  0.00000000000E+00  0.32462647511E+03  0.32462647512E+03  0.25500000000E-02 0. -1.
          2   -1    0    0  501    0  0.00000000000E+00 -0.00000000000E+00 -0.41952860535E+02  0.41952860613E+02  0.25500000000E-02 0.  1.
    5000001    1    1    2    0    0 -0.71235503559E+02 -0.40908650969E+02  0.18954151173E+03  0.22046087944E+03  0.77000000000E+02 0.  0.
   -5000001    1    1    2    0    0  0.71235503559E+02  0.40908650969E+02  0.93132102845E+02  0.14611845630E+03  0.77000000000E+02 0.  0.
<mgrwt>
<rscale>  0 0.23340102E+03</rscale>
<asrwt>0</asrwt>
<pdfrwt beam="1">  1        2 0.59932660E-02 0.23340102E+03</pdfrwt>
<pdfrwt beam="2">  1       -2 0.46375209E-01 0.23340102E+03</pdfrwt>
<totfact> 0.54393080E+03</totfact>
</mgrwt>
</event>
<event>
 4    1  0.6782240E-004  0.2654416E+03  0.7818608E-02  0.1103917E+00
         -2   -1    0    0    0  501 -0.00000000000E+00  0.00000000000E+00  0.79141756209E+01  0.79141760317E+01  0.25500000000E-02 0. -1.
          2   -1    0    0  501    0  0.00000000000E+00 -0.00000000000E+00 -0.22257294340E+04  0.22257294340E+04  0.25500000000E-02 0.  1.
    5000001    1    1    2    0    0 -0.19192346946E+02 -0.90342820316E+02 -0.63620418549E+03  0.64746809728E+03  0.77000000000E+02 0.  0.
   -5000001    1    1    2    0    0  0.19192346946E+02  0.90342820316E+02 -0.15816110729E+04  0.15861755128E+04  0.77000000000E+02 0.  0.
<mgrwt>
<rscale>  0 0.26544163E+03</rscale>
<asrwt>0</asrwt>
<pdfrwt beam="1">  1        2 0.31796095E+00 0.26544163E+03</pdfrwt>
<pdfrwt beam="2">  1       -2 0.11305980E-02 0.26544163E+03</pdfrwt>
<totfact> 0.12209421E+04</totfact>
</mgrwt>
</event>
<event>
 4    1  0.6782240E-004  0.4151537E+03  0.7818608E-02  0.1038655E+00
          2   -1    0    0  501    0  0.00000000000E+00  0.00000000000E+00  0.14999805016E+04  0.14999805016E+04  0.25500000000E-02 0.  1.
         -2   -1    0    0    0  501 -0.00000000000E+00 -0.00000000000E+00 -0.28725804161E+02  0.28725804274E+02  0.25500000000E-02 0. -1.
    5000001    1    1    2    0    0 -0.79399586372E+02  0.13731093369E+03  0.11390087793E+04  0.11525747638E+04  0.77000000000E+02 0.  0.
   -5000001    1    1    2    0    0  0.79399586372E+02 -0.13731093369E+03  0.33224591819E+03  0.37613154212E+03  0.77000000000E+02 0.  0.
<mgrwt>
<rscale>  0 0.41515369E+03</rscale>
<asrwt>0</asrwt>
<pdfrwt beam="1">  1        2 0.21428291E+00 0.41515369E+03</pdfrwt>
<pdfrwt beam="2">  1       -2 0.41036866E-02 0.41515369E+03</pdfrwt>
<totfact> 0.41359997E+03</totfact>
</mgrwt>
</event>
<event>
 4    1  0.6782240E-004  0.6425590E+03  0.7818608E-02  0.9820843E-01
         -2   -1    0    0    0  501 -0.00000000000E+00  0.00000000000E+00  0.86349565068E+02  0.86349565105E+02  0.25500000000E-02 0. -1.
          2   -1    0    0  501    0  0.00000000000E+00 -0.00000000000E+00 -0.11953797749E+04  0.11953797749E+04  0.25500000000E-02 0.  1.
    5000001    1    1    2    0    0  0.22955838855E+03 -0.20989332653E+03 -0.50819356721E+03  0.60078445721E+03  0.77000000000E+02 0.  0.
   -5000001    1    1    2    0    0 -0.22955838855E+03  0.20989332653E+03 -0.60083664258E+03  0.68094488275E+03  0.77000000000E+02 0.  0.
<mgrwt>
<rscale>  0 0.64255902E+03</rscale>
<asrwt>0</asrwt>
<pdfrwt beam="1">  1        2 0.17076853E+00 0.64255902E+03</pdfrwt>
<pdfrwt beam="2">  1       -2 0.12335653E-01 0.64255902E+03</pdfrwt>
<totfact> 0.10533399E+03</totfact>
</mgrwt>
</event>
<event>
 4    1  0.6782240E-004  0.2693666E+03  0.7818608E-02  0.1101643E+00
         -2   -1    0    0    0  501 -0.00000000000E+00  0.00000000000E+00  0.33996194610E+03  0.33996194611E+03  0.25500000000E-02 0. -1.
          2   -1    0    0  501    0  0.00000000000E+00 -0.00000000000E+00 -0.53357712390E+02  0.53357712451E+02  0.25500000000E-02 0.  1.
    5000001    1    1    2    0    0  0.32687087888E+02  0.10093216624E+03  0.98182221527E+02  0.16378185651E+03  0.77000000000E+02 0.  0.
   -5000001    1    1    2    0    0 -0.32687087888E+02 -0.10093216624E+03  0.18842201218E+03  0.22953780205E+03  0.77000000000E+02 0.  0.
<mgrwt>
<rscale>  0 0.26936660E+03</rscale>
<asrwt>0</asrwt>
<pdfrwt beam="1">  1        2 0.76225301E-02 0.26936660E+03</pdfrwt>
<pdfrwt beam="2">  1       -2 0.48565994E-01 0.26936660E+03</pdfrwt>
<totfact> 0.36648919E+03</totfact>
</mgrwt>
</event>
<event>
 4    1  0.6782240E-004  0.4103214E+03  0.7818608E-02  0.1040263E+00
         -2   -1    0    0    0  501 -0.00000000000E+00  0.00000000000E+00  0.31012832164E+03  0.31012832166E+03  0.25500000000E-02 0. -1.
          2   -1    0    0  501    0  0.00000000000E+00 -0.00000000000E+00 -0.13572094151E+03  0.13572094154E+03  0.25500000000E-02 0.  1.
    5000001    1    1    2    0    0  0.63486908337E+02 -0.12518552665E+03 -0.52201057026E+02  0.16839226219E+03  0.77000000000E+02 0.  0.
   -5000001    1    1    2    0    0 -0.63486908337E+02  0.12518552665E+03  0.22660843716E+03  0.27745700100E+03  0.77000000000E+02 0.  0.
<mgrwt>
<rscale>  0 0.41032138E+03</rscale>
<asrwt>0</asrwt>
<pdfrwt beam="1">  1        2 0.19388706E-01 0.41032138E+03</pdfrwt>
<pdfrwt beam="2">  1       -2 0.44304046E-01 0.41032138E+03</pdfrwt>
<totfact> 0.14174915E+03</totfact>
</mgrwt>
</event>
