<event>
 4    1  0.4991066E-004  0.1639031E+03  0.7818608E-02  0.1184359E+00
         -2   -1    0    0    0  501 -0.00000000000E+00  0.00000000000E+00  0.42747054855E+01  0.42747062461E+01  0.25500000000E-02 0. -1.
          2   -1    0    0  501    0  0.00000000000E+00 -0.00000000000E+00 -0.15711157940E+04  0.15711157940E+04  0.25500000000E-02 0.  1.
    5000001    1    1    2    0    0 -0.17930899483E+01 -0.18124994811E+02 -0.57832186986E+03  0.58370961596E+03  0.77000000000E+02 0.  0.
   -5000001    1    1    2    0    0  0.17930899483E+01  0.18124994811E+02 -0.98851921864E+03  0.99168088427E+03  0.77000000000E+02 0.  0.
<mgrwt>
<rscale>  0 0.16390312E+03</rscale>
<asrwt>0</asrwt>
<pdfrwt beam="1">  1        2 0.24170966E+00 0.16390312E+03</pdfrwt>
<pdfrwt beam="2">  1       -2 0.65764831E-03 0.16390312E+03</pdfrwt>
<totfact> 0.47264883E+04</totfact>
</mgrwt>
</event>
<event>
 4    1  0.4991066E-004  0.2536714E+03  0.7818608E-02  0.1111006E+00
         -2   -1    0    0    0  501 -0.00000000000E+00  0.00000000000E+00  0.43291081598E+02  0.43291081673E+02  0.25500000000E-02 0. -1.
          2   -1    0    0  501    0  0.00000000000E+00 -0.00000000000E+00 -0.37160760930E+03  0.37160760931E+03  0.25500000000E-02 0.  1.
    5000001    1    1    2    0    0 -0.45331619806E+02  0.88741864488E+02 -0.13944964694E+03  0.18789698853E+03  0.77000000000E+02 0.  0.
   -5000001    1    1    2    0    0  0.45331619806E+02 -0.88741864488E+02 -0.18886688076E+03  0.22700170245E+03  0.77000000000E+02 0.  0.
<mgrwt>
<rscale>  0 0.25367140E+03</rscale>
<asrwt>0</asrwt>
<pdfrwt beam="1">  1        2 0.57170399E-01 0.25367140E+03</pdfrwt>
<pdfrwt beam="2">  1       -2 0.66601667E-02 0.25367140E+03</pdfrwt>
<totfact> 0.10766607E+04</totfact>
</mgrwt>
</event>
<event>
 4    1  0.4991066E-004  0.1869636E+03  0.7818608E-02  0.1161229E+00
         -2   -1    0    0    0  501 -0.00000000000E+00  0.00000000000E+00  0.27568648811E+01  0.27568660604E+01  0.25500000000E-02 0. -1.
          2   -1    0    0  501    0  0.00000000000E+00 -0.00000000000E+00 -0.31698505425E+04  0.31698505425E+04  0.25500000000E-02 0.  1.
    5000001    1    1    2    0    0 -0.25337685453E+02  0.42852664116E+02 -0.18925070030E+04  0.18947269211E+04  0.77000000000E+02 0.  0.
   -5000001    1    1    2    0    0  0.25337685453E+02 -0.42852664116E+02 -0.12745866746E+04  0.12778804875E+04  0.77000000000E+02 0.  0.
<mgrwt>
<rscale>  0 0.18696365E+03</rscale>
<asrwt>0</asrwt>
<pdfrwt beam="1">  1        2 0.48766640E+00 0.18696365E+03</pdfrwt>
<pdfrwt beam="2">  1       -2 0.42413569E-03 0.18696365E+03</pdfrwt>
<totfact> 0.12093381E+04</totfact>
</mgrwt>
</event>
<event>
 4    1  0.4991066E-004  0.2319787E+03  0.7818608E-02  0.1125255E+00
          2   -1    0    0  501    0  0.00000000000E+00  0.00000000000E+00  0.84236976301E+02  0.84236976339E+02  0.25500000000E-02 0.  1.
         -2   -1    0    0    0  501 -0.00000000000E+00 -0.00000000000E+00 -0.15971045172E+03  0.15971045174E+03  0.25500000000E-02 0. -1.
    5000001    1    1    2    0    0 -0.19146334918E+02  0.83262574872E+02 -0.53520709188E+02  0.12685702514E+03  0.77000000000E+02 0.  0.
   -5000001    1    1    2    0    0  0.19146334918E+02 -0.83262574872E+02 -0.21952766229E+02  0.11709040294E+03  0.77000000000E+02 0.  0.
<mgrwt>
<rscale>  0 0.23197867E+03</rscale>
<asrwt>0</asrwt>
<pdfrwt beam="1">  1        2 0.12959535E-01 0.23197867E+03</pdfrwt>
<pdfrwt beam="2">  1       -2 0.24570839E-01 0.23197867E+03</pdfrwt>
<totfact> 0.66946894E+03</totfact>
</mgrwt>
</event>
<event>
 4    1  0.4991066E-004  0.2667715E+03  0.7818608E-02  0.1103142E+00
          2   -1    0    0  501    0  0.00000000000E+00  0.00000000000E+00  0.28654291844E+04  0.28654291844E+04  0.25500000000E-02 0.  1.
         -2   -1    0    0    0  501 -0.00000000000E+00 -0.00000000000E+00 -0.62091054520E+01  0.62091059757E+01  0.25500000000E-02 0. -1.
    5000001    1    1    2    0    0  0.51246469809E+02 -0.47256477645E+00  0.24641328331E+04  0.24658682128E+04  0.77000000000E+02 0.  0.
   -5000001    1    1    2    0    0 -0.51246469809E+02  0.47256477645E+00  0.39508724591E+03  0.40577007759E+03  0.77000000000E+02 0.  0.
<mgrwt>
<rscale>  0 0.26677146E+03</rscale>
<asrwt>0</asrwt>
<pdfrwt beam="1">  1        2 0.44083522E+00 0.26677146E+03</pdfrwt>
<pdfrwt beam="2">  1       -2 0.95524711E-03 0.26677146E+03</pdfrwt>
<totfact> 0.56950605E+03</totfact>
</mgrwt>
</event>
<event>
 4    1  0.4991066E-004  0.2586176E+03  0.7818608E-02  0.1107977E+00
         -2   -1    0    0    0  501 -0.00000000000E+00  0.00000000000E+00  0.95945139834E+02  0.95945139868E+02  0.25500000000E-02 0. -1.
          2   -1    0    0  501    0  0.00000000000E+00 -0.00000000000E+00 -0.17427428154E+03  0.17427428156E+03  0.25500000000E-02 0.  1.
    5000001    1    1    2    0    0 -0.33741186361E+02  0.97874973557E+02 -0.30188966669E+02  0.13250793114E+03  0.77000000000E+02 0.  0.
   -5000001    1    1    2    0    0  0.33741186361E+02 -0.97874973557E+02 -0.48140175041E+02  0.13771149029E+03  0.77000000000E+02 0.  0.
<mgrwt>
<rscale>  0 0.25861764E+03</rscale>
<asrwt>0</asrwt>
<pdfrwt beam="1">  1        2 0.26811428E-01 0.25861764E+03</pdfrwt>
<pdfrwt beam="2">  1       -2 0.14760791E-01 0.25861764E+03</pdfrwt>
<totfact> 0.69094811E+03</totfact>
</mgrwt>
</event>
<event>
 4    1  0.4991066E-004  0.2083900E+03  0.7818608E-02  0.1142847E+00
         -2   -1    0    0    0  501 -0.00000000000E+00  0.00000000000E+00  0.12331041532E+02  0.12331041796E+02  0.25500000000E-02 0. -1.
          2   -1    0    0  501    0  0.00000000000E+00 -0.00000000000E+00 -0.88042790128E+03  0.88042790129E+03  0.25500000000E-02 0.  1.
    5000001    1    1    2    0    0  0.69693358939E+02  0.83781082575E+01 -0.43613032314E+03  0.44840385340E+03  0.77000000000E+02 0.  0.
   -5000001    1    1    2    0    0 -0.69693358939E+02 -0.83781082575E+01 -0.43196653661E+03  0.44435508969E+03  0.77000000000E+02 0.  0.
<mgrwt>
<rscale>  0 0.20838995E+03</rscale>
<asrwt>0</asrwt>
<pdfrwt beam="1">  1        2 0.13545040E+00 0.20838995E+03</pdfrwt>
<pdfrwt beam="2">  1       -2 0.18970840E-02 0.20838995E+03</pdfrwt>
<totfact> 0.25598055E+04</totfact>
</mgrwt>
</event>
<event>
 4    1  0.4991066E-004  0.1723717E+03  0.7818608E-02  0.1175397E+00
          2   -1    0    0  501    0  0.00000000000E+00  0.00000000000E+00  0.32669359300E+02  0.32669359399E+02  0.25500000000E-02 0.  1.
         -2   -1    0    0    0  501 -0.00000000000E+00 -0.00000000000E+00 -0.22736907455E+03  0.22736907456E+03  0.25500000000E-02 0. -1.
    5000001    1    1    2    0    0 -0.15556348779E+01 -0.28951429317E+02 -0.58640552277E+02  0.10103622930E+03  0.77000000000E+02 0.  0.
   -5000001    1    1    2    0    0  0.15556348779E+01  0.28951429317E+02 -0.13605916297E+03  0.15900220466E+03  0.77000000000E+02 0.  0.
<mgrwt>
<rscale>  0 0.17237171E+03</rscale>
<asrwt>0</asrwt>
<pdfrwt beam="1">  1        2 0.50260554E-02 0.17237171E+03</pdfrwt>
<pdfrwt beam="2">  1       -2 0.34979857E-01 0.17237171E+03</pdfrwt>
<totfact> 0.11472424E+04</totfact>
</mgrwt>
</event>
<event>
 4    1  0.4991066E-004  0.2298550E+03  0.7818608E-02  0.1126742E+00
         -2   -1    0    0    0  501 -0.00000000000E+00  0.00000000000E+00  0.14724383662E+02  0.14724383883E+02  0.25500000000E-02 0. -1.
          2   -1    0    0  501    0  0.00000000000E+00 -0.00000000000E+00 -0.89703813681E+03  0.89703813681E+03  0.25500000000E-02 0.  1.
    5000001    1    1    2    0    0 -0.30016266335E+01 -0.85029219846E+02 -0.46635572499E+03  0.48026621807E+03  0.77000000000E+02 0.  0.
   -5000001    1    1    2    0    0  0.30016266335E+01  0.85029219846E+02 -0.41595802816E+03  0.43149630263E+03  0.77000000000E+02 0.  0.
<mgrwt>
<rscale>  0 0.22985503E+03</rscale>
<asrwt>0</asrwt>
<pdfrwt beam="1">  1        2 0.13800583E+00 0.22985503E+03</pdfrwt>
<pdfrwt beam="2">  1       -2 0.22652905E-02 0.22985503E+03</pdfrwt>
<totfact> 0.19364564E+04</totfact>
</mgrwt>
</event>
<event>
 4    1  0.4991066E-004  0.2715975E+03  0.7818608E-02  0.1100369E+00
         -2   -1    0    0    0  501 -0.00000000000E+00  0.00000000000E+00  0.47036712010E+03  0.47036712011E+03  0.25500000000E-02 0. -1.
          2   -1    0    0  501    0  0.00000000000E+00 -0.00000000000E+00 -0.39206171337E+02  0.39206171420E+02  0.25500000000E-02 0.  1.
    5000001    1    1    2    0    0 -0.19163168540E+02 -0.93559977991E+02  0.10631496008E+03  0.16233473827E+03  0.77000000000E+02 0.  0.
   -5000001    1    1    2    0    0  0.19163168540E+02  0.93559977991E+02  0.32484598868E+03  0.34723855326E+03  0.77000000000E+02 0.  0.
<mgrwt>
<rscale>  0 0.27159745E+03</rscale>
<asrwt>0</asrwt>
<pdfrwt beam="1">  1        2 0.60317188E-02 0.27159745E+03</pdfrwt>
<pdfrwt beam="2">  1       -2 0.72364170E-01 0.27159745E+03</pdfrwt>
<totfact> 0.21718256E+03</totfact>
</mgrwt>
</event>
<event>
 4    1  0.4991066E-004  0.1763305E+03  0.7818608E-02  0.1171402E+00
         -2   -1    0    0    0  501 -0.00000000000E+00  0.00000000000E+00  0.16638156837E+02  0.16638157033E+02  0.25500000000E-02 0. -1.
          2   -1    0    0  501    0  0.00000000000E+00 -0.00000000000E+00 -0.46718579526E+03  0.46718579527E+03  0.25500000000E-02 0.  1.
    5000001    1    1    2    0    0  0.41465913125E+02 -0.40026997056E+01 -0.25387663821E+03  0.26854755814E+03  0.77000000000E+02 0.  0.
   -5000001    1    1    2    0    0 -0.41465913125E+02  0.40026997056E+01 -0.19667100022E+03  0.21527639416E+03  0.77000000000E+02 0.  0.
<mgrwt>
<rscale>  0 0.17633049E+03</rscale>
<asrwt>0</asrwt>
<pdfrwt beam="1">  1        2 0.71874728E-01 0.17633049E+03</pdfrwt>
<pdfrwt beam="2">  1       -2 0.25597168E-02 0.17633049E+03</pdfrwt>
<totfact> 0.34448912E+04</totfact>
</mgrwt>
</event>
<event>
 4    1  0.4991066E-004  0.2418186E+03  0.7818608E-02  0.1118587E+00
         -2   -1    0    0    0  501 -0.00000000000E+00  0.00000000000E+00  0.18473553661E+03  0.18473553663E+03  0.25500000000E-02 0. -1.
          2   -1    0    0  501    0  0.00000000000E+00 -0.00000000000E+00 -0.79135044333E+02  0.79135044374E+02  0.25500000000E-02 0.  1.
    5000001    1    1    2    0    0  0.80905034383E+02  0.22896868041E+02  0.88783801581E+01  0.11435784533E+03  0.77000000000E+02 0.  0.
   -5000001    1    1    2    0    0 -0.80905034383E+02 -0.22896868041E+02  0.96722112117E+02  0.14951273567E+03  0.77000000000E+02 0.  0.
<mgrwt>
<rscale>  0 0.24181857E+03</rscale>
<asrwt>0</asrwt>
<pdfrwt beam="1">  1        2 0.12174622E-01 0.24181857E+03</pdfrwt>
<pdfrwt beam="2">  1       -2 0.28420852E-01 0.24181857E+03</pdfrwt>
<totfact> 0.55855969E+03</totfact>
</mgrwt>
</event>
<event>
 4    1  0.4991066E-004  0.2066936E+03  0.7818608E-02  0.1144211E+00
          2   -1    0    0  501    0  0.00000000000E+00  0.00000000000E+00  0.18852084000E+03  0.18852084002E+03  0.25500000000E-02 0.  1.
         -2   -1    0    0    0  501 -0.00000000000E+00 -0.00000000000E+00 -0.56654527228E+02  0.56654527285E+02  0.25500000000E-02 0. -1.
    5000001    1    1    2    0    0 -0.62150805348E+02 -0.21706357184E+02  0.41691250572E+02  0.10954929905E+03  0.77000000000E+02 0.  0.
   -5000001    1    1    2    0    0  0.62150805348E+02  0.21706357184E+02  0.90175062202E+02  0.13562606826E+03  0.77000000000E+02 0.  0.
<mgrwt>
<rscale>  0 0.20669358E+03</rscale>
<asrwt>0</asrwt>
<pdfrwt beam="1">  1        2 0.29003206E-01 0.20669358E+03</pdfrwt>
<pdfrwt beam="2">  1       -2 0.87160811E-02 0.20669358E+03</pdfrwt>
<totfact> 0.14572170E+04</totfact>
</mgrwt>
</event>
<event>
 4    1  0.4991066E-004  0.2563471E+03  0.7818608E-02  0.1109358E+00
          2   -1    0    0  501    0  0.00000000000E+00  0.00000000000E+00  0.29870583717E+03  0.29870583718E+03  0.25500000000E-02 0.  1.
         -2   -1    0    0    0  501 -0.00000000000E+00 -0.00000000000E+00 -0.54998804635E+02  0.54998804694E+02  0.25500000000E-02 0. -1.
    5000001    1    1    2    0    0  0.89819307683E+02  0.10354459370E+02  0.55326264450E+02  0.13101419160E+03  0.77000000000E+02 0.  0.
   -5000001    1    1    2    0    0 -0.89819307683E+02 -0.10354459370E+02  0.18838076808E+03  0.22269045028E+03  0.77000000000E+02 0.  0.
<mgrwt>
<rscale>  0 0.25634714E+03</rscale>
<asrwt>0</asrwt>
<pdfrwt beam="1">  1        2 0.45954745E-01 0.25634714E+03</pdfrwt>
<pdfrwt beam="2">  1       -2 0.84613544E-02 0.25634714E+03</pdfrwt>
<totfact> 0.93933458E+03</totfact>
</mgrwt>
</event>
<event>
 4    1  0.4991066E-004  0.9075711E+03  0.7818608E-02  0.9416166E-01
          2   -1    0    0  501    0  0.00000000000E+00  0.00000000000E+00  0.74707834666E+03  0.74707834667E+03  0.25500000000E-02 0.  1.
         -2   -1    0    0    0  501 -0.00000000000E+00 -0.00000000000E+00 -0.27563553074E+03  0.27563553075E+03  0.25500000000E-02 0. -1.
    5000001    1    1    2    0    0  0.22810560388E+03  0.30066594865E+03  0.50607644506E+03  0.63598313456E+03  0.77000000000E+02 0.  0.
   -5000001    1    1    2    0    0 -0.22810560388E+03 -0.30066594865E+03 -0.34633629138E+02  0.38673074286E+03  0.77000000000E+02 0.  0.
<mgrwt>
<rscale>  0 0.90757112E+03</rscale>
<asrwt>0</asrwt>
<pdfrwt beam="1">  1        2 0.11493513E+00 0.90757112E+03</pdfrwt>
<pdfrwt beam="2">  1       -2 0.42405467E-01 0.90757112E+03</pdfrwt>
<totfact> 0.19912086E+02</totfact>
</mgrwt>
</event>
<event>
 4    1  0.4991066E-004  0.1924238E+03  0.7818608E-02  0.1156293E+00
          2   -1    0    0  501    0  0.00000000000E+00  0.00000000000E+00  0.15307219146E+04  0.15307219146E+04  0.25500000000E-02 0.  1.
         -2   -1    0    0    0  501 -0.00000000000E+00 -0.00000000000E+00 -0.60472944330E+01  0.60472949707E+01  0.25500000000E-02 0. -1.
    5000001    1    1    2    0    0 -0.24328328315E+02  0.46444581145E+02  0.57020556108E+03  0.57776495962E+03  0.77000000000E+02 0.  0.
   -5000001    1    1    2    0    0  0.24328328315E+02 -0.46444581145E+02  0.95446905910E+03  0.95900424997E+03  0.77000000000E+02 0.  0.
<mgrwt>
<rscale>  0 0.19242377E+03</rscale>
<asrwt>0</asrwt>
<pdfrwt beam="1">  1        2 0.23549575E+00 0.19242377E+03</pdfrwt>
<pdfrwt beam="2">  1       -2 0.93035277E-03 0.19242377E+03</pdfrwt>
<totfact> 0.30502774E+04</totfact>
</mgrwt>
</event>
<event>
 4    1  0.4991066E-004  0.2411758E+03  0.7818608E-02  0.1119012E+00
          2   -1    0    0  501    0  0.00000000000E+00  0.00000000000E+00  0.21294410724E+02  0.21294410876E+02  0.25500000000E-02 0. -1.
         -2   -1    0    0    0  501 -0.00000000000E+00 -0.00000000000E+00 -0.68287595807E+03  0.68287595808E+03  0.25500000000E-02 0.  1.
    5000001    1    1    2    0    0 -0.29622483169E+02 -0.87743127410E+02 -0.34833188477E+03  0.36856539429E+03  0.77000000000E+02 0.  0.
   -5000001    1    1    2    0    0  0.29622483169E+02  0.87743127410E+02 -0.31324966258E+03  0.33560497467E+03  0.77000000000E+02 0.  0.
<mgrwt>
<rscale>  0 0.24117580E+03</rscale>
<asrwt>0</asrwt>
<pdfrwt beam="1">  1        2 0.32760637E-02 0.24117580E+03</pdfrwt>
<pdfrwt beam="2">  1       -2 0.10505782E+00 0.24117580E+03</pdfrwt>
<totfact> 0.21065653E+03</totfact>
</mgrwt>
</event>
<event>
 4    1  0.4991066E-004  0.2128880E+03  0.7818608E-02  0.1139299E+00
         -2   -1    0    0    0  501 -0.00000000000E+00  0.00000000000E+00  0.11047201260E+02  0.11047201555E+02  0.25500000000E-02 0. -1.
          2   -1    0    0  501    0  0.00000000000E+00 -0.00000000000E+00 -0.10256281932E+04  0.10256281932E+04  0.25500000000E-02 0.  1.
    5000001    1    1    2    0    0 -0.42344584794E+02 -0.50099401117E+02 -0.66867195311E+03  0.67627967198E+03  0.77000000000E+02 0.  0.
   -5000001    1    1    2    0    0  0.42344584794E+02  0.50099401117E+02 -0.34590903880E+03  0.36039572275E+03  0.77000000000E+02 0.  0.
<mgrwt>
<rscale>  0 0.21288796E+03</rscale>
<asrwt>0</asrwt>
<pdfrwt beam="1">  1        2 0.15778888E+00 0.21288796E+03</pdfrwt>
<pdfrwt beam="2">  1       -2 0.16995703E-02 0.21288796E+03</pdfrwt>
<totfact> 0.24439288E+04</totfact>
</mgrwt>
</event>
<event>
 4    1  0.4991066E-004  0.3769033E+03  0.7818608E-02  0.1052084E+00
         -2   -1    0    0    0  501 -0.00000000000E+00  0.00000000000E+00  0.99112100807E+03  0.99112100807E+03  0.25500000000E-02 0. -1.
          2   -1    0    0  501    0  0.00000000000E+00 -0.00000000000E+00 -0.35832173383E+02  0.35832173474E+02  0.25500000000E-02 0.  1.
    5000001    1    1    2    0    0 -0.28227513881E+02  0.12575909229E+03  0.78798523480E+03  0.80216075203E+03  0.77000000000E+02 0.  0.
   -5000001    1    1    2    0    0  0.28227513881E+02 -0.12575909229E+03  0.16730359988E+03  0.22479242951E+03  0.77000000000E+02 0.  0.
<mgrwt>
<rscale>  0 0.37690328E+03</rscale>
<asrwt>0</asrwt>
<pdfrwt beam="1">  1        2 0.55126425E-02 0.37690328E+03</pdfrwt>
<pdfrwt beam="2">  1       -2 0.15248014E+00 0.37690328E+03</pdfrwt>
<totfact> 0.42132370E+02</totfact>
</mgrwt>
</event>
<event>
 4    1  0.4991066E-004  0.1955663E+03  0.7818608E-02  0.1153535E+00
          2   -1    0    0  501    0  0.00000000000E+00  0.00000000000E+00  0.10248168690E+03  0.10248168694E+03  0.25500000000E-02 0.  1.
         -2   -1    0    0    0  501 -0.00000000000E+00 -0.00000000000E+00 -0.93300073182E+02  0.93300073217E+02  0.25500000000E-02 0. -1.
    5000001    1    1    2    0    0  0.32471941717E+02  0.50766118291E+02  0.36289523240E+01  0.97845771805E+02  0.77000000000E+02 0.  0.
   -5000001    1    1    2    0    0 -0.32471941717E+02 -0.50766118291E+02  0.55526613983E+01  0.97935988348E+02  0.77000000000E+02 0.  0.
<mgrwt>
<rscale>  0 0.19556635E+03</rscale>
<asrwt>0</asrwt>
<pdfrwt beam="1">  1        2 0.15766413E-01 0.19556635E+03</pdfrwt>
<pdfrwt beam="2">  1       -2 0.14353858E-01 0.19556635E+03</pdfrwt>
<totfact> 0.13037289E+04</totfact>
</mgrwt>
</event>
<event>
 4    1  0.4991066E-004  0.2115571E+03  0.7818608E-02  0.1140339E+00
          2   -1    0    0  501    0  0.00000000000E+00  0.00000000000E+00  0.11045138523E+02  0.11045138817E+02  0.25500000000E-02 0.  1.
         -2   -1    0    0    0  501 -0.00000000000E+00 -0.00000000000E+00 -0.10130341103E+04  0.10130341103E+04  0.25500000000E-02 0. -1.
    5000001    1    1    2    0    0 -0.69118985392E+02 -0.60123622671E+01 -0.39870612789E+03  0.41195771514E+03  0.77000000000E+02 0.  0.
   -5000001    1    1    2    0    0  0.69118985392E+02  0.60123622671E+01 -0.60328284391E+03  0.61212153401E+03  0.77000000000E+02 0.  0.
<mgrwt>
<rscale>  0 0.21155711E+03</rscale>
<asrwt>0</asrwt>
<pdfrwt beam="1">  1        2 0.16992529E-02 0.21155711E+03</pdfrwt>
<pdfrwt beam="2">  1       -2 0.15585133E+00 0.21155711E+03</pdfrwt>
<totfact> 0.19453093E+03</totfact>
</mgrwt>
</event>
<event>
 4    1  0.4991066E-004  0.2626299E+03  0.7818608E-02  0.1105573E+00
         -2   -1    0    0    0  501 -0.00000000000E+00  0.00000000000E+00  0.89210540148E+01  0.89210543792E+01  0.25500000000E-02 0. -1.
          2   -1    0    0  501    0  0.00000000000E+00 -0.00000000000E+00 -0.19329118642E+04  0.19329118642E+04  0.25500000000E-02 0.  1.
    5000001    1    1    2    0    0 -0.61514379782E+02 -0.86611768205E+02 -0.92218255724E+03  0.93146942311E+03  0.77000000000E+02 0.  0.
   -5000001    1    1    2    0    0  0.61514379782E+02  0.86611768205E+02 -0.10018082530E+04  0.10103634955E+04  0.77000000000E+02 0.  0.
<mgrwt>
<rscale>  0 0.26262987E+03</rscale>
<asrwt>0</asrwt>
<pdfrwt beam="1">  1        2 0.29737072E+00 0.26262987E+03</pdfrwt>
<pdfrwt beam="2">  1       -2 0.13724714E-02 0.26262987E+03</pdfrwt>
<totfact> 0.10818174E+04</totfact>
</mgrwt>
</event>
<event>
 4    1  0.4991066E-004  0.2157900E+03  0.7818608E-02  0.1137061E+00
         -2   -1    0    0    0  501 -0.00000000000E+00  0.00000000000E+00  0.40478842898E+02  0.40478842979E+02  0.25500000000E-02 0. -1.
          2   -1    0    0  501    0  0.00000000000E+00 -0.00000000000E+00 -0.28759047711E+03  0.28759047712E+03  0.25500000000E-02 0.  1.
    5000001    1    1    2    0    0  0.32573032515E+02 -0.52633169661E+02 -0.18949409284E+03  0.21370134351E+03  0.77000000000E+02 0.  0.
   -5000001    1    1    2    0    0 -0.32573032515E+02  0.52633169661E+02 -0.57617541369E+02  0.11436797659E+03  0.77000000000E+02 0.  0.
<mgrwt>
<rscale>  0 0.21578999E+03</rscale>
<asrwt>0</asrwt>
<pdfrwt beam="1">  1        2 0.44244687E-01 0.21578999E+03</pdfrwt>
<pdfrwt beam="2">  1       -2 0.62275145E-02 0.21578999E+03</pdfrwt>
<totfact> 0.15580643E+04</totfact>
</mgrwt>
</event>
<event>
 4    1  0.4991066E-004  0.2513960E+03  0.7818608E-02  0.1112426E+00
         -2   -1    0    0    0  501 -0.00000000000E+00  0.00000000000E+00  0.16172185884E+03  0.16172185886E+03  0.25500000000E-02 0. -1.
          2   -1    0    0  501    0  0.00000000000E+00 -0.00000000000E+00 -0.97698500425E+02  0.97698500459E+02  0.25500000000E-02 0.  1.
    5000001    1    1    2    0    0 -0.89855857820E+02 -0.21524046138E+02 -0.56727850800E+01  0.12040988430E+03  0.77000000000E+02 0.  0.
   -5000001    1    1    2    0    0  0.89855857820E+02  0.21524046138E+02  0.69696143495E+02  0.13901047502E+03  0.77000000000E+02 0.  0.
<mgrwt>
<rscale>  0 0.25139597E+03</rscale>
<asrwt>0</asrwt>
<pdfrwt beam="1">  1        2 0.15030539E-01 0.25139597E+03</pdfrwt>
<pdfrwt beam="2">  1       -2 0.24880286E-01 0.25139597E+03</pdfrwt>
<totfact> 0.55068578E+03</totfact>
</mgrwt>
</event>
<event>
 4    1  0.4991066E-004  0.3415113E+03  0.7818608E-02  0.1066154E+00
          2   -1    0    0  501    0  0.00000000000E+00  0.00000000000E+00  0.21129575800E+04  0.21129575800E+04  0.25500000000E-02 0.  1.
         -2   -1    0    0    0  501 -0.00000000000E+00 -0.00000000000E+00 -0.13799371466E+02  0.13799371702E+02  0.25500000000E-02 0. -1.
    5000001    1    1    2    0    0  0.12445150999E+03 -0.81925570339E+02  0.84986122341E+03  0.86625231686E+03  0.77000000000E+02 0.  0.
   -5000001    1    1    2    0    0 -0.12445150999E+03  0.81925570339E+02  0.12492969851E+04  0.12605046348E+04  0.77000000000E+02 0.  0.
<mgrwt>
<rscale>  0 0.34151127E+03</rscale>
<asrwt>0</asrwt>
<pdfrwt beam="1">  1        2 0.32507041E+00 0.34151127E+03</pdfrwt>
<pdfrwt beam="2">  1       -2 0.21229801E-02 0.34151127E+03</pdfrwt>
<totfact> 0.45787481E+03</totfact>
</mgrwt>
</event>
<event>
 4    1  0.4991066E-004  0.1776544E+03  0.7818608E-02  0.1170093E+00
         -2   -1    0    0    0  501 -0.00000000000E+00  0.00000000000E+00  0.27072713182E+03  0.27072713184E+03  0.25500000000E-02 0. -1.
          2   -1    0    0  501    0  0.00000000000E+00 -0.00000000000E+00 -0.29144729396E+02  0.29144729507E+02  0.25500000000E-02 0.  1.
    5000001    1    1    2    0    0 -0.34351917761E+02 -0.18380459952E+02  0.15633342998E+03  0.17856941757E+03  0.77000000000E+02 0.  0.
   -5000001    1    1    2    0    0  0.34351917761E+02  0.18380459952E+02  0.85248972448E+02  0.12130244377E+03  0.77000000000E+02 0.  0.
<mgrwt>
<rscale>  0 0.17765437E+03</rscale>
<asrwt>0</asrwt>
<pdfrwt beam="1">  1        2 0.44838044E-02 0.17765437E+03</pdfrwt>
<pdfrwt beam="2">  1       -2 0.41650329E-01 0.17765437E+03</pdfrwt>
<totfact> 0.96223473E+03</totfact>
</mgrwt>
</event>
<event>
 4    1  0.4991066E-004  0.2520538E+03  0.7818608E-02  0.1112014E+00
         -2   -1    0    0    0  501 -0.00000000000E+00  0.00000000000E+00  0.81526515767E+03  0.81526515768E+03  0.25500000000E-02 0. -1.
          2   -1    0    0  501    0  0.00000000000E+00 -0.00000000000E+00 -0.19481730973E+02  0.19481731140E+02  0.25500000000E-02 0.  1.
    5000001    1    1    2    0    0  0.28630045954E+02 -0.91976462167E+02  0.31188562216E+03  0.33538185764E+03  0.77000000000E+02 0.  0.
   -5000001    1    1    2    0    0 -0.28630045954E+02  0.91976462167E+02  0.48389780454E+03  0.49936503118E+03  0.77000000000E+02 0.  0.
<mgrwt>
<rscale>  0 0.25205378E+03</rscale>
<asrwt>0</asrwt>
<pdfrwt beam="1">  1        2 0.29971904E-02 0.25205378E+03</pdfrwt>
<pdfrwt beam="2">  1       -2 0.12542537E+00 0.25205378E+03</pdfrwt>
<totfact> 0.15568237E+03</totfact>
</mgrwt>
</event>
<event>
 4    1  0.4991066E-004  0.2457904E+03  0.7818608E-02  0.1115994E+00
         -2   -1    0    0    0  501 -0.00000000000E+00  0.00000000000E+00  0.72225294073E+02  0.72225294118E+02  0.25500000000E-02 0. -1.
          2   -1    0    0  501    0  0.00000000000E+00 -0.00000000000E+00 -0.20911280604E+03  0.20911280606E+03  0.25500000000E-02 0.  1.
    5000001    1    1    2    0    0  0.52888849349E+02 -0.78451341059E+02 -0.51374216170E+02  0.13236371628E+03  0.77000000000E+02 0.  0.
   -5000001    1    1    2    0    0 -0.52888849349E+02  0.78451341059E+02 -0.85513295798E+02  0.14897438390E+03  0.77000000000E+02 0.  0.
<mgrwt>
<rscale>  0 0.24579043E+03</rscale>
<asrwt>0</asrwt>
<pdfrwt beam="1">  1        2 0.32171201E-01 0.24579043E+03</pdfrwt>
<pdfrwt beam="2">  1       -2 0.11111584E-01 0.24579043E+03</pdfrwt>
<totfact> 0.89490992E+03</totfact>
</mgrwt>
</event>
<event>
 4    1  0.4991066E-004  0.1664918E+03  0.7818608E-02  0.1181556E+00
          2   -1    0    0  501    0  0.00000000000E+00  0.00000000000E+00  0.46591749801E+03  0.46591749802E+03  0.25500000000E-02 0.  1.
         -2   -1    0    0    0  501 -0.00000000000E+00 -0.00000000000E+00 -0.14873626638E+02  0.14873626856E+02  0.25500000000E-02 0. -1.
    5000001    1    1    2    0    0  0.26837259388E+02 -0.86233285325E+01  0.26699774567E+03  0.27930520310E+03  0.77000000000E+02 0.  0.
   -5000001    1    1    2    0    0 -0.26837259388E+02  0.86233285325E+01  0.18404612570E+03  0.20148592177E+03  0.77000000000E+02 0.  0.
<mgrwt>
<rscale>  0 0.16649184E+03</rscale>
<asrwt>0</asrwt>
<pdfrwt beam="1">  1        2 0.71679607E-01 0.16649184E+03</pdfrwt>
<pdfrwt beam="2">  1       -2 0.22882505E-02 0.16649184E+03</pdfrwt>
<totfact> 0.40510207E+04</totfact>
</mgrwt>
</event>
<event>
 4    1  0.4991066E-004  0.1858786E+03  0.7818608E-02  0.1162232E+00
          2   -1    0    0  501    0  0.00000000000E+00  0.00000000000E+00  0.15789699355E+03  0.15789699357E+03  0.25500000000E-02 0.  1.
         -2   -1    0    0    0  501 -0.00000000000E+00 -0.00000000000E+00 -0.54704728062E+02  0.54704728122E+02  0.25500000000E-02 0. -1.
    5000001    1    1    2    0    0 -0.41067697493E+02 -0.16061387538E+02  0.83214363905E+02  0.12164766462E+03  0.77000000000E+02 0.  0.
   -5000001    1    1    2    0    0  0.41067697493E+02  0.16061387538E+02  0.19977901586E+02  0.90954057077E+02  0.77000000000E+02 0.  0.
<mgrwt>
<rscale>  0 0.18587859E+03</rscale>
<asrwt>0</asrwt>
<pdfrwt beam="1">  1        2 0.24291844E-01 0.18587859E+03</pdfrwt>
<pdfrwt beam="2">  1       -2 0.84161123E-02 0.18587859E+03</pdfrwt>
<totfact> 0.18574582E+04</totfact>
</mgrwt>
</event>
<event>
 4    1  0.4991066E-004  0.3420536E+03  0.7818608E-02  0.1065925E+00
          2   -1    0    0  501    0  0.00000000000E+00  0.00000000000E+00  0.10280025627E+04  0.10280025627E+04  0.25500000000E-02 0.  1.
         -2   -1    0    0    0  501 -0.00000000000E+00 -0.00000000000E+00 -0.28453397871E+02  0.28453397985E+02  0.25500000000E-02 0. -1.
    5000001    1    1    2    0    0 -0.11033759064E+03  0.76611790338E+02  0.27540298212E+03  0.31594232526E+03  0.77000000000E+02 0.  0.
   -5000001    1    1    2    0    0  0.11033759064E+03 -0.76611790338E+02  0.72414618266E+03  0.74051363539E+03  0.77000000000E+02 0.  0.
<mgrwt>
<rscale>  0 0.34205360E+03</rscale>
<asrwt>0</asrwt>
<pdfrwt beam="1">  1        2 0.15815425E+00 0.34205360E+03</pdfrwt>
<pdfrwt beam="2">  1       -2 0.43774457E-02 0.34205360E+03</pdfrwt>
<totfact> 0.60738263E+03</totfact>
</mgrwt>
</event>
<event>
 4    1  0.4991066E-004  0.2420578E+03  0.7818608E-02  0.1118430E+00
          2   -1    0    0  501    0  0.00000000000E+00  0.00000000000E+00  0.46531270675E+03  0.46531270676E+03  0.25500000000E-02 0.  1.
         -2   -1    0    0    0  501 -0.00000000000E+00 -0.00000000000E+00 -0.31479892205E+02  0.31479892308E+02  0.25500000000E-02 0. -1.
    5000001    1    1    2    0    0 -0.60860975422E+02 -0.70813141436E+02  0.21826933630E+03  0.24957776843E+03  0.77000000000E+02 0.  0.
   -5000001    1    1    2    0    0  0.60860975422E+02  0.70813141436E+02  0.21556347825E+03  0.24721483063E+03  0.77000000000E+02 0.  0.
<mgrwt>
<rscale>  0 0.24205779E+03</rscale>
<asrwt>0</asrwt>
<pdfrwt beam="1">  1        2 0.71586563E-01 0.24205779E+03</pdfrwt>
<pdfrwt beam="2">  1       -2 0.48430609E-02 0.24205779E+03</pdfrwt>
<totfact> 0.13678357E+04</totfact>
</mgrwt>
</event>
<event>
 4    1  0.4991066E-004  0.1918511E+03  0.7818608E-02  0.1156802E+00
         -2   -1    0    0    0  501 -0.00000000000E+00  0.00000000000E+00  0.17800729732E+03  0.17800729733E+03  0.25500000000E-02 0. -1.
          2   -1    0    0  501    0  0.00000000000E+00 -0.00000000000E+00 -0.51692865768E+02  0.51692865831E+02  0.25500000000E-02 0.  1.
    5000001    1    1    2    0    0  0.48534435463E+02  0.14337283295E+02  0.95094818847E+02  0.13241289095E+03  0.77000000000E+02 0.  0.
   -5000001    1    1    2    0    0 -0.48534435463E+02 -0.14337283295E+02  0.31219612700E+02  0.97287272215E+02  0.77000000000E+02 0.  0.
<mgrwt>
<rscale>  0 0.19185106E+03</rscale>
<asrwt>0</asrwt>
<pdfrwt beam="1">  1        2 0.79527486E-02 0.19185106E+03</pdfrwt>
<pdfrwt beam="2">  1       -2 0.27385738E-01 0.19185106E+03</pdfrwt>
<totfact> 0.99854575E+03</totfact>
</mgrwt>
</event>
<event>
 4    1  0.4991066E-004  0.1690638E+03  0.7818608E-02  0.1178828E+00
          2   -1    0    0  501    0  0.00000000000E+00  0.00000000000E+00  0.20341978486E+04  0.20341978486E+04  0.25500000000E-02 0.  1.
         -2   -1    0    0    0  501 -0.00000000000E+00 -0.00000000000E+00 -0.35127547509E+01  0.35127556765E+01  0.25500000000E-02 0. -1.
    5000001    1    1    2    0    0 -0.13154807087E+02 -0.22204031517E+02  0.73252998834E+03  0.73701780967E+03  0.77000000000E+02 0.  0.
   -5000001    1    1    2    0    0  0.13154807087E+02  0.22204031517E+02  0.12981551055E+04  0.13006927946E+04  0.77000000000E+02 0.  0.
<mgrwt>
<rscale>  0 0.16906376E+03</rscale>
<asrwt>0</asrwt>
<pdfrwt beam="1">  1        2 0.31295304E+00 0.16906376E+03</pdfrwt>
<pdfrwt beam="2">  1       -2 0.54042470E-03 0.16906376E+03</pdfrwt>
<totfact> 0.36124938E+04</totfact>
</mgrwt>
</event>
<event>
 4    1  0.4991066E-004  0.2008513E+03  0.7818608E-02  0.1149023E+00
         -2   -1    0    0    0  501 -0.00000000000E+00  0.00000000000E+00  0.15822702349E+02  0.15822702555E+02  0.25500000000E-02 0. -1.
          2   -1    0    0  501    0  0.00000000000E+00 -0.00000000000E+00 -0.63739513979E+03  0.63739513979E+03  0.25500000000E-02 0.  1.
    5000001    1    1    2    0    0  0.46085643779E+02 -0.26971007809E+02 -0.19329991695E+03  0.21481429123E+03  0.77000000000E+02 0.  0.
   -5000001    1    1    2    0    0 -0.46085643779E+02  0.26971007809E+02 -0.42827252049E+03  0.43840355112E+03  0.77000000000E+02 0.  0.
<mgrwt>
<rscale>  0 0.20085132E+03</rscale>
<asrwt>0</asrwt>
<pdfrwt beam="1">  1        2 0.98060771E-01 0.20085132E+03</pdfrwt>
<pdfrwt beam="2">  1       -2 0.24342624E-02 0.20085132E+03</pdfrwt>
<totfact> 0.26399757E+04</totfact>
</mgrwt>
</event>
<event>
 4    1  0.4991066E-004  0.3060364E+03  0.7818608E-02  0.1082261E+00
          2   -1    0    0  501    0  0.00000000000E+00  0.00000000000E+00  0.31726219209E+04  0.31726219209E+04  0.25500000000E-02 0.  1.
         -2   -1    0    0    0  501 -0.00000000000E+00 -0.00000000000E+00 -0.73801928385E+01  0.73801932790E+01  0.25500000000E-02 0. -1.
    5000001    1    1    2    0    0 -0.12584770474E+03 -0.40154077850E+02  0.15206509043E+04  0.15283187388E+04  0.77000000000E+02 0.  0.
   -5000001    1    1    2    0    0  0.12584770474E+03  0.40154077850E+02  0.16445908237E+04  0.16516833753E+04  0.77000000000E+02 0.  0.
<mgrwt>
<rscale>  0 0.30603635E+03</rscale>
<asrwt>0</asrwt>
<pdfrwt beam="1">  1        2 0.48809617E+00 0.30603635E+03</pdfrwt>
<pdfrwt beam="2">  1       -2 0.11354132E-02 0.30603635E+03</pdfrwt>
<totfact> 0.28959736E+03</totfact>
</mgrwt>
</event>
<event>
 4    1  0.4991066E-004  0.3006792E+03  0.7818608E-02  0.1084902E+00
         -2   -1    0    0    0  501 -0.00000000000E+00  0.00000000000E+00  0.22290480364E+02  0.22290480510E+02  0.25500000000E-02 0. -1.
          2   -1    0    0  501    0  0.00000000000E+00 -0.00000000000E+00 -0.10139754541E+04  0.10139754541E+04  0.25500000000E-02 0.  1.
    5000001    1    1    2    0    0  0.17238216806E+02 -0.10607161362E+03 -0.74256011361E+03  0.75423661119E+03  0.77000000000E+02 0.  0.
   -5000001    1    1    2    0    0 -0.17238216806E+02  0.10607161362E+03 -0.24912486009E+03  0.28202932339E+03  0.77000000000E+02 0.  0.
<mgrwt>
<rscale>  0 0.30067923E+03</rscale>
<asrwt>0</asrwt>
<pdfrwt beam="1">  1        2 0.15599619E+00 0.30067923E+03</pdfrwt>
<pdfrwt beam="2">  1       -2 0.34293055E-02 0.30067923E+03</pdfrwt>
<totfact> 0.89306316E+03</totfact>
</mgrwt>
</event>
<event>
 4    1  0.4991066E-004  0.5323548E+03  0.7818608E-02  0.1005663E+00
          2   -1    0    0  501    0  0.00000000000E+00  0.00000000000E+00  0.70295130232E+03  0.70295130232E+03  0.25500000000E-02 0.  1.
         -2   -1    0    0    0  501 -0.00000000000E+00 -0.00000000000E+00 -0.10078994027E+03  0.10078994031E+03  0.25500000000E-02 0. -1.
    5000001    1    1    2    0    0 -0.55922434584E+01  0.25464692430E+03  0.29094255237E+03  0.39427515522E+03  0.77000000000E+02 0.  0.
   -5000001    1    1    2    0    0  0.55922434584E+01 -0.25464692430E+03  0.31121880967E+03  0.40946608740E+03  0.77000000000E+02 0.  0.
<mgrwt>
<rscale>  0 0.53235484E+03</rscale>
<asrwt>0</asrwt>
<pdfrwt beam="1">  1        2 0.10814636E+00 0.53235484E+03</pdfrwt>
<pdfrwt beam="2">  1       -2 0.15506144E-01 0.53235484E+03</pdfrwt>
<totfact> 0.13531183E+03</totfact>
</mgrwt>
</event>
<event>
 4    1  0.4991066E-004  0.2934105E+03  0.7818608E-02  0.1088582E+00
          2   -1    0    0  501    0  0.00000000000E+00  0.00000000000E+00  0.90569741749E+03  0.90569741749E+03  0.25500000000E-02 0.  1.
         -2   -1    0    0    0  501 -0.00000000000E+00 -0.00000000000E+00 -0.23763385857E+02  0.23763385993E+02  0.25500000000E-02 0. -1.
    5000001    1    1    2    0    0 -0.19299676046E+02  0.79309526714E+02  0.74033434332E+03  0.74878996950E+03  0.77000000000E+02 0.  0.
   -5000001    1    1    2    0    0  0.19299676046E+02 -0.79309526714E+02  0.14159968831E+03  0.18067083398E+03  0.77000000000E+02 0.  0.
<mgrwt>
<rscale>  0 0.29341055E+03</rscale>
<asrwt>0</asrwt>
<pdfrwt beam="1">  1        2 0.13933807E+00 0.29341055E+03</pdfrwt>
<pdfrwt beam="2">  1       -2 0.36559053E-02 0.29341055E+03</pdfrwt>
<totfact> 0.94808808E+03</totfact>
</mgrwt>
</event>
<event>
 4    1  0.4991066E-004  0.2851635E+03  0.7818608E-02  0.1092902E+00
          2   -1    0    0  501    0  0.00000000000E+00  0.00000000000E+00  0.17422802009E+04  0.17422802009E+04  0.25500000000E-02 0.  1.
         -2   -1    0    0    0  501 -0.00000000000E+00 -0.00000000000E+00 -0.11668360507E+02  0.11668360785E+02  0.25500000000E-02 0. -1.
    5000001    1    1    2    0    0 -0.88405088467E+02  0.57588526665E+02  0.12169534090E+04  0.12239430125E+04  0.77000000000E+02 0.  0.
   -5000001    1    1    2    0    0  0.88405088467E+02 -0.57588526665E+02  0.51365843135E+03  0.53000554919E+03  0.77000000000E+02 0.  0.
<mgrwt>
<rscale>  0 0.28516349E+03</rscale>
<asrwt>0</asrwt>
<pdfrwt beam="1">  1        2 0.26804318E+00 0.28516349E+03</pdfrwt>
<pdfrwt beam="2">  1       -2 0.17951320E-02 0.28516349E+03</pdfrwt>
<totfact> 0.92053995E+03</totfact>
</mgrwt>
</event>
<event>
 4    1  0.4991066E-004  0.2985641E+03  0.7818608E-02  0.1085961E+00
         -2   -1    0    0    0  501 -0.00000000000E+00  0.00000000000E+00  0.91225403186E+01  0.91225406750E+01  0.25500000000E-02 0. -1.
          2   -1    0    0  501    0  0.00000000000E+00 -0.00000000000E+00 -0.24428639428E+04  0.24428639428E+04  0.25500000000E-02 0.  1.
    5000001    1    1    2    0    0  0.46670505292E+02 -0.10096006677E+03 -0.17353096811E+04  0.17405745490E+04  0.77000000000E+02 0.  0.
   -5000001    1    1    2    0    0 -0.46670505292E+02  0.10096006677E+03 -0.69843172130E+03  0.71141193444E+03  0.77000000000E+02 0.  0.
<mgrwt>
<rscale>  0 0.29856407E+03</rscale>
<asrwt>0</asrwt>
<pdfrwt beam="1">  1        2 0.37582470E+00 0.29856407E+03</pdfrwt>
<pdfrwt beam="2">  1       -2 0.14034697E-02 0.29856407E+03</pdfrwt>
<totfact> 0.56026247E+03</totfact>
</mgrwt>
</event>
<event>
 4    1  0.4991066E-004  0.1722281E+03  0.7818608E-02  0.1175544E+00
         -2   -1    0    0    0  501 -0.00000000000E+00  0.00000000000E+00  0.29956913084E+03  0.29956913085E+03  0.25500000000E-02 0. -1.
          2   -1    0    0  501    0  0.00000000000E+00 -0.00000000000E+00 -0.24754311777E+02  0.24754311908E+02  0.25500000000E-02 0.  1.
    5000001    1    1    2    0    0 -0.27888740666E+02 -0.16592421662E+02  0.98198238670E+02  0.12893790905E+03  0.77000000000E+02 0.  0.
   -5000001    1    1    2    0    0  0.27888740666E+02  0.16592421662E+02  0.17661658039E+03  0.19538553371E+03  0.77000000000E+02 0.  0.
<mgrwt>
<rscale>  0 0.17222808E+03</rscale>
<asrwt>0</asrwt>
<pdfrwt beam="1">  1        2 0.38083554E-02 0.17222808E+03</pdfrwt>
<pdfrwt beam="2">  1       -2 0.46087562E-01 0.17222808E+03</pdfrwt>
<totfact> 0.98043270E+03</totfact>
</mgrwt>
</event>
<event>
 4    1  0.4991066E-004  0.1782664E+03  0.7818608E-02  0.1169491E+00
         -2   -1    0    0    0  501 -0.00000000000E+00  0.00000000000E+00  0.50704060938E+02  0.50704061002E+02  0.25500000000E-02 0. -1.
          2   -1    0    0  501    0  0.00000000000E+00 -0.00000000000E+00 -0.15668820037E+03  0.15668820039E+03  0.25500000000E-02 0.  1.
    5000001    1    1    2    0    0  0.43803900721E+02 -0.40013724762E+01 -0.63458346287E+02  0.10904473584E+03  0.77000000000E+02 0.  0.
   -5000001    1    1    2    0    0 -0.43803900721E+02  0.40013724762E+01 -0.42525793142E+02  0.98347525553E+02  0.77000000000E+02 0.  0.
<mgrwt>
<rscale>  0 0.17826641E+03</rscale>
<asrwt>0</asrwt>
<pdfrwt beam="1">  1        2 0.24105877E-01 0.17826641E+03</pdfrwt>
<pdfrwt beam="2">  1       -2 0.78006248E-02 0.17826641E+03</pdfrwt>
<totfact> 0.21007986E+04</totfact>
</mgrwt>
</event>
<event>
 4    1  0.4991066E-004  0.1867826E+03  0.7818608E-02  0.1161396E+00
         -2   -1    0    0    0  501 -0.00000000000E+00  0.00000000000E+00  0.79047990676E+01  0.79047994789E+01  0.25500000000E-02 0. -1.
          2   -1    0    0  501    0  0.00000000000E+00 -0.00000000000E+00 -0.11033718355E+04  0.11033718355E+04  0.25500000000E-02 0.  1.
    5000001    1    1    2    0    0  0.34167843862E+02  0.39892835016E+02 -0.51301479039E+03  0.52141351632E+03  0.77000000000E+02 0.  0.
   -5000001    1    1    2    0    0 -0.34167843862E+02 -0.39892835016E+02 -0.58245224600E+03  0.58986311862E+03  0.77000000000E+02 0.  0.
<mgrwt>
<rscale>  0 0.18678258E+03</rscale>
<asrwt>0</asrwt>
<pdfrwt beam="1">  1        2 0.16974939E+00 0.18678258E+03</pdfrwt>
<pdfrwt beam="2">  1       -2 0.12161238E-02 0.18678258E+03</pdfrwt>
<totfact> 0.35447599E+04</totfact>
</mgrwt>
</event>
<event>
 4    1  0.4991066E-004  0.2690124E+03  0.7818608E-02  0.1101846E+00
          2   -1    0    0  501    0  0.00000000000E+00  0.00000000000E+00  0.51253301139E+03  0.51253301140E+03  0.25500000000E-02 0.  1.
         -2   -1    0    0    0  501 -0.00000000000E+00 -0.00000000000E+00 -0.35299035534E+02  0.35299035626E+02  0.25500000000E-02 0. -1.
    5000001    1    1    2    0    0  0.10582997099E+03  0.13389972070E+02  0.18160905344E+03  0.22425459282E+03  0.77000000000E+02 0.  0.
   -5000001    1    1    2    0    0 -0.10582997099E+03 -0.13389972070E+02  0.29562492242E+03  0.32357745421E+03  0.77000000000E+02 0.  0.
<mgrwt>
<rscale>  0 0.26901242E+03</rscale>
<asrwt>0</asrwt>
<pdfrwt beam="1">  1        2 0.78851228E-01 0.26901242E+03</pdfrwt>
<pdfrwt beam="2">  1       -2 0.54306212E-02 0.26901242E+03</pdfrwt>
<totfact> 0.10371726E+04</totfact>
</mgrwt>
</event>
<event>
 4    1  0.4991066E-004  0.2059603E+03  0.7818608E-02  0.1144805E+00
         -2   -1    0    0    0  501 -0.00000000000E+00  0.00000000000E+00  0.33699379431E+01  0.33699389079E+01  0.25500000000E-02 0. -1.
          2   -1    0    0  501    0  0.00000000000E+00 -0.00000000000E+00 -0.31469165123E+04  0.31469165123E+04  0.25500000000E-02 0.  1.
    5000001    1    1    2    0    0 -0.42930300718E+02 -0.53042362790E+02 -0.15043824909E+04  0.15078966085E+04  0.77000000000E+02 0.  0.
   -5000001    1    1    2    0    0  0.42930300718E+02  0.53042362790E+02 -0.16391640835E+04  0.16423898427E+04  0.77000000000E+02 0.  0.
<mgrwt>
<rscale>  0 0.20596033E+03</rscale>
<asrwt>0</asrwt>
<pdfrwt beam="1">  1        2 0.48413865E+00 0.20596033E+03</pdfrwt>
<pdfrwt beam="2">  1       -2 0.51845458E-03 0.20596033E+03</pdfrwt>
<totfact> 0.93793597E+03</totfact>
</mgrwt>
</event>
<event>
 4    1  0.4991066E-004  0.3203737E+03  0.7818608E-02  0.1075477E+00
         -2   -1    0    0    0  501 -0.00000000000E+00  0.00000000000E+00  0.13284542810E+02  0.13284543055E+02  0.25500000000E-02 0. -1.
          2   -1    0    0  501    0  0.00000000000E+00 -0.00000000000E+00 -0.19315545462E+04  0.19315545462E+04  0.25500000000E-02 0.  1.
    5000001    1    1    2    0    0  0.68751969436E+02 -0.61975279632E+02 -0.16005193109E+04  0.16050416920E+04  0.77000000000E+02 0.  0.
   -5000001    1    1    2    0    0 -0.68751969436E+02  0.61975279632E+02 -0.31775069253E+03  0.33979739727E+03  0.77000000000E+02 0.  0.
<mgrwt>
<rscale>  0 0.32037365E+03</rscale>
<asrwt>0</asrwt>
<pdfrwt beam="1">  1        2 0.29716202E+00 0.32037365E+03</pdfrwt>
<pdfrwt beam="2">  1       -2 0.20437774E-02 0.32037365E+03</pdfrwt>
<totfact> 0.60474183E+03</totfact>
</mgrwt>
</event>
<event>
 4    1  0.4991066E-004  0.2253969E+03  0.7818608E-02  0.1129922E+00
         -2   -1    0    0    0  501 -0.00000000000E+00  0.00000000000E+00  0.87410166157E+03  0.87410166158E+03  0.25500000000E-02 0. -1.
          2   -1    0    0  501    0  0.00000000000E+00 -0.00000000000E+00 -0.14530277229E+02  0.14530277452E+02  0.25500000000E-02 0.  1.
    5000001    1    1    2    0    0  0.58467830406E+02 -0.18658199700E+02  0.21365340715E+03  0.23525176725E+03  0.77000000000E+02 0.  0.
   -5000001    1    1    2    0    0 -0.58467830406E+02  0.18658199700E+02  0.64591797720E+03  0.65338017178E+03  0.77000000000E+02 0.  0.
<mgrwt>
<rscale>  0 0.22539689E+03</rscale>
<asrwt>0</asrwt>
<pdfrwt beam="1">  1        2 0.22354266E-02 0.22539689E+03</pdfrwt>
<pdfrwt beam="2">  1       -2 0.13447722E+00 0.22539689E+03</pdfrwt>
<totfact> 0.19477749E+03</totfact>
</mgrwt>
</event>
<event>
 4    1  0.4991066E-004  0.2322878E+03  0.7818608E-02  0.1125040E+00
         -2   -1    0    0    0  501 -0.00000000000E+00  0.00000000000E+00  0.19157922914E+02  0.19157923083E+02  0.25500000000E-02 0. -1.
          2   -1    0    0  501    0  0.00000000000E+00 -0.00000000000E+00 -0.70411625412E+03  0.70411625412E+03  0.25500000000E-02 0.  1.
    5000001    1    1    2    0    0 -0.78310869337E+02 -0.33282392202E+02 -0.39818697448E+03  0.41439374577E+03  0.77000000000E+02 0.  0.
   -5000001    1    1    2    0    0  0.78310869337E+02  0.33282392202E+02 -0.28677135672E+03  0.30888043144E+03  0.77000000000E+02 0.  0.
<mgrwt>
<rscale>  0 0.23228780E+03</rscale>
<asrwt>0</asrwt>
<pdfrwt beam="1">  1        2 0.10832556E+00 0.23228780E+03</pdfrwt>
<pdfrwt beam="2">  1       -2 0.29473733E-02 0.23228780E+03</pdfrwt>
<totfact> 0.17844664E+04</totfact>
</mgrwt>
</event>
<event>
 4    1  0.4991066E-004  0.5345446E+03  0.7818608E-02  0.1005136E+00
          2   -1    0    0  501    0  0.00000000000E+00  0.00000000000E+00  0.14525286712E+03  0.14525286714E+03  0.25500000000E-02 0. -1.
         -2   -1    0    0    0  501 -0.00000000000E+00 -0.00000000000E+00 -0.49179404693E+03  0.49179404694E+03  0.25500000000E-02 0.  1.
    5000001    1    1    2    0    0 -0.22156519558E+03 -0.12804723348E+03 -0.17836393136E+03  0.32129413612E+03  0.77000000000E+02 0.  0.
   -5000001    1    1    2    0    0  0.22156519558E+03  0.12804723348E+03 -0.16817724845E+03  0.31575277796E+03  0.77000000000E+02 0.  0.
<mgrwt>
<rscale>  0 0.53454465E+03</rscale>
<asrwt>0</asrwt>
<pdfrwt beam="1">  1        2 0.22346595E-01 0.53454465E+03</pdfrwt>
<pdfrwt beam="2">  1       -2 0.75660622E-01 0.53454465E+03</pdfrwt>
<totfact> 0.39471482E+02</totfact>
</mgrwt>
</event>
<event>
 4    1  0.4991066E-004  0.1754445E+03  0.7818608E-02  0.1172286E+00
         -2   -1    0    0    0  501 -0.00000000000E+00  0.00000000000E+00  0.32881456125E+02  0.32881456224E+02  0.25500000000E-02 0. -1.
          2   -1    0    0  501    0  0.00000000000E+00 -0.00000000000E+00 -0.23402838189E+03  0.23402838190E+03  0.25500000000E-02 0.  1.
    5000001    1    1    2    0    0 -0.18231890421E+02  0.31804350584E+02 -0.13183589145E+03  0.15701471530E+03  0.77000000000E+02 0.  0.
   -5000001    1    1    2    0    0  0.18231890421E+02 -0.31804350584E+02 -0.69311034309E+02  0.10989512283E+03  0.77000000000E+02 0.  0.
<mgrwt>
<rscale>  0 0.17544451E+03</rscale>
<asrwt>0</asrwt>
<pdfrwt beam="1">  1        2 0.36004365E-01 0.17544451E+03</pdfrwt>
<pdfrwt beam="2">  1       -2 0.50586857E-02 0.17544451E+03</pdfrwt>
<totfact> 0.26238416E+04</totfact>
</mgrwt>
</event>
<event>
 4    1  0.4991066E-004  0.1802303E+03  0.7818608E-02  0.1167580E+00
          2   -1    0    0  501    0  0.00000000000E+00  0.00000000000E+00  0.19920613233E+04  0.19920613233E+04  0.25500000000E-02 0.  1.
         -2   -1    0    0    0  501 -0.00000000000E+00 -0.00000000000E+00 -0.40765514057E+01  0.40765522033E+01  0.25500000000E-02 0. -1.
    5000001    1    1    2    0    0  0.29331540005E+02  0.26872751330E+02  0.12673700534E+04  0.12703300107E+04  0.77000000000E+02 0.  0.
   -5000001    1    1    2    0    0 -0.29331540005E+02 -0.26872751330E+02  0.72061471851E+03  0.72580786475E+03  0.77000000000E+02 0.  0.
<mgrwt>
<rscale>  0 0.18023031E+03</rscale>
<asrwt>0</asrwt>
<pdfrwt beam="1">  1        2 0.30647076E+00 0.18023031E+03</pdfrwt>
<pdfrwt beam="2">  1       -2 0.62716226E-03 0.18023031E+03</pdfrwt>
<totfact> 0.30822111E+04</totfact>
</mgrwt>
</event>
<event>
 4    1  0.4991066E-004  0.3085911E+03  0.7818608E-02  0.1081023E+00
         -2   -1    0    0    0  501 -0.00000000000E+00  0.00000000000E+00  0.14087467850E+04  0.14087467850E+04  0.25500000000E-02 0.  1.
          2   -1    0    0  501    0  0.00000000000E+00 -0.00000000000E+00 -0.16899503601E+02  0.16899503793E+02  0.25500000000E-02 0. -1.
    5000001    1    1    2    0    0 -0.60573666221E+02  0.31820688496E+02  0.12266321142E+04  0.12309496614E+04  0.77000000000E+02 0.  0.
   -5000001    1    1    2    0    0  0.60573666221E+02 -0.31820688496E+02  0.16521516720E+03  0.19469662742E+03  0.77000000000E+02 0.  0.
<mgrwt>
<rscale>  0 0.30859113E+03</rscale>
<asrwt>0</asrwt>
<pdfrwt beam="1">  1        2 0.25999236E-02 0.30859113E+03</pdfrwt>
<pdfrwt beam="2">  1       -2 0.21673028E+00 0.30859113E+03</pdfrwt>
<totfact> 0.43305953E+02</totfact>
</mgrwt>
</event>
<event>
 4    1  0.4991066E-004  0.3488322E+03  0.7818608E-02  0.1063095E+00
         -2   -1    0    0    0  501 -0.00000000000E+00  0.00000000000E+00  0.34804922146E+02  0.34804922240E+02  0.25500000000E-02 0. -1.
          2   -1    0    0  501    0  0.00000000000E+00 -0.00000000000E+00 -0.87404213433E+03  0.87404213433E+03  0.25500000000E-02 0.  1.
    5000001    1    1    2    0    0  0.12092151415E+03  0.87544853651E+02 -0.29725205425E+03  0.34142919872E+03  0.77000000000E+02 0.  0.
   -5000001    1    1    2    0    0 -0.12092151415E+03 -0.87544853651E+02 -0.54198515794E+03  0.56741785785E+03  0.77000000000E+02 0.  0.
<mgrwt>
<rscale>  0 0.34883216E+03</rscale>
<asrwt>0</asrwt>
<pdfrwt beam="1">  1        2 0.13446800E+00 0.34883216E+03</pdfrwt>
<pdfrwt beam="2">  1       -2 0.53546041E-02 0.34883216E+03</pdfrwt>
<totfact> 0.55939919E+03</totfact>
</mgrwt>
</event>
<event>
 4    1  0.4991066E-004  0.2178941E+03  0.7818608E-02  0.1135463E+00
          2   -1    0    0  501    0  0.00000000000E+00  0.00000000000E+00  0.41265363156E+03  0.41265363157E+03  0.25500000000E-02 0.  1.
         -2   -1    0    0    0  501 -0.00000000000E+00 -0.00000000000E+00 -0.28763744044E+02  0.28763744157E+02  0.25500000000E-02 0. -1.
    5000001    1    1    2    0    0 -0.76384238757E+02 -0.95726135698E+01  0.18429045270E+03  0.21405176434E+03  0.77000000000E+02 0.  0.
   -5000001    1    1    2    0    0  0.76384238757E+02  0.95726135698E+01  0.19959943482E+03  0.22736561139E+03  0.77000000000E+02 0.  0.
<mgrwt>
<rscale>  0 0.21789413E+03</rscale>
<asrwt>0</asrwt>
<pdfrwt beam="1">  1        2 0.63485170E-01 0.21789413E+03</pdfrwt>
<pdfrwt beam="2">  1       -2 0.44251917E-02 0.21789413E+03</pdfrwt>
<totfact> 0.17765311E+04</totfact>
</mgrwt>
</event>
<event>
 4    1  0.4991066E-004  0.3622959E+03  0.7818608E-02  0.1057678E+00
         -2   -1    0    0    0  501 -0.00000000000E+00  0.00000000000E+00  0.28117162199E+02  0.28117162314E+02  0.25500000000E-02 0. -1.
          2   -1    0    0  501    0  0.00000000000E+00 -0.00000000000E+00 -0.11670660155E+04  0.11670660155E+04  0.25500000000E-02 0.  1.
    5000001    1    1    2    0    0  0.13562498420E+03 -0.51552497676E+02 -0.31750586961E+03  0.35747835402E+03  0.77000000000E+02 0.  0.
   -5000001    1    1    2    0    0 -0.13562498420E+03  0.51552497676E+02 -0.82144298371E+03  0.83770482382E+03  0.77000000000E+02 0.  0.
<mgrwt>
<rscale>  0 0.36229593E+03</rscale>
<asrwt>0</asrwt>
<pdfrwt beam="1">  1        2 0.17954858E+00 0.36229593E+03</pdfrwt>
<pdfrwt beam="2">  1       -2 0.43257182E-02 0.36229593E+03</pdfrwt>
<totfact> 0.51157029E+03</totfact>
</mgrwt>
</event>
<event>
 4    1  0.4991066E-004  0.2022832E+03  0.7818608E-02  0.1147827E+00
          2   -1    0    0  501    0  0.00000000000E+00  0.00000000000E+00  0.30931621470E+03  0.30931621471E+03  0.25500000000E-02 0.  1.
         -2   -1    0    0    0  501 -0.00000000000E+00 -0.00000000000E+00 -0.33071734076E+02  0.33071734174E+02  0.25500000000E-02 0. -1.
    5000001    1    1    2    0    0  0.43325954790E+02 -0.46389308450E+02  0.16601281198E+03  0.19369656693E+03  0.77000000000E+02 0.  0.
   -5000001    1    1    2    0    0 -0.43325954790E+02  0.46389308450E+02  0.11023166864E+03  0.14869138196E+03  0.77000000000E+02 0.  0.
<mgrwt>
<rscale>  0 0.20228320E+03</rscale>
<asrwt>0</asrwt>
<pdfrwt beam="1">  1        2 0.47587112E-01 0.20228320E+03</pdfrwt>
<pdfrwt beam="2">  1       -2 0.50879589E-02 0.20228320E+03</pdfrwt>
<totfact> 0.19519141E+04</totfact>
</mgrwt>
</event>
<event>
 4    1  0.4991066E-004  0.2369920E+03  0.7818608E-02  0.1121813E+00
         -2   -1    0    0    0  501 -0.00000000000E+00  0.00000000000E+00  0.72410729827E+02  0.72410729872E+02  0.25500000000E-02 0. -1.
          2   -1    0    0  501    0  0.00000000000E+00 -0.00000000000E+00 -0.19391196536E+03  0.19391196537E+03  0.25500000000E-02 0.  1.
    5000001    1    1    2    0    0 -0.79098842283E+02 -0.89420834251E+01 -0.10810515149E+03  0.15476534329E+03  0.77000000000E+02 0.  0.
   -5000001    1    1    2    0    0  0.79098842283E+02  0.89420834251E+01 -0.13396084040E+02  0.11155735195E+03  0.77000000000E+02 0.  0.
<mgrwt>
<rscale>  0 0.23699204E+03</rscale>
<asrwt>0</asrwt>
<pdfrwt beam="1">  1        2 0.29832610E-01 0.23699204E+03</pdfrwt>
<pdfrwt beam="2">  1       -2 0.11140112E-01 0.23699204E+03</pdfrwt>
<totfact> 0.96611154E+03</totfact>
</mgrwt>
</event>
<event>
 4    1  0.4991066E-004  0.3734026E+03  0.7818608E-02  0.1053399E+00
         -2   -1    0    0    0  501 -0.00000000000E+00  0.00000000000E+00  0.62280752764E+02  0.62280752816E+02  0.25500000000E-02 0. -1.
          2   -1    0    0  501    0  0.00000000000E+00 -0.00000000000E+00 -0.55968121073E+03  0.55968121074E+03  0.25500000000E-02 0.  1.
    5000001    1    1    2    0    0  0.47931786434E+02 -0.15249553061E+03 -0.15191940603E+03  0.23358263834E+03  0.77000000000E+02 0.  0.
   -5000001    1    1    2    0    0 -0.47931786434E+02  0.15249553061E+03 -0.34548105194E+03  0.38837932521E+03  0.77000000000E+02 0.  0.
<mgrwt>
<rscale>  0 0.37340256E+03</rscale>
<asrwt>0</asrwt>
<pdfrwt beam="1">  1        2 0.86104798E-01 0.37340256E+03</pdfrwt>
<pdfrwt beam="2">  1       -2 0.95816546E-02 0.37340256E+03</pdfrwt>
<totfact> 0.39073659E+03</totfact>
</mgrwt>
</event>
<event>
 4    1  0.4991066E-004  0.1859019E+03  0.7818608E-02  0.1162210E+00
         -2   -1    0    0    0  501 -0.00000000000E+00  0.00000000000E+00  0.24947406852E+03  0.24947406853E+03  0.25500000000E-02 0. -1.
          2   -1    0    0  501    0  0.00000000000E+00 -0.00000000000E+00 -0.34632384083E+02  0.34632384177E+02  0.25500000000E-02 0.  1.
    5000001    1    1    2    0    0 -0.33665109285E+02 -0.39075228713E+02  0.11829929300E+03  0.15027952558E+03  0.77000000000E+02 0.  0.
   -5000001    1    1    2    0    0  0.33665109285E+02  0.39075228713E+02  0.96542391430E+02  0.13382692713E+03  0.77000000000E+02 0.  0.
<mgrwt>
<rscale>  0 0.18590193E+03</rscale>
<asrwt>0</asrwt>
<pdfrwt beam="1">  1        2 0.53280589E-02 0.18590193E+03</pdfrwt>
<pdfrwt beam="2">  1       -2 0.38380627E-01 0.18590193E+03</pdfrwt>
<totfact> 0.89893244E+03</totfact>
</mgrwt>
</event>
<event>
 4    1  0.4991066E-004  0.3232042E+03  0.7818608E-02  0.1074184E+00
          2   -1    0    0  501    0  0.00000000000E+00  0.00000000000E+00  0.27177215938E+04  0.27177215938E+04  0.25500000000E-02 0.  1.
         -2   -1    0    0    0  501 -0.00000000000E+00 -0.00000000000E+00 -0.96092384851E+01  0.96092388234E+01  0.25500000000E-02 0. -1.
    5000001    1    1    2    0    0 -0.12061255494E+03  0.68181467864E+02  0.10885296390E+04  0.11000099436E+04  0.77000000000E+02 0.  0.
   -5000001    1    1    2    0    0  0.12061255494E+03 -0.68181467864E+02  0.16195827162E+04  0.16273208890E+04  0.77000000000E+02 0.  0.
<mgrwt>
<rscale>  0 0.32320418E+03</rscale>
<asrwt>0</asrwt>
<pdfrwt beam="1">  1        2 0.41811129E+00 0.32320418E+03</pdfrwt>
<pdfrwt beam="2">  1       -2 0.14783434E-02 0.32320418E+03</pdfrwt>
<totfact> 0.36459239E+03</totfact>
</mgrwt>
</event>
<event>
 4    1  0.4991066E-004  0.2345834E+03  0.7818608E-02  0.1123455E+00
          2   -1    0    0  501    0  0.00000000000E+00  0.00000000000E+00  0.32918855382E+02  0.32918855481E+02  0.25500000000E-02 0.  1.
         -2   -1    0    0    0  501 -0.00000000000E+00 -0.00000000000E+00 -0.41791675702E+03  0.41791675702E+03  0.25500000000E-02 0. -1.
    5000001    1    1    2    0    0  0.25036584203E+02  0.84606084507E+02 -0.17984950985E+03  0.21461562450E+03  0.77000000000E+02 0.  0.
   -5000001    1    1    2    0    0 -0.25036584203E+02 -0.84606084507E+02 -0.20514839178E+03  0.23621998801E+03  0.77000000000E+02 0.  0.
<mgrwt>
<rscale>  0 0.23458339E+03</rscale>
<asrwt>0</asrwt>
<pdfrwt beam="1">  1        2 0.50644396E-02 0.23458339E+03</pdfrwt>
<pdfrwt beam="2">  1       -2 0.64294882E-01 0.23458339E+03</pdfrwt>
<totfact> 0.34931797E+03</totfact>
</mgrwt>
</event>
<event>
 4    1  0.4991066E-004  0.2949628E+03  0.7818608E-02  0.1087786E+00
          2   -1    0    0  501    0  0.00000000000E+00  0.00000000000E+00  0.44237309708E+03  0.44237309708E+03  0.25500000000E-02 0.  1.
         -2   -1    0    0    0  501 -0.00000000000E+00 -0.00000000000E+00 -0.49168375502E+02  0.49168375568E+02  0.25500000000E-02 0. -1.
    5000001    1    1    2    0    0 -0.65821384923E+02 -0.10081978199E+03  0.13594982871E+03  0.19725222199E+03  0.77000000000E+02 0.  0.
   -5000001    1    1    2    0    0  0.65821384923E+02  0.10081978199E+03  0.25725489287E+03  0.29428925067E+03  0.77000000000E+02 0.  0.
<mgrwt>
<rscale>  0 0.29496282E+03</rscale>
<asrwt>0</asrwt>
<pdfrwt beam="1">  1        2 0.68057399E-01 0.29496282E+03</pdfrwt>
<pdfrwt beam="2">  1       -2 0.75643656E-02 0.29496282E+03</pdfrwt>
<totfact> 0.73532669E+03</totfact>
</mgrwt>
</event>
<event>
 4    1  0.4991066E-004  0.2733750E+03  0.7818608E-02  0.1099363E+00
          2   -1    0    0  501    0  0.00000000000E+00  0.00000000000E+00  0.88846680231E+02  0.88846680268E+02  0.25500000000E-02 0.  1.
         -2   -1    0    0    0  501 -0.00000000000E+00 -0.00000000000E+00 -0.21028892713E+03  0.21028892715E+03  0.25500000000E-02 0. -1.
    5000001    1    1    2    0    0  0.66350068406E+02  0.60244187348E+00 -0.16072084636E+03  0.19016541475E+03  0.77000000000E+02 0.  0.
   -5000001    1    1    2    0    0 -0.66350068406E+02 -0.60244187348E+00  0.39278599458E+02  0.10897019266E+03  0.77000000000E+02 0.  0.
<mgrwt>
<rscale>  0 0.27337500E+03</rscale>
<asrwt>0</asrwt>
<pdfrwt beam="1">  1        2 0.13668720E-01 0.27337500E+03</pdfrwt>
<pdfrwt beam="2">  1       -2 0.32352143E-01 0.27337500E+03</pdfrwt>
<totfact> 0.38565126E+03</totfact>
</mgrwt>
</event>
<event>
 4    1  0.4991066E-004  0.7940424E+03  0.7818608E-02  0.9568681E-01
         -2   -1    0    0    0  501 -0.00000000000E+00  0.00000000000E+00  0.13342998218E+03  0.13342998221E+03  0.25500000000E-02 0. -1.
          2   -1    0    0  501    0  0.00000000000E+00 -0.00000000000E+00 -0.11813375144E+04  0.11813375144E+04  0.25500000000E-02 0.  1.
    5000001    1    1    2    0    0  0.19376416602E+03  0.21982811954E+03 -0.94877891342E+03  0.99598161666E+03  0.77000000000E+02 0.  0.
   -5000001    1    1    2    0    0 -0.19376416602E+03 -0.21982811954E+03 -0.99128618764E+02  0.31878587992E+03  0.77000000000E+02 0.  0.
<mgrwt>
<rscale>  0 0.79404243E+03</rscale>
<asrwt>0</asrwt>
<pdfrwt beam="1">  1        2 0.18174423E+00 0.79404243E+03</pdfrwt>
<pdfrwt beam="2">  1       -2 0.20527690E-01 0.79404243E+03</pdfrwt>
<totfact> 0.39857495E+02</totfact>
</mgrwt>
</event>
<event>
 4    1  0.4991066E-004  0.5276370E+03  0.7818608E-02  0.1006807E+00
         -2   -1    0    0    0  501 -0.00000000000E+00  0.00000000000E+00  0.40579445408E+04  0.40579445408E+04  0.25500000000E-02 0. -1.
          2   -1    0    0  501    0  0.00000000000E+00 -0.00000000000E+00 -0.17151591325E+02  0.17151591514E+02  0.25500000000E-02 0.  1.
    5000001    1    1    2    0    0 -0.90699650150E+02  0.22600366162E+03  0.25307844307E+04  0.25436396986E+04  0.77000000000E+02 0.  0.
   -5000001    1    1    2    0    0  0.90699650150E+02 -0.22600366162E+03  0.15100085188E+04  0.15314564337E+04  0.77000000000E+02 0.  0.
<mgrwt>
<rscale>  0 0.52763702E+03</rscale>
<asrwt>0</asrwt>
<pdfrwt beam="1">  1        2 0.26387070E-02 0.52763702E+03</pdfrwt>
<pdfrwt beam="2">  1       -2 0.62429902E+00 0.52763702E+03</pdfrwt>
<totfact> 0.17311933E+00</totfact>
</mgrwt>
</event>
<event>
 4    1  0.4991066E-004  0.3343574E+03  0.7818608E-02  0.1069225E+00
         -2   -1    0    0    0  501 -0.00000000000E+00  0.00000000000E+00  0.40605604528E+02  0.40605604608E+02  0.25500000000E-02 0. -1.
          2   -1    0    0  501    0  0.00000000000E+00 -0.00000000000E+00 -0.68829722780E+03  0.68829722780E+03  0.25500000000E-02 0.  1.
    5000001    1    1    2    0    0  0.64287521895E+02 -0.12663717216E+03 -0.23008339291E+03  0.28113560169E+03  0.77000000000E+02 0.  0.
   -5000001    1    1    2    0    0 -0.64287521895E+02  0.12663717216E+03 -0.41760823036E+03  0.44776723073E+03  0.77000000000E+02 0.  0.
<mgrwt>
<rscale>  0 0.33435744E+03</rscale>
<asrwt>0</asrwt>
<pdfrwt beam="1">  1        2 0.10589187E+00 0.33435744E+03</pdfrwt>
<pdfrwt beam="2">  1       -2 0.62470166E-02 0.33435744E+03</pdfrwt>
<totfact> 0.59728106E+03</totfact>
</mgrwt>
</event>
<event>
 4    1  0.4991066E-004  0.1988149E+03  0.7818608E-02  0.1150743E+00
         -2   -1    0    0    0  501 -0.00000000000E+00  0.00000000000E+00  0.33967798856E+01  0.33967808427E+01  0.25500000000E-02 0. -1.
          2   -1    0    0  501    0  0.00000000000E+00 -0.00000000000E+00 -0.29091799422E+04  0.29091799422E+04  0.25500000000E-02 0.  1.
    5000001    1    1    2    0    0  0.46786272732E+01  0.59524163029E+02 -0.11643895175E+04  0.11684592265E+04  0.77000000000E+02 0.  0.
   -5000001    1    1    2    0    0 -0.46786272732E+01 -0.59524163029E+02 -0.17413936448E+04  0.17441174965E+04  0.77000000000E+02 0.  0.
<mgrwt>
<rscale>  0 0.19881494E+03</rscale>
<asrwt>0</asrwt>
<pdfrwt beam="1">  1        2 0.44756415E+00 0.19881494E+03</pdfrwt>
<pdfrwt beam="2">  1       -2 0.52258392E-03 0.19881494E+03</pdfrwt>
<totfact> 0.12807124E+04</totfact>
</mgrwt>
</event>
<event>
 4    1  0.4991066E-004  0.3738409E+03  0.7818608E-02  0.1053234E+00
         -2   -1    0    0    0  501 -0.00000000000E+00  0.00000000000E+00  0.22663564915E+03  0.22663564916E+03  0.25500000000E-02 0. -1.
          2   -1    0    0  501    0  0.00000000000E+00 -0.00000000000E+00 -0.15416485553E+03  0.15416485555E+03  0.25500000000E-02 0.  1.
    5000001    1    1    2    0    0  0.16953716938E+03 -0.45447248440E+00  0.52885766523E+02  0.19356901262E+03  0.77000000000E+02 0.  0.
   -5000001    1    1    2    0    0 -0.16953716938E+03  0.45447248440E+00  0.19585027097E+02  0.18723149209E+03  0.77000000000E+02 0.  0.
<mgrwt>
<rscale>  0 0.37384089E+03</rscale>
<asrwt>0</asrwt>
<pdfrwt beam="1">  1        2 0.23717670E-01 0.37384089E+03</pdfrwt>
<pdfrwt beam="2">  1       -2 0.34867023E-01 0.37384089E+03</pdfrwt>
<totfact> 0.17774794E+03</totfact>
</mgrwt>
</event>
<event>
 4    1  0.4991066E-004  0.1942636E+03  0.7818608E-02  0.1154671E+00
          2   -1    0    0  501    0  0.00000000000E+00  0.00000000000E+00  0.14298511453E+03  0.14298511455E+03  0.25500000000E-02 0.  1.
         -2   -1    0    0    0  501 -0.00000000000E+00 -0.00000000000E+00 -0.65982982223E+02  0.65982982273E+02  0.25500000000E-02 0. -1.
    5000001    1    1    2    0    0 -0.27129020957E+02  0.30972277472E+02 -0.72673734047E+01  0.87618950382E+02  0.77000000000E+02 0.  0.
   -5000001    1    1    2    0    0  0.27129020957E+02 -0.30972277472E+02  0.84269505712E+02  0.12134914644E+03  0.77000000000E+02 0.  0.
<mgrwt>
<rscale>  0 0.19426358E+03</rscale>
<asrwt>0</asrwt>
<pdfrwt beam="1">  1        2 0.21997710E-01 0.19426358E+03</pdfrwt>
<pdfrwt beam="2">  1       -2 0.10151228E-01 0.19426358E+03</pdfrwt>
<totfact> 0.15516342E+04</totfact>
</mgrwt>
</event>
<event>
 4    1  0.4991066E-004  0.3514372E+03  0.7818608E-02  0.1062027E+00
         -2   -1    0    0    0  501 -0.00000000000E+00  0.00000000000E+00  0.12964620705E+02  0.12964620955E+02  0.25500000000E-02 0. -1.
          2   -1    0    0  501    0  0.00000000000E+00 -0.00000000000E+00 -0.23816373929E+04  0.23816373929E+04  0.25500000000E-02 0.  1.
    5000001    1    1    2    0    0  0.14235712363E+03  0.67515394983E+02 -0.12602558172E+04  0.12723983669E+04  0.77000000000E+02 0.  0.
   -5000001    1    1    2    0    0 -0.14235712363E+03 -0.67515394983E+02 -0.11084169550E+04  0.11222036470E+04  0.77000000000E+02 0.  0.
<mgrwt>
<rscale>  0 0.35143720E+03</rscale>
<asrwt>0</asrwt>
<pdfrwt beam="1">  1        2 0.36640541E+00 0.35143720E+03</pdfrwt>
<pdfrwt beam="2">  1       -2 0.19945589E-02 0.35143720E+03</pdfrwt>
<totfact> 0.35974728E+03</totfact>
</mgrwt>
</event>
<event>
 4    1  0.4991066E-004  0.2424883E+03  0.7818608E-02  0.1118146E+00
          2   -1    0    0  501    0  0.00000000000E+00  0.00000000000E+00  0.18848051144E+03  0.18848051146E+03  0.25500000000E-02 0.  1.
         -2   -1    0    0    0  501 -0.00000000000E+00 -0.00000000000E+00 -0.77992931194E+02  0.77992931236E+02  0.25500000000E-02 0. -1.
    5000001    1    1    2    0    0  0.31970686957E+01 -0.92572620220E+02  0.40047126080E+02  0.12693574583E+03  0.77000000000E+02 0.  0.
   -5000001    1    1    2    0    0 -0.31970686957E+01  0.92572620220E+02  0.70440454167E+02  0.13953769686E+03  0.77000000000E+02 0.  0.
<mgrwt>
<rscale>  0 0.24248833E+03</rscale>
<asrwt>0</asrwt>
<pdfrwt beam="1">  1        2 0.28997002E-01 0.24248833E+03</pdfrwt>
<pdfrwt beam="2">  1       -2 0.11998912E-01 0.24248833E+03</pdfrwt>
<totfact> 0.88562585E+03</totfact>
</mgrwt>
</event>
<event>
 4    1  0.4991066E-004  0.3504163E+03  0.7818608E-02  0.1062444E+00
         -2   -1    0    0    0  501 -0.00000000000E+00  0.00000000000E+00  0.30655190419E+02  0.30655190525E+02  0.25500000000E-02 0. -1.
          2   -1    0    0  501    0  0.00000000000E+00 -0.00000000000E+00 -0.10013931304E+04  0.10013931304E+04  0.25500000000E-02 0.  1.
    5000001    1    1    2    0    0  0.14685287278E+03  0.55869249636E+02 -0.45873839972E+03  0.49097561923E+03  0.77000000000E+02 0.  0.
   -5000001    1    1    2    0    0 -0.14685287278E+03 -0.55869249636E+02 -0.51199954030E+03  0.54107270174E+03  0.77000000000E+02 0.  0.
<mgrwt>
<rscale>  0 0.35041631E+03</rscale>
<asrwt>0</asrwt>
<pdfrwt beam="1">  1        2 0.15406046E+00 0.35041631E+03</pdfrwt>
<pdfrwt beam="2">  1       -2 0.47161839E-02 0.35041631E+03</pdfrwt>
<totfact> 0.56321955E+03</totfact>
</mgrwt>
</event>
<event>
 4    1  0.4991066E-004  0.1681537E+03  0.7818608E-02  0.1179787E+00
         -2   -1    0    0    0  501 -0.00000000000E+00  0.00000000000E+00  0.46198694947E+01  0.46198701985E+01  0.25500000000E-02 0. -1.
          2   -1    0    0  501    0  0.00000000000E+00 -0.00000000000E+00 -0.15301109020E+04  0.15301109020E+04  0.25500000000E-02 0.  1.
    5000001    1    1    2    0    0  0.11004939272E+02  0.19167816260E+02 -0.99568845042E+03  0.99890590356E+03  0.77000000000E+02 0.  0.
   -5000001    1    1    2    0    0 -0.11004939272E+02 -0.19167816260E+02 -0.52980258207E+03  0.53582486862E+03  0.77000000000E+02 0.  0.
<mgrwt>
<rscale>  0 0.16815366E+03</rscale>
<asrwt>0</asrwt>
<pdfrwt beam="1">  1        2 0.23540127E+00 0.16815366E+03</pdfrwt>
<pdfrwt beam="2">  1       -2 0.71075043E-03 0.16815366E+03</pdfrwt>
<totfact> 0.44524192E+04</totfact>
</mgrwt>
</event>
<event>
 4    1  0.4991066E-004  0.6200003E+03  0.7818608E-02  0.9864759E-01
         -2   -1    0    0    0  501 -0.00000000000E+00  0.00000000000E+00  0.51825073837E+03  0.51825073837E+03  0.25500000000E-02 0. -1.
          2   -1    0    0  501    0  0.00000000000E+00 -0.00000000000E+00 -0.18543167835E+03  0.18543167837E+03  0.25500000000E-02 0.  1.
    5000001    1    1    2    0    0 -0.84812854495E+02  0.28651463740E+03  0.20021655238E+03  0.36783083827E+03  0.77000000000E+02 0.  0.
   -5000001    1    1    2    0    0  0.84812854495E+02 -0.28651463740E+03  0.13260250764E+03  0.33585157848E+03  0.77000000000E+02 0.  0.
<mgrwt>
<rscale>  0 0.62000034E+03</rscale>
<asrwt>0</asrwt>
<pdfrwt beam="1">  1        2 0.28527951E-01 0.62000034E+03</pdfrwt>
<pdfrwt beam="2">  1       -2 0.79730882E-01 0.62000034E+03</pdfrwt>
<totfact> 0.26531013E+02</totfact>
</mgrwt>
</event>
<event>
 4    1  0.4991066E-004  0.2001021E+03  0.7818608E-02  0.1149653E+00
         -2   -1    0    0    0  501 -0.00000000000E+00  0.00000000000E+00  0.52924718819E+01  0.52924724962E+01  0.25500000000E-02 0. -1.
          2   -1    0    0  501    0  0.00000000000E+00 -0.00000000000E+00 -0.18914060194E+04  0.18914060194E+04  0.25500000000E-02 0.  1.
    5000001    1    1    2    0    0  0.60912718607E+02  0.15696775065E+02 -0.10488046154E+04  0.10535069385E+04  0.77000000000E+02 0.  0.
   -5000001    1    1    2    0    0 -0.60912718607E+02 -0.15696775065E+02 -0.83730893212E+03  0.84319155347E+03  0.77000000000E+02 0.  0.
<mgrwt>
<rscale>  0 0.20010211E+03</rscale>
<asrwt>0</asrwt>
<pdfrwt beam="1">  1        2 0.29098500E+00 0.20010211E+03</pdfrwt>
<pdfrwt beam="2">  1       -2 0.81422800E-03 0.20010211E+03</pdfrwt>
<totfact> 0.24024239E+04</totfact>
</mgrwt>
</event>
<event>
 4    1  0.4991066E-004  0.3355296E+03  0.7818608E-02  0.1068716E+00
          2   -1    0    0  501    0  0.00000000000E+00  0.00000000000E+00  0.20961625385E+02  0.20961625540E+02  0.25500000000E-02 0.  1.
         -2   -1    0    0    0  501 -0.00000000000E+00 -0.00000000000E+00 -0.13426932396E+04  0.13426932396E+04  0.25500000000E-02 0. -1.
    5000001    1    1    2    0    0 -0.14242056271E+03  0.43327085582E+02 -0.69105583764E+03  0.71108932193E+03  0.77000000000E+02 0.  0.
   -5000001    1    1    2    0    0  0.14242056271E+03 -0.43327085582E+02 -0.63067577661E+03  0.65256554325E+03  0.77000000000E+02 0.  0.
<mgrwt>
<rscale>  0 0.33552963E+03</rscale>
<asrwt>0</asrwt>
<pdfrwt beam="1">  1        2 0.32248665E-02 0.33552963E+03</pdfrwt>
<pdfrwt beam="2">  1       -2 0.20656812E+00 0.33552963E+03</pdfrwt>
<totfact> 0.37274127E+02</totfact>
</mgrwt>
</event>
<event>
 4    1  0.4991066E-004  0.4767270E+03  0.7818608E-02  0.1020039E+00
          2   -1    0    0  501    0  0.00000000000E+00  0.00000000000E+00  0.27172794820E+03  0.27172794821E+03  0.25500000000E-02 0.  1.
         -2   -1    0    0    0  501 -0.00000000000E+00 -0.00000000000E+00 -0.20909574572E+03  0.20909574573E+03  0.25500000000E-02 0. -1.
    5000001    1    1    2    0    0  0.11125076542E+03  0.19603518635E+03  0.40428722756E+02  0.24159885910E+03  0.77000000000E+02 0.  0.
   -5000001    1    1    2    0    0 -0.11125076542E+03 -0.19603518635E+03  0.22203479728E+02  0.23922483485E+03  0.77000000000E+02 0.  0.
<mgrwt>
<rscale>  0 0.47672700E+03</rscale>
<asrwt>0</asrwt>
<pdfrwt beam="1">  1        2 0.41804299E-01 0.47672700E+03</pdfrwt>
<pdfrwt beam="2">  1       -2 0.32168577E-01 0.47672700E+03</pdfrwt>
<totfact> 0.11024241E+03</totfact>
</mgrwt>
</event>
<event>
 4    1  0.4991066E-004  0.2240650E+03  0.7818608E-02  0.1130888E+00
         -2   -1    0    0    0  501 -0.00000000000E+00  0.00000000000E+00  0.65024818762E+03  0.65024818763E+03  0.25500000000E-02 0. -1.
          2   -1    0    0  501    0  0.00000000000E+00 -0.00000000000E+00 -0.19302298259E+02  0.19302298427E+02  0.25500000000E-02 0.  1.
    5000001    1    1    2    0    0 -0.77554118721E+02 -0.15973658994E+02  0.37157513497E+03  0.38764272215E+03  0.77000000000E+02 0.  0.
   -5000001    1    1    2    0    0  0.77554118721E+02  0.15973658994E+02  0.25937075440E+03  0.28190776390E+03  0.77000000000E+02 0.  0.
<mgrwt>
<rscale>  0 0.22406503E+03</rscale>
<asrwt>0</asrwt>
<pdfrwt beam="1">  1        2 0.29695850E-02 0.22406503E+03</pdfrwt>
<pdfrwt beam="2">  1       -2 0.10003816E+00 0.22406503E+03</pdfrwt>
<totfact> 0.26892343E+03</totfact>
</mgrwt>
</event>
<event>
 4    1  0.4991066E-004  0.2290167E+03  0.7818608E-02  0.1127334E+00
         -2   -1    0    0    0  501 -0.00000000000E+00  0.00000000000E+00  0.18395752373E+02  0.18395752550E+02  0.25500000000E-02 0. -1.
          2   -1    0    0  501    0  0.00000000000E+00 -0.00000000000E+00 -0.71278181157E+03  0.71278181158E+03  0.25500000000E-02 0.  1.
    5000001    1    1    2    0    0  0.53969586567E+02 -0.62795729536E+02 -0.28944712716E+03  0.31074854681E+03  0.77000000000E+02 0.  0.
   -5000001    1    1    2    0    0 -0.53969586567E+02  0.62795729536E+02 -0.40493893204E+03  0.42042901732E+03  0.77000000000E+02 0.  0.
<mgrwt>
<rscale>  0 0.22901666E+03</rscale>
<asrwt>0</asrwt>
<pdfrwt beam="1">  1        2 0.10965872E+00 0.22901666E+03</pdfrwt>
<pdfrwt beam="2">  1       -2 0.28301163E-02 0.22901666E+03</pdfrwt>
<totfact> 0.18657317E+04</totfact>
</mgrwt>
</event>
<event>
 4    1  0.4991066E-004  0.2198332E+03  0.7818608E-02  0.1134008E+00
          2   -1    0    0  501    0  0.00000000000E+00  0.00000000000E+00  0.12595387210E+03  0.12595387213E+03  0.25500000000E-02 0.  1.
         -2   -1    0    0    0  501 -0.00000000000E+00 -0.00000000000E+00 -0.95921262586E+02  0.95921262619E+02  0.25500000000E-02 0. -1.
    5000001    1    1    2    0    0 -0.35142784729E+02  0.66084879927E+02 -0.86628176669E+01  0.10773240498E+03  0.77000000000E+02 0.  0.
   -5000001    1    1    2    0    0  0.35142784729E+02 -0.66084879927E+02  0.38695427185E+02  0.11414272977E+03  0.77000000000E+02 0.  0.
<mgrwt>
<rscale>  0 0.21983316E+03</rscale>
<asrwt>0</asrwt>
<pdfrwt beam="1">  1        2 0.19377519E-01 0.21983316E+03</pdfrwt>
<pdfrwt beam="2">  1       -2 0.14757117E-01 0.21983316E+03</pdfrwt>
<totfact> 0.98838555E+03</totfact>
</mgrwt>
</event>
<event>
 4    1  0.4991066E-004  0.2061272E+03  0.7818608E-02  0.1144670E+00
         -2   -1    0    0    0  501 -0.00000000000E+00  0.00000000000E+00  0.15895372758E+02  0.15895372962E+02  0.25500000000E-02 0. -1.
          2   -1    0    0  501    0  0.00000000000E+00 -0.00000000000E+00 -0.66825122529E+03  0.66825122530E+03  0.25500000000E-02 0.  1.
    5000001    1    1    2    0    0 -0.17066884277E+02 -0.66232061915E+02 -0.33909147880E+03  0.35438678807E+03  0.77000000000E+02 0.  0.
   -5000001    1    1    2    0    0  0.17066884277E+02  0.66232061915E+02 -0.31326437373E+03  0.32975981018E+03  0.77000000000E+02 0.  0.
<mgrwt>
<rscale>  0 0.20612717E+03</rscale>
<asrwt>0</asrwt>
<pdfrwt beam="1">  1        2 0.10280786E+00 0.20612717E+03</pdfrwt>
<pdfrwt beam="2">  1       -2 0.24454425E-02 0.20612717E+03</pdfrwt>
<totfact> 0.24846555E+04</totfact>
</mgrwt>
</event>
<event>
 4    1  0.4991066E-004  0.8058773E+03  0.7818608E-02  0.9551549E-01
         -2   -1    0    0    0  501 -0.00000000000E+00  0.00000000000E+00  0.26076309689E+03  0.26076309690E+03  0.25500000000E-02 0. -1.
          2   -1    0    0  501    0  0.00000000000E+00 -0.00000000000E+00 -0.62263235149E+03  0.62263235150E+03  0.25500000000E-02 0.  1.
    5000001    1    1    2    0    0  0.36874289150E+03 -0.91938635842E+02 -0.60820358486E+02  0.39249477550E+03  0.77000000000E+02 0.  0.
   -5000001    1    1    2    0    0 -0.36874289150E+03  0.91938635842E+02 -0.30104889612E+03  0.49090067289E+03  0.77000000000E+02 0.  0.
<mgrwt>
<rscale>  0 0.80587726E+03</rscale>
<asrwt>0</asrwt>
<pdfrwt beam="1">  1        2 0.95789592E-01 0.80587726E+03</pdfrwt>
<pdfrwt beam="2">  1       -2 0.40117400E-01 0.80587726E+03</pdfrwt>
<totfact> 0.28039004E+02</totfact>
</mgrwt>
</event>
<event>
 4    1  0.4991066E-004  0.3575838E+03  0.7818608E-02  0.1059545E+00
          2   -1    0    0  501    0  0.00000000000E+00  0.00000000000E+00  0.92288038148E+03  0.92288038148E+03  0.25500000000E-02 0.  1.
         -2   -1    0    0    0  501 -0.00000000000E+00 -0.00000000000E+00 -0.34637791293E+02  0.34637791387E+02  0.25500000000E-02 0. -1.
    5000001    1    1    2    0    0  0.12797514890E+03 -0.84179370095E+02  0.30827400714E+03  0.35274022816E+03  0.77000000000E+02 0.  0.
   -5000001    1    1    2    0    0 -0.12797514890E+03  0.84179370095E+02  0.57996858305E+03  0.60477794471E+03  0.77000000000E+02 0.  0.
<mgrwt>
<rscale>  0 0.35758377E+03</rscale>
<asrwt>0</asrwt>
<pdfrwt beam="1">  1        2 0.14198158E+00 0.35758377E+03</pdfrwt>
<pdfrwt beam="2">  1       -2 0.53288916E-02 0.35758377E+03</pdfrwt>
<totfact> 0.52380282E+03</totfact>
</mgrwt>
</event>
<event>
 4    1  0.4991066E-004  0.3344371E+03  0.7818608E-02  0.1069190E+00
          2   -1    0    0  501    0  0.00000000000E+00  0.00000000000E+00  0.23613067461E+03  0.23613067462E+03  0.25500000000E-02 0.  1.
         -2   -1    0    0    0  501 -0.00000000000E+00 -0.00000000000E+00 -0.11841767950E+03  0.11841767953E+03  0.25500000000E-02 0. -1.
    5000001    1    1    2    0    0  0.13245229519E+03  0.57416084734E+02  0.22242247443E+02  0.16511794227E+03  0.77000000000E+02 0.  0.
   -5000001    1    1    2    0    0 -0.13245229519E+03 -0.57416084734E+02  0.95470747659E+02  0.18943041188E+03  0.77000000000E+02 0.  0.
<mgrwt>
<rscale>  0 0.33443712E+03</rscale>
<asrwt>0</asrwt>
<pdfrwt beam="1">  1        2 0.36327796E-01 0.33443712E+03</pdfrwt>
<pdfrwt beam="2">  1       -2 0.18218105E-01 0.33443712E+03</pdfrwt>
<totfact> 0.35104442E+03</totfact>
</mgrwt>
</event>
<event>
 4    1  0.4991066E-004  0.2746415E+03  0.7818608E-02  0.1098652E+00
          2   -1    0    0  501    0  0.00000000000E+00  0.00000000000E+00  0.12024468885E+04  0.12024468885E+04  0.25500000000E-02 0.  1.
         -2   -1    0    0    0  501 -0.00000000000E+00 -0.00000000000E+00 -0.15682183212E+02  0.15682183420E+02  0.25500000000E-02 0. -1.
    5000001    1    1    2    0    0 -0.33886598389E+02 -0.10748319177E+03  0.66021553319E+03  0.67417689692E+03  0.77000000000E+02 0.  0.
   -5000001    1    1    2    0    0  0.33886598389E+02  0.10748319177E+03  0.52654917212E+03  0.54395217503E+03  0.77000000000E+02 0.  0.
<mgrwt>
<rscale>  0 0.27464153E+03</rscale>
<asrwt>0</asrwt>
<pdfrwt beam="1">  1        2 0.18499188E+00 0.27464153E+03</pdfrwt>
<pdfrwt beam="2">  1       -2 0.24126430E-02 0.27464153E+03</pdfrwt>
<totfact> 0.11652487E+04</totfact>
</mgrwt>
</event>
<event>
 4    1  0.4991066E-004  0.1803753E+03  0.7818608E-02  0.1167440E+00
          2   -1    0    0  501    0  0.00000000000E+00  0.00000000000E+00  0.19284453386E+03  0.19284453388E+03  0.25500000000E-02 0.  1.
         -2   -1    0    0    0  501 -0.00000000000E+00 -0.00000000000E+00 -0.42178092170E+02  0.42178092247E+02  0.25500000000E-02 0. -1.
    5000001    1    1    2    0    0 -0.32555604161E+02  0.33755524182E+02  0.72274233526E+02  0.11555028173E+03  0.77000000000E+02 0.  0.
   -5000001    1    1    2    0    0  0.32555604161E+02 -0.33755524182E+02  0.78392208163E+02  0.11947234440E+03  0.77000000000E+02 0.  0.
<mgrwt>
<rscale>  0 0.18037533E+03</rscale>
<asrwt>0</asrwt>
<pdfrwt beam="1">  1        2 0.29668389E-01 0.18037533E+03</pdfrwt>
<pdfrwt beam="2">  1       -2 0.64889374E-02 0.18037533E+03</pdfrwt>
<totfact> 0.22213064E+04</totfact>
</mgrwt>
</event>
<event>
 4    1  0.4991066E-004  0.1841512E+03  0.7818608E-02  0.1163845E+00
          2   -1    0    0  501    0  0.00000000000E+00  0.00000000000E+00  0.29328605530E+03  0.29328605532E+03  0.25500000000E-02 0.  1.
         -2   -1    0    0    0  501 -0.00000000000E+00 -0.00000000000E+00 -0.28906654693E+02  0.28906654805E+02  0.25500000000E-02 0. -1.
    5000001    1    1    2    0    0 -0.31836293036E+02  0.39079713300E+02  0.12719635052E+03  0.15699899723E+03  0.77000000000E+02 0.  0.
   -5000001    1    1    2    0    0  0.31836293036E+02 -0.39079713300E+02  0.13718305010E+03  0.16519371289E+03  0.77000000000E+02 0.  0.
<mgrwt>
<rscale>  0 0.18415123E+03</rscale>
<asrwt>0</asrwt>
<pdfrwt beam="1">  1        2 0.45120933E-01 0.18415123E+03</pdfrwt>
<pdfrwt beam="2">  1       -2 0.44471775E-02 0.18415123E+03</pdfrwt>
<totfact> 0.25124576E+04</totfact>
</mgrwt>
</event>
<event>
 4    1  0.4991066E-004  0.2043850E+03  0.7818608E-02  0.1146091E+00
          2   -1    0    0  501    0  0.00000000000E+00  0.00000000000E+00  0.25902619164E+04  0.25902619164E+04  0.25500000000E-02 0.  1.
         -2   -1    0    0    0  501 -0.00000000000E+00 -0.00000000000E+00 -0.40317561332E+01  0.40317569396E+01  0.25500000000E-02 0. -1.
    5000001    1    1    2    0    0  0.24142147864E+02  0.61802899607E+02  0.14273652258E+04  0.14309797097E+04  0.77000000000E+02 0.  0.
   -5000001    1    1    2    0    0 -0.24142147864E+02 -0.61802899607E+02  0.11588649345E+04  0.11633139637E+04  0.77000000000E+02 0.  0.
<mgrwt>
<rscale>  0 0.20438498E+03</rscale>
<asrwt>0</asrwt>
<pdfrwt beam="1">  1        2 0.39850147E+00 0.20438498E+03</pdfrwt>
<pdfrwt beam="2">  1       -2 0.62027081E-03 0.20438498E+03</pdfrwt>
<totfact> 0.15148147E+04</totfact>
</mgrwt>
</event>
<event>
 4    1  0.4991066E-004  0.1836380E+03  0.7818608E-02  0.1164328E+00
          2   -1    0    0  501    0  0.00000000000E+00  0.00000000000E+00  0.13403085273E+02  0.13403085515E+02  0.25500000000E-02 0.  1.
         -2   -1    0    0    0  501 -0.00000000000E+00 -0.00000000000E+00 -0.62901402354E+03  0.62901402354E+03  0.25500000000E-02 0. -1.
    5000001    1    1    2    0    0 -0.32137057205E+02 -0.18892059557E+02 -0.19114802171E+03  0.20941887824E+03  0.77000000000E+02 0.  0.
   -5000001    1    1    2    0    0  0.32137057205E+02  0.18892059557E+02 -0.42446291656E+03  0.43299823082E+03  0.77000000000E+02 0.  0.
<mgrwt>
<rscale>  0 0.18363800E+03</rscale>
<asrwt>0</asrwt>
<pdfrwt beam="1">  1        2 0.20620136E-02 0.18363800E+03</pdfrwt>
<pdfrwt beam="2">  1       -2 0.96771365E-01 0.18363800E+03</pdfrwt>
<totfact> 0.47175922E+03</totfact>
</mgrwt>
</event>
<event>
 4    1  0.4991066E-004  0.2606925E+03  0.7818608E-02  0.1106728E+00
         -2   -1    0    0    0  501 -0.00000000000E+00  0.00000000000E+00  0.20377900471E+02  0.20377900630E+02  0.25500000000E-02 0. -1.
          2   -1    0    0  501    0  0.00000000000E+00 -0.00000000000E+00 -0.83375352147E+03  0.83375352147E+03  0.25500000000E-02 0.  1.
    5000001    1    1    2    0    0  0.11476416532E+02  0.10454266861E+03 -0.40838601944E+03  0.42868288812E+03  0.77000000000E+02 0.  0.
   -5000001    1    1    2    0    0 -0.11476416532E+02 -0.10454266861E+03 -0.40498960155E+03  0.42544853398E+03  0.77000000000E+02 0.  0.
<mgrwt>
<rscale>  0 0.26069251E+03</rscale>
<asrwt>0</asrwt>
<pdfrwt beam="1">  1        2 0.12826975E+00 0.26069251E+03</pdfrwt>
<pdfrwt beam="2">  1       -2 0.31350623E-02 0.26069251E+03</pdfrwt>
<totfact> 0.13253291E+04</totfact>
</mgrwt>
</event>
<event>
 4    1  0.4991066E-004  0.3945168E+03  0.7818608E-02  0.1045695E+00
          2   -1    0    0  501    0  0.00000000000E+00  0.00000000000E+00  0.66926073242E+03  0.66926073242E+03  0.25500000000E-02 0.  1.
         -2   -1    0    0    0  501 -0.00000000000E+00 -0.00000000000E+00 -0.58140084698E+02  0.58140084754E+02  0.25500000000E-02 0. -1.
    5000001    1    1    2    0    0 -0.75943817898E+02 -0.14129979883E+03  0.14858162750E+03  0.23181586799E+03  0.77000000000E+02 0.  0.
   -5000001    1    1    2    0    0  0.75943817898E+02  0.14129979883E+03  0.46253902022E+03  0.49558494918E+03  0.77000000000E+02 0.  0.
<mgrwt>
<rscale>  0 0.39451680E+03</rscale>
<asrwt>0</asrwt>
<pdfrwt beam="1">  1        2 0.10296319E+00 0.39451680E+03</pdfrwt>
<pdfrwt beam="2">  1       -2 0.89446287E-02 0.39451680E+03</pdfrwt>
<totfact> 0.35308957E+03</totfact>
</mgrwt>
</event>
<event>
 4    1  0.4991066E-004  0.2472704E+03  0.7818608E-02  0.1115042E+00
         -2   -1    0    0    0  501 -0.00000000000E+00  0.00000000000E+00  0.19037417067E+02  0.19037417238E+02  0.25500000000E-02 0. -1.
          2   -1    0    0  501    0  0.00000000000E+00 -0.00000000000E+00 -0.80292733691E+03  0.80292733692E+03  0.25500000000E-02 0.  1.
    5000001    1    1    2    0    0  0.56307204285E+02 -0.75760983341E+02 -0.32170890840E+03  0.34399978139E+03  0.77000000000E+02 0.  0.
   -5000001    1    1    2    0    0 -0.56307204285E+02  0.75760983341E+02 -0.46218101144E+03  0.47796497276E+03  0.77000000000E+02 0.  0.
<mgrwt>
<rscale>  0 0.24727040E+03</rscale>
<asrwt>0</asrwt>
<pdfrwt beam="1">  1        2 0.12352726E+00 0.24727040E+03</pdfrwt>
<pdfrwt beam="2">  1       -2 0.29288340E-02 0.24727040E+03</pdfrwt>
<totfact> 0.15354944E+04</totfact>
</mgrwt>
</event>
<event>
 4    1  0.4991066E-004  0.2283096E+03  0.7818608E-02  0.1127835E+00
          2   -1    0    0  501    0  0.00000000000E+00  0.00000000000E+00  0.72819108202E+02  0.72819108247E+02  0.25500000000E-02 0.  1.
         -2   -1    0    0    0  501 -0.00000000000E+00 -0.00000000000E+00 -0.17895469874E+03  0.17895469876E+03  0.25500000000E-02 0. -1.
    5000001    1    1    2    0    0 -0.83348623520E+02 -0.49354629371E+01 -0.40447433453E+02  0.12056677283E+03  0.77000000000E+02 0.  0.
   -5000001    1    1    2    0    0  0.83348623520E+02  0.49354629371E+01 -0.65688157089E+02  0.13120703418E+03  0.77000000000E+02 0.  0.
<mgrwt>
<rscale>  0 0.22830963E+03</rscale>
<asrwt>0</asrwt>
<pdfrwt beam="1">  1        2 0.11202940E-01 0.22830963E+03</pdfrwt>
<pdfrwt beam="2">  1       -2 0.27531492E-01 0.22830963E+03</pdfrwt>
<totfact> 0.65257978E+03</totfact>
</mgrwt>
</event>
<event>
 4    1  0.4991066E-004  0.4492800E+03  0.7818608E-02  0.1027937E+00
         -2   -1    0    0    0  501 -0.00000000000E+00  0.00000000000E+00  0.18152623135E+02  0.18152623314E+02  0.25500000000E-02 0. -1.
          2   -1    0    0  501    0  0.00000000000E+00 -0.00000000000E+00 -0.27799364962E+04  0.27799364962E+04  0.25500000000E-02 0.  1.
    5000001    1    1    2    0    0  0.83142641974E+02 -0.17964038478E+03 -0.92532449533E+03  0.94938811264E+03  0.77000000000E+02 0.  0.
   -5000001    1    1    2    0    0 -0.83142641974E+02  0.17964038478E+03 -0.18364593778E+04  0.18487010069E+04  0.77000000000E+02 0.  0.
<mgrwt>
<rscale>  0 0.44928005E+03</rscale>
<asrwt>0</asrwt>
<pdfrwt beam="1">  1        2 0.42768220E+00 0.44928005E+03</pdfrwt>
<pdfrwt beam="2">  1       -2 0.27927135E-02 0.44928005E+03</pdfrwt>
<totfact> 0.12899856E+03</totfact>
</mgrwt>
</event>
<event>
 4    1  0.4991066E-004  0.1968283E+03  0.7818608E-02  0.1152443E+00
          2   -1    0    0  501    0  0.00000000000E+00  0.00000000000E+00  0.14787479310E+04  0.14787479310E+04  0.25500000000E-02 0.  1.
         -2   -1    0    0    0  501 -0.00000000000E+00 -0.00000000000E+00 -0.65496921232E+01  0.65496926196E+01  0.25500000000E-02 0. -1.
    5000001    1    1    2    0    0 -0.55340200999E+02  0.26198488410E+02  0.71550846630E+03  0.72223975520E+03  0.77000000000E+02 0.  0.
   -5000001    1    1    2    0    0  0.55340200999E+02 -0.26198488410E+02  0.75668977260E+03  0.76305786845E+03  0.77000000000E+02 0.  0.
<mgrwt>
<rscale>  0 0.19682829E+03</rscale>
<asrwt>0</asrwt>
<pdfrwt beam="1">  1        2 0.22749983E+00 0.19682829E+03</pdfrwt>
<pdfrwt beam="2">  1       -2 0.10076443E-02 0.19682829E+03</pdfrwt>
<totfact> 0.29002004E+04</totfact>
</mgrwt>
</event>
<event>
 4    1  0.4991066E-004  0.1602807E+03  0.7818608E-02  0.1188380E+00
          2   -1    0    0  501    0  0.00000000000E+00  0.00000000000E+00  0.13830754341E+04  0.13830754341E+04  0.25500000000E-02 0.  1.
         -2   -1    0    0    0  501 -0.00000000000E+00 -0.00000000000E+00 -0.46436211842E+01  0.46436218844E+01  0.25500000000E-02 0. -1.
    5000001    1    1    2    0    0 -0.15487449255E+02  0.33253332050E+01  0.82405932655E+03  0.82780051498E+03  0.77000000000E+02 0.  0.
   -5000001    1    1    2    0    0  0.15487449255E+02 -0.33253332050E+01  0.55437248640E+03  0.55991854104E+03  0.77000000000E+02 0.  0.
<mgrwt>
<rscale>  0 0.16028074E+03</rscale>
<asrwt>0</asrwt>
<pdfrwt beam="1">  1        2 0.21278064E+00 0.16028074E+03</pdfrwt>
<pdfrwt beam="2">  1       -2 0.71440396E-03 0.16028074E+03</pdfrwt>
<totfact> 0.52662280E+04</totfact>
</mgrwt>
</event>
<event>
 4    1  0.4991066E-004  0.3029813E+03  0.7818608E-02  0.1083760E+00
          2   -1    0    0  501    0  0.00000000000E+00  0.00000000000E+00  0.11539877172E+04  0.11539877172E+04  0.25500000000E-02 0.  1.
         -2   -1    0    0    0  501 -0.00000000000E+00 -0.00000000000E+00 -0.19887058880E+02  0.19887059043E+02  0.25500000000E-02 0. -1.
    5000001    1    1    2    0    0 -0.55674123629E+02 -0.10448443685E+03  0.35470506571E+03  0.38178696838E+03  0.77000000000E+02 0.  0.
   -5000001    1    1    2    0    0  0.55674123629E+02  0.10448443685E+03  0.77939559262E+03  0.79208780788E+03  0.77000000000E+02 0.  0.
<mgrwt>
<rscale>  0 0.30298133E+03</rscale>
<asrwt>0</asrwt>
<pdfrwt beam="1">  1        2 0.17753658E+00 0.30298133E+03</pdfrwt>
<pdfrwt beam="2">  1       -2 0.30595473E-02 0.30298133E+03</pdfrwt>
<totfact> 0.87488416E+03</totfact>
</mgrwt>
</event>
<event>
 4    1  0.4991066E-004  0.1987084E+03  0.7818608E-02  0.1150833E+00
         -2   -1    0    0    0  501 -0.00000000000E+00  0.00000000000E+00  0.41496607662E+01  0.41496615497E+01  0.25500000000E-02 0. -1.
          2   -1    0    0  501    0  0.00000000000E+00 -0.00000000000E+00 -0.23788115133E+04  0.23788115133E+04  0.25500000000E-02 0.  1.
    5000001    1    1    2    0    0 -0.48965750452E+02 -0.18259521808E+02 -0.16046899454E+04  0.16073860382E+04  0.77000000000E+02 0.  0.
   -5000001    1    1    2    0    0  0.48965750452E+02  0.18259521808E+02 -0.76997190716E+03  0.77557513670E+03  0.77000000000E+02 0.  0.
<mgrwt>
<rscale>  0 0.19870845E+03</rscale>
<asrwt>0</asrwt>
<pdfrwt beam="1">  1        2 0.36596991E+00 0.19870845E+03</pdfrwt>
<pdfrwt beam="2">  1       -2 0.63841131E-03 0.19870845E+03</pdfrwt>
<totfact> 0.18903838E+04</totfact>
</mgrwt>
</event>
<event>
 4    1  0.4991066E-004  0.1700674E+03  0.7818608E-02  0.1177778E+00
          2   -1    0    0  501    0  0.00000000000E+00  0.00000000000E+00  0.41684604361E+03  0.41684604362E+03  0.25500000000E-02 0.  1.
         -2   -1    0    0    0  501 -0.00000000000E+00 -0.00000000000E+00 -0.17346282527E+02  0.17346282715E+02  0.25500000000E-02 0. -1.
    5000001    1    1    2    0    0 -0.23833600414E+02 -0.19792248524E+02  0.24696118549E+03  0.26053521979E+03  0.77000000000E+02 0.  0.
   -5000001    1    1    2    0    0  0.23833600414E+02  0.19792248524E+02  0.15253857560E+03  0.17365710655E+03  0.77000000000E+02 0.  0.
<mgrwt>
<rscale>  0 0.17006739E+03</rscale>
<asrwt>0</asrwt>
<pdfrwt beam="1">  1        2 0.64130154E-01 0.17006739E+03</pdfrwt>
<pdfrwt beam="2">  1       -2 0.26686592E-02 0.17006739E+03</pdfrwt>
<totfact> 0.36555920E+04</totfact>
</mgrwt>
</event>
<event>
 4    1  0.4991066E-004  0.2740334E+03  0.7818608E-02  0.1098993E+00
          2   -1    0    0  501    0  0.00000000000E+00  0.00000000000E+00  0.18817779349E+03  0.18817779351E+03  0.25500000000E-02 0.  1.
         -2   -1    0    0    0  501 -0.00000000000E+00 -0.00000000000E+00 -0.99765104083E+02  0.99765104116E+02  0.25500000000E-02 0. -1.
    5000001    1    1    2    0    0 -0.87365781208E+01  0.11219345769E+03  0.58338064952E+02  0.14831058481E+03  0.77000000000E+02 0.  0.
   -5000001    1    1    2    0    0  0.87365781208E+01 -0.11219345769E+03  0.30074624454E+02  0.13963231281E+03  0.77000000000E+02 0.  0.
<mgrwt>
<rscale>  0 0.27403341E+03</rscale>
<asrwt>0</asrwt>
<pdfrwt beam="1">  1        2 0.28950430E-01 0.27403341E+03</pdfrwt>
<pdfrwt beam="2">  1       -2 0.15348478E-01 0.27403341E+03</pdfrwt>
<totfact> 0.59649692E+03</totfact>
</mgrwt>
</event>
<event>
 4    1  0.4991066E-004  0.2286997E+03  0.7818608E-02  0.1127558E+00
          2   -1    0    0  501    0  0.00000000000E+00  0.00000000000E+00  0.18757034209E+02  0.18757034382E+02  0.25500000000E-02 0.  1.
         -2   -1    0    0    0  501 -0.00000000000E+00 -0.00000000000E+00 -0.69711915386E+03  0.69711915387E+03  0.25500000000E-02 0. -1.
    5000001    1    1    2    0    0 -0.11362438248E+02  0.73473341371E+02 -0.21321422083E+03  0.23857229692E+03  0.77000000000E+02 0.  0.
   -5000001    1    1    2    0    0  0.11362438248E+02 -0.73473341371E+02 -0.46514789883E+03  0.47730389133E+03  0.77000000000E+02 0.  0.
<mgrwt>
<rscale>  0 0.22869970E+03</rscale>
<asrwt>0</asrwt>
<pdfrwt beam="1">  1        2 0.28856981E-02 0.22869970E+03</pdfrwt>
<pdfrwt beam="2">  1       -2 0.10724908E+00 0.22869970E+03</pdfrwt>
<totfact> 0.23779980E+03</totfact>
</mgrwt>
</event>
<event>
 4    1  0.4991066E-004  0.2790779E+03  0.7818608E-02  0.1096194E+00
          2   -1    0    0  501    0  0.00000000000E+00  0.00000000000E+00  0.82710064191E+03  0.82710064192E+03  0.25500000000E-02 0.  1.
         -2   -1    0    0    0  501 -0.00000000000E+00 -0.00000000000E+00 -0.23541419660E+02  0.23541419798E+02  0.25500000000E-02 0. -1.
    5000001    1    1    2    0    0  0.10237263365E+03 -0.43390416032E+02  0.50644962444E+03  0.52419758338E+03  0.77000000000E+02 0.  0.
   -5000001    1    1    2    0    0 -0.10237263365E+03  0.43390416032E+02  0.29710959781E+03  0.32644447833E+03  0.77000000000E+02 0.  0.
<mgrwt>
<rscale>  0 0.27907793E+03</rscale>
<asrwt>0</asrwt>
<pdfrwt beam="1">  1        2 0.12724626E+00 0.27907793E+03</pdfrwt>
<pdfrwt beam="2">  1       -2 0.36217567E-02 0.27907793E+03</pdfrwt>
<totfact> 0.10821119E+04</totfact>
</mgrwt>
</event>
<event>
 4    1  0.4991066E-004  0.2163398E+03  0.7818608E-02  0.1136642E+00
         -2   -1    0    0    0  501 -0.00000000000E+00  0.00000000000E+00  0.36015162046E+03  0.36015162046E+03  0.25500000000E-02 0. -1.
          2   -1    0    0  501    0  0.00000000000E+00 -0.00000000000E+00 -0.32488339604E+02  0.32488339705E+02  0.25500000000E-02 0.  1.
    5000001    1    1    2    0    0  0.61777909567E+02  0.41968590281E+02  0.18910116752E+03  0.21740773730E+03  0.77000000000E+02 0.  0.
   -5000001    1    1    2    0    0 -0.61777909567E+02 -0.41968590281E+02  0.13856211333E+03  0.17523222287E+03  0.77000000000E+02 0.  0.
<mgrwt>
<rscale>  0 0.21633981E+03</rscale>
<asrwt>0</asrwt>
<pdfrwt beam="1">  1        2 0.49982065E-02 0.21633981E+03</pdfrwt>
<pdfrwt beam="2">  1       -2 0.55407937E-01 0.21633981E+03</pdfrwt>
<totfact> 0.48121613E+03</totfact>
</mgrwt>
</event>
<event>
 4    1  0.4991066E-004  0.2217371E+03  0.7818608E-02  0.1132595E+00
          2   -1    0    0  501    0  0.00000000000E+00  0.00000000000E+00  0.37531982240E+03  0.37531982241E+03  0.25500000000E-02 0.  1.
         -2   -1    0    0    0  501 -0.00000000000E+00 -0.00000000000E+00 -0.32750295765E+02  0.32750295864E+02  0.25500000000E-02 0. -1.
    5000001    1    1    2    0    0  0.11632654121E+02 -0.78547401278E+02  0.15729068822E+03  0.19228721614E+03  0.77000000000E+02 0.  0.
   -5000001    1    1    2    0    0 -0.11632654121E+02  0.78547401278E+02  0.18527883841E+03  0.21578290213E+03  0.77000000000E+02 0.  0.
<mgrwt>
<rscale>  0 0.22173710E+03</rscale>
<asrwt>0</asrwt>
<pdfrwt beam="1">  1        2 0.57741514E-01 0.22173710E+03</pdfrwt>
<pdfrwt beam="2">  1       -2 0.50385068E-02 0.22173710E+03</pdfrwt>
<totfact> 0.16196764E+04</totfact>
</mgrwt>
</event>
<event>
 4    1  0.4991066E-004  0.1811042E+03  0.7818608E-02  0.1166739E+00
          2   -1    0    0  501    0  0.00000000000E+00  0.00000000000E+00  0.42967573499E+03  0.42967573500E+03  0.25500000000E-02 0.  1.
         -2   -1    0    0    0  501 -0.00000000000E+00 -0.00000000000E+00 -0.19083428125E+02  0.19083428296E+02  0.25500000000E-02 0. -1.
    5000001    1    1    2    0    0  0.25378413507E+02 -0.38526585053E+02  0.23485751476E+03  0.25142675647E+03  0.77000000000E+02 0.  0.
   -5000001    1    1    2    0    0 -0.25378413507E+02  0.38526585053E+02  0.17573479210E+03  0.19733240683E+03  0.77000000000E+02 0.  0.
<mgrwt>
<rscale>  0 0.18110424E+03</rscale>
<asrwt>0</asrwt>
<pdfrwt beam="1">  1        2 0.66103954E-01 0.18110424E+03</pdfrwt>
<pdfrwt beam="2">  1       -2 0.29359123E-02 0.18110424E+03</pdfrwt>
<totfact> 0.30909073E+04</totfact>
</mgrwt>
</event>
<event>
 4    1  0.4991066E-004  0.2087832E+03  0.7818608E-02  0.1142533E+00
         -2   -1    0    0    0  501 -0.00000000000E+00  0.00000000000E+00  0.18678074931E+02  0.18678075106E+02  0.25500000000E-02 0. -1.
          2   -1    0    0  501    0  0.00000000000E+00 -0.00000000000E+00 -0.58344382768E+03  0.58344382768E+03  0.25500000000E-02 0.  1.
    5000001    1    1    2    0    0  0.41878215805E+02 -0.25545464992E+01 -0.11903024895E+03  0.14784285858E+03  0.77000000000E+02 0.  0.
   -5000001    1    1    2    0    0 -0.41878215805E+02  0.25545464992E+01 -0.44573550379E+03  0.45427904421E+03  0.77000000000E+02 0.  0.
<mgrwt>
<rscale>  0 0.20878321E+03</rscale>
<asrwt>0</asrwt>
<pdfrwt beam="1">  1        2 0.89760575E-01 0.20878321E+03</pdfrwt>
<pdfrwt beam="2">  1       -2 0.28735505E-02 0.20878321E+03</pdfrwt>
<totfact> 0.22959691E+04</totfact>
</mgrwt>
</event>
<event>
 4    1  0.4991066E-004  0.2546436E+03  0.7818608E-02  0.1110405E+00
         -2   -1    0    0    0  501 -0.00000000000E+00  0.00000000000E+00  0.11874538031E+02  0.11874538304E+02  0.25500000000E-02 0. -1.
          2   -1    0    0  501    0  0.00000000000E+00 -0.00000000000E+00 -0.13651768579E+04  0.13651768579E+04  0.25500000000E-02 0.  1.
    5000001    1    1    2    0    0 -0.41089132905E+02  0.82998511988E+02 -0.89993168725E+03  0.90795545681E+03  0.77000000000E+02 0.  0.
   -5000001    1    1    2    0    0  0.41089132905E+02 -0.82998511988E+02 -0.45337063258E+03  0.46909593936E+03  0.77000000000E+02 0.  0.
<mgrwt>
<rscale>  0 0.25464363E+03</rscale>
<asrwt>0</asrwt>
<pdfrwt beam="1">  1        2 0.21002708E+00 0.25464363E+03</pdfrwt>
<pdfrwt beam="2">  1       -2 0.18268531E-02 0.25464363E+03</pdfrwt>
<totfact> 0.14217988E+04</totfact>
</mgrwt>
</event>
<event>
 4    1  0.4991066E-004  0.2078102E+03  0.7818608E-02  0.1143312E+00
          2   -1    0    0  501    0  0.00000000000E+00  0.00000000000E+00  0.86918684061E+03  0.86918684061E+03  0.25500000000E-02 0.  1.
         -2   -1    0    0    0  501 -0.00000000000E+00 -0.00000000000E+00 -0.12421110965E+02  0.12421111227E+02  0.25500000000E-02 0. -1.
    5000001    1    1    2    0    0  0.64300600810E+02  0.25809649201E+02  0.46299423676E+03  0.47444005788E+03  0.77000000000E+02 0.  0.
   -5000001    1    1    2    0    0 -0.64300600810E+02 -0.25809649201E+02  0.39377149289E+03  0.40716789395E+03  0.77000000000E+02 0.  0.
<mgrwt>
<rscale>  0 0.20781017E+03</rscale>
<asrwt>0</asrwt>
<pdfrwt beam="1">  1        2 0.13372105E+00 0.20781017E+03</pdfrwt>
<pdfrwt beam="2">  1       -2 0.19109402E-02 0.20781017E+03</pdfrwt>
<totfact> 0.25752604E+04</totfact>
</mgrwt>
</event>
<event>
 4    1  0.4991066E-004  0.2050803E+03  0.7818608E-02  0.1145522E+00
         -2   -1    0    0    0  501 -0.00000000000E+00  0.00000000000E+00  0.10012510100E+03  0.10012510103E+03  0.25500000000E-02 0. -1.
          2   -1    0    0  501    0  0.00000000000E+00 -0.00000000000E+00 -0.10501343273E+03  0.10501343276E+03  0.25500000000E-02 0.  1.
    5000001    1    1    2    0    0  0.58942695732E+02  0.33183779508E+02  0.73100139515E+00  0.10249360451E+03  0.77000000000E+02 0.  0.
   -5000001    1    1    2    0    0 -0.58942695732E+02 -0.33183779508E+02 -0.56193331247E+01  0.10264492928E+03  0.77000000000E+02 0.  0.
<mgrwt>
<rscale>  0 0.20508028E+03</rscale>
<asrwt>0</asrwt>
<pdfrwt beam="1">  1        2 0.16155913E-01 0.20508028E+03</pdfrwt>
<pdfrwt beam="2">  1       -2 0.15403862E-01 0.20508028E+03</pdfrwt>
<totfact> 0.11318395E+04</totfact>
</mgrwt>
</event>
<event>
 4    1  0.4991066E-004  0.3188704E+03  0.7818608E-02  0.1076170E+00
         -2   -1    0    0    0  501 -0.00000000000E+00  0.00000000000E+00  0.15351259020E+02  0.15351259231E+02  0.25500000000E-02 0. -1.
          2   -1    0    0  501    0  0.00000000000E+00 -0.00000000000E+00 -0.16558628238E+04  0.16558628238E+04  0.25500000000E-02 0.  1.
    5000001    1    1    2    0    0  0.59233295180E+02 -0.10275465887E+03 -0.43428291381E+03  0.45672502931E+03  0.77000000000E+02 0.  0.
   -5000001    1    1    2    0    0 -0.59233295180E+02  0.10275465887E+03 -0.12062286510E+04  0.12144890537E+04  0.77000000000E+02 0.  0.
<mgrwt>
<rscale>  0 0.31887038E+03</rscale>
<asrwt>0</asrwt>
<pdfrwt beam="1">  1        2 0.25474799E+00 0.31887038E+03</pdfrwt>
<pdfrwt beam="2">  1       -2 0.23617335E-02 0.31887038E+03</pdfrwt>
<totfact> 0.68279309E+03</totfact>
</mgrwt>
</event>
<event>
 4    1  0.4991066E-004  0.1959825E+03  0.7818608E-02  0.1153174E+00
          2   -1    0    0  501    0  0.00000000000E+00  0.00000000000E+00  0.42764543239E+02  0.42764543315E+02  0.25500000000E-02 0.  1.
         -2   -1    0    0    0  501 -0.00000000000E+00 -0.00000000000E+00 -0.22453841511E+03  0.22453841513E+03  0.25500000000E-02 0. -1.
    5000001    1    1    2    0    0  0.30535292060E+02  0.46991270748E+02 -0.59407456583E+02  0.11224450760E+03  0.77000000000E+02 0.  0.
   -5000001    1    1    2    0    0 -0.30535292060E+02 -0.46991270748E+02 -0.12236641529E+03  0.15505845085E+03  0.77000000000E+02 0.  0.
<mgrwt>
<rscale>  0 0.19598248E+03</rscale>
<asrwt>0</asrwt>
<pdfrwt beam="1">  1        2 0.65791606E-02 0.19598248E+03</pdfrwt>
<pdfrwt beam="2">  1       -2 0.34544371E-01 0.19598248E+03</pdfrwt>
<totfact> 0.83552441E+03</totfact>
</mgrwt>
</event>
<event>
 4    1  0.4991066E-004  0.2313100E+03  0.7818608E-02  0.1125721E+00
          2   -1    0    0  501    0  0.00000000000E+00  0.00000000000E+00  0.66766849988E+02  0.66766850037E+02  0.25500000000E-02 0.  1.
         -2   -1    0    0    0  501 -0.00000000000E+00 -0.00000000000E+00 -0.20034008052E+03  0.20034008054E+03  0.25500000000E-02 0. -1.
    5000001    1    1    2    0    0 -0.67560184034E+02  0.21874592238E+02 -0.10165805116E+02  0.10523887041E+03  0.77000000000E+02 0.  0.
   -5000001    1    1    2    0    0  0.67560184034E+02 -0.21874592238E+02 -0.12340742542E+03  0.16186806016E+03  0.77000000000E+02 0.  0.
<mgrwt>
<rscale>  0 0.23130997E+03</rscale>
<asrwt>0</asrwt>
<pdfrwt beam="1">  1        2 0.10271823E-01 0.23130997E+03</pdfrwt>
<pdfrwt beam="2">  1       -2 0.30821550E-01 0.23130997E+03</pdfrwt>
<totfact> 0.59271703E+03</totfact>
</mgrwt>
</event>
<event>
 4    1  0.4991066E-004  0.4115434E+03  0.7818608E-02  0.1039854E+00
         -2   -1    0    0    0  501 -0.00000000000E+00  0.00000000000E+00  0.15920380634E+02  0.15920380839E+02  0.25500000000E-02 0. -1.
          2   -1    0    0  501    0  0.00000000000E+00 -0.00000000000E+00 -0.26596098698E+04  0.26596098698E+04  0.25500000000E-02 0.  1.
    5000001    1    1    2    0    0  0.17333412259E+03  0.75965649267E+02 -0.11629298809E+04  0.11807414644E+04  0.77000000000E+02 0.  0.
   -5000001    1    1    2    0    0 -0.17333412259E+03 -0.75965649267E+02 -0.14807596082E+04  0.14947887862E+04  0.77000000000E+02 0.  0.
<mgrwt>
<rscale>  0 0.41154344E+03</rscale>
<asrwt>0</asrwt>
<pdfrwt beam="1">  1        2 0.40917040E+00 0.41154344E+03</pdfrwt>
<pdfrwt beam="2">  1       -2 0.24492915E-02 0.41154344E+03</pdfrwt>
<totfact> 0.18479408E+03</totfact>
</mgrwt>
</event>
<event>
 4    1  0.4991066E-004  0.1703491E+03  0.7818608E-02  0.1177484E+00
          2   -1    0    0  501    0  0.00000000000E+00  0.00000000000E+00  0.59709777586E+03  0.59709777586E+03  0.25500000000E-02 0.  1.
         -2   -1    0    0    0  501 -0.00000000000E+00 -0.00000000000E+00 -0.12149942106E+02  0.12149942373E+02  0.25500000000E-02 0. -1.
    5000001    1    1    2    0    0  0.97693169725E+01  0.31809817480E+02  0.23961967456E+03  0.25387771166E+03  0.77000000000E+02 0.  0.
   -5000001    1    1    2    0    0 -0.97693169725E+01 -0.31809817480E+02  0.34532815919E+03  0.35537000658E+03  0.77000000000E+02 0.  0.
<mgrwt>
<rscale>  0 0.17034909E+03</rscale>
<asrwt>0</asrwt>
<pdfrwt beam="1">  1        2 0.91861184E-01 0.17034909E+03</pdfrwt>
<pdfrwt beam="2">  1       -2 0.18692221E-02 0.17034909E+03</pdfrwt>
<totfact> 0.41341965E+04</totfact>
</mgrwt>
</event>
<event>
 4    1  0.4991066E-004  0.1882959E+03  0.7818608E-02  0.1160007E+00
         -2   -1    0    0    0  501 -0.00000000000E+00  0.00000000000E+00  0.79501882216E+02  0.79501882257E+02  0.25500000000E-02 0. -1.
          2   -1    0    0  501    0  0.00000000000E+00 -0.00000000000E+00 -0.11149213826E+03  0.11149213829E+03  0.25500000000E-02 0.  1.
    5000001    1    1    2    0    0  0.46088023425E+01  0.52930678738E+02 -0.52634939416E+01  0.93699531371E+02  0.77000000000E+02 0.  0.
   -5000001    1    1    2    0    0 -0.46088023425E+01 -0.52930678738E+02 -0.26726762099E+02  0.97294489171E+02  0.77000000000E+02 0.  0.
<mgrwt>
<rscale>  0 0.18829588E+03</rscale>
<asrwt>0</asrwt>
<pdfrwt beam="1">  1        2 0.17152637E-01 0.18829588E+03</pdfrwt>
<pdfrwt beam="2">  1       -2 0.12231059E-01 0.18829588E+03</pdfrwt>
<totfact> 0.15277721E+04</totfact>
</mgrwt>
</event>
<event>
 4    1  0.4991066E-004  0.2968389E+03  0.7818608E-02  0.1086832E+00
          2   -1    0    0  501    0  0.00000000000E+00  0.00000000000E+00  0.10855159599E+04  0.10855159599E+04  0.25500000000E-02 0.  1.
         -2   -1    0    0    0  501 -0.00000000000E+00 -0.00000000000E+00 -0.20292961890E+02  0.20292962050E+02  0.25500000000E-02 0. -1.
    5000001    1    1    2    0    0  0.66212816107E+02  0.93499459079E+02  0.73573503303E+03  0.74857285864E+03  0.77000000000E+02 0.  0.
   -5000001    1    1    2    0    0 -0.66212816107E+02 -0.93499459079E+02  0.32948796498E+03  0.35723606331E+03  0.77000000000E+02 0.  0.
<mgrwt>
<rscale>  0 0.29683891E+03</rscale>
<asrwt>0</asrwt>
<pdfrwt beam="1">  1        2 0.16700243E+00 0.29683891E+03</pdfrwt>
<pdfrwt beam="2">  1       -2 0.31219946E-02 0.29683891E+03</pdfrwt>
<totfact> 0.93053557E+03</totfact>
</mgrwt>
</event>
<event>
 4    1  0.4991066E-004  0.2404601E+03  0.7818608E-02  0.1119487E+00
          2   -1    0    0  501    0  0.00000000000E+00  0.00000000000E+00  0.13947246268E+03  0.13947246271E+03  0.25500000000E-02 0.  1.
         -2   -1    0    0    0  501 -0.00000000000E+00 -0.00000000000E+00 -0.10364242397E+03  0.10364242400E+03  0.25500000000E-02 0. -1.
    5000001    1    1    2    0    0 -0.30384917110E+02  0.49041975716E+02  0.90807500532E+02  0.13230026728E+03  0.77000000000E+02 0.  0.
   -5000001    1    1    2    0    0  0.30384917110E+02 -0.49041975716E+02 -0.54977461815E+02  0.11081461942E+03  0.77000000000E+02 0.  0.
<mgrwt>
<rscale>  0 0.24046009E+03</rscale>
<asrwt>0</asrwt>
<pdfrwt beam="1">  1        2 0.21457302E-01 0.24046009E+03</pdfrwt>
<pdfrwt beam="2">  1       -2 0.15944988E-01 0.24046009E+03</pdfrwt>
<totfact> 0.77808994E+03</totfact>
</mgrwt>
</event>
<event>
 4    1  0.4991066E-004  0.2672403E+03  0.7818608E-02  0.1102870E+00
         -2   -1    0    0    0  501 -0.00000000000E+00  0.00000000000E+00  0.10796831581E+03  0.10796831584E+03  0.25500000000E-02 0. -1.
          2   -1    0    0  501    0  0.00000000000E+00 -0.00000000000E+00 -0.16536648868E+03  0.16536648870E+03  0.25500000000E-02 0.  1.
    5000001    1    1    2    0    0  0.37820318509E+02 -0.91857118512E+02 -0.75090214178E+02  0.14640917655E+03  0.77000000000E+02 0.  0.
   -5000001    1    1    2    0    0 -0.37820318509E+02  0.91857118512E+02  0.17692041303E+02  0.12692562798E+03  0.77000000000E+02 0.  0.
<mgrwt>
<rscale>  0 0.26724028E+03</rscale>
<asrwt>0</asrwt>
<pdfrwt beam="1">  1        2 0.25440998E-01 0.26724028E+03</pdfrwt>
<pdfrwt beam="2">  1       -2 0.16610510E-01 0.26724028E+03</pdfrwt>
<totfact> 0.60295984E+03</totfact>
</mgrwt>
</event>
<event>
 4    1  0.4991066E-004  0.8219813E+03  0.7818608E-02  0.9528734E-01
         -2   -1    0    0    0  501 -0.00000000000E+00  0.00000000000E+00  0.10181076133E+04  0.10181076133E+04  0.25500000000E-02 0. -1.
          2   -1    0    0  501    0  0.00000000000E+00 -0.00000000000E+00 -0.16590910110E+03  0.16590910111E+03  0.25500000000E-02 0.  1.
    5000001    1    1    2    0    0  0.28671647045E+03 -0.27319448243E+03  0.53899501798E+03  0.67326531848E+03  0.77000000000E+02 0.  0.
   -5000001    1    1    2    0    0 -0.28671647045E+03  0.27319448243E+03  0.31320349423E+03  0.51075139594E+03  0.77000000000E+02 0.  0.
<mgrwt>
<rscale>  0 0.82198131E+03</rscale>
<asrwt>0</asrwt>
<pdfrwt beam="1">  1        2 0.25524477E-01 0.82198131E+03</pdfrwt>
<pdfrwt beam="2">  1       -2 0.15663194E+00 0.82198131E+03</pdfrwt>
<totfact> 0.57545803E+01</totfact>
</mgrwt>
</event>
<event>
 4    1  0.4991066E-004  0.1843457E+03  0.7818608E-02  0.1163662E+00
          2   -1    0    0  501    0  0.00000000000E+00  0.00000000000E+00  0.12615111006E+03  0.12615111009E+03  0.25500000000E-02 0.  1.
         -2   -1    0    0    0  501 -0.00000000000E+00 -0.00000000000E+00 -0.67346468622E+02  0.67346468671E+02  0.25500000000E-02 0. -1.
    5000001    1    1    2    0    0  0.34968348866E+02 -0.20491335515E+02 -0.25067517389E+01  0.87051502330E+02  0.77000000000E+02 0.  0.
   -5000001    1    1    2    0    0 -0.34968348866E+02  0.20491335515E+02  0.61311393180E+02  0.10644607643E+03  0.77000000000E+02 0.  0.
<mgrwt>
<rscale>  0 0.18434567E+03</rscale>
<asrwt>0</asrwt>
<pdfrwt beam="1">  1        2 0.19407863E-01 0.18434567E+03</pdfrwt>
<pdfrwt beam="2">  1       -2 0.10360995E-01 0.18434567E+03</pdfrwt>
<totfact> 0.17243944E+04</totfact>
</mgrwt>
</event>
<event>
 4    1  0.4991066E-004  0.2929528E+03  0.7818608E-02  0.1088817E+00
         -2   -1    0    0    0  501 -0.00000000000E+00  0.00000000000E+00  0.86352272377E+02  0.86352272414E+02  0.25500000000E-02 0. -1.
          2   -1    0    0  501    0  0.00000000000E+00 -0.00000000000E+00 -0.24846287628E+03  0.24846287629E+03  0.25500000000E-02 0.  1.
    5000001    1    1    2    0    0 -0.48551951412E+02  0.44491260793E+02  0.39841317497E+02  0.10887191949E+03  0.77000000000E+02 0.  0.
   -5000001    1    1    2    0    0  0.48551951412E+02 -0.44491260793E+02 -0.20195192140E+03  0.22594322922E+03  0.77000000000E+02 0.  0.
<mgrwt>
<rscale>  0 0.29295279E+03</rscale>
<asrwt>0</asrwt>
<pdfrwt beam="1">  1        2 0.38225058E-01 0.29295279E+03</pdfrwt>
<pdfrwt beam="2">  1       -2 0.13284965E-01 0.29295279E+03</pdfrwt>
<totfact> 0.55981873E+03</totfact>
</mgrwt>
</event>
<event>
 4    1  0.4991066E-004  0.2529154E+03  0.7818608E-02  0.1111476E+00
         -2   -1    0    0    0  501 -0.00000000000E+00  0.00000000000E+00  0.73721755520E+03  0.73721755521E+03  0.25500000000E-02 0. -1.
          2   -1    0    0  501    0  0.00000000000E+00 -0.00000000000E+00 -0.21691768361E+02  0.21691768510E+02  0.25500000000E-02 0.  1.
    5000001    1    1    2    0    0 -0.68116461958E+02 -0.29380627351E+02  0.15514761943E+03  0.18842201959E+03  0.77000000000E+02 0.  0.
   -5000001    1    1    2    0    0  0.68116461958E+02  0.29380627351E+02  0.56037816742E+03  0.57048730413E+03  0.77000000000E+02 0.  0.
<mgrwt>
<rscale>  0 0.25291542E+03</rscale>
<asrwt>0</asrwt>
<pdfrwt beam="1">  1        2 0.33371954E-02 0.25291542E+03</pdfrwt>
<pdfrwt beam="2">  1       -2 0.11341808E+00 0.25291542E+03</pdfrwt>
<totfact> 0.17169433E+03</totfact>
</mgrwt>
</event>
<event>
 4    1  0.4991066E-004  0.1740938E+03  0.7818608E-02  0.1173645E+00
          2   -1    0    0  501    0  0.00000000000E+00  0.00000000000E+00  0.25450155235E+04  0.25450155235E+04  0.25500000000E-02 0.  1.
         -2   -1    0    0    0  501 -0.00000000000E+00 -0.00000000000E+00 -0.29772552475E+01  0.29772563395E+01  0.25500000000E-02 0. -1.
    5000001    1    1    2    0    0 -0.17804990143E+02 -0.27889089316E+02  0.16152994626E+04  0.16174721552E+04  0.77000000000E+02 0.  0.
   -5000001    1    1    2    0    0  0.17804990143E+02  0.27889089316E+02  0.92673880571E+03  0.93052062470E+03  0.77000000000E+02 0.  0.
<mgrwt>
<rscale>  0 0.17409379E+03</rscale>
<asrwt>0</asrwt>
<pdfrwt beam="1">  1        2 0.39154061E+00 0.17409379E+03</pdfrwt>
<pdfrwt beam="2">  1       -2 0.45803964E-03 0.17409379E+03</pdfrwt>
<totfact> 0.24609327E+04</totfact>
</mgrwt>
</event>
<event>
 4    1  0.4991066E-004  0.1602882E+03  0.7818608E-02  0.1188372E+00
         -2   -1    0    0    0  501 -0.00000000000E+00  0.00000000000E+00  0.51819337230E+02  0.51819337293E+02  0.25500000000E-02 0. -1.
          2   -1    0    0  501    0  0.00000000000E+00 -0.00000000000E+00 -0.12395136267E+03  0.12395136270E+03  0.25500000000E-02 0.  1.
    5000001    1    1    2    0    0 -0.34323502243E+01 -0.21934058767E+02 -0.37264014970E+02  0.88376981017E+02  0.77000000000E+02 0.  0.
   -5000001    1    1    2    0    0  0.34323502243E+01  0.21934058767E+02 -0.34868010473E+02  0.87393718976E+02  0.77000000000E+02 0.  0.
<mgrwt>
<rscale>  0 0.16028821E+03</rscale>
<asrwt>0</asrwt>
<pdfrwt beam="1">  1        2 0.19069440E-01 0.16028821E+03</pdfrwt>
<pdfrwt beam="2">  1       -2 0.79722058E-02 0.16028821E+03</pdfrwt>
<totfact> 0.26201133E+04</totfact>
</mgrwt>
</event>
<event>
 4    1  0.4991066E-004  0.1754124E+03  0.7818608E-02  0.1172318E+00
          2   -1    0    0  501    0  0.00000000000E+00  0.00000000000E+00  0.15210742707E+02  0.15210742921E+02  0.25500000000E-02 0.  1.
         -2   -1    0    0    0  501 -0.00000000000E+00 -0.00000000000E+00 -0.50572011357E+03  0.50572011357E+03  0.25500000000E-02 0. -1.
    5000001    1    1    2    0    0 -0.39938001583E+02 -0.12200726119E+02 -0.25836097212E+03  0.27280632984E+03  0.77000000000E+02 0.  0.
   -5000001    1    1    2    0    0  0.39938001583E+02  0.12200726119E+02 -0.23214839874E+03  0.24812452665E+03  0.77000000000E+02 0.  0.
<mgrwt>
<rscale>  0 0.17541241E+03</rscale>
<asrwt>0</asrwt>
<pdfrwt beam="1">  1        2 0.23401147E-02 0.17541241E+03</pdfrwt>
<pdfrwt beam="2">  1       -2 0.77803082E-01 0.17541241E+03</pdfrwt>
<totfact> 0.64382797E+03</totfact>
</mgrwt>
</event>
<event>
 4    1  0.4991066E-004  0.2307349E+03  0.7818608E-02  0.1126124E+00
          2   -1    0    0  501    0  0.00000000000E+00  0.00000000000E+00  0.14466681673E+04  0.14466681673E+04  0.25500000000E-02 0.  1.
         -2   -1    0    0    0  501 -0.00000000000E+00 -0.00000000000E+00 -0.92002067787E+01  0.92002071321E+01  0.25500000000E-02 0. -1.
    5000001    1    1    2    0    0 -0.69990702248E+02  0.48630083399E+02  0.65046570772E+03  0.66052874300E+03  0.77000000000E+02 0.  0.
   -5000001    1    1    2    0    0  0.69990702248E+02 -0.48630083399E+02  0.78700225283E+03  0.79533963146E+03  0.77000000000E+02 0.  0.
<mgrwt>
<rscale>  0 0.23073488E+03</rscale>
<asrwt>0</asrwt>
<pdfrwt beam="1">  1        2 0.22256434E+00 0.23073488E+03</pdfrwt>
<pdfrwt beam="2">  1       -2 0.14154164E-02 0.23073488E+03</pdfrwt>
<totfact> 0.18583322E+04</totfact>
</mgrwt>
</event>
<event>
 4    1  0.4991066E-004  0.1720070E+03  0.7818608E-02  0.1175771E+00
          2   -1    0    0  501    0  0.00000000000E+00  0.00000000000E+00  0.21159450834E+04  0.21159450834E+04  0.25500000000E-02 0.  1.
         -2   -1    0    0    0  501 -0.00000000000E+00 -0.00000000000E+00 -0.34956501468E+01  0.34956510769E+01  0.25500000000E-02 0. -1.
    5000001    1    1    2    0    0  0.35069803133E+02 -0.13963100806E+02  0.97566460926E+03  0.97942599977E+03  0.77000000000E+02 0.  0.
   -5000001    1    1    2    0    0 -0.35069803133E+02  0.13963100806E+02  0.11367848240E+04  0.11400147347E+04  0.77000000000E+02 0.  0.
<mgrwt>
<rscale>  0 0.17200703E+03</rscale>
<asrwt>0</asrwt>
<pdfrwt beam="1">  1        2 0.32552955E+00 0.17200703E+03</pdfrwt>
<pdfrwt beam="2">  1       -2 0.53779317E-03 0.17200703E+03</pdfrwt>
<totfact> 0.33025554E+04</totfact>
</mgrwt>
</event>
<event>
 4    1  0.4991066E-004  0.3828626E+03  0.7818608E-02  0.1049881E+00
          2   -1    0    0  501    0  0.00000000000E+00  0.00000000000E+00  0.10155975742E+04  0.10155975742E+04  0.25500000000E-02 0.  1.
         -2   -1    0    0    0  501 -0.00000000000E+00 -0.00000000000E+00 -0.36083125775E+02  0.36083125865E+02  0.25500000000E-02 0. -1.
    5000001    1    1    2    0    0  0.98027129939E+02  0.14525144278E+03  0.48123070331E+03  0.51789891836E+03  0.77000000000E+02 0.  0.
   -5000001    1    1    2    0    0 -0.98027129939E+02 -0.14525144278E+03  0.49828374509E+03  0.53378178168E+03  0.77000000000E+02 0.  0.
<mgrwt>
<rscale>  0 0.38286256E+03</rscale>
<asrwt>0</asrwt>
<pdfrwt beam="1">  1        2 0.15624578E+00 0.38286256E+03</pdfrwt>
<pdfrwt beam="2">  1       -2 0.55512500E-02 0.38286256E+03</pdfrwt>
<totfact> 0.43028883E+03</totfact>
</mgrwt>
</event>
<event>
 4    1  0.4991066E-004  0.2385706E+03  0.7818608E-02  0.1120749E+00
          2   -1    0    0  501    0  0.00000000000E+00  0.00000000000E+00  0.65380980364E+03  0.65380980365E+03  0.25500000000E-02 0.  1.
         -2   -1    0    0    0  501 -0.00000000000E+00 -0.00000000000E+00 -0.21763188336E+02  0.21763188486E+02  0.25500000000E-02 0. -1.
    5000001    1    1    2    0    0 -0.34756282967E+02  0.65202723949E+02  0.16509882283E+03  0.19658589907E+03  0.77000000000E+02 0.  0.
   -5000001    1    1    2    0    0  0.34756282967E+02 -0.65202723949E+02  0.46694779248E+03  0.47898709306E+03  0.77000000000E+02 0.  0.
<mgrwt>
<rscale>  0 0.23857063E+03</rscale>
<asrwt>0</asrwt>
<pdfrwt beam="1">  1        2 0.10058612E+00 0.23857063E+03</pdfrwt>
<pdfrwt beam="2">  1       -2 0.33481830E-02 0.23857063E+03</pdfrwt>
<totfact> 0.16155324E+04</totfact>
</mgrwt>
</event>
<event>
 4    1  0.4991066E-004  0.1808464E+03  0.7818608E-02  0.1166986E+00
          2   -1    0    0  501    0  0.00000000000E+00  0.00000000000E+00  0.29077729460E+03  0.29077729461E+03  0.25500000000E-02 0.  1.
         -2   -1    0    0    0  501 -0.00000000000E+00 -0.00000000000E+00 -0.28118948563E+02  0.28118948679E+02  0.25500000000E-02 0. -1.
    5000001    1    1    2    0    0  0.23331150234E+02 -0.39979591532E+02  0.11329103935E+03  0.14459104366E+03  0.77000000000E+02 0.  0.
   -5000001    1    1    2    0    0 -0.23331150234E+02  0.39979591532E+02  0.14936730668E+03  0.17430519963E+03  0.77000000000E+02 0.  0.
<mgrwt>
<rscale>  0 0.18084636E+03</rscale>
<asrwt>0</asrwt>
<pdfrwt beam="1">  1        2 0.44734966E-01 0.18084636E+03</pdfrwt>
<pdfrwt beam="2">  1       -2 0.43259923E-02 0.18084636E+03</pdfrwt>
<totfact> 0.26388393E+04</totfact>
</mgrwt>
</event>
<event>
 4    1  0.4991066E-004  0.2071135E+03  0.7818608E-02  0.1143872E+00
         -2   -1    0    0    0  501 -0.00000000000E+00  0.00000000000E+00  0.52141638653E+01  0.52141644888E+01  0.25500000000E-02 0. -1.
          2   -1    0    0  501    0  0.00000000000E+00 -0.00000000000E+00 -0.20567045777E+04  0.20567045777E+04  0.25500000000E-02 0.  1.
    5000001    1    1    2    0    0 -0.41462770451E+02 -0.28870038459E+01 -0.47435954049E+03  0.48236238429E+03  0.77000000000E+02 0.  0.
   -5000001    1    1    2    0    0  0.41462770451E+02  0.28870038459E+01 -0.15771308733E+04  0.15795563579E+04  0.77000000000E+02 0.  0.
<mgrwt>
<rscale>  0 0.20711345E+03</rscale>
<asrwt>0</asrwt>
<pdfrwt beam="1">  1        2 0.31641544E+00 0.20711345E+03</pdfrwt>
<pdfrwt beam="2">  1       -2 0.80218074E-03 0.20711345E+03</pdfrwt>
<totfact> 0.20164631E+04</totfact>
</mgrwt>
</event>
<event>
 4    1  0.4991066E-004  0.2087431E+03  0.7818608E-02  0.1142565E+00
         -2   -1    0    0    0  501 -0.00000000000E+00  0.00000000000E+00  0.91226971925E+02  0.91226971961E+02  0.25500000000E-02 0. -1.
          2   -1    0    0  501    0  0.00000000000E+00 -0.00000000000E+00 -0.11941006829E+03  0.11941006832E+03  0.25500000000E-02 0.  1.
    5000001    1    1    2    0    0 -0.79043403703E+01  0.66229235260E+02 -0.37005036411E+02  0.10838432968E+03  0.77000000000E+02 0.  0.
   -5000001    1    1    2    0    0  0.79043403703E+01 -0.66229235260E+02  0.88219400430E+01  0.10225271060E+03  0.77000000000E+02 0.  0.
<mgrwt>
<rscale>  0 0.20874309E+03</rscale>
<asrwt>0</asrwt>
<pdfrwt beam="1">  1        2 0.18370780E-01 0.20874309E+03</pdfrwt>
<pdfrwt beam="2">  1       -2 0.14034919E-01 0.20874309E+03</pdfrwt>
<totfact> 0.11372985E+04</totfact>
</mgrwt>
</event>
<event>
 4    1  0.4991066E-004  0.1642858E+03  0.7818608E-02  0.1183941E+00
         -2   -1    0    0    0  501 -0.00000000000E+00  0.00000000000E+00  0.24702613631E+02  0.24702613762E+02  0.25500000000E-02 0. -1.
          2   -1    0    0  501    0  0.00000000000E+00 -0.00000000000E+00 -0.27314744355E+03  0.27314744356E+03  0.25500000000E-02 0.  1.
    5000001    1    1    2    0    0  0.22053281632E+00  0.27534405159E+02 -0.11014815728E+03  0.13718530772E+03  0.77000000000E+02 0.  0.
   -5000001    1    1    2    0    0 -0.22053281632E+00 -0.27534405159E+02 -0.13829667264E+03  0.16066474961E+03  0.77000000000E+02 0.  0.
<mgrwt>
<rscale>  0 0.16428580E+03</rscale>
<asrwt>0</asrwt>
<pdfrwt beam="1">  1        2 0.42022682E-01 0.16428580E+03</pdfrwt>
<pdfrwt beam="2">  1       -2 0.38004023E-02 0.16428580E+03</pdfrwt>
<totfact> 0.33931817E+04</totfact>
</mgrwt>
</event>
<event>
 4    1  0.4991066E-004  0.3105902E+03  0.7818608E-02  0.1080063E+00
          2   -1    0    0  501    0  0.00000000000E+00  0.00000000000E+00  0.28130126324E+02  0.28130126439E+02  0.25500000000E-02 0.  1.
         -2   -1    0    0    0  501 -0.00000000000E+00 -0.00000000000E+00 -0.85732197209E+03  0.85732197210E+03  0.25500000000E-02 0. -1.
    5000001    1    1    2    0    0 -0.11608520463E+02 -0.71070378796E+02 -0.89524109485E+02  0.13830879462E+03  0.77000000000E+02 0.  0.
   -5000001    1    1    2    0    0  0.11608520463E+02  0.71070378796E+02 -0.73966773629E+03  0.74714330392E+03  0.77000000000E+02 0.  0.
<mgrwt>
<rscale>  0 0.31059025E+03</rscale>
<asrwt>0</asrwt>
<pdfrwt beam="1">  1        2 0.43277124E-02 0.31059025E+03</pdfrwt>
<pdfrwt beam="2">  1       -2 0.13189567E+00 0.31059025E+03</pdfrwt>
<totfact> 0.84136835E+02</totfact>
</mgrwt>
</event>
<event>
 4    1  0.4991066E-004  0.2468084E+03  0.7818608E-02  0.1115339E+00
          2   -1    0    0  501    0  0.00000000000E+00  0.00000000000E+00  0.15592403122E+03  0.15592403124E+03  0.25500000000E-02 0.  1.
         -2   -1    0    0    0  501 -0.00000000000E+00 -0.00000000000E+00 -0.97666767331E+02  0.97666767364E+02  0.25500000000E-02 0. -1.
    5000001    1    1    2    0    0 -0.34982463709E+02  0.27800419996E+02  0.11693439507E+03  0.14696696523E+03  0.77000000000E+02 0.  0.
   -5000001    1    1    2    0    0  0.34982463709E+02 -0.27800419996E+02 -0.58677131182E+02  0.10662383337E+03  0.77000000000E+02 0.  0.
<mgrwt>
<rscale>  0 0.24680840E+03</rscale>
<asrwt>0</asrwt>
<pdfrwt beam="1">  1        2 0.23988313E-01 0.24680840E+03</pdfrwt>
<pdfrwt beam="2">  1       -2 0.15025656E-01 0.24680840E+03</pdfrwt>
<totfact> 0.75800783E+03</totfact>
</mgrwt>
</event>
<event>
 4    1  0.4991066E-004  0.4596020E+03  0.7818608E-02  0.1024897E+00
          2   -1    0    0  501    0  0.00000000000E+00  0.00000000000E+00  0.40464889188E+04  0.40464889188E+04  0.25500000000E-02 0.  1.
         -2   -1    0    0    0  501 -0.00000000000E+00 -0.00000000000E+00 -0.13050450613E+02  0.13050450862E+02  0.25500000000E-02 0. -1.
    5000001    1    1    2    0    0  0.21881546967E+02  0.19250118355E+03  0.11629093803E+04  0.11814494211E+04  0.77000000000E+02 0.  0.
   -5000001    1    1    2    0    0 -0.21881546967E+02 -0.19250118355E+03  0.28705290878E+04  0.28780899485E+04  0.77000000000E+02 0.  0.
<mgrwt>
<rscale>  0 0.45960202E+03</rscale>
<asrwt>0</asrwt>
<pdfrwt beam="1">  1        2 0.62253720E+00 0.45960202E+03</pdfrwt>
<pdfrwt beam="2">  1       -2 0.20077602E-02 0.45960202E+03</pdfrwt>
<totfact> 0.30180548E+02</totfact>
</mgrwt>
</event>
<event>
 4    1  0.4991066E-004  0.2357574E+03  0.7818608E-02  0.1122652E+00
         -2   -1    0    0    0  501 -0.00000000000E+00  0.00000000000E+00  0.35477546131E+03  0.35477546132E+03  0.25500000000E-02 0. -1.
          2   -1    0    0  501    0  0.00000000000E+00 -0.00000000000E+00 -0.39166694728E+02  0.39166694811E+02  0.25500000000E-02 0.  1.
    5000001    1    1    2    0    0  0.86475282941E+02 -0.10118786643E+02  0.19063438326E+03  0.22327299990E+03  0.77000000000E+02 0.  0.
   -5000001    1    1    2    0    0 -0.86475282941E+02  0.10118786643E+02  0.12497438333E+03  0.17066915624E+03  0.77000000000E+02 0.  0.
<mgrwt>
<rscale>  0 0.23575735E+03</rscale>
<asrwt>0</asrwt>
<pdfrwt beam="1">  1        2 0.60256454E-02 0.23575735E+03</pdfrwt>
<pdfrwt beam="2">  1       -2 0.54580840E-01 0.23575735E+03</pdfrwt>
<totfact> 0.39013313E+03</totfact>
</mgrwt>
</event>
<event>
 4    1  0.4991066E-004  0.2461857E+03  0.7818608E-02  0.1115739E+00
          2   -1    0    0  501    0  0.00000000000E+00  0.00000000000E+00  0.16670482138E+04  0.16670482138E+04  0.25500000000E-02 0.  1.
         -2   -1    0    0    0  501 -0.00000000000E+00 -0.00000000000E+00 -0.90890287235E+01  0.90890290812E+01  0.25500000000E-02 0. -1.
    5000001    1    1    2    0    0  0.59077138079E+02  0.75010481380E+02  0.89913243849E+03  0.90746064515E+03  0.77000000000E+02 0.  0.
   -5000001    1    1    2    0    0 -0.59077138079E+02 -0.75010481380E+02  0.75882674663E+03  0.76867659777E+03  0.77000000000E+02 0.  0.
<mgrwt>
<rscale>  0 0.24618570E+03</rscale>
<asrwt>0</asrwt>
<pdfrwt beam="1">  1        2 0.25646914E+00 0.24618570E+03</pdfrwt>
<pdfrwt beam="2">  1       -2 0.13983111E-02 0.24618570E+03</pdfrwt>
<totfact> 0.14488948E+04</totfact>
</mgrwt>
</event>
<event>
 4    1  0.4991066E-004  0.1898542E+03  0.7818608E-02  0.1158593E+00
          2   -1    0    0  501    0  0.00000000000E+00  0.00000000000E+00  0.25604568652E+03  0.25604568653E+03  0.25500000000E-02 0.  1.
         -2   -1    0    0    0  501 -0.00000000000E+00 -0.00000000000E+00 -0.35193536519E+02  0.35193536611E+02  0.25500000000E-02 0. -1.
    5000001    1    1    2    0    0 -0.18529455425E+02  0.48935920934E+02  0.13888146512E+03  0.16719786610E+03  0.77000000000E+02 0.  0.
   -5000001    1    1    2    0    0  0.18529455425E+02 -0.48935920934E+02  0.81970684879E+02  0.12404135704E+03  0.77000000000E+02 0.  0.
<mgrwt>
<rscale>  0 0.18985419E+03</rscale>
<asrwt>0</asrwt>
<pdfrwt beam="1">  1        2 0.39391643E-01 0.18985419E+03</pdfrwt>
<pdfrwt beam="2">  1       -2 0.54143904E-02 0.18985419E+03</pdfrwt>
<totfact> 0.21639159E+04</totfact>
</mgrwt>
</event>
<event>
 4    1  0.4991066E-004  0.2134480E+03  0.7818608E-02  0.1138864E+00
         -2   -1    0    0    0  501 -0.00000000000E+00  0.00000000000E+00  0.11599729806E+02  0.11599730086E+02  0.25500000000E-02 0. -1.
          2   -1    0    0  501    0  0.00000000000E+00 -0.00000000000E+00 -0.98192054400E+03  0.98192054400E+03  0.25500000000E-02 0.  1.
    5000001    1    1    2    0    0 -0.17468089392E+02  0.45269756106E+02 -0.22572916546E+03  0.24338681374E+03  0.77000000000E+02 0.  0.
   -5000001    1    1    2    0    0  0.17468089392E+02 -0.45269756106E+02 -0.74459164874E+03  0.75013346035E+03  0.77000000000E+02 0.  0.
<mgrwt>
<rscale>  0 0.21344801E+03</rscale>
<asrwt>0</asrwt>
<pdfrwt beam="1">  1        2 0.15106463E+00 0.21344801E+03</pdfrwt>
<pdfrwt beam="2">  1       -2 0.17845746E-02 0.21344801E+03</pdfrwt>
<totfact> 0.24195387E+04</totfact>
</mgrwt>
</event>
<event>
 4    1  0.4991066E-004  0.3706836E+03  0.7818608E-02  0.1054432E+00
         -2   -1    0    0    0  501 -0.00000000000E+00  0.00000000000E+00  0.10487604019E+03  0.10487604022E+03  0.25500000000E-02 0. -1.
          2   -1    0    0  501    0  0.00000000000E+00 -0.00000000000E+00 -0.32754460715E+03  0.32754460716E+03  0.25500000000E-02 0.  1.
    5000001    1    1    2    0    0  0.15578404904E+03  0.56430336625E+02 -0.14765742181E+03  0.23491438237E+03  0.77000000000E+02 0.  0.
   -5000001    1    1    2    0    0 -0.15578404904E+03 -0.56430336625E+02 -0.75011145146E+02  0.19750626502E+03  0.77000000000E+02 0.  0.
<mgrwt>
<rscale>  0 0.37068359E+03</rscale>
<asrwt>0</asrwt>
<pdfrwt beam="1">  1        2 0.50391478E-01 0.37068359E+03</pdfrwt>
<pdfrwt beam="2">  1       -2 0.16134775E-01 0.37068359E+03</pdfrwt>
<totfact> 0.30253405E+03</totfact>
</mgrwt>
</event>
<event>
 4    1  0.4991066E-004  0.2489260E+03  0.7818608E-02  0.1113985E+00
          2   -1    0    0  501    0  0.00000000000E+00  0.00000000000E+00  0.47498659869E+03  0.47498659869E+03  0.25500000000E-02 0.  1.
         -2   -1    0    0    0  501 -0.00000000000E+00 -0.00000000000E+00 -0.32613640955E+02  0.32613641055E+02  0.25500000000E-02 0. -1.
    5000001    1    1    2    0    0 -0.81234063435E+02  0.47430539734E+02  0.27565205325E+03  0.30126679807E+03  0.77000000000E+02 0.  0.
   -5000001    1    1    2    0    0  0.81234063435E+02 -0.47430539734E+02  0.16672090448E+03  0.20633344168E+03  0.77000000000E+02 0.  0.
<mgrwt>
<rscale>  0 0.24892603E+03</rscale>
<asrwt>0</asrwt>
<pdfrwt beam="1">  1        2 0.73074864E-01 0.24892603E+03</pdfrwt>
<pdfrwt beam="2">  1       -2 0.50174831E-02 0.24892603E+03</pdfrwt>
<totfact> 0.12690230E+04</totfact>
</mgrwt>
</event>
<event>
 4    1  0.4991066E-004  0.2636699E+03  0.7818608E-02  0.1104958E+00
          2   -1    0    0  501    0  0.00000000000E+00  0.00000000000E+00  0.11929385831E+03  0.11929385834E+03  0.25500000000E-02 0.  1.
         -2   -1    0    0    0  501 -0.00000000000E+00 -0.00000000000E+00 -0.14569443308E+03  0.14569443310E+03  0.25500000000E-02 0. -1.
    5000001    1    1    2    0    0 -0.10374574844E+03  0.91412624615E+01  0.11513485308E+02  0.13003193201E+03  0.77000000000E+02 0.  0.
   -5000001    1    1    2    0    0  0.10374574844E+03 -0.91412624615E+01 -0.37914060073E+02  0.13495635943E+03  0.77000000000E+02 0.  0.
<mgrwt>
<rscale>  0 0.26366988E+03</rscale>
<asrwt>0</asrwt>
<pdfrwt beam="1">  1        2 0.18352901E-01 0.26366988E+03</pdfrwt>
<pdfrwt beam="2">  1       -2 0.22414528E-01 0.26366988E+03</pdfrwt>
<totfact> 0.52419095E+03</totfact>
</mgrwt>
</event>
<event>
 4    1  0.4991066E-004  0.1899119E+03  0.7818608E-02  0.1158541E+00
          2   -1    0    0  501    0  0.00000000000E+00  0.00000000000E+00  0.47288374947E+02  0.47288375016E+02  0.25500000000E-02 0.  1.
         -2   -1    0    0    0  501 -0.00000000000E+00 -0.00000000000E+00 -0.19067329257E+03  0.19067329259E+03  0.25500000000E-02 0. -1.
    5000001    1    1    2    0    0  0.37800858403E+02  0.40078034448E+02 -0.80769346921E+02  0.12445015526E+03  0.77000000000E+02 0.  0.
   -5000001    1    1    2    0    0 -0.37800858403E+02 -0.40078034448E+02 -0.62615570703E+02  0.11351151235E+03  0.77000000000E+02 0.  0.
<mgrwt>
<rscale>  0 0.18991188E+03</rscale>
<asrwt>0</asrwt>
<pdfrwt beam="1">  1        2 0.72751347E-02 0.18991188E+03</pdfrwt>
<pdfrwt beam="2">  1       -2 0.29334352E-01 0.18991188E+03</pdfrwt>
<totfact> 0.98786769E+03</totfact>
</mgrwt>
</event>
<event>
 4    1  0.4991066E-004  0.1885523E+03  0.7818608E-02  0.1159774E+00
         -2   -1    0    0    0  501 -0.00000000000E+00  0.00000000000E+00  0.15404363858E+02  0.15404364069E+02  0.25500000000E-02 0. -1.
          2   -1    0    0  501    0  0.00000000000E+00 -0.00000000000E+00 -0.57697888689E+03  0.57697888689E+03  0.25500000000E-02 0.  1.
    5000001    1    1    2    0    0 -0.19526077458E+02 -0.49952599130E+02 -0.30931716291E+03  0.32323774089E+03  0.77000000000E+02 0.  0.
   -5000001    1    1    2    0    0  0.19526077458E+02  0.49952599130E+02 -0.25225736011E+03  0.26914551007E+03  0.77000000000E+02 0.  0.
<mgrwt>
<rscale>  0 0.18855230E+03</rscale>
<asrwt>0</asrwt>
<pdfrwt beam="1">  1        2 0.88765965E-01 0.18855230E+03</pdfrwt>
<pdfrwt beam="2">  1       -2 0.23699026E-02 0.18855230E+03</pdfrwt>
<totfact> 0.30657226E+04</totfact>
</mgrwt>
</event>
<event>
 4    1  0.4991066E-004  0.2437016E+03  0.7818608E-02  0.1117351E+00
          2   -1    0    0  501    0  0.00000000000E+00  0.00000000000E+00  0.39489605347E+03  0.39489605348E+03  0.25500000000E-02 0.  1.
         -2   -1    0    0    0  501 -0.00000000000E+00 -0.00000000000E+00 -0.37598783899E+02  0.37598783986E+02  0.25500000000E-02 0. -1.
    5000001    1    1    2    0    0  0.46086410366E+02  0.80447065348E+02  0.21053996979E+03  0.24259383014E+03  0.77000000000E+02 0.  0.
   -5000001    1    1    2    0    0 -0.46086410366E+02 -0.80447065348E+02  0.14675729978E+03  0.18990100732E+03  0.77000000000E+02 0.  0.
<mgrwt>
<rscale>  0 0.24370155E+03</rscale>
<asrwt>0</asrwt>
<pdfrwt beam="1">  1        2 0.60753232E-01 0.24370155E+03</pdfrwt>
<pdfrwt beam="2">  1       -2 0.57844290E-02 0.24370155E+03</pdfrwt>
<totfact> 0.12493298E+04</totfact>
</mgrwt>
</event>
<event>
 4    1  0.4991066E-004  0.2731561E+03  0.7818608E-02  0.1099487E+00
          2   -1    0    0  501    0  0.00000000000E+00  0.00000000000E+00  0.11068404005E+04  0.11068404005E+04  0.25500000000E-02 0.  1.
         -2   -1    0    0    0  501 -0.00000000000E+00 -0.00000000000E+00 -0.16852978679E+02  0.16852978872E+02  0.25500000000E-02 0. -1.
    5000001    1    1    2    0    0 -0.54161069885E+02 -0.75078561923E+02  0.81014168389E+03  0.81904136643E+03  0.77000000000E+02 0.  0.
   -5000001    1    1    2    0    0  0.54161069885E+02  0.75078561923E+02  0.27984573793E+03  0.30465201294E+03  0.77000000000E+02 0.  0.
<mgrwt>
<rscale>  0 0.27315606E+03</rscale>
<asrwt>0</asrwt>
<pdfrwt beam="1">  1        2 0.17028310E+00 0.27315606E+03</pdfrwt>
<pdfrwt beam="2">  1       -2 0.25927666E-02 0.27315606E+03</pdfrwt>
<totfact> 0.11890053E+04</totfact>
</mgrwt>
</event>
<event>
 4    1  0.4991066E-004  0.2733580E+03  0.7818608E-02  0.1099373E+00
         -2   -1    0    0    0  501 -0.00000000000E+00  0.00000000000E+00  0.22503168980E+02  0.22503169125E+02  0.25500000000E-02 0. -1.
          2   -1    0    0  501    0  0.00000000000E+00 -0.00000000000E+00 -0.83015627779E+03  0.83015627780E+03  0.25500000000E-02 0.  1.
    5000001    1    1    2    0    0  0.67244880065E+02 -0.78036264110E+02 -0.54814209137E+03  0.56302778328E+03  0.77000000000E+02 0.  0.
   -5000001    1    1    2    0    0 -0.67244880065E+02  0.78036264110E+02 -0.25951101744E+03  0.28963166364E+03  0.77000000000E+02 0.  0.
<mgrwt>
<rscale>  0 0.27335799E+03</rscale>
<asrwt>0</asrwt>
<pdfrwt beam="1">  1        2 0.12771633E+00 0.27335799E+03</pdfrwt>
<pdfrwt beam="2">  1       -2 0.34620266E-02 0.27335799E+03</pdfrwt>
<totfact> 0.11513945E+04</totfact>
</mgrwt>
</event>
<event>
 4    1  0.4991066E-004  0.2154600E+03  0.7818608E-02  0.1137314E+00
         -2   -1    0    0    0  501 -0.00000000000E+00  0.00000000000E+00  0.12519095618E+02  0.12519095878E+02  0.25500000000E-02 0. -1.
          2   -1    0    0  501    0  0.00000000000E+00 -0.00000000000E+00 -0.92704415211E+03  0.92704415211E+03  0.25500000000E-02 0.  1.
    5000001    1    1    2    0    0  0.71030040526E+02 -0.21092516040E+02 -0.51682980219E+03  0.52776150421E+03  0.77000000000E+02 0.  0.
   -5000001    1    1    2    0    0 -0.71030040526E+02  0.21092516040E+02 -0.39769525430E+03  0.41180174378E+03  0.77000000000E+02 0.  0.
<mgrwt>
<rscale>  0 0.21546001E+03</rscale>
<asrwt>0</asrwt>
<pdfrwt beam="1">  1        2 0.14262212E+00 0.21546001E+03</pdfrwt>
<pdfrwt beam="2">  1       -2 0.19260155E-02 0.21546001E+03</pdfrwt>
<totfact> 0.23424959E+04</totfact>
</mgrwt>
</event>
<event>
 4    1  0.4991066E-004  0.4912439E+03  0.7818608E-02  0.1016090E+00
         -2   -1    0    0    0  501 -0.00000000000E+00  0.00000000000E+00  0.38608183012E+03  0.38608183013E+03  0.25500000000E-02 0. -1.
          2   -1    0    0  501    0  0.00000000000E+00 -0.00000000000E+00 -0.15626258934E+03  0.15626258936E+03  0.25500000000E-02 0.  1.
    5000001    1    1    2    0    0  0.41850829216E+02 -0.22008938168E+03  0.43272936659E+02  0.24081606026E+03  0.77000000000E+02 0.  0.
   -5000001    1    1    2    0    0 -0.41850829216E+02  0.22008938168E+03  0.18654630412E+03  0.30152835922E+03  0.77000000000E+02 0.  0.
<mgrwt>
<rscale>  0 0.49124392E+03</rscale>
<asrwt>0</asrwt>
<pdfrwt beam="1">  1        2 0.24040399E-01 0.49124392E+03</pdfrwt>
<pdfrwt beam="2">  1       -2 0.59397204E-01 0.49124392E+03</pdfrwt>
<totfact> 0.61075230E+02</totfact>
</mgrwt>
</event>
<event>
 4    1  0.4991066E-004  0.2242230E+03  0.7818608E-02  0.1130773E+00
         -2   -1    0    0    0  501 -0.00000000000E+00  0.00000000000E+00  0.61371711912E+01  0.61371717210E+01  0.25500000000E-02 0. -1.
          2   -1    0    0  501    0  0.00000000000E+00 -0.00000000000E+00 -0.20480101855E+04  0.20480101855E+04  0.25500000000E-02 0.  1.
    5000001    1    1    2    0    0 -0.79663703207E+02 -0.16560736696E+02 -0.98055861590E+03  0.98693706122E+03  0.77000000000E+02 0.  0.
   -5000001    1    1    2    0    0  0.79663703207E+02  0.16560736696E+02 -0.10613143984E+04  0.10672102960E+04  0.77000000000E+02 0.  0.
<mgrwt>
<rscale>  0 0.22422301E+03</rscale>
<asrwt>0</asrwt>
<pdfrwt beam="1">  1        2 0.31507795E+00 0.22422301E+03</pdfrwt>
<pdfrwt beam="2">  1       -2 0.94418185E-03 0.22422301E+03</pdfrwt>
<totfact> 0.16150330E+04</totfact>
</mgrwt>
</event>
<event>
 4    1  0.4991066E-004  0.3163258E+03  0.7818608E-02  0.1077353E+00
          2   -1    0    0  501    0  0.00000000000E+00  0.00000000000E+00  0.97590204903E+03  0.97590204903E+03  0.25500000000E-02 0.  1.
         -2   -1    0    0    0  501 -0.00000000000E+00 -0.00000000000E+00 -0.25633214309E+02  0.25633214436E+02  0.25500000000E-02 0. -1.
    5000001    1    1    2    0    0  0.84834132935E+02 -0.10185903604E+03  0.35192219853E+03  0.38386238049E+03  0.77000000000E+02 0.  0.
   -5000001    1    1    2    0    0 -0.84834132935E+02  0.10185903604E+03  0.59834663619E+03  0.61767288298E+03  0.77000000000E+02 0.  0.
<mgrwt>
<rscale>  0 0.31632582E+03</rscale>
<asrwt>0</asrwt>
<pdfrwt beam="1">  1        2 0.15013877E+00 0.31632582E+03</pdfrwt>
<pdfrwt beam="2">  1       -2 0.39435715E-02 0.31632582E+03</pdfrwt>
<totfact> 0.76490821E+03</totfact>
</mgrwt>
</event>
<event>
 4    1  0.4991066E-004  0.3069342E+03  0.7818608E-02  0.1081825E+00
          2   -1    0    0  501    0  0.00000000000E+00  0.00000000000E+00  0.12983394189E+04  0.12983394189E+04  0.25500000000E-02 0.  1.
         -2   -1    0    0    0  501 -0.00000000000E+00 -0.00000000000E+00 -0.18140211769E+02  0.18140211949E+02  0.25500000000E-02 0. -1.
    5000001    1    1    2    0    0 -0.21800920508E+02  0.12733516301E+03  0.50904392535E+03  0.53079585700E+03  0.77000000000E+02 0.  0.
   -5000001    1    1    2    0    0  0.21800920508E+02 -0.12733516301E+03  0.77115528174E+03  0.78568377381E+03  0.77000000000E+02 0.  0.
<mgrwt>
<rscale>  0 0.30693421E+03</rscale>
<asrwt>0</asrwt>
<pdfrwt beam="1">  1        2 0.19974452E+00 0.30693421E+03</pdfrwt>
<pdfrwt beam="2">  1       -2 0.27908019E-02 0.30693421E+03</pdfrwt>
<totfact> 0.83132083E+03</totfact>
</mgrwt>
</event>
<event>
 4    1  0.4991066E-004  0.2118747E+03  0.7818608E-02  0.1140090E+00
          2   -1    0    0  501    0  0.00000000000E+00  0.00000000000E+00  0.20918079333E+04  0.20918079333E+04  0.25500000000E-02 0.  1.
         -2   -1    0    0    0  501 -0.00000000000E+00 -0.00000000000E+00 -0.53650837619E+01  0.53650843679E+01  0.25500000000E-02 0. -1.
    5000001    1    1    2    0    0 -0.10701812668E+02  0.59519007928E+02  0.14436615212E+04  0.14469777569E+04  0.77000000000E+02 0.  0.
   -5000001    1    1    2    0    0  0.10701812668E+02 -0.59519007928E+02  0.64278132837E+03  0.65019526082E+03  0.77000000000E+02 0.  0.
<mgrwt>
<rscale>  0 0.21187473E+03</rscale>
<asrwt>0</asrwt>
<pdfrwt beam="1">  1        2 0.32181667E+00 0.21187473E+03</pdfrwt>
<pdfrwt beam="2">  1       -2 0.82539738E-03 0.21187473E+03</pdfrwt>
<totfact> 0.18567106E+04</totfact>
</mgrwt>
</event>
<event>
 4    1  0.4991066E-004  0.2619314E+03  0.7818608E-02  0.1105988E+00
          2   -1    0    0  501    0  0.00000000000E+00  0.00000000000E+00  0.10095868975E+04  0.10095868975E+04  0.25500000000E-02 0.  1.
         -2   -1    0    0    0  501 -0.00000000000E+00 -0.00000000000E+00 -0.16989135014E+02  0.16989135206E+02  0.25500000000E-02 0. -1.
    5000001    1    1    2    0    0 -0.64523765633E+01  0.98864524741E+02  0.34927814723E+03  0.37113346865E+03  0.77000000000E+02 0.  0.
   -5000001    1    1    2    0    0  0.64523765633E+01 -0.98864524741E+02  0.64331961527E+03  0.65544256408E+03  0.77000000000E+02 0.  0.
<mgrwt>
<rscale>  0 0.26193135E+03</rscale>
<asrwt>0</asrwt>
<pdfrwt beam="1">  1        2 0.15532104E+00 0.26193135E+03</pdfrwt>
<pdfrwt beam="2">  1       -2 0.26137135E-02 0.26193135E+03</pdfrwt>
<totfact> 0.13410435E+04</totfact>
</mgrwt>
</event>
<event>
 4    1  0.4991066E-004  0.4056515E+03  0.7818608E-02  0.1041840E+00
         -2   -1    0    0    0  501 -0.00000000000E+00  0.00000000000E+00  0.11341485334E+02  0.11341485621E+02  0.25500000000E-02 0. -1.
          2   -1    0    0  501    0  0.00000000000E+00 -0.00000000000E+00 -0.36272401110E+04  0.36272401110E+04  0.25500000000E-02 0.  1.
    5000001    1    1    2    0    0 -0.10683615995E+03  0.57923373616E+02 -0.52555476401E+03  0.54489071588E+03  0.77000000000E+02 0.  0.
   -5000001    1    1    2    0    0  0.10683615995E+03 -0.57923373616E+02 -0.30903438617E+04  0.30936908807E+04  0.77000000000E+02 0.  0.
<mgrwt>
<rscale>  0 0.40565153E+03</rscale>
<asrwt>0</asrwt>
<pdfrwt beam="1">  1        2 0.55803601E+00 0.40565153E+03</pdfrwt>
<pdfrwt beam="2">  1       -2 0.17448468E-02 0.40565153E+03</pdfrwt>
<totfact> 0.76645754E+02</totfact>
</mgrwt>
</event>
<event>
 4    1  0.4991066E-004  0.2776870E+03  0.7818608E-02  0.1096959E+00
         -2   -1    0    0    0  501 -0.00000000000E+00  0.00000000000E+00  0.73353976576E+02  0.73353976620E+02  0.25500000000E-02 0. -1.
          2   -1    0    0  501    0  0.00000000000E+00 -0.00000000000E+00 -0.26280121828E+03  0.26280121829E+03  0.25500000000E-02 0.  1.
    5000001    1    1    2    0    0 -0.91734958766E+02 -0.31961220222E+02 -0.17043595723E+03  0.21074685709E+03  0.77000000000E+02 0.  0.
   -5000001    1    1    2    0    0  0.91734958766E+02  0.31961220222E+02 -0.19011284478E+02  0.12540833782E+03  0.77000000000E+02 0.  0.
<mgrwt>
<rscale>  0 0.27768698E+03</rscale>
<asrwt>0</asrwt>
<pdfrwt beam="1">  1        2 0.40430956E-01 0.27768698E+03</pdfrwt>
<pdfrwt beam="2">  1       -2 0.11285227E-01 0.27768698E+03</pdfrwt>
<totfact> 0.68499930E+03</totfact>
</mgrwt>
</event>
<event>
 4    1  0.4991066E-004  0.2396572E+03  0.7818608E-02  0.1120021E+00
         -2   -1    0    0    0  501 -0.00000000000E+00  0.00000000000E+00  0.11397502762E+03  0.11397502765E+03  0.25500000000E-02 0. -1.
          2   -1    0    0  501    0  0.00000000000E+00 -0.00000000000E+00 -0.12598283248E+03  0.12598283251E+03  0.25500000000E-02 0.  1.
    5000001    1    1    2    0    0 -0.31869880169E+01  0.86344653958E+02  0.25088887046E+02  0.11842300627E+03  0.77000000000E+02 0.  0.
   -5000001    1    1    2    0    0  0.31869880169E+01 -0.86344653958E+02 -0.37096691912E+02  0.12153485389E+03  0.77000000000E+02 0.  0.
<mgrwt>
<rscale>  0 0.23965723E+03</rscale>
<asrwt>0</asrwt>
<pdfrwt beam="1">  1        2 0.19381974E-01 0.23965723E+03</pdfrwt>
<pdfrwt beam="2">  1       -2 0.17534620E-01 0.23965723E+03</pdfrwt>
<totfact> 0.74547362E+03</totfact>
</mgrwt>
</event>
<event>
 4    1  0.4991066E-004  0.2889644E+03  0.7818608E-02  0.1090891E+00
         -2   -1    0    0    0  501 -0.00000000000E+00  0.00000000000E+00  0.25172225034E+02  0.25172225163E+02  0.25500000000E-02 0. -1.
          2   -1    0    0  501    0  0.00000000000E+00 -0.00000000000E+00 -0.82929152163E+03  0.82929152163E+03  0.25500000000E-02 0.  1.
    5000001    1    1    2    0    0 -0.74293119340E+02  0.38702584498E+02 -0.13875911732E+03  0.17944483907E+03  0.77000000000E+02 0.  0.
   -5000001    1    1    2    0    0  0.74293119340E+02 -0.38702584498E+02 -0.66536017927E+03  0.67501890773E+03  0.77000000000E+02 0.  0.
<mgrwt>
<rscale>  0 0.28896445E+03</rscale>
<asrwt>0</asrwt>
<pdfrwt beam="1">  1        2 0.12758329E+00 0.28896445E+03</pdfrwt>
<pdfrwt beam="2">  1       -2 0.38726506E-02 0.28896445E+03</pdfrwt>
<totfact> 0.97628841E+03</totfact>
</mgrwt>
</event>
<event>
 4    1  0.4991066E-004  0.2022861E+03  0.7818608E-02  0.1147824E+00
          2   -1    0    0  501    0  0.00000000000E+00  0.00000000000E+00  0.12415293162E+04  0.12415293162E+04  0.25500000000E-02 0.  1.
         -2   -1    0    0    0  501 -0.00000000000E+00 -0.00000000000E+00 -0.82397695152E+01  0.82397699098E+01  0.25500000000E-02 0. -1.
    5000001    1    1    2    0    0  0.24027756150E+02 -0.55611116174E+02  0.77183834877E+03  0.77803172553E+03  0.77000000000E+02 0.  0.
   -5000001    1    1    2    0    0 -0.24027756150E+02  0.55611116174E+02  0.46145119795E+03  0.47173736061E+03  0.77000000000E+02 0.  0.
<mgrwt>
<rscale>  0 0.20228609E+03</rscale>
<asrwt>0</asrwt>
<pdfrwt beam="1">  1        2 0.19100450E+00 0.20228609E+03</pdfrwt>
<pdfrwt beam="2">  1       -2 0.12676570E-02 0.20228609E+03</pdfrwt>
<totfact> 0.28022413E+04</totfact>
</mgrwt>
</event>
<event>
 4    1  0.4991066E-004  0.1983432E+03  0.7818608E-02  0.1151144E+00
         -2   -1    0    0    0  501 -0.00000000000E+00  0.00000000000E+00  0.24780607948E+03  0.24780607949E+03  0.25500000000E-02 0. -1.
          2   -1    0    0  501    0  0.00000000000E+00 -0.00000000000E+00 -0.39688323992E+02  0.39688324074E+02  0.25500000000E-02 0.  1.
    5000001    1    1    2    0    0 -0.28941214143E+02  0.23306418267E+02  0.17689755978E+03  0.19647526476E+03  0.77000000000E+02 0.  0.
   -5000001    1    1    2    0    0  0.28941214143E+02 -0.23306418267E+02  0.31220195711E+02  0.91019138805E+02  0.77000000000E+02 0.  0.
<mgrwt>
<rscale>  0 0.19834322E+03</rscale>
<asrwt>0</asrwt>
<pdfrwt beam="1">  1        2 0.61058961E-02 0.19834322E+03</pdfrwt>
<pdfrwt beam="2">  1       -2 0.38124012E-01 0.19834322E+03</pdfrwt>
<totfact> 0.76587046E+03</totfact>
</mgrwt>
</event>
<event>
 4    1  0.4991066E-004  0.3574943E+03  0.7818608E-02  0.1059580E+00
         -2   -1    0    0    0  501 -0.00000000000E+00  0.00000000000E+00  0.33406197152E+02  0.33406197249E+02  0.25500000000E-02 0. -1.
          2   -1    0    0  501    0  0.00000000000E+00 -0.00000000000E+00 -0.95642553859E+03  0.95642553859E+03  0.25500000000E-02 0.  1.
    5000001    1    1    2    0    0 -0.10249549005E+03 -0.79834241763E+02 -0.19676348430E+03  0.24803971535E+03  0.77000000000E+02 0.  0.
   -5000001    1    1    2    0    0  0.10249549005E+03  0.79834241763E+02 -0.72625585713E+03  0.74179202049E+03  0.77000000000E+02 0.  0.
<mgrwt>
<rscale>  0 0.35749428E+03</rscale>
<asrwt>0</asrwt>
<pdfrwt beam="1">  1        2 0.14714237E+00 0.35749428E+03</pdfrwt>
<pdfrwt beam="2">  1       -2 0.51394157E-02 0.35749428E+03</pdfrwt>
<totfact> 0.52705826E+03</totfact>
</mgrwt>
</event>
<event>
 4    1  0.4991066E-004  0.3660476E+03  0.7818608E-02  0.1056215E+00
         -2   -1    0    0    0  501 -0.00000000000E+00  0.00000000000E+00  0.51760951995E+02  0.51760952058E+02  0.25500000000E-02 0. -1.
          2   -1    0    0  501    0  0.00000000000E+00 -0.00000000000E+00 -0.64716182065E+03  0.64716182065E+03  0.25500000000E-02 0.  1.
    5000001    1    1    2    0    0  0.44591308238E+02 -0.15699210492E+03 -0.35604763102E+03  0.39916640807E+03  0.77000000000E+02 0.  0.
   -5000001    1    1    2    0    0 -0.44591308238E+02  0.15699210492E+03 -0.23935323763E+03  0.29975636464E+03  0.77000000000E+02 0.  0.
<mgrwt>
<rscale>  0 0.36604760E+03</rscale>
<asrwt>0</asrwt>
<pdfrwt beam="1">  1        2 0.99563351E-01 0.36604760E+03</pdfrwt>
<pdfrwt beam="2">  1       -2 0.79632239E-02 0.36604760E+03</pdfrwt>
<totfact> 0.44141801E+03</totfact>
</mgrwt>
</event>
<event>
 4    1  0.4991066E-004  0.4563253E+03  0.7818608E-02  0.1025852E+00
          2   -1    0    0  501    0  0.00000000000E+00  0.00000000000E+00  0.79237630723E+03  0.79237630723E+03  0.25500000000E-02 0.  1.
         -2   -1    0    0    0  501 -0.00000000000E+00 -0.00000000000E+00 -0.65698832705E+02  0.65698832754E+02  0.25500000000E-02 0. -1.
    5000001    1    1    2    0    0  0.15218648202E+03  0.54373764761E+02  0.62934731695E+03  0.65431206389E+03  0.77000000000E+02 0.  0.
   -5000001    1    1    2    0    0 -0.15218648202E+03 -0.54373764761E+02  0.97330157571E+02  0.20376307609E+03  0.77000000000E+02 0.  0.
<mgrwt>
<rscale>  0 0.45632532E+03</rscale>
<asrwt>0</asrwt>
<pdfrwt beam="1">  1        2 0.12190404E+00 0.45632532E+03</pdfrwt>
<pdfrwt beam="2">  1       -2 0.10107513E-01 0.45632532E+03</pdfrwt>
<totfact> 0.23519578E+03</totfact>
</mgrwt>
</event>
<event>
 4    1  0.4991066E-004  0.1946489E+03  0.7818608E-02  0.1154334E+00
          2   -1    0    0  501    0  0.00000000000E+00  0.00000000000E+00  0.42214149790E+03  0.42214149791E+03  0.25500000000E-02 0.  1.
         -2   -1    0    0    0  501 -0.00000000000E+00 -0.00000000000E+00 -0.22438094530E+02  0.22438094675E+02  0.25500000000E-02 0. -1.
    5000001    1    1    2    0    0 -0.23538644784E+02 -0.53905577911E+02  0.22068151666E+03  0.24101703451E+03  0.77000000000E+02 0.  0.
   -5000001    1    1    2    0    0  0.23538644784E+02  0.53905577911E+02  0.17902188670E+03  0.20356255807E+03  0.77000000000E+02 0.  0.
<mgrwt>
<rscale>  0 0.19464892E+03</rscale>
<asrwt>0</asrwt>
<pdfrwt beam="1">  1        2 0.64944841E-01 0.19464892E+03</pdfrwt>
<pdfrwt beam="2">  1       -2 0.34520148E-02 0.19464892E+03</pdfrwt>
<totfact> 0.24933107E+04</totfact>
</mgrwt>
</event>
<event>
 4    1  0.4991066E-004  0.2163664E+03  0.7818608E-02  0.1136621E+00
         -2   -1    0    0    0  501 -0.00000000000E+00  0.00000000000E+00  0.58024264887E+01  0.58024270490E+01  0.25500000000E-02 0. -1.
          2   -1    0    0  501    0  0.00000000000E+00 -0.00000000000E+00 -0.20170196315E+04  0.20170196315E+04  0.25500000000E-02 0.  1.
    5000001    1    1    2    0    0  0.51724699227E+02 -0.41692645314E+02 -0.66071995061E+03  0.66850099051E+03  0.77000000000E+02 0.  0.
   -5000001    1    1    2    0    0 -0.51724699227E+02  0.41692645314E+02 -0.13504972544E+04  0.13543210680E+04  0.77000000000E+02 0.  0.
<mgrwt>
<rscale>  0 0.21636644E+03</rscale>
<asrwt>0</asrwt>
<pdfrwt beam="1">  1        2 0.31031015E+00 0.21636644E+03</pdfrwt>
<pdfrwt beam="2">  1       -2 0.89268265E-03 0.21636644E+03</pdfrwt>
<totfact> 0.18158201E+04</totfact>
</mgrwt>
</event>
<event>
 4    1  0.4991066E-004  0.2170256E+03  0.7818608E-02  0.1136120E+00
         -2   -1    0    0    0  501 -0.00000000000E+00  0.00000000000E+00  0.48221881262E+02  0.48221881329E+02  0.25500000000E-02 0. -1.
          2   -1    0    0  501    0  0.00000000000E+00 -0.00000000000E+00 -0.24418434561E+03  0.24418434563E+03  0.25500000000E-02 0.  1.
    5000001    1    1    2    0    0 -0.37496157485E+02  0.58104119368E+02 -0.54032943860E+02  0.11675020144E+03  0.77000000000E+02 0.  0.
   -5000001    1    1    2    0    0  0.37496157485E+02 -0.58104119368E+02 -0.14192952049E+03  0.17565602552E+03  0.77000000000E+02 0.  0.
<mgrwt>
<rscale>  0 0.21702561E+03</rscale>
<asrwt>0</asrwt>
<pdfrwt beam="1">  1        2 0.37566822E-01 0.21702561E+03</pdfrwt>
<pdfrwt beam="2">  1       -2 0.74187511E-02 0.21702561E+03</pdfrwt>
<totfact> 0.14187703E+04</totfact>
</mgrwt>
</event>
<event>
 4    1  0.4991066E-004  0.1688091E+03  0.7818608E-02  0.1179095E+00
         -2   -1    0    0    0  501 -0.00000000000E+00  0.00000000000E+00  0.14086839454E+02  0.14086839685E+02  0.25500000000E-02 0. -1.
          2   -1    0    0  501    0  0.00000000000E+00 -0.00000000000E+00 -0.50572958970E+03  0.50572958971E+03  0.25500000000E-02 0.  1.
    5000001    1    1    2    0    0 -0.25900091045E+02 -0.14885665749E+02 -0.29939913147E+03  0.31058209492E+03  0.77000000000E+02 0.  0.
   -5000001    1    1    2    0    0  0.25900091045E+02  0.14885665749E+02 -0.19224361878E+03  0.20923433447E+03  0.77000000000E+02 0.  0.
<mgrwt>
<rscale>  0 0.16880914E+03</rscale>
<asrwt>0</asrwt>
<pdfrwt beam="1">  1        2 0.77804538E-01 0.16880914E+03</pdfrwt>
<pdfrwt beam="2">  1       -2 0.21672065E-02 0.16880914E+03</pdfrwt>
<totfact> 0.40130012E+04</totfact>
</mgrwt>
</event>
<event>
 4    1  0.4991066E-004  0.2042448E+03  0.7818608E-02  0.1146206E+00
          2   -1    0    0  501    0  0.00000000000E+00  0.00000000000E+00  0.19442297993E+04  0.19442297993E+04  0.25500000000E-02 0.  1.
         -2   -1    0    0    0  501 -0.00000000000E+00 -0.00000000000E+00 -0.53640712077E+01  0.53640718139E+01  0.25500000000E-02 0. -1.
    5000001    1    1    2    0    0  0.58656872340E+02  0.61769334960E+01  0.66439802951E+03  0.67144063386E+03  0.77000000000E+02 0.  0.
   -5000001    1    1    2    0    0 -0.58656872340E+02 -0.61769334960E+01  0.12744676986E+04  0.12781532373E+04  0.77000000000E+02 0.  0.
<mgrwt>
<rscale>  0 0.20424483E+03</rscale>
<asrwt>0</asrwt>
<pdfrwt beam="1">  1        2 0.29911218E+00 0.20424483E+03</pdfrwt>
<pdfrwt beam="2">  1       -2 0.82524205E-03 0.20424483E+03</pdfrwt>
<totfact> 0.22141471E+04</totfact>
</mgrwt>
</event>
<event>
 4    1  0.4991066E-004  0.3046342E+03  0.7818608E-02  0.1082947E+00
          2   -1    0    0  501    0  0.00000000000E+00  0.00000000000E+00  0.12710743605E+02  0.12710743861E+02  0.25500000000E-02 0.  1.
         -2   -1    0    0    0  501 -0.00000000000E+00 -0.00000000000E+00 -0.18252662967E+04  0.18252662967E+04  0.25500000000E-02 0. -1.
    5000001    1    1    2    0    0 -0.65145348531E+02  0.92191578820E+02 -0.50027544096E+03  0.51860169733E+03  0.77000000000E+02 0.  0.
   -5000001    1    1    2    0    0  0.65145348531E+02 -0.92191578820E+02 -0.13122801121E+04  0.13193753432E+04  0.77000000000E+02 0.  0.
<mgrwt>
<rscale>  0 0.30463416E+03</rscale>
<asrwt>0</asrwt>
<pdfrwt beam="1">  1        2 0.19555005E-02 0.30463416E+03</pdfrwt>
<pdfrwt beam="2">  1       -2 0.28080999E+00 0.30463416E+03</pdfrwt>
<totfact> 0.26747468E+02</totfact>
</mgrwt>
</event>
<event>
 4    1  0.4991066E-004  0.2468843E+03  0.7818608E-02  0.1115290E+00
         -2   -1    0    0    0  501 -0.00000000000E+00  0.00000000000E+00  0.17162013634E+03  0.17162013635E+03  0.25500000000E-02 0. -1.
          2   -1    0    0  501    0  0.00000000000E+00 -0.00000000000E+00 -0.88788896751E+02  0.88788896788E+02  0.25500000000E-02 0.  1.
    5000001    1    1    2    0    0 -0.39199118799E+02  0.78406830262E+02  0.83932098784E+02  0.14372821279E+03  0.77000000000E+02 0.  0.
   -5000001    1    1    2    0    0  0.39199118799E+02 -0.78406830262E+02 -0.11008592004E+01  0.11668082035E+03  0.77000000000E+02 0.  0.
<mgrwt>
<rscale>  0 0.24688429E+03</rscale>
<asrwt>0</asrwt>
<pdfrwt beam="1">  1        2 0.13659831E-01 0.24688429E+03</pdfrwt>
<pdfrwt beam="2">  1       -2 0.26403097E-01 0.24688429E+03</pdfrwt>
<totfact> 0.55510176E+03</totfact>
</mgrwt>
</event>
<event>
 4    1  0.4991066E-004  0.2198082E+03  0.7818608E-02  0.1134026E+00
         -2   -1    0    0    0  501 -0.00000000000E+00  0.00000000000E+00  0.20150065417E+02  0.20150065579E+02  0.25500000000E-02 0. -1.
          2   -1    0    0  501    0  0.00000000000E+00 -0.00000000000E+00 -0.59944794181E+03  0.59944794181E+03  0.25500000000E-02 0.  1.
    5000001    1    1    2    0    0 -0.66950557484E+02 -0.16603167669E+02 -0.18448524020E+03  0.21147540324E+03  0.77000000000E+02 0.  0.
   -5000001    1    1    2    0    0  0.66950557484E+02  0.16603167669E+02 -0.39481263619E+03  0.40812260415E+03  0.77000000000E+02 0.  0.
<mgrwt>
<rscale>  0 0.21980824E+03</rscale>
<asrwt>0</asrwt>
<pdfrwt beam="1">  1        2 0.92222747E-01 0.21980824E+03</pdfrwt>
<pdfrwt beam="2">  1       -2 0.31000105E-02 0.21980824E+03</pdfrwt>
<totfact> 0.19956828E+04</totfact>
</mgrwt>
</event>
<event>
 4    1  0.4991066E-004  0.2255423E+03  0.7818608E-02  0.1129817E+00
         -2   -1    0    0    0  501 -0.00000000000E+00  0.00000000000E+00  0.15663993722E+03  0.15663993725E+03  0.25500000000E-02 0. -1.
          2   -1    0    0  501    0  0.00000000000E+00 -0.00000000000E+00 -0.81188318646E+02  0.81188318686E+02  0.25500000000E-02 0.  1.
    5000001    1    1    2    0    0 -0.26811552037E+02  0.68995744551E+02 -0.42602143945E+00  0.10681036271E+03  0.77000000000E+02 0.  0.
   -5000001    1    1    2    0    0  0.26811552037E+02 -0.68995744551E+02  0.75877640018E+02  0.13101789322E+03  0.77000000000E+02 0.  0.
<mgrwt>
<rscale>  0 0.22554231E+03</rscale>
<asrwt>0</asrwt>
<pdfrwt beam="1">  1        2 0.12490511E-01 0.22554231E+03</pdfrwt>
<pdfrwt beam="2">  1       -2 0.24098452E-01 0.22554231E+03</pdfrwt>
<totfact> 0.72304577E+03</totfact>
</mgrwt>
</event>
<event>
 4    1  0.4991066E-004  0.3332431E+03  0.7818608E-02  0.1069711E+00
          2   -1    0    0  501    0  0.00000000000E+00  0.00000000000E+00  0.10502010392E+03  0.10502010396E+03  0.25500000000E-02 0.  1.
         -2   -1    0    0    0  501 -0.00000000000E+00 -0.00000000000E+00 -0.26435639456E+03  0.26435639457E+03  0.25500000000E-02 0. -1.
    5000001    1    1    2    0    0  0.10983243934E+03 -0.84962633884E+02 -0.23674100158E+02  0.16053434806E+03  0.77000000000E+02 0.  0.
   -5000001    1    1    2    0    0 -0.10983243934E+03  0.84962633884E+02 -0.13566219048E+03  0.20884215047E+03  0.77000000000E+02 0.  0.
<mgrwt>
<rscale>  0 0.33324307E+03</rscale>
<asrwt>0</asrwt>
<pdfrwt beam="1">  1        2 0.16156939E-01 0.33324307E+03</pdfrwt>
<pdfrwt beam="2">  1       -2 0.40670214E-01 0.33324307E+03</pdfrwt>
<totfact> 0.20653517E+03</totfact>
</mgrwt>
</event>
<event>
 4    1  0.4991066E-004  0.3109568E+03  0.7818608E-02  0.1079888E+00
         -2   -1    0    0    0  501 -0.00000000000E+00  0.00000000000E+00  0.18042120148E+02  0.18042120328E+02  0.25500000000E-02 0. -1.
          2   -1    0    0  501    0  0.00000000000E+00 -0.00000000000E+00 -0.13398387676E+04  0.13398387676E+04  0.25500000000E-02 0.  1.
    5000001    1    1    2    0    0 -0.28515604403E+02  0.12302216653E+03 -0.87018248116E+03  0.88266309749E+03  0.77000000000E+02 0.  0.
   -5000001    1    1    2    0    0  0.28515604403E+02 -0.12302216653E+03 -0.45161416626E+03  0.47521779041E+03  0.77000000000E+02 0.  0.
<mgrwt>
<rscale>  0 0.31095680E+03</rscale>
<asrwt>0</asrwt>
<pdfrwt beam="1">  1        2 0.20612896E+00 0.31095680E+03</pdfrwt>
<pdfrwt beam="2">  1       -2 0.27757119E-02 0.31095680E+03</pdfrwt>
<totfact> 0.79499907E+03</totfact>
</mgrwt>
</event>
<event>
 4    1  0.4991066E-004  0.1840638E+03  0.7818608E-02  0.1163927E+00
         -2   -1    0    0    0  501 -0.00000000000E+00  0.00000000000E+00  0.32975137841E+01  0.32975147701E+01  0.25500000000E-02 0. -1.
          2   -1    0    0  501    0  0.00000000000E+00 -0.00000000000E+00 -0.25685615696E+04  0.25685615696E+04  0.25500000000E-02 0.  1.
    5000001    1    1    2    0    0 -0.43596676557E+02 -0.68992125984E+01 -0.94249075060E+03  0.94666049052E+03  0.77000000000E+02 0.  0.
   -5000001    1    1    2    0    0  0.43596676557E+02  0.68992125984E+01 -0.16227733052E+04  0.16251985938E+04  0.77000000000E+02 0.  0.
<mgrwt>
<rscale>  0 0.18406378E+03</rscale>
<asrwt>0</asrwt>
<pdfrwt beam="1">  1        2 0.39516172E+00 0.18406378E+03</pdfrwt>
<pdfrwt beam="2">  1       -2 0.50731194E-03 0.18406378E+03</pdfrwt>
<totfact> 0.20696715E+04</totfact>
</mgrwt>
</event>
<event>
 4    1  0.4991066E-004  0.1964625E+03  0.7818608E-02  0.1152758E+00
         -2   -1    0    0    0  501 -0.00000000000E+00  0.00000000000E+00  0.37225719929E+01  0.37225728663E+01  0.25500000000E-02 0. -1.
          2   -1    0    0  501    0  0.00000000000E+00 -0.00000000000E+00 -0.25921270733E+04  0.25921270733E+04  0.25500000000E-02 0.  1.
    5000001    1    1    2    0    0  0.48272511453E+02  0.28093555348E+02 -0.97031038681E+03  0.97496191206E+03  0.77000000000E+02 0.  0.
   -5000001    1    1    2    0    0 -0.48272511453E+02 -0.28093555348E+02 -0.16180941145E+04  0.16208877341E+04  0.77000000000E+02 0.  0.
<mgrwt>
<rscale>  0 0.19646252E+03</rscale>
<asrwt>0</asrwt>
<pdfrwt beam="1">  1        2 0.39878734E+00 0.19646252E+03</pdfrwt>
<pdfrwt beam="2">  1       -2 0.57270552E-03 0.19646252E+03</pdfrwt>
<totfact> 0.16926164E+04</totfact>
</mgrwt>
</event>
<event>
 4    1  0.4991066E-004  0.2302048E+03  0.7818608E-02  0.1126496E+00
         -2   -1    0    0    0  501 -0.00000000000E+00  0.00000000000E+00  0.35665412573E+01  0.35665421689E+01  0.25500000000E-02 0. -1.
          2   -1    0    0  501    0  0.00000000000E+00 -0.00000000000E+00 -0.37146793692E+04  0.37146793692E+04  0.25500000000E-02 0.  1.
    5000001    1    1    2    0    0 -0.87774917385E+01 -0.65422917103E+02 -0.27346648590E+04  0.27365449190E+04  0.77000000000E+02 0.  0.
   -5000001    1    1    2    0    0  0.87774917385E+01  0.65422917103E+02 -0.97644796894E+03  0.98170099241E+03  0.77000000000E+02 0.  0.
<mgrwt>
<rscale>  0 0.23020477E+03</rscale>
<asrwt>0</asrwt>
<pdfrwt beam="1">  1        2 0.57148604E+00 0.23020477E+03</pdfrwt>
<pdfrwt beam="2">  1       -2 0.54870170E-03 0.23020477E+03</pdfrwt>
<totfact> 0.36998369E+03</totfact>
</mgrwt>
</event>
<event>
 4    1  0.4991066E-004  0.4824557E+03  0.7818608E-02  0.1018462E+00
          2   -1    0    0  501    0  0.00000000000E+00  0.00000000000E+00  0.20598812529E+04  0.20598812529E+04  0.25500000000E-02 0.  1.
         -2   -1    0    0    0  501 -0.00000000000E+00 -0.00000000000E+00 -0.28249621267E+02  0.28249621382E+02  0.25500000000E-02 0. -1.
    5000001    1    1    2    0    0 -0.65163554174E+01  0.22796626017E+03  0.94727447952E+03  0.97737864629E+03  0.77000000000E+02 0.  0.
   -5000001    1    1    2    0    0  0.65163554174E+01 -0.22796626017E+03  0.10843571521E+04  0.11107522280E+04  0.77000000000E+02 0.  0.
<mgrwt>
<rscale>  0 0.48245566E+03</rscale>
<asrwt>0</asrwt>
<pdfrwt beam="1">  1        2 0.31690484E+00 0.48245566E+03</pdfrwt>
<pdfrwt beam="2">  1       -2 0.43460952E-02 0.48245566E+03</pdfrwt>
<totfact> 0.16499782E+03</totfact>
</mgrwt>
</event>
<event>
 4    1  0.4991066E-004  0.2063507E+03  0.7818608E-02  0.1144489E+00
         -2   -1    0    0    0  501 -0.00000000000E+00  0.00000000000E+00  0.56099232513E+02  0.56099232571E+02  0.25500000000E-02 0. -1.
          2   -1    0    0  501    0  0.00000000000E+00 -0.00000000000E+00 -0.18975571981E+03  0.18975571983E+03  0.25500000000E-02 0.  1.
    5000001    1    1    2    0    0 -0.28956557722E+02  0.60315791529E+02 -0.85273424028E+02  0.13295500663E+03  0.77000000000E+02 0.  0.
   -5000001    1    1    2    0    0  0.28956557722E+02 -0.60315791529E+02 -0.48383063269E+02  0.11289994577E+03  0.77000000000E+02 0.  0.
<mgrwt>
<rscale>  0 0.20635067E+03</rscale>
<asrwt>0</asrwt>
<pdfrwt beam="1">  1        2 0.29193187E-01 0.20635067E+03</pdfrwt>
<pdfrwt beam="2">  1       -2 0.86306513E-02 0.20635067E+03</pdfrwt>
<totfact> 0.14691416E+04</totfact>
</mgrwt>
</event>
<event>
 4    1  0.4991066E-004  0.6115089E+03  0.7818608E-02  0.9881812E-01
          2   -1    0    0  501    0  0.00000000000E+00  0.00000000000E+00  0.34977705881E+03  0.34977705881E+03  0.25500000000E-02 0.  1.
         -2   -1    0    0    0  501 -0.00000000000E+00 -0.00000000000E+00 -0.26727252710E+03  0.26727252711E+03  0.25500000000E-02 0. -1.
    5000001    1    1    2    0    0  0.71846438244E+02 -0.28272765633E+03  0.91299638079E+02  0.31521653234E+03  0.77000000000E+02 0.  0.
   -5000001    1    1    2    0    0 -0.71846438244E+02  0.28272765633E+03 -0.87951063742E+01  0.30183305359E+03  0.77000000000E+02 0.  0.
<mgrwt>
<rscale>  0 0.61150895E+03</rscale>
<asrwt>0</asrwt>
<pdfrwt beam="1">  1        2 0.53811855E-01 0.61150895E+03</pdfrwt>
<pdfrwt beam="2">  1       -2 0.41118851E-01 0.61150895E+03</pdfrwt>
<totfact> 0.52217264E+02</totfact>
</mgrwt>
</event>
<event>
 4    1  0.4991066E-004  0.2013849E+03  0.7818608E-02  0.1148576E+00
          2   -1    0    0  501    0  0.00000000000E+00  0.00000000000E+00  0.23039612428E+03  0.23039612429E+03  0.25500000000E-02 0.  1.
         -2   -1    0    0    0  501 -0.00000000000E+00 -0.00000000000E+00 -0.44006682498E+02  0.44006682571E+02  0.25500000000E-02 0. -1.
    5000001    1    1    2    0    0  0.48984046087E+02  0.18348365136E+02  0.40883938197E+02  0.10166904975E+03  0.77000000000E+02 0.  0.
   -5000001    1    1    2    0    0 -0.48984046087E+02 -0.18348365136E+02  0.14550550359E+03  0.17273375712E+03  0.77000000000E+02 0.  0.
<mgrwt>
<rscale>  0 0.20138490E+03</rscale>
<asrwt>0</asrwt>
<pdfrwt beam="1">  1        2 0.35445558E-01 0.20138490E+03</pdfrwt>
<pdfrwt beam="2">  1       -2 0.67702588E-02 0.20138490E+03</pdfrwt>
<totfact> 0.17308631E+04</totfact>
</mgrwt>
</event>
<event>
 4    1  0.4991066E-004  0.2760923E+03  0.7818608E-02  0.1097843E+00
         -2   -1    0    0    0  501 -0.00000000000E+00  0.00000000000E+00  0.38657850593E+02  0.38657850677E+02  0.25500000000E-02 0. -1.
          2   -1    0    0  501    0  0.00000000000E+00 -0.00000000000E+00 -0.49295926502E+03  0.49295926502E+03  0.25500000000E-02 0.  1.
    5000001    1    1    2    0    0  0.11371320649E+03 -0.12393170028E+02 -0.21445673130E+03  0.25496072952E+03  0.77000000000E+02 0.  0.
   -5000001    1    1    2    0    0 -0.11371320649E+03  0.12393170028E+02 -0.23984468312E+03  0.27665638618E+03  0.77000000000E+02 0.  0.
<mgrwt>
<rscale>  0 0.27609234E+03</rscale>
<asrwt>0</asrwt>
<pdfrwt beam="1">  1        2 0.75839882E-01 0.27609234E+03</pdfrwt>
<pdfrwt beam="2">  1       -2 0.59473620E-02 0.27609234E+03</pdfrwt>
<totfact> 0.94375014E+03</totfact>
</mgrwt>
</event>
<event>
 4    1  0.4991066E-004  0.2428940E+03  0.7818608E-02  0.1117880E+00
          2   -1    0    0  501    0  0.00000000000E+00  0.00000000000E+00  0.10241869063E+04  0.10241869063E+04  0.25500000000E-02 0.  1.
         -2   -1    0    0    0  501 -0.00000000000E+00 -0.00000000000E+00 -0.14401061842E+02  0.14401062068E+02  0.25500000000E-02 0. -1.
    5000001    1    1    2    0    0  0.50078647913E+02 -0.59899981919E+02  0.28170543068E+03  0.30229592866E+03  0.77000000000E+02 0.  0.
   -5000001    1    1    2    0    0 -0.50078647913E+02  0.59899981919E+02  0.72808041375E+03  0.73629203968E+03  0.77000000000E+02 0.  0.
<mgrwt>
<rscale>  0 0.24289404E+03</rscale>
<asrwt>0</asrwt>
<pdfrwt beam="1">  1        2 0.15756725E+00 0.24289404E+03</pdfrwt>
<pdfrwt beam="2">  1       -2 0.22155475E-02 0.24289404E+03</pdfrwt>
<totfact> 0.16719635E+04</totfact>
</mgrwt>
</event>
<event>
 4    1  0.4991066E-004  0.2185901E+03  0.7818608E-02  0.1134939E+00
         -2   -1    0    0    0  501 -0.00000000000E+00  0.00000000000E+00  0.11498531162E+03  0.11498531165E+03  0.25500000000E-02 0. -1.
          2   -1    0    0  501    0  0.00000000000E+00 -0.00000000000E+00 -0.10388641666E+03  0.10388641669E+03  0.25500000000E-02 0.  1.
    5000001    1    1    2    0    0 -0.29003031490E+02  0.71806795164E+02  0.99162961929E+01  0.10965730526E+03  0.77000000000E+02 0.  0.
   -5000001    1    1    2    0    0  0.29003031490E+02 -0.71806795164E+02  0.11825987645E+01  0.10921442307E+03  0.77000000000E+02 0.  0.
<mgrwt>
<rscale>  0 0.21859014E+03</rscale>
<asrwt>0</asrwt>
<pdfrwt beam="1">  1        2 0.15982526E-01 0.21859014E+03</pdfrwt>
<pdfrwt beam="2">  1       -2 0.17690048E-01 0.21859014E+03</pdfrwt>
<totfact> 0.91409174E+03</totfact>
</mgrwt>
</event>
<event>
 4    1  0.4991066E-004  0.1730593E+03  0.7818608E-02  0.1174695E+00
         -2   -1    0    0    0  501 -0.00000000000E+00  0.00000000000E+00  0.22338808456E+03  0.22338808457E+03  0.25500000000E-02 0. -1.
          2   -1    0    0  501    0  0.00000000000E+00 -0.00000000000E+00 -0.33517362862E+02  0.33517362959E+02  0.25500000000E-02 0.  1.
    5000001    1    1    2    0    0 -0.65044250815E+01  0.38107106337E+02  0.83066797527E+02  0.11968104257E+03  0.77000000000E+02 0.  0.
   -5000001    1    1    2    0    0  0.65044250815E+01 -0.38107106337E+02  0.10680392417E+03  0.13722440496E+03  0.77000000000E+02 0.  0.
<mgrwt>
<rscale>  0 0.17305929E+03</rscale>
<asrwt>0</asrwt>
<pdfrwt beam="1">  1        2 0.51565173E-02 0.17305929E+03</pdfrwt>
<pdfrwt beam="2">  1       -2 0.34367398E-01 0.17305929E+03</pdfrwt>
<totfact> 0.11465864E+04</totfact>
</mgrwt>
</event>
<event>
 4    1  0.4991066E-004  0.4388263E+03  0.7818608E-02  0.1031108E+00
         -2   -1    0    0    0  501 -0.00000000000E+00  0.00000000000E+00  0.86517320458E+02  0.86517320496E+02  0.25500000000E-02 0.  1.
          2   -1    0    0  501    0  0.00000000000E+00 -0.00000000000E+00 -0.55644492385E+03  0.55644492385E+03  0.25500000000E-02 0. -1.
    5000001    1    1    2    0    0  0.19050828512E+03 -0.75748477129E+02 -0.25472401731E+03  0.33592344884E+03  0.77000000000E+02 0.  0.
   -5000001    1    1    2    0    0 -0.19050828512E+03  0.75748477129E+02 -0.21520358608E+03  0.30703879551E+03  0.77000000000E+02 0.  0.
<mgrwt>
<rscale>  0 0.43882627E+03</rscale>
<asrwt>0</asrwt>
<pdfrwt beam="1">  1        2 0.85606909E-01 0.43882627E+03</pdfrwt>
<pdfrwt beam="2">  1       -2 0.13310357E-01 0.43882627E+03</pdfrwt>
<totfact> 0.23120380E+03</totfact>
</mgrwt>
</event>
<event>
 4    1  0.4991066E-004  0.2024178E+03  0.7818608E-02  0.1147715E+00
         -2   -1    0    0    0  501 -0.00000000000E+00  0.00000000000E+00  0.29169292280E+01  0.29169303427E+01  0.25500000000E-02 0. -1.
          2   -1    0    0  501    0  0.00000000000E+00 -0.00000000000E+00 -0.35116514162E+04  0.35116514162E+04  0.25500000000E-02 0.  1.
    5000001    1    1    2    0    0  0.45696565130E+01 -0.58828553822E+02 -0.12533748758E+04  0.12571234067E+04  0.77000000000E+02 0.  0.
   -5000001    1    1    2    0    0 -0.45696565130E+01  0.58828553822E+02 -0.22553596111E+04  0.22574449398E+04  0.77000000000E+02 0.  0.
<mgrwt>
<rscale>  0 0.20241779E+03</rscale>
<asrwt>0</asrwt>
<pdfrwt beam="1">  1        2 0.54025068E+00 0.20241779E+03</pdfrwt>
<pdfrwt beam="2">  1       -2 0.44876124E-03 0.20241779E+03</pdfrwt>
<totfact> 0.67917355E+03</totfact>
</mgrwt>
</event>
<event>
 4    1  0.4991066E-004  0.3844463E+03  0.7818608E-02  0.1049303E+00
          2   -1    0    0  501    0  0.00000000000E+00  0.00000000000E+00  0.49141259027E+03  0.49141259028E+03  0.25500000000E-02 0.  1.
         -2   -1    0    0    0  501 -0.00000000000E+00 -0.00000000000E+00 -0.75190880424E+02  0.75190880468E+02  0.25500000000E-02 0. -1.
    5000001    1    1    2    0    0  0.15551962066E+03  0.12849624975E+02  0.87750630905E+02  0.19488621936E+03  0.77000000000E+02 0.  0.
   -5000001    1    1    2    0    0 -0.15551962066E+03 -0.12849624975E+02  0.32847107894E+03  0.37171725138E+03  0.77000000000E+02 0.  0.
<mgrwt>
<rscale>  0 0.38444633E+03</rscale>
<asrwt>0</asrwt>
<pdfrwt beam="1">  1        2 0.75601939E-01 0.38444633E+03</pdfrwt>
<pdfrwt beam="2">  1       -2 0.11567827E-01 0.38444633E+03</pdfrwt>
<totfact> 0.33494242E+03</totfact>
</mgrwt>
</event>
<event>
 4    1  0.4991066E-004  0.2909927E+03  0.7818608E-02  0.1089832E+00
          2   -1    0    0  501    0  0.00000000000E+00  0.00000000000E+00  0.89273295350E+03  0.89273295351E+03  0.25500000000E-02 0.  1.
         -2   -1    0    0    0  501 -0.00000000000E+00 -0.00000000000E+00 -0.23712789585E+02  0.23712789722E+02  0.25500000000E-02 0. -1.
    5000001    1    1    2    0    0  0.82525331078E+02  0.32806843299E+02  0.70457663605E+03  0.71431362531E+03  0.77000000000E+02 0.  0.
   -5000001    1    1    2    0    0 -0.82525331078E+02 -0.32806843299E+02  0.16444352787E+03  0.20213211792E+03  0.77000000000E+02 0.  0.
<mgrwt>
<rscale>  0 0.29099271E+03</rscale>
<asrwt>0</asrwt>
<pdfrwt beam="1">  1        2 0.13734352E+00 0.29099271E+03</pdfrwt>
<pdfrwt beam="2">  1       -2 0.36481217E-02 0.29099271E+03</pdfrwt>
<totfact> 0.96948156E+03</totfact>
</mgrwt>
</event>
<event>
 4    1  0.4991066E-004  0.3178792E+03  0.7818608E-02  0.1076630E+00
          2   -1    0    0  501    0  0.00000000000E+00  0.00000000000E+00  0.57787936253E+03  0.57787936254E+03  0.25500000000E-02 0.  1.
         -2   -1    0    0    0  501 -0.00000000000E+00 -0.00000000000E+00 -0.43714650987E+02  0.43714651062E+02  0.25500000000E-02 0. -1.
    5000001    1    1    2    0    0 -0.10561856587E+03  0.47920875350E+02  0.41704190179E+03  0.43966423507E+03  0.77000000000E+02 0.  0.
   -5000001    1    1    2    0    0  0.10561856587E+03 -0.47920875350E+02  0.11712280975E+03  0.18192977853E+03  0.77000000000E+02 0.  0.
<mgrwt>
<rscale>  0 0.31787919E+03</rscale>
<asrwt>0</asrwt>
<pdfrwt beam="1">  1        2 0.88904513E-01 0.31787919E+03</pdfrwt>
<pdfrwt beam="2">  1       -2 0.67253313E-02 0.31787919E+03</pdfrwt>
<totfact> 0.65472199E+03</totfact>
</mgrwt>
</event>
<event>
 4    1  0.4991066E-004  0.2154191E+03  0.7818608E-02  0.1137345E+00
          2   -1    0    0  501    0  0.00000000000E+00  0.00000000000E+00  0.53745920573E+03  0.53745920573E+03  0.25500000000E-02 0.  1.
         -2   -1    0    0    0  501 -0.00000000000E+00 -0.00000000000E+00 -0.21585544026E+02  0.21585544177E+02  0.25500000000E-02 0. -1.
    5000001    1    1    2    0    0  0.42992445146E+02  0.55940698191E+02  0.32633451324E+03  0.34263818612E+03  0.77000000000E+02 0.  0.
   -5000001    1    1    2    0    0 -0.42992445146E+02 -0.55940698191E+02  0.18953914846E+03  0.21640656379E+03  0.77000000000E+02 0.  0.
<mgrwt>
<rscale>  0 0.21541912E+03</rscale>
<asrwt>0</asrwt>
<pdfrwt beam="1">  1        2 0.82686024E-01 0.21541912E+03</pdfrwt>
<pdfrwt beam="2">  1       -2 0.33208532E-02 0.21541912E+03</pdfrwt>
<totfact> 0.20377787E+04</totfact>
</mgrwt>
</event>
<event>
 4    1  0.4991066E-004  0.2174909E+03  0.7818608E-02  0.1135768E+00
          2   -1    0    0  501    0  0.00000000000E+00  0.00000000000E+00  0.27388095458E+04  0.27388095458E+04  0.25500000000E-02 0.  1.
         -2   -1    0    0    0  501 -0.00000000000E+00 -0.00000000000E+00 -0.43177778410E+01  0.43177785940E+01  0.25500000000E-02 0. -1.
    5000001    1    1    2    0    0  0.35060434222E+02 -0.64484161328E+02  0.16518359250E+04  0.16552577938E+04  0.77000000000E+02 0.  0.
   -5000001    1    1    2    0    0 -0.35060434222E+02  0.64484161328E+02  0.10826558430E+04  0.10878695305E+04  0.77000000000E+02 0.  0.
<mgrwt>
<rscale>  0 0.21749089E+03</rscale>
<asrwt>0</asrwt>
<pdfrwt beam="1">  1        2 0.42135518E+00 0.21749089E+03</pdfrwt>
<pdfrwt beam="2">  1       -2 0.66427379E-03 0.21749089E+03</pdfrwt>
<totfact> 0.11364836E+04</totfact>
</mgrwt>
</event>
<event>
 4    1  0.4991066E-004  0.3089928E+03  0.7818608E-02  0.1080830E+00
         -2   -1    0    0    0  501 -0.00000000000E+00  0.00000000000E+00  0.10476639039E+02  0.10476639350E+02  0.25500000000E-02 0. -1.
          2   -1    0    0  501    0  0.00000000000E+00 -0.00000000000E+00 -0.22783203160E+04  0.22783203160E+04  0.25500000000E-02 0.  1.
    5000001    1    1    2    0    0 -0.67556747761E+02 -0.68374303264E+02 -0.18248739891E+04  0.18290251599E+04  0.77000000000E+02 0.  0.
   -5000001    1    1    2    0    0  0.67556747761E+02  0.68374303264E+02 -0.44296968790E+03  0.45977179548E+03  0.77000000000E+02 0.  0.
<mgrwt>
<rscale>  0 0.30899281E+03</rscale>
<asrwt>0</asrwt>
<pdfrwt beam="1">  1        2 0.35051042E+00 0.30899281E+03</pdfrwt>
<pdfrwt beam="2">  1       -2 0.16117925E-02 0.30899281E+03</pdfrwt>
<totfact> 0.56132679E+03</totfact>
</mgrwt>
</event>
<event>
 4    1  0.4991066E-004  0.3752444E+03  0.7818608E-02  0.1052706E+00
         -2   -1    0    0    0  501 -0.00000000000E+00  0.00000000000E+00  0.23400355829E+02  0.23400355968E+02  0.25500000000E-02 0. -1.
          2   -1    0    0  501    0  0.00000000000E+00 -0.00000000000E+00 -0.15043400175E+04  0.15043400175E+04  0.25500000000E-02 0.  1.
    5000001    1    1    2    0    0 -0.15255466847E+03 -0.59591098782E+01 -0.10549027086E+04  0.10686707456E+04  0.77000000000E+02 0.  0.
   -5000001    1    1    2    0    0  0.15255466847E+03  0.59591098782E+01 -0.42603695306E+03  0.45906962787E+03  0.77000000000E+02 0.  0.
<mgrwt>
<rscale>  0 0.37524441E+03</rscale>
<asrwt>0</asrwt>
<pdfrwt beam="1">  1        2 0.23143685E+00 0.37524441E+03</pdfrwt>
<pdfrwt beam="2">  1       -2 0.36000559E-02 0.37524441E+03</pdfrwt>
<totfact> 0.43815520E+03</totfact>
</mgrwt>
</event>
<event>
 4    1  0.4991066E-004  0.6167669E+03  0.7818608E-02  0.9871218E-01
          2   -1    0    0  501    0  0.00000000000E+00  0.00000000000E+00  0.17960941577E+03  0.17960941579E+03  0.25500000000E-02 0.  1.
         -2   -1    0    0    0  501 -0.00000000000E+00 -0.00000000000E+00 -0.52948414871E+03  0.52948414872E+03  0.25500000000E-02 0. -1.
    5000001    1    1    2    0    0 -0.39685753208E+02 -0.29552225007E+03 -0.19358154787E+03  0.36374603086E+03  0.77000000000E+02 0.  0.
   -5000001    1    1    2    0    0  0.39685753208E+02  0.29552225007E+03 -0.15629318508E+03  0.34534753364E+03  0.77000000000E+02 0.  0.
<mgrwt>
<rscale>  0 0.61676686E+03</rscale>
<asrwt>0</asrwt>
<pdfrwt beam="1">  1        2 0.27632218E-01 0.61676686E+03</pdfrwt>
<pdfrwt beam="2">  1       -2 0.81459099E-01 0.61676686E+03</pdfrwt>
<totfact> 0.26216312E+02</totfact>
</mgrwt>
</event>
<event>
 4    1  0.4991066E-004  0.2340133E+03  0.7818608E-02  0.1123847E+00
          2   -1    0    0  501    0  0.00000000000E+00  0.00000000000E+00  0.18507373020E+04  0.18507373020E+04  0.25500000000E-02 0.  1.
         -2   -1    0    0    0  501 -0.00000000000E+00 -0.00000000000E+00 -0.73973504275E+01  0.73973508670E+01  0.25500000000E-02 0. -1.
    5000001    1    1    2    0    0 -0.25493976807E+02 -0.84000110163E+02  0.86246740268E+03  0.87033613164E+03  0.77000000000E+02 0.  0.
   -5000001    1    1    2    0    0  0.25493976807E+02  0.84000110163E+02  0.98087254886E+03  0.98779852119E+03  0.77000000000E+02 0.  0.
<mgrwt>
<rscale>  0 0.23401327E+03</rscale>
<asrwt>0</asrwt>
<pdfrwt beam="1">  1        2 0.28472894E+00 0.23401327E+03</pdfrwt>
<pdfrwt beam="2">  1       -2 0.11380534E-02 0.23401327E+03</pdfrwt>
<totfact> 0.15642307E+04</totfact>
</mgrwt>
</event>
<event>
 4    1  0.4991066E-004  0.2031002E+03  0.7818608E-02  0.1147149E+00
          2   -1    0    0  501    0  0.00000000000E+00  0.00000000000E+00  0.10751236852E+03  0.10751236856E+03  0.25500000000E-02 0.  1.
         -2   -1    0    0    0  501 -0.00000000000E+00 -0.00000000000E+00 -0.95918477136E+02  0.95918477170E+02  0.25500000000E-02 0. -1.
    5000001    1    1    2    0    0 -0.39106370724E+02  0.14497668064E+02 -0.45705944596E+02  0.98780180107E+02  0.77000000000E+02 0.  0.
   -5000001    1    1    2    0    0  0.39106370724E+02 -0.14497668064E+02  0.57299835985E+02  0.10465066562E+03  0.77000000000E+02 0.  0.
<mgrwt>
<rscale>  0 0.20310020E+03</rscale>
<asrwt>0</asrwt>
<pdfrwt beam="1">  1        2 0.16540364E-01 0.20310020E+03</pdfrwt>
<pdfrwt beam="2">  1       -2 0.14756689E-01 0.20310020E+03</pdfrwt>
<totfact> 0.11810371E+04</totfact>
</mgrwt>
</event>
<event>
 4    1  0.4991066E-004  0.2295937E+03  0.7818608E-02  0.1126926E+00
         -2   -1    0    0    0  501 -0.00000000000E+00  0.00000000000E+00  0.18479770761E+03  0.18479770763E+03  0.25500000000E-02 0. -1.
          2   -1    0    0  501    0  0.00000000000E+00 -0.00000000000E+00 -0.71312096911E+02  0.71312096957E+02  0.25500000000E-02 0.  1.
    5000001    1    1    2    0    0 -0.43624681973E+02 -0.52750570284E+02  0.11322212500E+03  0.15308162898E+03  0.77000000000E+02 0.  0.
   -5000001    1    1    2    0    0  0.43624681973E+02  0.52750570284E+02  0.26348569603E+00  0.10302817560E+03  0.77000000000E+02 0.  0.
<mgrwt>
<rscale>  0 0.22959366E+03</rscale>
<asrwt>0</asrwt>
<pdfrwt beam="1">  1        2 0.10971092E-01 0.22959366E+03</pdfrwt>
<pdfrwt beam="2">  1       -2 0.28430416E-01 0.22959366E+03</pdfrwt>
<totfact> 0.63224663E+03</totfact>
</mgrwt>
</event>
<event>
 4    1  0.4991066E-004  0.2244097E+03  0.7818608E-02  0.1130638E+00
         -2   -1    0    0    0  501 -0.00000000000E+00  0.00000000000E+00  0.12569578316E+03  0.12569578318E+03  0.25500000000E-02 0.  1.
          2   -1    0    0  501    0  0.00000000000E+00 -0.00000000000E+00 -0.10016187750E+03  0.10016187753E+03  0.25500000000E-02 0. -1.
    5000001    1    1    2    0    0 -0.36911371597E+02 -0.66713786654E+02  0.42070916530E+02  0.11624173390E+03  0.77000000000E+02 0.  0.
   -5000001    1    1    2    0    0  0.36911371597E+02  0.66713786654E+02 -0.16537010875E+02  0.10961592682E+03  0.77000000000E+02 0.  0.
<mgrwt>
<rscale>  0 0.22440968E+03</rscale>
<asrwt>0</asrwt>
<pdfrwt beam="1">  1        2 0.15409520E-01 0.22440968E+03</pdfrwt>
<pdfrwt beam="2">  1       -2 0.19337813E-01 0.22440968E+03</pdfrwt>
<totfact> 0.82222160E+03</totfact>
</mgrwt>
</event>
<event>
 4    1  0.4991066E-004  0.2066529E+03  0.7818608E-02  0.1144244E+00
          2   -1    0    0  501    0  0.00000000000E+00  0.00000000000E+00  0.89611426555E+02  0.89611426592E+02  0.25500000000E-02 0.  1.
         -2   -1    0    0    0  501 -0.00000000000E+00 -0.00000000000E+00 -0.11914052078E+03  0.11914052080E+03  0.25500000000E-02 0. -1.
    5000001    1    1    2    0    0 -0.44319701826E+02 -0.52751860112E+02 -0.15368380286E+02  0.10446138917E+03  0.77000000000E+02 0.  0.
   -5000001    1    1    2    0    0  0.44319701826E+02  0.52751860112E+02 -0.14160713935E+02  0.10429055822E+03  0.77000000000E+02 0.  0.
<mgrwt>
<rscale>  0 0.20665287E+03</rscale>
<asrwt>0</asrwt>
<pdfrwt beam="1">  1        2 0.13786373E-01 0.20665287E+03</pdfrwt>
<pdfrwt beam="2">  1       -2 0.18329311E-01 0.20665287E+03</pdfrwt>
<totfact> 0.10220643E+04</totfact>
</mgrwt>
</event>
<event>
 4    1  0.4991066E-004  0.3016828E+03  0.7818608E-02  0.1084402E+00
         -2   -1    0    0    0  501 -0.00000000000E+00  0.00000000000E+00  0.45650374498E+02  0.45650374569E+02  0.25500000000E-02 0. -1.
          2   -1    0    0  501    0  0.00000000000E+00 -0.00000000000E+00 -0.49842138436E+03  0.49842138436E+03  0.25500000000E-02 0.  1.
    5000001    1    1    2    0    0  0.10620059696E+03 -0.70893122779E+02 -0.26749961627E+03  0.30625062670E+03  0.77000000000E+02 0.  0.
   -5000001    1    1    2    0    0 -0.10620059696E+03  0.70893122779E+02 -0.18527139359E+03  0.23782113223E+03  0.77000000000E+02 0.  0.
<mgrwt>
<rscale>  0 0.30168277E+03</rscale>
<asrwt>0</asrwt>
<pdfrwt beam="1">  1        2 0.76680209E-01 0.30168277E+03</pdfrwt>
<pdfrwt beam="2">  1       -2 0.70231349E-02 0.30168277E+03</pdfrwt>
<totfact> 0.72339100E+03</totfact>
</mgrwt>
</event>
<event>
 4    1  0.4991066E-004  0.2696370E+03  0.7818608E-02  0.1101488E+00
          2   -1    0    0  501    0  0.00000000000E+00  0.00000000000E+00  0.21587570053E+03  0.21587570054E+03  0.25500000000E-02 0.  1.
         -2   -1    0    0    0  501 -0.00000000000E+00 -0.00000000000E+00 -0.84196751548E+02  0.84196751587E+02  0.25500000000E-02 0. -1.
    5000001    1    1    2    0    0  0.22862819367E+02 -0.10790352225E+03  0.75864877378E+02  0.15443561197E+03  0.77000000000E+02 0.  0.
   -5000001    1    1    2    0    0 -0.22862819367E+02  0.10790352225E+03  0.55814071603E+02  0.14563684016E+03  0.77000000000E+02 0.  0.
<mgrwt>
<rscale>  0 0.26963704E+03</rscale>
<asrwt>0</asrwt>
<pdfrwt beam="1">  1        2 0.33211645E-01 0.26963704E+03</pdfrwt>
<pdfrwt beam="2">  1       -2 0.12953347E-01 0.26963704E+03</pdfrwt>
<totfact> 0.67763503E+03</totfact>
</mgrwt>
</event>
<event>
 4    1  0.4991066E-004  0.2699817E+03  0.7818608E-02  0.1101290E+00
          2   -1    0    0  501    0  0.00000000000E+00  0.00000000000E+00  0.12356818769E+04  0.12356818769E+04  0.25500000000E-02 0.  1.
         -2   -1    0    0    0  501 -0.00000000000E+00 -0.00000000000E+00 -0.14746937234E+02  0.14746937455E+02  0.25500000000E-02 0. -1.
    5000001    1    1    2    0    0 -0.10109848414E+03 -0.41656284168E+02  0.69553823555E+03  0.70827860804E+03  0.77000000000E+02 0.  0.
   -5000001    1    1    2    0    0  0.10109848414E+03  0.41656284168E+02  0.52539670410E+03  0.54215020629E+03  0.77000000000E+02 0.  0.
<mgrwt>
<rscale>  0 0.26998165E+03</rscale>
<asrwt>0</asrwt>
<pdfrwt beam="1">  1        2 0.19010490E+00 0.26998165E+03</pdfrwt>
<pdfrwt beam="2">  1       -2 0.22687596E-02 0.26998165E+03</pdfrwt>
<totfact> 0.12214385E+04</totfact>
</mgrwt>
</event>
<event>
 4    1  0.4991066E-004  0.1628637E+03  0.7818608E-02  0.1185501E+00
         -2   -1    0    0    0  501 -0.00000000000E+00  0.00000000000E+00  0.60879855458E+01  0.60879860799E+01  0.25500000000E-02 0. -1.
          2   -1    0    0  501    0  0.00000000000E+00 -0.00000000000E+00 -0.10892179036E+04  0.10892179036E+04  0.25500000000E-02 0.  1.
    5000001    1    1    2    0    0  0.24369465816E+02 -0.91397044555E+01 -0.50811510169E+03  0.51457493295E+03  0.77000000000E+02 0.  0.
   -5000001    1    1    2    0    0 -0.24369465816E+02  0.91397044555E+01 -0.57501481634E+03  0.58073095670E+03  0.77000000000E+02 0.  0.
<mgrwt>
<rscale>  0 0.16286366E+03</rscale>
<asrwt>0</asrwt>
<pdfrwt beam="1">  1        2 0.16757183E+00 0.16286366E+03</pdfrwt>
<pdfrwt beam="2">  1       -2 0.93661407E-03 0.16286366E+03</pdfrwt>
<totfact> 0.52041163E+04</totfact>
</mgrwt>
</event>
<event>
 4    1  0.4991066E-004  0.3062343E+03  0.7818608E-02  0.1082165E+00
          2   -1    0    0  501    0  0.00000000000E+00  0.00000000000E+00  0.79794197139E+03  0.79794197140E+03  0.25500000000E-02 0.  1.
         -2   -1    0    0    0  501 -0.00000000000E+00 -0.00000000000E+00 -0.29381663306E+02  0.29381663417E+02  0.25500000000E-02 0. -1.
    5000001    1    1    2    0    0  0.83932056691E+02 -0.73048530216E+02  0.57787759699E+03  0.59350837821E+03  0.77000000000E+02 0.  0.
   -5000001    1    1    2    0    0 -0.83932056691E+02  0.73048530216E+02  0.19068271109E+03  0.23381525660E+03  0.77000000000E+02 0.  0.
<mgrwt>
<rscale>  0 0.30623430E+03</rscale>
<asrwt>0</asrwt>
<pdfrwt beam="1">  1        2 0.12276028E+00 0.30623430E+03</pdfrwt>
<pdfrwt beam="2">  1       -2 0.45202566E-02 0.30623430E+03</pdfrwt>
<totfact> 0.81351912E+03</totfact>
</mgrwt>
</event>
<event>
 4    1  0.4991066E-004  0.1819891E+03  0.7818608E-02  0.1165892E+00
          2   -1    0    0  501    0  0.00000000000E+00  0.00000000000E+00  0.20676534823E+03  0.20676534825E+03  0.25500000000E-02 0.  1.
         -2   -1    0    0    0  501 -0.00000000000E+00 -0.00000000000E+00 -0.40045436311E+02  0.40045436393E+02  0.25500000000E-02 0. -1.
    5000001    1    1    2    0    0  0.21668284782E+02  0.37562374770E+02  0.53941004844E+02  0.10353298299E+03  0.77000000000E+02 0.  0.
   -5000001    1    1    2    0    0 -0.21668284782E+02 -0.37562374770E+02  0.11277890708E+03  0.14327780165E+03  0.77000000000E+02 0.  0.
<mgrwt>
<rscale>  0 0.18198911E+03</rscale>
<asrwt>0</asrwt>
<pdfrwt beam="1">  1        2 0.31810054E-01 0.18198911E+03</pdfrwt>
<pdfrwt beam="2">  1       -2 0.61608364E-02 0.18198911E+03</pdfrwt>
<totfact> 0.22308406E+04</totfact>
</mgrwt>
</event>
<event>
 4    1  0.4991066E-004  0.2778181E+03  0.7818608E-02  0.1096887E+00
          2   -1    0    0  501    0  0.00000000000E+00  0.00000000000E+00  0.26049019455E+03  0.26049019456E+03  0.25500000000E-02 0.  1.
         -2   -1    0    0    0  501 -0.00000000000E+00 -0.00000000000E+00 -0.74074668335E+02  0.74074668379E+02  0.25500000000E-02 0. -1.
    5000001    1    1    2    0    0  0.40083577301E+02 -0.10448532188E+03  0.12816963704E+03  0.18676276801E+03  0.77000000000E+02 0.  0.
   -5000001    1    1    2    0    0 -0.40083577301E+02  0.10448532188E+03  0.58245889175E+02  0.14780209492E+03  0.77000000000E+02 0.  0.
<mgrwt>
<rscale>  0 0.27781810E+03</rscale>
<asrwt>0</asrwt>
<pdfrwt beam="1">  1        2 0.40075416E-01 0.27781810E+03</pdfrwt>
<pdfrwt beam="2">  1       -2 0.11396102E-01 0.27781810E+03</pdfrwt>
<totfact> 0.68078351E+03</totfact>
</mgrwt>
</event>
<event>
 4    1  0.4991066E-004  0.2261785E+03  0.7818608E-02  0.1129359E+00
          2   -1    0    0  501    0  0.00000000000E+00  0.00000000000E+00  0.17697470045E+04  0.17697470045E+04  0.25500000000E-02 0.  1.
         -2   -1    0    0    0  501 -0.00000000000E+00 -0.00000000000E+00 -0.72265559281E+01  0.72265563780E+01  0.25500000000E-02 0. -1.
    5000001    1    1    2    0    0 -0.41509355144E+02  0.71463541237E+02  0.92437222403E+03  0.93124812636E+03  0.77000000000E+02 0.  0.
   -5000001    1    1    2    0    0  0.41509355144E+02 -0.71463541237E+02  0.83814822449E+03  0.84572543447E+03  0.77000000000E+02 0.  0.
<mgrwt>
<rscale>  0 0.22617848E+03</rscale>
<asrwt>0</asrwt>
<pdfrwt beam="1">  1        2 0.27226899E+00 0.22617848E+03</pdfrwt>
<pdfrwt beam="2">  1       -2 0.11117770E-02 0.22617848E+03</pdfrwt>
<totfact> 0.17815016E+04</totfact>
</mgrwt>
</event>
<event>
 4    1  0.4991066E-004  0.2251332E+03  0.7818608E-02  0.1130113E+00
          2   -1    0    0  501    0  0.00000000000E+00  0.00000000000E+00  0.19977681041E+04  0.19977681041E+04  0.25500000000E-02 0.  1.
         -2   -1    0    0    0  501 -0.00000000000E+00 -0.00000000000E+00 -0.63427001704E+01  0.63427006830E+01  0.25500000000E-02 0. -1.
    5000001    1    1    2    0    0  0.49777770203E+02 -0.39889931479E+02  0.14559679640E+04  0.14593973911E+04  0.77000000000E+02 0.  0.
   -5000001    1    1    2    0    0 -0.49777770203E+02  0.39889931479E+02  0.53545743990E+03  0.54471341363E+03  0.77000000000E+02 0.  0.
<mgrwt>
<rscale>  0 0.22513325E+03</rscale>
<asrwt>0</asrwt>
<pdfrwt beam="1">  1        2 0.30734935E+00 0.22513325E+03</pdfrwt>
<pdfrwt beam="2">  1       -2 0.97579876E-03 0.22513325E+03</pdfrwt>
<totfact> 0.16361371E+04</totfact>
</mgrwt>
</event>
<event>
 4    1  0.4991066E-004  0.4287086E+03  0.7818608E-02  0.1034269E+00
         -2   -1    0    0    0  501 -0.00000000000E+00  0.00000000000E+00  0.84507865352E+02  0.84507865391E+02  0.25500000000E-02 0. -1.
          2   -1    0    0  501    0  0.00000000000E+00 -0.00000000000E+00 -0.54370997697E+03  0.54370997698E+03  0.25500000000E-02 0.  1.
    5000001    1    1    2    0    0  0.11609507197E+03  0.15466982698E+03 -0.15462396292E+03  0.25930366566E+03  0.77000000000E+02 0.  0.
   -5000001    1    1    2    0    0 -0.11609507197E+03 -0.15466982698E+03 -0.30457814870E+03  0.36891417671E+03  0.77000000000E+02 0.  0.
<mgrwt>
<rscale>  0 0.42870862E+03</rscale>
<asrwt>0</asrwt>
<pdfrwt beam="1">  1        2 0.83647687E-01 0.42870862E+03</pdfrwt>
<pdfrwt beam="2">  1       -2 0.13001210E-01 0.42870862E+03</pdfrwt>
<totfact> 0.24683624E+03</totfact>
</mgrwt>
</event>
<event>
 4    1  0.4991066E-004  0.1768548E+03  0.7818608E-02  0.1170882E+00
         -2   -1    0    0    0  501 -0.00000000000E+00  0.00000000000E+00  0.58657479872E+01  0.58657485415E+01  0.25500000000E-02 0. -1.
          2   -1    0    0  501    0  0.00000000000E+00 -0.00000000000E+00 -0.13330613912E+04  0.13330613913E+04  0.25500000000E-02 0.  1.
    5000001    1    1    2    0    0 -0.11770425869E+01 -0.43462558124E+02 -0.66244573678E+03  0.66832157946E+03  0.77000000000E+02 0.  0.
   -5000001    1    1    2    0    0  0.11770425869E+01  0.43462558124E+02 -0.66474990648E+03  0.67060556033E+03  0.77000000000E+02 0.  0.
<mgrwt>
<rscale>  0 0.17685477E+03</rscale>
<asrwt>0</asrwt>
<pdfrwt beam="1">  1        2 0.20508613E+00 0.17685477E+03</pdfrwt>
<pdfrwt beam="2">  1       -2 0.90242387E-03 0.17685477E+03</pdfrwt>
<totfact> 0.40396221E+04</totfact>
</mgrwt>
</event>
<event>
 4    1  0.4991066E-004  0.1991389E+03  0.7818608E-02  0.1150468E+00
          2   -1    0    0  501    0  0.00000000000E+00  0.00000000000E+00  0.10128315018E+03  0.10128315022E+03  0.25500000000E-02 0.  1.
         -2   -1    0    0    0  501 -0.00000000000E+00 -0.00000000000E+00 -0.97884768831E+02  0.97884768864E+02  0.25500000000E-02 0. -1.
    5000001    1    1    2    0    0  0.51486209749E+02 -0.10341800131E+02  0.36737063703E+02  0.10018180710E+03  0.77000000000E+02 0.  0.
   -5000001    1    1    2    0    0 -0.51486209749E+02  0.10341800131E+02 -0.33338682349E+02  0.98986111981E+02  0.77000000000E+02 0.  0.
<mgrwt>
<rscale>  0 0.19913892E+03</rscale>
<asrwt>0</asrwt>
<pdfrwt beam="1">  1        2 0.15582023E-01 0.19913892E+03</pdfrwt>
<pdfrwt beam="2">  1       -2 0.15059195E-01 0.19913892E+03</pdfrwt>
<totfact> 0.12233147E+04</totfact>
</mgrwt>
</event>
<event>
 4    1  0.4991066E-004  0.2783842E+03  0.7818608E-02  0.1096575E+00
         -2   -1    0    0    0  501 -0.00000000000E+00  0.00000000000E+00  0.22081323692E+02  0.22081323840E+02  0.25500000000E-02 0. -1.
          2   -1    0    0  501    0  0.00000000000E+00 -0.00000000000E+00 -0.87741323111E+03  0.87741323112E+03  0.25500000000E-02 0.  1.
    5000001    1    1    2    0    0  0.16478148256E+02  0.55996173825E+02 -0.10393445732E+03  0.14191008517E+03  0.77000000000E+02 0.  0.
   -5000001    1    1    2    0    0 -0.16478148256E+02 -0.55996173825E+02 -0.75139745010E+03  0.75758446979E+03  0.77000000000E+02 0.  0.
<mgrwt>
<rscale>  0 0.27838424E+03</rscale>
<asrwt>0</asrwt>
<pdfrwt beam="1">  1        2 0.13498662E+00 0.27838424E+03</pdfrwt>
<pdfrwt beam="2">  1       -2 0.33971274E-02 0.27838424E+03</pdfrwt>
<totfact> 0.11024060E+04</totfact>
</mgrwt>
</event>
<event>
 4    1  0.4991066E-004  0.1792311E+03  0.7818608E-02  0.1168549E+00
          2   -1    0    0  501    0  0.00000000000E+00  0.00000000000E+00  0.13909273260E+04  0.13909273260E+04  0.25500000000E-02 0.  1.
         -2   -1    0    0    0  501 -0.00000000000E+00 -0.00000000000E+00 -0.57738072984E+01  0.57738078615E+01  0.25500000000E-02 0. -1.
    5000001    1    1    2    0    0  0.21824071728E+01 -0.44354646759E+02  0.60377743225E+03  0.61028541297E+03  0.77000000000E+02 0.  0.
   -5000001    1    1    2    0    0 -0.21824071728E+01  0.44354646759E+02  0.78137608649E+03  0.78641572093E+03  0.77000000000E+02 0.  0.
<mgrwt>
<rscale>  0 0.17923110E+03</rscale>
<asrwt>0</asrwt>
<pdfrwt beam="1">  1        2 0.21398915E+00 0.17923110E+03</pdfrwt>
<pdfrwt beam="2">  1       -2 0.88827673E-03 0.17923110E+03</pdfrwt>
<totfact> 0.38499649E+04</totfact>
</mgrwt>
</event>
<event>
 4    1  0.4991066E-004  0.2350196E+03  0.7818608E-02  0.1123156E+00
          2   -1    0    0  501    0  0.00000000000E+00  0.00000000000E+00  0.10040900648E+04  0.10040900648E+04  0.25500000000E-02 0.  1.
         -2   -1    0    0    0  501 -0.00000000000E+00 -0.00000000000E+00 -0.13752306968E+02  0.13752307205E+02  0.25500000000E-02 0. -1.
    5000001    1    1    2    0    0 -0.20103728588E+01  0.87839745083E+02  0.44043973217E+03  0.45567095594E+03  0.77000000000E+02 0.  0.
   -5000001    1    1    2    0    0  0.20103728588E+01 -0.87839745083E+02  0.54989802569E+03  0.56217141609E+03  0.77000000000E+02 0.  0.
<mgrwt>
<rscale>  0 0.23501962E+03</rscale>
<asrwt>0</asrwt>
<pdfrwt beam="1">  1        2 0.15447542E+00 0.23501962E+03</pdfrwt>
<pdfrwt beam="2">  1       -2 0.21157391E-02 0.23501962E+03</pdfrwt>
<totfact> 0.18373224E+04</totfact>
</mgrwt>
</event>
<event>
 4    1  0.4991066E-004  0.2469422E+03  0.7818608E-02  0.1115253E+00
          2   -1    0    0  501    0  0.00000000000E+00  0.00000000000E+00  0.15774277279E+04  0.15774277279E+04  0.25500000000E-02 0.  1.
         -2   -1    0    0    0  501 -0.00000000000E+00 -0.00000000000E+00 -0.96645426318E+01  0.96645429682E+01  0.25500000000E-02 0. -1.
    5000001    1    1    2    0    0  0.49347657797E+02 -0.81279673198E+02  0.89037201340E+03  0.89873961683E+03  0.77000000000E+02 0.  0.
   -5000001    1    1    2    0    0 -0.49347657797E+02  0.81279673198E+02  0.67739117185E+03  0.68835265402E+03  0.77000000000E+02 0.  0.
<mgrwt>
<rscale>  0 0.24694224E+03</rscale>
<asrwt>0</asrwt>
<pdfrwt beam="1">  1        2 0.24268113E+00 0.24694224E+03</pdfrwt>
<pdfrwt beam="2">  1       -2 0.14868531E-02 0.24694224E+03</pdfrwt>
<totfact> 0.14771933E+04</totfact>
</mgrwt>
</event>
<event>
 4    1  0.4991066E-004  0.3681056E+03  0.7818608E-02  0.1055420E+00
          2   -1    0    0  501    0  0.00000000000E+00  0.00000000000E+00  0.91454689981E+02  0.91454690017E+02  0.25500000000E-02 0.  1.
         -2   -1    0    0    0  501 -0.00000000000E+00 -0.00000000000E+00 -0.37040669302E+03  0.37040669303E+03  0.25500000000E-02 0. -1.
    5000001    1    1    2    0    0 -0.63333650585E+02 -0.13802057804E+03 -0.22717570362E+03  0.28389898128E+03  0.77000000000E+02 0.  0.
   -5000001    1    1    2    0    0  0.63333650585E+02  0.13802057804E+03 -0.51776299425E+02  0.17796240177E+03  0.77000000000E+02 0.  0.
<mgrwt>
<rscale>  0 0.36810558E+03</rscale>
<asrwt>0</asrwt>
<pdfrwt beam="1">  1        2 0.14069952E-01 0.36810558E+03</pdfrwt>
<pdfrwt beam="2">  1       -2 0.56985645E-01 0.36810558E+03</pdfrwt>
<totfact> 0.12462860E+03</totfact>
</mgrwt>
</event>
<event>
 4    1  0.4991066E-004  0.3092318E+03  0.7818608E-02  0.1080715E+00
         -2   -1    0    0    0  501 -0.00000000000E+00  0.00000000000E+00  0.22871815316E+03  0.22871815317E+03  0.25500000000E-02 0. -1.
          2   -1    0    0  501    0  0.00000000000E+00 -0.00000000000E+00 -0.10452196883E+03  0.10452196886E+03  0.25500000000E-02 0.  1.
    5000001    1    1    2    0    0 -0.12505857200E+03  0.24732250881E+02  0.17330782966E+02  0.14993560852E+03  0.77000000000E+02 0.  0.
   -5000001    1    1    2    0    0  0.12505857200E+03 -0.24732250881E+02  0.10686540136E+03  0.18330451351E+03  0.77000000000E+02 0.  0.
<mgrwt>
<rscale>  0 0.30923177E+03</rscale>
<asrwt>0</asrwt>
<pdfrwt beam="1">  1        2 0.16080303E-01 0.30923177E+03</pdfrwt>
<pdfrwt beam="2">  1       -2 0.35187408E-01 0.30923177E+03</pdfrwt>
<totfact> 0.27292934E+03</totfact>
</mgrwt>
</event>
<event>
 4    1  0.4991066E-004  0.4158396E+03  0.7818608E-02  0.1038429E+00
         -2   -1    0    0    0  501 -0.00000000000E+00  0.00000000000E+00  0.21309179430E+02  0.21309179583E+02  0.25500000000E-02 0. -1.
          2   -1    0    0  501    0  0.00000000000E+00 -0.00000000000E+00 -0.20287330673E+04  0.20287330673E+04  0.25500000000E-02 0.  1.
    5000001    1    1    2    0    0 -0.36075538710E+02 -0.18147080412E+03 -0.12768001108E+04  0.12924320563E+04  0.77000000000E+02 0.  0.
   -5000001    1    1    2    0    0  0.36075538710E+02  0.18147080412E+03 -0.73062377710E+03  0.75761019060E+03  0.77000000000E+02 0.  0.
<mgrwt>
<rscale>  0 0.41583957E+03</rscale>
<asrwt>0</asrwt>
<pdfrwt beam="1">  1        2 0.31211263E+00 0.41583957E+03</pdfrwt>
<pdfrwt beam="2">  1       -2 0.32783369E-02 0.41583957E+03</pdfrwt>
<totfact> 0.26431115E+03</totfact>
</mgrwt>
</event>
<event>
 4    1  0.4991066E-004  0.1801572E+03  0.7818608E-02  0.1167651E+00
          2   -1    0    0  501    0  0.00000000000E+00  0.00000000000E+00  0.84275972960E+02  0.84275972999E+02  0.25500000000E-02 0.  1.
         -2   -1    0    0    0  501 -0.00000000000E+00 -0.00000000000E+00 -0.96280760165E+02  0.96280760198E+02  0.25500000000E-02 0. -1.
    5000001    1    1    2    0    0 -0.39621288322E+02 -0.20788376848E+02 -0.19565759048E+02  0.91180162467E+02  0.77000000000E+02 0.  0.
   -5000001    1    1    2    0    0  0.39621288322E+02  0.20788376848E+02  0.75609718433E+01  0.89376570730E+02  0.77000000000E+02 0.  0.
<mgrwt>
<rscale>  0 0.18015721E+03</rscale>
<asrwt>0</asrwt>
<pdfrwt beam="1">  1        2 0.12965534E-01 0.18015721E+03</pdfrwt>
<pdfrwt beam="2">  1       -2 0.14812425E-01 0.18015721E+03</pdfrwt>
<totfact> 0.15514899E+04</totfact>
</mgrwt>
</event>
<event>
 4    1  0.4991066E-004  0.2622162E+03  0.7818608E-02  0.1105819E+00
         -2   -1    0    0    0  501 -0.00000000000E+00  0.00000000000E+00  0.35862640279E+02  0.35862640370E+02  0.25500000000E-02 0. -1.
          2   -1    0    0  501    0  0.00000000000E+00 -0.00000000000E+00 -0.47931020399E+03  0.47931020400E+03  0.25500000000E-02 0.  1.
    5000001    1    1    2    0    0  0.84121119813E+02 -0.91493238335E+01 -0.95918459891E+02  0.14929642954E+03  0.77000000000E+02 0.  0.
   -5000001    1    1    2    0    0 -0.84121119813E+02  0.91493238335E+01 -0.34752910382E+03  0.36587641483E+03  0.77000000000E+02 0.  0.
<mgrwt>
<rscale>  0 0.26221617E+03</rscale>
<asrwt>0</asrwt>
<pdfrwt beam="1">  1        2 0.73740027E-01 0.26221617E+03</pdfrwt>
<pdfrwt beam="2">  1       -2 0.55173296E-02 0.26221617E+03</pdfrwt>
<totfact> 0.10898839E+04</totfact>
</mgrwt>
</event>
<event>
 4    1  0.4991066E-004  0.2281027E+03  0.7818608E-02  0.1127982E+00
          2   -1    0    0  501    0  0.00000000000E+00  0.00000000000E+00  0.95852439596E+03  0.95852439596E+03  0.25500000000E-02 0.  1.
         -2   -1    0    0    0  501 -0.00000000000E+00 -0.00000000000E+00 -0.13570563039E+02  0.13570563278E+02  0.25500000000E-02 0. -1.
    5000001    1    1    2    0    0 -0.35420152067E+02  0.22247360455E+02  0.16137082292E+03  0.18362754344E+03  0.77000000000E+02 0.  0.
   -5000001    1    1    2    0    0  0.35420152067E+02 -0.22247360455E+02  0.78358301000E+03  0.78846741580E+03  0.77000000000E+02 0.  0.
<mgrwt>
<rscale>  0 0.22810275E+03</rscale>
<asrwt>0</asrwt>
<pdfrwt beam="1">  1        2 0.14746529E+00 0.22810275E+03</pdfrwt>
<pdfrwt beam="2">  1       -2 0.20877789E-02 0.22810275E+03</pdfrwt>
<totfact> 0.19953976E+04</totfact>
</mgrwt>
</event>
<event>
 4    1  0.4991066E-004  0.2032127E+03  0.7818608E-02  0.1147056E+00
          2   -1    0    0  501    0  0.00000000000E+00  0.00000000000E+00  0.32204906359E+03  0.32204906360E+03  0.25500000000E-02 0.  1.
         -2   -1    0    0    0  501 -0.00000000000E+00 -0.00000000000E+00 -0.32056747924E+02  0.32056748026E+02  0.25500000000E-02 0. -1.
    5000001    1    1    2    0    0  0.62015862497E+02 -0.39798521140E+01  0.10476505849E+03  0.14410594681E+03  0.77000000000E+02 0.  0.
   -5000001    1    1    2    0    0 -0.62015862497E+02  0.39798521140E+01  0.18522725718E+03  0.20999986482E+03  0.77000000000E+02 0.  0.
<mgrwt>
<rscale>  0 0.20321265E+03</rscale>
<asrwt>0</asrwt>
<pdfrwt beam="1">  1        2 0.49546009E-01 0.20321265E+03</pdfrwt>
<pdfrwt beam="2">  1       -2 0.49318074E-02 0.20321265E+03</pdfrwt>
<totfact> 0.19603736E+04</totfact>
</mgrwt>
</event>
<event>
 4    1  0.4991066E-004  0.1702437E+03  0.7818608E-02  0.1177594E+00
          2   -1    0    0  501    0  0.00000000000E+00  0.00000000000E+00  0.40482228825E+04  0.40482228825E+04  0.25500000000E-02 0.  1.
         -2   -1    0    0    0  501 -0.00000000000E+00 -0.00000000000E+00 -0.17898535812E+01  0.17898553977E+01  0.25500000000E-02 0. -1.
    5000001    1    1    2    0    0 -0.35724998143E+02 -0.61552664735E+01  0.20613325060E+04  0.20630886707E+04  0.77000000000E+02 0.  0.
   -5000001    1    1    2    0    0  0.35724998143E+02  0.61552664735E+01  0.19851005229E+04  0.19869240672E+04  0.77000000000E+02 0.  0.
<mgrwt>
<rscale>  0 0.17024371E+03</rscale>
<asrwt>0</asrwt>
<pdfrwt beam="1">  1        2 0.62279936E+00 0.17024371E+03</pdfrwt>
<pdfrwt beam="2">  1       -2 0.27536407E-03 0.17024371E+03</pdfrwt>
<totfact> 0.56764085E+03</totfact>
</mgrwt>
</event>
<event>
 4    1  0.4991066E-004  0.2391673E+03  0.7818608E-02  0.1120349E+00
         -2   -1    0    0    0  501 -0.00000000000E+00  0.00000000000E+00  0.27114303572E+02  0.27114303692E+02  0.25500000000E-02 0. -1.
          2   -1    0    0  501    0  0.00000000000E+00 -0.00000000000E+00 -0.52740613131E+03  0.52740613131E+03  0.25500000000E-02 0.  1.
    5000001    1    1    2    0    0 -0.87529497306E+02 -0.15711869305E+02 -0.30003369210E+03  0.32226928512E+03  0.77000000000E+02 0.  0.
   -5000001    1    1    2    0    0  0.87529497306E+02  0.15711869305E+02 -0.20025813563E+03  0.23225114989E+03  0.77000000000E+02 0.  0.
<mgrwt>
<rscale>  0 0.23916731E+03</rscale>
<asrwt>0</asrwt>
<pdfrwt beam="1">  1        2 0.81139397E-01 0.23916731E+03</pdfrwt>
<pdfrwt beam="2">  1       -2 0.41714317E-02 0.23916731E+03</pdfrwt>
<totfact> 0.14893533E+04</totfact>
</mgrwt>
</event>
<event>
 4    1  0.4991066E-004  0.2946341E+03  0.7818608E-02  0.1087954E+00
          2   -1    0    0  501    0  0.00000000000E+00  0.00000000000E+00  0.71047995349E+03  0.71047995350E+03  0.25500000000E-02 0.  1.
         -2   -1    0    0    0  501 -0.00000000000E+00 -0.00000000000E+00 -0.30545988897E+02  0.30545989003E+02  0.25500000000E-02 0. -1.
    5000001    1    1    2    0    0  0.95403052276E+02 -0.51864514699E+02  0.49866866856E+03  0.51613090517E+03  0.77000000000E+02 0.  0.
   -5000001    1    1    2    0    0 -0.95403052276E+02  0.51864514699E+02  0.18126529603E+03  0.22489503733E+03  0.77000000000E+02 0.  0.
<mgrwt>
<rscale>  0 0.29463410E+03</rscale>
<asrwt>0</asrwt>
<pdfrwt beam="1">  1        2 0.10930460E+00 0.29463410E+03</pdfrwt>
<pdfrwt beam="2">  1       -2 0.46993833E-02 0.29463410E+03</pdfrwt>
<totfact> 0.88564796E+03</totfact>
</mgrwt>
</event>
<event>
 4    1  0.4991066E-004  0.3632923E+03  0.7818608E-02  0.1057288E+00
         -2   -1    0    0    0  501 -0.00000000000E+00  0.00000000000E+00  0.76480808696E+02  0.76480808739E+02  0.25500000000E-02 0. -1.
          2   -1    0    0  501    0  0.00000000000E+00 -0.00000000000E+00 -0.43141960485E+03  0.43141960486E+03  0.25500000000E-02 0.  1.
    5000001    1    1    2    0    0 -0.11317963803E+02  0.16400508856E+03 -0.16856624045E+03  0.24772836494E+03  0.77000000000E+02 0.  0.
   -5000001    1    1    2    0    0  0.11317963803E+02 -0.16400508856E+03 -0.18637255571E+03  0.26017204866E+03  0.77000000000E+02 0.  0.
<mgrwt>
<rscale>  0 0.36329228E+03</rscale>
<asrwt>0</asrwt>
<pdfrwt beam="1">  1        2 0.66372246E-01 0.36329228E+03</pdfrwt>
<pdfrwt beam="2">  1       -2 0.11766278E-01 0.36329228E+03</pdfrwt>
<totfact> 0.37651636E+03</totfact>
</mgrwt>
</event>
<event>
 4    1  0.4991066E-004  0.6226089E+03  0.7818608E-02  0.9859579E-01
         -2   -1    0    0    0  501 -0.00000000000E+00  0.00000000000E+00  0.49110973024E+02  0.49110973090E+02  0.25500000000E-02 0. -1.
          2   -1    0    0  501    0  0.00000000000E+00 -0.00000000000E+00 -0.19732953967E+04  0.19732953967E+04  0.25500000000E-02 0.  1.
    5000001    1    1    2    0    0 -0.19340616613E+03  0.10935289809E+03 -0.16247523864E+04  0.16416800292E+04  0.77000000000E+02 0.  0.
   -5000001    1    1    2    0    0  0.19340616613E+03 -0.10935289809E+03 -0.29943203730E+03  0.38072634054E+03  0.77000000000E+02 0.  0.
<mgrwt>
<rscale>  0 0.62260889E+03</rscale>
<asrwt>0</asrwt>
<pdfrwt beam="1">  1        2 0.30358385E+00 0.62260889E+03</pdfrwt>
<pdfrwt beam="2">  1       -2 0.75555359E-02 0.62260889E+03</pdfrwt>
<totfact> 0.76856690E+02</totfact>
</mgrwt>
</event>
<event>
 4    1  0.4991066E-004  0.5914188E+03  0.7818608E-02  0.9923371E-01
          2   -1    0    0  501    0  0.00000000000E+00  0.00000000000E+00  0.42360173449E+03  0.42360173450E+03  0.25500000000E-02 0.  1.
         -2   -1    0    0    0  501 -0.00000000000E+00 -0.00000000000E+00 -0.20642983448E+03  0.20642983449E+03  0.25500000000E-02 0. -1.
    5000001    1    1    2    0    0  0.10197232304E+02 -0.24353116166E+03  0.26696545355E+03  0.36960920394E+03  0.77000000000E+02 0.  0.
   -5000001    1    1    2    0    0 -0.10197232304E+02  0.24353116166E+03 -0.49793553534E+02  0.26042236505E+03  0.77000000000E+02 0.  0.
<mgrwt>
<rscale>  0 0.59141876E+03</rscale>
<asrwt>0</asrwt>
<pdfrwt beam="1">  1        2 0.65169497E-01 0.59141876E+03</pdfrwt>
<pdfrwt beam="2">  1       -2 0.31758436E-01 0.59141876E+03</pdfrwt>
<totfact> 0.69047733E+02</totfact>
</mgrwt>
</event>
<event>
 4    1  0.4991066E-004  0.2677854E+03  0.7818608E-02  0.1102554E+00
          2   -1    0    0  501    0  0.00000000000E+00  0.00000000000E+00  0.32185029093E+03  0.32185029094E+03  0.25500000000E-02 0.  1.
         -2   -1    0    0    0  501 -0.00000000000E+00 -0.00000000000E+00 -0.55700587687E+02  0.55700587745E+02  0.25500000000E-02 0. -1.
    5000001    1    1    2    0    0  0.39392503564E+02 -0.94328002284E+02  0.18855959232E+03  0.22788870355E+03  0.77000000000E+02 0.  0.
   -5000001    1    1    2    0    0 -0.39392503564E+02  0.94328002284E+02  0.77590110925E+02  0.14966217513E+03  0.77000000000E+02 0.  0.
<mgrwt>
<rscale>  0 0.26778536E+03</rscale>
<asrwt>0</asrwt>
<pdfrwt beam="1">  1        2 0.49515429E-01 0.26778536E+03</pdfrwt>
<pdfrwt beam="2">  1       -2 0.85693213E-02 0.26778536E+03</pdfrwt>
<totfact> 0.85146704E+03</totfact>
</mgrwt>
</event>
<event>
 4    1  0.4991066E-004  0.1987769E+03  0.7818608E-02  0.1150775E+00
          2   -1    0    0  501    0  0.00000000000E+00  0.00000000000E+00  0.19724058175E+04  0.19724058175E+04  0.25500000000E-02 0.  1.
         -2   -1    0    0    0  501 -0.00000000000E+00 -0.00000000000E+00 -0.50081295459E+01  0.50081301951E+01  0.25500000000E-02 0. -1.
    5000001    1    1    2    0    0 -0.64774460136E+01 -0.43985403516E+02  0.14255014020E+04  0.14282716549E+04  0.77000000000E+02 0.  0.
   -5000001    1    1    2    0    0  0.64774460136E+01  0.43985403516E+02  0.54189628596E+03  0.54914229282E+03  0.77000000000E+02 0.  0.
<mgrwt>
<rscale>  0 0.19877691E+03</rscale>
<asrwt>0</asrwt>
<pdfrwt beam="1">  1        2 0.30344725E+00 0.19877691E+03</pdfrwt>
<pdfrwt beam="2">  1       -2 0.77048102E-03 0.19877691E+03</pdfrwt>
<totfact> 0.23601974E+04</totfact>
</mgrwt>
</event>
<event>
 4    1  0.4991066E-004  0.1879031E+03  0.7818608E-02  0.1160366E+00
          2   -1    0    0  501    0  0.00000000000E+00  0.00000000000E+00  0.38139381508E+02  0.38139381593E+02  0.25500000000E-02 0.  1.
         -2   -1    0    0    0  501 -0.00000000000E+00 -0.00000000000E+00 -0.23143786471E+03  0.23143786472E+03  0.25500000000E-02 0. -1.
    5000001    1    1    2    0    0 -0.24652214014E+02  0.47689189174E+02 -0.10237111223E+03  0.13889145056E+03  0.77000000000E+02 0.  0.
   -5000001    1    1    2    0    0  0.24652214014E+02 -0.47689189174E+02 -0.90927370964E+02  0.13068579575E+03  0.77000000000E+02 0.  0.
<mgrwt>
<rscale>  0 0.18790313E+03</rscale>
<asrwt>0</asrwt>
<pdfrwt beam="1">  1        2 0.58675973E-02 0.18790313E+03</pdfrwt>
<pdfrwt beam="2">  1       -2 0.35605825E-01 0.18790313E+03</pdfrwt>
<totfact> 0.91314200E+03</totfact>
</mgrwt>
</event>
<event>
 4    1  0.4991066E-004  0.3048546E+03  0.7818608E-02  0.1082839E+00
         -2   -1    0    0    0  501 -0.00000000000E+00  0.00000000000E+00  0.11647784875E+02  0.11647785154E+02  0.25500000000E-02 0. -1.
          2   -1    0    0  501    0  0.00000000000E+00 -0.00000000000E+00 -0.19947203903E+04  0.19947203903E+04  0.25500000000E-02 0.  1.
    5000001    1    1    2    0    0 -0.69837503488E+02 -0.10592143370E+03 -0.12203235429E+04  0.12293149215E+04  0.77000000000E+02 0.  0.
   -5000001    1    1    2    0    0  0.69837503488E+02  0.10592143370E+03 -0.76274906258E+03  0.77705325395E+03  0.77000000000E+02 0.  0.
<mgrwt>
<rscale>  0 0.30485455E+03</rscale>
<asrwt>0</asrwt>
<pdfrwt beam="1">  1        2 0.30687979E+00 0.30485455E+03</pdfrwt>
<pdfrwt beam="2">  1       -2 0.17919685E-02 0.30485455E+03</pdfrwt>
<totfact> 0.67991061E+03</totfact>
</mgrwt>
</event>
<event>
 4    1  0.4991066E-004  0.2699086E+03  0.7818608E-02  0.1101332E+00
          2   -1    0    0  501    0  0.00000000000E+00  0.00000000000E+00  0.18972406647E+04  0.18972406647E+04  0.25500000000E-02 0.  1.
         -2   -1    0    0    0  501 -0.00000000000E+00 -0.00000000000E+00 -0.95995509976E+01  0.95995513363E+01  0.25500000000E-02 0. -1.
    5000001    1    1    2    0    0 -0.76843606286E+02 -0.35954585091E+02  0.14476519754E+04  0.14521786784E+04  0.77000000000E+02 0.  0.
   -5000001    1    1    2    0    0  0.76843606286E+02  0.35954585091E+02  0.43998913831E+03  0.45466153768E+03  0.77000000000E+02 0.  0.
<mgrwt>
<rscale>  0 0.26990857E+03</rscale>
<asrwt>0</asrwt>
<pdfrwt beam="1">  1        2 0.29188282E+00 0.26990857E+03</pdfrwt>
<pdfrwt beam="2">  1       -2 0.14768558E-02 0.26990857E+03</pdfrwt>
<totfact> 0.10151899E+04</totfact>
</mgrwt>
</event>
<event>
 4    1  0.4991066E-004  0.2733663E+03  0.7818608E-02  0.1099368E+00
          2   -1    0    0  501    0  0.00000000000E+00  0.00000000000E+00  0.20660468469E+04  0.20660468469E+04  0.25500000000E-02 0.  1.
         -2   -1    0    0    0  501 -0.00000000000E+00 -0.00000000000E+00 -0.90425245794E+01  0.90425249390E+01  0.25500000000E-02 0. -1.
    5000001    1    1    2    0    0 -0.82948894180E+02 -0.74996215875E+02  0.11481224944E+04  0.11561224907E+04  0.77000000000E+02 0.  0.
   -5000001    1    1    2    0    0  0.82948894180E+02  0.74996215875E+02  0.90888182797E+03  0.91896688116E+03  0.77000000000E+02 0.  0.
<mgrwt>
<rscale>  0 0.27336627E+03</rscale>
<asrwt>0</asrwt>
<pdfrwt beam="1">  1        2 0.31785363E+00 0.27336627E+03</pdfrwt>
<pdfrwt beam="2">  1       -2 0.13911565E-02 0.27336627E+03</pdfrwt>
<totfact> 0.90322211E+03</totfact>
</mgrwt>
</event>
<event>
 4    1  0.4991066E-004  0.2461331E+03  0.7818608E-02  0.1115773E+00
         -2   -1    0    0    0  501 -0.00000000000E+00  0.00000000000E+00  0.46670274554E+03  0.46670274555E+03  0.25500000000E-02 0. -1.
          2   -1    0    0  501    0  0.00000000000E+00 -0.00000000000E+00 -0.32451875613E+02  0.32451875713E+02  0.25500000000E-02 0.  1.
    5000001    1    1    2    0    0 -0.86986332677E+02  0.99713818281E+01  0.29697580788E+03  0.31904495137E+03  0.77000000000E+02 0.  0.
   -5000001    1    1    2    0    0  0.86986332677E+02 -0.99713818281E+01  0.13727506205E+03  0.18010966989E+03  0.77000000000E+02 0.  0.
<mgrwt>
<rscale>  0 0.24613313E+03</rscale>
<asrwt>0</asrwt>
<pdfrwt beam="1">  1        2 0.49925966E-02 0.24613313E+03</pdfrwt>
<pdfrwt beam="2">  1       -2 0.71800418E-01 0.24613313E+03</pdfrwt>
<totfact> 0.28209722E+03</totfact>
</mgrwt>
</event>
<event>
 4    1  0.4991066E-004  0.3319581E+03  0.7818608E-02  0.1070274E+00
          2   -1    0    0  501    0  0.00000000000E+00  0.00000000000E+00  0.16292318434E+04  0.16292318434E+04  0.25500000000E-02 0.  1.
         -2   -1    0    0    0  501 -0.00000000000E+00 -0.00000000000E+00 -0.16909220525E+02  0.16909220717E+02  0.25500000000E-02 0. -1.
    5000001    1    1    2    0    0 -0.12162341534E+03  0.46156272170E+02  0.11460305418E+04  0.11559574643E+04  0.77000000000E+02 0.  0.
   -5000001    1    1    2    0    0  0.12162341534E+03 -0.46156272170E+02  0.46629208102E+03  0.49018359973E+03  0.77000000000E+02 0.  0.
<mgrwt>
<rscale>  0 0.33195807E+03</rscale>
<asrwt>0</asrwt>
<pdfrwt beam="1">  1        2 0.25065101E+00 0.33195807E+03</pdfrwt>
<pdfrwt beam="2">  1       -2 0.26014190E-02 0.33195807E+03</pdfrwt>
<totfact> 0.61112577E+03</totfact>
</mgrwt>
</event>
<event>
 4    1  0.4991066E-004  0.2893096E+03  0.7818608E-02  0.1090710E+00
         -2   -1    0    0    0  501 -0.00000000000E+00  0.00000000000E+00  0.93244353065E+01  0.93244356552E+01  0.25500000000E-02 0. -1.
          2   -1    0    0  501    0  0.00000000000E+00 -0.00000000000E+00 -0.22441047821E+04  0.22441047821E+04  0.25500000000E-02 0.  1.
    5000001    1    1    2    0    0 -0.68317429138E+02 -0.47037158824E+02 -0.41567857485E+03  0.43081021695E+03  0.77000000000E+02 0.  0.
   -5000001    1    1    2    0    0  0.68317429138E+02  0.47037158824E+02 -0.18191017719E+04  0.18226190008E+04  0.77000000000E+02 0.  0.
<mgrwt>
<rscale>  0 0.28930959E+03</rscale>
<asrwt>0</asrwt>
<pdfrwt beam="1">  1        2 0.34524646E+00 0.28930959E+03</pdfrwt>
<pdfrwt beam="2">  1       -2 0.14345303E-02 0.28930959E+03</pdfrwt>
<totfact> 0.69482209E+03</totfact>
</mgrwt>
</event>
<event>
 4    1  0.4991066E-004  0.3756200E+03  0.7818608E-02  0.1052565E+00
          2   -1    0    0  501    0  0.00000000000E+00  0.00000000000E+00  0.10434763634E+03  0.10434763637E+03  0.25500000000E-02 0.  1.
         -2   -1    0    0    0  501 -0.00000000000E+00 -0.00000000000E+00 -0.33802973833E+03  0.33802973834E+03  0.25500000000E-02 0. -1.
    5000001    1    1    2    0    0 -0.15059910038E+03 -0.76052003533E+02 -0.15177025744E+03  0.23963974487E+03  0.77000000000E+02 0.  0.
   -5000001    1    1    2    0    0  0.15059910038E+03  0.76052003533E+02 -0.81911844559E+02  0.20273762985E+03  0.77000000000E+02 0.  0.
<mgrwt>
<rscale>  0 0.37562004E+03</rscale>
<asrwt>0</asrwt>
<pdfrwt beam="1">  1        2 0.16053483E-01 0.37562004E+03</pdfrwt>
<pdfrwt beam="2">  1       -2 0.52004575E-01 0.37562004E+03</pdfrwt>
<totfact> 0.12833876E+03</totfact>
</mgrwt>
</event>
<event>
 4    1  0.4991066E-004  0.3510467E+03  0.7818608E-02  0.1062186E+00
          2   -1    0    0  501    0  0.00000000000E+00  0.00000000000E+00  0.65049542428E+03  0.65049542428E+03  0.25500000000E-02 0. -1.
         -2   -1    0    0    0  501 -0.00000000000E+00 -0.00000000000E+00 -0.47361515743E+02  0.47361515812E+02  0.25500000000E-02 0.  1.
    5000001    1    1    2    0    0 -0.44370065470E+02 -0.11515174016E+03  0.10627530672E+03  0.18014457191E+03  0.77000000000E+02 0.  0.
   -5000001    1    1    2    0    0  0.44370065470E+02  0.11515174016E+03  0.49685860181E+03  0.51771236818E+03  0.77000000000E+02 0.  0.
<mgrwt>
<rscale>  0 0.35104672E+03</rscale>
<asrwt>0</asrwt>
<pdfrwt beam="1">  1        2 0.10007622E+00 0.35104672E+03</pdfrwt>
<pdfrwt beam="2">  1       -2 0.72863870E-02 0.35104672E+03</pdfrwt>
<totfact> 0.50390511E+03</totfact>
</mgrwt>
</event>
<event>
 4    1  0.4991066E-004  0.2172482E+03  0.7818608E-02  0.1135951E+00
         -2   -1    0    0    0  501 -0.00000000000E+00  0.00000000000E+00  0.70776341828E+02  0.70776341874E+02  0.25500000000E-02 0. -1.
          2   -1    0    0  501    0  0.00000000000E+00 -0.00000000000E+00 -0.16671105558E+03  0.16671105560E+03  0.25500000000E-02 0.  1.
    5000001    1    1    2    0    0  0.25038264119E+02 -0.71986435397E+02 -0.56521798548E+02  0.12219932595E+03  0.77000000000E+02 0.  0.
   -5000001    1    1    2    0    0 -0.25038264119E+02  0.71986435397E+02 -0.39412915207E+02  0.11528807153E+03  0.77000000000E+02 0.  0.
<mgrwt>
<rscale>  0 0.21724823E+03</rscale>
<asrwt>0</asrwt>
<pdfrwt beam="1">  1        2 0.25647855E-01 0.21724823E+03</pdfrwt>
<pdfrwt beam="2">  1       -2 0.10888668E-01 0.21724823E+03</pdfrwt>
<totfact> 0.11778142E+04</totfact>
</mgrwt>
</event>
<event>
 4    1  0.4991066E-004  0.2090765E+03  0.7818608E-02  0.1142299E+00
         -2   -1    0    0    0  501 -0.00000000000E+00  0.00000000000E+00  0.16080922873E+02  0.16080923075E+02  0.25500000000E-02 0. -1.
          2   -1    0    0  501    0  0.00000000000E+00 -0.00000000000E+00 -0.67957807458E+03  0.67957807458E+03  0.25500000000E-02 0.  1.
    5000001    1    1    2    0    0  0.33295740386E+02 -0.56463801798E+02 -0.24356111945E+03  0.26371914255E+03  0.77000000000E+02 0.  0.
   -5000001    1    1    2    0    0 -0.33295740386E+02  0.56463801798E+02 -0.41993603226E+03  0.43193985511E+03  0.77000000000E+02 0.  0.
<mgrwt>
<rscale>  0 0.20907647E+03</rscale>
<asrwt>0</asrwt>
<pdfrwt beam="1">  1        2 0.10455045E+00 0.20907647E+03</pdfrwt>
<pdfrwt beam="2">  1       -2 0.24739887E-02 0.20907647E+03</pdfrwt>
<totfact> 0.23964993E+04</totfact>
</mgrwt>
</event>
<event>
 4    1  0.4991066E-004  0.1785360E+03  0.7818608E-02  0.1169227E+00
          2   -1    0    0  501    0  0.00000000000E+00  0.00000000000E+00  0.78076818960E+02  0.78076819002E+02  0.25500000000E-02 0.  1.
         -2   -1    0    0    0  501 -0.00000000000E+00 -0.00000000000E+00 -0.10206325591E+03  0.10206325594E+03  0.25500000000E-02 0. -1.
    5000001    1    1    2    0    0  0.25126277607E+02  0.76699554431E+01 -0.49060414852E+02  0.95005696399E+02  0.77000000000E+02 0.  0.
   -5000001    1    1    2    0    0 -0.25126277607E+02 -0.76699554431E+01  0.25073977900E+02  0.85134378547E+02  0.77000000000E+02 0.  0.
<mgrwt>
<rscale>  0 0.17853598E+03</rscale>
<asrwt>0</asrwt>
<pdfrwt beam="1">  1        2 0.12011818E-01 0.17853598E+03</pdfrwt>
<pdfrwt beam="2">  1       -2 0.15702039E-01 0.17853598E+03</pdfrwt>
<totfact> 0.15441972E+04</totfact>
</mgrwt>
</event>
<event>
 4    1  0.4991066E-004  0.4387623E+03  0.7818608E-02  0.1031127E+00
         -2   -1    0    0    0  501 -0.00000000000E+00  0.00000000000E+00  0.22110053820E+03  0.22110053822E+03  0.25500000000E-02 0. -1.
          2   -1    0    0  501    0  0.00000000000E+00 -0.00000000000E+00 -0.21767515349E+03  0.21767515350E+03  0.25500000000E-02 0.  1.
    5000001    1    1    2    0    0  0.15497557289E+03 -0.27789394150E+02  0.13366145532E+03  0.22041792862E+03  0.77000000000E+02 0.  0.
   -5000001    1    1    2    0    0 -0.15497557289E+03  0.27789394150E+02 -0.13023607061E+03  0.21835776310E+03  0.77000000000E+02 0.  0.
<mgrwt>
<rscale>  0 0.43876232E+03</rscale>
<asrwt>0</asrwt>
<pdfrwt beam="1">  1        2 0.33488485E-01 0.43876232E+03</pdfrwt>
<pdfrwt beam="2">  1       -2 0.34015467E-01 0.43876232E+03</pdfrwt>
<totfact> 0.12676244E+03</totfact>
</mgrwt>
</event>
<event>
 4    1  0.4991066E-004  0.2353438E+03  0.7818608E-02  0.1122934E+00
         -2   -1    0    0    0  501 -0.00000000000E+00  0.00000000000E+00  0.14119770601E+02  0.14119770832E+02  0.25500000000E-02 0. -1.
          2   -1    0    0  501    0  0.00000000000E+00 -0.00000000000E+00 -0.98065859656E+03  0.98065859656E+03  0.25500000000E-02 0.  1.
    5000001    1    1    2    0    0  0.49223915033E+02 -0.74115087862E+02 -0.48867338540E+03  0.50263974938E+03  0.77000000000E+02 0.  0.
   -5000001    1    1    2    0    0 -0.49223915033E+02  0.74115087862E+02 -0.47786544056E+03  0.49213861801E+03  0.77000000000E+02 0.  0.
<mgrwt>
<rscale>  0 0.23534379E+03</rscale>
<asrwt>0</asrwt>
<pdfrwt beam="1">  1        2 0.15087050E+00 0.23534379E+03</pdfrwt>
<pdfrwt beam="2">  1       -2 0.21722732E-02 0.23534379E+03</pdfrwt>
<totfact> 0.18269178E+04</totfact>
</mgrwt>
</event>
<event>
 4    1  0.4991066E-004  0.4818086E+03  0.7818608E-02  0.1018639E+00
          2   -1    0    0  501    0  0.00000000000E+00  0.00000000000E+00  0.10659866273E+04  0.10659866273E+04  0.25500000000E-02 0. -1.
         -2   -1    0    0    0  501 -0.00000000000E+00 -0.00000000000E+00 -0.54442411266E+02  0.54442411326E+02  0.25500000000E-02 0.  1.
    5000001    1    1    2    0    0  0.64942524652E+02 -0.13018349930E+03  0.96724155024E+02  0.19091840447E+03  0.77000000000E+02 0.  0.
   -5000001    1    1    2    0    0 -0.64942524652E+02  0.13018349930E+03  0.91482006103E+03  0.92951063418E+03  0.77000000000E+02 0.  0.
<mgrwt>
<rscale>  0 0.48180860E+03</rscale>
<asrwt>0</asrwt>
<pdfrwt beam="1">  1        2 0.16399794E+00 0.48180860E+03</pdfrwt>
<pdfrwt beam="2">  1       -2 0.83757558E-02 0.48180860E+03</pdfrwt>
<totfact> 0.21055430E+03</totfact>
</mgrwt>
</event>
<event>
 4    1  0.4991066E-004  0.3910086E+03  0.7818608E-02  0.1046938E+00
         -2   -1    0    0    0  501 -0.00000000000E+00  0.00000000000E+00  0.12119532382E+03  0.12119532385E+03  0.25500000000E-02 0. -1.
          2   -1    0    0  501    0  0.00000000000E+00 -0.00000000000E+00 -0.31537461997E+03  0.31537461998E+03  0.25500000000E-02 0.  1.
    5000001    1    1    2    0    0 -0.35946819704E+02 -0.16674744470E+03 -0.16021066408E+03  0.24636018560E+03  0.77000000000E+02 0.  0.
   -5000001    1    1    2    0    0  0.35946819704E+02  0.16674744470E+03 -0.33968632067E+02  0.19020975823E+03  0.77000000000E+02 0.  0.
<mgrwt>
<rscale>  0 0.39100859E+03</rscale>
<asrwt>0</asrwt>
<pdfrwt beam="1">  1        2 0.48519172E-01 0.39100859E+03</pdfrwt>
<pdfrwt beam="2">  1       -2 0.18645435E-01 0.39100859E+03</pdfrwt>
<totfact> 0.24700107E+03</totfact>
</mgrwt>
</event>
<event>
 4    1  0.4991066E-004  0.2897846E+03  0.7818608E-02  0.1090462E+00
         -2   -1    0    0    0  501 -0.00000000000E+00  0.00000000000E+00  0.18054429205E+02  0.18054429385E+02  0.25500000000E-02 0. -1.
          2   -1    0    0  501    0  0.00000000000E+00 -0.00000000000E+00 -0.11628051938E+04  0.11628051938E+04  0.25500000000E-02 0.  1.
    5000001    1    1    2    0    0 -0.11944971109E+03  0.95167573995E+01 -0.46410249196E+03  0.48546773857E+03  0.77000000000E+02 0.  0.
   -5000001    1    1    2    0    0  0.11944971109E+03 -0.95167573995E+01 -0.68064827264E+03  0.69539188463E+03  0.77000000000E+02 0.  0.
<mgrwt>
<rscale>  0 0.28978464E+03</rscale>
<asrwt>0</asrwt>
<pdfrwt beam="1">  1        2 0.17889305E+00 0.28978464E+03</pdfrwt>
<pdfrwt beam="2">  1       -2 0.27776054E-02 0.28978464E+03</pdfrwt>
<totfact> 0.99767950E+03</totfact>
</mgrwt>
</event>
<event>
 4    1  0.4991066E-004  0.2620445E+03  0.7818608E-02  0.1105921E+00
         -2   -1    0    0    0  501 -0.00000000000E+00  0.00000000000E+00  0.14073716410E+02  0.14073716641E+02  0.25500000000E-02 0. -1.
          2   -1    0    0  501    0  0.00000000000E+00 -0.00000000000E+00 -0.12197794629E+04  0.12197794629E+04  0.25500000000E-02 0.  1.
    5000001    1    1    2    0    0 -0.35798388043E+02 -0.84847479962E+02 -0.35561020169E+03  0.37532417320E+03  0.77000000000E+02 0.  0.
   -5000001    1    1    2    0    0  0.35798388043E+02  0.84847479962E+02 -0.85009554476E+03  0.85852900631E+03  0.77000000000E+02 0.  0.
<mgrwt>
<rscale>  0 0.26204450E+03</rscale>
<asrwt>0</asrwt>
<pdfrwt beam="1">  1        2 0.18765830E+00 0.26204450E+03</pdfrwt>
<pdfrwt beam="2">  1       -2 0.21651881E-02 0.26204450E+03</pdfrwt>
<totfact> 0.13345979E+04</totfact>
</mgrwt>
</event>
<event>
 4    1  0.4991066E-004  0.2078598E+03  0.7818608E-02  0.1143272E+00
         -2   -1    0    0    0  501 -0.00000000000E+00  0.00000000000E+00  0.38264188292E+03  0.38264188293E+03  0.25500000000E-02 0. -1.
          2   -1    0    0  501    0  0.00000000000E+00 -0.00000000000E+00 -0.28228552933E+02  0.28228553048E+02  0.25500000000E-02 0.  1.
    5000001    1    1    2    0    0 -0.34995831625E+02 -0.60331525888E+02  0.17167713395E+03  0.20066549172E+03  0.77000000000E+02 0.  0.
   -5000001    1    1    2    0    0  0.34995831625E+02  0.60331525888E+02  0.18273619604E+03  0.21020494426E+03  0.77000000000E+02 0.  0.
<mgrwt>
<rscale>  0 0.20785982E+03</rscale>
<asrwt>0</asrwt>
<pdfrwt beam="1">  1        2 0.43428542E-02 0.20785982E+03</pdfrwt>
<pdfrwt beam="2">  1       -2 0.58867984E-01 0.20785982E+03</pdfrwt>
<totfact> 0.51088663E+03</totfact>
</mgrwt>
</event>
<event>
 4    1  0.4991066E-004  0.1799051E+03  0.7818608E-02  0.1167895E+00
          2   -1    0    0  501    0  0.00000000000E+00  0.00000000000E+00  0.20044330016E+04  0.20044330016E+04  0.25500000000E-02 0.  1.
         -2   -1    0    0    0  501 -0.00000000000E+00 -0.00000000000E+00 -0.40367817247E+01  0.40367825301E+01  0.25500000000E-02 0. -1.
    5000001    1    1    2    0    0 -0.42173340186E+02  0.19517204090E+02  0.98103153509E+03  0.98514536223E+03  0.77000000000E+02 0.  0.
   -5000001    1    1    2    0    0  0.42173340186E+02 -0.19517204090E+02  0.10193646848E+04  0.10233244219E+04  0.77000000000E+02 0.  0.
<mgrwt>
<rscale>  0 0.17990508E+03</rscale>
<asrwt>0</asrwt>
<pdfrwt beam="1">  1        2 0.30837366E+00 0.17990508E+03</pdfrwt>
<pdfrwt beam="2">  1       -2 0.62104471E-03 0.17990508E+03</pdfrwt>
<totfact> 0.30796508E+04</totfact>
</mgrwt>
</event>
<event>
 4    1  0.4991066E-004  0.1687157E+03  0.7818608E-02  0.1179194E+00
          2   -1    0    0  501    0  0.00000000000E+00  0.00000000000E+00  0.35895158931E+02  0.35895159021E+02  0.25500000000E-02 0.  1.
         -2   -1    0    0    0  501 -0.00000000000E+00 -0.00000000000E+00 -0.19825099644E+03  0.19825099645E+03  0.25500000000E-02 0. -1.
    5000001    1    1    2    0    0 -0.32907088457E+02  0.27823022267E+01 -0.94820449747E+02  0.12653274425E+03  0.77000000000E+02 0.  0.
   -5000001    1    1    2    0    0  0.32907088457E+02 -0.27823022267E+01 -0.67535387759E+02  0.10761341123E+03  0.77000000000E+02 0.  0.
<mgrwt>
<rscale>  0 0.16871575E+03</rscale>
<asrwt>0</asrwt>
<pdfrwt beam="1">  1        2 0.55223323E-02 0.16871575E+03</pdfrwt>
<pdfrwt beam="2">  1       -2 0.30500153E-01 0.16871575E+03</pdfrwt>
<totfact> 0.13013508E+04</totfact>
</mgrwt>
</event>
<event>
 4    1  0.4991066E-004  0.3580455E+03  0.7818608E-02  0.1059360E+00
         -2   -1    0    0    0  501 -0.00000000000E+00  0.00000000000E+00  0.61817512958E+02  0.61817513011E+02  0.25500000000E-02 0. -1.
          2   -1    0    0  501    0  0.00000000000E+00 -0.00000000000E+00 -0.51844769268E+03  0.51844769268E+03  0.25500000000E-02 0.  1.
    5000001    1    1    2    0    0  0.72082931504E+02 -0.23347335726E+01  0.60841129484E+01  0.10567599740E+03  0.77000000000E+02 0.  0.
   -5000001    1    1    2    0    0 -0.72082931504E+02  0.23347335726E+01 -0.46271429267E+03  0.47458920830E+03  0.77000000000E+02 0.  0.
<mgrwt>
<rscale>  0 0.35804551E+03</rscale>
<asrwt>0</asrwt>
<pdfrwt beam="1">  1        2 0.79761181E-01 0.35804551E+03</pdfrwt>
<pdfrwt beam="2">  1       -2 0.95103869E-02 0.35804551E+03</pdfrwt>
<totfact> 0.43137887E+03</totfact>
</mgrwt>
</event>
<event>
 4    1  0.4991066E-004  0.2189829E+03  0.7818608E-02  0.1134644E+00
          2   -1    0    0  501    0  0.00000000000E+00  0.00000000000E+00  0.64435311464E+03  0.64435311465E+03  0.25500000000E-02 0.  1.
         -2   -1    0    0    0  501 -0.00000000000E+00 -0.00000000000E+00 -0.18605297579E+02  0.18605297753E+02  0.25500000000E-02 0. -1.
    5000001    1    1    2    0    0 -0.36301965058E+02  0.90795796682E+01  0.10622767309E+03  0.13643163110E+03  0.77000000000E+02 0.  0.
   -5000001    1    1    2    0    0  0.36301965058E+02 -0.90795796682E+01  0.51952014397E+03  0.52652678130E+03  0.77000000000E+02 0.  0.
<mgrwt>
<rscale>  0 0.21898294E+03</rscale>
<asrwt>0</asrwt>
<pdfrwt beam="1">  1        2 0.99131244E-01 0.21898294E+03</pdfrwt>
<pdfrwt beam="2">  1       -2 0.28623536E-02 0.21898294E+03</pdfrwt>
<totfact> 0.20643394E+04</totfact>
</mgrwt>
</event>
<event>
 4    1  0.4991066E-004  0.2242952E+03  0.7818608E-02  0.1130721E+00
         -2   -1    0    0    0  501 -0.00000000000E+00  0.00000000000E+00  0.85083577831E+01  0.85083581652E+01  0.25500000000E-02 0.  1.
          2   -1    0    0  501    0  0.00000000000E+00 -0.00000000000E+00 -0.14782028425E+04  0.14782028425E+04  0.25500000000E-02 0. -1.
    5000001    1    1    2    0    0  0.70264202030E+02  0.20586054755E+02 -0.49703419434E+03  0.50826453159E+03  0.77000000000E+02 0.  0.
   -5000001    1    1    2    0    0 -0.70264202030E+02 -0.20586054755E+02 -0.97266029040E+03  0.97844666910E+03  0.77000000000E+02 0.  0.
<mgrwt>
<rscale>  0 0.22429515E+03</rscale>
<asrwt>0</asrwt>
<pdfrwt beam="1">  1        2 0.22741562E+00 0.22429515E+03</pdfrwt>
<pdfrwt beam="2">  1       -2 0.13089793E-02 0.22429515E+03</pdfrwt>
<totfact> 0.20004049E+04</totfact>
</mgrwt>
</event>
<event>
 4    1  0.4991066E-004  0.1862295E+03  0.7818608E-02  0.1161907E+00
         -2   -1    0    0    0  501 -0.00000000000E+00  0.00000000000E+00  0.35287676516E+02  0.35287676608E+02  0.25500000000E-02 0. -1.
          2   -1    0    0  501    0  0.00000000000E+00 -0.00000000000E+00 -0.24570500817E+03  0.24570500818E+03  0.25500000000E-02 0.  1.
    5000001    1    1    2    0    0  0.49428219678E+02  0.17048862458E+02 -0.10106378481E+03  0.13739250785E+03  0.77000000000E+02 0.  0.
   -5000001    1    1    2    0    0 -0.49428219678E+02 -0.17048862458E+02 -0.10935354684E+03  0.14360017694E+03  0.77000000000E+02 0.  0.
<mgrwt>
<rscale>  0 0.18622952E+03</rscale>
<asrwt>0</asrwt>
<pdfrwt beam="1">  1        2 0.37800770E-01 0.18622952E+03</pdfrwt>
<pdfrwt beam="2">  1       -2 0.54288735E-02 0.18622952E+03</pdfrwt>
<totfact> 0.22491344E+04</totfact>
</mgrwt>
</event>
<event>
 4    1  0.4991066E-004  0.2040574E+03  0.7818608E-02  0.1146360E+00
         -2   -1    0    0    0  501 -0.00000000000E+00  0.00000000000E+00  0.34451393263E+02  0.34451393357E+02  0.25500000000E-02 0. -1.
          2   -1    0    0  501    0  0.00000000000E+00 -0.00000000000E+00 -0.30216059989E+03  0.30216059990E+03  0.25500000000E-02 0.  1.
    5000001    1    1    2    0    0 -0.47242825735E+02 -0.35066253361E+02 -0.81188154724E+02  0.12642010590E+03  0.77000000000E+02 0.  0.
   -5000001    1    1    2    0    0  0.47242825735E+02  0.35066253361E+02 -0.18652105191E+03  0.21019188736E+03  0.77000000000E+02 0.  0.
<mgrwt>
<rscale>  0 0.20405738E+03</rscale>
<asrwt>0</asrwt>
<pdfrwt beam="1">  1        2 0.46486244E-01 0.20405738E+03</pdfrwt>
<pdfrwt beam="2">  1       -2 0.53002145E-02 0.20405738E+03</pdfrwt>
<totfact> 0.18823646E+04</totfact>
</mgrwt>
</event>
<event>
 4    1  0.4991066E-004  0.3482452E+03  0.7818608E-02  0.1063338E+00
          2   -1    0    0  501    0  0.00000000000E+00  0.00000000000E+00  0.61612106709E+03  0.61612106709E+03  0.25500000000E-02 0. -1.
         -2   -1    0    0    0  501 -0.00000000000E+00 -0.00000000000E+00 -0.49208952132E+02  0.49208952198E+02  0.25500000000E-02 0.  1.
    5000001    1    1    2    0    0 -0.11019928300E+03  0.10563909097E+02  0.49391021113E+03  0.51198806120E+03  0.77000000000E+02 0.  0.
   -5000001    1    1    2    0    0  0.11019928300E+03 -0.10563909097E+02  0.73001903822E+02  0.15334195809E+03  0.77000000000E+02 0.  0.
<mgrwt>
<rscale>  0 0.34824516E+03</rscale>
<asrwt>0</asrwt>
<pdfrwt beam="1">  1        2 0.94787862E-01 0.34824516E+03</pdfrwt>
<pdfrwt beam="2">  1       -2 0.75706076E-02 0.34824516E+03</pdfrwt>
<totfact> 0.50621096E+03</totfact>
</mgrwt>
</event>
<event>
 4    1  0.4991066E-004  0.2485307E+03  0.7818608E-02  0.1114237E+00
          2   -1    0    0  501    0  0.00000000000E+00  0.00000000000E+00  0.16504723370E+04  0.16504723370E+04  0.25500000000E-02 0. -1.
         -2   -1    0    0    0  501 -0.00000000000E+00 -0.00000000000E+00 -0.93560330262E+01  0.93560333737E+01  0.25500000000E-02 0.  1.
    5000001    1    1    2    0    0  0.93182661869E+02 -0.15091540854E+02  0.98443644523E+03  0.99194499736E+03  0.77000000000E+02 0.  0.
   -5000001    1    1    2    0    0 -0.93182661869E+02  0.15091540854E+02  0.65667985870E+03  0.66788337298E+03  0.77000000000E+02 0.  0.
<mgrwt>
<rscale>  0 0.24853067E+03</rscale>
<asrwt>0</asrwt>
<pdfrwt beam="1">  1        2 0.25391878E+00 0.24853067E+03</pdfrwt>
<pdfrwt beam="2">  1       -2 0.14393899E-02 0.24853067E+03</pdfrwt>
<totfact> 0.14175560E+04</totfact>
</mgrwt>
</event>
<event>
 4    1  0.4991066E-004  0.2351529E+03  0.7818608E-02  0.1123065E+00
          2   -1    0    0  501    0  0.00000000000E+00  0.00000000000E+00  0.72601355091E+03  0.72601355091E+03  0.25500000000E-02 0.  1.
         -2   -1    0    0    0  501 -0.00000000000E+00 -0.00000000000E+00 -0.19041277906E+02  0.19041278077E+02  0.25500000000E-02 0. -1.
    5000001    1    1    2    0    0 -0.82308279456E+02 -0.25053817480E+02  0.28314521074E+03  0.30578187815E+03  0.77000000000E+02 0.  0.
   -5000001    1    1    2    0    0  0.82308279456E+02  0.25053817480E+02  0.42382706226E+03  0.43927295085E+03  0.77000000000E+02 0.  0.
<mgrwt>
<rscale>  0 0.23515294E+03</rscale>
<asrwt>0</asrwt>
<pdfrwt beam="1">  1        2 0.11169440E+00 0.23515294E+03</pdfrwt>
<pdfrwt beam="2">  1       -2 0.29294272E-02 0.23515294E+03</pdfrwt>
<totfact> 0.17359858E+04</totfact>
</mgrwt>
</event>
<event>
 4    1  0.4991066E-004  0.2764583E+03  0.7818608E-02  0.1097639E+00
          2   -1    0    0  501    0  0.00000000000E+00  0.00000000000E+00  0.98625743533E+03  0.98625743533E+03  0.25500000000E-02 0.  1.
         -2   -1    0    0    0  501 -0.00000000000E+00 -0.00000000000E+00 -0.19373534107E+02  0.19373534275E+02  0.25500000000E-02 0. -1.
    5000001    1    1    2    0    0 -0.97804596157E+02 -0.14567592152E+00  0.70207454939E+03  0.71302414626E+03  0.77000000000E+02 0.  0.
   -5000001    1    1    2    0    0  0.97804596157E+02  0.14567592152E+00  0.26480935184E+03  0.29260682335E+03  0.77000000000E+02 0.  0.
<mgrwt>
<rscale>  0 0.27645826E+03</rscale>
<asrwt>0</asrwt>
<pdfrwt beam="1">  1        2 0.15173192E+00 0.27645826E+03</pdfrwt>
<pdfrwt beam="2">  1       -2 0.29805436E-02 0.27645826E+03</pdfrwt>
<totfact> 0.11425535E+04</totfact>
</mgrwt>
</event>
<event>
 4    1  0.4991066E-004  0.4170852E+03  0.7818608E-02  0.1038019E+00
         -2   -1    0    0    0  501 -0.00000000000E+00  0.00000000000E+00  0.12523422831E+03  0.12523422834E+03  0.25500000000E-02 0. -1.
          2   -1    0    0  501    0  0.00000000000E+00 -0.00000000000E+00 -0.34726934823E+03  0.34726934824E+03  0.25500000000E-02 0.  1.
    5000001    1    1    2    0    0  0.64448940331E+01 -0.19356167168E+03 -0.11929228289E+03  0.24014018023E+03  0.77000000000E+02 0.  0.
   -5000001    1    1    2    0    0 -0.64448940331E+01  0.19356167168E+03 -0.10274283703E+03  0.23236339635E+03  0.77000000000E+02 0.  0.
<mgrwt>
<rscale>  0 0.41708517E+03</rscale>
<asrwt>0</asrwt>
<pdfrwt beam="1">  1        2 0.53426053E-01 0.41708517E+03</pdfrwt>
<pdfrwt beam="2">  1       -2 0.19266804E-01 0.41708517E+03</pdfrwt>
<totfact> 0.21034438E+03</totfact>
</mgrwt>
</event>
<event>
 4    1  0.4991066E-004  0.5297133E+03  0.7818608E-02  0.1006302E+00
          2   -1    0    0  501    0  0.00000000000E+00  0.00000000000E+00  0.48819389149E+03  0.48819389150E+03  0.25500000000E-02 0.  1.
         -2   -1    0    0    0  501 -0.00000000000E+00 -0.00000000000E+00 -0.14369093476E+03  0.14369093478E+03  0.25500000000E-02 0. -1.
    5000001    1    1    2    0    0  0.21580427289E+03  0.18847370659E+02  0.15382749351E+02  0.23041774358E+03  0.77000000000E+02 0.  0.
   -5000001    1    1    2    0    0 -0.21580427289E+03 -0.18847370659E+02  0.32912020738E+03  0.40146708269E+03  0.77000000000E+02 0.  0.
<mgrwt>
<rscale>  0 0.52971327E+03</rscale>
<asrwt>0</asrwt>
<pdfrwt beam="1">  1        2 0.75106754E-01 0.52971327E+03</pdfrwt>
<pdfrwt beam="2">  1       -2 0.22106297E-01 0.52971327E+03</pdfrwt>
<totfact> 0.11337110E+03</totfact>
</mgrwt>
</event>
<event>
 4    1  0.4991066E-004  0.5508255E+03  0.7818608E-02  0.1001303E+00
          2   -1    0    0  501    0  0.00000000000E+00  0.00000000000E+00  0.26386183070E+04  0.26386183070E+04  0.25500000000E-02 0. -1.
         -2   -1    0    0    0  501 -0.00000000000E+00 -0.00000000000E+00 -0.28746929645E+02  0.28746929759E+02  0.25500000000E-02 0.  1.
    5000001    1    1    2    0    0 -0.14177588546E+03  0.22114283833E+03  0.11581661164E+04  0.11900765983E+04  0.77000000000E+02 0.  0.
   -5000001    1    1    2    0    0  0.14177588546E+03 -0.22114283833E+03  0.14517052610E+04  0.14772886385E+04  0.77000000000E+02 0.  0.
<mgrwt>
<rscale>  0 0.55082547E+03</rscale>
<asrwt>0</asrwt>
<pdfrwt beam="1">  1        2 0.40594128E+00 0.55082547E+03</pdfrwt>
<pdfrwt beam="2">  1       -2 0.44226046E-02 0.55082547E+03</pdfrwt>
<totfact> 0.76508406E+02</totfact>
</mgrwt>
</event>
<event>
 4    1  0.4991066E-004  0.2473107E+03  0.7818608E-02  0.1115016E+00
         -2   -1    0    0    0  501 -0.00000000000E+00  0.00000000000E+00  0.26634024302E+02  0.26634024424E+02  0.25500000000E-02 0. -1.
          2   -1    0    0  501    0  0.00000000000E+00 -0.00000000000E+00 -0.57410174705E+03  0.57410174706E+03  0.25500000000E-02 0.  1.
    5000001    1    1    2    0    0  0.58277864543E+02 -0.76671750228E+02 -0.29636119239E+03  0.32098882089E+03  0.77000000000E+02 0.  0.
   -5000001    1    1    2    0    0 -0.58277864543E+02  0.76671750228E+02 -0.25110653036E+03  0.27974695059E+03  0.77000000000E+02 0.  0.
<mgrwt>
<rscale>  0 0.24731065E+03</rscale>
<asrwt>0</asrwt>
<pdfrwt beam="1">  1        2 0.88323337E-01 0.24731065E+03</pdfrwt>
<pdfrwt beam="2">  1       -2 0.40975426E-02 0.24731065E+03</pdfrwt>
<totfact> 0.13917426E+04</totfact>
</mgrwt>
</event>
<event>
 4    1  0.4991066E-004  0.1837023E+03  0.7818608E-02  0.1164267E+00
          2   -1    0    0  501    0  0.00000000000E+00  0.00000000000E+00  0.12493512765E+04  0.12493512765E+04  0.25500000000E-02 0.  1.
         -2   -1    0    0    0  501 -0.00000000000E+00 -0.00000000000E+00 -0.67528113064E+01  0.67528117879E+01  0.25500000000E-02 0. -1.
    5000001    1    1    2    0    0  0.32486241738E+02  0.23935129866E+02  0.41853042289E+03  0.42746340337E+03  0.77000000000E+02 0.  0.
   -5000001    1    1    2    0    0 -0.32486241738E+02 -0.23935129866E+02  0.82406804229E+03  0.82864068490E+03  0.77000000000E+02 0.  0.
<mgrwt>
<rscale>  0 0.18370230E+03</rscale>
<asrwt>0</asrwt>
<pdfrwt beam="1">  1        2 0.19220797E+00 0.18370230E+03</pdfrwt>
<pdfrwt beam="2">  1       -2 0.10388936E-02 0.18370230E+03</pdfrwt>
<totfact> 0.36753929E+04</totfact>
</mgrwt>
</event>
<event>
 4    1  0.4991066E-004  0.3951893E+03  0.7818608E-02  0.1045458E+00
          2   -1    0    0  501    0  0.00000000000E+00  0.00000000000E+00  0.19399919290E+03  0.19399919292E+03  0.25500000000E-02 0.  1.
         -2   -1    0    0    0  501 -0.00000000000E+00 -0.00000000000E+00 -0.20125676781E+03  0.20125676783E+03  0.25500000000E-02 0. -1.
    5000001    1    1    2    0    0  0.15045982995E+03 -0.96720426271E+02  0.29867892003E+02  0.19701292409E+03  0.77000000000E+02 0.  0.
   -5000001    1    1    2    0    0 -0.15045982995E+03  0.96720426271E+02 -0.37125466908E+02  0.19824303665E+03  0.77000000000E+02 0.  0.
<mgrwt>
<rscale>  0 0.39518932E+03</rscale>
<asrwt>0</asrwt>
<pdfrwt beam="1">  1        2 0.29846030E-01 0.39518932E+03</pdfrwt>
<pdfrwt beam="2">  1       -2 0.30962580E-01 0.39518932E+03</pdfrwt>
<totfact> 0.17136108E+03</totfact>
</mgrwt>
</event>
<event>
 4    1  0.4991066E-004  0.2266355E+03  0.7818608E-02  0.1129030E+00
          2   -1    0    0  501    0  0.00000000000E+00  0.00000000000E+00  0.88618468167E+03  0.88618468167E+03  0.25500000000E-02 0.  1.
         -2   -1    0    0    0  501 -0.00000000000E+00 -0.00000000000E+00 -0.14490109712E+02  0.14490109937E+02  0.25500000000E-02 0. -1.
    5000001    1    1    2    0    0 -0.74803315080E+01  0.76533949487E+02  0.56142622946E+03  0.57187569620E+03  0.77000000000E+02 0.  0.
   -5000001    1    1    2    0    0  0.74803315080E+01 -0.76533949487E+02  0.31026834250E+03  0.32879909541E+03  0.77000000000E+02 0.  0.
<mgrwt>
<rscale>  0 0.22663551E+03</rscale>
<asrwt>0</asrwt>
<pdfrwt beam="1">  1        2 0.13633613E+00 0.22663551E+03</pdfrwt>
<pdfrwt beam="2">  1       -2 0.22292472E-02 0.22663551E+03</pdfrwt>
<totfact> 0.20133823E+04</totfact>
</mgrwt>
</event>
<event>
 4    1  0.4991066E-004  0.1797227E+03  0.7818608E-02  0.1168072E+00
         -2   -1    0    0    0  501 -0.00000000000E+00  0.00000000000E+00  0.71577842298E+03  0.71577842298E+03  0.25500000000E-02 0. -1.
          2   -1    0    0  501    0  0.00000000000E+00 -0.00000000000E+00 -0.11281510352E+02  0.11281510640E+02  0.25500000000E-02 0.  1.
    5000001    1    1    2    0    0 -0.53012427553E+01  0.45335026602E+02  0.32021673923E+03  0.33249229750E+03  0.77000000000E+02 0.  0.
   -5000001    1    1    2    0    0  0.53012427553E+01 -0.45335026602E+02  0.38428017339E+03  0.39456763612E+03  0.77000000000E+02 0.  0.
<mgrwt>
<rscale>  0 0.17972270E+03</rscale>
<asrwt>0</asrwt>
<pdfrwt beam="1">  1        2 0.17356168E-02 0.17972270E+03</pdfrwt>
<pdfrwt beam="2">  1       -2 0.11011977E+00 0.17972270E+03</pdfrwt>
<totfact> 0.44168442E+03</totfact>
</mgrwt>
</event>
<event>
 4    1  0.4991066E-004  0.1818242E+03  0.7818608E-02  0.1166049E+00
         -2   -1    0    0    0  501 -0.00000000000E+00  0.00000000000E+00  0.90722119585E+01  0.90722123169E+01  0.25500000000E-02 0. -1.
          2   -1    0    0  501    0  0.00000000000E+00 -0.00000000000E+00 -0.91102427177E+03  0.91102427178E+03  0.25500000000E-02 0.  1.
    5000001    1    1    2    0    0 -0.27616261987E+02  0.19025608607E+02 -0.27485108008E+03  0.28739649951E+03  0.77000000000E+02 0.  0.
   -5000001    1    1    2    0    0  0.27616261987E+02 -0.19025608607E+02 -0.62710097973E+03  0.63269998458E+03  0.77000000000E+02 0.  0.
<mgrwt>
<rscale>  0 0.18182415E+03</rscale>
<asrwt>0</asrwt>
<pdfrwt beam="1">  1        2 0.14015751E+00 0.18182415E+03</pdfrwt>
<pdfrwt beam="2">  1       -2 0.13957257E-02 0.18182415E+03</pdfrwt>
<totfact> 0.37868785E+04</totfact>
</mgrwt>
</event>
<event>
 4    1  0.4991066E-004  0.3654735E+03  0.7818608E-02  0.1056437E+00
         -2   -1    0    0    0  501 -0.00000000000E+00  0.00000000000E+00  0.17124169069E+02  0.17124169259E+02  0.25500000000E-02 0. -1.
          2   -1    0    0  501    0  0.00000000000E+00 -0.00000000000E+00 -0.19500343067E+04  0.19500343067E+04  0.25500000000E-02 0.  1.
    5000001    1    1    2    0    0 -0.16405307831E+03  0.22190289331E+02 -0.92550002533E+03  0.94333722408E+03  0.77000000000E+02 0.  0.
   -5000001    1    1    2    0    0  0.16405307831E+03 -0.22190289331E+02 -0.10074101123E+04  0.10238212519E+04  0.77000000000E+02 0.  0.
<mgrwt>
<rscale>  0 0.36547349E+03</rscale>
<asrwt>0</asrwt>
<pdfrwt beam="1">  1        2 0.30000510E+00 0.36547349E+03</pdfrwt>
<pdfrwt beam="2">  1       -2 0.26344891E-02 0.36547349E+03</pdfrwt>
<totfact> 0.40511073E+03</totfact>
</mgrwt>
</event>
<event>
 4    1  0.4991066E-004  0.2045005E+03  0.7818608E-02  0.1145996E+00
          2   -1    0    0  501    0  0.00000000000E+00  0.00000000000E+00  0.47766792568E+02  0.47766792636E+02  0.25500000000E-02 0.  1.
         -2   -1    0    0    0  501 -0.00000000000E+00 -0.00000000000E+00 -0.21887838971E+03  0.21887838973E+03  0.25500000000E-02 0. -1.
    5000001    1    1    2    0    0 -0.37740933832E+02  0.11708360884E+02 -0.15655056464E+03  0.17888136597E+03  0.77000000000E+02 0.  0.
   -5000001    1    1    2    0    0  0.37740933832E+02 -0.11708360884E+02 -0.14561032506E+02  0.87763816398E+02  0.77000000000E+02 0.  0.
<mgrwt>
<rscale>  0 0.20450055E+03</rscale>
<asrwt>0</asrwt>
<pdfrwt beam="1">  1        2 0.73487374E-02 0.20450055E+03</pdfrwt>
<pdfrwt beam="2">  1       -2 0.33673598E-01 0.20450055E+03</pdfrwt>
<totfact> 0.76220916E+03</totfact>
</mgrwt>
</event>
<event>
 4    1  0.4991066E-004  0.7752708E+03  0.7818608E-02  0.9596518E-01
          2   -1    0    0  501    0  0.00000000000E+00  0.00000000000E+00  0.17149572031E+04  0.17149572031E+04  0.25500000000E-02 0.  1.
         -2   -1    0    0    0  501 -0.00000000000E+00 -0.00000000000E+00 -0.87618056381E+02  0.87618056419E+02  0.25500000000E-02 0. -1.
    5000001    1    1    2    0    0 -0.33920446961E+03  0.93626760525E+02  0.11466253231E+04  0.12018753155E+04  0.77000000000E+02 0.  0.
   -5000001    1    1    2    0    0  0.33920446961E+03 -0.93626760525E+02  0.48071382356E+03  0.60069994394E+03  0.77000000000E+02 0.  0.
<mgrwt>
<rscale>  0 0.77527084E+03</rscale>
<asrwt>0</asrwt>
<pdfrwt beam="1">  1        2 0.26383957E+00 0.77527084E+03</pdfrwt>
<pdfrwt beam="2">  1       -2 0.13479701E-01 0.77527084E+03</pdfrwt>
<totfact> 0.40963023E+02</totfact>
</mgrwt>
</event>
<event>
 4    1  0.4991066E-004  0.2303010E+03  0.7818608E-02  0.1126428E+00
         -2   -1    0    0    0  501 -0.00000000000E+00  0.00000000000E+00  0.53763740631E+02  0.53763740691E+02  0.25500000000E-02 0. -1.
          2   -1    0    0  501    0  0.00000000000E+00 -0.00000000000E+00 -0.24662797391E+03  0.24662797393E+03  0.25500000000E-02 0.  1.
    5000001    1    1    2    0    0 -0.21707728717E+02 -0.23084848717E+01 -0.20441797403E+03  0.21952736206E+03  0.77000000000E+02 0.  0.
   -5000001    1    1    2    0    0  0.21707728717E+02  0.23084848717E+01  0.11553740748E+02  0.80864352552E+02  0.77000000000E+02 0.  0.
<mgrwt>
<rscale>  0 0.23030104E+03</rscale>
<asrwt>0</asrwt>
<pdfrwt beam="1">  1        2 0.37942765E-01 0.23030104E+03</pdfrwt>
<pdfrwt beam="2">  1       -2 0.82713449E-02 0.23030104E+03</pdfrwt>
<totfact> 0.11894268E+04</totfact>
</mgrwt>
</event>
<event>
 4    1  0.4991066E-004  0.3313291E+03  0.7818608E-02  0.1070550E+00
          2   -1    0    0  501    0  0.00000000000E+00  0.00000000000E+00  0.45707674929E+03  0.45707674930E+03  0.25500000000E-02 0.  1.
         -2   -1    0    0    0  501 -0.00000000000E+00 -0.00000000000E+00 -0.60044047839E+02  0.60044047893E+02  0.25500000000E-02 0. -1.
    5000001    1    1    2    0    0 -0.11993260103E+03 -0.82211951709E+02  0.16836910356E+03  0.23541407950E+03  0.77000000000E+02 0.  0.
   -5000001    1    1    2    0    0  0.11993260103E+03  0.82211951709E+02  0.22866359790E+03  0.28170671770E+03  0.77000000000E+02 0.  0.
<mgrwt>
<rscale>  0 0.33132907E+03</rscale>
<asrwt>0</asrwt>
<pdfrwt beam="1">  1        2 0.70319501E-01 0.33132907E+03</pdfrwt>
<pdfrwt beam="2">  1       -2 0.92375457E-02 0.33132907E+03</pdfrwt>
<totfact> 0.51967611E+03</totfact>
</mgrwt>
</event>
<event>
 4    1  0.4991066E-004  0.2329172E+03  0.7818608E-02  0.1124603E+00
          2   -1    0    0  501    0  0.00000000000E+00  0.00000000000E+00  0.65420076424E+03  0.65420076424E+03  0.25500000000E-02 0.  1.
         -2   -1    0    0    0  501 -0.00000000000E+00 -0.00000000000E+00 -0.20731572855E+02  0.20731573012E+02  0.25500000000E-02 0. -1.
    5000001    1    1    2    0    0 -0.58750347778E+02  0.64580732892E+02  0.32649115853E+03  0.34662335614E+03  0.77000000000E+02 0.  0.
   -5000001    1    1    2    0    0  0.58750347778E+02 -0.64580732892E+02  0.30697803285E+03  0.32830898111E+03  0.77000000000E+02 0.  0.
<mgrwt>
<rscale>  0 0.23291725E+03</rscale>
<asrwt>0</asrwt>
<pdfrwt beam="1">  1        2 0.10064627E+00 0.23291725E+03</pdfrwt>
<pdfrwt beam="2">  1       -2 0.31894727E-02 0.23291725E+03</pdfrwt>
<totfact> 0.17332587E+04</totfact>
</mgrwt>
</event>
<event>
 4    1  0.4991066E-004  0.2228679E+03  0.7818608E-02  0.1131763E+00
          2   -1    0    0  501    0  0.00000000000E+00  0.00000000000E+00  0.45417084655E+03  0.45417084656E+03  0.25500000000E-02 0.  1.
         -2   -1    0    0    0  501 -0.00000000000E+00 -0.00000000000E+00 -0.27341079918E+02  0.27341080037E+02  0.25500000000E-02 0. -1.
    5000001    1    1    2    0    0  0.76422567023E+02  0.24525627907E+02  0.22816453471E+03  0.25383059326E+03  0.77000000000E+02 0.  0.
   -5000001    1    1    2    0    0 -0.76422567023E+02 -0.24525627907E+02  0.19866523192E+03  0.22768133334E+03  0.77000000000E+02 0.  0.
<mgrwt>
<rscale>  0 0.22286787E+03</rscale>
<asrwt>0</asrwt>
<pdfrwt beam="1">  1        2 0.69872432E-01 0.22286787E+03</pdfrwt>
<pdfrwt beam="2">  1       -2 0.42063204E-02 0.22286787E+03</pdfrwt>
<totfact> 0.17294819E+04</totfact>
</mgrwt>
</event>
<event>
 4    1  0.4991066E-004  0.1935409E+03  0.7818608E-02  0.1155306E+00
          2   -1    0    0  501    0  0.00000000000E+00  0.00000000000E+00  0.92400564438E+03  0.92400564438E+03  0.25500000000E-02 0.  1.
         -2   -1    0    0    0  501 -0.00000000000E+00 -0.00000000000E+00 -0.10134694871E+02  0.10134695191E+02  0.25500000000E-02 0. -1.
    5000001    1    1    2    0    0 -0.18797128534E+02 -0.35009744941E+02  0.66489895955E+03  0.67052117095E+03  0.77000000000E+02 0.  0.
   -5000001    1    1    2    0    0  0.18797128534E+02  0.35009744941E+02  0.24897198996E+03  0.26361916862E+03  0.77000000000E+02 0.  0.
<mgrwt>
<rscale>  0 0.19354085E+03</rscale>
<asrwt>0</asrwt>
<pdfrwt beam="1">  1        2 0.14215476E+00 0.19354085E+03</pdfrwt>
<pdfrwt beam="2">  1       -2 0.15591833E-02 0.19354085E+03</pdfrwt>
<totfact> 0.31795082E+04</totfact>
</mgrwt>
</event>
<event>
 4    1  0.4991066E-004  0.2405104E+03  0.7818608E-02  0.1119453E+00
         -2   -1    0    0    0  501 -0.00000000000E+00  0.00000000000E+00  0.18095334221E+02  0.18095334401E+02  0.25500000000E-02 0. -1.
          2   -1    0    0  501    0  0.00000000000E+00 -0.00000000000E+00 -0.79917353493E+03  0.79917353493E+03  0.25500000000E-02 0.  1.
    5000001    1    1    2    0    0 -0.54354308334E+02  0.74685474796E+02 -0.39066212252E+03  0.40875200911E+03  0.77000000000E+02 0.  0.
   -5000001    1    1    2    0    0  0.54354308334E+02 -0.74685474796E+02 -0.39041607819E+03  0.40851686023E+03  0.77000000000E+02 0.  0.
<mgrwt>
<rscale>  0 0.24051039E+03</rscale>
<asrwt>0</asrwt>
<pdfrwt beam="1">  1        2 0.12294975E+00 0.24051039E+03</pdfrwt>
<pdfrwt beam="2">  1       -2 0.27838982E-02 0.24051039E+03</pdfrwt>
<totfact> 0.16632030E+04</totfact>
</mgrwt>
</event>
<event>
 4    1  0.4991066E-004  0.2432116E+03  0.7818608E-02  0.1117672E+00
         -2   -1    0    0    0  501 -0.00000000000E+00  0.00000000000E+00  0.56874878788E+01  0.56874884505E+01  0.25500000000E-02 0. -1.
          2   -1    0    0  501    0  0.00000000000E+00 -0.00000000000E+00 -0.26000887266E+04  0.26000887266E+04  0.25500000000E-02 0.  1.
    5000001    1    1    2    0    0  0.70061342694E+02 -0.28623207994E+02 -0.18967167073E+04  0.18997871321E+04  0.77000000000E+02 0.  0.
   -5000001    1    1    2    0    0 -0.70061342694E+02  0.28623207994E+02 -0.69768453145E+03  0.70598908292E+03  0.77000000000E+02 0.  0.
<mgrwt>
<rscale>  0 0.24321163E+03</rscale>
<asrwt>0</asrwt>
<pdfrwt beam="1">  1        2 0.40001270E+00 0.24321163E+03</pdfrwt>
<pdfrwt beam="2">  1       -2 0.87500026E-03 0.24321163E+03</pdfrwt>
<totfact> 0.91360292E+03</totfact>
</mgrwt>
</event>
<event>
 4    1  0.4991066E-004  0.3337794E+03  0.7818608E-02  0.1069477E+00
         -2   -1    0    0    0  501 -0.00000000000E+00  0.00000000000E+00  0.19051830420E+02  0.19051830591E+02  0.25500000000E-02 0. -1.
          2   -1    0    0  501    0  0.00000000000E+00 -0.00000000000E+00 -0.14619157284E+04  0.14619157284E+04  0.25500000000E-02 0.  1.
    5000001    1    1    2    0    0 -0.23479250740E+02 -0.11528948994E+03 -0.32259272790E+03  0.35190625144E+03  0.77000000000E+02 0.  0.
   -5000001    1    1    2    0    0  0.23479250740E+02  0.11528948994E+03 -0.11202711701E+04  0.11290613075E+04  0.77000000000E+02 0.  0.
<mgrwt>
<rscale>  0 0.33377939E+03</rscale>
<asrwt>0</asrwt>
<pdfrwt beam="1">  1        2 0.22491002E+00 0.33377939E+03</pdfrwt>
<pdfrwt beam="2">  1       -2 0.29310520E-02 0.33377939E+03</pdfrwt>
<totfact> 0.62903604E+03</totfact>
</mgrwt>
</event>
<event>
 4    1  0.4991066E-004  0.2161243E+03  0.7818608E-02  0.1136806E+00
         -2   -1    0    0    0  501 -0.00000000000E+00  0.00000000000E+00  0.12546020869E+03  0.12546020872E+03  0.25500000000E-02 0. -1.
          2   -1    0    0  501    0  0.00000000000E+00 -0.00000000000E+00 -0.93076742836E+02  0.93076742871E+02  0.25500000000E-02 0.  1.
    5000001    1    1    2    0    0  0.50462819322E+02 -0.34313307406E+02 -0.29305316116E+02  0.10252658558E+03  0.77000000000E+02 0.  0.
   -5000001    1    1    2    0    0 -0.50462819322E+02  0.34313307406E+02  0.61688781970E+02  0.11601036600E+03  0.77000000000E+02 0.  0.
<mgrwt>
<rscale>  0 0.21612429E+03</rscale>
<asrwt>0</asrwt>
<pdfrwt beam="1">  1        2 0.14319499E-01 0.21612429E+03</pdfrwt>
<pdfrwt beam="2">  1       -2 0.19301570E-01 0.21612429E+03</pdfrwt>
<totfact> 0.89767257E+03</totfact>
</mgrwt>
</event>
<event>
 4    1  0.4991066E-004  0.4750113E+03  0.7818608E-02  0.1020515E+00
         -2   -1    0    0    0  501 -0.00000000000E+00  0.00000000000E+00  0.45900358383E+02  0.45900358454E+02  0.25500000000E-02 0. -1.
          2   -1    0    0  501    0  0.00000000000E+00 -0.00000000000E+00 -0.12289431361E+04  0.12289431361E+04  0.25500000000E-02 0.  1.
    5000001    1    1    2    0    0 -0.20781452038E+03  0.85320378656E+02 -0.58166460443E+03  0.62827474399E+03  0.77000000000E+02 0.  0.
   -5000001    1    1    2    0    0  0.20781452038E+03 -0.85320378656E+02 -0.60137817327E+03  0.64656875054E+03  0.77000000000E+02 0.  0.
<mgrwt>
<rscale>  0 0.47501129E+03</rscale>
<asrwt>0</asrwt>
<pdfrwt beam="1">  1        2 0.18906815E+00 0.47501129E+03</pdfrwt>
<pdfrwt beam="2">  1       -2 0.70615945E-02 0.47501129E+03</pdfrwt>
<totfact> 0.22087765E+03</totfact>
</mgrwt>
</event>
<event>
 4    1  0.4991066E-004  0.2544015E+03  0.7818608E-02  0.1110554E+00
         -2   -1    0    0    0  501 -0.00000000000E+00  0.00000000000E+00  0.25251133443E+02  0.25251133572E+02  0.25500000000E-02 0. -1.
          2   -1    0    0  501    0  0.00000000000E+00 -0.00000000000E+00 -0.64076470356E+03  0.64076470357E+03  0.25500000000E-02 0.  1.
    5000001    1    1    2    0    0  0.90934792879E+02  0.43946188451E+02 -0.32638508725E+03  0.35022368454E+03  0.77000000000E+02 0.  0.
   -5000001    1    1    2    0    0 -0.90934792879E+02 -0.43946188451E+02 -0.28912848287E+03  0.31579215260E+03  0.77000000000E+02 0.  0.
<mgrwt>
<rscale>  0 0.25440153E+03</rscale>
<asrwt>0</asrwt>
<pdfrwt beam="1">  1        2 0.98579173E-01 0.25440153E+03</pdfrwt>
<pdfrwt beam="2">  1       -2 0.38847902E-02 0.25440153E+03</pdfrwt>
<totfact> 0.13287978E+04</totfact>
</mgrwt>
</event>
<event>
 4    1  0.4991066E-004  0.2120517E+03  0.7818608E-02  0.1139951E+00
          2   -1    0    0  501    0  0.00000000000E+00  0.00000000000E+00  0.19577034286E+04  0.19577034286E+04  0.25500000000E-02 0.  1.
         -2   -1    0    0    0  501 -0.00000000000E+00 -0.00000000000E+00 -0.57421772253E+01  0.57421777915E+01  0.25500000000E-02 0. -1.
    5000001    1    1    2    0    0  0.71380831608E+02  0.12808766609E+02  0.90844945697E+03  0.91458662985E+03  0.77000000000E+02 0.  0.
   -5000001    1    1    2    0    0 -0.71380831608E+02 -0.12808766609E+02  0.10435117944E+04  0.10488589766E+04  0.77000000000E+02 0.  0.
<mgrwt>
<rscale>  0 0.21205170E+03</rscale>
<asrwt>0</asrwt>
<pdfrwt beam="1">  1        2 0.30118500E+00 0.21205170E+03</pdfrwt>
<pdfrwt beam="2">  1       -2 0.88341236E-03 0.21205170E+03</pdfrwt>
<totfact> 0.19779798E+04</totfact>
</mgrwt>
</event>
<event>
 4    1  0.4991066E-004  0.3800503E+03  0.7818608E-02  0.1050915E+00
         -2   -1    0    0    0  501 -0.00000000000E+00  0.00000000000E+00  0.29153592761E+02  0.29153592872E+02  0.25500000000E-02 0. -1.
          2   -1    0    0  501    0  0.00000000000E+00 -0.00000000000E+00 -0.12385970119E+04  0.12385970119E+04  0.25500000000E-02 0.  1.
    5000001    1    1    2    0    0 -0.25777481837E+02 -0.12729736850E+03 -0.21985926994E+03  0.26671369889E+03  0.77000000000E+02 0.  0.
   -5000001    1    1    2    0    0  0.25777481837E+02  0.12729736850E+03 -0.98958414917E+03  0.10010369059E+04  0.77000000000E+02 0.  0.
<mgrwt>
<rscale>  0 0.38005028E+03</rscale>
<asrwt>0</asrwt>
<pdfrwt beam="1">  1        2 0.19055335E+00 0.38005028E+03</pdfrwt>
<pdfrwt beam="2">  1       -2 0.44851691E-02 0.38005028E+03</pdfrwt>
<totfact> 0.44050046E+03</totfact>
</mgrwt>
</event>
<event>
 4    1  0.4991066E-004  0.1883774E+03  0.7818608E-02  0.1159933E+00
          2   -1    0    0  501    0  0.00000000000E+00  0.00000000000E+00  0.15213806943E+03  0.15213806946E+03  0.25500000000E-02 0.  1.
         -2   -1    0    0    0  501 -0.00000000000E+00 -0.00000000000E+00 -0.58312242743E+02  0.58312242798E+02  0.25500000000E-02 0. -1.
    5000001    1    1    2    0    0  0.31166153815E+02 -0.35695169713E+02  0.17417878885E+02  0.92075277840E+02  0.77000000000E+02 0.  0.
   -5000001    1    1    2    0    0 -0.31166153815E+02  0.35695169713E+02  0.76407947807E+02  0.11837503441E+03  0.77000000000E+02 0.  0.
<mgrwt>
<rscale>  0 0.18837741E+03</rscale>
<asrwt>0</asrwt>
<pdfrwt beam="1">  1        2 0.23405857E-01 0.18837741E+03</pdfrwt>
<pdfrwt beam="2">  1       -2 0.89711143E-02 0.18837741E+03</pdfrwt>
<totfact> 0.17540882E+04</totfact>
</mgrwt>
</event>
<event>
 4    1  0.4991066E-004  0.5064160E+03  0.7818608E-02  0.1012118E+00
         -2   -1    0    0    0  501 -0.00000000000E+00  0.00000000000E+00  0.29399573777E+02  0.29399573888E+02  0.25500000000E-02 0. -1.
          2   -1    0    0  501    0  0.00000000000E+00 -0.00000000000E+00 -0.21807899145E+04  0.21807899146E+04  0.25500000000E-02 0.  1.
    5000001    1    1    2    0    0  0.22677890712E+03  0.77743255054E+02 -0.95918942780E+03  0.99168848175E+03  0.77000000000E+02 0.  0.
   -5000001    1    1    2    0    0 -0.22677890712E+03 -0.77743255054E+02 -0.11922009130E+04  0.12185010067E+04  0.77000000000E+02 0.  0.
<mgrwt>
<rscale>  0 0.50641601E+03</rscale>
<asrwt>0</asrwt>
<pdfrwt beam="1">  1        2 0.33550601E+00 0.50641601E+03</pdfrwt>
<pdfrwt beam="2">  1       -2 0.45230131E-02 0.50641601E+03</pdfrwt>
<totfact> 0.13328596E+03</totfact>
</mgrwt>
</event>
<event>
 4    1  0.4991066E-004  0.2025487E+03  0.7818608E-02  0.1147606E+00
          2   -1    0    0  501    0  0.00000000000E+00  0.00000000000E+00  0.30412048583E+03  0.30412048584E+03  0.25500000000E-02 0.  1.
         -2   -1    0    0    0  501 -0.00000000000E+00 -0.00000000000E+00 -0.33725099487E+02  0.33725099583E+02  0.25500000000E-02 0. -1.
    5000001    1    1    2    0    0 -0.10814265941E+02 -0.47826228779E+02  0.62049989239E+02  0.11037888236E+03  0.77000000000E+02 0.  0.
   -5000001    1    1    2    0    0  0.10814265941E+02  0.47826228779E+02  0.20834539711E+03  0.22746670306E+03  0.77000000000E+02 0.  0.
<mgrwt>
<rscale>  0 0.20254870E+03</rscale>
<asrwt>0</asrwt>
<pdfrwt beam="1">  1        2 0.46787767E-01 0.20254870E+03</pdfrwt>
<pdfrwt beam="2">  1       -2 0.51884768E-02 0.20254870E+03</pdfrwt>
<totfact> 0.19297514E+04</totfact>
</mgrwt>
</event>
<event>
 4    1  0.4991066E-004  0.3566809E+03  0.7818608E-02  0.1059906E+00
         -2   -1    0    0    0  501 -0.00000000000E+00  0.00000000000E+00  0.21459312672E+02  0.21459312823E+02  0.25500000000E-02 0. -1.
          2   -1    0    0  501    0  0.00000000000E+00 -0.00000000000E+00 -0.14821220891E+04  0.14821220891E+04  0.25500000000E-02 0.  1.
    5000001    1    1    2    0    0 -0.14172715641E+03  0.75459123326E+02 -0.68910250785E+03  0.71173866867E+03  0.77000000000E+02 0.  0.
   -5000001    1    1    2    0    0  0.14172715641E+03 -0.75459123326E+02 -0.77156026862E+03  0.79184273329E+03  0.77000000000E+02 0.  0.
<mgrwt>
<rscale>  0 0.35668093E+03</rscale>
<asrwt>0</asrwt>
<pdfrwt beam="1">  1        2 0.22801870E+00 0.35668093E+03</pdfrwt>
<pdfrwt beam="2">  1       -2 0.33014339E-02 0.35668093E+03</pdfrwt>
<totfact> 0.51327848E+03</totfact>
</mgrwt>
</event>
<event>
 4    1  0.4991066E-004  0.2692643E+03  0.7818608E-02  0.1101701E+00
          2   -1    0    0  501    0  0.00000000000E+00  0.00000000000E+00  0.17452850296E+04  0.17452850296E+04  0.25500000000E-02 0.  1.
         -2   -1    0    0    0  501 -0.00000000000E+00 -0.00000000000E+00 -0.10385591412E+02  0.10385591725E+02  0.25500000000E-02 0. -1.
    5000001    1    1    2    0    0  0.10375877252E+03 -0.30138781503E+02  0.71839554095E+03  0.73054457925E+03  0.77000000000E+02 0.  0.
   -5000001    1    1    2    0    0 -0.10375877252E+03  0.30138781503E+02  0.10165038972E+04  0.10251260420E+04  0.77000000000E+02 0.  0.
<mgrwt>
<rscale>  0 0.26926431E+03</rscale>
<asrwt>0</asrwt>
<pdfrwt beam="1">  1        2 0.26850526E+00 0.26926431E+03</pdfrwt>
<pdfrwt beam="2">  1       -2 0.15977841E-02 0.26926431E+03</pdfrwt>
<totfact> 0.10870766E+04</totfact>
</mgrwt>
</event>
<event>
 4    1  0.4991066E-004  0.2161635E+03  0.7818608E-02  0.1136776E+00
          2   -1    0    0  501    0  0.00000000000E+00  0.00000000000E+00  0.13464545791E+03  0.13464545794E+03  0.25500000000E-02 0.  1.
         -2   -1    0    0    0  501 -0.00000000000E+00 -0.00000000000E+00 -0.86758719761E+02  0.86758719798E+02  0.25500000000E-02 0. -1.
    5000001    1    1    2    0    0  0.72655802967E+02  0.46772305694E+01  0.45717295643E+02  0.11541149558E+03  0.77000000000E+02 0.  0.
   -5000001    1    1    2    0    0 -0.72655802967E+02 -0.46772305694E+01  0.21694425112E+01  0.10599268216E+03  0.77000000000E+02 0.  0.
<mgrwt>
<rscale>  0 0.21616353E+03</rscale>
<asrwt>0</asrwt>
<pdfrwt beam="1">  1        2 0.20714686E-01 0.21616353E+03</pdfrwt>
<pdfrwt beam="2">  1       -2 0.13347495E-01 0.21616353E+03</pdfrwt>
<totfact> 0.10782746E+04</totfact>
</mgrwt>
</event>
<event>
 4    1  0.4991066E-004  0.3854939E+03  0.7818608E-02  0.1048922E+00
         -2   -1    0    0    0  501 -0.00000000000E+00  0.00000000000E+00  0.78883927460E+01  0.78883931582E+01  0.25500000000E-02 0. -1.
          2   -1    0    0  501    0  0.00000000000E+00 -0.00000000000E+00 -0.47096258461E+04  0.47096258461E+04  0.25500000000E-02 0.  1.
    5000001    1    1    2    0    0  0.10396801032E+03  0.12674623676E+03 -0.31578466920E+04  0.31630363080E+04  0.77000000000E+02 0.  0.
   -5000001    1    1    2    0    0 -0.10396801032E+03 -0.12674623676E+03 -0.15438907614E+04  0.15544779313E+04  0.77000000000E+02 0.  0.
<mgrwt>
<rscale>  0 0.38549386E+03</rscale>
<asrwt>0</asrwt>
<pdfrwt beam="1">  1        2 0.72455558E+00 0.38549386E+03</pdfrwt>
<pdfrwt beam="2">  1       -2 0.12136027E-02 0.38549386E+03</pdfrwt>
<totfact> 0.16420148E+02</totfact>
</mgrwt>
</event>
<event>
 4    1  0.4991066E-004  0.5505912E+03  0.7818608E-02  0.1001357E+00
         -2   -1    0    0    0  501 -0.00000000000E+00  0.00000000000E+00  0.73119200624E+02  0.73119200669E+02  0.25500000000E-02 0. -1.
          2   -1    0    0  501    0  0.00000000000E+00 -0.00000000000E+00 -0.10364946979E+04  0.10364946979E+04  0.25500000000E-02 0.  1.
    5000001    1    1    2    0    0  0.57838608036E+02 -0.10664631105E+03 -0.95492150096E+03  0.96567220797E+03  0.77000000000E+02 0.  0.
   -5000001    1    1    2    0    0 -0.57838608036E+02  0.10664631105E+03 -0.84539963133E+01  0.14394169060E+03  0.77000000000E+02 0.  0.
<mgrwt>
<rscale>  0 0.55059119E+03</rscale>
<asrwt>0</asrwt>
<pdfrwt beam="1">  1        2 0.15946071E+00 0.55059119E+03</pdfrwt>
<pdfrwt beam="2">  1       -2 0.11249109E-01 0.55059119E+03</pdfrwt>
<totfact> 0.13628986E+03</totfact>
</mgrwt>
</event>
<event>
 4    1  0.4991066E-004  0.2871503E+03  0.7818608E-02  0.1091846E+00
         -2   -1    0    0    0  501 -0.00000000000E+00  0.00000000000E+00  0.10764487877E+02  0.10764488179E+02  0.25500000000E-02 0. -1.
          2   -1    0    0  501    0  0.00000000000E+00 -0.00000000000E+00 -0.19149839262E+04  0.19149839262E+04  0.25500000000E-02 0.  1.
    5000001    1    1    2    0    0 -0.18269915292E+02 -0.11417024835E+03 -0.70880588488E+03  0.72229039718E+03  0.77000000000E+02 0.  0.
   -5000001    1    1    2    0    0  0.18269915292E+02  0.11417024835E+03 -0.11954135534E+04  0.12034580172E+04  0.77000000000E+02 0.  0.
<mgrwt>
<rscale>  0 0.28715029E+03</rscale>
<asrwt>0</asrwt>
<pdfrwt beam="1">  1        2 0.29461264E+00 0.28715029E+03</pdfrwt>
<pdfrwt beam="2">  1       -2 0.16560766E-02 0.28715029E+03</pdfrwt>
<totfact> 0.84076351E+03</totfact>
</mgrwt>
</event>
<event>
 4    1  0.4991066E-004  0.3348976E+03  0.7818608E-02  0.1068990E+00
         -2   -1    0    0    0  501 -0.00000000000E+00  0.00000000000E+00  0.63543856002E+02  0.63543856053E+02  0.25500000000E-02 0. -1.
          2   -1    0    0  501    0  0.00000000000E+00 -0.00000000000E+00 -0.44125577717E+03  0.44125577718E+03  0.25500000000E-02 0.  1.
    5000001    1    1    2    0    0  0.10309668302E+03  0.88703241760E+02 -0.27945741442E+03  0.32019156395E+03  0.77000000000E+02 0.  0.
   -5000001    1    1    2    0    0 -0.10309668302E+03 -0.88703241760E+02 -0.98254506747E+02  0.18460806928E+03  0.77000000000E+02 0.  0.
<mgrwt>
<rscale>  0 0.33489756E+03</rscale>
<asrwt>0</asrwt>
<pdfrwt beam="1">  1        2 0.67885502E-01 0.33489756E+03</pdfrwt>
<pdfrwt beam="2">  1       -2 0.97759781E-02 0.33489756E+03</pdfrwt>
<totfact> 0.49394221E+03</totfact>
</mgrwt>
</event>
<event>
 4    1  0.4991066E-004  0.2720520E+03  0.7818608E-02  0.1100111E+00
         -2   -1    0    0    0  501 -0.00000000000E+00  0.00000000000E+00  0.50642600833E+02  0.50642600897E+02  0.25500000000E-02 0. -1.
          2   -1    0    0  501    0  0.00000000000E+00 -0.00000000000E+00 -0.36536573619E+03  0.36536573620E+03  0.25500000000E-02 0.  1.
    5000001    1    1    2    0    0  0.67976986080E+02 -0.89095049040E+02 -0.16333754258E+03  0.21252517784E+03  0.77000000000E+02 0.  0.
   -5000001    1    1    2    0    0 -0.67976986080E+02  0.89095049040E+02 -0.15138559278E+03  0.20348315926E+03  0.77000000000E+02 0.  0.
<mgrwt>
<rscale>  0 0.27205199E+03</rscale>
<asrwt>0</asrwt>
<pdfrwt beam="1">  1        2 0.56210112E-01 0.27205199E+03</pdfrwt>
<pdfrwt beam="2">  1       -2 0.77911696E-02 0.27205199E+03</pdfrwt>
<totfact> 0.86244168E+03</totfact>
</mgrwt>
</event>
<event>
 4    1  0.4991066E-004  0.4367620E+03  0.7818608E-02  0.1031745E+00
          2   -1    0    0  501    0  0.00000000000E+00  0.00000000000E+00  0.37476055257E+03  0.37476055258E+03  0.25500000000E-02 0.  1.
         -2   -1    0    0    0  501 -0.00000000000E+00 -0.00000000000E+00 -0.12725530628E+03  0.12725530630E+03  0.25500000000E-02 0. -1.
    5000001    1    1    2    0    0 -0.11432068405E+03 -0.16869967499E+03  0.10622771337E+03  0.24236774998E+03  0.77000000000E+02 0.  0.
   -5000001    1    1    2    0    0  0.11432068405E+03  0.16869967499E+03  0.14127753292E+03  0.25964810890E+03  0.77000000000E+02 0.  0.
<mgrwt>
<rscale>  0 0.43676204E+03</rscale>
<asrwt>0</asrwt>
<pdfrwt beam="1">  1        2 0.57655470E-01 0.43676204E+03</pdfrwt>
<pdfrwt beam="2">  1       -2 0.19577739E-01 0.43676204E+03</pdfrwt>
<totfact> 0.18826764E+03</totfact>
</mgrwt>
</event>
<event>
 4    1  0.4991066E-004  0.2614085E+03  0.7818608E-02  0.1106300E+00
         -2   -1    0    0    0  501 -0.00000000000E+00  0.00000000000E+00  0.12686824176E+02  0.12686824433E+02  0.25500000000E-02 0. -1.
          2   -1    0    0  501    0  0.00000000000E+00 -0.00000000000E+00 -0.13465627066E+04  0.13465627066E+04  0.25500000000E-02 0.  1.
    5000001    1    1    2    0    0 -0.47552831985E+02  0.94182158840E+02 -0.64197194754E+03  0.65512482192E+03  0.77000000000E+02 0.  0.
   -5000001    1    1    2    0    0  0.47552831985E+02 -0.94182158840E+02 -0.69190393492E+03  0.70412470915E+03  0.77000000000E+02 0.  0.
<mgrwt>
<rscale>  0 0.26140853E+03</rscale>
<asrwt>0</asrwt>
<pdfrwt beam="1">  1        2 0.20716338E+00 0.26140853E+03</pdfrwt>
<pdfrwt beam="2">  1       -2 0.19518202E-02 0.26140853E+03</pdfrwt>
<totfact> 0.13218719E+04</totfact>
</mgrwt>
</event>
<event>
 4    1  0.4991066E-004  0.1977435E+03  0.7818608E-02  0.1151657E+00
         -2   -1    0    0    0  501 -0.00000000000E+00  0.00000000000E+00  0.38408394498E+01  0.38408402963E+01  0.25500000000E-02 0. -1.
          2   -1    0    0  501    0  0.00000000000E+00 -0.00000000000E+00 -0.25451776071E+04  0.25451776071E+04  0.25500000000E-02 0.  1.
    5000001    1    1    2    0    0 -0.58585852277E+02 -0.18227034813E+02 -0.11538736526E+04  0.11580664632E+04  0.77000000000E+02 0.  0.
   -5000001    1    1    2    0    0  0.58585852277E+02  0.18227034813E+02 -0.13874631150E+04  0.13909519842E+04  0.77000000000E+02 0.  0.
<mgrwt>
<rscale>  0 0.19774347E+03</rscale>
<asrwt>0</asrwt>
<pdfrwt beam="1">  1        2 0.39156444E+00 0.19774347E+03</pdfrwt>
<pdfrwt beam="2">  1       -2 0.59090047E-03 0.19774347E+03</pdfrwt>
<totfact> 0.17173239E+04</totfact>
</mgrwt>
</event>
<event>
 4    1  0.4991066E-004  0.2438439E+03  0.7818608E-02  0.1117258E+00
         -2   -1    0    0    0  501 -0.00000000000E+00  0.00000000000E+00  0.14712364237E+02  0.14712364458E+02  0.25500000000E-02 0. -1.
          2   -1    0    0  501    0  0.00000000000E+00 -0.00000000000E+00 -0.10103722336E+04  0.10103722336E+04  0.25500000000E-02 0.  1.
    5000001    1    1    2    0    0  0.60921248830E+02  0.69948158428E+02 -0.57440717520E+03  0.58692141412E+03  0.77000000000E+02 0.  0.
   -5000001    1    1    2    0    0 -0.60921248830E+02 -0.69948158428E+02 -0.42125269420E+03  0.43816318399E+03  0.77000000000E+02 0.  0.
<mgrwt>
<rscale>  0 0.24384392E+03</rscale>
<asrwt>0</asrwt>
<pdfrwt beam="1">  1        2 0.15544183E+00 0.24384392E+03</pdfrwt>
<pdfrwt beam="2">  1       -2 0.22634415E-02 0.24384392E+03</pdfrwt>
<totfact> 0.16519224E+04</totfact>
</mgrwt>
</event>
<event>
 4    1  0.4991066E-004  0.1835963E+03  0.7818608E-02  0.1164367E+00
         -2   -1    0    0    0  501 -0.00000000000E+00  0.00000000000E+00  0.56844428953E+01  0.56844434673E+01  0.25500000000E-02 0. -1.
          2   -1    0    0  501    0  0.00000000000E+00 -0.00000000000E+00 -0.14824499003E+04  0.14824499003E+04  0.25500000000E-02 0.  1.
    5000001    1    1    2    0    0 -0.44099631665E+02 -0.38774011030E+01 -0.55036196174E+03  0.55748282546E+03  0.77000000000E+02 0.  0.
   -5000001    1    1    2    0    0  0.44099631665E+02  0.38774011030E+01 -0.92640349563E+03  0.93065151828E+03  0.77000000000E+02 0.  0.
<mgrwt>
<rscale>  0 0.18359632E+03</rscale>
<asrwt>0</asrwt>
<pdfrwt beam="1">  1        2 0.22806891E+00 0.18359632E+03</pdfrwt>
<pdfrwt beam="2">  1       -2 0.87453090E-03 0.18359632E+03</pdfrwt>
<totfact> 0.35253798E+04</totfact>
</mgrwt>
</event>
<event>
 4    1  0.4991066E-004  0.4407468E+03  0.7818608E-02  0.1030518E+00
          2   -1    0    0  501    0  0.00000000000E+00  0.00000000000E+00  0.53245807072E+03  0.53245807073E+03  0.25500000000E-02 0.  1.
         -2   -1    0    0    0  501 -0.00000000000E+00 -0.00000000000E+00 -0.91208001328E+02  0.91208001364E+02  0.25500000000E-02 0. -1.
    5000001    1    1    2    0    0 -0.73705535873E+02 -0.19094492947E+03  0.18205527551E+03  0.28454454036E+03  0.77000000000E+02 0.  0.
   -5000001    1    1    2    0    0  0.73705535873E+02  0.19094492947E+03  0.25919479388E+03  0.33912153173E+03  0.77000000000E+02 0.  0.
<mgrwt>
<rscale>  0 0.44074680E+03</rscale>
<asrwt>0</asrwt>
<pdfrwt beam="1">  1        2 0.81916626E-01 0.44074680E+03</pdfrwt>
<pdfrwt beam="2">  1       -2 0.14032000E-01 0.44074680E+03</pdfrwt>
<totfact> 0.22294664E+03</totfact>
</mgrwt>
</event>
<event>
 4    1  0.4991066E-004  0.2539595E+03  0.7818608E-02  0.1110828E+00
          2   -1    0    0  501    0  0.00000000000E+00  0.00000000000E+00  0.23308859043E+03  0.23308859044E+03  0.25500000000E-02 0.  1.
         -2   -1    0    0    0  501 -0.00000000000E+00 -0.00000000000E+00 -0.69174785178E+02  0.69174785225E+02  0.25500000000E-02 0. -1.
    5000001    1    1    2    0    0 -0.29288879621E+02  0.96592696106E+02  0.78838259294E+02  0.14944048494E+03  0.77000000000E+02 0.  0.
   -5000001    1    1    2    0    0  0.29288879621E+02 -0.96592696106E+02  0.85075545955E+02  0.15282289073E+03  0.77000000000E+02 0.  0.
<mgrwt>
<rscale>  0 0.25395947E+03</rscale>
<asrwt>0</asrwt>
<pdfrwt beam="1">  1        2 0.35859783E-01 0.25395947E+03</pdfrwt>
<pdfrwt beam="2">  1       -2 0.10642275E-01 0.25395947E+03</pdfrwt>
<totfact> 0.85347038E+03</totfact>
</mgrwt>
</event>
<event>
 4    1  0.4991066E-004  0.3445218E+03  0.7818608E-02  0.1064886E+00
         -2   -1    0    0    0  501 -0.00000000000E+00  0.00000000000E+00  0.23321249404E+02  0.23321249544E+02  0.25500000000E-02 0. -1.
          2   -1    0    0  501    0  0.00000000000E+00 -0.00000000000E+00 -0.12723940224E+04  0.12723940224E+04  0.25500000000E-02 0.  1.
    5000001    1    1    2    0    0  0.10904320923E+03  0.10477484550E+03 -0.51318369798E+03  0.54051336487E+03  0.77000000000E+02 0.  0.
   -5000001    1    1    2    0    0 -0.10904320923E+03 -0.10477484550E+03 -0.73588907506E+03  0.75520190712E+03  0.77000000000E+02 0.  0.
<mgrwt>
<rscale>  0 0.34452180E+03</rscale>
<asrwt>0</asrwt>
<pdfrwt beam="1">  1        2 0.19575287E+00 0.34452180E+03</pdfrwt>
<pdfrwt beam="2">  1       -2 0.35878855E-02 0.34452180E+03</pdfrwt>
<totfact> 0.59087088E+03</totfact>
</mgrwt>
</event>
<event>
 4    1  0.4991066E-004  0.3838819E+03  0.7818608E-02  0.1049508E+00
         -2   -1    0    0    0  501 -0.00000000000E+00  0.00000000000E+00  0.57041926020E+03  0.57041926020E+03  0.25500000000E-02 0. -1.
          2   -1    0    0  501    0  0.00000000000E+00 -0.00000000000E+00 -0.64586417339E+02  0.64586417390E+02  0.25500000000E-02 0.  1.
    5000001    1    1    2    0    0  0.62166073433E+02  0.13817091030E+03  0.10536568709E+03  0.19996687015E+03  0.77000000000E+02 0.  0.
   -5000001    1    1    2    0    0 -0.62166073433E+02 -0.13817091030E+03  0.40046715576E+03  0.43503880745E+03  0.77000000000E+02 0.  0.
<mgrwt>
<rscale>  0 0.38388194E+03</rscale>
<asrwt>0</asrwt>
<pdfrwt beam="1">  1        2 0.99363720E-02 0.38388194E+03</pdfrwt>
<pdfrwt beam="2">  1       -2 0.87756808E-01 0.38388194E+03</pdfrwt>
<totfact> 0.75247092E+02</totfact>
</mgrwt>
</event>
<event>
 4    1  0.4991066E-004  0.2230629E+03  0.7818608E-02  0.1131620E+00
         -2   -1    0    0    0  501 -0.00000000000E+00  0.00000000000E+00  0.81362511403E+03  0.81362511404E+03  0.25500000000E-02 0. -1.
          2   -1    0    0  501    0  0.00000000000E+00 -0.00000000000E+00 -0.15288689003E+02  0.15288689216E+02  0.25500000000E-02 0.  1.
    5000001    1    1    2    0    0  0.63618756303E+02  0.39885637043E+02  0.28943121401E+03  0.30876793525E+03  0.77000000000E+02 0.  0.
   -5000001    1    1    2    0    0 -0.63618756303E+02 -0.39885637043E+02  0.50890521102E+03  0.52014586800E+03  0.77000000000E+02 0.  0.
<mgrwt>
<rscale>  0 0.22306287E+03</rscale>
<asrwt>0</asrwt>
<pdfrwt beam="1">  1        2 0.23521063E-02 0.22306287E+03</pdfrwt>
<pdfrwt beam="2">  1       -2 0.12517308E+00 0.22306287E+03</pdfrwt>
<totfact> 0.21670815E+03</totfact>
</mgrwt>
</event>
<event>
 4    1  0.4991066E-004  0.2183422E+03  0.7818608E-02  0.1135125E+00
         -2   -1    0    0    0  501 -0.00000000000E+00  0.00000000000E+00  0.11603950702E+02  0.11603950983E+02  0.25500000000E-02 0. -1.
          2   -1    0    0  501    0  0.00000000000E+00 -0.00000000000E+00 -0.10270920452E+04  0.10270920453E+04  0.25500000000E-02 0.  1.
    5000001    1    1    2    0    0  0.59663424086E+02  0.81960610784E+01 -0.73896646990E+03  0.74540414758E+03  0.77000000000E+02 0.  0.
   -5000001    1    1    2    0    0 -0.59663424086E+02 -0.81960610784E+01 -0.27652162465E+03  0.29329184866E+03  0.77000000000E+02 0.  0.
<mgrwt>
<rscale>  0 0.21834217E+03</rscale>
<asrwt>0</asrwt>
<pdfrwt beam="1">  1        2 0.15801409E+00 0.21834217E+03</pdfrwt>
<pdfrwt beam="2">  1       -2 0.17852240E-02 0.21834217E+03</pdfrwt>
<totfact> 0.22733739E+04</totfact>
</mgrwt>
</event>
<event>
 4    1  0.4991066E-004  0.1941172E+03  0.7818608E-02  0.1154799E+00
          2   -1    0    0  501    0  0.00000000000E+00  0.00000000000E+00  0.67211878796E+03  0.67211878797E+03  0.25500000000E-02 0.  1.
         -2   -1    0    0    0  501 -0.00000000000E+00 -0.00000000000E+00 -0.14015932267E+02  0.14015932499E+02  0.25500000000E-02 0. -1.
    5000001    1    1    2    0    0 -0.48937805178E+02 -0.32905800922E+02  0.34212051325E+03  0.35560251137E+03  0.77000000000E+02 0.  0.
   -5000001    1    1    2    0    0  0.48937805178E+02  0.32905800922E+02  0.31598234245E+03  0.33053220910E+03  0.77000000000E+02 0.  0.
<mgrwt>
<rscale>  0 0.19411720E+03</rscale>
<asrwt>0</asrwt>
<pdfrwt beam="1">  1        2 0.10340292E+00 0.19411720E+03</pdfrwt>
<pdfrwt beam="2">  1       -2 0.21562968E-02 0.19411720E+03</pdfrwt>
<totfact> 0.29557134E+04</totfact>
</mgrwt>
</event>
<event>
 4    1  0.4991066E-004  0.2060276E+03  0.7818608E-02  0.1144751E+00
         -2   -1    0    0    0  501 -0.00000000000E+00  0.00000000000E+00  0.13789237154E+02  0.13789237389E+02  0.25500000000E-02 0. -1.
          2   -1    0    0  501    0  0.00000000000E+00 -0.00000000000E+00 -0.76957412343E+03  0.76957412344E+03  0.25500000000E-02 0.  1.
    5000001    1    1    2    0    0 -0.65400440779E+02 -0.96367353119E+01 -0.31065044009E+03  0.32680694645E+03  0.77000000000E+02 0.  0.
   -5000001    1    1    2    0    0  0.65400440779E+02  0.96367353119E+01 -0.44513444619E+03  0.45655641437E+03  0.77000000000E+02 0.  0.
<mgrwt>
<rscale>  0 0.20602757E+03</rscale>
<asrwt>0</asrwt>
<pdfrwt beam="1">  1        2 0.11839599E+00 0.20602757E+03</pdfrwt>
<pdfrwt beam="2">  1       -2 0.21214217E-02 0.20602757E+03</pdfrwt>
<totfact> 0.25792269E+04</totfact>
</mgrwt>
</event>
<event>
 4    1  0.4991066E-004  0.2612947E+03  0.7818608E-02  0.1106368E+00
          2   -1    0    0  501    0  0.00000000000E+00  0.00000000000E+00  0.51198955964E+02  0.51198956028E+02  0.25500000000E-02 0.  1.
         -2   -1    0    0    0  501 -0.00000000000E+00 -0.00000000000E+00 -0.33338030993E+03  0.33338030994E+03  0.25500000000E-02 0. -1.
    5000001    1    1    2    0    0 -0.91471490465E+02  0.41083154838E+02 -0.18956850151E+03  0.22785977254E+03  0.77000000000E+02 0.  0.
   -5000001    1    1    2    0    0  0.91471490465E+02 -0.41083154838E+02 -0.92612852461E+02  0.15671949343E+03  0.77000000000E+02 0.  0.
<mgrwt>
<rscale>  0 0.26129465E+03</rscale>
<asrwt>0</asrwt>
<pdfrwt beam="1">  1        2 0.78767627E-02 0.26129465E+03</pdfrwt>
<pdfrwt beam="2">  1       -2 0.51289277E-01 0.26129465E+03</pdfrwt>
<totfact> 0.31456298E+03</totfact>
</mgrwt>
</event>
<event>
 4    1  0.4991066E-004  0.2817436E+03  0.7818608E-02  0.1094740E+00
          2   -1    0    0  501    0  0.00000000000E+00  0.00000000000E+00  0.21878055455E+03  0.21878055456E+03  0.25500000000E-02 0.  1.
         -2   -1    0    0    0  501 -0.00000000000E+00 -0.00000000000E+00 -0.90706681930E+02  0.90706681966E+02  0.25500000000E-02 0. -1.
    5000001    1    1    2    0    0  0.66751536304E+02 -0.91616205719E+02  0.28162780894E+02  0.13989795916E+03  0.77000000000E+02 0.  0.
   -5000001    1    1    2    0    0 -0.66751536304E+02  0.91616205719E+02  0.99911091726E+02  0.16958927737E+03  0.77000000000E+02 0.  0.
<mgrwt>
<rscale>  0 0.28174356E+03</rscale>
<asrwt>0</asrwt>
<pdfrwt beam="1">  1        2 0.33658547E-01 0.28174356E+03</pdfrwt>
<pdfrwt beam="2">  1       -2 0.13954874E-01 0.28174356E+03</pdfrwt>
<totfact> 0.59229962E+03</totfact>
</mgrwt>
</event>
<event>
 4    1  0.4991066E-004  0.2942363E+03  0.7818608E-02  0.1088158E+00
          2   -1    0    0  501    0  0.00000000000E+00  0.00000000000E+00  0.75572915748E+03  0.75572915748E+03  0.25500000000E-02 0.  1.
         -2   -1    0    0    0  501 -0.00000000000E+00 -0.00000000000E+00 -0.28639549667E+02  0.28639549781E+02  0.25500000000E-02 0. -1.
    5000001    1    1    2    0    0 -0.74987390480E+02 -0.71264096363E+02  0.55228988674E+03  0.56714618852E+03  0.77000000000E+02 0.  0.
   -5000001    1    1    2    0    0  0.74987390480E+02  0.71264096363E+02  0.17479972108E+03  0.21722251874E+03  0.77000000000E+02 0.  0.
<mgrwt>
<rscale>  0 0.29423625E+03</rscale>
<asrwt>0</asrwt>
<pdfrwt beam="1">  1        2 0.11626602E+00 0.29423625E+03</pdfrwt>
<pdfrwt beam="2">  1       -2 0.44060848E-02 0.29423625E+03</pdfrwt>
<totfact> 0.90475620E+03</totfact>
</mgrwt>
</event>
<event>
 4    1  0.4991066E-004  0.3507206E+03  0.7818608E-02  0.1062320E+00
          2   -1    0    0  501    0  0.00000000000E+00  0.00000000000E+00  0.25228751045E+04  0.25228751045E+04  0.25500000000E-02 0.  1.
         -2   -1    0    0    0  501 -0.00000000000E+00 -0.00000000000E+00 -0.12188963876E+02  0.12188964142E+02  0.25500000000E-02 0. -1.
    5000001    1    1    2    0    0 -0.22973607297E+02  0.15586297050E+03  0.12474858008E+04  0.12597503227E+04  0.77000000000E+02 0.  0.
   -5000001    1    1    2    0    0  0.22973607297E+02 -0.15586297050E+03  0.12632003398E+04  0.12753137460E+04  0.77000000000E+02 0.  0.
<mgrwt>
<rscale>  0 0.35072059E+03</rscale>
<asrwt>0</asrwt>
<pdfrwt beam="1">  1        2 0.38813446E+00 0.35072059E+03</pdfrwt>
<pdfrwt beam="2">  1       -2 0.18752260E-02 0.35072059E+03</pdfrwt>
<totfact> 0.32963616E+03</totfact>
</mgrwt>
</event>
<event>
 4    1  0.4991066E-004  0.2931809E+03  0.7818608E-02  0.1088700E+00
         -2   -1    0    0    0  501 -0.00000000000E+00  0.00000000000E+00  0.14773313279E+02  0.14773313499E+02  0.25500000000E-02 0. -1.
          2   -1    0    0  501    0  0.00000000000E+00 -0.00000000000E+00 -0.14545656839E+04  0.14545656839E+04  0.25500000000E-02 0.  1.
    5000001    1    1    2    0    0  0.12361454786E+03 -0.81884461318E+01 -0.79289325923E+03  0.80619868992E+03  0.77000000000E+02 0.  0.
   -5000001    1    1    2    0    0 -0.12361454786E+03  0.81884461318E+01 -0.64689911140E+03  0.66314030749E+03  0.77000000000E+02 0.  0.
<mgrwt>
<rscale>  0 0.29318086E+03</rscale>
<asrwt>0</asrwt>
<pdfrwt beam="1">  1        2 0.22377922E+00 0.29318086E+03</pdfrwt>
<pdfrwt beam="2">  1       -2 0.22728186E-02 0.29318086E+03</pdfrwt>
<totfact> 0.92511823E+03</totfact>
</mgrwt>
</event>
<event>
 4    1  0.4991066E-004  0.3296608E+03  0.7818608E-02  0.1071287E+00
         -2   -1    0    0    0  501 -0.00000000000E+00  0.00000000000E+00  0.61656229213E+02  0.61656229265E+02  0.25500000000E-02 0. -1.
          2   -1    0    0  501    0  0.00000000000E+00 -0.00000000000E+00 -0.44065403503E+03  0.44065403504E+03  0.25500000000E-02 0.  1.
    5000001    1    1    2    0    0  0.14184173079E+03  0.29487276309E+02 -0.16533510540E+03  0.23292332029E+03  0.77000000000E+02 0.  0.
   -5000001    1    1    2    0    0 -0.14184173079E+03 -0.29487276309E+02 -0.21366270042E+03  0.26938694401E+03  0.77000000000E+02 0.  0.
<mgrwt>
<rscale>  0 0.32966083E+03</rscale>
<asrwt>0</asrwt>
<pdfrwt beam="1">  1        2 0.67792926E-01 0.32966083E+03</pdfrwt>
<pdfrwt beam="2">  1       -2 0.94855740E-02 0.32966083E+03</pdfrwt>
<totfact> 0.51881543E+03</totfact>
</mgrwt>
</event>
<event>
 4    1  0.4991066E-004  0.1733996E+03  0.7818608E-02  0.1174348E+00
          2   -1    0    0  501    0  0.00000000000E+00  0.00000000000E+00  0.80443018847E+03  0.80443018847E+03  0.25500000000E-02 0.  1.
         -2   -1    0    0    0  501 -0.00000000000E+00 -0.00000000000E+00 -0.93443212536E+01  0.93443216015E+01  0.25500000000E-02 0. -1.
    5000001    1    1    2    0    0 -0.35213044063E+02 -0.43991166641E+01  0.48260824480E+03  0.48999900882E+03  0.77000000000E+02 0.  0.
   -5000001    1    1    2    0    0  0.35213044063E+02  0.43991166641E+01  0.31247762242E+03  0.32377550125E+03  0.77000000000E+02 0.  0.
<mgrwt>
<rscale>  0 0.17339959E+03</rscale>
<asrwt>0</asrwt>
<pdfrwt beam="1">  1        2 0.12375854E+00 0.17339959E+03</pdfrwt>
<pdfrwt beam="2">  1       -2 0.14375874E-02 0.17339959E+03</pdfrwt>
<totfact> 0.42442287E+04</totfact>
</mgrwt>
</event>
<event>
 4    1  0.4991066E-004  0.2744162E+03  0.7818608E-02  0.1098778E+00
          2   -1    0    0  501    0  0.00000000000E+00  0.00000000000E+00  0.21115808963E+04  0.21115808963E+04  0.25500000000E-02 0.  1.
         -2   -1    0    0    0  501 -0.00000000000E+00 -0.00000000000E+00 -0.89156233799E+01  0.89156237445E+01  0.25500000000E-02 0. -1.
    5000001    1    1    2    0    0  0.10235274249E+02  0.77995359023E+02  0.41839998266E+03  0.43263793449E+03  0.77000000000E+02 0.  0.
   -5000001    1    1    2    0    0 -0.10235274249E+02 -0.77995359023E+02  0.16842652903E+04  0.16878585856E+04  0.77000000000E+02 0.  0.
<mgrwt>
<rscale>  0 0.27441618E+03</rscale>
<asrwt>0</asrwt>
<pdfrwt beam="1">  1        2 0.32485914E+00 0.27441618E+03</pdfrwt>
<pdfrwt beam="2">  1       -2 0.13716321E-02 0.27441618E+03</pdfrwt>
<totfact> 0.87241492E+03</totfact>
</mgrwt>
</event>
<event>
 4    1  0.4991066E-004  0.2155194E+03  0.7818608E-02  0.1137268E+00
         -2   -1    0    0    0  501 -0.00000000000E+00  0.00000000000E+00  0.11426239468E+02  0.11426239752E+02  0.25500000000E-02 0. -1.
          2   -1    0    0  501    0  0.00000000000E+00 -0.00000000000E+00 -0.10162712017E+04  0.10162712017E+04  0.25500000000E-02 0.  1.
    5000001    1    1    2    0    0 -0.34219384573E+02  0.61713548125E+02 -0.37593400277E+03  0.39017291390E+03  0.77000000000E+02 0.  0.
   -5000001    1    1    2    0    0  0.34219384573E+02 -0.61713548125E+02 -0.62891095943E+03  0.63752452753E+03  0.77000000000E+02 0.  0.
<mgrwt>
<rscale>  0 0.21551945E+03</rscale>
<asrwt>0</asrwt>
<pdfrwt beam="1">  1        2 0.15634934E+00 0.21551945E+03</pdfrwt>
<pdfrwt beam="2">  1       -2 0.17578838E-02 0.21551945E+03</pdfrwt>
<totfact> 0.23585767E+04</totfact>
</mgrwt>
</event>
<event>
 4    1  0.4991066E-004  0.2581370E+03  0.7818608E-02  0.1108268E+00
         -2   -1    0    0    0  501 -0.00000000000E+00  0.00000000000E+00  0.10590760299E+03  0.10590760302E+03  0.25500000000E-02 0. -1.
          2   -1    0    0  501    0  0.00000000000E+00 -0.00000000000E+00 -0.15729447140E+03  0.15729447142E+03  0.25500000000E-02 0.  1.
    5000001    1    1    2    0    0 -0.33253960929E+02  0.94209617756E+02  0.22002969769E+01  0.12615513982E+03  0.77000000000E+02 0.  0.
   -5000001    1    1    2    0    0  0.33253960929E+02 -0.94209617756E+02 -0.53587165394E+02  0.13704693463E+03  0.77000000000E+02 0.  0.
<mgrwt>
<rscale>  0 0.25813702E+03</rscale>
<asrwt>0</asrwt>
<pdfrwt beam="1">  1        2 0.24199150E-01 0.25813702E+03</pdfrwt>
<pdfrwt beam="2">  1       -2 0.16293477E-01 0.25813702E+03</pdfrwt>
<totfact> 0.65756537E+03</totfact>
</mgrwt>
</event>
<event>
 4    1  0.4991066E-004  0.3382582E+03  0.7818608E-02  0.1067540E+00
          2   -1    0    0  501    0  0.00000000000E+00  0.00000000000E+00  0.47255214739E+03  0.47255214740E+03  0.25500000000E-02 0.  1.
         -2   -1    0    0    0  501 -0.00000000000E+00 -0.00000000000E+00 -0.60532257522E+02  0.60532257575E+02  0.25500000000E-02 0. -1.
    5000001    1    1    2    0    0  0.13532091209E+03  0.65307618694E+02  0.19034398960E+03  0.25443401637E+03  0.77000000000E+02 0.  0.
   -5000001    1    1    2    0    0 -0.13532091209E+03 -0.65307618694E+02  0.22167590027E+03  0.27865038861E+03  0.77000000000E+02 0.  0.
<mgrwt>
<rscale>  0 0.33825818E+03</rscale>
<asrwt>0</asrwt>
<pdfrwt beam="1">  1        2 0.72700330E-01 0.33825818E+03</pdfrwt>
<pdfrwt beam="2">  1       -2 0.93126551E-02 0.33825818E+03</pdfrwt>
<totfact> 0.49460161E+03</totfact>
</mgrwt>
</event>
<event>
 4    1  0.4991066E-004  0.3054103E+03  0.7818608E-02  0.1082567E+00
         -2   -1    0    0    0  501 -0.00000000000E+00  0.00000000000E+00  0.47152502400E+02  0.47152502469E+02  0.25500000000E-02 0. -1.
          2   -1    0    0  501    0  0.00000000000E+00 -0.00000000000E+00 -0.49454149282E+03  0.49454149283E+03  0.25500000000E-02 0.  1.
    5000001    1    1    2    0    0 -0.10942289178E+03  0.23414916873E+02 -0.34744766630E+03  0.37305563713E+03  0.77000000000E+02 0.  0.
   -5000001    1    1    2    0    0  0.10942289178E+03 -0.23414916873E+02 -0.99941324121E+02  0.16863835817E+03  0.77000000000E+02 0.  0.
<mgrwt>
<rscale>  0 0.30541034E+03</rscale>
<asrwt>0</asrwt>
<pdfrwt beam="1">  1        2 0.76083303E-01 0.30541034E+03</pdfrwt>
<pdfrwt beam="2">  1       -2 0.72542315E-02 0.30541034E+03</pdfrwt>
<totfact> 0.69419694E+03</totfact>
</mgrwt>
</event>
<event>
 4    1  0.4991066E-004  0.2647000E+03  0.7818608E-02  0.1104352E+00
          2   -1    0    0  501    0  0.00000000000E+00  0.00000000000E+00  0.42997746840E+02  0.42997746916E+02  0.25500000000E-02 0.  1.
         -2   -1    0    0    0  501 -0.00000000000E+00 -0.00000000000E+00 -0.40738226888E+03  0.40738226889E+03  0.25500000000E-02 0. -1.
    5000001    1    1    2    0    0  0.45888153760E+02  0.92246868902E+02 -0.12913704658E+03  0.18226514828E+03  0.77000000000E+02 0.  0.
   -5000001    1    1    2    0    0 -0.45888153760E+02 -0.92246868902E+02 -0.23524747546E+03  0.26811486753E+03  0.77000000000E+02 0.  0.
<mgrwt>
<rscale>  0 0.26469998E+03</rscale>
<asrwt>0</asrwt>
<pdfrwt beam="1">  1        2 0.66150383E-02 0.26469998E+03</pdfrwt>
<pdfrwt beam="2">  1       -2 0.62674192E-01 0.26469998E+03</pdfrwt>
<totfact> 0.26120642E+03</totfact>
</mgrwt>
</event>
<event>
 4    1  0.4991066E-004  0.1822647E+03  0.7818608E-02  0.1165629E+00
         -2   -1    0    0    0  501 -0.00000000000E+00  0.00000000000E+00  0.25518890145E+02  0.25518890272E+02  0.25500000000E-02 0. -1.
          2   -1    0    0  501    0  0.00000000000E+00 -0.00000000000E+00 -0.32544946893E+03  0.32544946894E+03  0.25500000000E-02 0.  1.
    5000001    1    1    2    0    0 -0.39836357066E+02 -0.51845520937E+01 -0.20313039038E+03  0.22091801742E+03  0.77000000000E+02 0.  0.
   -5000001    1    1    2    0    0  0.39836357066E+02  0.51845520937E+01 -0.96800188401E+02  0.13005034179E+03  0.77000000000E+02 0.  0.
<mgrwt>
<rscale>  0 0.18226474E+03</rscale>
<asrwt>0</asrwt>
<pdfrwt beam="1">  1        2 0.50069146E-01 0.18226474E+03</pdfrwt>
<pdfrwt beam="2">  1       -2 0.39259833E-02 0.18226474E+03</pdfrwt>
<totfact> 0.27073376E+04</totfact>
</mgrwt>
</event>
<event>
 4    1  0.4991066E-004  0.1969145E+03  0.7818608E-02  0.1152369E+00
          2   -1    0    0  501    0  0.00000000000E+00  0.00000000000E+00  0.85670168822E+03  0.85670168823E+03  0.25500000000E-02 0.  1.
         -2   -1    0    0    0  501 -0.00000000000E+00 -0.00000000000E+00 -0.11315286984E+02  0.11315287271E+02  0.25500000000E-02 0. -1.
    5000001    1    1    2    0    0 -0.37959338290E+02  0.47680148774E+02  0.45402404788E+03  0.46452249031E+03  0.77000000000E+02 0.  0.
   -5000001    1    1    2    0    0  0.37959338290E+02 -0.47680148774E+02  0.39136235336E+03  0.40349448519E+03  0.77000000000E+02 0.  0.
<mgrwt>
<rscale>  0 0.19691445E+03</rscale>
<asrwt>0</asrwt>
<pdfrwt beam="1">  1        2 0.13180028E+00 0.19691445E+03</pdfrwt>
<pdfrwt beam="2">  1       -2 0.17408131E-02 0.19691445E+03</pdfrwt>
<totfact> 0.29959088E+04</totfact>
</mgrwt>
</event>
<event>
 4    1  0.4991066E-004  0.1862657E+03  0.7818608E-02  0.1161873E+00
          2   -1    0    0  501    0  0.00000000000E+00  0.00000000000E+00  0.77384721008E+03  0.77384721008E+03  0.25500000000E-02 0.  1.
         -2   -1    0    0    0  501 -0.00000000000E+00 -0.00000000000E+00 -0.11208577524E+02  0.11208577814E+02  0.25500000000E-02 0. -1.
    5000001    1    1    2    0    0 -0.14136830680E+02  0.48017744036E+02  0.44650070193E+03  0.45584803449E+03  0.77000000000E+02 0.  0.
   -5000001    1    1    2    0    0  0.14136830680E+02 -0.48017744036E+02  0.31613793062E+03  0.32920775340E+03  0.77000000000E+02 0.  0.
<mgrwt>
<rscale>  0 0.18626569E+03</rscale>
<asrwt>0</asrwt>
<pdfrwt beam="1">  1        2 0.11905337E+00 0.18626569E+03</pdfrwt>
<pdfrwt beam="2">  1       -2 0.17243973E-02 0.18626569E+03</pdfrwt>
<totfact> 0.34414026E+04</totfact>
</mgrwt>
</event>
<event>
 4    1  0.4991066E-004  0.2124204E+03  0.7818608E-02  0.1139664E+00
          2   -1    0    0  501    0  0.00000000000E+00  0.00000000000E+00  0.16151987065E+02  0.16151987266E+02  0.25500000000E-02 0.  1.
         -2   -1    0    0    0  501 -0.00000000000E+00 -0.00000000000E+00 -0.69840348180E+03  0.69840348181E+03  0.25500000000E-02 0. -1.
    5000001    1    1    2    0    0  0.70164702470E+02 -0.80763288847E+01 -0.40524189231E+03  0.41849528533E+03  0.77000000000E+02 0.  0.
   -5000001    1    1    2    0    0 -0.70164702470E+02  0.80763288847E+01 -0.27700960243E+03  0.29606018375E+03  0.77000000000E+02 0.  0.
<mgrwt>
<rscale>  0 0.21242038E+03</rscale>
<asrwt>0</asrwt>
<pdfrwt beam="1">  1        2 0.24849216E-02 0.21242038E+03</pdfrwt>
<pdfrwt beam="2">  1       -2 0.10744667E+00 0.21242038E+03</pdfrwt>
<totfact> 0.28918255E+03</totfact>
</mgrwt>
</event>
<event>
 4    1  0.4991066E-004  0.5609081E+03  0.7818608E-02  0.9990002E-01
         -2   -1    0    0    0  501 -0.00000000000E+00  0.00000000000E+00  0.35181263431E+02  0.35181263524E+02  0.25500000000E-02 0. -1.
          2   -1    0    0  501    0  0.00000000000E+00 -0.00000000000E+00 -0.22356921631E+04  0.22356921631E+04  0.25500000000E-02 0.  1.
    5000001    1    1    2    0    0 -0.18555359881E+03 -0.18987411536E+03 -0.90850734427E+03  0.94962988175E+03  0.77000000000E+02 0.  0.
   -5000001    1    1    2    0    0  0.18555359881E+03  0.18987411536E+03 -0.12920035554E+04  0.13212435449E+04  0.77000000000E+02 0.  0.
<mgrwt>
<rscale>  0 0.56090810E+03</rscale>
<asrwt>0</asrwt>
<pdfrwt beam="1">  1        2 0.34395253E+00 0.56090810E+03</pdfrwt>
<pdfrwt beam="2">  1       -2 0.54125038E-02 0.56090810E+03</pdfrwt>
<totfact> 0.93871153E+02</totfact>
</mgrwt>
</event>
<event>
 4    1  0.4991066E-004  0.1987104E+03  0.7818608E-02  0.1150832E+00
         -2   -1    0    0    0  501 -0.00000000000E+00  0.00000000000E+00  0.38716870142E+01  0.38716878540E+01  0.25500000000E-02 0. -1.
          2   -1    0    0  501    0  0.00000000000E+00 -0.00000000000E+00 -0.25496532217E+04  0.25496532217E+04  0.25500000000E-02 0.  1.
    5000001    1    1    2    0    0  0.11832818503E+02 -0.61662359921E+02 -0.12671709560E+04  0.12710599883E+04  0.77000000000E+02 0.  0.
   -5000001    1    1    2    0    0 -0.11832818503E+02  0.61662359921E+02 -0.12786105787E+04  0.12824649213E+04  0.77000000000E+02 0.  0.
<mgrwt>
<rscale>  0 0.19871045E+03</rscale>
<asrwt>0</asrwt>
<pdfrwt beam="1">  1        2 0.39225300E+00 0.19871045E+03</pdfrwt>
<pdfrwt beam="2">  1       -2 0.59564626E-03 0.19871045E+03</pdfrwt>
<totfact> 0.16884729E+04</totfact>
</mgrwt>
</event>
<event>
 4    1  0.4991066E-004  0.2292632E+03  0.7818608E-02  0.1127159E+00
         -2   -1    0    0    0  501 -0.00000000000E+00  0.00000000000E+00  0.63592978051E+02  0.63592978102E+02  0.25500000000E-02 0. -1.
          2   -1    0    0  501    0  0.00000000000E+00 -0.00000000000E+00 -0.20663300786E+03  0.20663300788E+03  0.25500000000E-02 0.  1.
    5000001    1    1    2    0    0 -0.36829588919E+02 -0.59444685934E+02 -0.14731553758E+02  0.10505288184E+03  0.77000000000E+02 0.  0.
   -5000001    1    1    2    0    0  0.36829588919E+02  0.59444685934E+02 -0.12830847605E+03  0.16517310414E+03  0.77000000000E+02 0.  0.
<mgrwt>
<rscale>  0 0.22926324E+03</rscale>
<asrwt>0</asrwt>
<pdfrwt beam="1">  1        2 0.31789693E-01 0.22926324E+03</pdfrwt>
<pdfrwt beam="2">  1       -2 0.97835352E-02 0.22926324E+03</pdfrwt>
<totfact> 0.11062341E+04</totfact>
</mgrwt>
</event>
<event>
 4    1  0.4991066E-004  0.1792079E+03  0.7818608E-02  0.1168572E+00
          2   -1    0    0  501    0  0.00000000000E+00  0.00000000000E+00  0.14728611957E+03  0.14728611959E+03  0.25500000000E-02 0.  1.
         -2   -1    0    0    0  501 -0.00000000000E+00 -0.00000000000E+00 -0.54512023501E+02  0.54512023561E+02  0.25500000000E-02 0. -1.
    5000001    1    1    2    0    0  0.27649311478E+02  0.25944586364E+02  0.75365411574E+02  0.11422150082E+03  0.77000000000E+02 0.  0.
   -5000001    1    1    2    0    0 -0.27649311478E+02 -0.25944586364E+02  0.17408684492E+02  0.87576642334E+02  0.77000000000E+02 0.  0.
<mgrwt>
<rscale>  0 0.17920786E+03</rscale>
<asrwt>0</asrwt>
<pdfrwt beam="1">  1        2 0.22659402E-01 0.17920786E+03</pdfrwt>
<pdfrwt beam="2">  1       -2 0.83864654E-02 0.17920786E+03</pdfrwt>
<totfact> 0.20125945E+04</totfact>
</mgrwt>
</event>
<event>
 4    1  0.4991066E-004  0.5446069E+03  0.7818608E-02  0.1002750E+00
         -2   -1    0    0    0  501 -0.00000000000E+00  0.00000000000E+00  0.82729009702E+02  0.82729009741E+02  0.25500000000E-02 0. -1.
          2   -1    0    0  501    0  0.00000000000E+00 -0.00000000000E+00 -0.89628976503E+03  0.89628976503E+03  0.25500000000E-02 0.  1.
    5000001    1    1    2    0    0 -0.24575387042E+03  0.25774850261E+02 -0.25465895004E+03  0.36309707870E+03  0.77000000000E+02 0.  0.
   -5000001    1    1    2    0    0  0.24575387042E+03 -0.25774850261E+02 -0.55890180529E+03  0.61592169607E+03  0.77000000000E+02 0.  0.
<mgrwt>
<rscale>  0 0.54460688E+03</rscale>
<asrwt>0</asrwt>
<pdfrwt beam="1">  1        2 0.13789073E+00 0.54460688E+03</pdfrwt>
<pdfrwt beam="2">  1       -2 0.12727541E-01 0.54460688E+03</pdfrwt>
<totfact> 0.13690269E+03</totfact>
</mgrwt>
</event>
<event>
 4    1  0.4991066E-004  0.2540815E+03  0.7818608E-02  0.1110752E+00
         -2   -1    0    0    0  501 -0.00000000000E+00  0.00000000000E+00  0.58301017281E+02  0.58301017337E+02  0.25500000000E-02 0. -1.
          2   -1    0    0  501    0  0.00000000000E+00 -0.00000000000E+00 -0.27682786415E+03  0.27682786417E+03  0.25500000000E-02 0.  1.
    5000001    1    1    2    0    0 -0.72309270582E+02  0.48335319093E+02 -0.17710338418E+03  0.21180071381E+03  0.77000000000E+02 0.  0.
   -5000001    1    1    2    0    0  0.72309270582E+02 -0.48335319093E+02 -0.41423462690E+02  0.12332816769E+03  0.77000000000E+02 0.  0.
<mgrwt>
<rscale>  0 0.25408145E+03</rscale>
<asrwt>0</asrwt>
<pdfrwt beam="1">  1        2 0.42588902E-01 0.25408145E+03</pdfrwt>
<pdfrwt beam="2">  1       -2 0.89693874E-02 0.25408145E+03</pdfrwt>
<totfact> 0.92974167E+03</totfact>
</mgrwt>
</event>
<event>
 4    1  0.4991066E-004  0.1809238E+03  0.7818608E-02  0.1166912E+00
          2   -1    0    0  501    0  0.00000000000E+00  0.00000000000E+00  0.26979485459E+02  0.26979485579E+02  0.25500000000E-02 0.  1.
         -2   -1    0    0    0  501 -0.00000000000E+00 -0.00000000000E+00 -0.30331766087E+03  0.30331766088E+03  0.25500000000E-02 0. -1.
    5000001    1    1    2    0    0  0.37399399038E+02 -0.16726929538E+02 -0.94360067789E+02  0.12849641090E+03  0.77000000000E+02 0.  0.
   -5000001    1    1    2    0    0 -0.37399399038E+02  0.16726929538E+02 -0.18197810762E+03  0.20180073556E+03  0.77000000000E+02 0.  0.
<mgrwt>
<rscale>  0 0.18092379E+03</rscale>
<asrwt>0</asrwt>
<pdfrwt beam="1">  1        2 0.41506903E-02 0.18092379E+03</pdfrwt>
<pdfrwt beam="2">  1       -2 0.46664253E-01 0.18092379E+03</pdfrwt>
<totfact> 0.85661104E+03</totfact>
</mgrwt>
</event>
<event>
 4    1  0.4991066E-004  0.4339325E+03  0.7818608E-02  0.1032625E+00
          2   -1    0    0  501    0  0.00000000000E+00  0.00000000000E+00  0.32230672564E+04  0.32230672564E+04  0.25500000000E-02 0.  1.
         -2   -1    0    0    0  501 -0.00000000000E+00 -0.00000000000E+00 -0.14605452308E+02  0.14605452530E+02  0.25500000000E-02 0. -1.
    5000001    1    1    2    0    0  0.10494300299E+03  0.75414488973E+02  0.43767496274E+03  0.46280530684E+03  0.77000000000E+02 0.  0.
   -5000001    1    1    2    0    0 -0.10494300299E+03 -0.75414488973E+02  0.27707868414E+04  0.27748674021E+04  0.77000000000E+02 0.  0.
<mgrwt>
<rscale>  0 0.43393251E+03</rscale>
<asrwt>0</asrwt>
<pdfrwt beam="1">  1        2 0.49585639E+00 0.43393251E+03</pdfrwt>
<pdfrwt beam="2">  1       -2 0.22469932E-02 0.43393251E+03</pdfrwt>
<totfact> 0.96775477E+02</totfact>
</mgrwt>
</event>
<event>
 4    1  0.4991066E-004  0.1964195E+03  0.7818608E-02  0.1152796E+00
          2   -1    0    0  501    0  0.00000000000E+00  0.00000000000E+00  0.30812170642E+02  0.30812170748E+02  0.25500000000E-02 0.  1.
         -2   -1    0    0    0  501 -0.00000000000E+00 -0.00000000000E+00 -0.31303068151E+03  0.31303068152E+03  0.25500000000E-02 0. -1.
    5000001    1    1    2    0    0 -0.13861400662E+02  0.55792269592E+02 -0.10560972880E+03  0.14278420988E+03  0.77000000000E+02 0.  0.
   -5000001    1    1    2    0    0  0.13861400662E+02 -0.55792269592E+02 -0.17660878207E+03  0.20105864239E+03  0.77000000000E+02 0.  0.
<mgrwt>
<rscale>  0 0.19641950E+03</rscale>
<asrwt>0</asrwt>
<pdfrwt beam="1">  1        2 0.47403342E-02 0.19641950E+03</pdfrwt>
<pdfrwt beam="2">  1       -2 0.48158564E-01 0.19641950E+03</pdfrwt>
<totfact> 0.67928435E+03</totfact>
</mgrwt>
</event>
<event>
 4    1  0.4991066E-004  0.3176678E+03  0.7818608E-02  0.1076728E+00
          2   -1    0    0  501    0  0.00000000000E+00  0.00000000000E+00  0.96916280275E+03  0.96916280275E+03  0.25500000000E-02 0.  1.
         -2   -1    0    0    0  501 -0.00000000000E+00 -0.00000000000E+00 -0.26030927413E+02  0.26030927538E+02  0.25500000000E-02 0. -1.
    5000001    1    1    2    0    0  0.67489468469E+02 -0.11957426162E+03  0.40537721391E+03  0.43487069107E+03  0.77000000000E+02 0.  0.
   -5000001    1    1    2    0    0 -0.67489468469E+02  0.11957426162E+03  0.53775466143E+03  0.56032303922E+03  0.77000000000E+02 0.  0.
<mgrwt>
<rscale>  0 0.31766779E+03</rscale>
<asrwt>0</asrwt>
<pdfrwt beam="1">  1        2 0.14910197E+00 0.31766779E+03</pdfrwt>
<pdfrwt beam="2">  1       -2 0.40047579E-02 0.31766779E+03</pdfrwt>
<totfact> 0.75468074E+03</totfact>
</mgrwt>
</event>
<event>
 4    1  0.4991066E-004  0.4456623E+03  0.7818608E-02  0.1029024E+00
         -2   -1    0    0    0  501 -0.00000000000E+00  0.00000000000E+00  0.96739829312E+03  0.96739829312E+03  0.25500000000E-02 0. -1.
          2   -1    0    0  501    0  0.00000000000E+00 -0.00000000000E+00 -0.51327062589E+02  0.51327062653E+02  0.25500000000E-02 0.  1.
    5000001    1    1    2    0    0  0.86813778371E+02  0.18379658041E+03  0.57018065548E+03  0.61020717381E+03  0.77000000000E+02 0.  0.
   -5000001    1    1    2    0    0 -0.86813778371E+02 -0.18379658041E+03  0.34589057505E+03  0.40851818196E+03  0.77000000000E+02 0.  0.
<mgrwt>
<rscale>  0 0.44566226E+03</rscale>
<asrwt>0</asrwt>
<pdfrwt beam="1">  1        2 0.78964717E-02 0.44566226E+03</pdfrwt>
<pdfrwt beam="2">  1       -2 0.14883050E+00 0.44566226E+03</pdfrwt>
<totfact> 0.28018072E+02</totfact>
</mgrwt>
</event>
<event>
 4    1  0.4991066E-004  0.5850238E+03  0.7818608E-02  0.9936973E-01
          2   -1    0    0  501    0  0.00000000000E+00  0.00000000000E+00  0.42607409486E+03  0.42607409487E+03  0.25500000000E-02 0.  1.
         -2   -1    0    0    0  501 -0.00000000000E+00 -0.00000000000E+00 -0.20081767244E+03  0.20081767246E+03  0.25500000000E-02 0. -1.
    5000001    1    1    2    0    0  0.16463476910E+03 -0.20690145886E+03  0.21828153415E+03  0.35140951755E+03  0.77000000000E+02 0.  0.
   -5000001    1    1    2    0    0 -0.16463476910E+03  0.20690145886E+03  0.69748882646E+01  0.27548224978E+03  0.77000000000E+02 0.  0.
<mgrwt>
<rscale>  0 0.58502379E+03</rscale>
<asrwt>0</asrwt>
<pdfrwt beam="1">  1        2 0.65549860E-01 0.58502379E+03</pdfrwt>
<pdfrwt beam="2">  1       -2 0.30895027E-01 0.58502379E+03</pdfrwt>
<totfact> 0.72213420E+02</totfact>
</mgrwt>
</event>
<event>
 4    1  0.4991066E-004  0.2087885E+03  0.7818608E-02  0.1142529E+00
         -2   -1    0    0    0  501 -0.00000000000E+00  0.00000000000E+00  0.47309511984E+02  0.47309512052E+02  0.25500000000E-02 0. -1.
          2   -1    0    0  501    0  0.00000000000E+00 -0.00000000000E+00 -0.23035869515E+03  0.23035869516E+03  0.25500000000E-02 0.  1.
    5000001    1    1    2    0    0 -0.42064422397E+02  0.54000527170E+02 -0.69125122407E+02  0.12406754255E+03  0.77000000000E+02 0.  0.
   -5000001    1    1    2    0    0  0.42064422397E+02 -0.54000527170E+02 -0.11392406075E+03  0.15360066466E+03  0.77000000000E+02 0.  0.
<mgrwt>
<rscale>  0 0.20878848E+03</rscale>
<asrwt>0</asrwt>
<pdfrwt beam="1">  1        2 0.35439799E-01 0.20878848E+03</pdfrwt>
<pdfrwt beam="2">  1       -2 0.72783866E-02 0.20878848E+03</pdfrwt>
<totfact> 0.15522274E+04</totfact>
</mgrwt>
</event>
<event>
 4    1  0.4991066E-004  0.3874050E+03  0.7818608E-02  0.1048230E+00
          2   -1    0    0  501    0  0.00000000000E+00  0.00000000000E+00  0.70630985735E+03  0.70630985735E+03  0.25500000000E-02 0.  1.
         -2   -1    0    0    0  501 -0.00000000000E+00 -0.00000000000E+00 -0.53122097390E+02  0.53122097451E+02  0.25500000000E-02 0. -1.
    5000001    1    1    2    0    0  0.54272225683E+02  0.16557129975E+03  0.25777820632E+03  0.32052758607E+03  0.77000000000E+02 0.  0.
   -5000001    1    1    2    0    0 -0.54272225683E+02 -0.16557129975E+03  0.39540955364E+03  0.43890436873E+03  0.77000000000E+02 0.  0.
<mgrwt>
<rscale>  0 0.38740501E+03</rscale>
<asrwt>0</asrwt>
<pdfrwt beam="1">  1        2 0.10866306E+00 0.38740501E+03</pdfrwt>
<pdfrwt beam="2">  1       -2 0.81726303E-02 0.38740501E+03</pdfrwt>
<totfact> 0.38127804E+03</totfact>
</mgrwt>
</event>
<event>
 4    1  0.4991066E-004  0.1777751E+03  0.7818608E-02  0.1169974E+00
          2   -1    0    0  501    0  0.00000000000E+00  0.00000000000E+00  0.50170616798E+02  0.50170616863E+02  0.25500000000E-02 0.  1.
         -2   -1    0    0    0  501 -0.00000000000E+00 -0.00000000000E+00 -0.15748251704E+03  0.15748251706E+03  0.25500000000E-02 0. -1.
    5000001    1    1    2    0    0  0.39399225025E+02 -0.20180217470E+02 -0.57778234627E+02  0.10595689929E+03  0.77000000000E+02 0.  0.
   -5000001    1    1    2    0    0 -0.39399225025E+02  0.20180217470E+02 -0.49533665611E+02  0.10169623463E+03  0.77000000000E+02 0.  0.
<mgrwt>
<rscale>  0 0.17777508E+03</rscale>
<asrwt>0</asrwt>
<pdfrwt beam="1">  1        2 0.77185565E-02 0.17777508E+03</pdfrwt>
<pdfrwt beam="2">  1       -2 0.24228079E-01 0.17777508E+03</pdfrwt>
<totfact> 0.12795641E+04</totfact>
</mgrwt>
</event>
<event>
 4    1  0.4991066E-004  0.2185228E+03  0.7818608E-02  0.1134989E+00
         -2   -1    0    0    0  501 -0.00000000000E+00  0.00000000000E+00  0.66649575910E+01  0.66649580788E+01  0.25500000000E-02 0. -1.
          2   -1    0    0  501    0  0.00000000000E+00 -0.00000000000E+00 -0.17911670840E+04  0.17911670840E+04  0.25500000000E-02 0.  1.
    5000001    1    1    2    0    0  0.47282277320E+02 -0.60153678860E+02 -0.78983167922E+03  0.79725601932E+03  0.77000000000E+02 0.  0.
   -5000001    1    1    2    0    0 -0.47282277320E+02  0.60153678860E+02 -0.99467044716E+03  0.10005760227E+04  0.77000000000E+02 0.  0.
<mgrwt>
<rscale>  0 0.21852280E+03</rscale>
<asrwt>0</asrwt>
<pdfrwt beam="1">  1        2 0.27556378E+00 0.21852280E+03</pdfrwt>
<pdfrwt beam="2">  1       -2 0.10253796E-02 0.21852280E+03</pdfrwt>
<totfact> 0.19495264E+04</totfact>
</mgrwt>
</event>
<event>
 4    1  0.4991066E-004  0.2366524E+03  0.7818608E-02  0.1122043E+00
          2   -1    0    0  501    0  0.00000000000E+00  0.00000000000E+00  0.26688809455E+04  0.26688809455E+04  0.25500000000E-02 0.  1.
         -2   -1    0    0    0  501 -0.00000000000E+00 -0.00000000000E+00 -0.52460539318E+01  0.52460545515E+01  0.25500000000E-02 0. -1.
    5000001    1    1    2    0    0  0.54868814921E+02 -0.70918389785E+02  0.13958279849E+04  0.14008228897E+04  0.77000000000E+02 0.  0.
   -5000001    1    1    2    0    0 -0.54868814921E+02  0.70918389785E+02  0.12678069066E+04  0.12733041103E+04  0.77000000000E+02 0.  0.
<mgrwt>
<rscale>  0 0.23665244E+03</rscale>
<asrwt>0</asrwt>
<pdfrwt beam="1">  1        2 0.41059622E+00 0.23665244E+03</pdfrwt>
<pdfrwt beam="2">  1       -2 0.80708693E-03 0.23665244E+03</pdfrwt>
<totfact> 0.94009706E+03</totfact>
</mgrwt>
</event>
<event>
 4    1  0.4991066E-004  0.3297923E+03  0.7818608E-02  0.1071229E+00
         -2   -1    0    0    0  501 -0.00000000000E+00  0.00000000000E+00  0.20544971368E+03  0.20544971369E+03  0.25500000000E-02 0. -1.
          2   -1    0    0  501    0  0.00000000000E+00 -0.00000000000E+00 -0.13234740969E+03  0.13234740971E+03  0.25500000000E-02 0.  1.
    5000001    1    1    2    0    0 -0.26678658805E+02 -0.91640115161E+02  0.14946330659E+03  0.19333375691E+03  0.77000000000E+02 0.  0.
   -5000001    1    1    2    0    0  0.26678658805E+02  0.91640115161E+02 -0.76361002598E+02  0.14446336650E+03  0.77000000000E+02 0.  0.
<mgrwt>
<rscale>  0 0.32979228E+03</rscale>
<asrwt>0</asrwt>
<pdfrwt beam="1">  1        2 0.20361140E-01 0.32979228E+03</pdfrwt>
<pdfrwt beam="2">  1       -2 0.31607648E-01 0.32979228E+03</pdfrwt>
<totfact> 0.25336414E+03</totfact>
</mgrwt>
</event>
<event>
 4    1  0.4991066E-004  0.4454383E+03  0.7818608E-02  0.1029091E+00
         -2   -1    0    0    0  501 -0.00000000000E+00  0.00000000000E+00  0.61511257738E+02  0.61511257791E+02  0.25500000000E-02 0. -1.
          2   -1    0    0  501    0  0.00000000000E+00 -0.00000000000E+00 -0.80641862846E+03  0.80641862846E+03  0.25500000000E-02 0.  1.
    5000001    1    1    2    0    0  0.19168619610E+03  0.29605556061E+02 -0.22083779385E+03  0.30383946077E+03  0.77000000000E+02 0.  0.
   -5000001    1    1    2    0    0 -0.19168619610E+03 -0.29605556061E+02 -0.52406957687E+03  0.56409042549E+03  0.77000000000E+02 0.  0.
<mgrwt>
<rscale>  0 0.44543832E+03</rscale>
<asrwt>0</asrwt>
<pdfrwt beam="1">  1        2 0.12406440E+00 0.44543832E+03</pdfrwt>
<pdfrwt beam="2">  1       -2 0.94632710E-02 0.44543832E+03</pdfrwt>
<totfact> 0.25554217E+03</totfact>
</mgrwt>
</event>
<event>
 4    1  0.4991066E-004  0.2268417E+03  0.7818608E-02  0.1128883E+00
          2   -1    0    0  501    0  0.00000000000E+00  0.00000000000E+00  0.16279446976E+04  0.16279446976E+04  0.25500000000E-02 0.  1.
         -2   -1    0    0    0  501 -0.00000000000E+00 -0.00000000000E+00 -0.79021683175E+01  0.79021687289E+01  0.25500000000E-02 0. -1.
    5000001    1    1    2    0    0 -0.77643852334E+02  0.11018863414E+02  0.60793336936E+03  0.61778796099E+03  0.77000000000E+02 0.  0.
   -5000001    1    1    2    0    0  0.77643852334E+02 -0.11018863414E+02  0.10121091600E+04  0.10180589054E+04  0.77000000000E+02 0.  0.
<mgrwt>
<rscale>  0 0.22684174E+03</rscale>
<asrwt>0</asrwt>
<pdfrwt beam="1">  1        2 0.25045307E+00 0.22684174E+03</pdfrwt>
<pdfrwt beam="2">  1       -2 0.12157180E-02 0.22684174E+03</pdfrwt>
<totfact> 0.18567232E+04</totfact>
</mgrwt>
</event>
<event>
 4    1  0.4991066E-004  0.2245854E+03  0.7818608E-02  0.1130510E+00
          2   -1    0    0  501    0  0.00000000000E+00  0.00000000000E+00  0.71605417452E+03  0.71605417452E+03  0.25500000000E-02 0.  1.
         -2   -1    0    0    0  501 -0.00000000000E+00 -0.00000000000E+00 -0.17609914649E+02  0.17609914834E+02  0.25500000000E-02 0. -1.
    5000001    1    1    2    0    0 -0.59766744950E+02  0.41323854465E+02  0.47149317965E+03  0.48323342517E+03  0.77000000000E+02 0.  0.
   -5000001    1    1    2    0    0  0.59766744950E+02 -0.41323854465E+02  0.22695108022E+03  0.25043066418E+03  0.77000000000E+02 0.  0.
<mgrwt>
<rscale>  0 0.22458542E+03</rscale>
<asrwt>0</asrwt>
<pdfrwt beam="1">  1        2 0.11016219E+00 0.22458542E+03</pdfrwt>
<pdfrwt beam="2">  1       -2 0.27092175E-02 0.22458542E+03</pdfrwt>
<totfact> 0.19769302E+04</totfact>
</mgrwt>
</event>
<event>
 4    1  0.4991066E-004  0.3239279E+03  0.7818608E-02  0.1073856E+00
         -2   -1    0    0    0  501 -0.00000000000E+00  0.00000000000E+00  0.19804859742E+03  0.19804859743E+03  0.25500000000E-02 0. -1.
          2   -1    0    0  501    0  0.00000000000E+00 -0.00000000000E+00 -0.13245394973E+03  0.13245394976E+03  0.25500000000E-02 0.  1.
    5000001    1    1    2    0    0  0.64032677957E+02 -0.74557541345E+01 -0.96854834149E+02  0.13951928546E+03  0.77000000000E+02 0.  0.
   -5000001    1    1    2    0    0 -0.64032677957E+02  0.74557541345E+01  0.16244948183E+03  0.19098326174E+03  0.77000000000E+02 0.  0.
<mgrwt>
<rscale>  0 0.32392789E+03</rscale>
<asrwt>0</asrwt>
<pdfrwt beam="1">  1        2 0.20377531E-01 0.32392789E+03</pdfrwt>
<pdfrwt beam="2">  1       -2 0.30469015E-01 0.32392789E+03</pdfrwt>
<totfact> 0.27063944E+03</totfact>
</mgrwt>
</event>
<event>
 4    1  0.4991066E-004  0.3589827E+03  0.7818608E-02  0.1058987E+00
          2   -1    0    0  501    0  0.00000000000E+00  0.00000000000E+00  0.14460138552E+04  0.14460138552E+04  0.25500000000E-02 0.  1.
         -2   -1    0    0    0  501 -0.00000000000E+00 -0.00000000000E+00 -0.22279969587E+02  0.22279969733E+02  0.25500000000E-02 0. -1.
    5000001    1    1    2    0    0  0.77812929133E+02  0.26536206419E+02  0.12834519363E+04  0.12883853830E+04  0.77000000000E+02 0.  0.
   -5000001    1    1    2    0    0 -0.77812929133E+02 -0.26536206419E+02  0.14028194925E+03  0.17990844192E+03  0.77000000000E+02 0.  0.
<mgrwt>
<rscale>  0 0.35898270E+03</rscale>
<asrwt>0</asrwt>
<pdfrwt beam="1">  1        2 0.22246376E+00 0.35898270E+03</pdfrwt>
<pdfrwt beam="2">  1       -2 0.34276863E-02 0.35898270E+03</pdfrwt>
<totfact> 0.50752508E+03</totfact>
</mgrwt>
</event>
<event>
 4    1  0.4991066E-004  0.3074088E+03  0.7818608E-02  0.1081595E+00
          2   -1    0    0  501    0  0.00000000000E+00  0.00000000000E+00  0.21602539511E+04  0.21602539511E+04  0.25500000000E-02 0.  1.
         -2   -1    0    0    0  501 -0.00000000000E+00 -0.00000000000E+00 -0.10936234777E+02  0.10936235075E+02  0.25500000000E-02 0. -1.
    5000001    1    1    2    0    0  0.12868851122E+03  0.19884009448E+02  0.12667817903E+04  0.12757825877E+04  0.77000000000E+02 0.  0.
   -5000001    1    1    2    0    0 -0.12868851122E+03 -0.19884009448E+02  0.88253592606E+03  0.89540759855E+03  0.77000000000E+02 0.  0.
<mgrwt>
<rscale>  0 0.30740881E+03</rscale>
<asrwt>0</asrwt>
<pdfrwt beam="1">  1        2 0.33234650E+00 0.30740881E+03</pdfrwt>
<pdfrwt beam="2">  1       -2 0.16824990E-02 0.30740881E+03</pdfrwt>
<totfact> 0.60950971E+03</totfact>
</mgrwt>
</event>
<event>
 4    1  0.4991066E-004  0.2421057E+03  0.7818608E-02  0.1118398E+00
         -2   -1    0    0    0  501 -0.00000000000E+00  0.00000000000E+00  0.11785447206E+03  0.11785447209E+03  0.25500000000E-02 0. -1.
          2   -1    0    0  501    0  0.00000000000E+00 -0.00000000000E+00 -0.12433797744E+03  0.12433797747E+03  0.25500000000E-02 0.  1.
    5000001    1    1    2    0    0 -0.89725238024E+02  0.12583143151E+02 -0.25961849402E+02  0.12170444303E+03  0.77000000000E+02 0.  0.
   -5000001    1    1    2    0    0  0.89725238024E+02 -0.12583143151E+02  0.19478344017E+02  0.12048800652E+03  0.77000000000E+02 0.  0.
<mgrwt>
<rscale>  0 0.24210565E+03</rscale>
<asrwt>0</asrwt>
<pdfrwt beam="1">  1        2 0.19128920E-01 0.24210565E+03</pdfrwt>
<pdfrwt beam="2">  1       -2 0.18131457E-01 0.24210565E+03</pdfrwt>
<totfact> 0.71571165E+03</totfact>
</mgrwt>
</event>
<event>
 4    1  0.4991066E-004  0.3736501E+03  0.7818608E-02  0.1053306E+00
         -2   -1    0    0    0  501 -0.00000000000E+00  0.00000000000E+00  0.20911362164E+03  0.20911362166E+03  0.25500000000E-02 0. -1.
          2   -1    0    0  501    0  0.00000000000E+00 -0.00000000000E+00 -0.16691210578E+03  0.16691210580E+03  0.25500000000E-02 0.  1.
    5000001    1    1    2    0    0 -0.79351463952E+02  0.15002886721E+03  0.34194210370E+02  0.18948234707E+03  0.77000000000E+02 0.  0.
   -5000001    1    1    2    0    0  0.79351463952E+02 -0.15002886721E+03  0.80073054944E+01  0.18654338039E+03  0.77000000000E+02 0.  0.
<mgrwt>
<rscale>  0 0.37365008E+03</rscale>
<asrwt>0</asrwt>
<pdfrwt beam="1">  1        2 0.25678785E-01 0.37365008E+03</pdfrwt>
<pdfrwt beam="2">  1       -2 0.32171326E-01 0.37365008E+03</pdfrwt>
<totfact> 0.18876415E+03</totfact>
</mgrwt>
</event>
<event>
 4    1  0.4991066E-004  0.2165299E+03  0.7818608E-02  0.1136497E+00
         -2   -1    0    0    0  501 -0.00000000000E+00  0.00000000000E+00  0.52413985955E+01  0.52413992158E+01  0.25500000000E-02 0. -1.
          2   -1    0    0  501    0  0.00000000000E+00 -0.00000000000E+00 -0.22362925131E+04  0.22362925131E+04  0.25500000000E-02 0.  1.
    5000001    1    1    2    0    0  0.47258766392E+02 -0.51570682355E+02 -0.80507118768E+03  0.81176446307E+03  0.77000000000E+02 0.  0.
   -5000001    1    1    2    0    0 -0.47258766392E+02  0.51570682355E+02 -0.14259799268E+04  0.14297694493E+04  0.77000000000E+02 0.  0.
<mgrwt>
<rscale>  0 0.21652992E+03</rscale>
<asrwt>0</asrwt>
<pdfrwt beam="1">  1        2 0.34404424E+00 0.21652992E+03</pdfrwt>
<pdfrwt beam="2">  1       -2 0.80637085E-03 0.21652992E+03</pdfrwt>
<totfact> 0.16129514E+04</totfact>
</mgrwt>
</event>
<event>
 4    1  0.4991066E-004  0.2745255E+03  0.7818608E-02  0.1098717E+00
          2   -1    0    0  501    0  0.00000000000E+00  0.00000000000E+00  0.10984132797E+04  0.10984132797E+04  0.25500000000E-02 0.  1.
         -2   -1    0    0    0  501 -0.00000000000E+00 -0.00000000000E+00 -0.17152982015E+02  0.17152982205E+02  0.25500000000E-02 0. -1.
    5000001    1    1    2    0    0  0.11028634096E+03  0.19525133034E+02  0.61855792269E+03  0.63331446498E+03  0.77000000000E+02 0.  0.
   -5000001    1    1    2    0    0 -0.11028634096E+03 -0.19525133034E+02  0.46270237504E+03  0.48225179698E+03  0.77000000000E+02 0.  0.
<mgrwt>
<rscale>  0 0.27452551E+03</rscale>
<asrwt>0</asrwt>
<pdfrwt beam="1">  1        2 0.16898668E+00 0.27452551E+03</pdfrwt>
<pdfrwt beam="2">  1       -2 0.26389200E-02 0.27452551E+03</pdfrwt>
<totfact> 0.11717618E+04</totfact>
</mgrwt>
</event>
<event>
 4    1  0.4991066E-004  0.3325538E+03  0.7818608E-02  0.1070012E+00
         -2   -1    0    0    0  501 -0.00000000000E+00  0.00000000000E+00  0.24585875258E+02  0.24585875390E+02  0.25500000000E-02 0. -1.
          2   -1    0    0  501    0  0.00000000000E+00 -0.00000000000E+00 -0.11245486994E+04  0.11245486994E+04  0.25500000000E-02 0.  1.
    5000001    1    1    2    0    0  0.85150514050E+02 -0.64989584730E+02 -0.20022975897E+03  0.23978159342E+03  0.77000000000E+02 0.  0.
   -5000001    1    1    2    0    0 -0.85150514050E+02  0.64989584730E+02 -0.89973306520E+03  0.90935298140E+03  0.77000000000E+02 0.  0.
<mgrwt>
<rscale>  0 0.33255384E+03</rscale>
<asrwt>0</asrwt>
<pdfrwt beam="1">  1        2 0.17300745E+00 0.33255384E+03</pdfrwt>
<pdfrwt beam="2">  1       -2 0.37824432E-02 0.33255384E+03</pdfrwt>
<totfact> 0.66309956E+03</totfact>
</mgrwt>
</event>
<event>
 4    1  0.4991066E-004  0.1749439E+03  0.7818608E-02  0.1172788E+00
         -2   -1    0    0    0  501 -0.00000000000E+00  0.00000000000E+00  0.62097490385E+01  0.62097495621E+01  0.25500000000E-02 0. -1.
          2   -1    0    0  501    0  0.00000000000E+00 -0.00000000000E+00 -0.12321503472E+04  0.12321503472E+04  0.25500000000E-02 0.  1.
    5000001    1    1    2    0    0  0.16040210100E+02  0.30521491574E+02 -0.77646859604E+03  0.78103862287E+03  0.77000000000E+02 0.  0.
   -5000001    1    1    2    0    0 -0.16040210100E+02 -0.30521491574E+02 -0.44947200209E+03  0.45732147385E+03  0.77000000000E+02 0.  0.
<mgrwt>
<rscale>  0 0.17494393E+03</rscale>
<asrwt>0</asrwt>
<pdfrwt beam="1">  1        2 0.18956140E+00 0.17494393E+03</pdfrwt>
<pdfrwt beam="2">  1       -2 0.95534703E-03 0.17494393E+03</pdfrwt>
<totfact> 0.42234431E+04</totfact>
</mgrwt>
</event>
<event>
 4    1  0.4991066E-004  0.2684512E+03  0.7818608E-02  0.1102169E+00
          2   -1    0    0  501    0  0.00000000000E+00  0.00000000000E+00  0.30327905565E+03  0.30327905566E+03  0.25500000000E-02 0. -1.
         -2   -1    0    0    0  501 -0.00000000000E+00 -0.00000000000E+00 -0.59405720749E+02  0.59405720804E+02  0.25500000000E-02 0.  1.
    5000001    1    1    2    0    0  0.10673864719E+03 -0.26309859528E+02  0.11994951504E+03  0.18000620453E+03  0.77000000000E+02 0.  0.
   -5000001    1    1    2    0    0 -0.10673864719E+03  0.26309859528E+02  0.12392381986E+03  0.18267857193E+03  0.77000000000E+02 0.  0.
<mgrwt>
<rscale>  0 0.26845119E+03</rscale>
<asrwt>0</asrwt>
<pdfrwt beam="1">  1        2 0.46658315E-01 0.26845119E+03</pdfrwt>
<pdfrwt beam="2">  1       -2 0.91393419E-02 0.26845119E+03</pdfrwt>
<totfact> 0.82027982E+03</totfact>
</mgrwt>
</event>
<event>
 4    1  0.4991066E-004  0.3400972E+03  0.7818608E-02  0.1066755E+00
         -2   -1    0    0    0  501 -0.00000000000E+00  0.00000000000E+00  0.86864645753E+01  0.86864649495E+01  0.25500000000E-02 0. -1.
          2   -1    0    0  501    0  0.00000000000E+00 -0.00000000000E+00 -0.33289184168E+04  0.33289184168E+04  0.25500000000E-02 0.  1.
    5000001    1    1    2    0    0 -0.61985308494E+02 -0.13222483037E+03 -0.20601902016E+04  0.20667941965E+04  0.77000000000E+02 0.  0.
   -5000001    1    1    2    0    0  0.61985308494E+02  0.13222483037E+03 -0.12600417506E+04  0.12708106852E+04  0.77000000000E+02 0.  0.
<mgrwt>
<rscale>  0 0.34009724E+03</rscale>
<asrwt>0</asrwt>
<pdfrwt beam="1">  1        2 0.51214028E+00 0.34009724E+03</pdfrwt>
<pdfrwt beam="2">  1       -2 0.13363819E-02 0.34009724E+03</pdfrwt>
<totfact> 0.18123575E+03</totfact>
</mgrwt>
</event>
<event>
 4    1  0.4991066E-004  0.1763456E+03  0.7818608E-02  0.1171387E+00
          2   -1    0    0  501    0  0.00000000000E+00  0.00000000000E+00  0.32365451158E+03  0.32365451159E+03  0.25500000000E-02 0.  1.
         -2   -1    0    0    0  501 -0.00000000000E+00 -0.00000000000E+00 -0.24020810001E+02  0.24020810137E+02  0.25500000000E-02 0. -1.
    5000001    1    1    2    0    0  0.39563213183E+02  0.16157628060E+01  0.18266472209E+03  0.20214662803E+03  0.77000000000E+02 0.  0.
   -5000001    1    1    2    0    0 -0.39563213183E+02 -0.16157628060E+01  0.11696897949E+03  0.14552869370E+03  0.77000000000E+02 0.  0.
<mgrwt>
<rscale>  0 0.17634561E+03</rscale>
<asrwt>0</asrwt>
<pdfrwt beam="1">  1        2 0.49793002E-01 0.17634561E+03</pdfrwt>
<pdfrwt beam="2">  1       -2 0.36955092E-02 0.17634561E+03</pdfrwt>
<totfact> 0.29718233E+04</totfact>
</mgrwt>
</event>
<event>
 4    1  0.4991066E-004  0.1851671E+03  0.7818608E-02  0.1162894E+00
          2   -1    0    0  501    0  0.00000000000E+00  0.00000000000E+00  0.13386845593E+04  0.13386845593E+04  0.25500000000E-02 0.  1.
         -2   -1    0    0    0  501 -0.00000000000E+00 -0.00000000000E+00 -0.64030857059E+01  0.64030862137E+01  0.25500000000E-02 0. -1.
    5000001    1    1    2    0    0  0.42431912576E+02  0.24747118306E+01  0.45609138961E+03  0.46449429176E+03  0.77000000000E+02 0.  0.
   -5000001    1    1    2    0    0 -0.42431912576E+02 -0.24747118306E+01  0.87619008403E+03  0.88059335380E+03  0.77000000000E+02 0.  0.
<mgrwt>
<rscale>  0 0.18516708E+03</rscale>
<asrwt>0</asrwt>
<pdfrwt beam="1">  1        2 0.20595165E+00 0.18516708E+03</pdfrwt>
<pdfrwt beam="2">  1       -2 0.98508928E-03 0.18516708E+03</pdfrwt>
<totfact> 0.35477257E+04</totfact>
</mgrwt>
</event>
<event>
 4    1  0.4991066E-004  0.3650048E+03  0.7818608E-02  0.1056620E+00
          2   -1    0    0  501    0  0.00000000000E+00  0.00000000000E+00  0.12918135687E+04  0.12918135687E+04  0.25500000000E-02 0.  1.
         -2   -1    0    0    0  501 -0.00000000000E+00 -0.00000000000E+00 -0.25783233186E+02  0.25783233312E+02  0.25500000000E-02 0. -1.
    5000001    1    1    2    0    0  0.13162759278E+03  0.31613736578E+01  0.27127161008E+03  0.31121231322E+03  0.77000000000E+02 0.  0.
   -5000001    1    1    2    0    0 -0.13162759278E+03 -0.31613736578E+01  0.99475872539E+03  0.10063844888E+04  0.77000000000E+02 0.  0.
<mgrwt>
<rscale>  0 0.36500482E+03</rscale>
<asrwt>0</asrwt>
<pdfrwt beam="1">  1        2 0.19874056E+00 0.36500482E+03</pdfrwt>
<pdfrwt beam="2">  1       -2 0.39666510E-02 0.36500482E+03</pdfrwt>
<totfact> 0.49532047E+03</totfact>
</mgrwt>
</event>
<event>
 4    1  0.4991066E-004  0.2007115E+03  0.7818608E-02  0.1149140E+00
         -2   -1    0    0    0  501 -0.00000000000E+00  0.00000000000E+00  0.20415515638E+01  0.20415531563E+01  0.25500000000E-02 0. -1.
          2   -1    0    0  501    0  0.00000000000E+00 -0.00000000000E+00 -0.49331444893E+04  0.49331444893E+04  0.25500000000E-02 0.  1.
    5000001    1    1    2    0    0  0.38260687338E+01  0.37721130291E+02 -0.11867740959E+04  0.11898736392E+04  0.77000000000E+02 0.  0.
   -5000001    1    1    2    0    0 -0.38260687338E+01 -0.37721130291E+02 -0.37443288418E+04  0.37453124033E+04  0.77000000000E+02 0.  0.
<mgrwt>
<rscale>  0 0.20071146E+03</rscale>
<asrwt>0</asrwt>
<pdfrwt beam="1">  1        2 0.75893576E+00 0.20071146E+03</pdfrwt>
<pdfrwt beam="2">  1       -2 0.31408893E-03 0.20071146E+03</pdfrwt>
<totfact> 0.70548072E+02</totfact>
</mgrwt>
</event>
<event>
 4    1  0.4991066E-004  0.2161670E+03  0.7818608E-02  0.1136773E+00
         -2   -1    0    0    0  501 -0.00000000000E+00  0.00000000000E+00  0.23210758881E+02  0.23210759021E+02  0.25500000000E-02 0. -1.
          2   -1    0    0  501    0  0.00000000000E+00 -0.00000000000E+00 -0.50330299235E+03  0.50330299236E+03  0.25500000000E-02 0.  1.
    5000001    1    1    2    0    0 -0.61327643599E+02 -0.42280725549E+02 -0.20523166199E+03  0.23151193210E+03  0.77000000000E+02 0.  0.
   -5000001    1    1    2    0    0  0.61327643599E+02  0.42280725549E+02 -0.27486057148E+03  0.29500181928E+03  0.77000000000E+02 0.  0.
<mgrwt>
<rscale>  0 0.21616701E+03</rscale>
<asrwt>0</asrwt>
<pdfrwt beam="1">  1        2 0.77431222E-01 0.21616701E+03</pdfrwt>
<pdfrwt beam="2">  1       -2 0.35708864E-02 0.21616701E+03</pdfrwt>
<totfact> 0.19689640E+04</totfact>
</mgrwt>
</event>
<event>
 4    1  0.4991066E-004  0.2082352E+03  0.7818608E-02  0.1142971E+00
         -2   -1    0    0    0  501 -0.00000000000E+00  0.00000000000E+00  0.26472707345E+02  0.26472707468E+02  0.25500000000E-02 0. -1.
          2   -1    0    0  501    0  0.00000000000E+00 -0.00000000000E+00 -0.40949637612E+03  0.40949637613E+03  0.25500000000E-02 0.  1.
    5000001    1    1    2    0    0 -0.59017946656E+01  0.65430536828E+02 -0.14042144168E+03  0.17309872216E+03  0.77000000000E+02 0.  0.
   -5000001    1    1    2    0    0  0.59017946656E+01 -0.65430536828E+02 -0.24260222710E+03  0.26287036144E+03  0.77000000000E+02 0.  0.
<mgrwt>
<rscale>  0 0.20823523E+03</rscale>
<asrwt>0</asrwt>
<pdfrwt beam="1">  1        2 0.62999438E-01 0.20823523E+03</pdfrwt>
<pdfrwt beam="2">  1       -2 0.40727245E-02 0.20823523E+03</pdfrwt>
<totfact> 0.20230880E+04</totfact>
</mgrwt>
</event>
<event>
 4    1  0.4991066E-004  0.2079248E+03  0.7818608E-02  0.1143220E+00
          2   -1    0    0  501    0  0.00000000000E+00  0.00000000000E+00  0.25652035572E+04  0.25652035572E+04  0.25500000000E-02 0.  1.
         -2   -1    0    0    0  501 -0.00000000000E+00 -0.00000000000E+00 -0.42133825601E+01  0.42133833318E+01  0.25500000000E-02 0. -1.
    5000001    1    1    2    0    0  0.44026964335E+02 -0.52237804503E+02  0.14604318118E+04  0.14640550669E+04  0.77000000000E+02 0.  0.
   -5000001    1    1    2    0    0 -0.44026964335E+02  0.52237804503E+02  0.11005583628E+04  0.11053618736E+04  0.77000000000E+02 0.  0.
<mgrwt>
<rscale>  0 0.20792484E+03</rscale>
<asrwt>0</asrwt>
<pdfrwt beam="1">  1        2 0.39464773E+00 0.20792484E+03</pdfrwt>
<pdfrwt beam="2">  1       -2 0.64821107E-03 0.20792484E+03</pdfrwt>
<totfact> 0.14682504E+04</totfact>
</mgrwt>
</event>
<event>
 4    1  0.4991066E-004  0.1611121E+03  0.7818608E-02  0.1187447E+00
          2   -1    0    0  501    0  0.00000000000E+00  0.00000000000E+00  0.15856681898E+03  0.15856681900E+03  0.25500000000E-02 0.  1.
         -2   -1    0    0    0  501 -0.00000000000E+00 -0.00000000000E+00 -0.40924552663E+02  0.40924552743E+02  0.25500000000E-02 0. -1.
    5000001    1    1    2    0    0 -0.17665289958E+02 -0.36509359648E+01  0.39844331183E+02  0.88554856051E+02  0.77000000000E+02 0.  0.
   -5000001    1    1    2    0    0  0.17665289958E+02  0.36509359648E+01  0.77797935130E+02  0.11093651569E+03  0.77000000000E+02 0.  0.
<mgrwt>
<rscale>  0 0.16111209E+03</rscale>
<asrwt>0</asrwt>
<pdfrwt beam="1">  1        2 0.24394895E-01 0.16111209E+03</pdfrwt>
<pdfrwt beam="2">  1       -2 0.62960851E-02 0.16111209E+03</pdfrwt>
<totfact> 0.28558094E+04</totfact>
</mgrwt>
</event>
<event>
 4    1  0.4991066E-004  0.2418240E+03  0.7818608E-02  0.1118584E+00
         -2   -1    0    0    0  501 -0.00000000000E+00  0.00000000000E+00  0.28789202549E+02  0.28789202662E+02  0.25500000000E-02 0. -1.
          2   -1    0    0  501    0  0.00000000000E+00 -0.00000000000E+00 -0.50781916347E+03  0.50781916347E+03  0.25500000000E-02 0.  1.
    5000001    1    1    2    0    0 -0.18253952849E+02 -0.81618520766E+02 -0.14813298372E+03  0.18672753035E+03  0.77000000000E+02 0.  0.
   -5000001    1    1    2    0    0  0.18253952849E+02  0.81618520766E+02 -0.33089697720E+03  0.34988083578E+03  0.77000000000E+02 0.  0.
<mgrwt>
<rscale>  0 0.24182398E+03</rscale>
<asrwt>0</asrwt>
<pdfrwt beam="1">  1        2 0.78126018E-01 0.24182398E+03</pdfrwt>
<pdfrwt beam="2">  1       -2 0.44291085E-02 0.24182398E+03</pdfrwt>
<totfact> 0.14206602E+04</totfact>
</mgrwt>
</event>
<event>
 4    1  0.4991066E-004  0.1566344E+03  0.7818608E-02  0.1192550E+00
          2   -1    0    0  501    0  0.00000000000E+00  0.00000000000E+00  0.13755206559E+04  0.13755206559E+04  0.25500000000E-02 0.  1.
         -2   -1    0    0    0  501 -0.00000000000E+00 -0.00000000000E+00 -0.44590998198E+01  0.44591005489E+01  0.25500000000E-02 0. -1.
    5000001    1    1    2    0    0  0.10498164184E+02 -0.47828322354E+01  0.76002642696E+03  0.76400409463E+03  0.77000000000E+02 0.  0.
   -5000001    1    1    2    0    0 -0.10498164184E+02  0.47828322354E+01  0.61103512908E+03  0.61597566178E+03  0.77000000000E+02 0.  0.
<mgrwt>
<rscale>  0 0.15663441E+03</rscale>
<asrwt>0</asrwt>
<pdfrwt beam="1">  1        2 0.21161875E+00 0.15663441E+03</pdfrwt>
<pdfrwt beam="2">  1       -2 0.68601481E-03 0.15663441E+03</pdfrwt>
<totfact> 0.56214150E+04</totfact>
</mgrwt>
</event>
<event>
 4    1  0.4991066E-004  0.5114569E+03  0.7818608E-02  0.1010831E+00
          2   -1    0    0  501    0  0.00000000000E+00  0.00000000000E+00  0.34209184871E+03  0.34209184872E+03  0.25500000000E-02 0.  1.
         -2   -1    0    0    0  501 -0.00000000000E+00 -0.00000000000E+00 -0.19116809998E+03  0.19116809999E+03  0.25500000000E-02 0. -1.
    5000001    1    1    2    0    0  0.24751899287E+01  0.24384453105E+03  0.76847770140E+02  0.26702221192E+03  0.77000000000E+02 0.  0.
   -5000001    1    1    2    0    0 -0.24751899287E+01 -0.24384453105E+03  0.74075978598E+02  0.26623773679E+03  0.77000000000E+02 0.  0.
<mgrwt>
<rscale>  0 0.51145693E+03</rscale>
<asrwt>0</asrwt>
<pdfrwt beam="1">  1        2 0.52629515E-01 0.51145693E+03</pdfrwt>
<pdfrwt beam="2">  1       -2 0.29410477E-01 0.51145693E+03</pdfrwt>
<totfact> 0.10102637E+03</totfact>
</mgrwt>
</event>
<event>
 4    1  0.4991066E-004  0.1699228E+03  0.7818608E-02  0.1177928E+00
         -2   -1    0    0    0  501 -0.00000000000E+00  0.00000000000E+00  0.17160959246E+02  0.17160959436E+02  0.25500000000E-02 0. -1.
          2   -1    0    0  501    0  0.00000000000E+00 -0.00000000000E+00 -0.42063128614E+03  0.42063128614E+03  0.25500000000E-02 0.  1.
    5000001    1    1    2    0    0 -0.94719915658E+01  0.26719553598E+02 -0.25852070378E+03  0.27122980561E+03  0.77000000000E+02 0.  0.
   -5000001    1    1    2    0    0  0.94719915658E+01 -0.26719553598E+02 -0.14494962311E+03  0.16656243997E+03  0.77000000000E+02 0.  0.
<mgrwt>
<rscale>  0 0.16992276E+03</rscale>
<asrwt>0</asrwt>
<pdfrwt beam="1">  1        2 0.64712498E-01 0.16992276E+03</pdfrwt>
<pdfrwt beam="2">  1       -2 0.26401479E-02 0.16992276E+03</pdfrwt>
<totfact> 0.36774052E+04</totfact>
</mgrwt>
</event>
<event>
 4    1  0.4991066E-004  0.3123925E+03  0.7818608E-02  0.1079205E+00
         -2   -1    0    0    0  501 -0.00000000000E+00  0.00000000000E+00  0.20196760060E+02  0.20196760221E+02  0.25500000000E-02 0. -1.
          2   -1    0    0  501    0  0.00000000000E+00 -0.00000000000E+00 -0.12079790212E+04  0.12079790212E+04  0.25500000000E-02 0.  1.
    5000001    1    1    2    0    0 -0.12183846265E+03 -0.54194359642E+02 -0.69691056028E+03  0.71371911046E+03  0.77000000000E+02 0.  0.
   -5000001    1    1    2    0    0  0.12183846265E+03  0.54194359642E+02 -0.49087170081E+03  0.51445667092E+03  0.77000000000E+02 0.  0.
<mgrwt>
<rscale>  0 0.31239246E+03</rscale>
<asrwt>0</asrwt>
<pdfrwt beam="1">  1        2 0.18584287E+00 0.31239246E+03</pdfrwt>
<pdfrwt beam="2">  1       -2 0.31071948E-02 0.31239246E+03</pdfrwt>
<totfact> 0.79647325E+03</totfact>
</mgrwt>
</event>
<event>
 4    1  0.4991066E-004  0.2294144E+03  0.7818608E-02  0.1127053E+00
          2   -1    0    0  501    0  0.00000000000E+00  0.00000000000E+00  0.24768815305E+02  0.24768815436E+02  0.25500000000E-02 0.  1.
         -2   -1    0    0    0  501 -0.00000000000E+00 -0.00000000000E+00 -0.53122221943E+03  0.53122221943E+03  0.25500000000E-02 0. -1.
    5000001    1    1    2    0    0 -0.73355619629E+02 -0.39690657361E+02 -0.29322215696E+03  0.31442746150E+03  0.77000000000E+02 0.  0.
   -5000001    1    1    2    0    0  0.73355619629E+02  0.39690657361E+02 -0.21323124716E+03  0.24156357337E+03  0.77000000000E+02 0.  0.
<mgrwt>
<rscale>  0 0.22941443E+03</rscale>
<asrwt>0</asrwt>
<pdfrwt beam="1">  1        2 0.38105874E-02 0.22941443E+03</pdfrwt>
<pdfrwt beam="2">  1       -2 0.81726487E-01 0.22941443E+03</pdfrwt>
<totfact> 0.30378726E+03</totfact>
</mgrwt>
</event>
<event>
 4    1  0.4991066E-004  0.4380569E+03  0.7818608E-02  0.1031345E+00
         -2   -1    0    0    0  501 -0.00000000000E+00  0.00000000000E+00  0.69974188280E+03  0.69974188281E+03  0.25500000000E-02 0. -1.
          2   -1    0    0  501    0  0.00000000000E+00 -0.00000000000E+00 -0.68558783230E+02  0.68558783277E+02  0.25500000000E-02 0.  1.
    5000001    1    1    2    0    0  0.32460738322E+02  0.19983499327E+03  0.25857744120E+03  0.33731145425E+03  0.77000000000E+02 0.  0.
   -5000001    1    1    2    0    0 -0.32460738322E+02 -0.19983499327E+03  0.37260565838E+03  0.43098921184E+03  0.77000000000E+02 0.  0.
<mgrwt>
<rscale>  0 0.43805686E+03</rscale>
<asrwt>0</asrwt>
<pdfrwt beam="1">  1        2 0.10547506E-01 0.43805686E+03</pdfrwt>
<pdfrwt beam="2">  1       -2 0.10765259E+00 0.43805686E+03</pdfrwt>
<totfact> 0.43415329E+02</totfact>
</mgrwt>
</event>
<event>
 4    1  0.4991066E-004  0.2254731E+03  0.7818608E-02  0.1129867E+00
          2   -1    0    0  501    0  0.00000000000E+00  0.00000000000E+00  0.63417333358E+03  0.63417333359E+03  0.25500000000E-02 0.  1.
         -2   -1    0    0    0  501 -0.00000000000E+00 -0.00000000000E+00 -0.20041091998E+02  0.20041092161E+02  0.25500000000E-02 0. -1.
    5000001    1    1    2    0    0  0.45175945221E+02  0.32877306439E+02  0.48257188521E+03  0.49186015055E+03  0.77000000000E+02 0.  0.
   -5000001    1    1    2    0    0 -0.45175945221E+02 -0.32877306439E+02  0.13156035637E+03  0.16235427520E+03  0.77000000000E+02 0.  0.
<mgrwt>
<rscale>  0 0.22547307E+03</rscale>
<asrwt>0</asrwt>
<pdfrwt beam="1">  1        2 0.97565110E-01 0.22547307E+03</pdfrwt>
<pdfrwt beam="2">  1       -2 0.30832455E-02 0.22547307E+03</pdfrwt>
<totfact> 0.18871840E+04</totfact>
</mgrwt>
</event>
<event>
 4    1  0.4991066E-004  0.2708954E+03  0.7818608E-02  0.1100768E+00
          2   -1    0    0  501    0  0.00000000000E+00  0.00000000000E+00  0.76124015343E+03  0.76124015343E+03  0.25500000000E-02 0.  1.
         -2   -1    0    0    0  501 -0.00000000000E+00 -0.00000000000E+00 -0.24100249056E+02  0.24100249191E+02  0.25500000000E-02 0. -1.
    5000001    1    1    2    0    0 -0.88545042973E+02 -0.67578082894E+02  0.37776293547E+03  0.40129896254E+03  0.77000000000E+02 0.  0.
   -5000001    1    1    2    0    0  0.88545042973E+02  0.67578082894E+02  0.35937696891E+03  0.38404144009E+03  0.77000000000E+02 0.  0.
<mgrwt>
<rscale>  0 0.27089538E+03</rscale>
<asrwt>0</asrwt>
<pdfrwt beam="1">  1        2 0.11711389E+00 0.27089538E+03</pdfrwt>
<pdfrwt beam="2">  1       -2 0.37077299E-02 0.27089538E+03</pdfrwt>
<totfact> 0.11595232E+04</totfact>
</mgrwt>
</event>
<event>
 4    1  0.4991066E-004  0.5128154E+03  0.7818608E-02  0.1010487E+00
          2   -1    0    0  501    0  0.00000000000E+00  0.00000000000E+00  0.76388731097E+03  0.76388731097E+03  0.25500000000E-02 0.  1.
         -2   -1    0    0    0  501 -0.00000000000E+00 -0.00000000000E+00 -0.86066231256E+02  0.86066231294E+02  0.25500000000E-02 0. -1.
    5000001    1    1    2    0    0  0.20963304490E+02 -0.18444829147E+03  0.60282808805E+03  0.63544577746E+03  0.77000000000E+02 0.  0.
   -5000001    1    1    2    0    0 -0.20963304490E+02  0.18444829147E+03  0.74992991665E+02  0.21450776480E+03  0.77000000000E+02 0.  0.
<mgrwt>
<rscale>  0 0.51281537E+03</rscale>
<asrwt>0</asrwt>
<pdfrwt beam="1">  1        2 0.11752112E+00 0.51281537E+03</pdfrwt>
<pdfrwt beam="2">  1       -2 0.13240959E-01 0.51281537E+03</pdfrwt>
<totfact> 0.15860809E+03</totfact>
</mgrwt>
</event>
<event>
 4    1  0.4991066E-004  0.2041777E+03  0.7818608E-02  0.1146261E+00
         -2   -1    0    0    0  501 -0.00000000000E+00  0.00000000000E+00  0.72136191063E+01  0.72136195571E+01  0.25500000000E-02 0. -1.
          2   -1    0    0  501    0  0.00000000000E+00 -0.00000000000E+00 -0.14447857593E+04  0.14447857593E+04  0.25500000000E-02 0.  1.
    5000001    1    1    2    0    0  0.24751590541E+02 -0.47651319876E+02 -0.43345430340E+03  0.44350301313E+03  0.77000000000E+02 0.  0.
   -5000001    1    1    2    0    0 -0.24751590541E+02  0.47651319876E+02 -0.10041178368E+04  0.10084963657E+04  0.77000000000E+02 0.  0.
<mgrwt>
<rscale>  0 0.20417771E+03</rscale>
<asrwt>0</asrwt>
<pdfrwt beam="1">  1        2 0.22227450E+00 0.20417771E+03</pdfrwt>
<pdfrwt beam="2">  1       -2 0.11097887E-02 0.20417771E+03</pdfrwt>
<totfact> 0.26353280E+04</totfact>
</mgrwt>
</event>
<event>
 4    1  0.4991066E-004  0.2525318E+03  0.7818608E-02  0.1111715E+00
          2   -1    0    0  501    0  0.00000000000E+00  0.00000000000E+00  0.13457687294E+04  0.13457687294E+04  0.25500000000E-02 0.  1.
         -2   -1    0    0    0  501 -0.00000000000E+00 -0.00000000000E+00 -0.11846820311E+02  0.11846820585E+02  0.25500000000E-02 0. -1.
    5000001    1    1    2    0    0  0.32484811648E+02  0.67998146388E+02  0.10209246544E+04  0.10265939610E+04  0.77000000000E+02 0.  0.
   -5000001    1    1    2    0    0 -0.32484811648E+02 -0.67998146388E+02  0.31299725467E+03  0.33102158892E+03  0.77000000000E+02 0.  0.
<mgrwt>
<rscale>  0 0.25253182E+03</rscale>
<asrwt>0</asrwt>
<pdfrwt beam="1">  1        2 0.20704136E+00 0.25253182E+03</pdfrwt>
<pdfrwt beam="2">  1       -2 0.18225876E-02 0.25253182E+03</pdfrwt>
<totfact> 0.14615173E+04</totfact>
</mgrwt>
</event>
<event>
 4    1  0.4991066E-004  0.3631384E+03  0.7818608E-02  0.1057348E+00
         -2   -1    0    0    0  501 -0.00000000000E+00  0.00000000000E+00  0.13595420997E+02  0.13595421236E+02  0.25500000000E-02 0. -1.
          2   -1    0    0  501    0  0.00000000000E+00 -0.00000000000E+00 -0.24248883370E+04  0.24248883370E+04  0.25500000000E-02 0.  1.
    5000001    1    1    2    0    0 -0.11527737754E+03 -0.11558116644E+03 -0.10729506395E+04  0.10880257141E+04  0.77000000000E+02 0.  0.
   -5000001    1    1    2    0    0  0.11527737754E+03  0.11558116644E+03 -0.13383422765E+04  0.13504580441E+04  0.77000000000E+02 0.  0.
<mgrwt>
<rscale>  0 0.36313842E+03</rscale>
<asrwt>0</asrwt>
<pdfrwt beam="1">  1        2 0.37305940E+00 0.36313842E+03</pdfrwt>
<pdfrwt beam="2">  1       -2 0.20916052E-02 0.36313842E+03</pdfrwt>
<totfact> 0.31728055E+03</totfact>
</mgrwt>
</event>
<event>
 4    1  0.4991066E-004  0.2644848E+03  0.7818608E-02  0.1104478E+00
         -2   -1    0    0    0  501 -0.00000000000E+00  0.00000000000E+00  0.16094309778E+03  0.16094309780E+03  0.25500000000E-02 0. -1.
          2   -1    0    0  501    0  0.00000000000E+00 -0.00000000000E+00 -0.10865980652E+03  0.10865980655E+03  0.25500000000E-02 0.  1.
    5000001    1    1    2    0    0  0.64674900795E+02 -0.70755229294E+02 -0.23482037485E+02  0.12517807855E+03  0.77000000000E+02 0.  0.
   -5000001    1    1    2    0    0 -0.64674900795E+02  0.70755229294E+02  0.75765328748E+02  0.14442482579E+03  0.77000000000E+02 0.  0.
<mgrwt>
<rscale>  0 0.26448475E+03</rscale>
<asrwt>0</asrwt>
<pdfrwt beam="1">  1        2 0.16716893E-01 0.26448475E+03</pdfrwt>
<pdfrwt beam="2">  1       -2 0.24760477E-01 0.26448475E+03</pdfrwt>
<totfact> 0.49104411E+03</totfact>
</mgrwt>
</event>
<event>
 4    1  0.4991066E-004  0.2953415E+03  0.7818608E-02  0.1087593E+00
         -2   -1    0    0    0  501 -0.00000000000E+00  0.00000000000E+00  0.13517740192E+03  0.13517740195E+03  0.25500000000E-02 0. -1.
          2   -1    0    0  501    0  0.00000000000E+00 -0.00000000000E+00 -0.16131875963E+03  0.16131875965E+03  0.25500000000E-02 0.  1.
    5000001    1    1    2    0    0  0.20745408989E+02 -0.10653077491E+03  0.51198925242E+02  0.14258158346E+03  0.77000000000E+02 0.  0.
   -5000001    1    1    2    0    0 -0.20745408989E+02  0.10653077491E+03 -0.77340282947E+02  0.15391457813E+03  0.77000000000E+02 0.  0.
<mgrwt>
<rscale>  0 0.29534150E+03</rscale>
<asrwt>0</asrwt>
<pdfrwt beam="1">  1        2 0.24818271E-01 0.29534150E+03</pdfrwt>
<pdfrwt beam="2">  1       -2 0.20796524E-01 0.29534150E+03</pdfrwt>
<totfact> 0.42487415E+03</totfact>
</mgrwt>
</event>
<event>
 4    1  0.4991066E-004  0.1750215E+03  0.7818608E-02  0.1172710E+00
          2   -1    0    0  501    0  0.00000000000E+00  0.00000000000E+00  0.99013104467E+03  0.99013104467E+03  0.25500000000E-02 0.  1.
         -2   -1    0    0    0  501 -0.00000000000E+00 -0.00000000000E+00 -0.77344635593E+01  0.77344639797E+01  0.25500000000E-02 0. -1.
    5000001    1    1    2    0    0 -0.31719168826E+02  0.11598778858E+02  0.35288876512E+03  0.36276730543E+03  0.77000000000E+02 0.  0.
   -5000001    1    1    2    0    0  0.31719168826E+02 -0.11598778858E+02  0.62950781599E+03  0.63509820322E+03  0.77000000000E+02 0.  0.
<mgrwt>
<rscale>  0 0.17502152E+03</rscale>
<asrwt>0</asrwt>
<pdfrwt beam="1">  1        2 0.15232774E+00 0.17502152E+03</pdfrwt>
<pdfrwt beam="2">  1       -2 0.11899184E-02 0.17502152E+03</pdfrwt>
<totfact> 0.42471269E+04</totfact>
</mgrwt>
</event>
<event>
 4    1  0.4991066E-004  0.3155722E+03  0.7818608E-02  0.1077705E+00
         -2   -1    0    0    0  501 -0.00000000000E+00  0.00000000000E+00  0.45296894197E+02  0.45296894269E+02  0.25500000000E-02 0. -1.
          2   -1    0    0  501    0  0.00000000000E+00 -0.00000000000E+00 -0.54962825714E+03  0.54962825714E+03  0.25500000000E-02 0.  1.
    5000001    1    1    2    0    0  0.49461349818E+02 -0.11930565214E+03 -0.16200552677E+03  0.22103179514E+03  0.77000000000E+02 0.  0.
   -5000001    1    1    2    0    0 -0.49461349818E+02  0.11930565214E+03 -0.34232583617E+03  0.37389335627E+03  0.77000000000E+02 0.  0.
<mgrwt>
<rscale>  0 0.31557220E+03</rscale>
<asrwt>0</asrwt>
<pdfrwt beam="1">  1        2 0.84558189E-01 0.31557220E+03</pdfrwt>
<pdfrwt beam="2">  1       -2 0.69687533E-02 0.31557220E+03</pdfrwt>
<totfact> 0.65623132E+03</totfact>
</mgrwt>
</event>
<event>
 4    1  0.4991066E-004  0.2661838E+03  0.7818608E-02  0.1103484E+00
         -2   -1    0    0    0  501 -0.00000000000E+00  0.00000000000E+00  0.44135068836E+02  0.44135068910E+02  0.25500000000E-02 0.  1.
          2   -1    0    0  501    0  0.00000000000E+00 -0.00000000000E+00 -0.40134639572E+03  0.40134639573E+03  0.25500000000E-02 0. -1.
    5000001    1    1    2    0    0 -0.66503692119E+02  0.81726264555E+02 -0.13488284874E+03  0.18768139564E+03  0.77000000000E+02 0.  0.
   -5000001    1    1    2    0    0  0.66503692119E+02 -0.81726264555E+02 -0.22232847814E+03  0.25780006900E+03  0.77000000000E+02 0.  0.
<mgrwt>
<rscale>  0 0.26618378E+03</rscale>
<asrwt>0</asrwt>
<pdfrwt beam="1">  1        2 0.61745597E-01 0.26618378E+03</pdfrwt>
<pdfrwt beam="2">  1       -2 0.67900109E-02 0.26618378E+03</pdfrwt>
<totfact> 0.96351608E+03</totfact>
</mgrwt>
</event>
<event>
 4    1  0.4991066E-004  0.2131128E+03  0.7818608E-02  0.1139124E+00
          2   -1    0    0  501    0  0.00000000000E+00  0.00000000000E+00  0.97350908333E+03  0.97350908333E+03  0.25500000000E-02 0.  1.
         -2   -1    0    0    0  501 -0.00000000000E+00 -0.00000000000E+00 -0.11663236431E+02  0.11663236710E+02  0.25500000000E-02 0. -1.
    5000001    1    1    2    0    0  0.48804231847E+02 -0.52954601664E+02  0.40942311020E+03  0.42277928763E+03  0.77000000000E+02 0.  0.
   -5000001    1    1    2    0    0 -0.48804231847E+02  0.52954601664E+02  0.55242273670E+03  0.56239303242E+03  0.77000000000E+02 0.  0.
<mgrwt>
<rscale>  0 0.21311280E+03</rscale>
<asrwt>0</asrwt>
<pdfrwt beam="1">  1        2 0.14977069E+00 0.21311280E+03</pdfrwt>
<pdfrwt beam="2">  1       -2 0.17943433E-02 0.21311280E+03</pdfrwt>
<totfact> 0.24288206E+04</totfact>
</mgrwt>
</event>
<event>
 4    1  0.4991066E-004  0.2145157E+03  0.7818608E-02  0.1138039E+00
          2   -1    0    0  501    0  0.00000000000E+00  0.00000000000E+00  0.18105290784E+03  0.18105290785E+03  0.25500000000E-02 0.  1.
         -2   -1    0    0    0  501 -0.00000000000E+00 -0.00000000000E+00 -0.63540805533E+02  0.63540805584E+02  0.25500000000E-02 0. -1.
    5000001    1    1    2    0    0  0.71158650845E+02  0.20784073744E+02  0.68936332127E+02  0.12718785004E+03  0.77000000000E+02 0.  0.
   -5000001    1    1    2    0    0 -0.71158650845E+02 -0.20784073744E+02  0.48575770176E+02  0.11740586340E+03  0.77000000000E+02 0.  0.
<mgrwt>
<rscale>  0 0.21451571E+03</rscale>
<asrwt>0</asrwt>
<pdfrwt beam="1">  1        2 0.27854293E-01 0.21451571E+03</pdfrwt>
<pdfrwt beam="2">  1       -2 0.97755088E-02 0.21451571E+03</pdfrwt>
<totfact> 0.12749184E+04</totfact>
</mgrwt>
</event>
<event>
 4    1  0.4991066E-004  0.2972801E+03  0.7818608E-02  0.1086608E+00
          2   -1    0    0  501    0  0.00000000000E+00  0.00000000000E+00  0.37777447478E+04  0.37777447478E+04  0.25500000000E-02 0.  1.
         -2   -1    0    0    0  501 -0.00000000000E+00 -0.00000000000E+00 -0.58484261760E+01  0.58484267319E+01  0.25500000000E-02 0. -1.
    5000001    1    1    2    0    0  0.28850620731E+02 -0.12351588156E+03  0.19971441481E+04  0.20026488159E+04  0.77000000000E+02 0.  0.
   -5000001    1    1    2    0    0 -0.28850620731E+02  0.12351588156E+03  0.17747521734E+04  0.17809443586E+04  0.77000000000E+02 0.  0.
<mgrwt>
<rscale>  0 0.29728009E+03</rscale>
<asrwt>0</asrwt>
<pdfrwt beam="1">  1        2 0.58118858E+00 0.29728009E+03</pdfrwt>
<pdfrwt beam="2">  1       -2 0.89976244E-03 0.29728009E+03</pdfrwt>
<totfact> 0.16171706E+03</totfact>
</mgrwt>
</event>
<event>
 4    1  0.4991066E-004  0.2234005E+03  0.7818608E-02  0.1131373E+00
         -2   -1    0    0    0  501 -0.00000000000E+00  0.00000000000E+00  0.46835837433E+02  0.46835837503E+02  0.25500000000E-02 0. -1.
          2   -1    0    0  501    0  0.00000000000E+00 -0.00000000000E+00 -0.26639748511E+03  0.26639748512E+03  0.25500000000E-02 0.  1.
    5000001    1    1    2    0    0 -0.34080705448E+02 -0.49328943785E+02 -0.33586331732E+02  0.10320794959E+03  0.77000000000E+02 0.  0.
   -5000001    1    1    2    0    0  0.34080705448E+02  0.49328943785E+02 -0.18597531594E+03  0.21002537304E+03  0.77000000000E+02 0.  0.
<mgrwt>
<rscale>  0 0.22340053E+03</rscale>
<asrwt>0</asrwt>
<pdfrwt beam="1">  1        2 0.40984228E-01 0.22340053E+03</pdfrwt>
<pdfrwt beam="2">  1       -2 0.72055136E-02 0.22340053E+03</pdfrwt>
<totfact> 0.13540882E+04</totfact>
</mgrwt>
</event>
<event>
 4    1  0.4991066E-004  0.1988590E+03  0.7818608E-02  0.1150705E+00
          2   -1    0    0  501    0  0.00000000000E+00  0.00000000000E+00  0.19789333733E+02  0.19789333897E+02  0.25500000000E-02 0.  1.
         -2   -1    0    0    0  501 -0.00000000000E+00 -0.00000000000E+00 -0.49957340789E+03  0.49957340789E+03  0.25500000000E-02 0. -1.
    5000001    1    1    2    0    0  0.59334477442E+02  0.55841574786E+01 -0.18730235058E+03  0.21109934524E+03  0.77000000000E+02 0.  0.
   -5000001    1    1    2    0    0 -0.59334477442E+02 -0.55841574786E+01 -0.29248172357E+03  0.30826339655E+03  0.77000000000E+02 0.  0.
<mgrwt>
<rscale>  0 0.19885899E+03</rscale>
<asrwt>0</asrwt>
<pdfrwt beam="1">  1        2 0.30445133E-02 0.19885899E+03</pdfrwt>
<pdfrwt beam="2">  1       -2 0.76857438E-01 0.19885899E+03</pdfrwt>
<totfact> 0.46665059E+03</totfact>
</mgrwt>
</event>
<event>
 4    1  0.4991066E-004  0.4991376E+03  0.7818608E-02  0.1014004E+00
         -2   -1    0    0    0  501 -0.00000000000E+00  0.00000000000E+00  0.24537823605E+02  0.24537823737E+02  0.25500000000E-02 0. -1.
          2   -1    0    0  501    0  0.00000000000E+00 -0.00000000000E+00 -0.25383091352E+04  0.25383091352E+04  0.25500000000E-02 0.  1.
    5000001    1    1    2    0    0 -0.13201572510E+03  0.13906977159E+03 -0.53828653291E+03  0.57658472452E+03  0.77000000000E+02 0.  0.
   -5000001    1    1    2    0    0  0.13201572510E+03 -0.13906977159E+03 -0.19754847786E+04  0.19862622344E+04  0.77000000000E+02 0.  0.
<mgrwt>
<rscale>  0 0.49913758E+03</rscale>
<asrwt>0</asrwt>
<pdfrwt beam="1">  1        2 0.39050889E+00 0.49913758E+03</pdfrwt>
<pdfrwt beam="2">  1       -2 0.37750518E-02 0.49913758E+03</pdfrwt>
<totfact> 0.11168956E+03</totfact>
</mgrwt>
</event>
<event>
 4    1  0.4991066E-004  0.2850215E+03  0.7818608E-02  0.1092978E+00
         -2   -1    0    0    0  501 -0.00000000000E+00  0.00000000000E+00  0.58713448227E+02  0.58713448282E+02  0.25500000000E-02 0.  1.
          2   -1    0    0  501    0  0.00000000000E+00 -0.00000000000E+00 -0.34590556883E+03  0.34590556884E+03  0.25500000000E-02 0. -1.
    5000001    1    1    2    0    0 -0.14969212946E+02 -0.83376055194E+02 -0.26409288829E+03  0.28783623393E+03  0.77000000000E+02 0.  0.
   -5000001    1    1    2    0    0  0.14969212946E+02  0.83376055194E+02 -0.23099232307E+02  0.11678278319E+03  0.77000000000E+02 0.  0.
<mgrwt>
<rscale>  0 0.28502146E+03</rscale>
<asrwt>0</asrwt>
<pdfrwt beam="1">  1        2 0.53216240E-01 0.28502146E+03</pdfrwt>
<pdfrwt beam="2">  1       -2 0.90328384E-02 0.28502146E+03</pdfrwt>
<totfact> 0.72687215E+03</totfact>
</mgrwt>
</event>
<event>
 4    1  0.4991066E-004  0.2753368E+03  0.7818608E-02  0.1098263E+00
          2   -1    0    0  501    0  0.00000000000E+00  0.00000000000E+00  0.62269456501E+03  0.62269456501E+03  0.25500000000E-02 0.  1.
         -2   -1    0    0    0  501 -0.00000000000E+00 -0.00000000000E+00 -0.30436414354E+02  0.30436414461E+02  0.25500000000E-02 0. -1.
    5000001    1    1    2    0    0 -0.19689336980E+01  0.11402722147E+03  0.28620412833E+03  0.31756556333E+03  0.77000000000E+02 0.  0.
   -5000001    1    1    2    0    0  0.19689336980E+01 -0.11402722147E+03  0.30605402232E+03  0.33556541614E+03  0.77000000000E+02 0.  0.
<mgrwt>
<rscale>  0 0.27533681E+03</rscale>
<asrwt>0</asrwt>
<pdfrwt beam="1">  1        2 0.95799156E-01 0.27533681E+03</pdfrwt>
<pdfrwt beam="2">  1       -2 0.46825257E-02 0.27533681E+03</pdfrwt>
<totfact> 0.10403958E+04</totfact>
</mgrwt>
</event>
<event>
 4    1  0.4991066E-004  0.7334369E+03  0.7818608E-02  0.9661700E-01
         -2   -1    0    0    0  501 -0.00000000000E+00  0.00000000000E+00  0.35835815935E+03  0.35835815936E+03  0.25500000000E-02 0. -1.
          2   -1    0    0  501    0  0.00000000000E+00 -0.00000000000E+00 -0.37527379404E+03  0.37527379405E+03  0.25500000000E-02 0.  1.
    5000001    1    1    2    0    0  0.33209113246E+03 -0.10479224195E+03  0.76931691748E+02  0.36484711788E+03  0.77000000000E+02 0.  0.
   -5000001    1    1    2    0    0 -0.33209113246E+03  0.10479224195E+03 -0.93847326440E+02  0.36878483553E+03  0.77000000000E+02 0.  0.
<mgrwt>
<rscale>  0 0.73343691E+03</rscale>
<asrwt>0</asrwt>
<pdfrwt beam="1">  1        2 0.57734430E-01 0.73343691E+03</pdfrwt>
<pdfrwt beam="2">  1       -2 0.55132025E-01 0.73343691E+03</pdfrwt>
<totfact> 0.26673121E+02</totfact>
</mgrwt>
</event>
<event>
 4    1  0.4991066E-004  0.3823250E+03  0.7818608E-02  0.1050078E+00
          2   -1    0    0  501    0  0.00000000000E+00  0.00000000000E+00  0.17055053797E+03  0.17055053799E+03  0.25500000000E-02 0.  1.
         -2   -1    0    0    0  501 -0.00000000000E+00 -0.00000000000E+00 -0.21426551372E+03  0.21426551373E+03  0.25500000000E-02 0. -1.
    5000001    1    1    2    0    0 -0.67993640909E+02  0.15170920019E+03 -0.76759032962E+02  0.19864482316E+03  0.77000000000E+02 0.  0.
   -5000001    1    1    2    0    0  0.67993640909E+02 -0.15170920019E+03  0.33044057212E+02  0.18617122856E+03  0.77000000000E+02 0.  0.
<mgrwt>
<rscale>  0 0.38232499E+03</rscale>
<asrwt>0</asrwt>
<pdfrwt beam="1">  1        2 0.26238544E-01 0.38232499E+03</pdfrwt>
<pdfrwt beam="2">  1       -2 0.32963925E-01 0.38232499E+03</pdfrwt>
<totfact> 0.17616302E+03</totfact>
</mgrwt>
</event>
<event>
 4    1  0.4991066E-004  0.3528279E+03  0.7818608E-02  0.1061460E+00
         -2   -1    0    0    0  501 -0.00000000000E+00  0.00000000000E+00  0.60530838962E+03  0.60530838962E+03  0.25500000000E-02 0. -1.
          2   -1    0    0  501    0  0.00000000000E+00 -0.00000000000E+00 -0.51414923254E+02  0.51414923318E+02  0.25500000000E-02 0.  1.
    5000001    1    1    2    0    0 -0.74888162489E+02  0.13471790877E+03  0.34747387360E+03  0.38784564541E+03  0.77000000000E+02 0.  0.
   -5000001    1    1    2    0    0  0.74888162489E+02 -0.13471790877E+03  0.20641959276E+03  0.26887766754E+03  0.77000000000E+02 0.  0.
<mgrwt>
<rscale>  0 0.35282792E+03</rscale>
<asrwt>0</asrwt>
<pdfrwt beam="1">  1        2 0.79099884E-02 0.35282792E+03</pdfrwt>
<pdfrwt beam="2">  1       -2 0.93124366E-01 0.35282792E+03</pdfrwt>
<totfact> 0.87733177E+02</totfact>
</mgrwt>
</event>
<event>
 4    1  0.4991066E-004  0.4115338E+03  0.7818608E-02  0.1039858E+00
          2   -1    0    0  501    0  0.00000000000E+00  0.00000000000E+00  0.14761907289E+03  0.14761907291E+03  0.25500000000E-02 0.  1.
         -2   -1    0    0    0  501 -0.00000000000E+00 -0.00000000000E+00 -0.28681935691E+03  0.28681935692E+03  0.25500000000E-02 0. -1.
    5000001    1    1    2    0    0 -0.32683428129E+01 -0.16476918302E+03  0.31937596198E+02  0.18468507192E+03  0.77000000000E+02 0.  0.
   -5000001    1    1    2    0    0  0.32683428129E+01  0.16476918302E+03 -0.17113788022E+03  0.24975335791E+03  0.77000000000E+02 0.  0.
<mgrwt>
<rscale>  0 0.41153375E+03</rscale>
<asrwt>0</asrwt>
<pdfrwt beam="1">  1        2 0.22710627E-01 0.41153375E+03</pdfrwt>
<pdfrwt beam="2">  1       -2 0.44126055E-01 0.41153375E+03</pdfrwt>
<totfact> 0.11897975E+03</totfact>
</mgrwt>
</event>
<event>
 4    1  0.4991066E-004  0.2187919E+03  0.7818608E-02  0.1134787E+00
          2   -1    0    0  501    0  0.00000000000E+00  0.00000000000E+00  0.15176555763E+03  0.15176555765E+03  0.25500000000E-02 0.  1.
         -2   -1    0    0    0  501 -0.00000000000E+00 -0.00000000000E+00 -0.78854983611E+02  0.78854983652E+02  0.25500000000E-02 0. -1.
    5000001    1    1    2    0    0 -0.68837952961E+02 -0.18097736933E+02  0.35881256400E+01  0.10491933328E+03  0.77000000000E+02 0.  0.
   -5000001    1    1    2    0    0  0.68837952961E+02  0.18097736933E+02  0.69322448381E+02  0.12570120803E+03  0.77000000000E+02 0.  0.
<mgrwt>
<rscale>  0 0.21879187E+03</rscale>
<asrwt>0</asrwt>
<pdfrwt beam="1">  1        2 0.23348547E-01 0.21879187E+03</pdfrwt>
<pdfrwt beam="2">  1       -2 0.12131536E-01 0.21879187E+03</pdfrwt>
<totfact> 0.11003445E+04</totfact>
</mgrwt>
</event>
<event>
 4    1  0.4991066E-004  0.1967523E+03  0.7818608E-02  0.1152508E+00
          2   -1    0    0  501    0  0.00000000000E+00  0.00000000000E+00  0.61652971496E+03  0.61652971496E+03  0.25500000000E-02 0.  1.
         -2   -1    0    0    0  501 -0.00000000000E+00 -0.00000000000E+00 -0.15697323412E+02  0.15697323619E+02  0.25500000000E-02 0. -1.
    5000001    1    1    2    0    0 -0.37024245162E+02  0.26318324653E+02  0.16849730160E+03  0.19074535273E+03  0.77000000000E+02 0.  0.
   -5000001    1    1    2    0    0  0.37024245162E+02 -0.26318324653E+02  0.43233508994E+03  0.44148168585E+03  0.77000000000E+02 0.  0.
<mgrwt>
<rscale>  0 0.19675229E+03</rscale>
<asrwt>0</asrwt>
<pdfrwt beam="1">  1        2 0.94850721E-01 0.19675229E+03</pdfrwt>
<pdfrwt beam="2">  1       -2 0.24149730E-02 0.19675229E+03</pdfrwt>
<totfact> 0.27724510E+04</totfact>
</mgrwt>
</event>
<event>
 4    1  0.4991066E-004  0.3409275E+03  0.7818608E-02  0.1066402E+00
          2   -1    0    0  501    0  0.00000000000E+00  0.00000000000E+00  0.46326534830E+03  0.46326534831E+03  0.25500000000E-02 0.  1.
         -2   -1    0    0    0  501 -0.00000000000E+00 -0.00000000000E+00 -0.62724083682E+02  0.62724083734E+02  0.25500000000E-02 0. -1.
    5000001    1    1    2    0    0  0.21614426100E+02  0.15052896229E+03  0.19771560822E+03  0.26104906366E+03  0.77000000000E+02 0.  0.
   -5000001    1    1    2    0    0 -0.21614426100E+02 -0.15052896229E+03  0.20282565640E+03  0.26494036838E+03  0.77000000000E+02 0.  0.
<mgrwt>
<rscale>  0 0.34092753E+03</rscale>
<asrwt>0</asrwt>
<pdfrwt beam="1">  1        2 0.71271593E-01 0.34092753E+03</pdfrwt>
<pdfrwt beam="2">  1       -2 0.96498588E-02 0.34092753E+03</pdfrwt>
<totfact> 0.47793903E+03</totfact>
</mgrwt>
</event>
<event>
 4    1  0.4991066E-004  0.1811920E+03  0.7818608E-02  0.1166654E+00
          2   -1    0    0  501    0  0.00000000000E+00  0.00000000000E+00  0.55923919194E+03  0.55923919194E+03  0.25500000000E-02 0.  1.
         -2   -1    0    0    0  501 -0.00000000000E+00 -0.00000000000E+00 -0.14676432360E+02  0.14676432582E+02  0.25500000000E-02 0. -1.
    5000001    1    1    2    0    0  0.37761213547E+02 -0.22389004723E+02  0.21290050107E+03  0.23061396345E+03  0.77000000000E+02 0.  0.
   -5000001    1    1    2    0    0 -0.37761213547E+02  0.22389004723E+02  0.33166225850E+03  0.34330166107E+03  0.77000000000E+02 0.  0.
<mgrwt>
<rscale>  0 0.18119201E+03</rscale>
<asrwt>0</asrwt>
<pdfrwt beam="1">  1        2 0.86036787E-01 0.18119201E+03</pdfrwt>
<pdfrwt beam="2">  1       -2 0.22579130E-02 0.18119201E+03</pdfrwt>
<totfact> 0.33986742E+04</totfact>
</mgrwt>
</event>
<event>
 4    1  0.4991066E-004  0.2553063E+03  0.7818608E-02  0.1109997E+00
         -2   -1    0    0    0  501 -0.00000000000E+00  0.00000000000E+00  0.20463618413E+02  0.20463618572E+02  0.25500000000E-02 0. -1.
          2   -1    0    0  501    0  0.00000000000E+00 -0.00000000000E+00 -0.79630716695E+03  0.79630716696E+03  0.25500000000E-02 0.  1.
    5000001    1    1    2    0    0  0.69672816630E+02 -0.17320175617E+02 -0.15695878901E+03  0.18899563833E+03  0.77000000000E+02 0.  0.
   -5000001    1    1    2    0    0 -0.69672816630E+02  0.17320175617E+02 -0.61888475953E+03  0.62777514720E+03  0.77000000000E+02 0.  0.
<mgrwt>
<rscale>  0 0.25530630E+03</rscale>
<asrwt>0</asrwt>
<pdfrwt beam="1">  1        2 0.12250877E+00 0.25530630E+03</pdfrwt>
<pdfrwt beam="2">  1       -2 0.31482496E-02 0.25530630E+03</pdfrwt>
<totfact> 0.13956625E+04</totfact>
</mgrwt>
</event>
<event>
 4    1  0.4991066E-004  0.3186362E+03  0.7818608E-02  0.1076279E+00
         -2   -1    0    0    0  501 -0.00000000000E+00  0.00000000000E+00  0.40057980607E+02  0.40057980688E+02  0.25500000000E-02 0. -1.
          2   -1    0    0  501    0  0.00000000000E+00 -0.00000000000E+00 -0.63363793809E+03  0.63363793809E+03  0.25500000000E-02 0.  1.
    5000001    1    1    2    0    0 -0.14928251455E+02  0.13017173726E+03 -0.39787354368E+03  0.42591066039E+03  0.77000000000E+02 0.  0.
   -5000001    1    1    2    0    0  0.14928251455E+02 -0.13017173726E+03 -0.19570641380E+03  0.24778525839E+03  0.77000000000E+02 0.  0.
<mgrwt>
<rscale>  0 0.31863620E+03</rscale>
<asrwt>0</asrwt>
<pdfrwt beam="1">  1        2 0.97482753E-01 0.31863620E+03</pdfrwt>
<pdfrwt beam="2">  1       -2 0.61627667E-02 0.31863620E+03</pdfrwt>
<totfact> 0.67285165E+03</totfact>
</mgrwt>
</event>
<event>
 4    1  0.4991066E-004  0.2254428E+03  0.7818608E-02  0.1129889E+00
          2   -1    0    0  501    0  0.00000000000E+00  0.00000000000E+00  0.11867045354E+04  0.11867045354E+04  0.25500000000E-02 0.  1.
         -2   -1    0    0    0  501 -0.00000000000E+00 -0.00000000000E+00 -0.10707057958E+02  0.10707058262E+02  0.25500000000E-02 0. -1.
    5000001    1    1    2    0    0 -0.52980105717E+02 -0.61328813030E+02  0.66478432769E+03  0.67411817751E+03  0.77000000000E+02 0.  0.
   -5000001    1    1    2    0    0  0.52980105717E+02  0.61328813030E+02  0.51121314973E+03  0.52329341613E+03  0.77000000000E+02 0.  0.
<mgrwt>
<rscale>  0 0.22544280E+03</rscale>
<asrwt>0</asrwt>
<pdfrwt beam="1">  1        2 0.18256974E+00 0.22544280E+03</pdfrwt>
<pdfrwt beam="2">  1       -2 0.16472414E-02 0.22544280E+03</pdfrwt>
<totfact> 0.20675771E+04</totfact>
</mgrwt>
</event>
<event>
 4    1  0.4991066E-004  0.2935826E+03  0.7818608E-02  0.1088493E+00
         -2   -1    0    0    0  501 -0.00000000000E+00  0.00000000000E+00  0.10811468642E+03  0.10811468645E+03  0.25500000000E-02 0. -1.
          2   -1    0    0  501    0  0.00000000000E+00 -0.00000000000E+00 -0.19930400121E+03  0.19930400123E+03  0.25500000000E-02 0.  1.
    5000001    1    1    2    0    0 -0.58065776449E+02  0.79431841388E+02  0.35092936192E+02  0.12977505920E+03  0.77000000000E+02 0.  0.
   -5000001    1    1    2    0    0  0.58065776449E+02 -0.79431841388E+02 -0.12628225099E+03  0.17764362847E+03  0.77000000000E+02 0.  0.
<mgrwt>
<rscale>  0 0.29358263E+03</rscale>
<asrwt>0</asrwt>
<pdfrwt beam="1">  1        2 0.30662154E-01 0.29358263E+03</pdfrwt>
<pdfrwt beam="2">  1       -2 0.16633029E-01 0.29358263E+03</pdfrwt>
<totfact> 0.49095950E+03</totfact>
</mgrwt>
</event>
<event>
 4    1  0.4991066E-004  0.3718441E+03  0.7818608E-02  0.1053990E+00
          2   -1    0    0  501    0  0.00000000000E+00  0.00000000000E+00  0.32110618851E+03  0.32110618852E+03  0.25500000000E-02 0. -1.
         -2   -1    0    0    0  501 -0.00000000000E+00 -0.00000000000E+00 -0.10764976938E+03  0.10764976941E+03  0.25500000000E-02 0.  1.
    5000001    1    1    2    0    0 -0.46984026555E+02 -0.14515317931E+03  0.19115392222E+03  0.25640937229E+03  0.77000000000E+02 0.  0.
   -5000001    1    1    2    0    0  0.46984026555E+02  0.14515317931E+03  0.22302496912E+02  0.17234658564E+03  0.77000000000E+02 0.  0.
<mgrwt>
<rscale>  0 0.37184409E+03</rscale>
<asrwt>0</asrwt>
<pdfrwt beam="1">  1        2 0.49400951E-01 0.37184409E+03</pdfrwt>
<pdfrwt beam="2">  1       -2 0.16561503E-01 0.37184409E+03</pdfrwt>
<totfact> 0.29588910E+03</totfact>
</mgrwt>
</event>
<event>
 4    1  0.4991066E-004  0.1933250E+03  0.7818608E-02  0.1155496E+00
          2   -1    0    0  501    0  0.00000000000E+00  0.00000000000E+00  0.51990234733E+04  0.51990234733E+04  0.25500000000E-02 0.  1.
         -2   -1    0    0    0  501 -0.00000000000E+00 -0.00000000000E+00 -0.17971902787E+01  0.17971920878E+01  0.25500000000E-02 0. -1.
    5000001    1    1    2    0    0  0.78464623515E+01 -0.57541227572E+02  0.24241040112E+04  0.24260218088E+04  0.77000000000E+02 0.  0.
   -5000001    1    1    2    0    0 -0.78464623515E+01  0.57541227572E+02  0.27731222719E+04  0.27747988566E+04  0.77000000000E+02 0.  0.
<mgrwt>
<rscale>  0 0.19332500E+03</rscale>
<asrwt>0</asrwt>
<pdfrwt beam="1">  1        2 0.79984654E+00 0.19332500E+03</pdfrwt>
<pdfrwt beam="2">  1       -2 0.27649207E-03 0.19332500E+03</pdfrwt>
<totfact> 0.39657033E+02</totfact>
</mgrwt>
</event>
<event>
 4    1  0.4991066E-004  0.2207953E+03  0.7818608E-02  0.1133291E+00
         -2   -1    0    0    0  501 -0.00000000000E+00  0.00000000000E+00  0.11130390403E+02  0.11130390695E+02  0.25500000000E-02 0. -1.
          2   -1    0    0  501    0  0.00000000000E+00 -0.00000000000E+00 -0.10949882224E+04  0.10949882224E+04  0.25500000000E-02 0.  1.
    5000001    1    1    2    0    0 -0.75435388305E+02 -0.22355978792E+02 -0.58334886214E+03  0.59364567088E+03  0.77000000000E+02 0.  0.
   -5000001    1    1    2    0    0  0.75435388305E+02  0.22355978792E+02 -0.50050896988E+03  0.51247294224E+03  0.77000000000E+02 0.  0.
<mgrwt>
<rscale>  0 0.22079535E+03</rscale>
<asrwt>0</asrwt>
<pdfrwt beam="1">  1        2 0.16845964E+00 0.22079535E+03</pdfrwt>
<pdfrwt beam="2">  1       -2 0.17123686E-02 0.22079535E+03</pdfrwt>
<totfact> 0.22037447E+04</totfact>
</mgrwt>
</event>
<event>
 4    1  0.4991066E-004  0.1728150E+03  0.7818608E-02  0.1174944E+00
          2   -1    0    0  501    0  0.00000000000E+00  0.00000000000E+00  0.10145460790E+03  0.10145460793E+03  0.25500000000E-02 0.  1.
         -2   -1    0    0    0  501 -0.00000000000E+00 -0.00000000000E+00 -0.73592076550E+02  0.73592076595E+02  0.25500000000E-02 0. -1.
    5000001    1    1    2    0    0  0.36942769625E+01 -0.37682053393E+02  0.36179107867E+01  0.85881744909E+02  0.77000000000E+02 0.  0.
   -5000001    1    1    2    0    0 -0.36942769625E+01  0.37682053393E+02  0.24244620559E+02  0.89164939613E+02  0.77000000000E+02 0.  0.
<mgrwt>
<rscale>  0 0.17281499E+03</rscale>
<asrwt>0</asrwt>
<pdfrwt beam="1">  1        2 0.15608401E-01 0.17281499E+03</pdfrwt>
<pdfrwt beam="2">  1       -2 0.11321858E-01 0.17281499E+03</pdfrwt>
<totfact> 0.19164380E+04</totfact>
</mgrwt>
</event>
<event>
 4    1  0.4991066E-004  0.2053710E+03  0.7818608E-02  0.1145285E+00
         -2   -1    0    0    0  501 -0.00000000000E+00  0.00000000000E+00  0.67395733148E+01  0.67395737972E+01  0.25500000000E-02 0. -1.
          2   -1    0    0  501    0  0.00000000000E+00 -0.00000000000E+00 -0.15645376216E+04  0.15645376216E+04  0.25500000000E-02 0.  1.
    5000001    1    1    2    0    0 -0.51274036631E+01  0.57498854935E+02 -0.10529373590E+04  0.10573261042E+04  0.77000000000E+02 0.  0.
   -5000001    1    1    2    0    0  0.51274036631E+01 -0.57498854935E+02 -0.50486068928E+03  0.51395109122E+03  0.77000000000E+02 0.  0.
<mgrwt>
<rscale>  0 0.20537104E+03</rscale>
<asrwt>0</asrwt>
<pdfrwt beam="1">  1        2 0.24069781E+00 0.20537104E+03</pdfrwt>
<pdfrwt beam="2">  1       -2 0.10368587E-02 0.20537104E+03</pdfrwt>
<totfact> 0.25130776E+04</totfact>
</mgrwt>
</event>
<event>
 4    1  0.4991066E-004  0.1592294E+03  0.7818608E-02  0.1189570E+00
          2   -1    0    0  501    0  0.00000000000E+00  0.00000000000E+00  0.16072378979E+03  0.16072378981E+03  0.25500000000E-02 0.  1.
         -2   -1    0    0    0  501 -0.00000000000E+00 -0.00000000000E+00 -0.39437205928E+02  0.39437206011E+02  0.25500000000E-02 0. -1.
    5000001    1    1    2    0    0 -0.20063217231E+02 -0.20412075104E+01  0.58540581123E+02  0.98806370503E+02  0.77000000000E+02 0.  0.
   -5000001    1    1    2    0    0  0.20063217231E+02  0.20412075104E+01  0.62746002742E+02  0.10135462532E+03  0.77000000000E+02 0.  0.
<mgrwt>
<rscale>  0 0.15922936E+03</rscale>
<asrwt>0</asrwt>
<pdfrwt beam="1">  1        2 0.24726737E-01 0.15922936E+03</pdfrwt>
<pdfrwt beam="2">  1       -2 0.60672625E-02 0.15922936E+03</pdfrwt>
<totfact> 0.29731916E+04</totfact>
</mgrwt>
</event>
<event>
 4    1  0.4991066E-004  0.1986120E+03  0.7818608E-02  0.1150915E+00
         -2   -1    0    0    0  501 -0.00000000000E+00  0.00000000000E+00  0.24887174981E+01  0.24887188045E+01  0.25500000000E-02 0. -1.
          2   -1    0    0  501    0  0.00000000000E+00 -0.00000000000E+00 -0.39625557580E+04  0.39625557580E+04  0.25500000000E-02 0.  1.
    5000001    1    1    2    0    0  0.50181763415E+02  0.36984618155E+02 -0.18437333382E+04  0.18463931579E+04  0.77000000000E+02 0.  0.
   -5000001    1    1    2    0    0 -0.50181763415E+02 -0.36984618155E+02 -0.21163337023E+04  0.21186513188E+04  0.77000000000E+02 0.  0.
<mgrwt>
<rscale>  0 0.19861203E+03</rscale>
<asrwt>0</asrwt>
<pdfrwt beam="1">  1        2 0.60961891E+00 0.19861203E+03</pdfrwt>
<pdfrwt beam="2">  1       -2 0.38288289E-03 0.19861203E+03</pdfrwt>
<totfact> 0.41140066E+03</totfact>
</mgrwt>
</event>
<event>
 4    1  0.4991066E-004  0.3004723E+03  0.7818608E-02  0.1085005E+00
          2   -1    0    0  501    0  0.00000000000E+00  0.00000000000E+00  0.43151872227E+03  0.43151872228E+03  0.25500000000E-02 0.  1.
         -2   -1    0    0    0  501 -0.00000000000E+00 -0.00000000000E+00 -0.52305715921E+02  0.52305715983E+02  0.25500000000E-02 0. -1.
    5000001    1    1    2    0    0 -0.55867042706E+02  0.11626048774E+03  0.19293316206E+03  0.24451959531E+03  0.77000000000E+02 0.  0.
   -5000001    1    1    2    0    0  0.55867042706E+02 -0.11626048774E+03  0.18627984429E+03  0.23930484295E+03  0.77000000000E+02 0.  0.
<mgrwt>
<rscale>  0 0.30047227E+03</rscale>
<asrwt>0</asrwt>
<pdfrwt beam="1">  1        2 0.66387493E-01 0.30047227E+03</pdfrwt>
<pdfrwt beam="2">  1       -2 0.80470335E-02 0.30047227E+03</pdfrwt>
<totfact> 0.68646840E+03</totfact>
</mgrwt>
</event>
<event>
 4    1  0.4991066E-004  0.2272887E+03  0.7818608E-02  0.1128563E+00
          2   -1    0    0  501    0  0.00000000000E+00  0.00000000000E+00  0.13270472987E+04  0.13270472987E+04  0.25500000000E-02 0.  1.
         -2   -1    0    0    0  501 -0.00000000000E+00 -0.00000000000E+00 -0.97321618651E+01  0.97321621991E+01  0.25500000000E-02 0. -1.
    5000001    1    1    2    0    0  0.55933244007E+02 -0.23810548724E+02  0.32127905202E+03  0.33592365097E+03  0.77000000000E+02 0.  0.
   -5000001    1    1    2    0    0 -0.55933244007E+02  0.23810548724E+02  0.99603608483E+03  0.10008558099E+04  0.77000000000E+02 0.  0.
<mgrwt>
<rscale>  0 0.22728871E+03</rscale>
<asrwt>0</asrwt>
<pdfrwt beam="1">  1        2 0.20416107E+00 0.22728871E+03</pdfrwt>
<pdfrwt beam="2">  1       -2 0.14972561E-02 0.22728871E+03</pdfrwt>
<totfact> 0.19861787E+04</totfact>
</mgrwt>
</event>
<event>
 4    1  0.4991066E-004  0.3907246E+03  0.7818608E-02  0.1047040E+00
          2   -1    0    0  501    0  0.00000000000E+00  0.00000000000E+00  0.14675542819E+03  0.14675542821E+03  0.25500000000E-02 0. -1.
         -2   -1    0    0    0  501 -0.00000000000E+00 -0.00000000000E+00 -0.26006826290E+03  0.26006826291E+03  0.25500000000E-02 0.  1.
    5000001    1    1    2    0    0  0.85716677214E+02 -0.12973126034E+03 -0.15013234409E+03  0.22944774875E+03  0.77000000000E+02 0.  0.
   -5000001    1    1    2    0    0 -0.85716677214E+02  0.12973126034E+03  0.36819509384E+02  0.17737594237E+03  0.77000000000E+02 0.  0.
<mgrwt>
<rscale>  0 0.39072461E+03</rscale>
<asrwt>0</asrwt>
<pdfrwt beam="1">  1        2 0.22577758E-01 0.39072461E+03</pdfrwt>
<pdfrwt beam="2">  1       -2 0.40010502E-01 0.39072461E+03</pdfrwt>
<totfact> 0.14482290E+03</totfact>
</mgrwt>
</event>
<event>
 4    1  0.4991066E-004  0.1859343E+03  0.7818608E-02  0.1162180E+00
         -2   -1    0    0    0  501 -0.00000000000E+00  0.00000000000E+00  0.50628288864E+01  0.50628295286E+01  0.25500000000E-02 0. -1.
          2   -1    0    0  501    0  0.00000000000E+00 -0.00000000000E+00 -0.17071269817E+04  0.17071269817E+04  0.25500000000E-02 0.  1.
    5000001    1    1    2    0    0 -0.49462155110E+02  0.15948127333E+02 -0.88429121270E+03  0.88915735188E+03  0.77000000000E+02 0.  0.
   -5000001    1    1    2    0    0  0.49462155110E+02 -0.15948127333E+02 -0.81777294013E+03  0.82303245936E+03  0.77000000000E+02 0.  0.
<mgrwt>
<rscale>  0 0.18593431E+03</rscale>
<asrwt>0</asrwt>
<pdfrwt beam="1">  1        2 0.26263446E+00 0.18593431E+03</pdfrwt>
<pdfrwt beam="2">  1       -2 0.77889816E-03 0.18593431E+03</pdfrwt>
<totfact> 0.31787621E+04</totfact>
</mgrwt>
</event>
<event>
 4    1  0.4991066E-004  0.6671740E+03  0.7818608E-02  0.9775077E-01
          2   -1    0    0  501    0  0.00000000000E+00  0.00000000000E+00  0.42284495103E+03  0.42284495104E+03  0.25500000000E-02 0.  1.
         -2   -1    0    0    0  501 -0.00000000000E+00 -0.00000000000E+00 -0.26317041643E+03  0.26317041645E+03  0.25500000000E-02 0. -1.
    5000001    1    1    2    0    0 -0.25160302477E+03  0.20141669185E+03  0.40299898963E+02  0.33380510434E+03  0.77000000000E+02 0.  0.
   -5000001    1    1    2    0    0  0.25160302477E+03 -0.20141669185E+03  0.11937463564E+03  0.35221026314E+03  0.77000000000E+02 0.  0.
<mgrwt>
<rscale>  0 0.66717399E+03</rscale>
<asrwt>0</asrwt>
<pdfrwt beam="1">  1        2 0.65053068E-01 0.66717399E+03</pdfrwt>
<pdfrwt beam="2">  1       -2 0.40487757E-01 0.66717399E+03</pdfrwt>
<totfact> 0.43476939E+02</totfact>
</mgrwt>
</event>
<event>
 4    1  0.4991066E-004  0.2423684E+03  0.7818608E-02  0.1118225E+00
          2   -1    0    0  501    0  0.00000000000E+00  0.00000000000E+00  0.95574723959E+02  0.95574723993E+02  0.25500000000E-02 0.  1.
         -2   -1    0    0    0  501 -0.00000000000E+00 -0.00000000000E+00 -0.15365580372E+03  0.15365580374E+03  0.25500000000E-02 0. -1.
    5000001    1    1    2    0    0  0.66221916228E+00 -0.89562305703E+02 -0.56914567478E+02  0.13111107172E+03  0.77000000000E+02 0.  0.
   -5000001    1    1    2    0    0 -0.66221916228E+00  0.89562305703E+02 -0.11665122805E+01  0.11811945601E+03  0.77000000000E+02 0.  0.
<mgrwt>
<rscale>  0 0.24236841E+03</rscale>
<asrwt>0</asrwt>
<pdfrwt beam="1">  1        2 0.14703804E-01 0.24236841E+03</pdfrwt>
<pdfrwt beam="2">  1       -2 0.23639354E-01 0.24236841E+03</pdfrwt>
<totfact> 0.61731431E+03</totfact>
</mgrwt>
</event>
<event>
 4    1  0.4991066E-004  0.1957083E+03  0.7818608E-02  0.1153411E+00
         -2   -1    0    0    0  501 -0.00000000000E+00  0.00000000000E+00  0.83906515463E+01  0.83906519338E+01  0.25500000000E-02 0. -1.
          2   -1    0    0  501    0  0.00000000000E+00 -0.00000000000E+00 -0.11412028201E+04  0.11412028201E+04  0.25500000000E-02 0.  1.
    5000001    1    1    2    0    0  0.53128341321E+02  0.18308523201E+02 -0.43656341691E+03  0.44684945973E+03  0.77000000000E+02 0.  0.
   -5000001    1    1    2    0    0 -0.53128341321E+02 -0.18308523201E+02 -0.69624875166E+03  0.70274401232E+03  0.77000000000E+02 0.  0.
<mgrwt>
<rscale>  0 0.19570831E+03</rscale>
<asrwt>0</asrwt>
<pdfrwt beam="1">  1        2 0.17556954E+00 0.19570831E+03</pdfrwt>
<pdfrwt beam="2">  1       -2 0.12908704E-02 0.19570831E+03</pdfrwt>
<totfact> 0.31027060E+04</totfact>
</mgrwt>
</event>
<event>
 4    1  0.4991066E-004  0.1985484E+03  0.7818608E-02  0.1150970E+00
         -2   -1    0    0    0  501 -0.00000000000E+00  0.00000000000E+00  0.51951433340E+01  0.51951439598E+01  0.25500000000E-02 0. -1.
          2   -1    0    0  501    0  0.00000000000E+00 -0.00000000000E+00 -0.18970340655E+04  0.18970340655E+04  0.25500000000E-02 0.  1.
    5000001    1    1    2    0    0 -0.19988478290E+02  0.47611772831E+02 -0.60584644085E+03  0.61289911900E+03  0.77000000000E+02 0.  0.
   -5000001    1    1    2    0    0  0.19988478290E+02 -0.47611772831E+02 -0.12859924813E+04  0.12893300905E+04  0.77000000000E+02 0.  0.
<mgrwt>
<rscale>  0 0.19854838E+03</rscale>
<asrwt>0</asrwt>
<pdfrwt beam="1">  1        2 0.29185084E+00 0.19854838E+03</pdfrwt>
<pdfrwt beam="2">  1       -2 0.79925439E-03 0.19854838E+03</pdfrwt>
<totfact> 0.24500096E+04</totfact>
</mgrwt>
</event>
<event>
 4    1  0.4991066E-004  0.2001336E+03  0.7818608E-02  0.1149626E+00
         -2   -1    0    0    0  501 -0.00000000000E+00  0.00000000000E+00  0.77812566589E+01  0.77812570767E+01  0.25500000000E-02 0. -1.
          2   -1    0    0  501    0  0.00000000000E+00 -0.00000000000E+00 -0.12868571830E+04  0.12868571830E+04  0.25500000000E-02 0.  1.
    5000001    1    1    2    0    0 -0.49637993303E+02  0.39563894107E+02 -0.59150504294E+03  0.59986369112E+03  0.77000000000E+02 0.  0.
   -5000001    1    1    2    0    0  0.49637993303E+02 -0.39563894107E+02 -0.68757088343E+03  0.69477474900E+03  0.77000000000E+02 0.  0.
<mgrwt>
<rscale>  0 0.20013362E+03</rscale>
<asrwt>0</asrwt>
<pdfrwt beam="1">  1        2 0.19797786E+00 0.20013362E+03</pdfrwt>
<pdfrwt beam="2">  1       -2 0.11971175E-02 0.20013362E+03</pdfrwt>
<totfact> 0.28719645E+04</totfact>
</mgrwt>
</event>
<event>
 4    1  0.4991066E-004  0.2420048E+03  0.7818608E-02  0.1118464E+00
         -2   -1    0    0    0  501 -0.00000000000E+00  0.00000000000E+00  0.26136701427E+03  0.26136701428E+03  0.25500000000E-02 0. -1.
          2   -1    0    0  501    0  0.00000000000E+00 -0.00000000000E+00 -0.56019227170E+02  0.56019227228E+02  0.25500000000E-02 0.  1.
    5000001    1    1    2    0    0  0.89893824319E+02  0.14167141631E+02  0.75447633983E+02  0.14107782613E+03  0.77000000000E+02 0.  0.
   -5000001    1    1    2    0    0 -0.89893824319E+02 -0.14167141631E+02  0.12990015311E+03  0.17630841537E+03  0.77000000000E+02 0.  0.
<mgrwt>
<rscale>  0 0.24200478E+03</rscale>
<asrwt>0</asrwt>
<pdfrwt beam="1">  1        2 0.86183426E-02 0.24200478E+03</pdfrwt>
<pdfrwt beam="2">  1       -2 0.40210310E-01 0.24200478E+03</pdfrwt>
<totfact> 0.45045580E+03</totfact>
</mgrwt>
</event>
<event>
 4    1  0.4991066E-004  0.4426028E+03  0.7818608E-02  0.1029951E+00
          2   -1    0    0  501    0  0.00000000000E+00  0.00000000000E+00  0.32667666997E+02  0.32667667097E+02  0.25500000000E-02 0.  1.
         -2   -1    0    0    0  501 -0.00000000000E+00 -0.00000000000E+00 -0.14991675505E+04  0.14991675505E+04  0.25500000000E-02 0. -1.
    5000001    1    1    2    0    0 -0.16247203641E+03 -0.12426828765E+03 -0.85341773389E+03  0.88096004361E+03  0.77000000000E+02 0.  0.
   -5000001    1    1    2    0    0  0.16247203641E+03  0.12426828765E+03 -0.61308214960E+03  0.65087517397E+03  0.77000000000E+02 0.  0.
<mgrwt>
<rscale>  0 0.44260279E+03</rscale>
<asrwt>0</asrwt>
<pdfrwt beam="1">  1        2 0.50257961E-02 0.44260279E+03</pdfrwt>
<pdfrwt beam="2">  1       -2 0.23064111E+00 0.44260279E+03</pdfrwt>
<totfact> 0.14470157E+02</totfact>
</mgrwt>
</event>
<event>
 4    1  0.4991066E-004  0.2936702E+03  0.7818608E-02  0.1088448E+00
         -2   -1    0    0    0  501 -0.00000000000E+00  0.00000000000E+00  0.14001370418E+02  0.14001370651E+02  0.25500000000E-02 0. -1.
          2   -1    0    0  501    0  0.00000000000E+00 -0.00000000000E+00 -0.15398881331E+04  0.15398881331E+04  0.25500000000E-02 0.  1.
    5000001    1    1    2    0    0 -0.42969241136E+02  0.47783704204E+01 -0.14220776048E+03  0.16739544692E+03  0.77000000000E+02 0.  0.
   -5000001    1    1    2    0    0  0.42969241136E+02 -0.47783704204E+01 -0.13836790022E+04  0.13864940569E+04  0.77000000000E+02 0.  0.
<mgrwt>
<rscale>  0 0.29367018E+03</rscale>
<asrwt>0</asrwt>
<pdfrwt beam="1">  1        2 0.23690573E+00 0.29367018E+03</pdfrwt>
<pdfrwt beam="2">  1       -2 0.21540582E-02 0.29367018E+03</pdfrwt>
<totfact> 0.90123480E+03</totfact>
</mgrwt>
</event>
<event>
 4    1  0.4991066E-004  0.2199509E+03  0.7818608E-02  0.1133920E+00
          2   -1    0    0  501    0  0.00000000000E+00  0.00000000000E+00  0.90093455144E+02  0.90093455180E+02  0.25500000000E-02 0.  1.
         -2   -1    0    0    0  501 -0.00000000000E+00 -0.00000000000E+00 -0.13424509507E+03  0.13424509510E+03  0.25500000000E-02 0. -1.
    5000001    1    1    2    0    0 -0.75286935366E+02  0.10934325631E+02 -0.41903840649E+02  0.11607158987E+03  0.77000000000E+02 0.  0.
   -5000001    1    1    2    0    0  0.75286935366E+02 -0.10934325631E+02 -0.22477992784E+01  0.10826696041E+03  0.77000000000E+02 0.  0.
<mgrwt>
<rscale>  0 0.21995094E+03</rscale>
<asrwt>0</asrwt>
<pdfrwt beam="1">  1        2 0.13860532E-01 0.21995094E+03</pdfrwt>
<pdfrwt beam="2">  1       -2 0.20653092E-01 0.21995094E+03</pdfrwt>
<totfact> 0.83232559E+03</totfact>
</mgrwt>
</event>
<event>
 4    1  0.4991066E-004  0.2068786E+03  0.7818608E-02  0.1144062E+00
         -2   -1    0    0    0  501 -0.00000000000E+00  0.00000000000E+00  0.48731629605E+01  0.48731636277E+01  0.25500000000E-02 0. -1.
          2   -1    0    0  501    0  0.00000000000E+00 -0.00000000000E+00 -0.21956347384E+04  0.21956347384E+04  0.25500000000E-02 0.  1.
    5000001    1    1    2    0    0  0.39518439939E+02 -0.43186550892E+02 -0.14853147853E+04  0.14884608818E+04  0.77000000000E+02 0.  0.
   -5000001    1    1    2    0    0 -0.39518439939E+02  0.43186550892E+02 -0.70544679016E+03  0.71204702023E+03  0.77000000000E+02 0.  0.
<mgrwt>
<rscale>  0 0.20687858E+03</rscale>
<asrwt>0</asrwt>
<pdfrwt beam="1">  1        2 0.33778917E+00 0.20687858E+03</pdfrwt>
<pdfrwt beam="2">  1       -2 0.74971918E-03 0.20687858E+03</pdfrwt>
<totfact> 0.18794070E+04</totfact>
</mgrwt>
</event>
<event>
 4    1  0.4991066E-004  0.1991471E+03  0.7818608E-02  0.1150461E+00
          2   -1    0    0  501    0  0.00000000000E+00  0.00000000000E+00  0.32047914424E+03  0.32047914425E+03  0.25500000000E-02 0.  1.
         -2   -1    0    0    0  501 -0.00000000000E+00 -0.00000000000E+00 -0.30937715831E+02  0.30937715937E+02  0.25500000000E-02 0. -1.
    5000001    1    1    2    0    0  0.31587577479E+02  0.43397998007E+02  0.20342191991E+03  0.22403267347E+03  0.77000000000E+02 0.  0.
   -5000001    1    1    2    0    0 -0.31587577479E+02 -0.43397998007E+02  0.86119508505E+02  0.12738418672E+03  0.77000000000E+02 0.  0.
<mgrwt>
<rscale>  0 0.19914711E+03</rscale>
<asrwt>0</asrwt>
<pdfrwt beam="1">  1        2 0.49304482E-01 0.19914711E+03</pdfrwt>
<pdfrwt beam="2">  1       -2 0.47596487E-02 0.19914711E+03</pdfrwt>
<totfact> 0.20762249E+04</totfact>
</mgrwt>
</event>
<event>
 4    1  0.4991066E-004  0.2197113E+03  0.7818608E-02  0.1134098E+00
          2   -1    0    0  501    0  0.00000000000E+00  0.00000000000E+00  0.15740645805E+04  0.15740645805E+04  0.25500000000E-02 0.  1.
         -2   -1    0    0    0  501 -0.00000000000E+00 -0.00000000000E+00 -0.76669417771E+01  0.76669422011E+01  0.25500000000E-02 0. -1.
    5000001    1    1    2    0    0  0.66250724139E+02  0.21473637223E+02  0.10416654970E+04  0.10468267685E+04  0.77000000000E+02 0.  0.
   -5000001    1    1    2    0    0 -0.66250724139E+02 -0.21473637223E+02  0.52473214173E+03  0.53490475424E+03  0.77000000000E+02 0.  0.
<mgrwt>
<rscale>  0 0.21971128E+03</rscale>
<asrwt>0</asrwt>
<pdfrwt beam="1">  1        2 0.24216351E+00 0.21971128E+03</pdfrwt>
<pdfrwt beam="2">  1       -2 0.11795308E-02 0.21971128E+03</pdfrwt>
<totfact> 0.20680406E+04</totfact>
</mgrwt>
</event>
<event>
 4    1  0.4991066E-004  0.2620741E+03  0.7818608E-02  0.1105903E+00
          2   -1    0    0  501    0  0.00000000000E+00  0.00000000000E+00  0.31128455405E+03  0.31128455406E+03  0.25500000000E-02 0.  1.
         -2   -1    0    0    0  501 -0.00000000000E+00 -0.00000000000E+00 -0.55160813931E+02  0.55160813990E+02  0.25500000000E-02 0. -1.
    5000001    1    1    2    0    0  0.84539680182E+02  0.61743911311E+02  0.10456287992E+03  0.16679827327E+03  0.77000000000E+02 0.  0.
   -5000001    1    1    2    0    0 -0.84539680182E+02 -0.61743911311E+02  0.15156086020E+03  0.19964709478E+03  0.77000000000E+02 0.  0.
<mgrwt>
<rscale>  0 0.26207411E+03</rscale>
<asrwt>0</asrwt>
<pdfrwt beam="1">  1        2 0.47889932E-01 0.26207411E+03</pdfrwt>
<pdfrwt beam="2">  1       -2 0.84862789E-02 0.26207411E+03</pdfrwt>
<totfact> 0.89535522E+03</totfact>
</mgrwt>
</event>
<event>
 4    1  0.4991066E-004  0.2314832E+03  0.7818608E-02  0.1125600E+00
          2   -1    0    0  501    0  0.00000000000E+00  0.00000000000E+00  0.30251485652E+03  0.30251485653E+03  0.25500000000E-02 0.  1.
         -2   -1    0    0    0  501 -0.00000000000E+00 -0.00000000000E+00 -0.44282495323E+02  0.44282495397E+02  0.25500000000E-02 0. -1.
    5000001    1    1    2    0    0  0.15583115778E+02  0.32907710524E+02  0.24652175635E+03  0.26082125539E+03  0.77000000000E+02 0.  0.
   -5000001    1    1    2    0    0 -0.15583115778E+02 -0.32907710524E+02  0.11710604842E+02  0.85976096533E+02  0.77000000000E+02 0.  0.
<mgrwt>
<rscale>  0 0.23148315E+03</rscale>
<asrwt>0</asrwt>
<pdfrwt beam="1">  1        2 0.46540748E-01 0.23148315E+03</pdfrwt>
<pdfrwt beam="2">  1       -2 0.68126914E-02 0.23148315E+03</pdfrwt>
<totfact> 0.12911406E+04</totfact>
</mgrwt>
</event>
<event>
 4    1  0.4991066E-004  0.2775742E+03  0.7818608E-02  0.1097021E+00
          2   -1    0    0  501    0  0.00000000000E+00  0.00000000000E+00  0.18276781510E+04  0.18276781510E+04  0.25500000000E-02 0.  1.
         -2   -1    0    0    0  501 -0.00000000000E+00 -0.00000000000E+00 -0.10538976091E+02  0.10538976399E+02  0.25500000000E-02 0. -1.
    5000001    1    1    2    0    0  0.45956804096E+02 -0.75872740615E+02  0.41903961782E+03  0.43519179899E+03  0.77000000000E+02 0.  0.
   -5000001    1    1    2    0    0 -0.45956804096E+02  0.75872740615E+02  0.13980995571E+04  0.14030253284E+04  0.77000000000E+02 0.  0.
<mgrwt>
<rscale>  0 0.27757418E+03</rscale>
<asrwt>0</asrwt>
<pdfrwt beam="1">  1        2 0.28118105E+00 0.27757418E+03</pdfrwt>
<pdfrwt beam="2">  1       -2 0.16213821E-02 0.27757418E+03</pdfrwt>
<totfact> 0.96353954E+03</totfact>
</mgrwt>
</event>
<event>
 4    1  0.4991066E-004  0.1818590E+03  0.7818608E-02  0.1166016E+00
          2   -1    0    0  501    0  0.00000000000E+00  0.00000000000E+00  0.14139440140E+04  0.14139440140E+04  0.25500000000E-02 0.  1.
         -2   -1    0    0    0  501 -0.00000000000E+00 -0.00000000000E+00 -0.58475987691E+01  0.58475993251E+01  0.25500000000E-02 0. -1.
    5000001    1    1    2    0    0 -0.38828076314E+02 -0.25751595215E+02  0.60273217644E+03  0.60941434237E+03  0.77000000000E+02 0.  0.
   -5000001    1    1    2    0    0  0.38828076314E+02  0.25751595215E+02  0.80536423880E+03  0.81037727097E+03  0.77000000000E+02 0.  0.
<mgrwt>
<rscale>  0 0.18185904E+03</rscale>
<asrwt>0</asrwt>
<pdfrwt beam="1">  1        2 0.21752971E+00 0.18185904E+03</pdfrwt>
<pdfrwt beam="2">  1       -2 0.89963119E-03 0.18185904E+03</pdfrwt>
<totfact> 0.36784044E+04</totfact>
</mgrwt>
</event>
<event>
 4    1  0.4991066E-004  0.2640338E+03  0.7818608E-02  0.1104744E+00
          2   -1    0    0  501    0  0.00000000000E+00  0.00000000000E+00  0.83225587230E+03  0.83225587231E+03  0.25500000000E-02 0.  1.
         -2   -1    0    0    0  501 -0.00000000000E+00 -0.00000000000E+00 -0.20941226015E+02  0.20941226170E+02  0.25500000000E-02 0. -1.
    5000001    1    1    2    0    0  0.65197968133E+02  0.82280256073E+02  0.33496119095E+03  0.35937280786E+03  0.77000000000E+02 0.  0.
   -5000001    1    1    2    0    0 -0.65197968133E+02 -0.82280256073E+02  0.47635345534E+03  0.49382429062E+03  0.77000000000E+02 0.  0.
<mgrwt>
<rscale>  0 0.26403377E+03</rscale>
<asrwt>0</asrwt>
<pdfrwt beam="1">  1        2 0.12803938E+00 0.26403377E+03</pdfrwt>
<pdfrwt beam="2">  1       -2 0.32217267E-02 0.26403377E+03</pdfrwt>
<totfact> 0.12761542E+04</totfact>
</mgrwt>
</event>
<event>
 4    1  0.4991066E-004  0.3176819E+03  0.7818608E-02  0.1076721E+00
         -2   -1    0    0    0  501 -0.00000000000E+00  0.00000000000E+00  0.22502040524E+02  0.22502040669E+02  0.25500000000E-02 0. -1.
          2   -1    0    0  501    0  0.00000000000E+00 -0.00000000000E+00 -0.11212518584E+04  0.11212518584E+04  0.25500000000E-02 0.  1.
    5000001    1    1    2    0    0  0.11706215553E+03 -0.74805798779E+02 -0.55446531073E+03  0.57676705574E+03  0.77000000000E+02 0.  0.
   -5000001    1    1    2    0    0 -0.11706215553E+03  0.74805798779E+02 -0.54428450712E+03  0.56698684330E+03  0.77000000000E+02 0.  0.
<mgrwt>
<rscale>  0 0.31768195E+03</rscale>
<asrwt>0</asrwt>
<pdfrwt beam="1">  1        2 0.17250024E+00 0.31768195E+03</pdfrwt>
<pdfrwt beam="2">  1       -2 0.34618533E-02 0.31768195E+03</pdfrwt>
<totfact> 0.76045851E+03</totfact>
</mgrwt>
</event>
<event>
 4    1  0.4991066E-004  0.1809141E+03  0.7818608E-02  0.1166921E+00
          2   -1    0    0  501    0  0.00000000000E+00  0.00000000000E+00  0.50695707568E+03  0.50695707568E+03  0.25500000000E-02 0.  1.
         -2   -1    0    0    0  501 -0.00000000000E+00 -0.00000000000E+00 -0.16140377826E+02  0.16140378028E+02  0.25500000000E-02 0. -1.
    5000001    1    1    2    0    0 -0.18016280807E+01  0.41535813524E+02  0.31165952519E+03  0.32371149086E+03  0.77000000000E+02 0.  0.
   -5000001    1    1    2    0    0  0.18016280807E+01 -0.41535813524E+02  0.17915717266E+03  0.19938596286E+03  0.77000000000E+02 0.  0.
<mgrwt>
<rscale>  0 0.18091411E+03</rscale>
<asrwt>0</asrwt>
<pdfrwt beam="1">  1        2 0.77993407E-01 0.18091411E+03</pdfrwt>
<pdfrwt beam="2">  1       -2 0.24831347E-02 0.18091411E+03</pdfrwt>
<totfact> 0.32992585E+04</totfact>
</mgrwt>
</event>
<event>
 4    1  0.4991066E-004  0.2375546E+03  0.7818608E-02  0.1121433E+00
         -2   -1    0    0    0  501 -0.00000000000E+00  0.00000000000E+00  0.23206722543E+02  0.23206722683E+02  0.25500000000E-02 0. -1.
          2   -1    0    0  501    0  0.00000000000E+00 -0.00000000000E+00 -0.60792912504E+03  0.60792912505E+03  0.25500000000E-02 0.  1.
    5000001    1    1    2    0    0  0.53508243319E+02 -0.32548129216E+02 -0.11902578459E+03  0.15497951547E+03  0.77000000000E+02 0.  0.
   -5000001    1    1    2    0    0 -0.53508243319E+02  0.32548129216E+02 -0.46569661791E+03  0.47615633226E+03  0.77000000000E+02 0.  0.
<mgrwt>
<rscale>  0 0.23755456E+03</rscale>
<asrwt>0</asrwt>
<pdfrwt beam="1">  1        2 0.93527546E-01 0.23755456E+03</pdfrwt>
<pdfrwt beam="2">  1       -2 0.35702655E-02 0.23755456E+03</pdfrwt>
<totfact> 0.15982429E+04</totfact>
</mgrwt>
</event>
<event>
 4    1  0.4991066E-004  0.3314246E+03  0.7818608E-02  0.1070508E+00
         -2   -1    0    0    0  501 -0.00000000000E+00  0.00000000000E+00  0.61694920693E+01  0.61694925963E+01  0.25500000000E-02 0. -1.
          2   -1    0    0  501    0  0.00000000000E+00 -0.00000000000E+00 -0.44510252635E+04  0.44510252635E+04  0.25500000000E-02 0.  1.
    5000001    1    1    2    0    0  0.96485339638E+02  0.21645389493E+02 -0.76441036855E+03  0.77461613410E+03  0.77000000000E+02 0.  0.
   -5000001    1    1    2    0    0 -0.96485339638E+02 -0.21645389493E+02 -0.36804454028E+04  0.36825786220E+04  0.77000000000E+02 0.  0.
<mgrwt>
<rscale>  0 0.33142460E+03</rscale>
<asrwt>0</asrwt>
<pdfrwt beam="1">  1        2 0.68477055E+00 0.33142460E+03</pdfrwt>
<pdfrwt beam="2">  1       -2 0.94915623E-03 0.33142460E+03</pdfrwt>
<totfact> 0.42593761E+02</totfact>
</mgrwt>
</event>
<event>
 4    1  0.4991066E-004  0.3356758E+03  0.7818608E-02  0.1068653E+00
         -2   -1    0    0    0  501 -0.00000000000E+00  0.00000000000E+00  0.30702360388E+02  0.30702360493E+02  0.25500000000E-02 0. -1.
          2   -1    0    0  501    0  0.00000000000E+00 -0.00000000000E+00 -0.91750447306E+03  0.91750447307E+03  0.25500000000E-02 0.  1.
    5000001    1    1    2    0    0  0.11788892964E+03 -0.22575689482E+01 -0.18546912412E+03  0.23287484267E+03  0.77000000000E+02 0.  0.
   -5000001    1    1    2    0    0 -0.11788892964E+03  0.22575689482E+01 -0.70133298856E+03  0.71533199089E+03  0.77000000000E+02 0.  0.
<mgrwt>
<rscale>  0 0.33567575E+03</rscale>
<asrwt>0</asrwt>
<pdfrwt beam="1">  1        2 0.14115451E+00 0.33567575E+03</pdfrwt>
<pdfrwt beam="2">  1       -2 0.47234408E-02 0.33567575E+03</pdfrwt>
<totfact> 0.63432662E+03</totfact>
</mgrwt>
</event>
<event>
 4    1  0.4991066E-004  0.2678916E+03  0.7818608E-02  0.1102492E+00
         -2   -1    0    0    0  501 -0.00000000000E+00  0.00000000000E+00  0.23826579627E+02  0.23826579763E+02  0.25500000000E-02 0. -1.
          2   -1    0    0  501    0  0.00000000000E+00 -0.00000000000E+00 -0.75300286012E+03  0.75300286012E+03  0.25500000000E-02 0.  1.
    5000001    1    1    2    0    0 -0.44603331927E+02  0.57110527212E+02 -0.12614477012E+03  0.16459821556E+03  0.77000000000E+02 0.  0.
   -5000001    1    1    2    0    0  0.44603331927E+02 -0.57110527212E+02 -0.60303151037E+03  0.61223122432E+03  0.77000000000E+02 0.  0.
<mgrwt>
<rscale>  0 0.26789164E+03</rscale>
<asrwt>0</asrwt>
<pdfrwt beam="1">  1        2 0.11584658E+00 0.26789164E+03</pdfrwt>
<pdfrwt beam="2">  1       -2 0.36656282E-02 0.26789164E+03</pdfrwt>
<totfact> 0.11951331E+04</totfact>
</mgrwt>
</event>
<event>
 4    1  0.4991066E-004  0.2674646E+03  0.7818608E-02  0.1102740E+00
         -2   -1    0    0    0  501 -0.00000000000E+00  0.00000000000E+00  0.96733188616E+02  0.96733188650E+02  0.25500000000E-02 0. -1.
          2   -1    0    0  501    0  0.00000000000E+00 -0.00000000000E+00 -0.18488302823E+03  0.18488302825E+03  0.25500000000E-02 0.  1.
    5000001    1    1    2    0    0  0.57452754324E+02  0.89775123266E+02 -0.69756719848E+02  0.14884687333E+03  0.77000000000E+02 0.  0.
   -5000001    1    1    2    0    0 -0.57452754324E+02 -0.89775123266E+02 -0.18393119768E+02  0.13276934357E+03  0.77000000000E+02 0.  0.
<mgrwt>
<rscale>  0 0.26746458E+03</rscale>
<asrwt>0</asrwt>
<pdfrwt beam="1">  1        2 0.28443543E-01 0.26746458E+03</pdfrwt>
<pdfrwt beam="2">  1       -2 0.14882029E-01 0.26746458E+03</pdfrwt>
<totfact> 0.63946538E+03</totfact>
</mgrwt>
</event>
<event>
 4    1  0.4991066E-004  0.1913262E+03  0.7818608E-02  0.1157271E+00
          2   -1    0    0  501    0  0.00000000000E+00  0.00000000000E+00  0.11344904978E+04  0.11344904979E+04  0.25500000000E-02 0.  1.
         -2   -1    0    0    0  501 -0.00000000000E+00 -0.00000000000E+00 -0.80665524946E+01  0.80665528977E+01  0.25500000000E-02 0. -1.
    5000001    1    1    2    0    0  0.54303730283E+00 -0.46384429394E+02  0.36781375874E+03  0.37863936840E+03  0.77000000000E+02 0.  0.
   -5000001    1    1    2    0    0 -0.54303730283E+00  0.46384429394E+02  0.75861018661E+03  0.76391768235E+03  0.77000000000E+02 0.  0.
<mgrwt>
<rscale>  0 0.19132619E+03</rscale>
<asrwt>0</asrwt>
<pdfrwt beam="1">  1        2 0.17453690E+00 0.19132619E+03</pdfrwt>
<pdfrwt beam="2">  1       -2 0.12410088E-02 0.19132619E+03</pdfrwt>
<totfact> 0.33088898E+04</totfact>
</mgrwt>
</event>
<event>
 4    1  0.4991066E-004  0.1642920E+03  0.7818608E-02  0.1183935E+00
          2   -1    0    0  501    0  0.00000000000E+00  0.00000000000E+00  0.11326325817E+04  0.11326325817E+04  0.25500000000E-02 0.  1.
         -2   -1    0    0    0  501 -0.00000000000E+00 -0.00000000000E+00 -0.59577726975E+01  0.59577732432E+01  0.25500000000E-02 0. -1.
    5000001    1    1    2    0    0 -0.28808164545E+01 -0.28030508653E+02  0.52871422878E+03  0.53503433930E+03  0.77000000000E+02 0.  0.
   -5000001    1    1    2    0    0  0.28808164545E+01  0.28030508653E+02  0.59796058019E+03  0.60355601561E+03  0.77000000000E+02 0.  0.
<mgrwt>
<rscale>  0 0.16429203E+03</rscale>
<asrwt>0</asrwt>
<pdfrwt beam="1">  1        2 0.17425123E+00 0.16429203E+03</pdfrwt>
<pdfrwt beam="2">  1       -2 0.91658013E-03 0.16429203E+03</pdfrwt>
<totfact> 0.50722505E+04</totfact>
</mgrwt>
</event>
<event>
 4    1  0.4991066E-004  0.2072423E+03  0.7818608E-02  0.1143769E+00
         -2   -1    0    0    0  501 -0.00000000000E+00  0.00000000000E+00  0.10687624755E+03  0.10687624758E+03  0.25500000000E-02 0. -1.
          2   -1    0    0  501    0  0.00000000000E+00 -0.00000000000E+00 -0.10046515321E+03  0.10046515325E+03  0.25500000000E-02 0.  1.
    5000001    1    1    2    0    0 -0.62877952418E+02  0.87733256745E+01 -0.24695612817E+02  0.10280798333E+03  0.77000000000E+02 0.  0.
   -5000001    1    1    2    0    0  0.62877952418E+02 -0.87733256745E+01  0.31106707150E+02  0.10453341750E+03  0.77000000000E+02 0.  0.
<mgrwt>
<rscale>  0 0.20724226E+03</rscale>
<asrwt>0</asrwt>
<pdfrwt beam="1">  1        2 0.15456178E-01 0.20724226E+03</pdfrwt>
<pdfrwt beam="2">  1       -2 0.16442500E-01 0.20724226E+03</pdfrwt>
<totfact> 0.10707746E+04</totfact>
</mgrwt>
</event>
<event>
 4    1  0.4991066E-004  0.1701674E+03  0.7818608E-02  0.1177673E+00
         -2   -1    0    0    0  501 -0.00000000000E+00  0.00000000000E+00  0.69799464829E+01  0.69799469487E+01  0.25500000000E-02 0. -1.
          2   -1    0    0  501    0  0.00000000000E+00 -0.00000000000E+00 -0.10371474795E+04  0.10371474795E+04  0.25500000000E-02 0.  1.
    5000001    1    1    2    0    0 -0.11655676792E+02 -0.30051991713E+02 -0.41402644460E+03  0.42235751898E+03  0.77000000000E+02 0.  0.
   -5000001    1    1    2    0    0  0.11655676792E+02  0.30051991713E+02 -0.61614108846E+03  0.62176990752E+03  0.77000000000E+02 0.  0.
<mgrwt>
<rscale>  0 0.17016738E+03</rscale>
<asrwt>0</asrwt>
<pdfrwt beam="1">  1        2 0.15956103E+00 0.17016738E+03</pdfrwt>
<pdfrwt beam="2">  1       -2 0.10738388E-02 0.17016738E+03</pdfrwt>
<totfact> 0.46041052E+04</totfact>
</mgrwt>
</event>
<event>
 4    1  0.4991066E-004  0.1751408E+03  0.7818608E-02  0.1172590E+00
         -2   -1    0    0    0  501 -0.00000000000E+00  0.00000000000E+00  0.11914239406E+03  0.11914239409E+03  0.25500000000E-02 0. -1.
          2   -1    0    0  501    0  0.00000000000E+00 -0.00000000000E+00 -0.64364790536E+02  0.64364790587E+02  0.25500000000E-02 0.  1.
    5000001    1    1    2    0    0  0.34948382654E+02  0.19602627018E+02  0.39514116202E+02  0.95373045539E+02  0.77000000000E+02 0.  0.
   -5000001    1    1    2    0    0 -0.34948382654E+02 -0.19602627018E+02  0.15263487323E+02  0.88134139137E+02  0.77000000000E+02 0.  0.
<mgrwt>
<rscale>  0 0.17514080E+03</rscale>
<asrwt>0</asrwt>
<pdfrwt beam="1">  1        2 0.99022756E-02 0.17514080E+03</pdfrwt>
<pdfrwt beam="2">  1       -2 0.18329599E-01 0.17514080E+03</pdfrwt>
<totfact> 0.15088255E+04</totfact>
</mgrwt>
</event>
<event>
 4    1  0.4991066E-004  0.1796419E+03  0.7818608E-02  0.1168150E+00
         -2   -1    0    0    0  501 -0.00000000000E+00  0.00000000000E+00  0.28834510164E+02  0.28834510276E+02  0.25500000000E-02 0. -1.
          2   -1    0    0  501    0  0.00000000000E+00 -0.00000000000E+00 -0.27979675163E+03  0.27979675165E+03  0.25500000000E-02 0.  1.
    5000001    1    1    2    0    0 -0.44830870171E+02 -0.17927698710E+01 -0.14474928889E+03  0.16998346266E+03  0.77000000000E+02 0.  0.
   -5000001    1    1    2    0    0  0.44830870171E+02  0.17927698710E+01 -0.10621295258E+03  0.13864779926E+03  0.77000000000E+02 0.  0.
<mgrwt>
<rscale>  0 0.17964189E+03</rscale>
<asrwt>0</asrwt>
<pdfrwt beam="1">  1        2 0.43045652E-01 0.17964189E+03</pdfrwt>
<pdfrwt beam="2">  1       -2 0.44360787E-02 0.17964189E+03</pdfrwt>
<totfact> 0.26462257E+04</totfact>
</mgrwt>
</event>
<event>
 4    1  0.4991066E-004  0.1721668E+03  0.7818608E-02  0.1175607E+00
         -2   -1    0    0    0  501 -0.00000000000E+00  0.00000000000E+00  0.67537662210E+02  0.67537662258E+02  0.25500000000E-02 0. -1.
          2   -1    0    0  501    0  0.00000000000E+00 -0.00000000000E+00 -0.10972181915E+03  0.10972181918E+03  0.25500000000E-02 0.  1.
    5000001    1    1    2    0    0  0.23794254962E+02 -0.15223835234E+02  0.58235733280E+01  0.82224362173E+02  0.77000000000E+02 0.  0.
   -5000001    1    1    2    0    0 -0.23794254962E+02  0.15223835234E+02 -0.48007730269E+02  0.95035119267E+02  0.77000000000E+02 0.  0.
<mgrwt>
<rscale>  0 0.17216684E+03</rscale>
<asrwt>0</asrwt>
<pdfrwt beam="1">  1        2 0.16880280E-01 0.17216684E+03</pdfrwt>
<pdfrwt beam="2">  1       -2 0.10390410E-01 0.17216684E+03</pdfrwt>
<totfact> 0.20042522E+04</totfact>
</mgrwt>
</event>
<event>
 4    1  0.4991066E-004  0.2117036E+03  0.7818608E-02  0.1140224E+00
          2   -1    0    0  501    0  0.00000000000E+00  0.00000000000E+00  0.91075116300E+03  0.91075116300E+03  0.25500000000E-02 0.  1.
         -2   -1    0    0    0  501 -0.00000000000E+00 -0.00000000000E+00 -0.12302591005E+02  0.12302591269E+02  0.25500000000E-02 0. -1.
    5000001    1    1    2    0    0 -0.19483407900E+02 -0.51437961698E+02  0.65604919523E+03  0.66283860302E+03  0.77000000000E+02 0.  0.
   -5000001    1    1    2    0    0  0.19483407900E+02  0.51437961698E+02  0.24239937676E+03  0.26021515125E+03  0.77000000000E+02 0.  0.
<mgrwt>
<rscale>  0 0.21170356E+03</rscale>
<asrwt>0</asrwt>
<pdfrwt beam="1">  1        2 0.14011561E+00 0.21170356E+03</pdfrwt>
<pdfrwt beam="2">  1       -2 0.18927057E-02 0.21170356E+03</pdfrwt>
<totfact> 0.24582447E+04</totfact>
</mgrwt>
</event>
<event>
 4    1  0.4991066E-004  0.2202699E+03  0.7818608E-02  0.1133682E+00
         -2   -1    0    0    0  501 -0.00000000000E+00  0.00000000000E+00  0.18899313951E+02  0.18899314123E+02  0.25500000000E-02 0. -1.
          2   -1    0    0  501    0  0.00000000000E+00 -0.00000000000E+00 -0.64180680929E+03  0.64180680930E+03  0.25500000000E-02 0.  1.
    5000001    1    1    2    0    0 -0.64249990276E+02  0.37114373713E+02 -0.23236789366E+03  0.25579166521E+03  0.77000000000E+02 0.  0.
   -5000001    1    1    2    0    0  0.64249990276E+02 -0.37114373713E+02 -0.39053960168E+03  0.40491445821E+03  0.77000000000E+02 0.  0.
<mgrwt>
<rscale>  0 0.22026991E+03</rscale>
<asrwt>0</asrwt>
<pdfrwt beam="1">  1        2 0.98739492E-01 0.22026991E+03</pdfrwt>
<pdfrwt beam="2">  1       -2 0.29075873E-02 0.22026991E+03</pdfrwt>
<totfact> 0.20271202E+04</totfact>
</mgrwt>
</event>
<event>
 4    1  0.4991066E-004  0.2036810E+03  0.7818608E-02  0.1146670E+00
          2   -1    0    0  501    0  0.00000000000E+00  0.00000000000E+00  0.19872411618E+03  0.19872411620E+03  0.25500000000E-02 0.  1.
         -2   -1    0    0    0  501 -0.00000000000E+00 -0.00000000000E+00 -0.52190368314E+02  0.52190368377E+02  0.25500000000E-02 0. -1.
    5000001    1    1    2    0    0 -0.16428641015E+02  0.63332302659E+02  0.57606528059E+02  0.11631161972E+03  0.77000000000E+02 0.  0.
   -5000001    1    1    2    0    0  0.16428641015E+02 -0.63332302659E+02  0.88927219810E+02  0.13460286486E+03  0.77000000000E+02 0.  0.
<mgrwt>
<rscale>  0 0.20368097E+03</rscale>
<asrwt>0</asrwt>
<pdfrwt beam="1">  1        2 0.30572941E-01 0.20368097E+03</pdfrwt>
<pdfrwt beam="2">  1       -2 0.80292874E-02 0.20368097E+03</pdfrwt>
<totfact> 0.15620427E+04</totfact>
</mgrwt>
</event>
<event>
 4    1  0.4991066E-004  0.2373993E+03  0.7818608E-02  0.1121538E+00
         -2   -1    0    0    0  501 -0.00000000000E+00  0.00000000000E+00  0.41748881476E+02  0.41748881554E+02  0.25500000000E-02 0. -1.
          2   -1    0    0  501    0  0.00000000000E+00 -0.00000000000E+00 -0.33748477902E+03  0.33748477903E+03  0.25500000000E-02 0.  1.
    5000001    1    1    2    0    0  0.52413110044E+02  0.61511325760E+02 -0.83376942712E+02  0.13932513010E+03  0.77000000000E+02 0.  0.
   -5000001    1    1    2    0    0 -0.52413110044E+02 -0.61511325760E+02 -0.21235895484E+03  0.23990853049E+03  0.77000000000E+02 0.  0.
<mgrwt>
<rscale>  0 0.23739934E+03</rscale>
<asrwt>0</asrwt>
<pdfrwt beam="1">  1        2 0.51920733E-01 0.23739934E+03</pdfrwt>
<pdfrwt beam="2">  1       -2 0.64229051E-02 0.23739934E+03</pdfrwt>
<totfact> 0.12588849E+04</totfact>
</mgrwt>
</event>
<event>
 4    1  0.4991066E-004  0.1909002E+03  0.7818608E-02  0.1157652E+00
          2   -1    0    0  501    0  0.00000000000E+00  0.00000000000E+00  0.80834428863E+03  0.80834428864E+03  0.25500000000E-02 0.  1.
         -2   -1    0    0    0  501 -0.00000000000E+00 -0.00000000000E+00 -0.11270839556E+02  0.11270839845E+02  0.25500000000E-02 0. -1.
    5000001    1    1    2    0    0  0.93553648944E+01 -0.51878995960E+02  0.48470153867E+03  0.49360260804E+03  0.77000000000E+02 0.  0.
   -5000001    1    1    2    0    0 -0.93553648944E+01  0.51878995960E+02  0.31237191040E+03  0.32601252044E+03  0.77000000000E+02 0.  0.
<mgrwt>
<rscale>  0 0.19090017E+03</rscale>
<asrwt>0</asrwt>
<pdfrwt beam="1">  1        2 0.12436068E+00 0.19090017E+03</pdfrwt>
<pdfrwt beam="2">  1       -2 0.17339750E-02 0.19090017E+03</pdfrwt>
<totfact> 0.32383974E+04</totfact>
</mgrwt>
</event>
<event>
 4    1  0.4991066E-004  0.2067106E+03  0.7818608E-02  0.1144198E+00
         -2   -1    0    0    0  501 -0.00000000000E+00  0.00000000000E+00  0.57704336815E+01  0.57704342450E+01  0.25500000000E-02 0. -1.
          2   -1    0    0  501    0  0.00000000000E+00 -0.00000000000E+00 -0.18512153190E+04  0.18512153190E+04  0.25500000000E-02 0.  1.
    5000001    1    1    2    0    0  0.51868604311E+02 -0.21005198369E+02 -0.56094857551E+03  0.56896737590E+03  0.77000000000E+02 0.  0.
   -5000001    1    1    2    0    0 -0.51868604311E+02  0.21005198369E+02 -0.12844963098E+04  0.12880183774E+04  0.77000000000E+02 0.  0.
<mgrwt>
<rscale>  0 0.20671058E+03</rscale>
<asrwt>0</asrwt>
<pdfrwt beam="1">  1        2 0.28480188E+00 0.20671058E+03</pdfrwt>
<pdfrwt beam="2">  1       -2 0.88776055E-03 0.20671058E+03</pdfrwt>
<totfact> 0.22288065E+04</totfact>
</mgrwt>
</event>
<event>
 4    1  0.4991066E-004  0.2848798E+03  0.7818608E-02  0.1093053E+00
         -2   -1    0    0    0  501 -0.00000000000E+00  0.00000000000E+00  0.27414039776E+02  0.27414039895E+02  0.25500000000E-02 0. -1.
          2   -1    0    0  501    0  0.00000000000E+00 -0.00000000000E+00 -0.74009963944E+03  0.74009963944E+03  0.25500000000E-02 0.  1.
    5000001    1    1    2    0    0  0.29870956245E+02  0.87174565454E+02 -0.14995409518E+03  0.19211171112E+03  0.77000000000E+02 0.  0.
   -5000001    1    1    2    0    0 -0.29870956245E+02 -0.87174565454E+02 -0.56273150448E+03  0.57540196821E+03  0.77000000000E+02 0.  0.
<mgrwt>
<rscale>  0 0.28487977E+03</rscale>
<asrwt>0</asrwt>
<pdfrwt beam="1">  1        2 0.11386147E+00 0.28487977E+03</pdfrwt>
<pdfrwt beam="2">  1       -2 0.42175452E-02 0.28487977E+03</pdfrwt>
<totfact> 0.99104891E+03</totfact>
</mgrwt>
</event>
<event>
 4    1  0.4991066E-004  0.2977220E+03  0.7818608E-02  0.1086385E+00
         -2   -1    0    0    0  501 -0.00000000000E+00  0.00000000000E+00  0.78267126387E+01  0.78267130541E+01  0.25500000000E-02 0. -1.
          2   -1    0    0  501    0  0.00000000000E+00 -0.00000000000E+00 -0.28312779776E+04  0.28312779776E+04  0.25500000000E-02 0.  1.
    5000001    1    1    2    0    0 -0.10481768096E+03  0.61081492708E+02 -0.17826422120E+04  0.17884238734E+04  0.77000000000E+02 0.  0.
   -5000001    1    1    2    0    0  0.10481768096E+03 -0.61081492708E+02 -0.10408090530E+04  0.10506808173E+04  0.77000000000E+02 0.  0.
<mgrwt>
<rscale>  0 0.29772202E+03</rscale>
<asrwt>0</asrwt>
<pdfrwt beam="1">  1        2 0.43558041E+00 0.29772202E+03</pdfrwt>
<pdfrwt beam="2">  1       -2 0.12041119E-02 0.29772202E+03</pdfrwt>
<totfact> 0.42470814E+03</totfact>
</mgrwt>
</event>
<event>
 4    1  0.4991066E-004  0.1940354E+03  0.7818608E-02  0.1154871E+00
          2   -1    0    0  501    0  0.00000000000E+00  0.00000000000E+00  0.31949182275E+04  0.31949182275E+04  0.25500000000E-02 0.  1.
         -2   -1    0    0    0  501 -0.00000000000E+00 -0.00000000000E+00 -0.29460641593E+01  0.29460652629E+01  0.25500000000E-02 0. -1.
    5000001    1    1    2    0    0  0.14232133459E+02  0.51892916845E+02  0.19956274320E+04  0.19978371494E+04  0.77000000000E+02 0.  0.
   -5000001    1    1    2    0    0 -0.14232133459E+02 -0.51892916845E+02  0.11963447314E+04  0.12000271433E+04  0.77000000000E+02 0.  0.
<mgrwt>
<rscale>  0 0.19403542E+03</rscale>
<asrwt>0</asrwt>
<pdfrwt beam="1">  1        2 0.49152321E+00 0.19403542E+03</pdfrwt>
<pdfrwt beam="2">  1       -2 0.45324319E-03 0.19403542E+03</pdfrwt>
<totfact> 0.10624442E+04</totfact>
</mgrwt>
</event>
<event>
 4    1  0.4991066E-004  0.1961626E+03  0.7818608E-02  0.1153018E+00
         -2   -1    0    0    0  501 -0.00000000000E+00  0.00000000000E+00  0.44428346691E+01  0.44428354009E+01  0.25500000000E-02 0. -1.
          2   -1    0    0  501    0  0.00000000000E+00 -0.00000000000E+00 -0.21652698030E+04  0.21652698030E+04  0.25500000000E-02 0.  1.
    5000001    1    1    2    0    0  0.41670715650E+02 -0.44092027677E+02 -0.11160510262E+04  0.11203479140E+04  0.77000000000E+02 0.  0.
   -5000001    1    1    2    0    0 -0.41670715650E+02  0.44092027677E+02 -0.10447759422E+04  0.10493647244E+04  0.77000000000E+02 0.  0.
<mgrwt>
<rscale>  0 0.19616255E+03</rscale>
<asrwt>0</asrwt>
<pdfrwt beam="1">  1        2 0.33311759E+00 0.19616255E+03</pdfrwt>
<pdfrwt beam="2">  1       -2 0.68351481E-03 0.19616255E+03</pdfrwt>
<totfact> 0.22222780E+04</totfact>
</mgrwt>
</event>
<event>
 4    1  0.4991066E-004  0.2774969E+03  0.7818608E-02  0.1097064E+00
         -2   -1    0    0    0  501 -0.00000000000E+00  0.00000000000E+00  0.29877306055E+02  0.29877306164E+02  0.25500000000E-02 0. -1.
          2   -1    0    0  501    0  0.00000000000E+00 -0.00000000000E+00 -0.64433972972E+03  0.64433972972E+03  0.25500000000E-02 0.  1.
    5000001    1    1    2    0    0  0.74370630079E+02  0.87282459799E+02 -0.33918043645E+03  0.36622614172E+03  0.77000000000E+02 0.  0.
   -5000001    1    1    2    0    0 -0.74370630079E+02 -0.87282459799E+02 -0.27528198721E+03  0.30799089417E+03  0.77000000000E+02 0.  0.
<mgrwt>
<rscale>  0 0.27749692E+03</rscale>
<asrwt>0</asrwt>
<pdfrwt beam="1">  1        2 0.99129179E-01 0.27749692E+03</pdfrwt>
<pdfrwt beam="2">  1       -2 0.45965091E-02 0.27749692E+03</pdfrwt>
<totfact> 0.10280924E+04</totfact>
</mgrwt>
</event>
<event>
 4    1  0.4991066E-004  0.2361424E+03  0.7818608E-02  0.1122390E+00
         -2   -1    0    0    0  501 -0.00000000000E+00  0.00000000000E+00  0.64391795558E+01  0.64391800607E+01  0.25500000000E-02 0. -1.
          2   -1    0    0  501    0  0.00000000000E+00 -0.00000000000E+00 -0.21649973990E+04  0.21649973990E+04  0.25500000000E-02 0.  1.
    5000001    1    1    2    0    0 -0.54773466646E+02 -0.44549776368E+02 -0.15851956139E+04  0.15886343033E+04  0.77000000000E+02 0.  0.
   -5000001    1    1    2    0    0  0.54773466646E+02  0.44549776368E+02 -0.57336260553E+03  0.58280227577E+03  0.77000000000E+02 0.  0.
<mgrwt>
<rscale>  0 0.23614239E+03</rscale>
<asrwt>0</asrwt>
<pdfrwt beam="1">  1        2 0.33307594E+00 0.23614239E+03</pdfrwt>
<pdfrwt beam="2">  1       -2 0.99064477E-03 0.23614239E+03</pdfrwt>
<totfact> 0.13094172E+04</totfact>
</mgrwt>
</event>
<event>
 4    1  0.4991066E-004  0.3203971E+03  0.7818608E-02  0.1075467E+00
         -2   -1    0    0    0  501 -0.00000000000E+00  0.00000000000E+00  0.49060022589E+02  0.49060022656E+02  0.25500000000E-02 0. -1.
          2   -1    0    0  501    0  0.00000000000E+00 -0.00000000000E+00 -0.52310569717E+03  0.52310569717E+03  0.25500000000E-02 0.  1.
    5000001    1    1    2    0    0  0.10954689234E+03 -0.34236648489E+02 -0.92362891641E+02  0.16623048298E+03  0.77000000000E+02 0.  0.
   -5000001    1    1    2    0    0 -0.10954689234E+03  0.34236648489E+02 -0.38168278294E+03  0.40593523684E+03  0.77000000000E+02 0.  0.
<mgrwt>
<rscale>  0 0.32039711E+03</rscale>
<asrwt>0</asrwt>
<pdfrwt beam="1">  1        2 0.80477796E-01 0.32039711E+03</pdfrwt>
<pdfrwt beam="2">  1       -2 0.75476962E-02 0.32039711E+03</pdfrwt>
<totfact> 0.61335381E+03</totfact>
</mgrwt>
</event>
<event>
 4    1  0.4991066E-004  0.3159634E+03  0.7818608E-02  0.1077522E+00
         -2   -1    0    0    0  501 -0.00000000000E+00  0.00000000000E+00  0.60608977998E+02  0.60608978052E+02  0.25500000000E-02 0.  1.
          2   -1    0    0  501    0  0.00000000000E+00 -0.00000000000E+00 -0.41179074949E+03  0.41179074950E+03  0.25500000000E-02 0. -1.
    5000001    1    1    2    0    0  0.38539497744E+02  0.12231276841E+03 -0.99597119829E+02  0.17970612811E+03  0.77000000000E+02 0.  0.
   -5000001    1    1    2    0    0 -0.38539497744E+02 -0.12231276841E+03 -0.25158465166E+03  0.29269359944E+03  0.77000000000E+02 0.  0.
<mgrwt>
<rscale>  0 0.31596339E+03</rscale>
<asrwt>0</asrwt>
<pdfrwt beam="1">  1        2 0.63352421E-01 0.31596339E+03</pdfrwt>
<pdfrwt beam="2">  1       -2 0.93244585E-02 0.31596339E+03</pdfrwt>
<totfact> 0.57373694E+03</totfact>
</mgrwt>
</event>
<event>
 4    1  0.4991066E-004  0.2117525E+03  0.7818608E-02  0.1140186E+00
          2   -1    0    0  501    0  0.00000000000E+00  0.00000000000E+00  0.25075942764E+03  0.25075942765E+03  0.25500000000E-02 0.  1.
         -2   -1    0    0    0  501 -0.00000000000E+00 -0.00000000000E+00 -0.44703319737E+02  0.44703319810E+02  0.25500000000E-02 0. -1.
    5000001    1    1    2    0    0 -0.71008783116E+02 -0.15444335419E+02  0.10311747593E+03  0.14779373673E+03  0.77000000000E+02 0.  0.
   -5000001    1    1    2    0    0  0.71008783116E+02  0.15444335419E+02  0.10293863197E+03  0.14766901073E+03  0.77000000000E+02 0.  0.
<mgrwt>
<rscale>  0 0.21175249E+03</rscale>
<asrwt>0</asrwt>
<pdfrwt beam="1">  1        2 0.38578374E-01 0.21175249E+03</pdfrwt>
<pdfrwt beam="2">  1       -2 0.68774338E-02 0.21175249E+03</pdfrwt>
<totfact> 0.15474798E+04</totfact>
</mgrwt>
</event>
<event>
 4    1  0.4991066E-004  0.2992094E+03  0.7818608E-02  0.1085636E+00
          2   -1    0    0  501    0  0.00000000000E+00  0.00000000000E+00  0.71499196585E+03  0.71499196585E+03  0.25500000000E-02 0.  1.
         -2   -1    0    0    0  501 -0.00000000000E+00 -0.00000000000E+00 -0.31303242497E+02  0.31303242601E+02  0.25500000000E-02 0. -1.
    5000001    1    1    2    0    0  0.12659099953E+03 -0.20573376835E+02  0.33684225579E+03  0.36856512353E+03  0.77000000000E+02 0.  0.
   -5000001    1    1    2    0    0 -0.12659099953E+03  0.20573376835E+02  0.34684646756E+03  0.37773008493E+03  0.77000000000E+02 0.  0.
<mgrwt>
<rscale>  0 0.29920940E+03</rscale>
<asrwt>0</asrwt>
<pdfrwt beam="1">  1        2 0.10999877E+00 0.29920940E+03</pdfrwt>
<pdfrwt beam="2">  1       -2 0.48158832E-02 0.29920940E+03</pdfrwt>
<totfact> 0.84710097E+03</totfact>
</mgrwt>
</event>
<event>
 4    1  0.4991066E-004  0.1836743E+03  0.7818608E-02  0.1164294E+00
         -2   -1    0    0    0  501 -0.00000000000E+00  0.00000000000E+00  0.24112553919E+02  0.24112554054E+02  0.25500000000E-02 0. -1.
          2   -1    0    0  501    0  0.00000000000E+00 -0.00000000000E+00 -0.34977885893E+03  0.34977885894E+03  0.25500000000E-02 0.  1.
    5000001    1    1    2    0    0  0.41570386942E+02  0.14834191847E+02 -0.11479457629E+03  0.14510322210E+03  0.77000000000E+02 0.  0.
   -5000001    1    1    2    0    0 -0.41570386942E+02 -0.14834191847E+02 -0.21087172872E+03  0.22878819089E+03  0.77000000000E+02 0.  0.
<mgrwt>
<rscale>  0 0.18367429E+03</rscale>
<asrwt>0</asrwt>
<pdfrwt beam="1">  1        2 0.53812128E-01 0.18367429E+03</pdfrwt>
<pdfrwt beam="2">  1       -2 0.37096239E-02 0.18367429E+03</pdfrwt>
<totfact> 0.27294231E+04</totfact>
</mgrwt>
</event>
<event>
 4    1  0.4991066E-004  0.2031814E+03  0.7818608E-02  0.1147082E+00
         -2   -1    0    0    0  501 -0.00000000000E+00  0.00000000000E+00  0.15117310195E+03  0.15117310197E+03  0.25500000000E-02 0. -1.
          2   -1    0    0  501    0  0.00000000000E+00 -0.00000000000E+00 -0.68270547525E+02  0.68270547573E+02  0.25500000000E-02 0.  1.
    5000001    1    1    2    0    0 -0.63780524703E+02  0.12860272085E+02  0.27861302735E+02  0.10458773408E+03  0.77000000000E+02 0.  0.
   -5000001    1    1    2    0    0  0.63780524703E+02 -0.12860272085E+02  0.55041251686E+02  0.11485591546E+03  0.77000000000E+02 0.  0.
<mgrwt>
<rscale>  0 0.20318140E+03</rscale>
<asrwt>0</asrwt>
<pdfrwt beam="1">  1        2 0.10503161E-01 0.20318140E+03</pdfrwt>
<pdfrwt beam="2">  1       -2 0.23257400E-01 0.20318140E+03</pdfrwt>
<totfact> 0.94439066E+03</totfact>
</mgrwt>
</event>
<event>
 4    1  0.4991066E-004  0.3603974E+03  0.7818608E-02  0.1058427E+00
         -2   -1    0    0    0  501 -0.00000000000E+00  0.00000000000E+00  0.60057698846E+02  0.60057698900E+02  0.25500000000E-02 0. -1.
          2   -1    0    0  501    0  0.00000000000E+00 -0.00000000000E+00 -0.54067292940E+03  0.54067292941E+03  0.25500000000E-02 0.  1.
    5000001    1    1    2    0    0  0.18359169635E+02 -0.10213752857E+03 -0.30963235553E+02  0.13287910222E+03  0.77000000000E+02 0.  0.
   -5000001    1    1    2    0    0 -0.18359169635E+02  0.10213752857E+03 -0.44965199500E+03  0.46785152609E+03  0.77000000000E+02 0.  0.
<mgrwt>
<rscale>  0 0.36039740E+03</rscale>
<asrwt>0</asrwt>
<pdfrwt beam="1">  1        2 0.83180447E-01 0.36039740E+03</pdfrwt>
<pdfrwt beam="2">  1       -2 0.92396464E-02 0.36039740E+03</pdfrwt>
<totfact> 0.43058284E+03</totfact>
</mgrwt>
</event>
<event>
 4    1  0.4991066E-004  0.2806581E+03  0.7818608E-02  0.1095330E+00
          2   -1    0    0  501    0  0.00000000000E+00  0.00000000000E+00  0.20854367847E+04  0.20854367848E+04  0.25500000000E-02 0.  1.
         -2   -1    0    0    0  501 -0.00000000000E+00 -0.00000000000E+00 -0.94427418732E+01  0.94427422175E+01  0.25500000000E-02 0. -1.
    5000001    1    1    2    0    0  0.35774306460E+02  0.85015793641E+02  0.49687020917E+03  0.51119124693E+03  0.77000000000E+02 0.  0.
   -5000001    1    1    2    0    0 -0.35774306460E+02 -0.85015793641E+02  0.15791238337E+04  0.15836882800E+04  0.77000000000E+02 0.  0.
<mgrwt>
<rscale>  0 0.28065810E+03</rscale>
<asrwt>0</asrwt>
<pdfrwt beam="1">  1        2 0.32083703E+00 0.28065810E+03</pdfrwt>
<pdfrwt beam="2">  1       -2 0.14527268E-02 0.28065810E+03</pdfrwt>
<totfact> 0.82820621E+03</totfact>
</mgrwt>
</event>
<event>
 4    1  0.4991066E-004  0.5726301E+03  0.7818608E-02  0.9963875E-01
          2   -1    0    0  501    0  0.00000000000E+00  0.00000000000E+00  0.61179422475E+03  0.61179422476E+03  0.25500000000E-02 0.  1.
         -2   -1    0    0    0  501 -0.00000000000E+00 -0.00000000000E+00 -0.13399326338E+03  0.13399326341E+03  0.25500000000E-02 0. -1.
    5000001    1    1    2    0    0 -0.27269671482E+03 -0.25130825819E+02  0.19665308058E+03  0.34582725570E+03  0.77000000000E+02 0.  0.
   -5000001    1    1    2    0    0  0.27269671482E+03  0.25130825819E+02  0.28114788078E+03  0.39996023246E+03  0.77000000000E+02 0.  0.
<mgrwt>
<rscale>  0 0.57263009E+03</rscale>
<asrwt>0</asrwt>
<pdfrwt beam="1">  1        2 0.94122188E-01 0.57263009E+03</pdfrwt>
<pdfrwt beam="2">  1       -2 0.20614348E-01 0.57263009E+03</pdfrwt>
<totfact> 0.98366536E+02</totfact>
</mgrwt>
</event>
<event>
 4    1  0.4991066E-004  0.1830245E+03  0.7818608E-02  0.1164908E+00
         -2   -1    0    0    0  501 -0.00000000000E+00  0.00000000000E+00  0.13511073487E+02  0.13511073728E+02  0.25500000000E-02 0. -1.
          2   -1    0    0  501    0  0.00000000000E+00 -0.00000000000E+00 -0.61982456574E+03  0.61982456575E+03  0.25500000000E-02 0.  1.
    5000001    1    1    2    0    0  0.15213831078E+02  0.40133469863E+02 -0.21815939172E+03  0.23529699585E+03  0.77000000000E+02 0.  0.
   -5000001    1    1    2    0    0 -0.15213831078E+02 -0.40133469863E+02 -0.38815410053E+03  0.39803864363E+03  0.77000000000E+02 0.  0.
<mgrwt>
<rscale>  0 0.18302454E+03</rscale>
<asrwt>0</asrwt>
<pdfrwt beam="1">  1        2 0.95357604E-01 0.18302454E+03</pdfrwt>
<pdfrwt beam="2">  1       -2 0.20786272E-02 0.18302454E+03</pdfrwt>
<totfact> 0.34132253E+04</totfact>
</mgrwt>
</event>
<event>
 4    1  0.4991066E-004  0.3320492E+03  0.7818608E-02  0.1070234E+00
          2   -1    0    0  501    0  0.00000000000E+00  0.00000000000E+00  0.13681517677E+02  0.13681517914E+02  0.25500000000E-02 0.  1.
         -2   -1    0    0    0  501 -0.00000000000E+00 -0.00000000000E+00 -0.20147014917E+04  0.20147014917E+04  0.25500000000E-02 0. -1.
    5000001    1    1    2    0    0  0.56951119224E+02 -0.11830417111E+03 -0.14055237374E+04  0.14137415900E+04  0.77000000000E+02 0.  0.
   -5000001    1    1    2    0    0 -0.56951119224E+02  0.11830417111E+03 -0.59549623661E+03  0.61464141961E+03  0.77000000000E+02 0.  0.
<mgrwt>
<rscale>  0 0.33204924E+03</rscale>
<asrwt>0</asrwt>
<pdfrwt beam="1">  1        2 0.21048505E-02 0.33204924E+03</pdfrwt>
<pdfrwt beam="2">  1       -2 0.30995384E+00 0.33204924E+03</pdfrwt>
<totfact> 0.16259833E+02</totfact>
</mgrwt>
</event>
<event>
 4    1  0.4991066E-004  0.2054906E+03  0.7818608E-02  0.1145188E+00
         -2   -1    0    0    0  501 -0.00000000000E+00  0.00000000000E+00  0.49031955802E+01  0.49031962433E+01  0.25500000000E-02 0. -1.
          2   -1    0    0  501    0  0.00000000000E+00 -0.00000000000E+00 -0.21530023382E+04  0.21530023382E+04  0.25500000000E-02 0.  1.
    5000001    1    1    2    0    0  0.56903192862E+02 -0.18026364481E+02 -0.14166973198E+04  0.14200433864E+04  0.77000000000E+02 0.  0.
   -5000001    1    1    2    0    0 -0.56903192862E+02  0.18026364481E+02 -0.73140182283E+03  0.73786214811E+03  0.77000000000E+02 0.  0.
<mgrwt>
<rscale>  0 0.20549056E+03</rscale>
<asrwt>0</asrwt>
<pdfrwt beam="1">  1        2 0.33123037E+00 0.20549056E+03</pdfrwt>
<pdfrwt beam="2">  1       -2 0.75433955E-03 0.20549056E+03</pdfrwt>
<totfact> 0.19610651E+04</totfact>
</mgrwt>
</event>
<event>
 4    1  0.4991066E-004  0.2951153E+03  0.7818608E-02  0.1087708E+00
         -2   -1    0    0    0  501 -0.00000000000E+00  0.00000000000E+00  0.42302094825E+03  0.42302094826E+03  0.25500000000E-02 0. -1.
          2   -1    0    0  501    0  0.00000000000E+00 -0.00000000000E+00 -0.51470872593E+02  0.51470872656E+02  0.25500000000E-02 0.  1.
    5000001    1    1    2    0    0 -0.10179794285E+03 -0.32659265775E+02  0.29260497404E+03  0.32089892434E+03  0.77000000000E+02 0.  0.
   -5000001    1    1    2    0    0  0.10179794285E+03  0.32659265775E+02  0.78945101612E+02  0.15359289657E+03  0.77000000000E+02 0.  0.
<mgrwt>
<rscale>  0 0.29511528E+03</rscale>
<asrwt>0</asrwt>
<pdfrwt beam="1">  1        2 0.79185954E-02 0.29511528E+03</pdfrwt>
<pdfrwt beam="2">  1       -2 0.65080149E-01 0.29511528E+03</pdfrwt>
<totfact> 0.19213740E+03</totfact>
</mgrwt>
</event>
<event>
 4    1  0.4991066E-004  0.1868987E+03  0.7818608E-02  0.1161289E+00
          2   -1    0    0  501    0  0.00000000000E+00  0.00000000000E+00  0.27911705303E+03  0.27911705304E+03  0.25500000000E-02 0.  1.
         -2   -1    0    0    0  501 -0.00000000000E+00 -0.00000000000E+00 -0.31287158590E+02  0.31287158694E+02  0.25500000000E-02 0. -1.
    5000001    1    1    2    0    0  0.34778450814E+02  0.30295107345E+02  0.80719525327E+02  0.12071443965E+03  0.77000000000E+02 0.  0.
   -5000001    1    1    2    0    0 -0.34778450814E+02 -0.30295107345E+02  0.16711036911E+03  0.18968977209E+03  0.77000000000E+02 0.  0.
<mgrwt>
<rscale>  0 0.18689868E+03</rscale>
<asrwt>0</asrwt>
<pdfrwt beam="1">  1        2 0.42941086E-01 0.18689868E+03</pdfrwt>
<pdfrwt beam="2">  1       -2 0.48134090E-02 0.18689868E+03</pdfrwt>
<totfact> 0.23544115E+04</totfact>
</mgrwt>
</event>
<event>
 4    1  0.4991066E-004  0.2498085E+03  0.7818608E-02  0.1113426E+00
          2   -1    0    0  501    0  0.00000000000E+00  0.00000000000E+00  0.72745302133E+03  0.72745302133E+03  0.25500000000E-02 0.  1.
         -2   -1    0    0    0  501 -0.00000000000E+00 -0.00000000000E+00 -0.21446151357E+02  0.21446151508E+02  0.25500000000E-02 0. -1.
    5000001    1    1    2    0    0 -0.97909276877E+02 -0.81865907911E+01  0.33999765836E+03  0.36218870007E+03  0.77000000000E+02 0.  0.
   -5000001    1    1    2    0    0  0.97909276877E+02  0.81865907911E+01  0.36600921162E+03  0.38671047278E+03  0.77000000000E+02 0.  0.
<mgrwt>
<rscale>  0 0.24980847E+03</rscale>
<asrwt>0</asrwt>
<pdfrwt beam="1">  1        2 0.11191585E+00 0.24980847E+03</pdfrwt>
<pdfrwt beam="2">  1       -2 0.32994080E-02 0.24980847E+03</pdfrwt>
<totfact> 0.14553381E+04</totfact>
</mgrwt>
</event>
<event>
 4    1  0.4991066E-004  0.2174658E+03  0.7818608E-02  0.1135787E+00
          2   -1    0    0  501    0  0.00000000000E+00  0.00000000000E+00  0.23861941477E+04  0.23861941477E+04  0.25500000000E-02 0.  1.
         -2   -1    0    0    0  501 -0.00000000000E+00 -0.00000000000E+00 -0.49546840157E+01  0.49546846719E+01  0.25500000000E-02 0. -1.
    5000001    1    1    2    0    0 -0.23138420418E+02  0.52939854483E+02  0.17464999373E+04  0.17491509499E+04  0.77000000000E+02 0.  0.
   -5000001    1    1    2    0    0  0.23138420418E+02 -0.52939854483E+02  0.63473952636E+03  0.64199788241E+03  0.77000000000E+02 0.  0.
<mgrwt>
<rscale>  0 0.21746576E+03</rscale>
<asrwt>0</asrwt>
<pdfrwt beam="1">  1        2 0.36710630E+00 0.21746576E+03</pdfrwt>
<pdfrwt beam="2">  1       -2 0.76226014E-03 0.21746576E+03</pdfrwt>
<totfact> 0.14555053E+04</totfact>
</mgrwt>
</event>
<event>
 4    1  0.4991066E-004  0.4584683E+03  0.7818608E-02  0.1025226E+00
          2   -1    0    0  501    0  0.00000000000E+00  0.00000000000E+00  0.92132642219E+03  0.92132642219E+03  0.25500000000E-02 0.  1.
         -2   -1    0    0    0  501 -0.00000000000E+00 -0.00000000000E+00 -0.57035489168E+02  0.57035489225E+02  0.25500000000E-02 0. -1.
    5000001    1    1    2    0    0 -0.23345666921E+02 -0.21230285771E+03  0.49968783641E+03  0.54884830091E+03  0.77000000000E+02 0.  0.
   -5000001    1    1    2    0    0  0.23345666921E+02  0.21230285771E+03  0.36460309661E+03  0.42951361051E+03  0.77000000000E+02 0.  0.
<mgrwt>
<rscale>  0 0.45846833E+03</rscale>
<asrwt>0</asrwt>
<pdfrwt beam="1">  1        2 0.14174252E+00 0.45846833E+03</pdfrwt>
<pdfrwt beam="2">  1       -2 0.87746913E-02 0.45846833E+03</pdfrwt>
<totfact> 0.24115576E+03</totfact>
</mgrwt>
</event>
<event>
 4    1  0.4991066E-004  0.3709962E+03  0.7818608E-02  0.1054313E+00
         -2   -1    0    0    0  501 -0.00000000000E+00  0.00000000000E+00  0.90163416822E+02  0.90163416858E+02  0.25500000000E-02 0. -1.
          2   -1    0    0  501    0  0.00000000000E+00 -0.00000000000E+00 -0.38163532858E+03  0.38163532859E+03  0.25500000000E-02 0.  1.
    5000001    1    1    2    0    0 -0.13015854122E+03 -0.94237862294E+02 -0.80165580890E+02  0.19539073904E+03  0.77000000000E+02 0.  0.
   -5000001    1    1    2    0    0  0.13015854122E+03  0.94237862294E+02 -0.21130633087E+03  0.27640800641E+03  0.77000000000E+02 0.  0.
<mgrwt>
<rscale>  0 0.37099620E+03</rscale>
<asrwt>0</asrwt>
<pdfrwt beam="1">  1        2 0.58713127E-01 0.37099620E+03</pdfrwt>
<pdfrwt beam="2">  1       -2 0.13871295E-01 0.37099620E+03</pdfrwt>
<totfact> 0.32927410E+03</totfact>
</mgrwt>
</event>
<event>
 4    1  0.4991066E-004  0.2303530E+03  0.7818608E-02  0.1126392E+00
         -2   -1    0    0    0  501 -0.00000000000E+00  0.00000000000E+00  0.16957832723E+02  0.16957832915E+02  0.25500000000E-02 0. -1.
          2   -1    0    0  501    0  0.00000000000E+00 -0.00000000000E+00 -0.78227135707E+03  0.78227135707E+03  0.25500000000E-02 0.  1.
    5000001    1    1    2    0    0  0.79227670889E+02  0.31287434906E+02 -0.41382504065E+03  0.42946023295E+03  0.77000000000E+02 0.  0.
   -5000001    1    1    2    0    0 -0.79227670889E+02 -0.31287434906E+02 -0.35148848370E+03  0.36976895704E+03  0.77000000000E+02 0.  0.
<mgrwt>
<rscale>  0 0.23035301E+03</rscale>
<asrwt>0</asrwt>
<pdfrwt beam="1">  1        2 0.12034941E+00 0.23035301E+03</pdfrwt>
<pdfrwt beam="2">  1       -2 0.26088980E-02 0.23035301E+03</pdfrwt>
<totfact> 0.18767168E+04</totfact>
</mgrwt>
</event>
<event>
 4    1  0.4991066E-004  0.2011319E+03  0.7818608E-02  0.1148788E+00
          2   -1    0    0  501    0  0.00000000000E+00  0.00000000000E+00  0.17728433419E+04  0.17728433419E+04  0.25500000000E-02 0.  1.
         -2   -1    0    0    0  501 -0.00000000000E+00 -0.00000000000E+00 -0.57046839440E+01  0.57046845139E+01  0.25500000000E-02 0. -1.
    5000001    1    1    2    0    0 -0.20322073413E+01 -0.64583536516E+02  0.91060600367E+03  0.91613724790E+03  0.77000000000E+02 0.  0.
   -5000001    1    1    2    0    0  0.20322073413E+01  0.64583536516E+02  0.85653265430E+03  0.86241077854E+03  0.77000000000E+02 0.  0.
<mgrwt>
<rscale>  0 0.20113191E+03</rscale>
<asrwt>0</asrwt>
<pdfrwt beam="1">  1        2 0.27274500E+00 0.20113191E+03</pdfrwt>
<pdfrwt beam="2">  1       -2 0.87764416E-03 0.20113191E+03</pdfrwt>
<totfact> 0.24854753E+04</totfact>
</mgrwt>
</event>
<event>
 4    1  0.4991066E-004  0.1806304E+03  0.7818608E-02  0.1167194E+00
          2   -1    0    0  501    0  0.00000000000E+00  0.00000000000E+00  0.21688855796E+04  0.21688855796E+04  0.25500000000E-02 0.  1.
         -2   -1    0    0    0  501 -0.00000000000E+00 -0.00000000000E+00 -0.37608428265E+01  0.37608436910E+01  0.25500000000E-02 0. -1.
    5000001    1    1    2    0    0  0.45694584957E+02  0.11315771071E+02  0.10412497329E+04  0.10451536002E+04  0.77000000000E+02 0.  0.
   -5000001    1    1    2    0    0 -0.45694584957E+02 -0.11315771071E+02  0.11238750039E+04  0.11274928231E+04  0.77000000000E+02 0.  0.
<mgrwt>
<rscale>  0 0.18063044E+03</rscale>
<asrwt>0</asrwt>
<pdfrwt beam="1">  1        2 0.33367518E+00 0.18063044E+03</pdfrwt>
<pdfrwt beam="2">  1       -2 0.57859044E-03 0.18063044E+03</pdfrwt>
<totfact> 0.27989107E+04</totfact>
</mgrwt>
</event>
<event>
 4    1  0.4991066E-004  0.2147795E+03  0.7818608E-02  0.1137836E+00
         -2   -1    0    0    0  501 -0.00000000000E+00  0.00000000000E+00  0.42101516622E+02  0.42101516700E+02  0.25500000000E-02 0. -1.
          2   -1    0    0  501    0  0.00000000000E+00 -0.00000000000E+00 -0.27392265946E+03  0.27392265947E+03  0.25500000000E-02 0.  1.
    5000001    1    1    2    0    0  0.32899014695E+02  0.35524797707E+02 -0.31909820743E+02  0.96392909905E+02  0.77000000000E+02 0.  0.
   -5000001    1    1    2    0    0 -0.32899014695E+02 -0.35524797707E+02 -0.19991132209E+03  0.21963126626E+03  0.77000000000E+02 0.  0.
<mgrwt>
<rscale>  0 0.21477951E+03</rscale>
<asrwt>0</asrwt>
<pdfrwt beam="1">  1        2 0.42141947E-01 0.21477951E+03</pdfrwt>
<pdfrwt beam="2">  1       -2 0.64771566E-02 0.21477951E+03</pdfrwt>
<totfact> 0.15449592E+04</totfact>
</mgrwt>
</event>
<event>
 4    1  0.4991066E-004  0.1613436E+03  0.7818608E-02  0.1187188E+00
          2   -1    0    0  501    0  0.00000000000E+00  0.00000000000E+00  0.57699776693E+03  0.57699776693E+03  0.25500000000E-02 0.  1.
         -2   -1    0    0    0  501 -0.00000000000E+00 -0.00000000000E+00 -0.11278962282E+02  0.11278962570E+02  0.25500000000E-02 0. -1.
    5000001    1    1    2    0    0 -0.20815483361E+02 -0.36764377563E+01  0.24094725198E+03  0.25383336814E+03  0.77000000000E+02 0.  0.
   -5000001    1    1    2    0    0  0.20815483361E+02  0.36764377563E+01  0.32477155267E+03  0.33444336137E+03  0.77000000000E+02 0.  0.
<mgrwt>
<rscale>  0 0.16134356E+03</rscale>
<asrwt>0</asrwt>
<pdfrwt beam="1">  1        2 0.88768929E-01 0.16134356E+03</pdfrwt>
<pdfrwt beam="2">  1       -2 0.17352242E-02 0.16134356E+03</pdfrwt>
<totfact> 0.47651361E+04</totfact>
</mgrwt>
</event>
<event>
 4    1  0.4991066E-004  0.2754205E+03  0.7818608E-02  0.1098217E+00
         -2   -1    0    0    0  501 -0.00000000000E+00  0.00000000000E+00  0.37050893901E+02  0.37050893989E+02  0.25500000000E-02 0. -1.
          2   -1    0    0  501    0  0.00000000000E+00 -0.00000000000E+00 -0.51183943704E+03  0.51183943705E+03  0.25500000000E-02 0.  1.
    5000001    1    1    2    0    0  0.90583846950E+02  0.25652621268E+02 -0.36611297421E+03  0.38578646968E+03  0.77000000000E+02 0.  0.
   -5000001    1    1    2    0    0 -0.90583846950E+02 -0.25652621268E+02 -0.10867556893E+03  0.16310386136E+03  0.77000000000E+02 0.  0.
<mgrwt>
<rscale>  0 0.27542047E+03</rscale>
<asrwt>0</asrwt>
<pdfrwt beam="1">  1        2 0.78744524E-01 0.27542047E+03</pdfrwt>
<pdfrwt beam="2">  1       -2 0.57001379E-02 0.27542047E+03</pdfrwt>
<totfact> 0.96556280E+03</totfact>
</mgrwt>
</event>
<event>
 4    1  0.4991066E-004  0.1973302E+03  0.7818608E-02  0.1152011E+00
         -2   -1    0    0    0  501 -0.00000000000E+00  0.00000000000E+00  0.43017099698E+01  0.43017107256E+01  0.25500000000E-02 0. -1.
          2   -1    0    0  501    0  0.00000000000E+00 -0.00000000000E+00 -0.22630066569E+04  0.22630066569E+04  0.25500000000E-02 0.  1.
    5000001    1    1    2    0    0 -0.44707436578E+02 -0.41224316598E+02 -0.12485379168E+04  0.12523873717E+04  0.77000000000E+02 0.  0.
   -5000001    1    1    2    0    0  0.44707436578E+02  0.41224316598E+02 -0.10101670302E+04  0.10149209959E+04  0.77000000000E+02 0.  0.
<mgrwt>
<rscale>  0 0.19733017E+03</rscale>
<asrwt>0</asrwt>
<pdfrwt beam="1">  1        2 0.34815392E+00 0.19733017E+03</pdfrwt>
<pdfrwt beam="2">  1       -2 0.66180340E-03 0.19733017E+03</pdfrwt>
<totfact> 0.20680860E+04</totfact>
</mgrwt>
</event>
<event>
 4    1  0.4991066E-004  0.2222742E+03  0.7818608E-02  0.1132199E+00
         -2   -1    0    0    0  501 -0.00000000000E+00  0.00000000000E+00  0.45045869779E+01  0.45045876996E+01  0.25500000000E-02 0. -1.
          2   -1    0    0  501    0  0.00000000000E+00 -0.00000000000E+00 -0.27419727596E+04  0.27419727596E+04  0.25500000000E-02 0.  1.
    5000001    1    1    2    0    0  0.13975399628E+02  0.75836026865E+02 -0.10991407598E+04  0.11045296848E+04  0.77000000000E+02 0.  0.
   -5000001    1    1    2    0    0 -0.13975399628E+02 -0.75836026865E+02 -0.16383274128E+04  0.16419476625E+04  0.77000000000E+02 0.  0.
<mgrwt>
<rscale>  0 0.22227421E+03</rscale>
<asrwt>0</asrwt>
<pdfrwt beam="1">  1        2 0.42184063E+00 0.22227421E+03</pdfrwt>
<pdfrwt beam="2">  1       -2 0.69301563E-03 0.22227421E+03</pdfrwt>
<totfact> 0.10651699E+04</totfact>
</mgrwt>
</event>
<event>
 4    1  0.4991066E-004  0.3796410E+03  0.7818608E-02  0.1051067E+00
          2   -1    0    0  501    0  0.00000000000E+00  0.00000000000E+00  0.51541427406E+03  0.51541427406E+03  0.25500000000E-02 0.  1.
         -2   -1    0    0    0  501 -0.00000000000E+00 -0.00000000000E+00 -0.69908468684E+02  0.69908468731E+02  0.25500000000E-02 0. -1.
    5000001    1    1    2    0    0 -0.80964080479E+02 -0.12227229102E+03  0.36570777543E+03  0.40146839538E+03  0.77000000000E+02 0.  0.
   -5000001    1    1    2    0    0  0.80964080479E+02  0.12227229102E+03  0.79798029943E+02  0.18385434741E+03  0.77000000000E+02 0.  0.
<mgrwt>
<rscale>  0 0.37964100E+03</rscale>
<asrwt>0</asrwt>
<pdfrwt beam="1">  1        2 0.79294502E-01 0.37964100E+03</pdfrwt>
<pdfrwt beam="2">  1       -2 0.10755149E-01 0.37964100E+03</pdfrwt>
<totfact> 0.35691711E+03</totfact>
</mgrwt>
</event>
<event>
 4    1  0.4991066E-004  0.1971525E+03  0.7818608E-02  0.1152164E+00
          2   -1    0    0  501    0  0.00000000000E+00  0.00000000000E+00  0.22620289699E+03  0.22620289700E+03  0.25500000000E-02 0.  1.
         -2   -1    0    0    0  501 -0.00000000000E+00 -0.00000000000E+00 -0.42958212883E+02  0.42958212959E+02  0.25500000000E-02 0. -1.
    5000001    1    1    2    0    0  0.39244577618E+02 -0.43425514421E+02  0.11761078618E+03  0.15227346848E+03  0.77000000000E+02 0.  0.
   -5000001    1    1    2    0    0 -0.39244577618E+02  0.43425514421E+02  0.65633897918E+02  0.11688764148E+03  0.77000000000E+02 0.  0.
<mgrwt>
<rscale>  0 0.19715245E+03</rscale>
<asrwt>0</asrwt>
<pdfrwt beam="1">  1        2 0.34800445E-01 0.19715245E+03</pdfrwt>
<pdfrwt beam="2">  1       -2 0.66089559E-02 0.19715245E+03</pdfrwt>
<totfact> 0.18293867E+04</totfact>
</mgrwt>
</event>
<event>
 4    1  0.4991066E-004  0.5662514E+03  0.7818608E-02  0.9978008E-01
          2   -1    0    0  501    0  0.00000000000E+00  0.00000000000E+00  0.59034492858E+02  0.59034492913E+02  0.25500000000E-02 0.  1.
         -2   -1    0    0    0  501 -0.00000000000E+00 -0.00000000000E+00 -0.13578532074E+04  0.13578532074E+04  0.25500000000E-02 0. -1.
    5000001    1    1    2    0    0  0.61725982056E+02 -0.26014811441E+03 -0.51833398373E+03  0.58829096286E+03  0.77000000000E+02 0.  0.
   -5000001    1    1    2    0    0 -0.61725982056E+02  0.26014811441E+03 -0.78048473086E+03  0.82859673751E+03  0.77000000000E+02 0.  0.
<mgrwt>
<rscale>  0 0.56625145E+03</rscale>
<asrwt>0</asrwt>
<pdfrwt beam="1">  1        2 0.90822307E-02 0.56625145E+03</pdfrwt>
<pdfrwt beam="2">  1       -2 0.20890047E+00 0.56625145E+03</pdfrwt>
<totfact> 0.90074902E+01</totfact>
</mgrwt>
</event>
<event>
 4    1  0.4991066E-004  0.1910534E+03  0.7818608E-02  0.1157515E+00
         -2   -1    0    0    0  501 -0.00000000000E+00  0.00000000000E+00  0.18755670216E+02  0.18755670389E+02  0.25500000000E-02 0. -1.
          2   -1    0    0  501    0  0.00000000000E+00 -0.00000000000E+00 -0.48653840632E+03  0.48653840632E+03  0.25500000000E-02 0.  1.
    5000001    1    1    2    0    0 -0.41335150668E+02  0.38062083790E+02 -0.21736688874E+03  0.23734928107E+03  0.77000000000E+02 0.  0.
   -5000001    1    1    2    0    0  0.41335150668E+02 -0.38062083790E+02 -0.25041584736E+03  0.26794479564E+03  0.77000000000E+02 0.  0.
<mgrwt>
<rscale>  0 0.19105344E+03</rscale>
<asrwt>0</asrwt>
<pdfrwt beam="1">  1        2 0.74852053E-01 0.19105344E+03</pdfrwt>
<pdfrwt beam="2">  1       -2 0.28854881E-02 0.19105344E+03</pdfrwt>
<totfact> 0.27803333E+04</totfact>
</mgrwt>
</event>
<event>
 4    1  0.4991066E-004  0.2018077E+03  0.7818608E-02  0.1148223E+00
         -2   -1    0    0    0  501 -0.00000000000E+00  0.00000000000E+00  0.18207277932E+02  0.18207278111E+02  0.25500000000E-02 0. -1.
          2   -1    0    0  501    0  0.00000000000E+00 -0.00000000000E+00 -0.55920397620E+03  0.55920397620E+03  0.25500000000E-02 0.  1.
    5000001    1    1    2    0    0 -0.58176910752E+02  0.28520161904E+02 -0.29164599237E+03  0.30851959005E+03  0.77000000000E+02 0.  0.
   -5000001    1    1    2    0    0  0.58176910752E+02 -0.28520161904E+02 -0.24935070590E+03  0.26889166426E+03  0.77000000000E+02 0.  0.
<mgrwt>
<rscale>  0 0.20180765E+03</rscale>
<asrwt>0</asrwt>
<pdfrwt beam="1">  1        2 0.86031368E-01 0.20180765E+03</pdfrwt>
<pdfrwt beam="2">  1       -2 0.28011201E-02 0.20180765E+03</pdfrwt>
<totfact> 0.24964425E+04</totfact>
</mgrwt>
</event>
<event>
 4    1  0.4991066E-004  0.4325791E+03  0.7818608E-02  0.1033048E+00
         -2   -1    0    0    0  501 -0.00000000000E+00  0.00000000000E+00  0.23692246064E+02  0.23692246201E+02  0.25500000000E-02 0. -1.
          2   -1    0    0  501    0  0.00000000000E+00 -0.00000000000E+00 -0.19745348649E+04  0.19745348649E+04  0.25500000000E-02 0.  1.
    5000001    1    1    2    0    0 -0.18094090480E+03  0.41559541803E+02 -0.13445450736E+04  0.13594841895E+04  0.77000000000E+02 0.  0.
   -5000001    1    1    2    0    0  0.18094090480E+03 -0.41559541803E+02 -0.60629754526E+03  0.63874292163E+03  0.77000000000E+02 0.  0.
<mgrwt>
<rscale>  0 0.43257908E+03</rscale>
<asrwt>0</asrwt>
<pdfrwt beam="1">  1        2 0.30377447E+00 0.43257908E+03</pdfrwt>
<pdfrwt beam="2">  1       -2 0.36449625E-02 0.43257908E+03</pdfrwt>
<totfact> 0.24046237E+03</totfact>
</mgrwt>
</event>
<event>
 4    1  0.4991066E-004  0.2418114E+03  0.7818608E-02  0.1118592E+00
          2   -1    0    0  501    0  0.00000000000E+00  0.00000000000E+00  0.54888087076E+02  0.54888087136E+02  0.25500000000E-02 0.  1.
         -2   -1    0    0    0  501 -0.00000000000E+00 -0.00000000000E+00 -0.26632714469E+03  0.26632714471E+03  0.25500000000E-02 0. -1.
    5000001    1    1    2    0    0 -0.82032550929E+02  0.21785128658E+02 -0.15691364731E+03  0.19430600597E+03  0.77000000000E+02 0.  0.
   -5000001    1    1    2    0    0  0.82032550929E+02 -0.21785128658E+02 -0.54525410303E+02  0.12690922587E+03  0.77000000000E+02 0.  0.
<mgrwt>
<rscale>  0 0.24181139E+03</rscale>
<asrwt>0</asrwt>
<pdfrwt beam="1">  1        2 0.84443212E-02 0.24181139E+03</pdfrwt>
<pdfrwt beam="2">  1       -2 0.40973406E-01 0.24181139E+03</pdfrwt>
<totfact> 0.44585370E+03</totfact>
</mgrwt>
</event>
<event>
 4    1  0.4991066E-004  0.2968872E+03  0.7818608E-02  0.1086807E+00
          2   -1    0    0  501    0  0.00000000000E+00  0.00000000000E+00  0.28974112498E+04  0.28974112498E+04  0.25500000000E-02 0.  1.
         -2   -1    0    0    0  501 -0.00000000000E+00 -0.00000000000E+00 -0.76052357890E+01  0.76052362165E+01  0.25500000000E-02 0. -1.
    5000001    1    1    2    0    0  0.79175783319E+02  0.91460664762E+02  0.10694070538E+04  0.10789783615E+04  0.77000000000E+02 0.  0.
   -5000001    1    1    2    0    0 -0.79175783319E+02 -0.91460664762E+02  0.18203989602E+04  0.18260381245E+04  0.77000000000E+02 0.  0.
<mgrwt>
<rscale>  0 0.29688716E+03</rscale>
<asrwt>0</asrwt>
<pdfrwt beam="1">  1        2 0.44575559E+00 0.29688716E+03</pdfrwt>
<pdfrwt beam="2">  1       -2 0.11700363E-02 0.29688716E+03</pdfrwt>
<totfact> 0.40546601E+03</totfact>
</mgrwt>
</event>
<event>
 4    1  0.4991066E-004  0.3872499E+03  0.7818608E-02  0.1048286E+00
         -2   -1    0    0    0  501 -0.00000000000E+00  0.00000000000E+00  0.13303684852E+03  0.13303684854E+03  0.25500000000E-02 0. -1.
          2   -1    0    0  501    0  0.00000000000E+00 -0.00000000000E+00 -0.28180630272E+03  0.28180630273E+03  0.25500000000E-02 0.  1.
    5000001    1    1    2    0    0 -0.78657991320E+02 -0.11857388803E+03 -0.18833505571E+03  0.24828600389E+03  0.77000000000E+02 0.  0.
   -5000001    1    1    2    0    0  0.78657991320E+02  0.11857388803E+03  0.39565601501E+02  0.16655714738E+03  0.77000000000E+02 0.  0.
<mgrwt>
<rscale>  0 0.38724991E+03</rscale>
<asrwt>0</asrwt>
<pdfrwt beam="1">  1        2 0.43354816E-01 0.38724991E+03</pdfrwt>
<pdfrwt beam="2">  1       -2 0.20467208E-01 0.38724991E+03</pdfrwt>
<totfact> 0.23780794E+03</totfact>
</mgrwt>
</event>
<event>
 4    1  0.4991066E-004  0.2204610E+03  0.7818608E-02  0.1133540E+00
          2   -1    0    0  501    0  0.00000000000E+00  0.00000000000E+00  0.16814829873E+04  0.16814829873E+04  0.25500000000E-02 0.  1.
         -2   -1    0    0    0  501 -0.00000000000E+00 -0.00000000000E+00 -0.72262169560E+01  0.72262174059E+01  0.25500000000E-02 0. -1.
    5000001    1    1    2    0    0  0.55701356549E+02  0.25768585167E+02  0.45758822395E+03  0.46806264944E+03  0.77000000000E+02 0.  0.
   -5000001    1    1    2    0    0 -0.55701356549E+02 -0.25768585167E+02  0.12166685464E+04  0.12206465553E+04  0.77000000000E+02 0.  0.
<mgrwt>
<rscale>  0 0.22046098E+03</rscale>
<asrwt>0</asrwt>
<pdfrwt beam="1">  1        2 0.25869000E+00 0.22046098E+03</pdfrwt>
<pdfrwt beam="2">  1       -2 0.11117244E-02 0.22046098E+03</pdfrwt>
<totfact> 0.19792268E+04</totfact>
</mgrwt>
</event>
<event>
 4    1  0.4991066E-004  0.2692059E+03  0.7818608E-02  0.1101735E+00
          2   -1    0    0  501    0  0.00000000000E+00  0.00000000000E+00  0.13558339092E+03  0.13558339095E+03  0.25500000000E-02 0.  1.
         -2   -1    0    0    0  501 -0.00000000000E+00 -0.00000000000E+00 -0.13362962208E+03  0.13362962211E+03  0.25500000000E-02 0. -1.
    5000001    1    1    2    0    0  0.95734715294E+02  0.54891249693E+02 -0.23053188513E+01  0.13458268648E+03  0.77000000000E+02 0.  0.
   -5000001    1    1    2    0    0 -0.95734715294E+02 -0.54891249693E+02  0.42590876925E+01  0.13463032657E+03  0.77000000000E+02 0.  0.
<mgrwt>
<rscale>  0 0.26920592E+03</rscale>
<asrwt>0</asrwt>
<pdfrwt beam="1">  1        2 0.20858983E-01 0.26920592E+03</pdfrwt>
<pdfrwt beam="2">  1       -2 0.20558403E-01 0.26920592E+03</pdfrwt>
<totfact> 0.52581389E+03</totfact>
</mgrwt>
</event>
<event>
 4    1  0.4991066E-004  0.2866340E+03  0.7818608E-02  0.1092120E+00
         -2   -1    0    0    0  501 -0.00000000000E+00  0.00000000000E+00  0.44779908722E+02  0.44779908795E+02  0.25500000000E-02 0. -1.
          2   -1    0    0  501    0  0.00000000000E+00 -0.00000000000E+00 -0.45868252211E+03  0.45868252212E+03  0.25500000000E-02 0.  1.
    5000001    1    1    2    0    0 -0.11411613273E+03 -0.33651668411E+02 -0.24445233598E+03  0.28256126965E+03  0.77000000000E+02 0.  0.
   -5000001    1    1    2    0    0  0.11411613273E+03  0.33651668411E+02 -0.16945027741E+03  0.22090116127E+03  0.77000000000E+02 0.  0.
<mgrwt>
<rscale>  0 0.28663399E+03</rscale>
<asrwt>0</asrwt>
<pdfrwt beam="1">  1        2 0.70566539E-01 0.28663399E+03</pdfrwt>
<pdfrwt beam="2">  1       -2 0.68892171E-02 0.28663399E+03</pdfrwt>
<totfact> 0.81623412E+03</totfact>
</mgrwt>
</event>
<event>
 4    1  0.4991066E-004  0.1825355E+03  0.7818608E-02  0.1165371E+00
          2   -1    0    0  501    0  0.00000000000E+00  0.00000000000E+00  0.19534722918E+04  0.19534722918E+04  0.25500000000E-02 0.  1.
         -2   -1    0    0    0  501 -0.00000000000E+00 -0.00000000000E+00 -0.42641002130E+01  0.42641009755E+01  0.25500000000E-02 0. -1.
    5000001    1    1    2    0    0 -0.23850390863E+02 -0.42610819627E+02  0.93133036569E+03  0.93578297331E+03  0.77000000000E+02 0.  0.
   -5000001    1    1    2    0    0  0.23850390863E+02  0.42610819627E+02  0.10178778259E+04  0.10219534195E+04  0.77000000000E+02 0.  0.
<mgrwt>
<rscale>  0 0.18253550E+03</rscale>
<asrwt>0</asrwt>
<pdfrwt beam="1">  1        2 0.30053376E+00 0.18253550E+03</pdfrwt>
<pdfrwt beam="2">  1       -2 0.65601643E-03 0.18253550E+03</pdfrwt>
<totfact> 0.30281919E+04</totfact>
</mgrwt>
</event>
<event>
 4    1  0.4991066E-004  0.1815007E+03  0.7818608E-02  0.1166359E+00
         -2   -1    0    0    0  501 -0.00000000000E+00  0.00000000000E+00  0.74850404992E+01  0.74850409336E+01  0.25500000000E-02 0. -1.
          2   -1    0    0  501    0  0.00000000000E+00 -0.00000000000E+00 -0.11002779540E+04  0.11002779541E+04  0.25500000000E-02 0.  1.
    5000001    1    1    2    0    0 -0.32226054531E+02 -0.21946207099E+02 -0.71755943715E+03  0.72273141653E+03  0.77000000000E+02 0.  0.
   -5000001    1    1    2    0    0  0.32226054531E+02  0.21946207099E+02 -0.37523347639E+03  0.38503157845E+03  0.77000000000E+02 0.  0.
<mgrwt>
<rscale>  0 0.18150069E+03</rscale>
<asrwt>0</asrwt>
<pdfrwt beam="1">  1        2 0.16927340E+00 0.18150069E+03</pdfrwt>
<pdfrwt beam="2">  1       -2 0.11515456E-02 0.18150069E+03</pdfrwt>
<totfact> 0.38430573E+04</totfact>
</mgrwt>
</event>
<event>
 4    1  0.4991066E-004  0.2293834E+03  0.7818608E-02  0.1127075E+00
         -2   -1    0    0    0  501 -0.00000000000E+00  0.00000000000E+00  0.53193054803E+02  0.53193054864E+02  0.25500000000E-02 0. -1.
          2   -1    0    0  501    0  0.00000000000E+00 -0.00000000000E+00 -0.24729139005E+03  0.24729139007E+03  0.25500000000E-02 0.  1.
    5000001    1    1    2    0    0  0.51503986087E+02  0.39503948303E+02 -0.25156470561E+02  0.10380303717E+03  0.77000000000E+02 0.  0.
   -5000001    1    1    2    0    0 -0.51503986087E+02 -0.39503948303E+02 -0.16894186469E+03  0.19668140776E+03  0.77000000000E+02 0.  0.
<mgrwt>
<rscale>  0 0.22938339E+03</rscale>
<asrwt>0</asrwt>
<pdfrwt beam="1">  1        2 0.38044829E-01 0.22938339E+03</pdfrwt>
<pdfrwt beam="2">  1       -2 0.81835470E-02 0.22938339E+03</pdfrwt>
<totfact> 0.12056320E+04</totfact>
</mgrwt>
</event>
<event>
 4    1  0.4991066E-004  0.2773774E+03  0.7818608E-02  0.1097130E+00
         -2   -1    0    0    0  501 -0.00000000000E+00  0.00000000000E+00  0.35107658869E+03  0.35107658870E+03  0.25500000000E-02 0. -1.
          2   -1    0    0  501    0  0.00000000000E+00 -0.00000000000E+00 -0.54787346743E+02  0.54787346802E+02  0.25500000000E-02 0.  1.
    5000001    1    1    2    0    0  0.60469694644E+02  0.11755423757E+02  0.29084248898E+03  0.30710442419E+03  0.77000000000E+02 0.  0.
   -5000001    1    1    2    0    0 -0.60469694644E+02 -0.11755423757E+02  0.54467529689E+01  0.98759511319E+02  0.77000000000E+02 0.  0.
<mgrwt>
<rscale>  0 0.27737739E+03</rscale>
<asrwt>0</asrwt>
<pdfrwt beam="1">  1        2 0.84288224E-02 0.27737739E+03</pdfrwt>
<pdfrwt beam="2">  1       -2 0.54011784E-01 0.27737739E+03</pdfrwt>
<totfact> 0.26057365E+03</totfact>
</mgrwt>
</event>
<event>
 4    1  0.4991066E-004  0.2156068E+03  0.7818608E-02  0.1137201E+00
          2   -1    0    0  501    0  0.00000000000E+00  0.00000000000E+00  0.16225334011E+04  0.16225334011E+04  0.25500000000E-02 0.  1.
         -2   -1    0    0    0  501 -0.00000000000E+00 -0.00000000000E+00 -0.71626098325E+01  0.71626102864E+01  0.25500000000E-02 0. -1.
    5000001    1    1    2    0    0 -0.53414171474E+01  0.59429201015E+02  0.45865804286E+03  0.46888864451E+03  0.77000000000E+02 0.  0.
   -5000001    1    1    2    0    0  0.53414171474E+01 -0.59429201015E+02  0.11567127484E+04  0.11608073669E+04  0.77000000000E+02 0.  0.
<mgrwt>
<rscale>  0 0.21560681E+03</rscale>
<asrwt>0</asrwt>
<pdfrwt beam="1">  1        2 0.24962058E+00 0.21560681E+03</pdfrwt>
<pdfrwt beam="2">  1       -2 0.11019397E-02 0.21560681E+03</pdfrwt>
<totfact> 0.21504007E+04</totfact>
</mgrwt>
</event>
<event>
 4    1  0.4991066E-004  0.1980363E+03  0.7818608E-02  0.1151406E+00
         -2   -1    0    0    0  501 -0.00000000000E+00  0.00000000000E+00  0.73105179953E+01  0.73105184401E+01  0.25500000000E-02 0. -1.
          2   -1    0    0  501    0  0.00000000000E+00 -0.00000000000E+00 -0.13411622308E+04  0.13411622308E+04  0.25500000000E-02 0.  1.
    5000001    1    1    2    0    0 -0.37506688280E+02  0.42102982383E+02 -0.48726327782E+03  0.49652181694E+03  0.77000000000E+02 0.  0.
   -5000001    1    1    2    0    0  0.37506688280E+02 -0.42102982383E+02 -0.84658843498E+03  0.85195093230E+03  0.77000000000E+02 0.  0.
<mgrwt>
<rscale>  0 0.19803627E+03</rscale>
<asrwt>0</asrwt>
<pdfrwt beam="1">  1        2 0.20633246E+00 0.19803627E+03</pdfrwt>
<pdfrwt beam="2">  1       -2 0.11246962E-02 0.19803627E+03</pdfrwt>
<totfact> 0.29338784E+04</totfact>
</mgrwt>
</event>
<event>
 4    1  0.4991066E-004  0.1926144E+03  0.7818608E-02  0.1156124E+00
          2   -1    0    0  501    0  0.00000000000E+00  0.00000000000E+00  0.80192623532E+03  0.80192623533E+03  0.25500000000E-02 0.  1.
         -2   -1    0    0    0  501 -0.00000000000E+00 -0.00000000000E+00 -0.11565992014E+02  0.11565992295E+02  0.25500000000E-02 0. -1.
    5000001    1    1    2    0    0 -0.57235183887E+02 -0.45034953736E+01  0.42502177912E+03  0.43573921154E+03  0.77000000000E+02 0.  0.
   -5000001    1    1    2    0    0  0.57235183887E+02  0.45034953736E+01  0.36533846419E+03  0.37775301608E+03  0.77000000000E+02 0.  0.
<mgrwt>
<rscale>  0 0.19261436E+03</rscale>
<asrwt>0</asrwt>
<pdfrwt beam="1">  1        2 0.12337330E+00 0.19261436E+03</pdfrwt>
<pdfrwt beam="2">  1       -2 0.17793829E-02 0.19261436E+03</pdfrwt>
<totfact> 0.31523850E+04</totfact>
</mgrwt>
</event>
<event>
 4    1  0.4991066E-004  0.5341000E+03  0.7818608E-02  0.1005243E+00
         -2   -1    0    0    0  501 -0.00000000000E+00  0.00000000000E+00  0.46525549165E+02  0.46525549235E+02  0.25500000000E-02 0. -1.
          2   -1    0    0  501    0  0.00000000000E+00 -0.00000000000E+00 -0.15328288125E+04  0.15328288125E+04  0.25500000000E-02 0.  1.
    5000001    1    1    2    0    0  0.23035358377E+03 -0.10879247593E+03 -0.67782008232E+03  0.72819478189E+03  0.77000000000E+02 0.  0.
   -5000001    1    1    2    0    0 -0.23035358377E+03  0.10879247593E+03 -0.80848318097E+03  0.85115957980E+03  0.77000000000E+02 0.  0.
<mgrwt>
<rscale>  0 0.53410000E+03</rscale>
<asrwt>0</asrwt>
<pdfrwt beam="1">  1        2 0.23581978E+00 0.53410000E+03</pdfrwt>
<pdfrwt beam="2">  1       -2 0.71577780E-02 0.53410000E+03</pdfrwt>
<totfact> 0.14585771E+03</totfact>
</mgrwt>
</event>
<event>
 4    1  0.4991066E-004  0.2018159E+03  0.7818608E-02  0.1148216E+00
         -2   -1    0    0    0  501 -0.00000000000E+00  0.00000000000E+00  0.13558203721E+03  0.13558203724E+03  0.25500000000E-02 0. -1.
          2   -1    0    0  501    0  0.00000000000E+00 -0.00000000000E+00 -0.75101495993E+02  0.75101496036E+02  0.25500000000E-02 0.  1.
    5000001    1    1    2    0    0  0.41057554900E+02 -0.39440883990E+02  0.63451777981E+02  0.11487573405E+03  0.77000000000E+02 0.  0.
   -5000001    1    1    2    0    0 -0.41057554900E+02  0.39440883990E+02 -0.29712367608E+01  0.95807799224E+02  0.77000000000E+02 0.  0.
<mgrwt>
<rscale>  0 0.20181589E+03</rscale>
<asrwt>0</asrwt>
<pdfrwt beam="1">  1        2 0.11554076E-01 0.20181589E+03</pdfrwt>
<pdfrwt beam="2">  1       -2 0.20858775E-01 0.20181589E+03</pdfrwt>
<totfact> 0.10136061E+04</totfact>
</mgrwt>
</event>
<event>
 4    1  0.4991066E-004  0.1842052E+03  0.7818608E-02  0.1163794E+00
         -2   -1    0    0    0  501 -0.00000000000E+00  0.00000000000E+00  0.30060646388E+02  0.30060646497E+02  0.25500000000E-02 0. -1.
          2   -1    0    0  501    0  0.00000000000E+00 -0.00000000000E+00 -0.28219243949E+03  0.28219243950E+03  0.25500000000E-02 0.  1.
    5000001    1    1    2    0    0 -0.36844934531E+02 -0.33881298086E+02 -0.11427334412E+03  0.14660453178E+03  0.77000000000E+02 0.  0.
   -5000001    1    1    2    0    0  0.36844934531E+02  0.33881298086E+02 -0.13785844898E+03  0.16564855422E+03  0.77000000000E+02 0.  0.
<mgrwt>
<rscale>  0 0.18420518E+03</rscale>
<asrwt>0</asrwt>
<pdfrwt beam="1">  1        2 0.43414220E-01 0.18420518E+03</pdfrwt>
<pdfrwt beam="2">  1       -2 0.46247150E-02 0.18420518E+03</pdfrwt>
<totfact> 0.24684834E+04</totfact>
</mgrwt>
</event>
<event>
 4    1  0.4991066E-004  0.4225331E+03  0.7818608E-02  0.1036245E+00
         -2   -1    0    0    0  501 -0.00000000000E+00  0.00000000000E+00  0.86173785784E+02  0.86173785821E+02  0.25500000000E-02 0. -1.
          2   -1    0    0  501    0  0.00000000000E+00 -0.00000000000E+00 -0.51794815567E+03  0.51794815568E+03  0.25500000000E-02 0.  1.
    5000001    1    1    2    0    0  0.13340196246E+02 -0.17379179644E+03 -0.34632512622E+03  0.39528678500E+03  0.77000000000E+02 0.  0.
   -5000001    1    1    2    0    0 -0.13340196246E+02  0.17379179644E+03 -0.85449243667E+02  0.20883515650E+03  0.77000000000E+02 0.  0.
<mgrwt>
<rscale>  0 0.42253309E+03</rscale>
<asrwt>0</asrwt>
<pdfrwt beam="1">  1        2 0.79684330E-01 0.42253309E+03</pdfrwt>
<pdfrwt beam="2">  1       -2 0.13257506E-01 0.42253309E+03</pdfrwt>
<totfact> 0.25272354E+03</totfact>
</mgrwt>
</event>
<event>
 4    1  0.4991066E-004  0.1647289E+03  0.7818608E-02  0.1183459E+00
          2   -1    0    0  501    0  0.00000000000E+00  0.00000000000E+00  0.19144902413E+03  0.19144902415E+03  0.25500000000E-02 0.  1.
         -2   -1    0    0    0  501 -0.00000000000E+00 -0.00000000000E+00 -0.35434503150E+02  0.35434503242E+02  0.25500000000E-02 0. -1.
    5000001    1    1    2    0    0  0.12986458292E+02  0.26190609600E+02  0.78767821113E+02  0.11396475671E+03  0.77000000000E+02 0.  0.
   -5000001    1    1    2    0    0 -0.12986458292E+02 -0.26190609600E+02  0.77246699868E+02  0.11291877067E+03  0.77000000000E+02 0.  0.
<mgrwt>
<rscale>  0 0.16472888E+03</rscale>
<asrwt>0</asrwt>
<pdfrwt beam="1">  1        2 0.29453697E-01 0.16472888E+03</pdfrwt>
<pdfrwt beam="2">  1       -2 0.54514619E-02 0.16472888E+03</pdfrwt>
<totfact> 0.28954114E+04</totfact>
</mgrwt>
</event>
<event>
 4    1  0.4991066E-004  0.2306843E+03  0.7818608E-02  0.1126159E+00
         -2   -1    0    0    0  501 -0.00000000000E+00  0.00000000000E+00  0.92710767140E+02  0.92710767175E+02  0.25500000000E-02 0. -1.
          2   -1    0    0  501    0  0.00000000000E+00 -0.00000000000E+00 -0.14349796174E+03  0.14349796176E+03  0.25500000000E-02 0.  1.
    5000001    1    1    2    0    0  0.29032378398E+02 -0.72432039354E+02 -0.62106486299E+02  0.12599799586E+03  0.77000000000E+02 0.  0.
   -5000001    1    1    2    0    0 -0.29032378398E+02  0.72432039354E+02  0.11319291702E+02  0.11021073308E+03  0.77000000000E+02 0.  0.
<mgrwt>
<rscale>  0 0.23068425E+03</rscale>
<asrwt>0</asrwt>
<pdfrwt beam="1">  1        2 0.22076610E-01 0.23068425E+03</pdfrwt>
<pdfrwt beam="2">  1       -2 0.14263195E-01 0.23068425E+03</pdfrwt>
<totfact> 0.90363815E+03</totfact>
</mgrwt>
</event>
<event>
 4    1  0.4991066E-004  0.3163366E+03  0.7818608E-02  0.1077348E+00
         -2   -1    0    0    0  501 -0.00000000000E+00  0.00000000000E+00  0.76717783444E+01  0.76717787681E+01  0.25500000000E-02 0. -1.
          2   -1    0    0  501    0  0.00000000000E+00 -0.00000000000E+00 -0.32609403917E+04  0.32609403917E+04  0.25500000000E-02 0.  1.
    5000001    1    1    2    0    0 -0.10474361558E+03  0.86917274192E+02 -0.13815999694E+04  0.13904219910E+04  0.77000000000E+02 0.  0.
   -5000001    1    1    2    0    0  0.10474361558E+03 -0.86917274192E+02 -0.18716686439E+04  0.18781901794E+04  0.77000000000E+02 0.  0.
<mgrwt>
<rscale>  0 0.31633661E+03</rscale>
<asrwt>0</asrwt>
<pdfrwt beam="1">  1        2 0.50168203E+00 0.31633661E+03</pdfrwt>
<pdfrwt beam="2">  1       -2 0.11802762E-02 0.31633661E+03</pdfrwt>
<totfact> 0.24085338E+03</totfact>
</mgrwt>
</event>
<event>
 4    1  0.4991066E-004  0.2771127E+03  0.7818608E-02  0.1097276E+00
          2   -1    0    0  501    0  0.00000000000E+00  0.00000000000E+00  0.40862031140E+03  0.40862031141E+03  0.25500000000E-02 0.  1.
         -2   -1    0    0    0  501 -0.00000000000E+00 -0.00000000000E+00 -0.46982147639E+02  0.46982147708E+02  0.25500000000E-02 0. -1.
    5000001    1    1    2    0    0  0.54809759649E+02 -0.93051471752E+02  0.24671005274E+03  0.28010272450E+03  0.77000000000E+02 0.  0.
   -5000001    1    1    2    0    0 -0.54809759649E+02  0.93051471752E+02  0.11492811102E+03  0.17549973462E+03  0.77000000000E+02 0.  0.
<mgrwt>
<rscale>  0 0.27711268E+03</rscale>
<asrwt>0</asrwt>
<pdfrwt beam="1">  1        2 0.62864665E-01 0.27711268E+03</pdfrwt>
<pdfrwt beam="2">  1       -2 0.72280226E-02 0.27711268E+03</pdfrwt>
<totfact> 0.85907718E+03</totfact>
</mgrwt>
</event>
<event>
 4    1  0.4991066E-004  0.2189229E+03  0.7818608E-02  0.1134689E+00
         -2   -1    0    0    0  501 -0.00000000000E+00  0.00000000000E+00  0.21091370371E+02  0.21091370525E+02  0.25500000000E-02 0. -1.
          2   -1    0    0  501    0  0.00000000000E+00 -0.00000000000E+00 -0.56809051780E+03  0.56809051780E+03  0.25500000000E-02 0.  1.
    5000001    1    1    2    0    0 -0.33220160953E+01  0.74722486661E+02 -0.21588352650E+03  0.24109994363E+03  0.77000000000E+02 0.  0.
   -5000001    1    1    2    0    0  0.33220160953E+01 -0.74722486661E+02 -0.33111562093E+03  0.34808194470E+03  0.77000000000E+02 0.  0.
<mgrwt>
<rscale>  0 0.21892289E+03</rscale>
<asrwt>0</asrwt>
<pdfrwt beam="1">  1        2 0.87398530E-01 0.21892289E+03</pdfrwt>
<pdfrwt beam="2">  1       -2 0.32448267E-02 0.21892289E+03</pdfrwt>
<totfact> 0.19828547E+04</totfact>
</mgrwt>
</event>
<event>
 4    1  0.4991066E-004  0.2173539E+03  0.7818608E-02  0.1135871E+00
         -2   -1    0    0    0  501 -0.00000000000E+00  0.00000000000E+00  0.97049754385E+01  0.97049757735E+01  0.25500000000E-02 0. -1.
          2   -1    0    0  501    0  0.00000000000E+00 -0.00000000000E+00 -0.12169715631E+04  0.12169715631E+04  0.25500000000E-02 0.  1.
    5000001    1    1    2    0    0 -0.52698934794E+02 -0.43402818162E+02 -0.40645161500E+03  0.41927663623E+03  0.77000000000E+02 0.  0.
   -5000001    1    1    2    0    0  0.52698934794E+02  0.43402818162E+02 -0.80081497263E+03  0.80739990262E+03  0.77000000000E+02 0.  0.
<mgrwt>
<rscale>  0 0.21735390E+03</rscale>
<asrwt>0</asrwt>
<pdfrwt beam="1">  1        2 0.18722627E+00 0.21735390E+03</pdfrwt>
<pdfrwt beam="2">  1       -2 0.14930741E-02 0.21735390E+03</pdfrwt>
<totfact> 0.22896806E+04</totfact>
</mgrwt>
</event>
<event>
 4    1  0.4991066E-004  0.2555682E+03  0.7818608E-02  0.1109836E+00
         -2   -1    0    0    0  501 -0.00000000000E+00  0.00000000000E+00  0.95244281196E+01  0.95244284609E+01  0.25500000000E-02 0. -1.
          2   -1    0    0  501    0  0.00000000000E+00 -0.00000000000E+00 -0.17144094483E+04  0.17144094483E+04  0.25500000000E-02 0.  1.
    5000001    1    1    2    0    0  0.60622075289E+02 -0.76434385711E+02 -0.10528323918E+04  0.10601425831E+04  0.77000000000E+02 0.  0.
   -5000001    1    1    2    0    0 -0.60622075289E+02  0.76434385711E+02 -0.65205262836E+03  0.66379129362E+03  0.77000000000E+02 0.  0.
<mgrwt>
<rscale>  0 0.25556815E+03</rscale>
<asrwt>0</asrwt>
<pdfrwt beam="1">  1        2 0.26375506E+00 0.25556815E+03</pdfrwt>
<pdfrwt beam="2">  1       -2 0.14652980E-02 0.25556815E+03</pdfrwt>
<totfact> 0.12792428E+04</totfact>
</mgrwt>
</event>
<event>
 4    1  0.4991066E-004  0.2694789E+03  0.7818608E-02  0.1101578E+00
          2   -1    0    0  501    0  0.00000000000E+00  0.00000000000E+00  0.74270036238E+03  0.74270036238E+03  0.25500000000E-02 0.  1.
         -2   -1    0    0    0  501 -0.00000000000E+00 -0.00000000000E+00 -0.24444205063E+02  0.24444205196E+02  0.25500000000E-02 0. -1.
    5000001    1    1    2    0    0 -0.94475501992E+02 -0.37653616055E+01  0.52231338020E+03  0.53635815046E+03  0.77000000000E+02 0.  0.
   -5000001    1    1    2    0    0  0.94475501992E+02  0.37653616055E+01  0.19594277711E+03  0.23078641712E+03  0.77000000000E+02 0.  0.
<mgrwt>
<rscale>  0 0.26947890E+03</rscale>
<asrwt>0</asrwt>
<pdfrwt beam="1">  1        2 0.11426158E+00 0.26947890E+03</pdfrwt>
<pdfrwt beam="2">  1       -2 0.37606473E-02 0.26947890E+03</pdfrwt>
<totfact> 0.11702315E+04</totfact>
</mgrwt>
</event>
<event>
 4    1  0.4991066E-004  0.3648491E+03  0.7818608E-02  0.1056680E+00
         -2   -1    0    0    0  501 -0.00000000000E+00  0.00000000000E+00  0.55668146418E+02  0.55668146476E+02  0.25500000000E-02 0. -1.
          2   -1    0    0  501    0  0.00000000000E+00 -0.00000000000E+00 -0.59780549172E+03  0.59780549173E+03  0.25500000000E-02 0.  1.
    5000001    1    1    2    0    0  0.12029350814E+03 -0.38402959485E+02 -0.46234055157E+03  0.48542054038E+03  0.77000000000E+02 0.  0.
   -5000001    1    1    2    0    0 -0.12029350814E+03  0.38402959485E+02 -0.79796793732E+02  0.16805309782E+03  0.77000000000E+02 0.  0.
<mgrwt>
<rscale>  0 0.36484914E+03</rscale>
<asrwt>0</asrwt>
<pdfrwt beam="1">  1        2 0.91970071E-01 0.36484914E+03</pdfrwt>
<pdfrwt beam="2">  1       -2 0.85643306E-02 0.36484914E+03</pdfrwt>
<totfact> 0.43234754E+03</totfact>
</mgrwt>
</event>
<event>
 4    1  0.4991066E-004  0.2592540E+03  0.7818608E-02  0.1107592E+00
         -2   -1    0    0    0  501 -0.00000000000E+00  0.00000000000E+00  0.83311747620E+02  0.83311747659E+02  0.25500000000E-02 0. -1.
          2   -1    0    0  501    0  0.00000000000E+00 -0.00000000000E+00 -0.20169017790E+03  0.20169017791E+03  0.25500000000E-02 0.  1.
    5000001    1    1    2    0    0 -0.11438228419E+02  0.46868272814E+02 -0.16081908216E+03  0.18471395522E+03  0.77000000000E+02 0.  0.
   -5000001    1    1    2    0    0  0.11438228419E+02 -0.46868272814E+02  0.42440651880E+02  0.10028797036E+03  0.77000000000E+02 0.  0.
<mgrwt>
<rscale>  0 0.25925402E+03</rscale>
<asrwt>0</asrwt>
<pdfrwt beam="1">  1        2 0.31029258E-01 0.25925402E+03</pdfrwt>
<pdfrwt beam="2">  1       -2 0.12817192E-01 0.25925402E+03</pdfrwt>
<totfact> 0.74126698E+03</totfact>
</mgrwt>
</event>
<event>
 4    1  0.4991066E-004  0.1983674E+03  0.7818608E-02  0.1151124E+00
          2   -1    0    0  501    0  0.00000000000E+00  0.00000000000E+00  0.16531881426E+04  0.16531881426E+04  0.25500000000E-02 0.  1.
         -2   -1    0    0    0  501 -0.00000000000E+00 -0.00000000000E+00 -0.59505686313E+01  0.59505691777E+01  0.25500000000E-02 0. -1.
    5000001    1    1    2    0    0 -0.14654568543E+02 -0.39075987884E+02  0.12129451269E+04  0.12161030261E+04  0.77000000000E+02 0.  0.
   -5000001    1    1    2    0    0  0.14654568543E+02  0.39075987884E+02  0.43429244705E+03  0.44303568566E+03  0.77000000000E+02 0.  0.
<mgrwt>
<rscale>  0 0.19836744E+03</rscale>
<asrwt>0</asrwt>
<pdfrwt beam="1">  1        2 0.25433652E+00 0.19836744E+03</pdfrwt>
<pdfrwt beam="2">  1       -2 0.91547255E-03 0.19836744E+03</pdfrwt>
<totfact> 0.26976548E+04</totfact>
</mgrwt>
</event>
<event>
 4    1  0.4991066E-004  0.6472475E+03  0.7818608E-02  0.9811958E-01
         -2   -1    0    0    0  501 -0.00000000000E+00  0.00000000000E+00  0.13108807942E+03  0.13108807944E+03  0.25500000000E-02 0. -1.
          2   -1    0    0  501    0  0.00000000000E+00 -0.00000000000E+00 -0.79894635973E+03  0.79894635973E+03  0.25500000000E-02 0.  1.
    5000001    1    1    2    0    0 -0.17785048110E+02  0.30495327969E+03 -0.22745702493E+03  0.38855953073E+03  0.77000000000E+02 0.  0.
   -5000001    1    1    2    0    0  0.17785048110E+02 -0.30495327969E+03 -0.44040125538E+03  0.54147490844E+03  0.77000000000E+02 0.  0.
<mgrwt>
<rscale>  0 0.64724754E+03</rscale>
<asrwt>0</asrwt>
<pdfrwt beam="1">  1        2 0.12291482E+00 0.64724754E+03</pdfrwt>
<pdfrwt beam="2">  1       -2 0.20167397E-01 0.64724754E+03</pdfrwt>
<totfact> 0.72993031E+02</totfact>
</mgrwt>
</event>
<event>
 4    1  0.4991066E-004  0.3048153E+03  0.7818608E-02  0.1082858E+00
         -2   -1    0    0    0  501 -0.00000000000E+00  0.00000000000E+00  0.12538649354E+03  0.12538649357E+03  0.25500000000E-02 0. -1.
          2   -1    0    0  501    0  0.00000000000E+00 -0.00000000000E+00 -0.18525189774E+03  0.18525189776E+03  0.25500000000E-02 0.  1.
    5000001    1    1    2    0    0 -0.12961157822E+03 -0.22227579260E+02 -0.27465839650E+02  0.15484378850E+03  0.77000000000E+02 0.  0.
   -5000001    1    1    2    0    0  0.12961157822E+03  0.22227579260E+02 -0.32399564545E+02  0.15579460283E+03  0.77000000000E+02 0.  0.
<mgrwt>
<rscale>  0 0.30481526E+03</rscale>
<asrwt>0</asrwt>
<pdfrwt beam="1">  1        2 0.28500292E-01 0.30481526E+03</pdfrwt>
<pdfrwt beam="2">  1       -2 0.19290230E-01 0.30481526E+03</pdfrwt>
<totfact> 0.41470061E+03</totfact>
</mgrwt>
</event>
<event>
 4    1  0.4991066E-004  0.1840542E+03  0.7818608E-02  0.1163936E+00
         -2   -1    0    0    0  501 -0.00000000000E+00  0.00000000000E+00  0.52499458987E+03  0.52499458988E+03  0.25500000000E-02 0. -1.
          2   -1    0    0  501    0  0.00000000000E+00 -0.00000000000E+00 -0.16131565348E+02  0.16131565549E+02  0.25500000000E-02 0.  1.
    5000001    1    1    2    0    0 -0.45756815114E+02  0.20327420223E+02  0.27134489307E+03  0.28646804558E+03  0.77000000000E+02 0.  0.
   -5000001    1    1    2    0    0  0.45756815114E+02 -0.20327420223E+02  0.23751813146E+03  0.25465810985E+03  0.77000000000E+02 0.  0.
<mgrwt>
<rscale>  0 0.18405417E+03</rscale>
<asrwt>0</asrwt>
<pdfrwt beam="1">  1        2 0.24817794E-02 0.18405417E+03</pdfrwt>
<pdfrwt beam="2">  1       -2 0.80768394E-01 0.18405417E+03</pdfrwt>
<totfact> 0.54952139E+03</totfact>
</mgrwt>
</event>
<event>
 4    1  0.4991066E-004  0.2236526E+03  0.7818608E-02  0.1131189E+00
          2   -1    0    0  501    0  0.00000000000E+00  0.00000000000E+00  0.30485980428E+04  0.30485980428E+04  0.25500000000E-02 0.  1.
         -2   -1    0    0    0  501 -0.00000000000E+00 -0.00000000000E+00 -0.41019260251E+01  0.41019268177E+01  0.25500000000E-02 0. -1.
    5000001    1    1    2    0    0  0.40893529374E+02 -0.55732424635E+02  0.94352116084E+03  0.94917836303E+03  0.77000000000E+02 0.  0.
   -5000001    1    1    2    0    0 -0.40893529374E+02  0.55732424635E+02  0.21009749560E+04  0.21035216066E+04  0.77000000000E+02 0.  0.
<mgrwt>
<rscale>  0 0.22365263E+03</rscale>
<asrwt>0</asrwt>
<pdfrwt beam="1">  1        2 0.46901526E+00 0.22365263E+03</pdfrwt>
<pdfrwt beam="2">  1       -2 0.63106537E-03 0.22365263E+03</pdfrwt>
<totfact> 0.81035012E+03</totfact>
</mgrwt>
</event>
<event>
 4    1  0.4991066E-004  0.1789466E+03  0.7818608E-02  0.1168826E+00
          2   -1    0    0  501    0  0.00000000000E+00  0.00000000000E+00  0.16700512414E+04  0.16700512414E+04  0.25500000000E-02 0.  1.
         -2   -1    0    0    0  501 -0.00000000000E+00 -0.00000000000E+00 -0.47935499871E+01  0.47935506654E+01  0.25500000000E-02 0. -1.
    5000001    1    1    2    0    0 -0.26599628372E+02 -0.35356339324E+02  0.93467007450E+03  0.93887952322E+03  0.77000000000E+02 0.  0.
   -5000001    1    1    2    0    0  0.26599628372E+02  0.35356339324E+02  0.73058761690E+03  0.73596526883E+03  0.77000000000E+02 0.  0.
<mgrwt>
<rscale>  0 0.17894664E+03</rscale>
<asrwt>0</asrwt>
<pdfrwt beam="1">  1        2 0.25693120E+00 0.17894664E+03</pdfrwt>
<pdfrwt beam="2">  1       -2 0.73746859E-03 0.17894664E+03</pdfrwt>
<totfact> 0.35854590E+04</totfact>
</mgrwt>
</event>
<event>
 4    1  0.4991066E-004  0.1657328E+03  0.7818608E-02  0.1182372E+00
          2   -1    0    0  501    0  0.00000000000E+00  0.00000000000E+00  0.13185470014E+03  0.13185470016E+03  0.25500000000E-02 0.  1.
         -2   -1    0    0    0  501 -0.00000000000E+00 -0.00000000000E+00 -0.52078865384E+02  0.52078865447E+02  0.25500000000E-02 0. -1.
    5000001    1    1    2    0    0 -0.47435450048E+01  0.23802569165E+02  0.19161320071E+02  0.82977224013E+02  0.77000000000E+02 0.  0.
   -5000001    1    1    2    0    0  0.47435450048E+01 -0.23802569165E+02  0.60614514680E+02  0.10095634159E+03  0.77000000000E+02 0.  0.
<mgrwt>
<rscale>  0 0.16573284E+03</rscale>
<asrwt>0</asrwt>
<pdfrwt beam="1">  1        2 0.20285338E-01 0.16573284E+03</pdfrwt>
<pdfrwt beam="2">  1       -2 0.80121333E-02 0.16573284E+03</pdfrwt>
<totfact> 0.24309508E+04</totfact>
</mgrwt>
</event>
<event>
 4    1  0.4991066E-004  0.2365529E+03  0.7818608E-02  0.1122111E+00
         -2   -1    0    0    0  501 -0.00000000000E+00  0.00000000000E+00  0.48548670791E+02  0.48548670858E+02  0.25500000000E-02 0. -1.
          2   -1    0    0  501    0  0.00000000000E+00 -0.00000000000E+00 -0.28815028404E+03  0.28815028405E+03  0.25500000000E-02 0.  1.
    5000001    1    1    2    0    0 -0.76879432388E+02 -0.53076989144E+01 -0.54238382979E+02  0.12169396444E+03  0.77000000000E+02 0.  0.
   -5000001    1    1    2    0    0  0.76879432388E+02  0.53076989144E+01 -0.18536323027E+03  0.21500499047E+03  0.77000000000E+02 0.  0.
<mgrwt>
<rscale>  0 0.23655285E+03</rscale>
<asrwt>0</asrwt>
<pdfrwt beam="1">  1        2 0.44330812E-01 0.23655285E+03</pdfrwt>
<pdfrwt beam="2">  1       -2 0.74690265E-02 0.23655285E+03</pdfrwt>
<totfact> 0.11812836E+04</totfact>
</mgrwt>
</event>
<event>
 4    1  0.4991066E-004  0.2430752E+03  0.7818608E-02  0.1117761E+00
          2   -1    0    0  501    0  0.00000000000E+00  0.00000000000E+00  0.94418898255E+02  0.94418898289E+02  0.25500000000E-02 0.  1.
         -2   -1    0    0    0  501 -0.00000000000E+00 -0.00000000000E+00 -0.15644519338E+03  0.15644519340E+03  0.25500000000E-02 0. -1.
    5000001    1    1    2    0    0  0.20393046761E+02  0.56255490058E+02 -0.10587596754E+03  0.14394192239E+03  0.77000000000E+02 0.  0.
   -5000001    1    1    2    0    0 -0.20393046761E+02 -0.56255490058E+02  0.43849672414E+02  0.10692216930E+03  0.77000000000E+02 0.  0.
<mgrwt>
<rscale>  0 0.24307516E+03</rscale>
<asrwt>0</asrwt>
<pdfrwt beam="1">  1        2 0.14525984E-01 0.24307516E+03</pdfrwt>
<pdfrwt beam="2">  1       -2 0.24068491E-01 0.24307516E+03</pdfrwt>
<totfact> 0.60696784E+03</totfact>
</mgrwt>
</event>
<event>
 4    1  0.4991066E-004  0.1683196E+03  0.7818608E-02  0.1179612E+00
          2   -1    0    0  501    0  0.00000000000E+00  0.00000000000E+00  0.35642251634E+03  0.35642251635E+03  0.25500000000E-02 0.  1.
         -2   -1    0    0    0  501 -0.00000000000E+00 -0.00000000000E+00 -0.19872120740E+02  0.19872120904E+02  0.25500000000E-02 0. -1.
    5000001    1    1    2    0    0 -0.17566976591E+02  0.29009263729E+02  0.16395449928E+03  0.18428297231E+03  0.77000000000E+02 0.  0.
   -5000001    1    1    2    0    0  0.17566976591E+02 -0.29009263729E+02  0.17259589632E+03  0.19201166495E+03  0.77000000000E+02 0.  0.
<mgrwt>
<rscale>  0 0.16831959E+03</rscale>
<asrwt>0</asrwt>
<pdfrwt beam="1">  1        2 0.54834229E-01 0.16831959E+03</pdfrwt>
<pdfrwt beam="2">  1       -2 0.30572496E-02 0.16831959E+03</pdfrwt>
<totfact> 0.35361398E+04</totfact>
</mgrwt>
</event>
<event>
 4    1  0.4991066E-004  0.1876756E+03  0.7818608E-02  0.1160575E+00
         -2   -1    0    0    0  501 -0.00000000000E+00  0.00000000000E+00  0.75911932917E+02  0.75911932959E+02  0.25500000000E-02 0. -1.
          2   -1    0    0  501    0  0.00000000000E+00 -0.00000000000E+00 -0.11599664150E+03  0.11599664153E+03  0.25500000000E-02 0.  1.
    5000001    1    1    2    0    0  0.55133697393E+01  0.53400495877E+01  0.34236109276E+02  0.84616928294E+02  0.77000000000E+02 0.  0.
   -5000001    1    1    2    0    0 -0.55133697393E+01 -0.53400495877E+01 -0.74320817859E+02  0.10729164619E+03  0.77000000000E+02 0.  0.
<mgrwt>
<rscale>  0 0.18767556E+03</rscale>
<asrwt>0</asrwt>
<pdfrwt beam="1">  1        2 0.17845637E-01 0.18767556E+03</pdfrwt>
<pdfrwt beam="2">  1       -2 0.11678759E-01 0.18767556E+03</pdfrwt>
<totfact> 0.15713009E+04</totfact>
</mgrwt>
</event>
<event>
 4    1  0.4991066E-004  0.4323188E+03  0.7818608E-02  0.1033130E+00
          2   -1    0    0  501    0  0.00000000000E+00  0.00000000000E+00  0.26984394054E+03  0.26984394056E+03  0.25500000000E-02 0.  1.
         -2   -1    0    0    0  501 -0.00000000000E+00 -0.00000000000E+00 -0.17315520364E+03  0.17315520366E+03  0.25500000000E-02 0. -1.
    5000001    1    1    2    0    0  0.85719679039E+02 -0.17526752643E+03  0.10187784863E+03  0.23318375852E+03  0.77000000000E+02 0.  0.
   -5000001    1    1    2    0    0 -0.85719679039E+02  0.17526752643E+03 -0.51891117283E+01  0.20981538570E+03  0.77000000000E+02 0.  0.
<mgrwt>
<rscale>  0 0.43231878E+03</rscale>
<asrwt>0</asrwt>
<pdfrwt beam="1">  1        2 0.41514452E-01 0.43231878E+03</pdfrwt>
<pdfrwt beam="2">  1       -2 0.26639262E-01 0.43231878E+03</pdfrwt>
<totfact> 0.15680743E+03</totfact>
</mgrwt>
</event>
<event>
 4    1  0.4991066E-004  0.1868082E+03  0.7818608E-02  0.1161372E+00
          2   -1    0    0  501    0  0.00000000000E+00  0.00000000000E+00  0.42284752766E+03  0.42284752767E+03  0.25500000000E-02 0.  1.
         -2   -1    0    0    0  501 -0.00000000000E+00 -0.00000000000E+00 -0.20632325817E+02  0.20632325975E+02  0.25500000000E-02 0. -1.
    5000001    1    1    2    0    0 -0.40662706056E+02  0.31138762697E+01  0.28098702050E+03  0.29418677329E+03  0.77000000000E+02 0.  0.
   -5000001    1    1    2    0    0  0.40662706056E+02 -0.31138762697E+01  0.12122818134E+03  0.14929308035E+03  0.77000000000E+02 0.  0.
<mgrwt>
<rscale>  0 0.18680822E+03</rscale>
<asrwt>0</asrwt>
<pdfrwt beam="1">  1        2 0.65053467E-01 0.18680822E+03</pdfrwt>
<pdfrwt beam="2">  1       -2 0.31742039E-02 0.18680822E+03</pdfrwt>
<totfact> 0.28095586E+04</totfact>
</mgrwt>
</event>
<event>
 4    1  0.4991066E-004  0.1774019E+03  0.7818608E-02  0.1170341E+00
         -2   -1    0    0    0  501 -0.00000000000E+00  0.00000000000E+00  0.82646076867E+01  0.82646080801E+01  0.25500000000E-02 0. -1.
          2   -1    0    0  501    0  0.00000000000E+00 -0.00000000000E+00 -0.95199390401E+03  0.95199390401E+03  0.25500000000E-02 0.  1.
    5000001    1    1    2    0    0  0.30229857957E+02 -0.22196381631E+02 -0.59675287935E+03  0.60286774891E+03  0.77000000000E+02 0.  0.
   -5000001    1    1    2    0    0 -0.30229857957E+02  0.22196381631E+02 -0.34697641697E+03  0.35739076318E+03  0.77000000000E+02 0.  0.
<mgrwt>
<rscale>  0 0.17740188E+03</rscale>
<asrwt>0</asrwt>
<pdfrwt beam="1">  1        2 0.14646051E+00 0.17740188E+03</pdfrwt>
<pdfrwt beam="2">  1       -2 0.12714789E-02 0.17740188E+03</pdfrwt>
<totfact> 0.40771265E+04</totfact>
</mgrwt>
</event>
<event>
 4    1  0.4991066E-004  0.1828885E+03  0.7818608E-02  0.1165036E+00
          2   -1    0    0  501    0  0.00000000000E+00  0.00000000000E+00  0.68454543174E+03  0.68454543175E+03  0.25500000000E-02 0.  1.
         -2   -1    0    0    0  501 -0.00000000000E+00 -0.00000000000E+00 -0.12215485720E+02  0.12215485986E+02  0.25500000000E-02 0. -1.
    5000001    1    1    2    0    0 -0.47087102045E+02  0.90801181101E+01  0.38016912044E+03  0.39084166085E+03  0.77000000000E+02 0.  0.
   -5000001    1    1    2    0    0  0.47087102045E+02 -0.90801181101E+01  0.29216082559E+03  0.30591925688E+03  0.77000000000E+02 0.  0.
<mgrwt>
<rscale>  0 0.18288855E+03</rscale>
<asrwt>0</asrwt>
<pdfrwt beam="1">  1        2 0.10531468E+00 0.18288855E+03</pdfrwt>
<pdfrwt beam="2">  1       -2 0.18793055E-02 0.18288855E+03</pdfrwt>
<totfact> 0.35188465E+04</totfact>
</mgrwt>
</event>
<event>
 4    1  0.4991066E-004  0.2117956E+03  0.7818608E-02  0.1140152E+00
         -2   -1    0    0    0  501 -0.00000000000E+00  0.00000000000E+00  0.99664317684E+01  0.99664320946E+01  0.25500000000E-02 0. -1.
          2   -1    0    0  501    0  0.00000000000E+00 -0.00000000000E+00 -0.11252117756E+04  0.11252117756E+04  0.25500000000E-02 0.  1.
    5000001    1    1    2    0    0 -0.65641484974E+02  0.26229574691E+02 -0.46657713063E+03  0.47814225286E+03  0.77000000000E+02 0.  0.
   -5000001    1    1    2    0    0  0.65641484974E+02 -0.26229574691E+02 -0.64866821320E+03  0.65703595484E+03  0.77000000000E+02 0.  0.
<mgrwt>
<rscale>  0 0.21179562E+03</rscale>
<asrwt>0</asrwt>
<pdfrwt beam="1">  1        2 0.17310940E+00 0.21179562E+03</pdfrwt>
<pdfrwt beam="2">  1       -2 0.15332981E-02 0.21179562E+03</pdfrwt>
<totfact> 0.24804585E+04</totfact>
</mgrwt>
</event>
<event>
 4    1  0.4991066E-004  0.1850212E+03  0.7818608E-02  0.1163030E+00
         -2   -1    0    0    0  501 -0.00000000000E+00  0.00000000000E+00  0.22534243066E+02  0.22534243211E+02  0.25500000000E-02 0. -1.
          2   -1    0    0  501    0  0.00000000000E+00 -0.00000000000E+00 -0.37978699904E+03  0.37978699905E+03  0.25500000000E-02 0.  1.
    5000001    1    1    2    0    0 -0.33848744010E+02 -0.34136765869E+02 -0.13984067083E+03  0.16671973330E+03  0.77000000000E+02 0.  0.
   -5000001    1    1    2    0    0  0.33848744010E+02  0.34136765869E+02 -0.21741208515E+03  0.23560150896E+03  0.77000000000E+02 0.  0.
<mgrwt>
<rscale>  0 0.18502122E+03</rscale>
<asrwt>0</asrwt>
<pdfrwt beam="1">  1        2 0.58428764E-01 0.18502122E+03</pdfrwt>
<pdfrwt beam="2">  1       -2 0.34668069E-02 0.18502122E+03</pdfrwt>
<totfact> 0.27653719E+04</totfact>
</mgrwt>
</event>
<event>
 4    1  0.4991066E-004  0.2387304E+03  0.7818608E-02  0.1120642E+00
          2   -1    0    0  501    0  0.00000000000E+00  0.00000000000E+00  0.19447387927E+04  0.19447387927E+04  0.25500000000E-02 0.  1.
         -2   -1    0    0    0  501 -0.00000000000E+00 -0.00000000000E+00 -0.73264576805E+01  0.73264581243E+01  0.25500000000E-02 0. -1.
    5000001    1    1    2    0    0 -0.86109858030E+02 -0.28119444392E+02  0.88161736822E+03  0.88959754650E+03  0.77000000000E+02 0.  0.
   -5000001    1    1    2    0    0  0.86109858030E+02  0.28119444392E+02  0.10557949668E+04  0.10624677043E+04  0.77000000000E+02 0.  0.
<mgrwt>
<rscale>  0 0.23873037E+03</rscale>
<asrwt>0</asrwt>
<pdfrwt beam="1">  1        2 0.29919100E+00 0.23873037E+03</pdfrwt>
<pdfrwt beam="2">  1       -2 0.11271458E-02 0.23873037E+03</pdfrwt>
<totfact> 0.14175011E+04</totfact>
</mgrwt>
</event>
<event>
 4    1  0.4991066E-004  0.1822279E+03  0.7818608E-02  0.1165664E+00
          2   -1    0    0  501    0  0.00000000000E+00  0.00000000000E+00  0.10971478007E+03  0.10971478010E+03  0.25500000000E-02 0.  1.
         -2   -1    0    0    0  501 -0.00000000000E+00 -0.00000000000E+00 -0.75666641151E+02  0.75666641194E+02  0.25500000000E-02 0. -1.
    5000001    1    1    2    0    0 -0.16346979374E+02  0.45863568488E+02  0.18483557243E+02  0.92958767943E+02  0.77000000000E+02 0.  0.
   -5000001    1    1    2    0    0  0.16346979374E+02 -0.45863568488E+02  0.15564581672E+02  0.92422653347E+02  0.77000000000E+02 0.  0.
<mgrwt>
<rscale>  0 0.18222787E+03</rscale>
<asrwt>0</asrwt>
<pdfrwt beam="1">  1        2 0.16879197E-01 0.18222787E+03</pdfrwt>
<pdfrwt beam="2">  1       -2 0.11641022E-01 0.18222787E+03</pdfrwt>
<totfact> 0.16806779E+04</totfact>
</mgrwt>
</event>
<event>
 4    1  0.4991066E-004  0.2807163E+03  0.7818608E-02  0.1095298E+00
          2   -1    0    0  501    0  0.00000000000E+00  0.00000000000E+00  0.38282949157E+03  0.38282949158E+03  0.25500000000E-02 0.  1.
         -2   -1    0    0    0  501 -0.00000000000E+00 -0.00000000000E+00 -0.51460002450E+02  0.51460002513E+02  0.25500000000E-02 0. -1.
    5000001    1    1    2    0    0  0.10232269937E+03  0.56216522016E+02  0.18406661770E+03  0.23117039582E+03  0.77000000000E+02 0.  0.
   -5000001    1    1    2    0    0 -0.10232269937E+03 -0.56216522016E+02  0.14730287141E+03  0.20311909826E+03  0.77000000000E+02 0.  0.
<mgrwt>
<rscale>  0 0.28071627E+03</rscale>
<asrwt>0</asrwt>
<pdfrwt beam="1">  1        2 0.58896843E-01 0.28071627E+03</pdfrwt>
<pdfrwt beam="2">  1       -2 0.79169238E-02 0.28071627E+03</pdfrwt>
<totfact> 0.80066829E+03</totfact>
</mgrwt>
</event>
<event>
 4    1  0.4991066E-004  0.2726071E+03  0.7818608E-02  0.1099797E+00
          2   -1    0    0  501    0  0.00000000000E+00  0.00000000000E+00  0.14041495233E+03  0.14041495235E+03  0.25500000000E-02 0.  1.
         -2   -1    0    0    0  501 -0.00000000000E+00 -0.00000000000E+00 -0.13231251470E+03  0.13231251473E+03  0.25500000000E-02 0. -1.
    5000001    1    1    2    0    0  0.41172794159E+02 -0.63718233913E+02 -0.79018232170E+02  0.13389583013E+03  0.77000000000E+02 0.  0.
   -5000001    1    1    2    0    0 -0.41172794159E+02  0.63718233913E+02  0.87120669794E+02  0.13883163695E+03  0.77000000000E+02 0.  0.
<mgrwt>
<rscale>  0 0.27260708E+03</rscale>
<asrwt>0</asrwt>
<pdfrwt beam="1">  1        2 0.21602300E-01 0.27260708E+03</pdfrwt>
<pdfrwt beam="2">  1       -2 0.20355771E-01 0.27260708E+03</pdfrwt>
<totfact> 0.51418253E+03</totfact>
</mgrwt>
</event>
<event>
 4    1  0.4991066E-004  0.1668926E+03  0.7818608E-02  0.1181128E+00
         -2   -1    0    0    0  501 -0.00000000000E+00  0.00000000000E+00  0.37671036826E+02  0.37671036913E+02  0.25500000000E-02 0. -1.
          2   -1    0    0  501    0  0.00000000000E+00 -0.00000000000E+00 -0.18484450698E+03  0.18484450700E+03  0.25500000000E-02 0.  1.
    5000001    1    1    2    0    0  0.38648209651E+01 -0.28487483529E+02 -0.92806905350E+02  0.12397013850E+03  0.77000000000E+02 0.  0.
   -5000001    1    1    2    0    0 -0.38648209651E+01  0.28487483529E+02 -0.54366564802E+02  0.98545405409E+02  0.77000000000E+02 0.  0.
<mgrwt>
<rscale>  0 0.16689259E+03</rscale>
<asrwt>0</asrwt>
<pdfrwt beam="1">  1        2 0.28437616E-01 0.16689259E+03</pdfrwt>
<pdfrwt beam="2">  1       -2 0.57955442E-02 0.16689259E+03</pdfrwt>
<totfact> 0.27451561E+04</totfact>
</mgrwt>
</event>
<event>
 4    1  0.4991066E-004  0.2010743E+03  0.7818608E-02  0.1148836E+00
         -2   -1    0    0    0  501 -0.00000000000E+00  0.00000000000E+00  0.10290880071E+02  0.10290880387E+02  0.25500000000E-02 0. -1.
          2   -1    0    0  501    0  0.00000000000E+00 -0.00000000000E+00 -0.98220128327E+03  0.98220128328E+03  0.25500000000E-02 0.  1.
    5000001    1    1    2    0    0  0.18378319552E+02 -0.46922403083E+02 -0.28611078705E+03  0.30054593161E+03  0.77000000000E+02 0.  0.
   -5000001    1    1    2    0    0 -0.18378319552E+02  0.46922403083E+02 -0.68579961615E+03  0.69194623205E+03  0.77000000000E+02 0.  0.
<mgrwt>
<rscale>  0 0.20107427E+03</rscale>
<asrwt>0</asrwt>
<pdfrwt beam="1">  1        2 0.15110782E+00 0.20107427E+03</pdfrwt>
<pdfrwt beam="2">  1       -2 0.15832131E-02 0.20107427E+03</pdfrwt>
<totfact> 0.28689410E+04</totfact>
</mgrwt>
</event>
<event>
 4    1  0.4991066E-004  0.1952044E+03  0.7818608E-02  0.1153849E+00
         -2   -1    0    0    0  501 -0.00000000000E+00  0.00000000000E+00  0.15532764097E+03  0.15532764099E+03  0.25500000000E-02 0. -1.
          2   -1    0    0  501    0  0.00000000000E+00 -0.00000000000E+00 -0.61329653955E+02  0.61329654008E+02  0.25500000000E-02 0.  1.
    5000001    1    1    2    0    0 -0.33084395323E+02 -0.38668858275E+02  0.82225546533E+02  0.12361188582E+03  0.77000000000E+02 0.  0.
   -5000001    1    1    2    0    0  0.33084395323E+02  0.38668858275E+02  0.11772440485E+02  0.93045409178E+02  0.77000000000E+02 0.  0.
<mgrwt>
<rscale>  0 0.19520441E+03</rscale>
<asrwt>0</asrwt>
<pdfrwt beam="1">  1        2 0.94353314E-02 0.19520441E+03</pdfrwt>
<pdfrwt beam="2">  1       -2 0.23896560E-01 0.19520441E+03</pdfrwt>
<totfact> 0.10258541E+04</totfact>
</mgrwt>
</event>
<event>
 4    1  0.4991066E-004  0.1758670E+03  0.7818608E-02  0.1171864E+00
          2   -1    0    0  501    0  0.00000000000E+00  0.00000000000E+00  0.52166397711E+03  0.52166397712E+03  0.25500000000E-02 0.  1.
         -2   -1    0    0    0  501 -0.00000000000E+00 -0.00000000000E+00 -0.14822372942E+02  0.14822373161E+02  0.25500000000E-02 0. -1.
    5000001    1    1    2    0    0  0.36538322187E+02 -0.90326703261E+00  0.31937374286E+03  0.33055173953E+03  0.77000000000E+02 0.  0.
   -5000001    1    1    2    0    0 -0.36538322187E+02  0.90326703261E+00  0.18746786132E+03  0.20593461075E+03  0.77000000000E+02 0.  0.
<mgrwt>
<rscale>  0 0.17586697E+03</rscale>
<asrwt>0</asrwt>
<pdfrwt beam="1">  1        2 0.80255983E-01 0.17586697E+03</pdfrwt>
<pdfrwt beam="2">  1       -2 0.22803655E-02 0.17586697E+03</pdfrwt>
<totfact> 0.36123078E+04</totfact>
</mgrwt>
</event>
<event>
 4    1  0.4991066E-004  0.1753888E+03  0.7818608E-02  0.1172342E+00
          2   -1    0    0  501    0  0.00000000000E+00  0.00000000000E+00  0.54494931481E+03  0.54494931481E+03  0.25500000000E-02 0.  1.
         -2   -1    0    0    0  501 -0.00000000000E+00 -0.00000000000E+00 -0.14111968398E+02  0.14111968628E+02  0.25500000000E-02 0. -1.
    5000001    1    1    2    0    0 -0.16946254060E+02 -0.12017662371E+02  0.38165334167E+03  0.38989725947E+03  0.77000000000E+02 0.  0.
   -5000001    1    1    2    0    0  0.16946254060E+02  0.12017662371E+02  0.14918400474E+03  0.16916402397E+03  0.77000000000E+02 0.  0.
<mgrwt>
<rscale>  0 0.17538880E+03</rscale>
<asrwt>0</asrwt>
<pdfrwt beam="1">  1        2 0.83838339E-01 0.17538880E+03</pdfrwt>
<pdfrwt beam="2">  1       -2 0.21710725E-02 0.17538880E+03</pdfrwt>
<totfact> 0.36954860E+04</totfact>
</mgrwt>
</event>
<event>
 4    1  0.4991066E-004  0.4019032E+03  0.7818608E-02  0.1043123E+00
         -2   -1    0    0    0  501 -0.00000000000E+00  0.00000000000E+00  0.22660733969E+02  0.22660734112E+02  0.25500000000E-02 0.  1.
          2   -1    0    0  501    0  0.00000000000E+00 -0.00000000000E+00 -0.17820048309E+04  0.17820048309E+04  0.25500000000E-02 0. -1.
    5000001    1    1    2    0    0  0.13464983222E+03 -0.12263411988E+03 -0.71884453467E+03  0.74554421043E+03  0.77000000000E+02 0.  0.
   -5000001    1    1    2    0    0 -0.13464983222E+03  0.12263411988E+03 -0.10404995623E+04  0.10591213546E+04  0.77000000000E+02 0.  0.
<mgrwt>
<rscale>  0 0.40190316E+03</rscale>
<asrwt>0</asrwt>
<pdfrwt beam="1">  1        2 0.27415448E+00 0.40190316E+03</pdfrwt>
<pdfrwt beam="2">  1       -2 0.34862682E-02 0.40190316E+03</pdfrwt>
<totfact> 0.32628635E+03</totfact>
</mgrwt>
</event>
<event>
 4    1  0.4991066E-004  0.2144342E+03  0.7818608E-02  0.1138102E+00
          2   -1    0    0  501    0  0.00000000000E+00  0.00000000000E+00  0.23444379010E+03  0.23444379011E+03  0.25500000000E-02 0.  1.
         -2   -1    0    0    0  501 -0.00000000000E+00 -0.00000000000E+00 -0.49033113578E+02  0.49033113645E+02  0.25500000000E-02 0. -1.
    5000001    1    1    2    0    0 -0.20109589397E+02 -0.70366278883E+02  0.11189450276E+03  0.15428930143E+03  0.77000000000E+02 0.  0.
   -5000001    1    1    2    0    0  0.20109589397E+02  0.70366278883E+02  0.73516173763E+02  0.12918760232E+03  0.77000000000E+02 0.  0.
<mgrwt>
<rscale>  0 0.21443422E+03</rscale>
<asrwt>0</asrwt>
<pdfrwt beam="1">  1        2 0.36068276E-01 0.21443422E+03</pdfrwt>
<pdfrwt beam="2">  1       -2 0.75435559E-02 0.21443422E+03</pdfrwt>
<totfact> 0.14435001E+04</totfact>
</mgrwt>
</event>
<event>
 4    1  0.4991066E-004  0.5001455E+03  0.7818608E-02  0.1013741E+00
          2   -1    0    0  501    0  0.00000000000E+00  0.00000000000E+00  0.24281078538E+03  0.24281078539E+03  0.25500000000E-02 0.  1.
         -2   -1    0    0    0  501 -0.00000000000E+00 -0.00000000000E+00 -0.25755189473E+03  0.25755189475E+03  0.25500000000E-02 0. -1.
    5000001    1    1    2    0    0  0.12051844413E+03  0.18921839228E+03 -0.86645627063E+02  0.25251685100E+03  0.77000000000E+02 0.  0.
   -5000001    1    1    2    0    0 -0.12051844413E+03 -0.18921839228E+03  0.71904517708E+02  0.24784582913E+03  0.77000000000E+02 0.  0.
<mgrwt>
<rscale>  0 0.50014549E+03</rscale>
<asrwt>0</asrwt>
<pdfrwt beam="1">  1        2 0.37355505E-01 0.50014549E+03</pdfrwt>
<pdfrwt beam="2">  1       -2 0.39623368E-01 0.50014549E+03</pdfrwt>
<totfact> 0.84057754E+02</totfact>
</mgrwt>
</event>
<event>
 4    1  0.4991066E-004  0.2604037E+03  0.7818608E-02  0.1106901E+00
         -2   -1    0    0    0  501 -0.00000000000E+00  0.00000000000E+00  0.11664213766E+02  0.11664214045E+02  0.25500000000E-02 0. -1.
          2   -1    0    0  501    0  0.00000000000E+00 -0.00000000000E+00 -0.14533786436E+04  0.14533786436E+04  0.25500000000E-02 0.  1.
    5000001    1    1    2    0    0  0.19962731012E+02 -0.59033304306E+02 -0.24546213885E+03  0.26469624715E+03  0.77000000000E+02 0.  0.
   -5000001    1    1    2    0    0 -0.19962731012E+02  0.59033304306E+02 -0.11962522910E+04  0.12003466105E+04  0.77000000000E+02 0.  0.
<mgrwt>
<rscale>  0 0.26040368E+03</rscale>
<asrwt>0</asrwt>
<pdfrwt beam="1">  1        2 0.22359657E+00 0.26040368E+03</pdfrwt>
<pdfrwt beam="2">  1       -2 0.17944956E-02 0.26040368E+03</pdfrwt>
<totfact> 0.13085196E+04</totfact>
</mgrwt>
</event>
<event>
 4    1  0.4991066E-004  0.1753041E+03  0.7818608E-02  0.1172427E+00
         -2   -1    0    0    0  501 -0.00000000000E+00  0.00000000000E+00  0.73233016286E+02  0.73233016330E+02  0.25500000000E-02 0. -1.
          2   -1    0    0  501    0  0.00000000000E+00 -0.00000000000E+00 -0.10491004937E+03  0.10491004940E+03  0.25500000000E-02 0.  1.
    5000001    1    1    2    0    0  0.18049892271E+01 -0.22384168632E+02 -0.51760249386E+02  0.95459061424E+02  0.77000000000E+02 0.  0.
   -5000001    1    1    2    0    0 -0.18049892271E+01  0.22384168632E+02  0.20083216301E+02  0.82684004308E+02  0.77000000000E+02 0.  0.
<mgrwt>
<rscale>  0 0.17530407E+03</rscale>
<asrwt>0</asrwt>
<pdfrwt beam="1">  1        2 0.16140008E-01 0.17530407E+03</pdfrwt>
<pdfrwt beam="2">  1       -2 0.11266618E-01 0.17530407E+03</pdfrwt>
<totfact> 0.18595645E+04</totfact>
</mgrwt>
</event>
<event>
 4    1  0.4991066E-004  0.1680903E+03  0.7818608E-02  0.1179854E+00
         -2   -1    0    0    0  501 -0.00000000000E+00  0.00000000000E+00  0.79426951907E+01  0.79426956001E+01  0.25500000000E-02 0. -1.
          2   -1    0    0  501    0  0.00000000000E+00 -0.00000000000E+00 -0.88931832097E+03  0.88931832097E+03  0.25500000000E-02 0.  1.
    5000001    1    1    2    0    0  0.26821454615E+02  0.14522128884E+02 -0.51698568272E+03  0.52357757667E+03  0.77000000000E+02 0.  0.
   -5000001    1    1    2    0    0 -0.26821454615E+02 -0.14522128884E+02 -0.36438994306E+03  0.37368343991E+03  0.77000000000E+02 0.  0.
<mgrwt>
<rscale>  0 0.16809027E+03</rscale>
<asrwt>0</asrwt>
<pdfrwt beam="1">  1        2 0.13681812E+00 0.16809027E+03</pdfrwt>
<pdfrwt beam="2">  1       -2 0.12219538E-02 0.16809027E+03</pdfrwt>
<totfact> 0.47064540E+04</totfact>
</mgrwt>
</event>
<event>
 4    1  0.4991066E-004  0.2772301E+03  0.7818608E-02  0.1097211E+00
          2   -1    0    0  501    0  0.00000000000E+00  0.00000000000E+00  0.61119768137E+03  0.61119768138E+03  0.25500000000E-02 0.  1.
         -2   -1    0    0    0  501 -0.00000000000E+00 -0.00000000000E+00 -0.31436861613E+02  0.31436861716E+02  0.25500000000E-02 0. -1.
    5000001    1    1    2    0    0  0.81430941485E+02  0.85460204588E+01  0.10183054955E+03  0.15166572955E+03  0.77000000000E+02 0.  0.
   -5000001    1    1    2    0    0 -0.81430941485E+02 -0.85460204588E+01  0.47793027020E+03  0.49096881355E+03  0.77000000000E+02 0.  0.
<mgrwt>
<rscale>  0 0.27723014E+03</rscale>
<asrwt>0</asrwt>
<pdfrwt beam="1">  1        2 0.94030411E-01 0.27723014E+03</pdfrwt>
<pdfrwt beam="2">  1       -2 0.48364403E-02 0.27723014E+03</pdfrwt>
<totfact> 0.10127037E+04</totfact>
</mgrwt>
</event>
<event>
 4    1  0.4991066E-004  0.1661999E+03  0.7818608E-02  0.1181870E+00
          2   -1    0    0  501    0  0.00000000000E+00  0.00000000000E+00  0.10697841105E+03  0.10697841108E+03  0.25500000000E-02 0.  1.
         -2   -1    0    0    0  501 -0.00000000000E+00 -0.00000000000E+00 -0.64551389912E+02  0.64551389963E+02  0.25500000000E-02 0. -1.
    5000001    1    1    2    0    0 -0.23597027569E+02  0.20201388970E+02  0.24742115578E+02  0.86637682966E+02  0.77000000000E+02 0.  0.
   -5000001    1    1    2    0    0  0.23597027569E+02 -0.20201388970E+02  0.17684905555E+02  0.84892118073E+02  0.77000000000E+02 0.  0.
<mgrwt>
<rscale>  0 0.16619994E+03</rscale>
<asrwt>0</asrwt>
<pdfrwt beam="1">  1        2 0.16458217E-01 0.16619994E+03</pdfrwt>
<pdfrwt beam="2">  1       -2 0.99309832E-02 0.16619994E+03</pdfrwt>
<totfact> 0.22100312E+04</totfact>
</mgrwt>
</event>
<event>
 4    1  0.4991066E-004  0.3837634E+03  0.7818608E-02  0.1049552E+00
          2   -1    0    0  501    0  0.00000000000E+00  0.00000000000E+00  0.25416985175E+03  0.25416985176E+03  0.25500000000E-02 0.  1.
         -2   -1    0    0    0  501 -0.00000000000E+00 -0.00000000000E+00 -0.14485817655E+03  0.14485817658E+03  0.25500000000E-02 0. -1.
    5000001    1    1    2    0    0 -0.86246337961E+02  0.13417454556E+03 -0.22093043618E+02  0.17848905306E+03  0.77000000000E+02 0.  0.
   -5000001    1    1    2    0    0  0.86246337961E+02 -0.13417454556E+03  0.13140471882E+03  0.22053897527E+03  0.77000000000E+02 0.  0.
<mgrwt>
<rscale>  0 0.38376337E+03</rscale>
<asrwt>0</asrwt>
<pdfrwt beam="1">  1        2 0.39103053E-01 0.38376337E+03</pdfrwt>
<pdfrwt beam="2">  1       -2 0.22285874E-01 0.38376337E+03</pdfrwt>
<totfact> 0.22945637E+03</totfact>
</mgrwt>
</event>
<event>
 4    1  0.4991066E-004  0.2003437E+03  0.7818608E-02  0.1149449E+00
         -2   -1    0    0    0  501 -0.00000000000E+00  0.00000000000E+00  0.66553915182E+01  0.66553920067E+01  0.25500000000E-02 0. -1.
          2   -1    0    0  501    0  0.00000000000E+00 -0.00000000000E+00 -0.15077103830E+04  0.15077103830E+04  0.25500000000E-02 0.  1.
    5000001    1    1    2    0    0 -0.27815204612E+02  0.57701438838E+02 -0.73916001146E+03  0.74591531972E+03  0.77000000000E+02 0.  0.
   -5000001    1    1    2    0    0  0.27815204612E+02 -0.57701438838E+02 -0.76189498007E+03  0.76845045534E+03  0.77000000000E+02 0.  0.
<mgrwt>
<rscale>  0 0.20034374E+03</rscale>
<asrwt>0</asrwt>
<pdfrwt beam="1">  1        2 0.23195517E+00 0.20034374E+03</pdfrwt>
<pdfrwt beam="2">  1       -2 0.10239076E-02 0.20034374E+03</pdfrwt>
<totfact> 0.27383575E+04</totfact>
</mgrwt>
</event>
<event>
 4    1  0.4991066E-004  0.2115827E+03  0.7818608E-02  0.1140319E+00
         -2   -1    0    0    0  501 -0.00000000000E+00  0.00000000000E+00  0.11097433665E+03  0.11097433668E+03  0.25500000000E-02 0. -1.
          2   -1    0    0  501    0  0.00000000000E+00 -0.00000000000E+00 -0.10085042751E+03  0.10085042754E+03  0.25500000000E-02 0.  1.
    5000001    1    1    2    0    0  0.16831075775E+02  0.54975239452E+02 -0.39229447607E+02  0.10379552796E+03  0.77000000000E+02 0.  0.
   -5000001    1    1    2    0    0 -0.16831075775E+02 -0.54975239452E+02  0.49353356750E+02  0.10802923626E+03  0.77000000000E+02 0.  0.
<mgrwt>
<rscale>  0 0.21158270E+03</rscale>
<asrwt>0</asrwt>
<pdfrwt beam="1">  1        2 0.15515450E-01 0.21158270E+03</pdfrwt>
<pdfrwt beam="2">  1       -2 0.17072975E-01 0.21158270E+03</pdfrwt>
<totfact> 0.10024848E+04</totfact>
</mgrwt>
</event>
<event>
 4    1  0.4991066E-004  0.2872161E+03  0.7818608E-02  0.1091812E+00
          2   -1    0    0  501    0  0.00000000000E+00  0.00000000000E+00  0.12448402852E+04  0.12448402852E+04  0.25500000000E-02 0.  1.
         -2   -1    0    0    0  501 -0.00000000000E+00 -0.00000000000E+00 -0.16567006126E+02  0.16567006323E+02  0.25500000000E-02 0. -1.
    5000001    1    1    2    0    0 -0.96995847756E+02  0.72494151474E+01  0.93185608292E+03  0.94007739457E+03  0.77000000000E+02 0.  0.
   -5000001    1    1    2    0    0  0.96995847756E+02 -0.72494151474E+01  0.29641719612E+03  0.32132989693E+03  0.77000000000E+02 0.  0.
<mgrwt>
<rscale>  0 0.28721613E+03</rscale>
<asrwt>0</asrwt>
<pdfrwt beam="1">  1        2 0.19151396E+00 0.28721613E+03</pdfrwt>
<pdfrwt beam="2">  1       -2 0.25487693E-02 0.28721613E+03</pdfrwt>
<totfact> 0.10178033E+04</totfact>
</mgrwt>
</event>
<event>
 4    1  0.4991066E-004  0.1868103E+03  0.7818608E-02  0.1161370E+00
         -2   -1    0    0    0  501 -0.00000000000E+00  0.00000000000E+00  0.42429701340E+01  0.42429709003E+01  0.25500000000E-02 0. -1.
          2   -1    0    0  501    0  0.00000000000E+00 -0.00000000000E+00 -0.20562304925E+04  0.20562304925E+04  0.25500000000E-02 0.  1.
    5000001    1    1    2    0    0 -0.50117288926E+02 -0.10599992162E+00 -0.84019171457E+03  0.84519990010E+03  0.77000000000E+02 0.  0.
   -5000001    1    1    2    0    0  0.50117288926E+02  0.10599992162E+00 -0.12117958078E+04  0.12152735633E+04  0.77000000000E+02 0.  0.
<mgrwt>
<rscale>  0 0.18681034E+03</rscale>
<asrwt>0</asrwt>
<pdfrwt beam="1">  1        2 0.31634236E+00 0.18681034E+03</pdfrwt>
<pdfrwt beam="2">  1       -2 0.65276634E-03 0.18681034E+03</pdfrwt>
<totfact> 0.27006417E+04</totfact>
</mgrwt>
</event>
<event>
 4    1  0.4991066E-004  0.3031354E+03  0.7818608E-02  0.1083684E+00
          2   -1    0    0  501    0  0.00000000000E+00  0.00000000000E+00  0.14207006969E+04  0.14207006969E+04  0.25500000000E-02 0.  1.
         -2   -1    0    0    0  501 -0.00000000000E+00 -0.00000000000E+00 -0.16170028382E+02  0.16170028583E+02  0.25500000000E-02 0. -1.
    5000001    1    1    2    0    0  0.10394285147E+03 -0.22338157319E+02  0.10614038356E+04  0.10694906319E+04  0.77000000000E+02 0.  0.
   -5000001    1    1    2    0    0 -0.10394285147E+03  0.22338157319E+02  0.34312683296E+03  0.36738009356E+03  0.77000000000E+02 0.  0.
<mgrwt>
<rscale>  0 0.30313542E+03</rscale>
<asrwt>0</asrwt>
<pdfrwt beam="1">  1        2 0.21856941E+00 0.30313542E+03</pdfrwt>
<pdfrwt beam="2">  1       -2 0.24876958E-02 0.30313542E+03</pdfrwt>
<totfact> 0.84461095E+03</totfact>
</mgrwt>
</event>
<event>
 4    1  0.4991066E-004  0.2145663E+03  0.7818608E-02  0.1138000E+00
          2   -1    0    0  501    0  0.00000000000E+00  0.00000000000E+00  0.85241591552E+03  0.85241591552E+03  0.25500000000E-02 0.  1.
         -2   -1    0    0    0  501 -0.00000000000E+00 -0.00000000000E+00 -0.13502415939E+02  0.13502416179E+02  0.25500000000E-02 0. -1.
    5000001    1    1    2    0    0 -0.61944952764E+02 -0.40430475826E+02  0.37734753784E+03  0.39216318652E+03  0.77000000000E+02 0.  0.
   -5000001    1    1    2    0    0  0.61944952764E+02  0.40430475826E+02  0.46156596174E+03  0.47375514518E+03  0.77000000000E+02 0.  0.
<mgrwt>
<rscale>  0 0.21456630E+03</rscale>
<asrwt>0</asrwt>
<pdfrwt beam="1">  1        2 0.13114090E+00 0.21456630E+03</pdfrwt>
<pdfrwt beam="2">  1       -2 0.20772950E-02 0.21456630E+03</pdfrwt>
<totfact> 0.23422875E+04</totfact>
</mgrwt>
</event>
<event>
 4    1  0.4991066E-004  0.3044871E+03  0.7818608E-02  0.1083019E+00
         -2   -1    0    0    0  501 -0.00000000000E+00  0.00000000000E+00  0.21142573281E+02  0.21142573434E+02  0.25500000000E-02 0. -1.
          2   -1    0    0  501    0  0.00000000000E+00 -0.00000000000E+00 -0.10962762073E+04  0.10962762073E+04  0.25500000000E-02 0.  1.
    5000001    1    1    2    0    0 -0.97943196458E+02  0.67510739501E+02 -0.33328724564E+03  0.36216012727E+03  0.77000000000E+02 0.  0.
   -5000001    1    1    2    0    0  0.97943196458E+02 -0.67510739501E+02 -0.74184638839E+03  0.75525865347E+03  0.77000000000E+02 0.  0.
<mgrwt>
<rscale>  0 0.30448711E+03</rscale>
<asrwt>0</asrwt>
<pdfrwt beam="1">  1        2 0.16865783E+00 0.30448711E+03</pdfrwt>
<pdfrwt beam="2">  1       -2 0.32527044E-02 0.30448711E+03</pdfrwt>
<totfact> 0.86294612E+03</totfact>
</mgrwt>
</event>
<event>
 4    1  0.4991066E-004  0.2562772E+03  0.7818608E-02  0.1109401E+00
         -2   -1    0    0    0  501 -0.00000000000E+00  0.00000000000E+00  0.44362059402E+01  0.44362066730E+01  0.25500000000E-02 0. -1.
          2   -1    0    0  501    0  0.00000000000E+00 -0.00000000000E+00 -0.37012489698E+04  0.37012489698E+04  0.25500000000E-02 0.  1.
    5000001    1    1    2    0    0 -0.27798970262E+01  0.95556110938E+02 -0.13167688052E+04  0.13224778957E+04  0.77000000000E+02 0.  0.
   -5000001    1    1    2    0    0  0.27798970262E+01 -0.95556110938E+02 -0.23800439586E+04  0.23832072807E+04  0.77000000000E+02 0.  0.
<mgrwt>
<rscale>  0 0.25627723E+03</rscale>
<asrwt>0</asrwt>
<pdfrwt beam="1">  1        2 0.56942045E+00 0.25627723E+03</pdfrwt>
<pdfrwt beam="2">  1       -2 0.68249624E-03 0.25627723E+03</pdfrwt>
<totfact> 0.27519460E+03</totfact>
</mgrwt>
</event>
<event>
 4    1  0.4991066E-004  0.1687166E+03  0.7818608E-02  0.1179193E+00
         -2   -1    0    0    0  501 -0.00000000000E+00  0.00000000000E+00  0.15871082641E+02  0.15871082846E+02  0.25500000000E-02 0. -1.
          2   -1    0    0  501    0  0.00000000000E+00 -0.00000000000E+00 -0.44838283092E+03  0.44838283093E+03  0.25500000000E-02 0.  1.
    5000001    1    1    2    0    0 -0.21475572291E+02  0.26589223651E+02 -0.20421936284E+03  0.22091341104E+03  0.77000000000E+02 0.  0.
   -5000001    1    1    2    0    0  0.21475572291E+02 -0.26589223651E+02 -0.22829238544E+03  0.24334050273E+03  0.77000000000E+02 0.  0.
<mgrwt>
<rscale>  0 0.16871658E+03</rscale>
<asrwt>0</asrwt>
<pdfrwt beam="1">  1        2 0.68981964E-01 0.16871658E+03</pdfrwt>
<pdfrwt beam="2">  1       -2 0.24417054E-02 0.16871658E+03</pdfrwt>
<totfact> 0.38458177E+04</totfact>
</mgrwt>
</event>
<event>
 4    1  0.4991066E-004  0.1894846E+03  0.7818608E-02  0.1158927E+00
         -2   -1    0    0    0  501 -0.00000000000E+00  0.00000000000E+00  0.12978851295E+03  0.12978851297E+03  0.25500000000E-02 0. -1.
          2   -1    0    0  501    0  0.00000000000E+00 -0.00000000000E+00 -0.69159475832E+02  0.69159475879E+02  0.25500000000E-02 0.  1.
    5000001    1    1    2    0    0  0.35732911624E+02 -0.30594281264E+02  0.60640499999E+02  0.10871578202E+03  0.77000000000E+02 0.  0.
   -5000001    1    1    2    0    0 -0.35732911624E+02  0.30594281264E+02 -0.11462883153E-01  0.90232206837E+02  0.77000000000E+02 0.  0.
<mgrwt>
<rscale>  0 0.18948462E+03</rscale>
<asrwt>0</asrwt>
<pdfrwt beam="1">  1        2 0.10639920E-01 0.18948462E+03</pdfrwt>
<pdfrwt beam="2">  1       -2 0.19967463E-01 0.18948462E+03</pdfrwt>
<totfact> 0.12025048E+04</totfact>
</mgrwt>
</event>
<event>
 4    1  0.4991066E-004  0.2733447E+03  0.7818608E-02  0.1099380E+00
         -2   -1    0    0    0  501 -0.00000000000E+00  0.00000000000E+00  0.16330219004E+02  0.16330219203E+02  0.25500000000E-02 0. -1.
          2   -1    0    0  501    0  0.00000000000E+00 -0.00000000000E+00 -0.11438509472E+04  0.11438509472E+04  0.25500000000E-02 0.  1.
    5000001    1    1    2    0    0  0.27635807375E+02  0.41433033033E+02 -0.13363183182E+03  0.16207066530E+03  0.77000000000E+02 0.  0.
   -5000001    1    1    2    0    0 -0.27635807375E+02 -0.41433033033E+02 -0.99388889636E+03  0.99811050109E+03  0.77000000000E+02 0.  0.
<mgrwt>
<rscale>  0 0.27334474E+03</rscale>
<asrwt>0</asrwt>
<pdfrwt beam="1">  1        2 0.17597701E+00 0.27334474E+03</pdfrwt>
<pdfrwt beam="2">  1       -2 0.25123423E-02 0.27334474E+03</pdfrwt>
<totfact> 0.11855410E+04</totfact>
</mgrwt>
</event>
<event>
 4    1  0.4991066E-004  0.2982083E+03  0.7818608E-02  0.1086140E+00
          2   -1    0    0  501    0  0.00000000000E+00  0.00000000000E+00  0.64790928941E+03  0.64790928941E+03  0.25500000000E-02 0.  1.
         -2   -1    0    0    0  501 -0.00000000000E+00 -0.00000000000E+00 -0.34313507648E+02  0.34313507743E+02  0.25500000000E-02 0. -1.
    5000001    1    1    2    0    0 -0.42400433605E+02 -0.11768245411E+03  0.24819943567E+03  0.28840755303E+03  0.77000000000E+02 0.  0.
   -5000001    1    1    2    0    0  0.42400433605E+02  0.11768245411E+03  0.36539634609E+03  0.39381524413E+03  0.77000000000E+02 0.  0.
<mgrwt>
<rscale>  0 0.29820825E+03</rscale>
<asrwt>0</asrwt>
<pdfrwt beam="1">  1        2 0.99678355E-01 0.29820825E+03</pdfrwt>
<pdfrwt beam="2">  1       -2 0.52790010E-02 0.29820825E+03</pdfrwt>
<totfact> 0.82945025E+03</totfact>
</mgrwt>
</event>
<event>
 4    1  0.4991066E-004  0.3286497E+03  0.7818608E-02  0.1071736E+00
         -2   -1    0    0    0  501 -0.00000000000E+00  0.00000000000E+00  0.11450874742E+02  0.11450875026E+02  0.25500000000E-02 0. -1.
          2   -1    0    0  501    0  0.00000000000E+00 -0.00000000000E+00 -0.23581309473E+04  0.23581309473E+04  0.25500000000E-02 0.  1.
    5000001    1    1    2    0    0 -0.65134441814E+02 -0.11579290256E+03 -0.15951848314E+04  0.16025586224E+04  0.77000000000E+02 0.  0.
   -5000001    1    1    2    0    0  0.65134441814E+02  0.11579290256E+03 -0.75149524116E+03  0.76702319996E+03  0.77000000000E+02 0.  0.
<mgrwt>
<rscale>  0 0.32864974E+03</rscale>
<asrwt>0</asrwt>
<pdfrwt beam="1">  1        2 0.36278899E+00 0.32864974E+03</pdfrwt>
<pdfrwt beam="2">  1       -2 0.17616749E-02 0.32864974E+03</pdfrwt>
<totfact> 0.44562345E+03</totfact>
</mgrwt>
</event>
<event>
 4    1  0.4991066E-004  0.1981350E+03  0.7818608E-02  0.1151322E+00
         -2   -1    0    0    0  501 -0.00000000000E+00  0.00000000000E+00  0.51059698494E+01  0.51059704862E+01  0.25500000000E-02 0. -1.
          2   -1    0    0  501    0  0.00000000000E+00 -0.00000000000E+00 -0.19221363850E+04  0.19221363850E+04  0.25500000000E-02 0.  1.
    5000001    1    1    2    0    0  0.47406574411E+02 -0.11776568359E+02 -0.13351490983E+04  0.13382593865E+04  0.77000000000E+02 0.  0.
   -5000001    1    1    2    0    0 -0.47406574411E+02  0.11776568359E+02 -0.58188131683E+03  0.58898296897E+03  0.77000000000E+02 0.  0.
<mgrwt>
<rscale>  0 0.19813502E+03</rscale>
<asrwt>0</asrwt>
<pdfrwt beam="1">  1        2 0.29571271E+00 0.19813502E+03</pdfrwt>
<pdfrwt beam="2">  1       -2 0.78553540E-03 0.19813502E+03</pdfrwt>
<totfact> 0.24373146E+04</totfact>
</mgrwt>
</event>
<event>
 4    1  0.4991066E-004  0.2039724E+03  0.7818608E-02  0.1146430E+00
         -2   -1    0    0    0  501 -0.00000000000E+00  0.00000000000E+00  0.17811415342E+03  0.17811415344E+03  0.25500000000E-02 0. -1.
          2   -1    0    0  501    0  0.00000000000E+00 -0.00000000000E+00 -0.58396201605E+02  0.58396201660E+02  0.25500000000E-02 0.  1.
    5000001    1    1    2    0    0 -0.59564000225E+02  0.15675560621E+02  0.90064370942E+02  0.13354469004E+03  0.77000000000E+02 0.  0.
   -5000001    1    1    2    0    0  0.59564000225E+02 -0.15675560621E+02  0.29653580876E+02  0.10296566507E+03  0.77000000000E+02 0.  0.
<mgrwt>
<rscale>  0 0.20397245E+03</rscale>
<asrwt>0</asrwt>
<pdfrwt beam="1">  1        2 0.89840310E-02 0.20397245E+03</pdfrwt>
<pdfrwt beam="2">  1       -2 0.27402178E-01 0.20397245E+03</pdfrwt>
<totfact> 0.85913057E+03</totfact>
</mgrwt>
</event>
<event>
 4    1  0.4991066E-004  0.2943942E+03  0.7818608E-02  0.1088077E+00
          2   -1    0    0  501    0  0.00000000000E+00  0.00000000000E+00  0.85471293452E+03  0.85471293452E+03  0.25500000000E-02 0.  1.
         -2   -1    0    0    0  501 -0.00000000000E+00 -0.00000000000E+00 -0.25350015700E+02  0.25350015829E+02  0.25500000000E-02 0. -1.
    5000001    1    1    2    0    0 -0.84510086570E+02 -0.92571246767E+02  0.39926474266E+03  0.42550290856E+03  0.77000000000E+02 0.  0.
   -5000001    1    1    2    0    0  0.84510086570E+02  0.92571246767E+02  0.43009817616E+03  0.45456004180E+03  0.77000000000E+02 0.  0.
<mgrwt>
<rscale>  0 0.29439420E+03</rscale>
<asrwt>0</asrwt>
<pdfrwt beam="1">  1        2 0.13149428E+00 0.29439420E+03</pdfrwt>
<pdfrwt beam="2">  1       -2 0.39000029E-02 0.29439420E+03</pdfrwt>
<totfact> 0.92923258E+03</totfact>
</mgrwt>
</event>
<event>
 4    1  0.4991066E-004  0.2583759E+03  0.7818608E-02  0.1108123E+00
         -2   -1    0    0    0  501 -0.00000000000E+00  0.00000000000E+00  0.52764681358E+02  0.52764681419E+02  0.25500000000E-02 0. -1.
          2   -1    0    0  501    0  0.00000000000E+00 -0.00000000000E+00 -0.31630105181E+03  0.31630105182E+03  0.25500000000E-02 0.  1.
    5000001    1    1    2    0    0 -0.97951625590E+02  0.32000083337E+02 -0.11474688367E+03  0.17237857640E+03  0.77000000000E+02 0.  0.
   -5000001    1    1    2    0    0  0.97951625590E+02 -0.32000083337E+02 -0.14878948678E+03  0.19668715684E+03  0.77000000000E+02 0.  0.
<mgrwt>
<rscale>  0 0.25837588E+03</rscale>
<asrwt>0</asrwt>
<pdfrwt beam="1">  1        2 0.48661699E-01 0.25837588E+03</pdfrwt>
<pdfrwt beam="2">  1       -2 0.81176435E-02 0.25837588E+03</pdfrwt>
<totfact> 0.94286704E+03</totfact>
</mgrwt>
</event>
<event>
 4    1  0.4991066E-004  0.2702352E+03  0.7818608E-02  0.1101145E+00
         -2   -1    0    0    0  501 -0.00000000000E+00  0.00000000000E+00  0.10012712663E+03  0.10012712667E+03  0.25500000000E-02 0. -1.
          2   -1    0    0  501    0  0.00000000000E+00 -0.00000000000E+00 -0.18233589781E+03  0.18233589782E+03  0.25500000000E-02 0.  1.
    5000001    1    1    2    0    0 -0.54962075924E+02 -0.17103992610E+02  0.58135873904E+02  0.11234836976E+03  0.77000000000E+02 0.  0.
   -5000001    1    1    2    0    0  0.54962075924E+02  0.17103992610E+02 -0.14034464508E+03  0.17011465473E+03  0.77000000000E+02 0.  0.
<mgrwt>
<rscale>  0 0.27023523E+03</rscale>
<asrwt>0</asrwt>
<pdfrwt beam="1">  1        2 0.28051677E-01 0.27023523E+03</pdfrwt>
<pdfrwt beam="2">  1       -2 0.15404173E-01 0.27023523E+03</pdfrwt>
<totfact> 0.61358179E+03</totfact>
</mgrwt>
</event>
<event>
 4    1  0.4991066E-004  0.2090617E+03  0.7818608E-02  0.1142311E+00
          2   -1    0    0  501    0  0.00000000000E+00  0.00000000000E+00  0.85966265876E+03  0.85966265876E+03  0.25500000000E-02 0.  1.
         -2   -1    0    0    0  501 -0.00000000000E+00 -0.00000000000E+00 -0.12710452628E+02  0.12710452883E+02  0.25500000000E-02 0. -1.
    5000001    1    1    2    0    0 -0.16180448434E+02  0.26433874431E+02  0.15834241866E+03  0.17877885271E+03  0.77000000000E+02 0.  0.
   -5000001    1    1    2    0    0  0.16180448434E+02 -0.26433874431E+02  0.68860978747E+03  0.69359425893E+03  0.77000000000E+02 0.  0.
<mgrwt>
<rscale>  0 0.20906173E+03</rscale>
<asrwt>0</asrwt>
<pdfrwt beam="1">  1        2 0.13225583E+00 0.20906173E+03</pdfrwt>
<pdfrwt beam="2">  1       -2 0.19554537E-02 0.20906173E+03</pdfrwt>
<totfact> 0.25269755E+04</totfact>
</mgrwt>
</event>
<event>
 4    1  0.4991066E-004  0.1908587E+03  0.7818608E-02  0.1157689E+00
          2   -1    0    0  501    0  0.00000000000E+00  0.00000000000E+00  0.13035775396E+03  0.13035775398E+03  0.25500000000E-02 0.  1.
         -2   -1    0    0    0  501 -0.00000000000E+00 -0.00000000000E+00 -0.69859719260E+02  0.69859719307E+02  0.25500000000E-02 0. -1.
    5000001    1    1    2    0    0 -0.29340750339E+02  0.45921790368E+02  0.45380807582E+02  0.10468098279E+03  0.77000000000E+02 0.  0.
   -5000001    1    1    2    0    0  0.29340750339E+02 -0.45921790368E+02  0.15117227114E+02  0.95536490498E+02  0.77000000000E+02 0.  0.
<mgrwt>
<rscale>  0 0.19085865E+03</rscale>
<asrwt>0</asrwt>
<pdfrwt beam="1">  1        2 0.20055039E-01 0.19085865E+03</pdfrwt>
<pdfrwt beam="2">  1       -2 0.10747649E-01 0.19085865E+03</pdfrwt>
<totfact> 0.15715493E+04</totfact>
</mgrwt>
</event>
<event>
 4    1  0.4991066E-004  0.3166353E+03  0.7818608E-02  0.1077208E+00
         -2   -1    0    0    0  501 -0.00000000000E+00  0.00000000000E+00  0.15564367828E+02  0.15564368037E+02  0.25500000000E-02 0. -1.
          2   -1    0    0  501    0  0.00000000000E+00 -0.00000000000E+00 -0.16103753085E+04  0.16103753085E+04  0.25500000000E-02 0.  1.
    5000001    1    1    2    0    0  0.63362385724E+02 -0.75168496478E+02 -0.12971278711E+04  0.13031250166E+04  0.77000000000E+02 0.  0.
   -5000001    1    1    2    0    0 -0.63362385724E+02  0.75168496478E+02 -0.29768306950E+03  0.32281465991E+03  0.77000000000E+02 0.  0.
<mgrwt>
<rscale>  0 0.31663527E+03</rscale>
<asrwt>0</asrwt>
<pdfrwt beam="1">  1        2 0.24774992E+00 0.31663527E+03</pdfrwt>
<pdfrwt beam="2">  1       -2 0.23945194E-02 0.31663527E+03</pdfrwt>
<totfact> 0.70724339E+03</totfact>
</mgrwt>
</event>
<event>
 4    1  0.4991066E-004  0.2835007E+03  0.7818608E-02  0.1093792E+00
         -2   -1    0    0    0  501 -0.00000000000E+00  0.00000000000E+00  0.11207281507E+02  0.11207281797E+02  0.25500000000E-02 0. -1.
          2   -1    0    0  501    0  0.00000000000E+00 -0.00000000000E+00 -0.17928664979E+04  0.17928664979E+04  0.25500000000E-02 0.  1.
    5000001    1    1    2    0    0 -0.96005941959E+02 -0.54617408565E+02 -0.11728407282E+04  0.11805441863E+04  0.77000000000E+02 0.  0.
   -5000001    1    1    2    0    0  0.96005941959E+02  0.54617408565E+02 -0.60881848817E+03  0.62352959332E+03  0.77000000000E+02 0.  0.
<mgrwt>
<rscale>  0 0.28350069E+03</rscale>
<asrwt>0</asrwt>
<pdfrwt beam="1">  1        2 0.27582539E+00 0.28350069E+03</pdfrwt>
<pdfrwt beam="2">  1       -2 0.17241986E-02 0.28350069E+03</pdfrwt>
<totfact> 0.91857177E+03</totfact>
</mgrwt>
</event>
<event>
 4    1  0.4991066E-004  0.2129560E+03  0.7818608E-02  0.1139246E+00
         -2   -1    0    0    0  501 -0.00000000000E+00  0.00000000000E+00  0.62160156687E+02  0.62160156740E+02  0.25500000000E-02 0. -1.
          2   -1    0    0  501    0  0.00000000000E+00 -0.00000000000E+00 -0.18239275180E+03  0.18239275182E+03  0.25500000000E-02 0.  1.
    5000001    1    1    2    0    0 -0.63825430616E+02  0.12476821921E+02 -0.99550923062E+02  0.14166419082E+03  0.77000000000E+02 0.  0.
   -5000001    1    1    2    0    0  0.63825430616E+02 -0.12476821921E+02 -0.20681672052E+02  0.10288871774E+03  0.77000000000E+02 0.  0.
<mgrwt>
<rscale>  0 0.21295598E+03</rscale>
<asrwt>0</asrwt>
<pdfrwt beam="1">  1        2 0.28060423E-01 0.21295598E+03</pdfrwt>
<pdfrwt beam="2">  1       -2 0.95631011E-02 0.21295598E+03</pdfrwt>
<totfact> 0.13086564E+04</totfact>
</mgrwt>
</event>
<event>
 4    1  0.4991066E-004  0.1810222E+03  0.7818608E-02  0.1166817E+00
          2   -1    0    0  501    0  0.00000000000E+00  0.00000000000E+00  0.63729132702E+03  0.63729132703E+03  0.25500000000E-02 0.  1.
         -2   -1    0    0    0  501 -0.00000000000E+00 -0.00000000000E+00 -0.12854817241E+02  0.12854817494E+02  0.25500000000E-02 0. -1.
    5000001    1    1    2    0    0 -0.31472806954E+02  0.34983109323E+02  0.28710115680E+03  0.30094921457E+03  0.77000000000E+02 0.  0.
   -5000001    1    1    2    0    0  0.31472806954E+02 -0.34983109323E+02  0.33733535299E+03  0.34919692995E+03  0.77000000000E+02 0.  0.
<mgrwt>
<rscale>  0 0.18102225E+03</rscale>
<asrwt>0</asrwt>
<pdfrwt beam="1">  1        2 0.98044809E-01 0.18102225E+03</pdfrwt>
<pdfrwt beam="2">  1       -2 0.19776644E-02 0.18102225E+03</pdfrwt>
<totfact> 0.35507512E+04</totfact>
</mgrwt>
</event>
<event>
 4    1  0.4991066E-004  0.2476903E+03  0.7818608E-02  0.1114773E+00
         -2   -1    0    0    0  501 -0.00000000000E+00  0.00000000000E+00  0.21477755345E+02  0.21477755496E+02  0.25500000000E-02 0. -1.
          2   -1    0    0  501    0  0.00000000000E+00 -0.00000000000E+00 -0.71411667092E+03  0.71411667093E+03  0.25500000000E-02 0.  1.
    5000001    1    1    2    0    0 -0.59263421645E+02 -0.32366061399E+02 -0.13951905518E+03  0.17307305346E+03  0.77000000000E+02 0.  0.
   -5000001    1    1    2    0    0  0.59263421645E+02  0.32366061399E+02 -0.55311986040E+03  0.56252137296E+03  0.77000000000E+02 0.  0.
<mgrwt>
<rscale>  0 0.24769032E+03</rscale>
<asrwt>0</asrwt>
<pdfrwt beam="1">  1        2 0.10986408E+00 0.24769032E+03</pdfrwt>
<pdfrwt beam="2">  1       -2 0.33042706E-02 0.24769032E+03</pdfrwt>
<totfact> 0.14847648E+04</totfact>
</mgrwt>
</event>
<event>
 4    1  0.4991066E-004  0.2253938E+03  0.7818608E-02  0.1129924E+00
          2   -1    0    0  501    0  0.00000000000E+00  0.00000000000E+00  0.50719006784E+03  0.50719006784E+03  0.25500000000E-02 0.  1.
         -2   -1    0    0    0  501 -0.00000000000E+00 -0.00000000000E+00 -0.25041099316E+02  0.25041099446E+02  0.25500000000E-02 0. -1.
    5000001    1    1    2    0    0  0.73872498226E+02  0.11757816537E+02  0.32205857080E+03  0.33947918238E+03  0.77000000000E+02 0.  0.
   -5000001    1    1    2    0    0 -0.73872498226E+02 -0.11757816537E+02  0.16009039772E+03  0.19275198491E+03  0.77000000000E+02 0.  0.
<mgrwt>
<rscale>  0 0.22539385E+03</rscale>
<asrwt>0</asrwt>
<pdfrwt beam="1">  1        2 0.78029239E-01 0.22539385E+03</pdfrwt>
<pdfrwt beam="2">  1       -2 0.38524769E-02 0.22539385E+03</pdfrwt>
<totfact> 0.17474119E+04</totfact>
</mgrwt>
</event>
<event>
 4    1  0.4991066E-004  0.1734941E+03  0.7818608E-02  0.1174252E+00
         -2   -1    0    0    0  501 -0.00000000000E+00  0.00000000000E+00  0.12389734292E+03  0.12389734295E+03  0.25500000000E-02 0. -1.
          2   -1    0    0  501    0  0.00000000000E+00 -0.00000000000E+00 -0.60736152455E+02  0.60736152509E+02  0.25500000000E-02 0.  1.
    5000001    1    1    2    0    0  0.18069702767E+02 -0.29412729314E+02  0.10179060486E+02  0.84995506212E+02  0.77000000000E+02 0.  0.
   -5000001    1    1    2    0    0 -0.18069702767E+02  0.29412729314E+02  0.52982129983E+02  0.99637989248E+02  0.77000000000E+02 0.  0.
<mgrwt>
<rscale>  0 0.17349407E+03</rscale>
<asrwt>0</asrwt>
<pdfrwt beam="1">  1        2 0.93440236E-02 0.17349407E+03</pdfrwt>
<pdfrwt beam="2">  1       -2 0.19061129E-01 0.17349407E+03</pdfrwt>
<totfact> 0.15166339E+04</totfact>
</mgrwt>
</event>
<event>
 4    1  0.4991066E-004  0.2460274E+03  0.7818608E-02  0.1115841E+00
         -2   -1    0    0    0  501 -0.00000000000E+00  0.00000000000E+00  0.17613213589E+03  0.17613213591E+03  0.25500000000E-02 0. -1.
          2   -1    0    0  501    0  0.00000000000E+00 -0.00000000000E+00 -0.85914888054E+02  0.85914888092E+02  0.25500000000E-02 0.  1.
    5000001    1    1    2    0    0 -0.18574651519E+01 -0.62332567135E+02 -0.32539315600E+02  0.10429096875E+03  0.77000000000E+02 0.  0.
   -5000001    1    1    2    0    0  0.18574651519E+01  0.62332567135E+02  0.12275656343E+03  0.15775605525E+03  0.77000000000E+02 0.  0.
<mgrwt>
<rscale>  0 0.24602742E+03</rscale>
<asrwt>0</asrwt>
<pdfrwt beam="1">  1        2 0.13217675E-01 0.24602742E+03</pdfrwt>
<pdfrwt beam="2">  1       -2 0.27097252E-01 0.24602742E+03</pdfrwt>
<totfact> 0.55129451E+03</totfact>
</mgrwt>
</event>
<event>
 4    1  0.4991066E-004  0.3098504E+03  0.7818608E-02  0.1080418E+00
         -2   -1    0    0    0  501 -0.00000000000E+00  0.00000000000E+00  0.41631603487E+02  0.41631603565E+02  0.25500000000E-02 0. -1.
          2   -1    0    0  501    0  0.00000000000E+00 -0.00000000000E+00 -0.57652862548E+03  0.57652862548E+03  0.25500000000E-02 0.  1.
    5000001    1    1    2    0    0 -0.71826580986E+02  0.33624852231E+02 -0.48400901722E+03  0.49647096308E+03  0.77000000000E+02 0.  0.
   -5000001    1    1    2    0    0  0.71826580986E+02 -0.33624852231E+02 -0.50888004768E+02  0.12168926597E+03  0.77000000000E+02 0.  0.
<mgrwt>
<rscale>  0 0.30985036E+03</rscale>
<asrwt>0</asrwt>
<pdfrwt beam="1">  1        2 0.88696706E-01 0.30985036E+03</pdfrwt>
<pdfrwt beam="2">  1       -2 0.64048625E-02 0.30985036E+03</pdfrwt>
<totfact> 0.70753535E+03</totfact>
</mgrwt>
</event>
<event>
 4    1  0.4991066E-004  0.2815397E+03  0.7818608E-02  0.1094851E+00
         -2   -1    0    0    0  501 -0.00000000000E+00  0.00000000000E+00  0.75991990203E+01  0.75991994481E+01  0.25500000000E-02 0. -1.
          2   -1    0    0  501    0  0.00000000000E+00 -0.00000000000E+00 -0.26076622343E+04  0.26076622343E+04  0.25500000000E-02 0.  1.
    5000001    1    1    2    0    0  0.66610527855E+02  0.73278594931E+01 -0.22004786929E+04  0.22028450100E+04  0.77000000000E+02 0.  0.
   -5000001    1    1    2    0    0 -0.66610527855E+02 -0.73278594931E+01 -0.39958434237E+03  0.41241642379E+03  0.77000000000E+02 0.  0.
<mgrwt>
<rscale>  0 0.28153966E+03</rscale>
<asrwt>0</asrwt>
<pdfrwt beam="1">  1        2 0.40117809E+00 0.28153966E+03</pdfrwt>
<pdfrwt beam="2">  1       -2 0.11691097E-02 0.28153966E+03</pdfrwt>
<totfact> 0.59389291E+03</totfact>
</mgrwt>
</event>
<event>
 4    1  0.4991066E-004  0.3058971E+03  0.7818608E-02  0.1082329E+00
          2   -1    0    0  501    0  0.00000000000E+00  0.00000000000E+00  0.56222996796E+03  0.56222996797E+03  0.25500000000E-02 0.  1.
         -2   -1    0    0    0  501 -0.00000000000E+00 -0.00000000000E+00 -0.41607986182E+02  0.41607986260E+02  0.25500000000E-02 0. -1.
    5000001    1    1    2    0    0  0.80460623122E+02  0.28414249560E+02  0.61114165367E+02  0.13017381711E+03  0.77000000000E+02 0.  0.
   -5000001    1    1    2    0    0 -0.80460623122E+02 -0.28414249560E+02  0.45950781641E+03  0.47366413712E+03  0.77000000000E+02 0.  0.
<mgrwt>
<rscale>  0 0.30589709E+03</rscale>
<asrwt>0</asrwt>
<pdfrwt beam="1">  1        2 0.86496919E-01 0.30589709E+03</pdfrwt>
<pdfrwt beam="2">  1       -2 0.64012286E-02 0.30589709E+03</pdfrwt>
<totfact> 0.72867887E+03</totfact>
</mgrwt>
</event>
<event>
 4    1  0.4991066E-004  0.2194939E+03  0.7818608E-02  0.1134261E+00
          2   -1    0    0  501    0  0.00000000000E+00  0.00000000000E+00  0.54268489211E+03  0.54268489212E+03  0.25500000000E-02 0.  1.
         -2   -1    0    0    0  501 -0.00000000000E+00 -0.00000000000E+00 -0.22194092011E+02  0.22194092157E+02  0.25500000000E-02 0. -1.
    5000001    1    1    2    0    0 -0.34498923024E+02 -0.47878379820E+02  0.39229852655E+03  0.40411588546E+03  0.77000000000E+02 0.  0.
   -5000001    1    1    2    0    0  0.34498923024E+02  0.47878379820E+02  0.12819227355E+03  0.16076309882E+03  0.77000000000E+02 0.  0.
<mgrwt>
<rscale>  0 0.21949395E+03</rscale>
<asrwt>0</asrwt>
<pdfrwt beam="1">  1        2 0.83489978E-01 0.21949395E+03</pdfrwt>
<pdfrwt beam="2">  1       -2 0.34144759E-02 0.21949395E+03</pdfrwt>
<totfact> 0.19362737E+04</totfact>
</mgrwt>
</event>
<event>
 4    1  0.4991066E-004  0.2609281E+03  0.7818608E-02  0.1106587E+00
          2   -1    0    0  501    0  0.00000000000E+00  0.00000000000E+00  0.79732701156E+02  0.79732701197E+02  0.25500000000E-02 0.  1.
         -2   -1    0    0    0  501 -0.00000000000E+00 -0.00000000000E+00 -0.21347416923E+03  0.21347416925E+03  0.25500000000E-02 0. -1.
    5000001    1    1    2    0    0  0.82906389449E+02  0.64424787366E+02 -0.57614664707E+02  0.14238143217E+03  0.77000000000E+02 0.  0.
   -5000001    1    1    2    0    0 -0.82906389449E+02 -0.64424787366E+02 -0.76126803372E+02  0.15082543827E+03  0.77000000000E+02 0.  0.
<mgrwt>
<rscale>  0 0.26092813E+03</rscale>
<asrwt>0</asrwt>
<pdfrwt beam="1">  1        2 0.12266569E-01 0.26092813E+03</pdfrwt>
<pdfrwt beam="2">  1       -2 0.32842180E-01 0.26092813E+03</pdfrwt>
<totfact> 0.42673989E+03</totfact>
</mgrwt>
</event>
<event>
 4    1  0.4991066E-004  0.2287421E+03  0.7818608E-02  0.1127528E+00
          2   -1    0    0  501    0  0.00000000000E+00  0.00000000000E+00  0.47072560359E+02  0.47072560428E+02  0.25500000000E-02 0.  1.
         -2   -1    0    0    0  501 -0.00000000000E+00 -0.00000000000E+00 -0.27788464446E+03  0.27788464447E+03  0.25500000000E-02 0. -1.
    5000001    1    1    2    0    0 -0.28525074506E+02 -0.37806405189E+02 -0.21493853841E+03  0.23317499746E+03  0.77000000000E+02 0.  0.
   -5000001    1    1    2    0    0  0.28525074506E+02  0.37806405189E+02 -0.15873545693E+02  0.91782207436E+02  0.77000000000E+02 0.  0.
<mgrwt>
<rscale>  0 0.22874214E+03</rscale>
<asrwt>0</asrwt>
<pdfrwt beam="1">  1        2 0.72419326E-02 0.22874214E+03</pdfrwt>
<pdfrwt beam="2">  1       -2 0.42751483E-01 0.22874214E+03</pdfrwt>
<totfact> 0.49818886E+03</totfact>
</mgrwt>
</event>
<event>
 4    1  0.4991066E-004  0.2231016E+03  0.7818608E-02  0.1131592E+00
         -2   -1    0    0    0  501 -0.00000000000E+00  0.00000000000E+00  0.34367320265E+02  0.34367320359E+02  0.25500000000E-02 0. -1.
          2   -1    0    0  501    0  0.00000000000E+00 -0.00000000000E+00 -0.36207584223E+03  0.36207584224E+03  0.25500000000E-02 0.  1.
    5000001    1    1    2    0    0  0.14896225770E+02 -0.61502965049E+02 -0.74827465576E+02  0.12463010012E+03  0.77000000000E+02 0.  0.
   -5000001    1    1    2    0    0 -0.14896225770E+02  0.61502965049E+02 -0.25288105639E+03  0.27181306248E+03  0.77000000000E+02 0.  0.
<mgrwt>
<rscale>  0 0.22310156E+03</rscale>
<asrwt>0</asrwt>
<pdfrwt beam="1">  1        2 0.55703973E-01 0.22310156E+03</pdfrwt>
<pdfrwt beam="2">  1       -2 0.52872803E-02 0.22310156E+03</pdfrwt>
<totfact> 0.15654940E+04</totfact>
</mgrwt>
</event>
<event>
 4    1  0.4991066E-004  0.2279327E+03  0.7818608E-02  0.1128103E+00
          2   -1    0    0  501    0  0.00000000000E+00  0.00000000000E+00  0.10733175145E+04  0.10733175145E+04  0.25500000000E-02 0.  1.
         -2   -1    0    0    0  501 -0.00000000000E+00 -0.00000000000E+00 -0.12101102383E+02  0.12101102652E+02  0.25500000000E-02 0. -1.
    5000001    1    1    2    0    0  0.77502322496E+02 -0.28395598855E+02  0.45585743549E+03  0.46962529906E+03  0.77000000000E+02 0.  0.
   -5000001    1    1    2    0    0 -0.77502322496E+02  0.28395598855E+02  0.60535897661E+03  0.61579331808E+03  0.77000000000E+02 0.  0.
<mgrwt>
<rscale>  0 0.22793267E+03</rscale>
<asrwt>0</asrwt>
<pdfrwt beam="1">  1        2 0.16512580E+00 0.22793267E+03</pdfrwt>
<pdfrwt beam="2">  1       -2 0.18617077E-02 0.22793267E+03</pdfrwt>
<totfact> 0.20115186E+04</totfact>
</mgrwt>
</event>
<event>
 4    1  0.4991066E-004  0.2475176E+03  0.7818608E-02  0.1114884E+00
         -2   -1    0    0    0  501 -0.00000000000E+00  0.00000000000E+00  0.67269747518E+02  0.67269747566E+02  0.25500000000E-02 0. -1.
          2   -1    0    0  501    0  0.00000000000E+00 -0.00000000000E+00 -0.22768394660E+03  0.22768394662E+03  0.25500000000E-02 0.  1.
    5000001    1    1    2    0    0  0.44036599152E+02 -0.38534274511E+02  0.11813455972E+02  0.97430334696E+02  0.77000000000E+02 0.  0.
   -5000001    1    1    2    0    0 -0.44036599152E+02  0.38534274511E+02 -0.17222765506E+03  0.19752335949E+03  0.77000000000E+02 0.  0.
<mgrwt>
<rscale>  0 0.24751761E+03</rscale>
<asrwt>0</asrwt>
<pdfrwt beam="1">  1        2 0.35028299E-01 0.24751761E+03</pdfrwt>
<pdfrwt beam="2">  1       -2 0.10349192E-01 0.24751761E+03</pdfrwt>
<totfact> 0.91420019E+03</totfact>
</mgrwt>
</event>
<event>
 4    1  0.4991066E-004  0.3045164E+03  0.7818608E-02  0.1083004E+00
          2   -1    0    0  501    0  0.00000000000E+00  0.00000000000E+00  0.60161745131E+03  0.60161745131E+03  0.25500000000E-02 0.  1.
         -2   -1    0    0    0  501 -0.00000000000E+00 -0.00000000000E+00 -0.38533726024E+02  0.38533726108E+02  0.25500000000E-02 0. -1.
    5000001    1    1    2    0    0  0.61256783561E+02 -0.97549274679E+02  0.41425159035E+03  0.43680846447E+03  0.77000000000E+02 0.  0.
   -5000001    1    1    2    0    0 -0.61256783561E+02  0.97549274679E+02  0.14883213494E+03  0.20334271296E+03  0.77000000000E+02 0.  0.
<mgrwt>
<rscale>  0 0.30451642E+03</rscale>
<asrwt>0</asrwt>
<pdfrwt beam="1">  1        2 0.92556523E-01 0.30451642E+03</pdfrwt>
<pdfrwt beam="2">  1       -2 0.59282661E-02 0.30451642E+03</pdfrwt>
<totfact> 0.75823330E+03</totfact>
</mgrwt>
</event>
<event>
 4    1  0.4991066E-004  0.2324340E+03  0.7818608E-02  0.1124938E+00
          2   -1    0    0  501    0  0.00000000000E+00  0.00000000000E+00  0.62540632315E+03  0.62540632316E+03  0.25500000000E-02 0.  1.
         -2   -1    0    0    0  501 -0.00000000000E+00 -0.00000000000E+00 -0.21596194487E+02  0.21596194637E+02  0.25500000000E-02 0. -1.
    5000001    1    1    2    0    0  0.67656841481E+02  0.11941279209E+02  0.15311008691E+03  0.18463948944E+03  0.77000000000E+02 0.  0.
   -5000001    1    1    2    0    0 -0.67656841481E+02 -0.11941279209E+02  0.45070004176E+03  0.46236302835E+03  0.77000000000E+02 0.  0.
<mgrwt>
<rscale>  0 0.23243405E+03</rscale>
<asrwt>0</asrwt>
<pdfrwt beam="1">  1        2 0.96216365E-01 0.23243405E+03</pdfrwt>
<pdfrwt beam="2">  1       -2 0.33224912E-02 0.23243405E+03</pdfrwt>
<totfact> 0.17194641E+04</totfact>
</mgrwt>
</event>
<event>
 4    1  0.4991066E-004  0.3772066E+03  0.7818608E-02  0.1051971E+00
          2   -1    0    0  501    0  0.00000000000E+00  0.00000000000E+00  0.64423171469E+03  0.64423171470E+03  0.25500000000E-02 0.  1.
         -2   -1    0    0    0  501 -0.00000000000E+00 -0.00000000000E+00 -0.55214927177E+02  0.55214927236E+02  0.25500000000E-02 0. -1.
    5000001    1    1    2    0    0 -0.14769491942E+03  0.84236411681E+02  0.34469895758E+03  0.39198971113E+03  0.77000000000E+02 0.  0.
   -5000001    1    1    2    0    0  0.14769491942E+03 -0.84236411681E+02  0.24431782993E+03  0.30745693080E+03  0.77000000000E+02 0.  0.
<mgrwt>
<rscale>  0 0.37720661E+03</rscale>
<asrwt>0</asrwt>
<pdfrwt beam="1">  1        2 0.99112578E-01 0.37720661E+03</pdfrwt>
<pdfrwt beam="2">  1       -2 0.84946036E-02 0.37720661E+03</pdfrwt>
<totfact> 0.40100826E+03</totfact>
</mgrwt>
</event>
<event>
 4    1  0.4991066E-004  0.2437909E+03  0.7818608E-02  0.1117293E+00
         -2   -1    0    0    0  501 -0.00000000000E+00  0.00000000000E+00  0.16026663145E+02  0.16026663348E+02  0.25500000000E-02 0. -1.
          2   -1    0    0  501    0  0.00000000000E+00 -0.00000000000E+00 -0.92711131817E+03  0.92711131817E+03  0.25500000000E-02 0.  1.
    5000001    1    1    2    0    0  0.65506800625E+02 -0.11416421813E+02 -0.19579510453E+03  0.22064949258E+03  0.77000000000E+02 0.  0.
   -5000001    1    1    2    0    0 -0.65506800625E+02  0.11416421813E+02 -0.71528955049E+03  0.72248848894E+03  0.77000000000E+02 0.  0.
<mgrwt>
<rscale>  0 0.24379090E+03</rscale>
<asrwt>0</asrwt>
<pdfrwt beam="1">  1        2 0.14263247E+00 0.24379090E+03</pdfrwt>
<pdfrwt beam="2">  1       -2 0.24656412E-02 0.24379090E+03</pdfrwt>
<totfact> 0.16398848E+04</totfact>
</mgrwt>
</event>
<event>
 4    1  0.4991066E-004  0.2020865E+03  0.7818608E-02  0.1147990E+00
         -2   -1    0    0    0  501 -0.00000000000E+00  0.00000000000E+00  0.77172775993E+03  0.77172775994E+03  0.25500000000E-02 0. -1.
          2   -1    0    0  501    0  0.00000000000E+00 -0.00000000000E+00 -0.13229718362E+02  0.13229718608E+02  0.25500000000E-02 0.  1.
    5000001    1    1    2    0    0  0.59849294869E+01  0.59465826656E+02  0.48265635789E+03  0.49240040997E+03  0.77000000000E+02 0.  0.
   -5000001    1    1    2    0    0 -0.59849294869E+01 -0.59465826656E+02  0.27584168368E+03  0.29255706858E+03  0.77000000000E+02 0.  0.
<mgrwt>
<rscale>  0 0.20208653E+03</rscale>
<asrwt>0</asrwt>
<pdfrwt beam="1">  1        2 0.20353407E-02 0.20208653E+03</pdfrwt>
<pdfrwt beam="2">  1       -2 0.11872738E+00 0.20208653E+03</pdfrwt>
<totfact> 0.29895176E+03</totfact>
</mgrwt>
</event>
<event>
 4    1  0.4991066E-004  0.2006002E+03  0.7818608E-02  0.1149234E+00
          2   -1    0    0  501    0  0.00000000000E+00  0.00000000000E+00  0.74420135187E+03  0.74420135187E+03  0.25500000000E-02 0.  1.
         -2   -1    0    0    0  501 -0.00000000000E+00 -0.00000000000E+00 -0.13517994796E+02  0.13517995036E+02  0.25500000000E-02 0. -1.
    5000001    1    1    2    0    0  0.37377255852E+02  0.28833754497E+02  0.53010412382E+03  0.53774327215E+03  0.77000000000E+02 0.  0.
   -5000001    1    1    2    0    0 -0.37377255852E+02 -0.28833754497E+02  0.20057923325E+03  0.21997607476E+03  0.77000000000E+02 0.  0.
<mgrwt>
<rscale>  0 0.20060020E+03</rscale>
<asrwt>0</asrwt>
<pdfrwt beam="1">  1        2 0.11449252E+00 0.20060020E+03</pdfrwt>
<pdfrwt beam="2">  1       -2 0.20796914E-02 0.20060020E+03</pdfrwt>
<totfact> 0.27626264E+04</totfact>
</mgrwt>
</event>
<event>
 4    1  0.4991066E-004  0.3049872E+03  0.7818608E-02  0.1082774E+00
         -2   -1    0    0    0  501 -0.00000000000E+00  0.00000000000E+00  0.12342341432E+02  0.12342341695E+02  0.25500000000E-02 0. -1.
          2   -1    0    0  501    0  0.00000000000E+00 -0.00000000000E+00 -0.18841073483E+04  0.18841073483E+04  0.25500000000E-02 0.  1.
    5000001    1    1    2    0    0  0.84664280704E+02 -0.71959935901E+02 -0.13746473470E+04  0.13812786111E+04  0.77000000000E+02 0.  0.
   -5000001    1    1    2    0    0 -0.84664280704E+02  0.71959935901E+02 -0.49711765981E+03  0.51517107887E+03  0.77000000000E+02 0.  0.
<mgrwt>
<rscale>  0 0.30498719E+03</rscale>
<asrwt>0</asrwt>
<pdfrwt beam="1">  1        2 0.28986244E+00 0.30498719E+03</pdfrwt>
<pdfrwt beam="2">  1       -2 0.18988233E-02 0.30498719E+03</pdfrwt>
<totfact> 0.71405653E+03</totfact>
</mgrwt>
</event>
<event>
 4    1  0.4991066E-004  0.2075265E+03  0.7818608E-02  0.1143540E+00
          2   -1    0    0  501    0  0.00000000000E+00  0.00000000000E+00  0.12634219895E+04  0.12634219896E+04  0.25500000000E-02 0.  1.
         -2   -1    0    0    0  501 -0.00000000000E+00 -0.00000000000E+00 -0.85219411077E+01  0.85219414892E+01  0.25500000000E-02 0. -1.
    5000001    1    1    2    0    0  0.61690812576E+02 -0.14768260598E+02  0.45258884927E+03  0.46345390749E+03  0.77000000000E+02 0.  0.
   -5000001    1    1    2    0    0 -0.61690812576E+02  0.14768260598E+02  0.80231119917E+03  0.80849002355E+03  0.77000000000E+02 0.  0.
<mgrwt>
<rscale>  0 0.20752646E+03</rscale>
<asrwt>0</asrwt>
<pdfrwt beam="1">  1        2 0.19437255E+00 0.20752646E+03</pdfrwt>
<pdfrwt beam="2">  1       -2 0.13110683E-02 0.20752646E+03</pdfrwt>
<totfact> 0.25990651E+04</totfact>
</mgrwt>
</event>
<event>
 4    1  0.4991066E-004  0.2760927E+03  0.7818608E-02  0.1097842E+00
          2   -1    0    0  501    0  0.00000000000E+00  0.00000000000E+00  0.69706204228E+03  0.69706204228E+03  0.25500000000E-02 0.  1.
         -2   -1    0    0    0  501 -0.00000000000E+00 -0.00000000000E+00 -0.27338740664E+02  0.27338740783E+02  0.25500000000E-02 0. -1.
    5000001    1    1    2    0    0 -0.11392304872E+03 -0.12159185588E+02  0.33806609910E+03  0.36516296935E+03  0.77000000000E+02 0.  0.
   -5000001    1    1    2    0    0  0.11392304872E+03  0.12159185588E+02  0.33165720252E+03  0.35923781372E+03  0.77000000000E+02 0.  0.
<mgrwt>
<rscale>  0 0.27609273E+03</rscale>
<asrwt>0</asrwt>
<pdfrwt beam="1">  1        2 0.10724031E+00 0.27609273E+03</pdfrwt>
<pdfrwt beam="2">  1       -2 0.42059602E-02 0.27609273E+03</pdfrwt>
<totfact> 0.10697990E+04</totfact>
</mgrwt>
</event>
<event>
 4    1  0.4991066E-004  0.5014844E+03  0.7818608E-02  0.1013392E+00
         -2   -1    0    0    0  501 -0.00000000000E+00  0.00000000000E+00  0.51075608845E+03  0.51075608846E+03  0.25500000000E-02 0. -1.
          2   -1    0    0  501    0  0.00000000000E+00 -0.00000000000E+00 -0.12309524468E+03  0.12309524470E+03  0.25500000000E-02 0.  1.
    5000001    1    1    2    0    0 -0.22436480960E+03 -0.73881285639E+02  0.15106790778E+03  0.29077229049E+03  0.77000000000E+02 0.  0.
   -5000001    1    1    2    0    0  0.22436480960E+03  0.73881285639E+02  0.23659293600E+03  0.34307904267E+03  0.77000000000E+02 0.  0.
<mgrwt>
<rscale>  0 0.50148438E+03</rscale>
<asrwt>0</asrwt>
<pdfrwt beam="1">  1        2 0.18937730E-01 0.50148438E+03</pdfrwt>
<pdfrwt beam="2">  1       -2 0.78577861E-01 0.50148438E+03</pdfrwt>
<totfact> 0.44030584E+02</totfact>
</mgrwt>
</event>
<event>
 4    1  0.4991066E-004  0.2512923E+03  0.7818608E-02  0.1112491E+00
          2   -1    0    0  501    0  0.00000000000E+00  0.00000000000E+00  0.22080968797E+04  0.22080968797E+04  0.25500000000E-02 0.  1.
         -2   -1    0    0    0  501 -0.00000000000E+00 -0.00000000000E+00 -0.71495724501E+01  0.71495729048E+01  0.25500000000E-02 0. -1.
    5000001    1    1    2    0    0  0.96866568373E+02 -0.11818783470E+02  0.93909287234E+03  0.94728413826E+03  0.77000000000E+02 0.  0.
   -5000001    1    1    2    0    0 -0.96866568373E+02  0.11818783470E+02  0.12618544349E+04  0.12679623143E+04  0.77000000000E+02 0.  0.
<mgrwt>
<rscale>  0 0.25129225E+03</rscale>
<asrwt>0</asrwt>
<pdfrwt beam="1">  1        2 0.33970719E+00 0.25129225E+03</pdfrwt>
<pdfrwt beam="2">  1       -2 0.10999343E-02 0.25129225E+03</pdfrwt>
<totfact> 0.10686397E+04</totfact>
</mgrwt>
</event>
<event>
 4    1  0.4991066E-004  0.2237039E+03  0.7818608E-02  0.1131151E+00
          2   -1    0    0  501    0  0.00000000000E+00  0.00000000000E+00  0.13580057477E+04  0.13580057477E+04  0.25500000000E-02 0.  1.
         -2   -1    0    0    0  501 -0.00000000000E+00 -0.00000000000E+00 -0.92126722403E+01  0.92126725932E+01  0.25500000000E-02 0. -1.
    5000001    1    1    2    0    0  0.12626429232E+01  0.74603850313E+02  0.86906583020E+03  0.87565503823E+03  0.77000000000E+02 0.  0.
   -5000001    1    1    2    0    0 -0.12626429232E+01 -0.74603850313E+02  0.47972724530E+03  0.49156338211E+03  0.77000000000E+02 0.  0.
<mgrwt>
<rscale>  0 0.22370393E+03</rscale>
<asrwt>0</asrwt>
<pdfrwt beam="1">  1        2 0.20892375E+00 0.22370393E+03</pdfrwt>
<pdfrwt beam="2">  1       -2 0.14173357E-02 0.22370393E+03</pdfrwt>
<totfact> 0.20677776E+04</totfact>
</mgrwt>
</event>
<event>
 4    1  0.4991066E-004  0.1881698E+03  0.7818608E-02  0.1160122E+00
         -2   -1    0    0    0  501 -0.00000000000E+00  0.00000000000E+00  0.19318266889E+03  0.19318266890E+03  0.25500000000E-02 0. -1.
          2   -1    0    0  501    0  0.00000000000E+00 -0.00000000000E+00 -0.45821748248E+02  0.45821748319E+02  0.25500000000E-02 0.  1.
    5000001    1    1    2    0    0  0.46757268998E+02 -0.22192755812E+02  0.93529298504E+02  0.13174023794E+03  0.77000000000E+02 0.  0.
   -5000001    1    1    2    0    0 -0.46757268998E+02  0.22192755812E+02  0.53831622134E+02  0.10726417928E+03  0.77000000000E+02 0.  0.
<mgrwt>
<rscale>  0 0.18816979E+03</rscale>
<asrwt>0</asrwt>
<pdfrwt beam="1">  1        2 0.70494998E-02 0.18816979E+03</pdfrwt>
<pdfrwt beam="2">  1       -2 0.29720410E-01 0.18816979E+03</pdfrwt>
<totfact> 0.10037795E+04</totfact>
</mgrwt>
</event>
<event>
 4    1  0.4991066E-004  0.4229834E+03  0.7818608E-02  0.1036100E+00
          2   -1    0    0  501    0  0.00000000000E+00  0.00000000000E+00  0.19970457705E+04  0.19970457705E+04  0.25500000000E-02 0.  1.
         -2   -1    0    0    0  501 -0.00000000000E+00 -0.00000000000E+00 -0.22397456374E+02  0.22397456519E+02  0.25500000000E-02 0. -1.
    5000001    1    1    2    0    0  0.89718899475E+02  0.16653013902E+03  0.12496048334E+04  0.12661844289E+04  0.77000000000E+02 0.  0.
   -5000001    1    1    2    0    0 -0.89718899475E+02 -0.16653013902E+03  0.72504348070E+03  0.75325879817E+03  0.77000000000E+02 0.  0.
<mgrwt>
<rscale>  0 0.42298343E+03</rscale>
<asrwt>0</asrwt>
<pdfrwt beam="1">  1        2 0.30723763E+00 0.42298343E+03</pdfrwt>
<pdfrwt beam="2">  1       -2 0.34457646E-02 0.42298343E+03</pdfrwt>
<totfact> 0.25480398E+03</totfact>
</mgrwt>
</event>
<event>
 4    1  0.4991066E-004  0.2316563E+03  0.7818608E-02  0.1125479E+00
          2   -1    0    0  501    0  0.00000000000E+00  0.00000000000E+00  0.22017641375E+04  0.22017641375E+04  0.25500000000E-02 0.  1.
         -2   -1    0    0    0  501 -0.00000000000E+00 -0.00000000000E+00 -0.60933689387E+01  0.60933694723E+01  0.25500000000E-02 0. -1.
    5000001    1    1    2    0    0  0.29411655513E+02 -0.65345008082E+02  0.15600663764E+04  0.15636083635E+04  0.77000000000E+02 0.  0.
   -5000001    1    1    2    0    0 -0.29411655513E+02  0.65345008082E+02  0.63560439214E+03  0.64424914347E+03  0.77000000000E+02 0.  0.
<mgrwt>
<rscale>  0 0.23165631E+03</rscale>
<asrwt>0</asrwt>
<pdfrwt beam="1">  1        2 0.33873246E+00 0.23165631E+03</pdfrwt>
<pdfrwt beam="2">  1       -2 0.93744275E-03 0.23165631E+03</pdfrwt>
<totfact> 0.13556979E+04</totfact>
</mgrwt>
</event>
<event>
 4    1  0.4991066E-004  0.1668138E+03  0.7818608E-02  0.1181212E+00
          2   -1    0    0  501    0  0.00000000000E+00  0.00000000000E+00  0.12515314550E+04  0.12515314550E+04  0.25500000000E-02 0.  1.
         -2   -1    0    0    0  501 -0.00000000000E+00 -0.00000000000E+00 -0.55585609731E+01  0.55585615580E+01  0.25500000000E-02 0. -1.
    5000001    1    1    2    0    0 -0.22382233860E+02 -0.20018998962E+02  0.70757304864E+03  0.71238356514E+03  0.77000000000E+02 0.  0.
   -5000001    1    1    2    0    0  0.22382233860E+02  0.20018998962E+02  0.53839984535E+03  0.54470645139E+03  0.77000000000E+02 0.  0.
<mgrwt>
<rscale>  0 0.16681384E+03</rscale>
<asrwt>0</asrwt>
<pdfrwt beam="1">  1        2 0.19254358E+00 0.16681384E+03</pdfrwt>
<pdfrwt beam="2">  1       -2 0.85516205E-03 0.16681384E+03</pdfrwt>
<totfact> 0.48127809E+04</totfact>
</mgrwt>
</event>
<event>
 4    1  0.4991066E-004  0.2193397E+03  0.7818608E-02  0.1134376E+00
          2   -1    0    0  501    0  0.00000000000E+00  0.00000000000E+00  0.12762436635E+03  0.12762436638E+03  0.25500000000E-02 0.  1.
         -2   -1    0    0    0  501 -0.00000000000E+00 -0.00000000000E+00 -0.94241253540E+02  0.94241253574E+02  0.25500000000E-02 0. -1.
    5000001    1    1    2    0    0 -0.62372204753E+02 -0.46719983976E+02  0.21792590331E+02  0.11170033940E+03  0.77000000000E+02 0.  0.
   -5000001    1    1    2    0    0  0.62372204753E+02  0.46719983976E+02  0.11590522484E+02  0.11016528056E+03  0.77000000000E+02 0.  0.
<mgrwt>
<rscale>  0 0.21933974E+03</rscale>
<asrwt>0</asrwt>
<pdfrwt beam="1">  1        2 0.19634518E-01 0.21933974E+03</pdfrwt>
<pdfrwt beam="2">  1       -2 0.14498654E-01 0.21933974E+03</pdfrwt>
<totfact> 0.10021316E+04</totfact>
</mgrwt>
</event>
<event>
 4    1  0.4991066E-004  0.2610874E+03  0.7818608E-02  0.1106492E+00
         -2   -1    0    0    0  501 -0.00000000000E+00  0.00000000000E+00  0.40894680558E+02  0.40894680638E+02  0.25500000000E-02 0. -1.
          2   -1    0    0  501    0  0.00000000000E+00 -0.00000000000E+00 -0.41672062292E+03  0.41672062293E+03  0.25500000000E-02 0.  1.
    5000001    1    1    2    0    0 -0.54501562663E+01 -0.10477785868E+03 -0.16999112740E+03  0.21408897045E+03  0.77000000000E+02 0.  0.
   -5000001    1    1    2    0    0  0.54501562663E+01  0.10477785868E+03 -0.20583481496E+03  0.24352633312E+03  0.77000000000E+02 0.  0.
<mgrwt>
<rscale>  0 0.26108739E+03</rscale>
<asrwt>0</asrwt>
<pdfrwt beam="1">  1        2 0.64110862E-01 0.26108739E+03</pdfrwt>
<pdfrwt beam="2">  1       -2 0.62914896E-02 0.26108739E+03</pdfrwt>
<totfact> 0.10393730E+04</totfact>
</mgrwt>
</event>
<event>
 4    1  0.4991066E-004  0.2588407E+03  0.7818608E-02  0.1107842E+00
         -2   -1    0    0    0  501 -0.00000000000E+00  0.00000000000E+00  0.31623539288E+02  0.31623539391E+02  0.25500000000E-02 0. -1.
          2   -1    0    0  501    0  0.00000000000E+00 -0.00000000000E+00 -0.52965708894E+03  0.52965708894E+03  0.25500000000E-02 0.  1.
    5000001    1    1    2    0    0  0.54838008389E+02  0.60530556935E+02 -0.10933360878E+03  0.15669713940E+03  0.77000000000E+02 0.  0.
   -5000001    1    1    2    0    0 -0.54838008389E+02 -0.60530556935E+02 -0.38869994087E+03  0.40458348894E+03  0.77000000000E+02 0.  0.
<mgrwt>
<rscale>  0 0.25884074E+03</rscale>
<asrwt>0</asrwt>
<pdfrwt beam="1">  1        2 0.81485700E-01 0.25884074E+03</pdfrwt>
<pdfrwt beam="2">  1       -2 0.48651603E-02 0.25884074E+03</pdfrwt>
<totfact> 0.11794747E+04</totfact>
</mgrwt>
</event>
<event>
 4    1  0.4991066E-004  0.2070754E+03  0.7818608E-02  0.1143903E+00
          2   -1    0    0  501    0  0.00000000000E+00  0.00000000000E+00  0.76768036142E+03  0.76768036142E+03  0.25500000000E-02 0.  1.
         -2   -1    0    0    0  501 -0.00000000000E+00 -0.00000000000E+00 -0.13964220235E+02  0.13964220468E+02  0.25500000000E-02 0. -1.
    5000001    1    1    2    0    0  0.36493964177E+02 -0.48284150482E+02  0.25008880690E+03  0.26858253842E+03  0.77000000000E+02 0.  0.
   -5000001    1    1    2    0    0 -0.36493964177E+02  0.48284150482E+02  0.50362733429E+03  0.51306204347E+03  0.77000000000E+02 0.  0.
<mgrwt>
<rscale>  0 0.20707542E+03</rscale>
<asrwt>0</asrwt>
<pdfrwt beam="1">  1        2 0.11810469E+00 0.20707542E+03</pdfrwt>
<pdfrwt beam="2">  1       -2 0.21483413E-02 0.20707542E+03</pdfrwt>
<totfact> 0.25406080E+04</totfact>
</mgrwt>
</event>
<event>
 4    1  0.4991066E-004  0.3208417E+03  0.7818608E-02  0.1075263E+00
          2   -1    0    0  501    0  0.00000000000E+00  0.00000000000E+00  0.97563919476E+03  0.97563919477E+03  0.25500000000E-02 0. -1.
         -2   -1    0    0    0  501 -0.00000000000E+00 -0.00000000000E+00 -0.26377422856E+02  0.26377422979E+02  0.25500000000E-02 0.  1.
    5000001    1    1    2    0    0  0.54106431209E+01  0.14031163472E+03  0.50413005557E+03  0.52895438634E+03  0.77000000000E+02 0.  0.
   -5000001    1    1    2    0    0 -0.54106431209E+01 -0.14031163472E+03  0.44513171633E+03  0.47306223141E+03  0.77000000000E+02 0.  0.
<mgrwt>
<rscale>  0 0.32084169E+03</rscale>
<asrwt>0</asrwt>
<pdfrwt beam="1">  1        2 0.15009834E+00 0.32084169E+03</pdfrwt>
<pdfrwt beam="2">  1       -2 0.40580649E-02 0.32084169E+03</pdfrwt>
<totfact> 0.73304512E+03</totfact>
</mgrwt>
</event>
<event>
 4    1  0.4991066E-004  0.3050373E+03  0.7818608E-02  0.1082749E+00
          2   -1    0    0  501    0  0.00000000000E+00  0.00000000000E+00  0.51018477231E+02  0.51018477295E+02  0.25500000000E-02 0.  1.
         -2   -1    0    0    0  501 -0.00000000000E+00 -0.00000000000E+00 -0.45595136799E+03  0.45595136800E+03  0.25500000000E-02 0. -1.
    5000001    1    1    2    0    0  0.27402705496E+02  0.12491116695E+03 -0.15045811105E+03  0.21194421691E+03  0.77000000000E+02 0.  0.
   -5000001    1    1    2    0    0 -0.27402705496E+02 -0.12491116695E+03 -0.25447477971E+03  0.29502562839E+03  0.77000000000E+02 0.  0.
<mgrwt>
<rscale>  0 0.30503734E+03</rscale>
<asrwt>0</asrwt>
<pdfrwt beam="1">  1        2 0.78489968E-02 0.30503734E+03</pdfrwt>
<pdfrwt beam="2">  1       -2 0.70146361E-01 0.30503734E+03</pdfrwt>
<totfact> 0.16577163E+03</totfact>
</mgrwt>
</event>
<event>
 4    1  0.4991066E-004  0.2857530E+03  0.7818608E-02  0.1092588E+00
          2   -1    0    0  501    0  0.00000000000E+00  0.00000000000E+00  0.17672812132E+04  0.17672812132E+04  0.25500000000E-02 0.  1.
         -2   -1    0    0    0  501 -0.00000000000E+00 -0.00000000000E+00 -0.11550899215E+02  0.11550899497E+02  0.25500000000E-02 0. -1.
    5000001    1    1    2    0    0  0.38425851030E+02 -0.10408015073E+03  0.11682140324E+04  0.11759941536E+04  0.77000000000E+02 0.  0.
   -5000001    1    1    2    0    0 -0.38425851030E+02  0.10408015073E+03  0.58751628159E+03  0.60283795911E+03  0.77000000000E+02 0.  0.
<mgrwt>
<rscale>  0 0.28575295E+03</rscale>
<asrwt>0</asrwt>
<pdfrwt beam="1">  1        2 0.27188937E+00 0.28575295E+03</pdfrwt>
<pdfrwt beam="2">  1       -2 0.17770617E-02 0.28575295E+03</pdfrwt>
<totfact> 0.90646516E+03</totfact>
</mgrwt>
</event>
<event>
 4    1  0.4991066E-004  0.3096011E+03  0.7818608E-02  0.1080537E+00
         -2   -1    0    0    0  501 -0.00000000000E+00  0.00000000000E+00  0.89918241914E+01  0.89918245530E+01  0.25500000000E-02 0. -1.
          2   -1    0    0  501    0  0.00000000000E+00 -0.00000000000E+00 -0.26649999563E+04  0.26649999563E+04  0.25500000000E-02 0.  1.
    5000001    1    1    2    0    0  0.12813910170E+03  0.18510996200E+02 -0.16360307546E+04  0.16429509781E+04  0.77000000000E+02 0.  0.
   -5000001    1    1    2    0    0 -0.12813910170E+03 -0.18510996200E+02 -0.10199773776E+04  0.10310408028E+04  0.77000000000E+02 0.  0.
<mgrwt>
<rscale>  0 0.30960111E+03</rscale>
<asrwt>0</asrwt>
<pdfrwt beam="1">  1        2 0.40999936E+00 0.30960111E+03</pdfrwt>
<pdfrwt beam="2">  1       -2 0.13833597E-02 0.30960111E+03</pdfrwt>
<totfact> 0.43083945E+03</totfact>
</mgrwt>
</event>
<event>
 4    1  0.4991066E-004  0.2425400E+03  0.7818608E-02  0.1118112E+00
         -2   -1    0    0    0  501 -0.00000000000E+00  0.00000000000E+00  0.74031572136E+01  0.74031576528E+01  0.25500000000E-02 0. -1.
          2   -1    0    0  501    0  0.00000000000E+00 -0.00000000000E+00 -0.19865051127E+04  0.19865051127E+04  0.25500000000E-02 0.  1.
    5000001    1    1    2    0    0 -0.47709609585E+02 -0.73428082166E+02 -0.12633862638E+04  0.12687559819E+04  0.77000000000E+02 0.  0.
   -5000001    1    1    2    0    0  0.47709609585E+02  0.73428082166E+02 -0.71571569172E+03  0.72515228847E+03  0.77000000000E+02 0.  0.
<mgrwt>
<rscale>  0 0.24253998E+03</rscale>
<asrwt>0</asrwt>
<pdfrwt beam="1">  1        2 0.30561575E+00 0.24253998E+03</pdfrwt>
<pdfrwt beam="2">  1       -2 0.11389489E-02 0.24253998E+03</pdfrwt>
<totfact> 0.13282440E+04</totfact>
</mgrwt>
</event>
<event>
 4    1  0.4991066E-004  0.2188296E+03  0.7818608E-02  0.1134759E+00
         -2   -1    0    0    0  501 -0.00000000000E+00  0.00000000000E+00  0.77730623866E+01  0.77730628048E+01  0.25500000000E-02 0. -1.
          2   -1    0    0  501    0  0.00000000000E+00 -0.00000000000E+00 -0.15401386571E+04  0.15401386571E+04  0.25500000000E-02 0.  1.
    5000001    1    1    2    0    0 -0.76553843558E+01  0.64142114441E+02 -0.46031393145E+03  0.47115892355E+03  0.77000000000E+02 0.  0.
   -5000001    1    1    2    0    0  0.76553843558E+01 -0.64142114441E+02 -0.10720516632E+04  0.10767527963E+04  0.77000000000E+02 0.  0.
<mgrwt>
<rscale>  0 0.21882956E+03</rscale>
<asrwt>0</asrwt>
<pdfrwt beam="1">  1        2 0.23694416E+00 0.21882956E+03</pdfrwt>
<pdfrwt beam="2">  1       -2 0.11958570E-02 0.21882956E+03</pdfrwt>
<totfact> 0.21121979E+04</totfact>
</mgrwt>
</event>
<event>
 4    1  0.4991066E-004  0.2420317E+03  0.7818608E-02  0.1118447E+00
          2   -1    0    0  501    0  0.00000000000E+00  0.00000000000E+00  0.18331788926E+03  0.18331788928E+03  0.25500000000E-02 0.  1.
         -2   -1    0    0    0  501 -0.00000000000E+00 -0.00000000000E+00 -0.79887640680E+02  0.79887640721E+02  0.25500000000E-02 0. -1.
    5000001    1    1    2    0    0 -0.33674220637E+02 -0.86503351470E+02  0.40892025585E+02  0.12734967887E+03  0.77000000000E+02 0.  0.
   -5000001    1    1    2    0    0  0.33674220637E+02  0.86503351470E+02  0.62538222994E+02  0.13585585113E+03  0.77000000000E+02 0.  0.
<mgrwt>
<rscale>  0 0.24203168E+03</rscale>
<asrwt>0</asrwt>
<pdfrwt beam="1">  1        2 0.28202752E-01 0.24203168E+03</pdfrwt>
<pdfrwt beam="2">  1       -2 0.12290406E-01 0.24203168E+03</pdfrwt>
<totfact> 0.87832237E+03</totfact>
</mgrwt>
</event>
<event>
 4    1  0.4991066E-004  0.1848632E+03  0.7818608E-02  0.1163178E+00
          2   -1    0    0  501    0  0.00000000000E+00  0.00000000000E+00  0.48972253472E+03  0.48972253473E+03  0.25500000000E-02 0.  1.
         -2   -1    0    0    0  501 -0.00000000000E+00 -0.00000000000E+00 -0.17445799261E+02  0.17445799447E+02  0.25500000000E-02 0. -1.
    5000001    1    1    2    0    0 -0.21265650470E+02  0.46491498499E+02  0.23351585342E+03  0.25114207358E+03  0.77000000000E+02 0.  0.
   -5000001    1    1    2    0    0  0.21265650470E+02 -0.46491498499E+02  0.23876088204E+03  0.25602626059E+03  0.77000000000E+02 0.  0.
<mgrwt>
<rscale>  0 0.18486320E+03</rscale>
<asrwt>0</asrwt>
<pdfrwt beam="1">  1        2 0.75341933E-01 0.18486320E+03</pdfrwt>
<pdfrwt beam="2">  1       -2 0.26839690E-02 0.18486320E+03</pdfrwt>
<totfact> 0.30631305E+04</totfact>
</mgrwt>
</event>
<event>
 4    1  0.4991066E-004  0.2561863E+03  0.7818608E-02  0.1109456E+00
          2   -1    0    0  501    0  0.00000000000E+00  0.00000000000E+00  0.20922078988E+04  0.20922078988E+04  0.25500000000E-02 0.  1.
         -2   -1    0    0    0  501 -0.00000000000E+00 -0.00000000000E+00 -0.78423629556E+01  0.78423633702E+01  0.25500000000E-02 0. -1.
    5000001    1    1    2    0    0 -0.57894540163E+02 -0.72850595869E+02  0.13918811572E+04  0.13971117145E+04  0.77000000000E+02 0.  0.
   -5000001    1    1    2    0    0  0.57894540163E+02  0.72850595869E+02  0.69248437866E+03  0.70293854766E+03  0.77000000000E+02 0.  0.
<mgrwt>
<rscale>  0 0.25618629E+03</rscale>
<asrwt>0</asrwt>
<pdfrwt beam="1">  1        2 0.32187867E+00 0.25618629E+03</pdfrwt>
<pdfrwt beam="2">  1       -2 0.12065154E-02 0.25618629E+03</pdfrwt>
<totfact> 0.10760455E+04</totfact>
</mgrwt>
</event>
<event>
 4    1  0.4991066E-004  0.2739381E+03  0.7818608E-02  0.1099047E+00
          2   -1    0    0  501    0  0.00000000000E+00  0.00000000000E+00  0.81474026918E+03  0.81474026918E+03  0.25500000000E-02 0.  1.
         -2   -1    0    0    0  501 -0.00000000000E+00 -0.00000000000E+00 -0.23026381835E+02  0.23026381976E+02  0.25500000000E-02 0. -1.
    5000001    1    1    2    0    0 -0.73514018547E+02 -0.84709861423E+02  0.34736209267E+03  0.37305427885E+03  0.77000000000E+02 0.  0.
   -5000001    1    1    2    0    0  0.73514018547E+02  0.84709861423E+02  0.44435179467E+03  0.46471237231E+03  0.77000000000E+02 0.  0.
<mgrwt>
<rscale>  0 0.27393810E+03</rscale>
<asrwt>0</asrwt>
<pdfrwt beam="1">  1        2 0.12534465E+00 0.27393810E+03</pdfrwt>
<pdfrwt beam="2">  1       -2 0.35425206E-02 0.27393810E+03</pdfrwt>
<totfact> 0.11397181E+04</totfact>
</mgrwt>
</event>
<event>
 4    1  0.4991066E-004  0.2651063E+03  0.7818608E-02  0.1104114E+00
          2   -1    0    0  501    0  0.00000000000E+00  0.00000000000E+00  0.49593820637E+03  0.49593820638E+03  0.25500000000E-02 0.  1.
         -2   -1    0    0    0  501 -0.00000000000E+00 -0.00000000000E+00 -0.35428469117E+02  0.35428469209E+02  0.25500000000E-02 0. -1.
    5000001    1    1    2    0    0 -0.11695818230E+01 -0.84064432971E+02  0.36579919250E+03  0.38315303215E+03  0.77000000000E+02 0.  0.
   -5000001    1    1    2    0    0  0.11695818230E+01  0.84064432971E+02  0.94710544749E+02  0.14821364343E+03  0.77000000000E+02 0.  0.
<mgrwt>
<rscale>  0 0.26510625E+03</rscale>
<asrwt>0</asrwt>
<pdfrwt beam="1">  1        2 0.76298180E-01 0.26510625E+03</pdfrwt>
<pdfrwt beam="2">  1       -2 0.54505341E-02 0.26510625E+03</pdfrwt>
<totfact> 0.10694694E+04</totfact>
</mgrwt>
</event>
<event>
 4    1  0.4991066E-004  0.2075847E+03  0.7818608E-02  0.1143493E+00
          2   -1    0    0  501    0  0.00000000000E+00  0.00000000000E+00  0.90693164118E+01  0.90693167703E+01  0.25500000000E-02 0.  1.
         -2   -1    0    0    0  501 -0.00000000000E+00 -0.00000000000E+00 -0.11878352533E+04  0.11878352533E+04  0.25500000000E-02 0. -1.
    5000001    1    1    2    0    0  0.62601553878E+02  0.21218945831E+02 -0.46376449188E+03  0.47473750867E+03  0.77000000000E+02 0.  0.
   -5000001    1    1    2    0    0 -0.62601553878E+02 -0.21218945831E+02 -0.71500144498E+03  0.72216706137E+03  0.77000000000E+02 0.  0.
<mgrwt>
<rscale>  0 0.20758472E+03</rscale>
<asrwt>0</asrwt>
<pdfrwt beam="1">  1        2 0.13952804E-02 0.20758472E+03</pdfrwt>
<pdfrwt beam="2">  1       -2 0.18274376E+00 0.20758472E+03</pdfrwt>
<totfact> 0.16648428E+03</totfact>
</mgrwt>
</event>
<event>
 4    1  0.4991066E-004  0.2227194E+03  0.7818608E-02  0.1131872E+00
         -2   -1    0    0    0  501 -0.00000000000E+00  0.00000000000E+00  0.11618419978E+02  0.11618420258E+02  0.25500000000E-02 0. -1.
          2   -1    0    0  501    0  0.00000000000E+00 -0.00000000000E+00 -0.10673553980E+04  0.10673553980E+04  0.25500000000E-02 0.  1.
    5000001    1    1    2    0    0 -0.40951284502E+02  0.69243952600E+02 -0.53029443177E+03  0.54186060666E+03  0.77000000000E+02 0.  0.
   -5000001    1    1    2    0    0  0.40951284502E+02 -0.69243952600E+02 -0.52544254627E+03  0.53711321162E+03  0.77000000000E+02 0.  0.
<mgrwt>
<rscale>  0 0.22271941E+03</rscale>
<asrwt>0</asrwt>
<pdfrwt beam="1">  1        2 0.16420845E+00 0.22271941E+03</pdfrwt>
<pdfrwt beam="2">  1       -2 0.17874501E-02 0.22271941E+03</pdfrwt>
<totfact> 0.21496800E+04</totfact>
</mgrwt>
</event>
<event>
 4    1  0.4991066E-004  0.2973425E+03  0.7818608E-02  0.1086577E+00
         -2   -1    0    0    0  501 -0.00000000000E+00  0.00000000000E+00  0.34245137078E+03  0.34245137079E+03  0.25500000000E-02 0. -1.
          2   -1    0    0  501    0  0.00000000000E+00 -0.00000000000E+00 -0.64543872409E+02  0.64543872460E+02  0.25500000000E-02 0.  1.
    5000001    1    1    2    0    0  0.55735367394E+01 -0.11450905530E+03  0.21430793780E+03  0.25495152532E+03  0.77000000000E+02 0.  0.
   -5000001    1    1    2    0    0 -0.55735367394E+01  0.11450905530E+03  0.63599560569E+02  0.15204371793E+03  0.77000000000E+02 0.  0.
<mgrwt>
<rscale>  0 0.29734248E+03</rscale>
<asrwt>0</asrwt>
<pdfrwt beam="1">  1        2 0.99298267E-02 0.29734248E+03</pdfrwt>
<pdfrwt beam="2">  1       -2 0.52684825E-01 0.29734248E+03</pdfrwt>
<totfact> 0.22344414E+03</totfact>
</mgrwt>
</event>
<event>
 4    1  0.4991066E-004  0.2510930E+03  0.7818608E-02  0.1112616E+00
          2   -1    0    0  501    0  0.00000000000E+00  0.00000000000E+00  0.38687201001E+03  0.38687201002E+03  0.25500000000E-02 0.  1.
         -2   -1    0    0    0  501 -0.00000000000E+00 -0.00000000000E+00 -0.40741959217E+02  0.40741959297E+02  0.25500000000E-02 0. -1.
    5000001    1    1    2    0    0 -0.44199728006E+02 -0.79633401673E+02  0.23984885352E+03  0.26786483000E+03  0.77000000000E+02 0.  0.
   -5000001    1    1    2    0    0  0.44199728006E+02  0.79633401673E+02  0.10628119728E+03  0.15974913932E+03  0.77000000000E+02 0.  0.
<mgrwt>
<rscale>  0 0.25109300E+03</rscale>
<asrwt>0</asrwt>
<pdfrwt beam="1">  1        2 0.59518770E-01 0.25109300E+03</pdfrwt>
<pdfrwt beam="2">  1       -2 0.62679938E-02 0.25109300E+03</pdfrwt>
<totfact> 0.11312108E+04</totfact>
</mgrwt>
</event>
<event>
 4    1  0.4991066E-004  0.1861512E+03  0.7818608E-02  0.1161979E+00
         -2   -1    0    0    0  501 -0.00000000000E+00  0.00000000000E+00  0.70544999817E+01  0.70545004426E+01  0.25500000000E-02 0. -1.
          2   -1    0    0  501    0  0.00000000000E+00 -0.00000000000E+00 -0.12280194739E+04  0.12280194740E+04  0.25500000000E-02 0.  1.
    5000001    1    1    2    0    0 -0.60862921197E+01  0.27039827060E+02 -0.31630837721E+03  0.32672340702E+03  0.77000000000E+02 0.  0.
   -5000001    1    1    2    0    0  0.60862921197E+01 -0.27039827060E+02 -0.90465659676E+03  0.90835056738E+03  0.77000000000E+02 0.  0.
<mgrwt>
<rscale>  0 0.18615116E+03</rscale>
<asrwt>0</asrwt>
<pdfrwt beam="1">  1        2 0.18892590E+00 0.18615116E+03</pdfrwt>
<pdfrwt beam="2">  1       -2 0.10853087E-02 0.18615116E+03</pdfrwt>
<totfact> 0.35495364E+04</totfact>
</mgrwt>
</event>
<event>
 4    1  0.4991066E-004  0.2815290E+03  0.7818608E-02  0.1094857E+00
          2   -1    0    0  501    0  0.00000000000E+00  0.00000000000E+00  0.19523116725E+03  0.19523116727E+03  0.25500000000E-02 0.  1.
         -2   -1    0    0    0  501 -0.00000000000E+00 -0.00000000000E+00 -0.10149327034E+03  0.10149327038E+03  0.25500000000E-02 0. -1.
    5000001    1    1    2    0    0 -0.48531731970E+02  0.81228662778E+02 -0.27151474124E+02  0.12497850700E+03  0.77000000000E+02 0.  0.
   -5000001    1    1    2    0    0  0.48531731970E+02 -0.81228662778E+02  0.12088937103E+03  0.17174593065E+03  0.77000000000E+02 0.  0.
<mgrwt>
<rscale>  0 0.28152904E+03</rscale>
<asrwt>0</asrwt>
<pdfrwt beam="1">  1        2 0.30035564E-01 0.28152904E+03</pdfrwt>
<pdfrwt beam="2">  1       -2 0.15614350E-01 0.28152904E+03</pdfrwt>
<totfact> 0.55729811E+03</totfact>
</mgrwt>
</event>
<event>
 4    1  0.4991066E-004  0.5091347E+03  0.7818608E-02  0.1011422E+00
          2   -1    0    0  501    0  0.00000000000E+00  0.00000000000E+00  0.11398563550E+03  0.11398563552E+03  0.25500000000E-02 0.  1.
         -2   -1    0    0    0  501 -0.00000000000E+00 -0.00000000000E+00 -0.56853238296E+03  0.56853238296E+03  0.25500000000E-02 0. -1.
    5000001    1    1    2    0    0 -0.26500897673E+02 -0.17395166379E+03 -0.33018238807E+01  0.19209732157E+03  0.77000000000E+02 0.  0.
   -5000001    1    1    2    0    0  0.26500897673E+02  0.17395166379E+03 -0.45124492358E+03  0.49042069692E+03  0.77000000000E+02 0.  0.
<mgrwt>
<rscale>  0 0.50913466E+03</rscale>
<asrwt>0</asrwt>
<pdfrwt beam="1">  1        2 0.17536252E-01 0.50913466E+03</pdfrwt>
<pdfrwt beam="2">  1       -2 0.87466519E-01 0.50913466E+03</pdfrwt>
<totfact> 0.37879378E+02</totfact>
</mgrwt>
</event>
<event>
 4    1  0.4991066E-004  0.1878268E+03  0.7818608E-02  0.1160436E+00
         -2   -1    0    0    0  501 -0.00000000000E+00  0.00000000000E+00  0.40387208569E+01  0.40387216619E+01  0.25500000000E-02 0. -1.
          2   -1    0    0  501    0  0.00000000000E+00 -0.00000000000E+00 -0.21837922933E+04  0.21837922933E+04  0.25500000000E-02 0.  1.
    5000001    1    1    2    0    0  0.22747095739E+02 -0.41617601224E+02 -0.13848467143E+04  0.13877964106E+04  0.77000000000E+02 0.  0.
   -5000001    1    1    2    0    0 -0.22747095739E+02  0.41617601224E+02 -0.79490685810E+03  0.80003460435E+03  0.77000000000E+02 0.  0.
<mgrwt>
<rscale>  0 0.18782682E+03</rscale>
<asrwt>0</asrwt>
<pdfrwt beam="1">  1        2 0.33596710E+00 0.18782682E+03</pdfrwt>
<pdfrwt beam="2">  1       -2 0.62134348E-03 0.18782682E+03</pdfrwt>
<totfact> 0.24869577E+04</totfact>
</mgrwt>
</event>
<event>
 4    1  0.4991066E-004  0.2449080E+03  0.7818608E-02  0.1116566E+00
         -2   -1    0    0    0  501 -0.00000000000E+00  0.00000000000E+00  0.29673489823E+02  0.29673489932E+02  0.25500000000E-02 0. -1.
          2   -1    0    0  501    0  0.00000000000E+00 -0.00000000000E+00 -0.50533264521E+03  0.50533264522E+03  0.25500000000E-02 0.  1.
    5000001    1    1    2    0    0 -0.45969685124E+02 -0.83375547127E+02 -0.24031006648E+03  0.26970840154E+03  0.77000000000E+02 0.  0.
   -5000001    1    1    2    0    0  0.45969685124E+02  0.83375547127E+02 -0.23534908891E+03  0.26529773361E+03  0.77000000000E+02 0.  0.
<mgrwt>
<rscale>  0 0.24490801E+03</rscale>
<asrwt>0</asrwt>
<pdfrwt beam="1">  1        2 0.77743477E-01 0.24490801E+03</pdfrwt>
<pdfrwt beam="2">  1       -2 0.45651527E-02 0.24490801E+03</pdfrwt>
<totfact> 0.13655959E+04</totfact>
</mgrwt>
</event>
<event>
 4    1  0.4991066E-004  0.4122111E+03  0.7818608E-02  0.1039632E+00
         -2   -1    0    0    0  501 -0.00000000000E+00  0.00000000000E+00  0.52519460450E+02  0.52519460512E+02  0.25500000000E-02 0. -1.
          2   -1    0    0  501    0  0.00000000000E+00 -0.00000000000E+00 -0.80883355944E+03  0.80883355944E+03  0.25500000000E-02 0.  1.
    5000001    1    1    2    0    0 -0.18522180408E+03 -0.47318406200E+02 -0.38251718790E+03  0.43450494509E+03  0.77000000000E+02 0.  0.
   -5000001    1    1    2    0    0  0.18522180408E+03  0.47318406200E+02 -0.37379691109E+03  0.42684807486E+03  0.77000000000E+02 0.  0.
<mgrwt>
<rscale>  0 0.41221112E+03</rscale>
<asrwt>0</asrwt>
<pdfrwt beam="1">  1        2 0.12443592E+00 0.41221112E+03</pdfrwt>
<pdfrwt beam="2">  1       -2 0.80799176E-02 0.41221112E+03</pdfrwt>
<totfact> 0.32720449E+03</totfact>
</mgrwt>
</event>
<event>
 4    1  0.4991066E-004  0.1689361E+03  0.7818608E-02  0.1178962E+00
          2   -1    0    0  501    0  0.00000000000E+00  0.00000000000E+00  0.23940944679E+03  0.23940944680E+03  0.25500000000E-02 0.  1.
         -2   -1    0    0    0  501 -0.00000000000E+00 -0.00000000000E+00 -0.29801869036E+02  0.29801869145E+02  0.25500000000E-02 0. -1.
    5000001    1    1    2    0    0  0.28249079733E+02 -0.14210745259E+02  0.81937697550E+02  0.11680214924E+03  0.77000000000E+02 0.  0.
   -5000001    1    1    2    0    0 -0.28249079733E+02  0.14210745259E+02  0.12766988020E+03  0.15240916671E+03  0.77000000000E+02 0.  0.
<mgrwt>
<rscale>  0 0.16893607E+03</rscale>
<asrwt>0</asrwt>
<pdfrwt beam="1">  1        2 0.36832225E-01 0.16893607E+03</pdfrwt>
<pdfrwt beam="2">  1       -2 0.45849027E-02 0.16893607E+03</pdfrwt>
<totfact> 0.29589892E+04</totfact>
</mgrwt>
</event>
<event>
 4    1  0.4991066E-004  0.1770378E+03  0.7818608E-02  0.1170701E+00
          2   -1    0    0  501    0  0.00000000000E+00  0.00000000000E+00  0.11757146137E+04  0.11757146137E+04  0.25500000000E-02 0.  1.
         -2   -1    0    0    0  501 -0.00000000000E+00 -0.00000000000E+00 -0.66645384201E+01  0.66645389080E+01  0.25500000000E-02 0. -1.
    5000001    1    1    2    0    0 -0.29572980724E+02  0.27842088815E+02  0.47748836930E+03  0.48535954294E+03  0.77000000000E+02 0.  0.
   -5000001    1    1    2    0    0  0.29572980724E+02 -0.27842088815E+02  0.69156170594E+03  0.69701960964E+03  0.77000000000E+02 0.  0.
<mgrwt>
<rscale>  0 0.17703780E+03</rscale>
<asrwt>0</asrwt>
<pdfrwt beam="1">  1        2 0.18087908E+00 0.17703780E+03</pdfrwt>
<pdfrwt beam="2">  1       -2 0.10253141E-02 0.17703780E+03</pdfrwt>
<totfact> 0.41062447E+04</totfact>
</mgrwt>
</event>
<event>
 4    1  0.4991066E-004  0.5696317E+03  0.7818608E-02  0.9970494E-01
          2   -1    0    0  501    0  0.00000000000E+00  0.00000000000E+00  0.47099417658E+03  0.47099417658E+03  0.25500000000E-02 0.  1.
         -2   -1    0    0    0  501 -0.00000000000E+00 -0.00000000000E+00 -0.17223157814E+03  0.17223157816E+03  0.25500000000E-02 0. -1.
    5000001    1    1    2    0    0 -0.23077670920E+03  0.30298051600E+02 -0.14313969028E+02  0.24558043723E+03  0.77000000000E+02 0.  0.
   -5000001    1    1    2    0    0  0.23077670920E+03 -0.30298051600E+02  0.31307656747E+03  0.39764531751E+03  0.77000000000E+02 0.  0.
<mgrwt>
<rscale>  0 0.56963171E+03</rscale>
<asrwt>0</asrwt>
<pdfrwt beam="1">  1        2 0.72460643E-01 0.56963171E+03</pdfrwt>
<pdfrwt beam="2">  1       -2 0.26497166E-01 0.56963171E+03</pdfrwt>
<totfact> 0.85441943E+02</totfact>
</mgrwt>
</event>
<event>
 4    1  0.4991066E-004  0.1988527E+03  0.7818608E-02  0.1150711E+00
         -2   -1    0    0    0  501 -0.00000000000E+00  0.00000000000E+00  0.92822859653E+01  0.92822863156E+01  0.25500000000E-02 0. -1.
          2   -1    0    0  501    0  0.00000000000E+00 -0.00000000000E+00 -0.10649962922E+04  0.10649962922E+04  0.25500000000E-02 0.  1.
    5000001    1    1    2    0    0  0.54693086218E+00 -0.52448299409E+02 -0.34028635665E+03  0.35281004488E+03  0.77000000000E+02 0.  0.
   -5000001    1    1    2    0    0 -0.54693086218E+00  0.52448299409E+02 -0.71542764959E+03  0.72146853364E+03  0.77000000000E+02 0.  0.
<mgrwt>
<rscale>  0 0.19885271E+03</rscale>
<asrwt>0</asrwt>
<pdfrwt beam="1">  1        2 0.16384549E+00 0.19885271E+03</pdfrwt>
<pdfrwt beam="2">  1       -2 0.14280449E-02 0.19885271E+03</pdfrwt>
<totfact> 0.29705383E+04</totfact>
</mgrwt>
</event>
<event>
 4    1  0.4991066E-004  0.1879409E+03  0.7818608E-02  0.1160332E+00
         -2   -1    0    0    0  501 -0.00000000000E+00  0.00000000000E+00  0.18145620245E+03  0.18145620247E+03  0.25500000000E-02 0. -1.
          2   -1    0    0  501    0  0.00000000000E+00 -0.00000000000E+00 -0.48664314315E+02  0.48664314382E+02  0.25500000000E-02 0.  1.
    5000001    1    1    2    0    0 -0.49267935613E+02  0.18038393150E+02  0.81328403310E+02  0.12367708879E+03  0.77000000000E+02 0.  0.
   -5000001    1    1    2    0    0  0.49267935613E+02 -0.18038393150E+02  0.51463484827E+02  0.10644342806E+03  0.77000000000E+02 0.  0.
<mgrwt>
<rscale>  0 0.18794086E+03</rscale>
<asrwt>0</asrwt>
<pdfrwt beam="1">  1        2 0.74868177E-02 0.18794086E+03</pdfrwt>
<pdfrwt beam="2">  1       -2 0.27916338E-01 0.18794086E+03</pdfrwt>
<totfact> 0.10401470E+04</totfact>
</mgrwt>
</event>
<event>
 4    1  0.4991066E-004  0.3709668E+03  0.7818608E-02  0.1054324E+00
         -2   -1    0    0    0  501 -0.00000000000E+00  0.00000000000E+00  0.23013711610E+02  0.23013711751E+02  0.25500000000E-02 0. -1.
          2   -1    0    0  501    0  0.00000000000E+00 -0.00000000000E+00 -0.14949388727E+04  0.14949388727E+04  0.25500000000E-02 0.  1.
    5000001    1    1    2    0    0  0.60954791162E+02 -0.10419492488E+03 -0.25348428240E+03  0.29112772173E+03  0.77000000000E+02 0.  0.
   -5000001    1    1    2    0    0 -0.60954791162E+02  0.10419492488E+03 -0.12184408787E+04  0.12268248628E+04  0.77000000000E+02 0.  0.
<mgrwt>
<rscale>  0 0.37096680E+03</rscale>
<asrwt>0</asrwt>
<pdfrwt beam="1">  1        2 0.22999052E+00 0.37096680E+03</pdfrwt>
<pdfrwt beam="2">  1       -2 0.35405722E-02 0.37096680E+03</pdfrwt>
<totfact> 0.45462793E+03</totfact>
</mgrwt>
</event>
<event>
 4    1  0.4991066E-004  0.2294216E+03  0.7818608E-02  0.1127048E+00
         -2   -1    0    0    0  501 -0.00000000000E+00  0.00000000000E+00  0.61590331027E+01  0.61590336306E+01  0.25500000000E-02 0. -1.
          2   -1    0    0  501    0  0.00000000000E+00 -0.00000000000E+00 -0.21364659139E+04  0.21364659139E+04  0.25500000000E-02 0.  1.
    5000001    1    1    2    0    0  0.66964286630E+02 -0.49757913178E+02 -0.12184705688E+04  0.12237481737E+04  0.77000000000E+02 0.  0.
   -5000001    1    1    2    0    0 -0.66964286630E+02  0.49757913178E+02 -0.91183631201E+03  0.91887677384E+03  0.77000000000E+02 0.  0.
<mgrwt>
<rscale>  0 0.22942158E+03</rscale>
<asrwt>0</asrwt>
<pdfrwt beam="1">  1        2 0.32868647E+00 0.22942158E+03</pdfrwt>
<pdfrwt beam="2">  1       -2 0.94754530E-03 0.22942158E+03</pdfrwt>
<totfact> 0.14447390E+04</totfact>
</mgrwt>
</event>
<event>
 4    1  0.4991066E-004  0.2332502E+03  0.7818608E-02  0.1124373E+00
         -2   -1    0    0    0  501 -0.00000000000E+00  0.00000000000E+00  0.85726594560E+01  0.85726598353E+01  0.25500000000E-02 0. -1.
          2   -1    0    0  501    0  0.00000000000E+00 -0.00000000000E+00 -0.15866043036E+04  0.15866043036E+04  0.25500000000E-02 0.  1.
    5000001    1    1    2    0    0 -0.76414463451E+02 -0.42228960917E+02 -0.83735646652E+03  0.84540955009E+03  0.77000000000E+02 0.  0.
   -5000001    1    1    2    0    0  0.76414463451E+02  0.42228960917E+02 -0.74067517759E+03  0.74976741331E+03  0.77000000000E+02 0.  0.
<mgrwt>
<rscale>  0 0.23325024E+03</rscale>
<asrwt>0</asrwt>
<pdfrwt beam="1">  1        2 0.24409274E+00 0.23325024E+03</pdfrwt>
<pdfrwt beam="2">  1       -2 0.13188720E-02 0.23325024E+03</pdfrwt>
<totfact> 0.17361541E+04</totfact>
</mgrwt>
</event>
<event>
 4    1  0.4991066E-004  0.2678884E+03  0.7818608E-02  0.1102494E+00
          2   -1    0    0  501    0  0.00000000000E+00  0.00000000000E+00  0.72112684965E+02  0.72112685010E+02  0.25500000000E-02 0.  1.
         -2   -1    0    0    0  501 -0.00000000000E+00 -0.00000000000E+00 -0.24879176737E+03  0.24879176739E+03  0.25500000000E-02 0. -1.
    5000001    1    1    2    0    0  0.79849402836E+02  0.18544709091E+02 -0.11949565690E+01  0.11247338036E+03  0.77000000000E+02 0.  0.
   -5000001    1    1    2    0    0 -0.79849402836E+02 -0.18544709091E+02 -0.17548412584E+03  0.20843107203E+03  0.77000000000E+02 0.  0.
<mgrwt>
<rscale>  0 0.26788835E+03</rscale>
<asrwt>0</asrwt>
<pdfrwt beam="1">  1        2 0.11094259E-01 0.26788835E+03</pdfrwt>
<pdfrwt beam="2">  1       -2 0.38275656E-01 0.26788835E+03</pdfrwt>
<totfact> 0.36275991E+03</totfact>
</mgrwt>
</event>
<event>
 4    1  0.4991066E-004  0.2018406E+03  0.7818608E-02  0.1148195E+00
          2   -1    0    0  501    0  0.00000000000E+00  0.00000000000E+00  0.84944580794E+03  0.84944580794E+03  0.25500000000E-02 0.  1.
         -2   -1    0    0    0  501 -0.00000000000E+00 -0.00000000000E+00 -0.11990055427E+02  0.11990055698E+02  0.25500000000E-02 0. -1.
    5000001    1    1    2    0    0  0.32538621157E+02  0.19000697494E+02  0.64601580090E+03  0.65167875781E+03  0.77000000000E+02 0.  0.
   -5000001    1    1    2    0    0 -0.32538621157E+02 -0.19000697494E+02  0.19143995161E+03  0.20975710583E+03  0.77000000000E+02 0.  0.
<mgrwt>
<rscale>  0 0.20184056E+03</rscale>
<asrwt>0</asrwt>
<pdfrwt beam="1">  1        2 0.13068400E+00 0.20184056E+03</pdfrwt>
<pdfrwt beam="2">  1       -2 0.18446235E-02 0.20184056E+03</pdfrwt>
<totfact> 0.27884210E+04</totfact>
</mgrwt>
</event>
<event>
 4    1  0.4991066E-004  0.7721470E+03  0.7818608E-02  0.9601232E-01
         -2   -1    0    0    0  501 -0.00000000000E+00  0.00000000000E+00  0.17368257428E+03  0.17368257430E+03  0.25500000000E-02 0. -1.
          2   -1    0    0  501    0  0.00000000000E+00 -0.00000000000E+00 -0.85819047209E+03  0.85819047209E+03  0.25500000000E-02 0.  1.
    5000001    1    1    2    0    0  0.20135106939E+03 -0.31533110353E+03 -0.41723093317E+03  0.56567358927E+03  0.77000000000E+02 0.  0.
   -5000001    1    1    2    0    0 -0.20135106939E+03  0.31533110353E+03 -0.26727696464E+03  0.46619945712E+03  0.77000000000E+02 0.  0.
<mgrwt>
<rscale>  0 0.77214696E+03</rscale>
<asrwt>0</asrwt>
<pdfrwt beam="1">  1        2 0.13202930E+00 0.77214696E+03</pdfrwt>
<pdfrwt beam="2">  1       -2 0.26720397E-01 0.77214696E+03</pdfrwt>
<totfact> 0.39975697E+02</totfact>
</mgrwt>
</event>
<event>
 4    1  0.4991066E-004  0.1833068E+03  0.7818608E-02  0.1164641E+00
          2   -1    0    0  501    0  0.00000000000E+00  0.00000000000E+00  0.65152086757E+02  0.65152086807E+02  0.25500000000E-02 0.  1.
         -2   -1    0    0    0  501 -0.00000000000E+00 -0.00000000000E+00 -0.12893442770E+03  0.12893442773E+03  0.25500000000E-02 0. -1.
    5000001    1    1    2    0    0  0.40132417349E+02 -0.10549857163E+02 -0.60876898055E+02  0.10656879058E+03  0.77000000000E+02 0.  0.
   -5000001    1    1    2    0    0 -0.40132417349E+02  0.10549857163E+02 -0.29054428914E+01  0.87517723958E+02  0.77000000000E+02 0.  0.
<mgrwt>
<rscale>  0 0.18330681E+03</rscale>
<asrwt>0</asrwt>
<pdfrwt beam="1">  1        2 0.10023398E-01 0.18330681E+03</pdfrwt>
<pdfrwt beam="2">  1       -2 0.19836066E-01 0.18330681E+03</pdfrwt>
<totfact> 0.13054395E+04</totfact>
</mgrwt>
</event>
<event>
 4    1  0.4991066E-004  0.2101966E+03  0.7818608E-02  0.1141410E+00
         -2   -1    0    0    0  501 -0.00000000000E+00  0.00000000000E+00  0.17172550613E+04  0.17172550613E+04  0.25500000000E-02 0. -1.
          2   -1    0    0  501    0  0.00000000000E+00 -0.00000000000E+00 -0.64321536720E+01  0.64321541775E+01  0.25500000000E-02 0.  1.
    5000001    1    1    2    0    0  0.28117498569E+02  0.43361533021E+02  0.44985976546E+03  0.45931865284E+03  0.77000000000E+02 0.  0.
   -5000001    1    1    2    0    0 -0.28117498569E+02 -0.43361533021E+02  0.12609631422E+04  0.12643685627E+04  0.77000000000E+02 0.  0.
<mgrwt>
<rscale>  0 0.21019656E+03</rscale>
<asrwt>0</asrwt>
<pdfrwt beam="1">  1        2 0.98956117E-03 0.21019656E+03</pdfrwt>
<pdfrwt beam="2">  1       -2 0.26419335E+00 0.21019656E+03</pdfrwt>
<totfact> 0.86093765E+02</totfact>
</mgrwt>
</event>
<event>
 4    1  0.4991066E-004  0.2394068E+03  0.7818608E-02  0.1120189E+00
          2   -1    0    0  501    0  0.00000000000E+00  0.00000000000E+00  0.14317328085E+04  0.14317328085E+04  0.25500000000E-02 0.  1.
         -2   -1    0    0    0  501 -0.00000000000E+00 -0.00000000000E+00 -0.10008082148E+02  0.10008082473E+02  0.25500000000E-02 0. -1.
    5000001    1    1    2    0    0  0.31813947445E+02 -0.85023258214E+02  0.63496952291E+03  0.64603125057E+03  0.77000000000E+02 0.  0.
   -5000001    1    1    2    0    0 -0.31813947445E+02  0.85023258214E+02  0.78675520347E+03  0.79570964043E+03  0.77000000000E+02 0.  0.
<mgrwt>
<rscale>  0 0.23940677E+03</rscale>
<asrwt>0</asrwt>
<pdfrwt beam="1">  1        2 0.22026660E+00 0.23940677E+03</pdfrwt>
<pdfrwt beam="2">  1       -2 0.15397048E-02 0.23940677E+03</pdfrwt>
<totfact> 0.16768612E+04</totfact>
</mgrwt>
</event>
<event>
 4    1  0.4991066E-004  0.1953104E+03  0.7818608E-02  0.1153757E+00
         -2   -1    0    0    0  501 -0.00000000000E+00  0.00000000000E+00  0.38205162616E+02  0.38205162701E+02  0.25500000000E-02 0. -1.
          2   -1    0    0  501    0  0.00000000000E+00 -0.00000000000E+00 -0.24961395325E+03  0.24961395327E+03  0.25500000000E-02 0.  1.
    5000001    1    1    2    0    0 -0.36942119865E+02  0.41574093587E+02 -0.13912786307E+03  0.16845975116E+03  0.77000000000E+02 0.  0.
   -5000001    1    1    2    0    0  0.36942119865E+02 -0.41574093587E+02 -0.72280927569E+02  0.11935936481E+03  0.77000000000E+02 0.  0.
<mgrwt>
<rscale>  0 0.19531044E+03</rscale>
<asrwt>0</asrwt>
<pdfrwt beam="1">  1        2 0.38402146E-01 0.19531044E+03</pdfrwt>
<pdfrwt beam="2">  1       -2 0.58777175E-02 0.19531044E+03</pdfrwt>
<totfact> 0.19671599E+04</totfact>
</mgrwt>
</event>
<event>
 4    1  0.4991066E-004  0.3167412E+03  0.7818608E-02  0.1077159E+00
          2   -1    0    0  501    0  0.00000000000E+00  0.00000000000E+00  0.63355656049E+03  0.63355656049E+03  0.25500000000E-02 0.  1.
         -2   -1    0    0    0  501 -0.00000000000E+00 -0.00000000000E+00 -0.39588017029E+02  0.39588017111E+02  0.25500000000E-02 0. -1.
    5000001    1    1    2    0    0 -0.11890719570E+03 -0.55781073213E+02  0.20430426660E+03  0.25479341174E+03  0.77000000000E+02 0.  0.
   -5000001    1    1    2    0    0  0.11890719570E+03  0.55781073213E+02  0.38966427686E+03  0.41835116586E+03  0.77000000000E+02 0.  0.
<mgrwt>
<rscale>  0 0.31674121E+03</rscale>
<asrwt>0</asrwt>
<pdfrwt beam="1">  1        2 0.97470245E-01 0.31674121E+03</pdfrwt>
<pdfrwt beam="2">  1       -2 0.60904639E-02 0.31674121E+03</pdfrwt>
<totfact> 0.68520464E+03</totfact>
</mgrwt>
</event>
<event>
 4    1  0.4991066E-004  0.2526095E+03  0.7818608E-02  0.1111667E+00
         -2   -1    0    0    0  501 -0.00000000000E+00  0.00000000000E+00  0.42055517235E+01  0.42055524965E+01  0.25500000000E-02 0. -1.
          2   -1    0    0  501    0  0.00000000000E+00 -0.00000000000E+00 -0.37932926122E+04  0.37932926122E+04  0.25500000000E-02 0.  1.
    5000001    1    1    2    0    0  0.65303596518E+02 -0.75455167651E+02 -0.17725552162E+04  0.17770309611E+04  0.77000000000E+02 0.  0.
   -5000001    1    1    2    0    0 -0.65303596518E+02  0.75455167651E+02 -0.20165318442E+04  0.20204672036E+04  0.77000000000E+02 0.  0.
<mgrwt>
<rscale>  0 0.25260950E+03</rscale>
<asrwt>0</asrwt>
<pdfrwt beam="1">  1        2 0.58358074E+00 0.25260950E+03</pdfrwt>
<pdfrwt beam="2">  1       -2 0.64701105E-03 0.25260950E+03</pdfrwt>
<totfact> 0.25600220E+03</totfact>
</mgrwt>
</event>
<event>
 4    1  0.4991066E-004  0.2152004E+03  0.7818608E-02  0.1137513E+00
          2   -1    0    0  501    0  0.00000000000E+00  0.00000000000E+00  0.18647983124E+03  0.18647983126E+03  0.25500000000E-02 0.  1.
         -2   -1    0    0    0  501 -0.00000000000E+00 -0.00000000000E+00 -0.62086060324E+02  0.62086060376E+02  0.25500000000E-02 0. -1.
    5000001    1    1    2    0    0  0.15481642226E+02 -0.73546187578E+02  0.62513433135E+02  0.12444136079E+03  0.77000000000E+02 0.  0.
   -5000001    1    1    2    0    0 -0.15481642226E+02  0.73546187578E+02  0.61880337785E+02  0.12412453085E+03  0.77000000000E+02 0.  0.
<mgrwt>
<rscale>  0 0.21520035E+03</rscale>
<asrwt>0</asrwt>
<pdfrwt beam="1">  1        2 0.28689204E-01 0.21520035E+03</pdfrwt>
<pdfrwt beam="2">  1       -2 0.95517018E-02 0.21520035E+03</pdfrwt>
<totfact> 0.12804521E+04</totfact>
</mgrwt>
</event>
<event>
 4    1  0.4991066E-004  0.2670759E+03  0.7818608E-02  0.1102965E+00
         -2   -1    0    0    0  501 -0.00000000000E+00  0.00000000000E+00  0.38763828998E+02  0.38763829082E+02  0.25500000000E-02 0. -1.
          2   -1    0    0  501    0  0.00000000000E+00 -0.00000000000E+00 -0.46002651770E+03  0.46002651771E+03  0.25500000000E-02 0.  1.
    5000001    1    1    2    0    0 -0.65256081967E+02  0.86614268443E+02 -0.18829800524E+03  0.23053313539E+03  0.77000000000E+02 0.  0.
   -5000001    1    1    2    0    0  0.65256081967E+02 -0.86614268443E+02 -0.23296468346E+03  0.26825721141E+03  0.77000000000E+02 0.  0.
<mgrwt>
<rscale>  0 0.26707594E+03</rscale>
<asrwt>0</asrwt>
<pdfrwt beam="1">  1        2 0.70773307E-01 0.26707594E+03</pdfrwt>
<pdfrwt beam="2">  1       -2 0.59636663E-02 0.26707594E+03</pdfrwt>
<totfact> 0.10134092E+04</totfact>
</mgrwt>
</event>
<event>
 4    1  0.4991066E-004  0.1869745E+03  0.7818608E-02  0.1161219E+00
          2   -1    0    0  501    0  0.00000000000E+00  0.00000000000E+00  0.43444087668E+04  0.43444087668E+04  0.25500000000E-02 0.  1.
         -2   -1    0    0    0  501 -0.00000000000E+00 -0.00000000000E+00 -0.20117496782E+01  0.20117512944E+01  0.25500000000E-02 0. -1.
    5000001    1    1    2    0    0  0.78505840443E+01 -0.52218516181E+02  0.20610275108E+04  0.20631412470E+04  0.77000000000E+02 0.  0.
   -5000001    1    1    2    0    0 -0.78505840443E+01  0.52218516181E+02  0.22813695064E+04  0.22832792711E+04  0.77000000000E+02 0.  0.
<mgrwt>
<rscale>  0 0.18697451E+03</rscale>
<asrwt>0</asrwt>
<pdfrwt beam="1">  1        2 0.66836878E+00 0.18697451E+03</pdfrwt>
<pdfrwt beam="2">  1       -2 0.30950091E-03 0.18697451E+03</pdfrwt>
<totfact> 0.27567327E+03</totfact>
</mgrwt>
</event>
<event>
 4    1  0.4991066E-004  0.2748073E+03  0.7818608E-02  0.1098559E+00
         -2   -1    0    0    0  501 -0.00000000000E+00  0.00000000000E+00  0.47725776049E+02  0.47725776117E+02  0.25500000000E-02 0. -1.
          2   -1    0    0  501    0  0.00000000000E+00 -0.00000000000E+00 -0.39558846602E+03  0.39558846603E+03  0.25500000000E-02 0.  1.
    5000001    1    1    2    0    0  0.86996636305E+02 -0.60210073596E+02 -0.24155232757E+03  0.27471839153E+03  0.77000000000E+02 0.  0.
   -5000001    1    1    2    0    0 -0.86996636305E+02  0.60210073596E+02 -0.10631036240E+03  0.16859585061E+03  0.77000000000E+02 0.  0.
<mgrwt>
<rscale>  0 0.27480733E+03</rscale>
<asrwt>0</asrwt>
<pdfrwt beam="1">  1        2 0.60859762E-01 0.27480733E+03</pdfrwt>
<pdfrwt beam="2">  1       -2 0.73424274E-02 0.27480733E+03</pdfrwt>
<totfact> 0.86818663E+03</totfact>
</mgrwt>
</event>
<event>
 4    1  0.4991066E-004  0.2870442E+03  0.7818608E-02  0.1091903E+00
         -2   -1    0    0    0  501 -0.00000000000E+00  0.00000000000E+00  0.22174392159E+03  0.22174392161E+03  0.25500000000E-02 0. -1.
          2   -1    0    0  501    0  0.00000000000E+00 -0.00000000000E+00 -0.92893604947E+02  0.92893604982E+02  0.25500000000E-02 0.  1.
    5000001    1    1    2    0    0 -0.57660956799E+02  0.85610628348E+02  0.13388574006E+03  0.18576425118E+03  0.77000000000E+02 0.  0.
   -5000001    1    1    2    0    0  0.57660956799E+02 -0.85610628348E+02 -0.50354234178E+01  0.12887327541E+03  0.77000000000E+02 0.  0.
<mgrwt>
<rscale>  0 0.28704419E+03</rscale>
<asrwt>0</asrwt>
<pdfrwt beam="1">  1        2 0.14291324E-01 0.28704419E+03</pdfrwt>
<pdfrwt beam="2">  1       -2 0.34114449E-01 0.28704419E+03</pdfrwt>
<totfact> 0.33197835E+03</totfact>
</mgrwt>
</event>
<event>
 4    1  0.4991066E-004  0.2392528E+03  0.7818608E-02  0.1120292E+00
         -2   -1    0    0    0  501 -0.00000000000E+00  0.00000000000E+00  0.45569535536E+02  0.45569535608E+02  0.25500000000E-02 0. -1.
          2   -1    0    0  501    0  0.00000000000E+00 -0.00000000000E+00 -0.31403588947E+03  0.31403588948E+03  0.25500000000E-02 0.  1.
    5000001    1    1    2    0    0  0.16377660427E+02  0.53116178007E+02 -0.24894034143E+02  0.98174686468E+02  0.77000000000E+02 0.  0.
   -5000001    1    1    2    0    0 -0.16377660427E+02 -0.53116178007E+02 -0.24357231979E+03  0.26143073862E+03  0.77000000000E+02 0.  0.
<mgrwt>
<rscale>  0 0.23925275E+03</rscale>
<asrwt>0</asrwt>
<pdfrwt beam="1">  1        2 0.48313212E-01 0.23925275E+03</pdfrwt>
<pdfrwt beam="2">  1       -2 0.70106980E-02 0.23925275E+03</pdfrwt>
<totfact> 0.11888574E+04</totfact>
</mgrwt>
</event>
<event>
 4    1  0.4991066E-004  0.2267142E+03  0.7818608E-02  0.1128974E+00
         -2   -1    0    0    0  501 -0.00000000000E+00  0.00000000000E+00  0.60493991120E+01  0.60493996495E+01  0.25500000000E-02 0. -1.
          2   -1    0    0  501    0  0.00000000000E+00 -0.00000000000E+00 -0.21241508863E+04  0.21241508863E+04  0.25500000000E-02 0.  1.
    5000001    1    1    2    0    0  0.49431260277E+02  0.66775467974E+02 -0.10993817284E+04  0.11052020618E+04  0.77000000000E+02 0.  0.
   -5000001    1    1    2    0    0 -0.49431260277E+02 -0.66775467974E+02 -0.10187197588E+04  0.10249982242E+04  0.77000000000E+02 0.  0.
<mgrwt>
<rscale>  0 0.22671424E+03</rscale>
<asrwt>0</asrwt>
<pdfrwt beam="1">  1        2 0.32679185E+00 0.22671424E+03</pdfrwt>
<pdfrwt beam="2">  1       -2 0.93067852E-03 0.22671424E+03</pdfrwt>
<totfact> 0.15045873E+04</totfact>
</mgrwt>
</event>
<event>
 4    1  0.4991066E-004  0.2827372E+03  0.7818608E-02  0.1094203E+00
         -2   -1    0    0    0  501 -0.00000000000E+00  0.00000000000E+00  0.66461923615E+02  0.66461923664E+02  0.25500000000E-02 0. -1.
          2   -1    0    0  501    0  0.00000000000E+00 -0.00000000000E+00 -0.30069979272E+03  0.30069979273E+03  0.25500000000E-02 0.  1.
    5000001    1    1    2    0    0  0.64473108187E+02  0.96951617014E+02 -0.88090457714E+02  0.16506158384E+03  0.77000000000E+02 0.  0.
   -5000001    1    1    2    0    0 -0.64473108187E+02 -0.96951617014E+02 -0.14614741139E+03  0.20210013255E+03  0.77000000000E+02 0.  0.
<mgrwt>
<rscale>  0 0.28273724E+03</rscale>
<asrwt>0</asrwt>
<pdfrwt beam="1">  1        2 0.46261506E-01 0.28273724E+03</pdfrwt>
<pdfrwt beam="2">  1       -2 0.10224911E-01 0.28273724E+03</pdfrwt>
<totfact> 0.69428132E+03</totfact>
</mgrwt>
</event>
<event>
 4    1  0.4991066E-004  0.3765670E+03  0.7818608E-02  0.1052210E+00
         -2   -1    0    0    0  501 -0.00000000000E+00  0.00000000000E+00  0.98562112336E+02  0.98562112369E+02  0.25500000000E-02 0. -1.
          2   -1    0    0  501    0  0.00000000000E+00 -0.00000000000E+00 -0.35967858677E+03  0.35967858678E+03  0.25500000000E-02 0.  1.
    5000001    1    1    2    0    0 -0.68823380656E+02 -0.12765278670E+03 -0.18433914111E+02  0.16522923732E+03  0.77000000000E+02 0.  0.
   -5000001    1    1    2    0    0  0.68823380656E+02  0.12765278670E+03 -0.24268256032E+03  0.29301146182E+03  0.77000000000E+02 0.  0.
<mgrwt>
<rscale>  0 0.37656703E+03</rscale>
<asrwt>0</asrwt>
<pdfrwt beam="1">  1        2 0.55335166E-01 0.37656703E+03</pdfrwt>
<pdfrwt beam="2">  1       -2 0.15163402E-01 0.37656703E+03</pdfrwt>
<totfact> 0.30315082E+03</totfact>
</mgrwt>
</event>
<event>
 4    1  0.4991066E-004  0.2317318E+03  0.7818608E-02  0.1125427E+00
         -2   -1    0    0    0  501 -0.00000000000E+00  0.00000000000E+00  0.63816495230E+01  0.63816500324E+01  0.25500000000E-02 0. -1.
          2   -1    0    0  501    0  0.00000000000E+00 -0.00000000000E+00 -0.21036742860E+04  0.21036742860E+04  0.25500000000E-02 0.  1.
    5000001    1    1    2    0    0 -0.54737835138E+01 -0.79635611997E+02 -0.74335497600E+03  0.75158327107E+03  0.77000000000E+02 0.  0.
   -5000001    1    1    2    0    0  0.54737835138E+01  0.79635611997E+02 -0.13539376605E+04  0.13584726650E+04  0.77000000000E+02 0.  0.
<mgrwt>
<rscale>  0 0.23173185E+03</rscale>
<asrwt>0</asrwt>
<pdfrwt beam="1">  1        2 0.32364164E+00 0.23173185E+03</pdfrwt>
<pdfrwt beam="2">  1       -2 0.98179395E-03 0.23173185E+03</pdfrwt>
<totfact> 0.14283301E+04</totfact>
</mgrwt>
</event>
<event>
 4    1  0.4991066E-004  0.1916776E+03  0.7818608E-02  0.1156957E+00
          2   -1    0    0  501    0  0.00000000000E+00  0.00000000000E+00  0.10249198223E+04  0.10249198223E+04  0.25500000000E-02 0.  1.
         -2   -1    0    0    0  501 -0.00000000000E+00 -0.00000000000E+00 -0.89617528292E+01  0.89617531920E+01  0.25500000000E-02 0. -1.
    5000001    1    1    2    0    0 -0.55279803290E+02 -0.51279349030E+01  0.57911374168E+03  0.58684229412E+03  0.77000000000E+02 0.  0.
   -5000001    1    1    2    0    0  0.55279803290E+02  0.51279349030E+01  0.43684432784E+03  0.44703928142E+03  0.77000000000E+02 0.  0.
<mgrwt>
<rscale>  0 0.19167763E+03</rscale>
<asrwt>0</asrwt>
<pdfrwt beam="1">  1        2 0.15767980E+00 0.19167763E+03</pdfrwt>
<pdfrwt beam="2">  1       -2 0.13787328E-02 0.19167763E+03</pdfrwt>
<totfact> 0.32936582E+04</totfact>
</mgrwt>
</event>
<event>
 4    1  0.4991066E-004  0.1932465E+03  0.7818608E-02  0.1155565E+00
         -2   -1    0    0    0  501 -0.00000000000E+00  0.00000000000E+00  0.12839001676E+02  0.12839001929E+02  0.25500000000E-02 0. -1.
          2   -1    0    0  501    0  0.00000000000E+00 -0.00000000000E+00 -0.72716321680E+03  0.72716321681E+03  0.25500000000E-02 0.  1.
    5000001    1    1    2    0    0 -0.52673494822E+02  0.24319701543E+02 -0.33261115654E+03  0.34630207391E+03  0.77000000000E+02 0.  0.
   -5000001    1    1    2    0    0  0.52673494822E+02 -0.24319701543E+02 -0.38171305859E+03  0.39370014483E+03  0.77000000000E+02 0.  0.
<mgrwt>
<rscale>  0 0.19324647E+03</rscale>
<asrwt>0</asrwt>
<pdfrwt beam="1">  1        2 0.11187123E+00 0.19324647E+03</pdfrwt>
<pdfrwt beam="2">  1       -2 0.19752316E-02 0.19324647E+03</pdfrwt>
<totfact> 0.30561938E+04</totfact>
</mgrwt>
</event>
<event>
 4    1  0.4991066E-004  0.1870389E+03  0.7818608E-02  0.1161159E+00
          2   -1    0    0  501    0  0.00000000000E+00  0.00000000000E+00  0.21299203998E+02  0.21299204150E+02  0.25500000000E-02 0.  1.
         -2   -1    0    0    0  501 -0.00000000000E+00 -0.00000000000E+00 -0.41062058491E+03  0.41062058492E+03  0.25500000000E-02 0. -1.
    5000001    1    1    2    0    0 -0.23779051448E+02 -0.47435294858E+02 -0.19733499034E+03  0.21837043962E+03  0.77000000000E+02 0.  0.
   -5000001    1    1    2    0    0  0.23779051448E+02  0.47435294858E+02 -0.19198639057E+03  0.21354934945E+03  0.77000000000E+02 0.  0.
<mgrwt>
<rscale>  0 0.18703894E+03</rscale>
<asrwt>0</asrwt>
<pdfrwt beam="1">  1        2 0.32768009E-02 0.18703894E+03</pdfrwt>
<pdfrwt beam="2">  1       -2 0.63172392E-01 0.18703894E+03</pdfrwt>
<totfact> 0.63907500E+03</totfact>
</mgrwt>
</event>
<event>
 4    1  0.4991066E-004  0.2748126E+03  0.7818608E-02  0.1098556E+00
          2   -1    0    0  501    0  0.00000000000E+00  0.00000000000E+00  0.13519235921E+04  0.13519235921E+04  0.25500000000E-02 0.  1.
         -2   -1    0    0    0  501 -0.00000000000E+00 -0.00000000000E+00 -0.13965651554E+02  0.13965651787E+02  0.25500000000E-02 0. -1.
    5000001    1    1    2    0    0 -0.55069372186E+01 -0.99159079874E+02  0.94520383848E+03  0.95352092046E+03  0.77000000000E+02 0.  0.
   -5000001    1    1    2    0    0  0.55069372186E+01  0.99159079874E+02  0.39275410211E+03  0.41236832347E+03  0.77000000000E+02 0.  0.
<mgrwt>
<rscale>  0 0.27481262E+03</rscale>
<asrwt>0</asrwt>
<pdfrwt beam="1">  1        2 0.20798826E+00 0.27481262E+03</pdfrwt>
<pdfrwt beam="2">  1       -2 0.21485616E-02 0.27481262E+03</pdfrwt>
<totfact> 0.11414793E+04</totfact>
</mgrwt>
</event>
<event>
 4    1  0.4991066E-004  0.3401387E+03  0.7818608E-02  0.1066737E+00
         -2   -1    0    0    0  501 -0.00000000000E+00  0.00000000000E+00  0.91415686804E+01  0.91415690361E+01  0.25500000000E-02 0. -1.
          2   -1    0    0  501    0  0.00000000000E+00 -0.00000000000E+00 -0.31639628411E+04  0.31639628411E+04  0.25500000000E-02 0.  1.
    5000001    1    1    2    0    0 -0.14104791914E+03  0.53282980395E+02 -0.17281207793E+04  0.17363939701E+04  0.77000000000E+02 0.  0.
   -5000001    1    1    2    0    0  0.14104791914E+03 -0.53282980395E+02 -0.14267004931E+04  0.14367104400E+04  0.77000000000E+02 0.  0.
<mgrwt>
<rscale>  0 0.34013870E+03</rscale>
<asrwt>0</asrwt>
<pdfrwt beam="1">  1        2 0.48676264E+00 0.34013870E+03</pdfrwt>
<pdfrwt beam="2">  1       -2 0.14063977E-02 0.34013870E+03</pdfrwt>
<totfact> 0.21343614E+03</totfact>
</mgrwt>
</event>
<event>
 4    1  0.4991066E-004  0.2046140E+03  0.7818608E-02  0.1145904E+00
          2   -1    0    0  501    0  0.00000000000E+00  0.00000000000E+00  0.68216286428E+02  0.68216286476E+02  0.25500000000E-02 0.  1.
         -2   -1    0    0    0  501 -0.00000000000E+00 -0.00000000000E+00 -0.15343434632E+03  0.15343434634E+03  0.25500000000E-02 0. -1.
    5000001    1    1    2    0    0 -0.43357730888E+02  0.37105719496E+02 -0.81380048458E+02  0.12573161708E+03  0.77000000000E+02 0.  0.
   -5000001    1    1    2    0    0  0.43357730888E+02 -0.37105719496E+02 -0.38380114292E+01  0.95919015731E+02  0.77000000000E+02 0.  0.
<mgrwt>
<rscale>  0 0.20461399E+03</rscale>
<asrwt>0</asrwt>
<pdfrwt beam="1">  1        2 0.10494813E-01 0.20461399E+03</pdfrwt>
<pdfrwt beam="2">  1       -2 0.23605284E-01 0.20461399E+03</pdfrwt>
<totfact> 0.92160739E+03</totfact>
</mgrwt>
</event>
<event>
 4    1  0.4991066E-004  0.2933224E+03  0.7818608E-02  0.1088627E+00
         -2   -1    0    0    0  501 -0.00000000000E+00  0.00000000000E+00  0.12576059866E+02  0.12576060125E+02  0.25500000000E-02 0. -1.
          2   -1    0    0  501    0  0.00000000000E+00 -0.00000000000E+00 -0.17103529441E+04  0.17103529441E+04  0.25500000000E-02 0.  1.
    5000001    1    1    2    0    0 -0.91257904289E+02 -0.63962325301E+02 -0.51862823736E+03  0.53602558964E+03  0.77000000000E+02 0.  0.
   -5000001    1    1    2    0    0  0.91257904289E+02  0.63962325301E+02 -0.11791486469E+04  0.11869034146E+04  0.77000000000E+02 0.  0.
<mgrwt>
<rscale>  0 0.29332236E+03</rscale>
<asrwt>0</asrwt>
<pdfrwt beam="1">  1        2 0.26313104E+00 0.29332236E+03</pdfrwt>
<pdfrwt beam="2">  1       -2 0.19347798E-02 0.29332236E+03</pdfrwt>
<totfact> 0.85734990E+03</totfact>
</mgrwt>
</event>
<event>
 4    1  0.4991066E-004  0.1963538E+03  0.7818608E-02  0.1152852E+00
         -2   -1    0    0    0  501 -0.00000000000E+00  0.00000000000E+00  0.46958600144E+01  0.46958607068E+01  0.25500000000E-02 0. -1.
          2   -1    0    0  501    0  0.00000000000E+00 -0.00000000000E+00 -0.20525954501E+04  0.20525954501E+04  0.25500000000E-02 0.  1.
    5000001    1    1    2    0    0  0.37501428464E+02 -0.41197509391E+00 -0.15267783976E+04  0.15291787999E+04  0.77000000000E+02 0.  0.
   -5000001    1    1    2    0    0 -0.37501428464E+02  0.41197509391E+00 -0.52112119251E+03  0.52811251088E+03  0.77000000000E+02 0.  0.
<mgrwt>
<rscale>  0 0.19635378E+03</rscale>
<asrwt>0</asrwt>
<pdfrwt beam="1">  1        2 0.31578320E+00 0.19635378E+03</pdfrwt>
<pdfrwt beam="2">  1       -2 0.72244169E-03 0.19635378E+03</pdfrwt>
<totfact> 0.23505354E+04</totfact>
</mgrwt>
</event>
<event>
 4    1  0.4991066E-004  0.2031581E+03  0.7818608E-02  0.1147102E+00
         -2   -1    0    0    0  501 -0.00000000000E+00  0.00000000000E+00  0.22737486866E+02  0.22737487009E+02  0.25500000000E-02 0. -1.
          2   -1    0    0  501    0  0.00000000000E+00 -0.00000000000E+00 -0.45380140183E+03  0.45380140184E+03  0.25500000000E-02 0.  1.
    5000001    1    1    2    0    0 -0.50012795595E+02  0.34311629098E+02 -0.27806626008E+03  0.29483624711E+03  0.77000000000E+02 0.  0.
   -5000001    1    1    2    0    0  0.50012795595E+02 -0.34311629098E+02 -0.15299765489E+03  0.18170264174E+03  0.77000000000E+02 0.  0.
<mgrwt>
<rscale>  0 0.20315810E+03</rscale>
<asrwt>0</asrwt>
<pdfrwt beam="1">  1        2 0.69815593E-01 0.20315810E+03</pdfrwt>
<pdfrwt beam="2">  1       -2 0.34980753E-02 0.20315810E+03</pdfrwt>
<totfact> 0.22665402E+04</totfact>
</mgrwt>
</event>
<event>
 4    1  0.4991066E-004  0.3181834E+03  0.7818608E-02  0.1076488E+00
         -2   -1    0    0    0  501 -0.00000000000E+00  0.00000000000E+00  0.23605921973E+02  0.23605922111E+02  0.25500000000E-02 0. -1.
          2   -1    0    0  501    0  0.00000000000E+00 -0.00000000000E+00 -0.10721960256E+04  0.10721960256E+04  0.25500000000E-02 0.  1.
    5000001    1    1    2    0    0 -0.92788672967E+02 -0.62490250442E+02 -0.23891786731E+03  0.27481906148E+03  0.77000000000E+02 0.  0.
   -5000001    1    1    2    0    0  0.92788672967E+02  0.62490250442E+02 -0.80967223627E+03  0.82098288619E+03  0.77000000000E+02 0.  0.
<mgrwt>
<rscale>  0 0.31818344E+03</rscale>
<asrwt>0</asrwt>
<pdfrwt beam="1">  1        2 0.16495320E+00 0.31818344E+03</pdfrwt>
<pdfrwt beam="2">  1       -2 0.36316811E-02 0.31818344E+03</pdfrwt>
<totfact> 0.75657935E+03</totfact>
</mgrwt>
</event>
<event>
 4    1  0.4991066E-004  0.1904070E+03  0.7818608E-02  0.1158095E+00
          2   -1    0    0  501    0  0.00000000000E+00  0.00000000000E+00  0.30919507509E+03  0.30919507510E+03  0.25500000000E-02 0.  1.
         -2   -1    0    0    0  501 -0.00000000000E+00 -0.00000000000E+00 -0.29313875255E+02  0.29313875366E+02  0.25500000000E-02 0. -1.
    5000001    1    1    2    0    0 -0.33302003095E+02  0.31898731455E+02  0.19638886111E+03  0.21592623103E+03  0.77000000000E+02 0.  0.
   -5000001    1    1    2    0    0  0.33302003095E+02 -0.31898731455E+02  0.83492338721E+02  0.12258271943E+03  0.77000000000E+02 0.  0.
<mgrwt>
<rscale>  0 0.19040699E+03</rscale>
<asrwt>0</asrwt>
<pdfrwt beam="1">  1        2 0.47568475E-01 0.19040699E+03</pdfrwt>
<pdfrwt beam="2">  1       -2 0.45098268E-02 0.19040699E+03</pdfrwt>
<totfact> 0.23317436E+04</totfact>
</mgrwt>
</event>
<event>
 4    1  0.4991066E-004  0.3067423E+03  0.7818608E-02  0.1081918E+00
         -2   -1    0    0    0  501 -0.00000000000E+00  0.00000000000E+00  0.30830226194E+02  0.30830226300E+02  0.25500000000E-02 0. -1.
          2   -1    0    0  501    0  0.00000000000E+00 -0.00000000000E+00 -0.76297538072E+03  0.76297538073E+03  0.25500000000E-02 0.  1.
    5000001    1    1    2    0    0 -0.12566647828E+03  0.15290375579E+01 -0.25630032708E+03  0.29565733440E+03  0.77000000000E+02 0.  0.
   -5000001    1    1    2    0    0  0.12566647828E+03 -0.15290375579E+01 -0.47584482744E+03  0.49814827263E+03  0.77000000000E+02 0.  0.
<mgrwt>
<rscale>  0 0.30674226E+03</rscale>
<asrwt>0</asrwt>
<pdfrwt beam="1">  1        2 0.11738081E+00 0.30674226E+03</pdfrwt>
<pdfrwt beam="2">  1       -2 0.47431123E-02 0.30674226E+03</pdfrwt>
<totfact> 0.80037552E+03</totfact>
</mgrwt>
</event>
<event>
 4    1  0.4991066E-004  0.2565138E+03  0.7818608E-02  0.1109256E+00
         -2   -1    0    0    0  501 -0.00000000000E+00  0.00000000000E+00  0.13846586463E+03  0.13846586465E+03  0.25500000000E-02 0. -1.
          2   -1    0    0  501    0  0.00000000000E+00 -0.00000000000E+00 -0.11880058691E+03  0.11880058694E+03  0.25500000000E-02 0.  1.
    5000001    1    1    2    0    0  0.74219665585E+02 -0.66738280269E+02  0.33529691458E+02  0.13044461285E+03  0.77000000000E+02 0.  0.
   -5000001    1    1    2    0    0 -0.74219665585E+02  0.66738280269E+02 -0.13864413745E+02  0.12682183874E+03  0.77000000000E+02 0.  0.
<mgrwt>
<rscale>  0 0.25651375E+03</rscale>
<asrwt>0</asrwt>
<pdfrwt beam="1">  1        2 0.18277013E-01 0.25651375E+03</pdfrwt>
<pdfrwt beam="2">  1       -2 0.21302441E-01 0.25651375E+03</pdfrwt>
<totfact> 0.57455257E+03</totfact>
</mgrwt>
</event>
<event>
 4    1  0.4991066E-004  0.1913875E+03  0.7818608E-02  0.1157216E+00
          2   -1    0    0  501    0  0.00000000000E+00  0.00000000000E+00  0.22497687785E+04  0.22497687785E+04  0.25500000000E-02 0.  1.
         -2   -1    0    0    0  501 -0.00000000000E+00 -0.00000000000E+00 -0.40703268912E+01  0.40703276900E+01  0.25500000000E-02 0. -1.
    5000001    1    1    2    0    0 -0.30788204103E+02  0.11339831938E+02  0.16691216074E+04  0.16712188503E+04  0.77000000000E+02 0.  0.
   -5000001    1    1    2    0    0  0.30788204103E+02 -0.11339831938E+02  0.57657684423E+03  0.58262025591E+03  0.77000000000E+02 0.  0.
<mgrwt>
<rscale>  0 0.19138752E+03</rscale>
<asrwt>0</asrwt>
<pdfrwt beam="1">  1        2 0.34611813E+00 0.19138752E+03</pdfrwt>
<pdfrwt beam="2">  1       -2 0.62620447E-03 0.19138752E+03</pdfrwt>
<totfact> 0.22722988E+04</totfact>
</mgrwt>
</event>
<event>
 4    1  0.4991066E-004  0.2597068E+03  0.7818608E-02  0.1107320E+00
          2   -1    0    0  501    0  0.00000000000E+00  0.00000000000E+00  0.30203815576E+03  0.30203815577E+03  0.25500000000E-02 0.  1.
         -2   -1    0    0    0  501 -0.00000000000E+00 -0.00000000000E+00 -0.55827073657E+02  0.55827073715E+02  0.25500000000E-02 0. -1.
    5000001    1    1    2    0    0 -0.73923962630E+02 -0.71530377569E+02  0.97268937900E+02  0.16115704591E+03  0.77000000000E+02 0.  0.
   -5000001    1    1    2    0    0  0.73923962630E+02  0.71530377569E+02  0.14894214420E+03  0.19670818358E+03  0.77000000000E+02 0.  0.
<mgrwt>
<rscale>  0 0.25970681E+03</rscale>
<asrwt>0</asrwt>
<pdfrwt beam="1">  1        2 0.46467409E-01 0.25970681E+03</pdfrwt>
<pdfrwt beam="2">  1       -2 0.85887805E-02 0.25970681E+03</pdfrwt>
<totfact> 0.90723092E+03</totfact>
</mgrwt>
</event>
<event>
 4    1  0.4991066E-004  0.1951486E+03  0.7818608E-02  0.1153898E+00
          2   -1    0    0  501    0  0.00000000000E+00  0.00000000000E+00  0.35728202571E+03  0.35728202572E+03  0.25500000000E-02 0.  1.
         -2   -1    0    0    0  501 -0.00000000000E+00 -0.00000000000E+00 -0.26647706204E+02  0.26647706326E+02  0.25500000000E-02 0. -1.
    5000001    1    1    2    0    0  0.57239884262E+02 -0.16144941043E+02  0.17986546625E+03  0.20449364152E+03  0.77000000000E+02 0.  0.
   -5000001    1    1    2    0    0 -0.57239884262E+02  0.16144941043E+02  0.15076885325E+03  0.17943609052E+03  0.77000000000E+02 0.  0.
<mgrwt>
<rscale>  0 0.19514863E+03</rscale>
<asrwt>0</asrwt>
<pdfrwt beam="1">  1        2 0.54966459E-01 0.19514863E+03</pdfrwt>
<pdfrwt beam="2">  1       -2 0.40996476E-02 0.19514863E+03</pdfrwt>
<totfact> 0.23093266E+04</totfact>
</mgrwt>
</event>
<event>
 4    1  0.4991066E-004  0.1915424E+03  0.7818608E-02  0.1157077E+00
          2   -1    0    0  501    0  0.00000000000E+00  0.00000000000E+00  0.10612468602E+04  0.10612468602E+04  0.25500000000E-02 0.  1.
         -2   -1    0    0    0  501 -0.00000000000E+00 -0.00000000000E+00 -0.86427821149E+01  0.86427824911E+01  0.25500000000E-02 0. -1.
    5000001    1    1    2    0    0  0.30737938449E+02  0.35495511907E+02  0.34631105134E+03  0.35786183997E+03  0.77000000000E+02 0.  0.
   -5000001    1    1    2    0    0 -0.30737938449E+02 -0.35495511907E+02  0.70629302677E+03  0.71202780275E+03  0.77000000000E+02 0.  0.
<mgrwt>
<rscale>  0 0.19154243E+03</rscale>
<asrwt>0</asrwt>
<pdfrwt beam="1">  1        2 0.16326869E+00 0.19154243E+03</pdfrwt>
<pdfrwt beam="2">  1       -2 0.13296593E-02 0.19154243E+03</pdfrwt>
<totfact> 0.33028660E+04</totfact>
</mgrwt>
</event>
<event>
 4    1  0.4991066E-004  0.4957534E+03  0.7818608E-02  0.1014893E+00
          2   -1    0    0  501    0  0.00000000000E+00  0.00000000000E+00  0.13636639368E+04  0.13636639368E+04  0.25500000000E-02 0.  1.
         -2   -1    0    0    0  501 -0.00000000000E+00 -0.00000000000E+00 -0.45057184186E+02  0.45057184258E+02  0.25500000000E-02 0. -1.
    5000001    1    1    2    0    0  0.16905337487E+03 -0.11014979987E+03  0.31358926096E+03  0.38076140371E+03  0.77000000000E+02 0.  0.
   -5000001    1    1    2    0    0 -0.16905337487E+03  0.11014979987E+03  0.10050174917E+04  0.10279597174E+04  0.77000000000E+02 0.  0.
<mgrwt>
<rscale>  0 0.49575340E+03</rscale>
<asrwt>0</asrwt>
<pdfrwt beam="1">  1        2 0.20979442E+00 0.49575340E+03</pdfrwt>
<pdfrwt beam="2">  1       -2 0.69318756E-02 0.49575340E+03</pdfrwt>
<totfact> 0.19058254E+03</totfact>
</mgrwt>
</event>
<event>
 4    1  0.4991066E-004  0.2482244E+03  0.7818608E-02  0.1114432E+00
          2   -1    0    0  501    0  0.00000000000E+00  0.00000000000E+00  0.13656580140E+03  0.13656580142E+03  0.25500000000E-02 0.  1.
         -2   -1    0    0    0  501 -0.00000000000E+00 -0.00000000000E+00 -0.11279426582E+03  0.11279426585E+03  0.25500000000E-02 0. -1.
    5000001    1    1    2    0    0  0.28778139137E+02 -0.87861978461E+02  0.42470597611E+02  0.12759569042E+03  0.77000000000E+02 0.  0.
   -5000001    1    1    2    0    0 -0.28778139137E+02  0.87861978461E+02 -0.18699062031E+02  0.12176437686E+03  0.77000000000E+02 0.  0.
<mgrwt>
<rscale>  0 0.24822441E+03</rscale>
<asrwt>0</asrwt>
<pdfrwt beam="1">  1        2 0.21010123E-01 0.24822441E+03</pdfrwt>
<pdfrwt beam="2">  1       -2 0.17352964E-01 0.24822441E+03</pdfrwt>
<totfact> 0.69298425E+03</totfact>
</mgrwt>
</event>
<event>
 4    1  0.4991066E-004  0.3961569E+03  0.7818608E-02  0.1045119E+00
          2   -1    0    0  501    0  0.00000000000E+00  0.00000000000E+00  0.30798046914E+03  0.30798046915E+03  0.25500000000E-02 0.  1.
         -2   -1    0    0    0  501 -0.00000000000E+00 -0.00000000000E+00 -0.12739470320E+03  0.12739470323E+03  0.25500000000E-02 0. -1.
    5000001    1    1    2    0    0 -0.14184547496E+03  0.62526470446E+02  0.19614162640E+03  0.26159173511E+03  0.77000000000E+02 0.  0.
   -5000001    1    1    2    0    0  0.14184547496E+03 -0.62526470446E+02 -0.15555860459E+02  0.17378343727E+03  0.77000000000E+02 0.  0.
<mgrwt>
<rscale>  0 0.39615694E+03</rscale>
<asrwt>0</asrwt>
<pdfrwt beam="1">  1        2 0.47381610E-01 0.39615694E+03</pdfrwt>
<pdfrwt beam="2">  1       -2 0.19599185E-01 0.39615694E+03</pdfrwt>
<totfact> 0.23272273E+03</totfact>
</mgrwt>
</event>
<event>
 4    1  0.4991066E-004  0.2099364E+03  0.7818608E-02  0.1141616E+00
          2   -1    0    0  501    0  0.00000000000E+00  0.00000000000E+00  0.84836023135E+03  0.84836023135E+03  0.25500000000E-02 0.  1.
         -2   -1    0    0    0  501 -0.00000000000E+00 -0.00000000000E+00 -0.12987787546E+02  0.12987787797E+02  0.25500000000E-02 0. -1.
    5000001    1    1    2    0    0  0.15110052426E+02  0.68117526053E+02  0.35669064047E+03  0.37151786503E+03  0.77000000000E+02 0.  0.
   -5000001    1    1    2    0    0 -0.15110052426E+02 -0.68117526053E+02  0.47868180333E+03  0.48983015412E+03  0.77000000000E+02 0.  0.
<mgrwt>
<rscale>  0 0.20993640E+03</rscale>
<asrwt>0</asrwt>
<pdfrwt beam="1">  1        2 0.13051696E+00 0.20993640E+03</pdfrwt>
<pdfrwt beam="2">  1       -2 0.19981211E-02 0.20993640E+03</pdfrwt>
<totfact> 0.24914577E+04</totfact>
</mgrwt>
</event>
<event>
 4    1  0.4991066E-004  0.2128386E+03  0.7818608E-02  0.1139338E+00
          2   -1    0    0  501    0  0.00000000000E+00  0.00000000000E+00  0.14262613888E+04  0.14262613888E+04  0.25500000000E-02 0.  1.
         -2   -1    0    0    0  501 -0.00000000000E+00 -0.00000000000E+00 -0.79403849245E+01  0.79403853340E+01  0.25500000000E-02 0. -1.
    5000001    1    1    2    0    0  0.55606758933E+02 -0.20786312587E+02  0.41761980900E+03  0.42878839455E+03  0.77000000000E+02 0.  0.
   -5000001    1    1    2    0    0 -0.55606758933E+02  0.20786312587E+02  0.10007011949E+04  0.10054133796E+04  0.77000000000E+02 0.  0.
<mgrwt>
<rscale>  0 0.21283857E+03</rscale>
<asrwt>0</asrwt>
<pdfrwt beam="1">  1        2 0.21942476E+00 0.21283857E+03</pdfrwt>
<pdfrwt beam="2">  1       -2 0.12215981E-02 0.21283857E+03</pdfrwt>
<totfact> 0.23514877E+04</totfact>
</mgrwt>
</event>
<event>
 4    1  0.4991066E-004  0.4400846E+03  0.7818608E-02  0.1030721E+00
         -2   -1    0    0    0  501 -0.00000000000E+00  0.00000000000E+00  0.11908985857E+03  0.11908985860E+03  0.25500000000E-02 0. -1.
          2   -1    0    0  501    0  0.00000000000E+00 -0.00000000000E+00 -0.40657205522E+03  0.40657205523E+03  0.25500000000E-02 0.  1.
    5000001    1    1    2    0    0  0.19559194917E+03  0.60397433061E+02 -0.11483751829E+03  0.24702371568E+03  0.77000000000E+02 0.  0.
   -5000001    1    1    2    0    0 -0.19559194917E+03 -0.60397433061E+02 -0.17264467836E+03  0.27863819815E+03  0.77000000000E+02 0.  0.
<mgrwt>
<rscale>  0 0.44008458E+03</rscale>
<asrwt>0</asrwt>
<pdfrwt beam="1">  1        2 0.62549546E-01 0.44008458E+03</pdfrwt>
<pdfrwt beam="2">  1       -2 0.18321517E-01 0.44008458E+03</pdfrwt>
<totfact> 0.19284481E+03</totfact>
</mgrwt>
</event>
<event>
 4    1  0.4991066E-004  0.2246770E+03  0.7818608E-02  0.1130443E+00
          2   -1    0    0  501    0  0.00000000000E+00  0.00000000000E+00  0.11672583772E+03  0.11672583775E+03  0.25500000000E-02 0.  1.
         -2   -1    0    0    0  501 -0.00000000000E+00 -0.00000000000E+00 -0.10811611103E+03  0.10811611106E+03  0.25500000000E-02 0. -1.
    5000001    1    1    2    0    0  0.79216311943E+02  0.18757983572E+02 -0.36920975575E+01  0.11211475197E+03  0.77000000000E+02 0.  0.
   -5000001    1    1    2    0    0 -0.79216311943E+02 -0.18757983572E+02  0.12301824250E+02  0.11272719683E+03  0.77000000000E+02 0.  0.
<mgrwt>
<rscale>  0 0.22467704E+03</rscale>
<asrwt>0</asrwt>
<pdfrwt beam="1">  1        2 0.17957821E-01 0.22467704E+03</pdfrwt>
<pdfrwt beam="2">  1       -2 0.16633248E-01 0.22467704E+03</pdfrwt>
<totfact> 0.88609441E+03</totfact>
</mgrwt>
</event>
<event>
 4    1  0.4991066E-004  0.1607502E+03  0.7818608E-02  0.1187852E+00
         -2   -1    0    0    0  501 -0.00000000000E+00  0.00000000000E+00  0.56293857483E+01  0.56293863259E+01  0.25500000000E-02 0. -1.
          2   -1    0    0  501    0  0.00000000000E+00 -0.00000000000E+00 -0.11475769323E+04  0.11475769323E+04  0.25500000000E-02 0.  1.
    5000001    1    1    2    0    0  0.72270883521E+01  0.88824001450E+00 -0.72784031182E+03  0.73193820729E+03  0.77000000000E+02 0.  0.
   -5000001    1    1    2    0    0 -0.72270883521E+01 -0.88824001450E+00 -0.41410723474E+03  0.42126811135E+03  0.77000000000E+02 0.  0.
<mgrwt>
<rscale>  0 0.16075016E+03</rscale>
<asrwt>0</asrwt>
<pdfrwt beam="1">  1        2 0.17655011E+00 0.16075016E+03</pdfrwt>
<pdfrwt beam="2">  1       -2 0.86606030E-03 0.16075016E+03</pdfrwt>
<totfact> 0.53849990E+04</totfact>
</mgrwt>
</event>
<event>
 4    1  0.4991066E-004  0.1943759E+03  0.7818608E-02  0.1154573E+00
          2   -1    0    0  501    0  0.00000000000E+00  0.00000000000E+00  0.19649555502E+04  0.19649555502E+04  0.25500000000E-02 0.  1.
         -2   -1    0    0    0  501 -0.00000000000E+00 -0.00000000000E+00 -0.48069780172E+01  0.48069786936E+01  0.25500000000E-02 0. -1.
    5000001    1    1    2    0    0 -0.20623023562E+02  0.70694507450E+01  0.15389237201E+04  0.15410030833E+04  0.77000000000E+02 0.  0.
   -5000001    1    1    2    0    0  0.20623023562E+02 -0.70694507450E+01  0.42122485200E+03  0.42875944558E+03  0.77000000000E+02 0.  0.
<mgrwt>
<rscale>  0 0.19437591E+03</rscale>
<asrwt>0</asrwt>
<pdfrwt beam="1">  1        2 0.30230129E+00 0.19437591E+03</pdfrwt>
<pdfrwt beam="2">  1       -2 0.73953407E-03 0.19437591E+03</pdfrwt>
<totfact> 0.25231967E+04</totfact>
</mgrwt>
</event>
<event>
 4    1  0.4991066E-004  0.2146421E+03  0.7818608E-02  0.1137942E+00
         -2   -1    0    0    0  501 -0.00000000000E+00  0.00000000000E+00  0.23962575978E+02  0.23962576114E+02  0.25500000000E-02 0. -1.
          2   -1    0    0  501    0  0.00000000000E+00 -0.00000000000E+00 -0.48065831918E+03  0.48065831919E+03  0.25500000000E-02 0.  1.
    5000001    1    1    2    0    0 -0.53121519561E+02  0.26119908411E+01 -0.35186071598E+03  0.36409295762E+03  0.77000000000E+02 0.  0.
   -5000001    1    1    2    0    0  0.53121519561E+02 -0.26119908411E+01 -0.10483502722E+03  0.14052793768E+03  0.77000000000E+02 0.  0.
<mgrwt>
<rscale>  0 0.21464213E+03</rscale>
<asrwt>0</asrwt>
<pdfrwt beam="1">  1        2 0.73947426E-01 0.21464213E+03</pdfrwt>
<pdfrwt beam="2">  1       -2 0.36865505E-02 0.21464213E+03</pdfrwt>
<totfact> 0.19749445E+04</totfact>
</mgrwt>
</event>
<event>
 4    1  0.4991066E-004  0.2761472E+03  0.7818608E-02  0.1097812E+00
          2   -1    0    0  501    0  0.00000000000E+00  0.00000000000E+00  0.28682387240E+04  0.28682387240E+04  0.25500000000E-02 0.  1.
         -2   -1    0    0    0  501 -0.00000000000E+00 -0.00000000000E+00 -0.66467006461E+01  0.66467011353E+01  0.25500000000E-02 0. -1.
    5000001    1    1    2    0    0 -0.59988996531E+02 -0.80965226739E+02  0.86236074761E+03  0.87163587963E+03  0.77000000000E+02 0.  0.
   -5000001    1    1    2    0    0  0.59988996531E+02  0.80965226739E+02  0.19992312757E+04  0.20032495455E+04  0.77000000000E+02 0.  0.
<mgrwt>
<rscale>  0 0.27614724E+03</rscale>
<asrwt>0</asrwt>
<pdfrwt beam="1">  1        2 0.44126804E+00 0.27614724E+03</pdfrwt>
<pdfrwt beam="2">  1       -2 0.10225681E-02 0.27614724E+03</pdfrwt>
<totfact> 0.51367708E+03</totfact>
</mgrwt>
</event>
<event>
 4    1  0.4991066E-004  0.1739494E+03  0.7818608E-02  0.1173791E+00
         -2   -1    0    0    0  501 -0.00000000000E+00  0.00000000000E+00  0.43696341915E+02  0.43696341989E+02  0.25500000000E-02 0. -1.
          2   -1    0    0  501    0  0.00000000000E+00 -0.00000000000E+00 -0.17311745030E+03  0.17311745032E+03  0.25500000000E-02 0.  1.
    5000001    1    1    2    0    0 -0.30768683889E+02 -0.16330560251E+02 -0.90321355377E+02  0.12369456877E+03  0.77000000000E+02 0.  0.
   -5000001    1    1    2    0    0  0.30768683889E+02  0.16330560251E+02 -0.39099753005E+02  0.93119223533E+02  0.77000000000E+02 0.  0.
<mgrwt>
<rscale>  0 0.17394941E+03</rscale>
<asrwt>0</asrwt>
<pdfrwt beam="1">  1        2 0.26633453E-01 0.17394941E+03</pdfrwt>
<pdfrwt beam="2">  1       -2 0.67225143E-02 0.17394941E+03</pdfrwt>
<totfact> 0.23608370E+04</totfact>
</mgrwt>
</event>
<event>
 4    1  0.4991066E-004  0.2508006E+03  0.7818608E-02  0.1112800E+00
         -2   -1    0    0    0  501 -0.00000000000E+00  0.00000000000E+00  0.27860894113E+02  0.27860894230E+02  0.25500000000E-02 0. -1.
          2   -1    0    0  501    0  0.00000000000E+00 -0.00000000000E+00 -0.56441947918E+03  0.56441947919E+03  0.25500000000E-02 0.  1.
    5000001    1    1    2    0    0  0.98043789110E+02 -0.92232121247E+01 -0.24483207182E+03  0.27489888253E+03  0.77000000000E+02 0.  0.
   -5000001    1    1    2    0    0 -0.98043789110E+02  0.92232121247E+01 -0.29172651325E+03  0.31738149089E+03  0.77000000000E+02 0.  0.
<mgrwt>
<rscale>  0 0.25080057E+03</rscale>
<asrwt>0</asrwt>
<pdfrwt beam="1">  1        2 0.86833758E-01 0.25080057E+03</pdfrwt>
<pdfrwt beam="2">  1       -2 0.42862918E-02 0.25080057E+03</pdfrwt>
<totfact> 0.13269970E+04</totfact>
</mgrwt>
</event>
<event>
 4    1  0.4991066E-004  0.1814712E+03  0.7818608E-02  0.1166387E+00
         -2   -1    0    0    0  501 -0.00000000000E+00  0.00000000000E+00  0.73644312875E+01  0.73644317290E+01  0.25500000000E-02 0. -1.
          2   -1    0    0  501    0  0.00000000000E+00 -0.00000000000E+00 -0.11179334920E+04  0.11179334920E+04  0.25500000000E-02 0.  1.
    5000001    1    1    2    0    0 -0.35137030037E+02  0.15410385460E+02 -0.37643680518E+03  0.38614214890E+03  0.77000000000E+02 0.  0.
   -5000001    1    1    2    0    0  0.35137030037E+02 -0.15410385460E+02 -0.73413225550E+03  0.73915577480E+03  0.77000000000E+02 0.  0.
<mgrwt>
<rscale>  0 0.18147115E+03</rscale>
<asrwt>0</asrwt>
<pdfrwt beam="1">  1        2 0.17198963E+00 0.18147115E+03</pdfrwt>
<pdfrwt beam="2">  1       -2 0.11329904E-02 0.18147115E+03</pdfrwt>
<totfact> 0.38429084E+04</totfact>
</mgrwt>
</event>
<event>
 4    1  0.4991066E-004  0.3614584E+03  0.7818608E-02  0.1058008E+00
         -2   -1    0    0    0  501 -0.00000000000E+00  0.00000000000E+00  0.10389157032E+03  0.10389157035E+03  0.25500000000E-02 0. -1.
          2   -1    0    0  501    0  0.00000000000E+00 -0.00000000000E+00 -0.31439560029E+03  0.31439560030E+03  0.25500000000E-02 0.  1.
    5000001    1    1    2    0    0  0.16058962909E+03 -0.30073255036E+02 -0.97876334938E+02  0.20543175651E+03  0.77000000000E+02 0.  0.
   -5000001    1    1    2    0    0 -0.16058962909E+03  0.30073255036E+02 -0.11262769504E+03  0.21285541414E+03  0.77000000000E+02 0.  0.
<mgrwt>
<rscale>  0 0.36145845E+03</rscale>
<asrwt>0</asrwt>
<pdfrwt beam="1">  1        2 0.48368553E-01 0.36145845E+03</pdfrwt>
<pdfrwt beam="2">  1       -2 0.15983319E-01 0.36145845E+03</pdfrwt>
<totfact> 0.32121565E+03</totfact>
</mgrwt>
</event>
<event>
 4    1  0.4991066E-004  0.2241908E+03  0.7818608E-02  0.1130797E+00
          2   -1    0    0  501    0  0.00000000000E+00  0.00000000000E+00  0.29109102251E+04  0.29109102251E+04  0.25500000000E-02 0.  1.
         -2   -1    0    0    0  501 -0.00000000000E+00 -0.00000000000E+00 -0.43166485922E+01  0.43166493454E+01  0.25500000000E-02 0. -1.
    5000001    1    1    2    0    0  0.53534727100E+02  0.31399989099E+02  0.76713835670E+03  0.77348702940E+03  0.77000000000E+02 0.  0.
   -5000001    1    1    2    0    0 -0.53534727100E+02 -0.31399989099E+02  0.21394552198E+04  0.21417398451E+04  0.77000000000E+02 0.  0.
<mgrwt>
<rscale>  0 0.22419079E+03</rscale>
<asrwt>0</asrwt>
<pdfrwt beam="1">  1        2 0.44783243E+00 0.22419079E+03</pdfrwt>
<pdfrwt beam="2">  1       -2 0.66409970E-03 0.22419079E+03</pdfrwt>
<totfact> 0.90699420E+03</totfact>
</mgrwt>
</event>
<event>
 4    1  0.4991066E-004  0.2318421E+03  0.7818608E-02  0.1125350E+00
          2   -1    0    0  501    0  0.00000000000E+00  0.00000000000E+00  0.12693664191E+04  0.12693664191E+04  0.25500000000E-02 0.  1.
         -2   -1    0    0    0  501 -0.00000000000E+00 -0.00000000000E+00 -0.10586135737E+02  0.10586136044E+02  0.25500000000E-02 0. -1.
    5000001    1    1    2    0    0  0.23553468077E+02 -0.67671040169E+02  0.36036535904E+03  0.37540155505E+03  0.77000000000E+02 0.  0.
   -5000001    1    1    2    0    0 -0.23553468077E+02  0.67671040169E+02  0.89841492436E+03  0.90455100014E+03  0.77000000000E+02 0.  0.
<mgrwt>
<rscale>  0 0.23184206E+03</rscale>
<asrwt>0</asrwt>
<pdfrwt beam="1">  1        2 0.19528702E+00 0.23184206E+03</pdfrwt>
<pdfrwt beam="2">  1       -2 0.16286373E-02 0.23184206E+03</pdfrwt>
<totfact> 0.18919396E+04</totfact>
</mgrwt>
</event>
<event>
 4    1  0.4991066E-004  0.7246120E+03  0.7818608E-02  0.9676044E-01
         -2   -1    0    0    0  501 -0.00000000000E+00  0.00000000000E+00  0.68208753991E+02  0.68208754039E+02  0.25500000000E-02 0. -1.
          2   -1    0    0  501    0  0.00000000000E+00 -0.00000000000E+00 -0.19244691011E+04  0.19244691011E+04  0.25500000000E-02 0.  1.
    5000001    1    1    2    0    0  0.27772811741E+03 -0.20725086601E+03 -0.72885887218E+03  0.81070961769E+03  0.77000000000E+02 0.  0.
   -5000001    1    1    2    0    0 -0.27772811741E+03  0.20725086601E+03 -0.11274014749E+04  0.11819682374E+04  0.77000000000E+02 0.  0.
<mgrwt>
<rscale>  0 0.72461201E+03</rscale>
<asrwt>0</asrwt>
<pdfrwt beam="1">  1        2 0.29607213E+00 0.72461201E+03</pdfrwt>
<pdfrwt beam="2">  1       -2 0.10493656E-01 0.72461201E+03</pdfrwt>
<totfact> 0.47791816E+02</totfact>
</mgrwt>
</event>
<event>
 4    1  0.4991066E-004  0.2151862E+03  0.7818608E-02  0.1137524E+00
          2   -1    0    0  501    0  0.00000000000E+00  0.00000000000E+00  0.53467758582E+03  0.53467758583E+03  0.25500000000E-02 0.  1.
         -2   -1    0    0    0  501 -0.00000000000E+00 -0.00000000000E+00 -0.21650942102E+02  0.21650942252E+02  0.25500000000E-02 0. -1.
    5000001    1    1    2    0    0  0.69922205017E+02  0.58166813216E+01  0.32609320125E+03  0.34232838684E+03  0.77000000000E+02 0.  0.
   -5000001    1    1    2    0    0 -0.69922205017E+02 -0.58166813216E+01  0.18693344247E+03  0.21400014124E+03  0.77000000000E+02 0.  0.
<mgrwt>
<rscale>  0 0.21518618E+03</rscale>
<asrwt>0</asrwt>
<pdfrwt beam="1">  1        2 0.82258094E-01 0.21518618E+03</pdfrwt>
<pdfrwt beam="2">  1       -2 0.33309140E-02 0.21518618E+03</pdfrwt>
<totfact> 0.20403770E+04</totfact>
</mgrwt>
</event>
<event>
 4    1  0.4991066E-004  0.3564793E+03  0.7818608E-02  0.1059987E+00
          2   -1    0    0  501    0  0.00000000000E+00  0.00000000000E+00  0.15042395967E+04  0.15042395967E+04  0.25500000000E-02 0.  1.
         -2   -1    0    0    0  501 -0.00000000000E+00 -0.00000000000E+00 -0.21119885345E+02  0.21119885499E+02  0.25500000000E-02 0. -1.
    5000001    1    1    2    0    0  0.15061208669E+03  0.80913008587E+01  0.50366761942E+03  0.53137514117E+03  0.77000000000E+02 0.  0.
   -5000001    1    1    2    0    0 -0.15061208669E+03 -0.80913008587E+01  0.97945209192E+03  0.99398434101E+03  0.77000000000E+02 0.  0.
<mgrwt>
<rscale>  0 0.35647927E+03</rscale>
<asrwt>0</asrwt>
<pdfrwt beam="1">  1        2 0.23142137E+00 0.35647927E+03</pdfrwt>
<pdfrwt beam="2">  1       -2 0.32492146E-02 0.35647927E+03</pdfrwt>
<totfact> 0.51143272E+03</totfact>
</mgrwt>
</event>
<event>
 4    1  0.4991066E-004  0.2210525E+03  0.7818608E-02  0.1133101E+00
          2   -1    0    0  501    0  0.00000000000E+00  0.00000000000E+00  0.24226038415E+04  0.24226038415E+04  0.25500000000E-02 0.  1.
         -2   -1    0    0    0  501 -0.00000000000E+00 -0.00000000000E+00 -0.50425288732E+01  0.50425295180E+01  0.25500000000E-02 0. -1.
    5000001    1    1    2    0    0  0.19903119606E+02  0.66739044122E+02  0.16250655573E+04  0.16283787335E+04  0.77000000000E+02 0.  0.
   -5000001    1    1    2    0    0 -0.19903119606E+02 -0.66739044122E+02  0.79249575530E+03  0.79926763750E+03  0.77000000000E+02 0.  0.
<mgrwt>
<rscale>  0 0.22105249E+03</rscale>
<asrwt>0</asrwt>
<pdfrwt beam="1">  1        2 0.37270772E+00 0.22105249E+03</pdfrwt>
<pdfrwt beam="2">  1       -2 0.77577488E-03 0.22105249E+03</pdfrwt>
<totfact> 0.13570071E+04</totfact>
</mgrwt>
</event>
<event>
 4    1  0.4991066E-004  0.2702991E+03  0.7818608E-02  0.1101109E+00
          2   -1    0    0  501    0  0.00000000000E+00  0.00000000000E+00  0.45962706162E+02  0.45962706233E+02  0.25500000000E-02 0.  1.
         -2   -1    0    0    0  501 -0.00000000000E+00 -0.00000000000E+00 -0.39739624791E+03  0.39739624792E+03  0.25500000000E-02 0. -1.
    5000001    1    1    2    0    0 -0.70438509212E+02  0.85867941786E+02 -0.17369454229E+03  0.22007653448E+03  0.77000000000E+02 0.  0.
   -5000001    1    1    2    0    0  0.70438509212E+02 -0.85867941786E+02 -0.17773899946E+03  0.22328241967E+03  0.77000000000E+02 0.  0.
<mgrwt>
<rscale>  0 0.27029915E+03</rscale>
<asrwt>0</asrwt>
<pdfrwt beam="1">  1        2 0.70711858E-02 0.27029915E+03</pdfrwt>
<pdfrwt beam="2">  1       -2 0.61137882E-01 0.27029915E+03</pdfrwt>
<totfact> 0.25257970E+03</totfact>
</mgrwt>
</event>
<event>
 4    1  0.4991066E-004  0.2501335E+03  0.7818608E-02  0.1113220E+00
          2   -1    0    0  501    0  0.00000000000E+00  0.00000000000E+00  0.14998235495E+04  0.14998235495E+04  0.25500000000E-02 0.  1.
         -2   -1    0    0    0  501 -0.00000000000E+00 -0.00000000000E+00 -0.10429024031E+02  0.10429024343E+02  0.25500000000E-02 0. -1.
    5000001    1    1    2    0    0  0.52562255293E+02  0.83093351066E+02  0.70401477233E+03  0.71500566105E+03  0.77000000000E+02 0.  0.
   -5000001    1    1    2    0    0 -0.52562255293E+02 -0.83093351066E+02  0.78537975316E+03  0.79524691282E+03  0.77000000000E+02 0.  0.
<mgrwt>
<rscale>  0 0.25013353E+03</rscale>
<asrwt>0</asrwt>
<pdfrwt beam="1">  1        2 0.23074191E+00 0.25013353E+03</pdfrwt>
<pdfrwt beam="2">  1       -2 0.16044665E-02 0.25013353E+03</pdfrwt>
<totfact> 0.14539531E+04</totfact>
</mgrwt>
</event>
<event>
 4    1  0.4991066E-004  0.2386339E+03  0.7818608E-02  0.1120706E+00
          2   -1    0    0  501    0  0.00000000000E+00  0.00000000000E+00  0.25710185276E+03  0.25710185277E+03  0.25500000000E-02 0.  1.
         -2   -1    0    0    0  501 -0.00000000000E+00 -0.00000000000E+00 -0.55373134634E+02  0.55373134692E+02  0.25500000000E-02 0. -1.
    5000001    1    1    2    0    0 -0.51530181153E+02  0.47104397982E+02  0.24138413653E+02  0.10670448394E+03  0.77000000000E+02 0.  0.
   -5000001    1    1    2    0    0  0.51530181153E+02 -0.47104397982E+02  0.17759030447E+03  0.20577050353E+03  0.77000000000E+02 0.  0.
<mgrwt>
<rscale>  0 0.23863391E+03</rscale>
<asrwt>0</asrwt>
<pdfrwt beam="1">  1        2 0.39554131E-01 0.23863391E+03</pdfrwt>
<pdfrwt beam="2">  1       -2 0.85189438E-02 0.23863391E+03</pdfrwt>
<totfact> 0.10881148E+04</totfact>
</mgrwt>
</event>
<event>
 4    1  0.4991066E-004  0.2073105E+03  0.7818608E-02  0.1143714E+00
         -2   -1    0    0    0  501 -0.00000000000E+00  0.00000000000E+00  0.68530284643E+01  0.68530289388E+01  0.25500000000E-02 0. -1.
          2   -1    0    0  501    0  0.00000000000E+00 -0.00000000000E+00 -0.15678336139E+04  0.15678336139E+04  0.25500000000E-02 0.  1.
    5000001    1    1    2    0    0 -0.46879248480E+02  0.51143690128E+02 -0.76956771613E+03  0.77651581484E+03  0.77000000000E+02 0.  0.
   -5000001    1    1    2    0    0  0.46879248480E+02 -0.51143690128E+02 -0.79141286928E+03  0.79817082798E+03  0.77000000000E+02 0.  0.
<mgrwt>
<rscale>  0 0.20731048E+03</rscale>
<asrwt>0</asrwt>
<pdfrwt beam="1">  1        2 0.24120489E+00 0.20731048E+03</pdfrwt>
<pdfrwt beam="2">  1       -2 0.10543134E-02 0.20731048E+03</pdfrwt>
<totfact> 0.24445713E+04</totfact>
</mgrwt>
</event>
<event>
 4    1  0.4991066E-004  0.3385704E+03  0.7818608E-02  0.1067406E+00
          2   -1    0    0  501    0  0.00000000000E+00  0.00000000000E+00  0.12821686882E+04  0.12821686882E+04  0.25500000000E-02 0.  1.
         -2   -1    0    0    0  501 -0.00000000000E+00 -0.00000000000E+00 -0.22350785245E+02  0.22350785390E+02  0.25500000000E-02 0. -1.
    5000001    1    1    2    0    0  0.17995709606E+02  0.92386360338E+02  0.10836732306E+04  0.10904750139E+04  0.77000000000E+02 0.  0.
   -5000001    1    1    2    0    0 -0.17995709606E+02 -0.92386360338E+02  0.17614467234E+03  0.21404445971E+03  0.77000000000E+02 0.  0.
<mgrwt>
<rscale>  0 0.33857039E+03</rscale>
<asrwt>0</asrwt>
<pdfrwt beam="1">  1        2 0.19725671E+00 0.33857039E+03</pdfrwt>
<pdfrwt beam="2">  1       -2 0.34385826E-02 0.33857039E+03</pdfrwt>
<totfact> 0.62189961E+03</totfact>
</mgrwt>
</event>
<event>
 4    1  0.4991066E-004  0.2516319E+03  0.7818608E-02  0.1112278E+00
          2   -1    0    0  501    0  0.00000000000E+00  0.00000000000E+00  0.12121329603E+03  0.12121329605E+03  0.25500000000E-02 0.  1.
         -2   -1    0    0    0  501 -0.00000000000E+00 -0.00000000000E+00 -0.13059334837E+03  0.13059334840E+03  0.25500000000E-02 0. -1.
    5000001    1    1    2    0    0 -0.58241418834E+02  0.75282117814E+02 -0.33713447074E+02  0.12698447403E+03  0.77000000000E+02 0.  0.
   -5000001    1    1    2    0    0  0.58241418834E+02 -0.75282117814E+02  0.24333394729E+02  0.12482217042E+03  0.77000000000E+02 0.  0.
<mgrwt>
<rscale>  0 0.25163188E+03</rscale>
<asrwt>0</asrwt>
<pdfrwt beam="1">  1        2 0.18648199E-01 0.25163188E+03</pdfrwt>
<pdfrwt beam="2">  1       -2 0.20091284E-01 0.25163188E+03</pdfrwt>
<totfact> 0.62020008E+03</totfact>
</mgrwt>
</event>
<event>
 4    1  0.4991066E-004  0.2422078E+03  0.7818608E-02  0.1118331E+00
          2   -1    0    0  501    0  0.00000000000E+00  0.00000000000E+00  0.19938661970E+04  0.19938661970E+04  0.25500000000E-02 0.  1.
         -2   -1    0    0    0  501 -0.00000000000E+00 -0.00000000000E+00 -0.73556341081E+01  0.73556345501E+01  0.25500000000E-02 0. -1.
    5000001    1    1    2    0    0 -0.47995337861E+02  0.55954842016E+02  0.51842468649E+03  0.52927086862E+03  0.77000000000E+02 0.  0.
   -5000001    1    1    2    0    0  0.47995337861E+02 -0.55954842016E+02  0.14680858764E+04  0.14719509629E+04  0.77000000000E+02 0.  0.
<mgrwt>
<rscale>  0 0.24220777E+03</rscale>
<asrwt>0</asrwt>
<pdfrwt beam="1">  1        2 0.30674896E+00 0.24220777E+03</pdfrwt>
<pdfrwt beam="2">  1       -2 0.11316349E-02 0.24220777E+03</pdfrwt>
<totfact> 0.13288285E+04</totfact>
</mgrwt>
</event>
<event>
 4    1  0.4991066E-004  0.3577670E+03  0.7818608E-02  0.1059472E+00
         -2   -1    0    0    0  501 -0.00000000000E+00  0.00000000000E+00  0.14331647254E+04  0.14331647254E+04  0.25500000000E-02 0. -1.
          2   -1    0    0  501    0  0.00000000000E+00 -0.00000000000E+00 -0.22327724299E+02  0.22327724445E+02  0.25500000000E-02 0.  1.
    5000001    1    1    2    0    0 -0.14035411508E+03  0.79789577917E+02  0.69664328288E+03  0.71924023660E+03  0.77000000000E+02 0.  0.
   -5000001    1    1    2    0    0  0.14035411508E+03 -0.79789577917E+02  0.71419371820E+03  0.73625221322E+03  0.77000000000E+02 0.  0.
<mgrwt>
<rscale>  0 0.35776700E+03</rscale>
<asrwt>0</asrwt>
<pdfrwt beam="1">  1        2 0.34350329E-02 0.35776700E+03</pdfrwt>
<pdfrwt beam="2">  1       -2 0.22048698E+00 0.35776700E+03</pdfrwt>
<totfact> 0.28027560E+02</totfact>
</mgrwt>
</event>
<event>
 4    1  0.4991066E-004  0.8109747E+03  0.7818608E-02  0.9544266E-01
         -2   -1    0    0    0  501 -0.00000000000E+00  0.00000000000E+00  0.18773871666E+03  0.18773871667E+03  0.25500000000E-02 0. -1.
          2   -1    0    0  501    0  0.00000000000E+00 -0.00000000000E+00 -0.87579162946E+03  0.87579162947E+03  0.25500000000E-02 0.  1.
    5000001    1    1    2    0    0  0.31069982558E+02  0.37092867487E+03 -0.52919989695E+03  0.65156347089E+03  0.77000000000E+02 0.  0.
   -5000001    1    1    2    0    0 -0.31069982558E+02 -0.37092867487E+03 -0.15885301585E+03  0.41196687525E+03  0.77000000000E+02 0.  0.
<mgrwt>
<rscale>  0 0.81097471E+03</rscale>
<asrwt>0</asrwt>
<pdfrwt beam="1">  1        2 0.13473717E+00 0.81097471E+03</pdfrwt>
<pdfrwt beam="2">  1       -2 0.28882880E-01 0.81097471E+03</pdfrwt>
<totfact> 0.33650444E+02</totfact>
</mgrwt>
</event>
<event>
 4    1  0.4991066E-004  0.1903165E+03  0.7818608E-02  0.1158176E+00
          2   -1    0    0  501    0  0.00000000000E+00  0.00000000000E+00  0.85378667977E+03  0.85378667977E+03  0.25500000000E-02 0.  1.
         -2   -1    0    0    0  501 -0.00000000000E+00 -0.00000000000E+00 -0.10605807079E+02  0.10605807386E+02  0.25500000000E-02 0. -1.
    5000001    1    1    2    0    0 -0.18982523807E+01 -0.53822491809E+02  0.35336666766E+03  0.36564664062E+03  0.77000000000E+02 0.  0.
   -5000001    1    1    2    0    0  0.18982523807E+01  0.53822491809E+02  0.48981420503E+03  0.49874584654E+03  0.77000000000E+02 0.  0.
<mgrwt>
<rscale>  0 0.19031655E+03</rscale>
<asrwt>0</asrwt>
<pdfrwt beam="1">  1        2 0.13135185E+00 0.19031655E+03</pdfrwt>
<pdfrwt beam="2">  1       -2 0.16316620E-02 0.19031655E+03</pdfrwt>
<totfact> 0.32984173E+04</totfact>
</mgrwt>
</event>
<event>
 4    1  0.4991066E-004  0.4335175E+03  0.7818608E-02  0.1032755E+00
          2   -1    0    0  501    0  0.00000000000E+00  0.00000000000E+00  0.89923010209E+03  0.89923010209E+03  0.25500000000E-02 0.  1.
         -2   -1    0    0    0  501 -0.00000000000E+00 -0.00000000000E+00 -0.52249529310E+02  0.52249529372E+02  0.25500000000E-02 0. -1.
    5000001    1    1    2    0    0  0.11846403568E+03 -0.15714912980E+03  0.31764377727E+03  0.38151821187E+03  0.77000000000E+02 0.  0.
   -5000001    1    1    2    0    0 -0.11846403568E+03  0.15714912980E+03  0.52933679551E+03  0.56996141959E+03  0.77000000000E+02 0.  0.
<mgrwt>
<rscale>  0 0.43351747E+03</rscale>
<asrwt>0</asrwt>
<pdfrwt beam="1">  1        2 0.13834309E+00 0.43351747E+03</pdfrwt>
<pdfrwt beam="2">  1       -2 0.80383894E-02 0.43351747E+03</pdfrwt>
<totfact> 0.28654646E+03</totfact>
</mgrwt>
</event>
<event>
 4    1  0.4991066E-004  0.3415784E+03  0.7818608E-02  0.1066126E+00
         -2   -1    0    0    0  501 -0.00000000000E+00  0.00000000000E+00  0.65965768358E+02  0.65965768407E+02  0.25500000000E-02 0. -1.
          2   -1    0    0  501    0  0.00000000000E+00 -0.00000000000E+00 -0.44218304719E+03  0.44218304720E+03  0.25500000000E-02 0.  1.
    5000001    1    1    2    0    0 -0.11181199041E+03 -0.86883745113E+02 -0.27212116446E+03  0.31627461882E+03  0.77000000000E+02 0.  0.
   -5000001    1    1    2    0    0  0.11181199041E+03  0.86883745113E+02 -0.10409611438E+03  0.19187419679E+03  0.77000000000E+02 0.  0.
<mgrwt>
<rscale>  0 0.34157836E+03</rscale>
<asrwt>0</asrwt>
<pdfrwt beam="1">  1        2 0.68028159E-01 0.34157836E+03</pdfrwt>
<pdfrwt beam="2">  1       -2 0.10148580E-01 0.34157836E+03</pdfrwt>
<totfact> 0.46442852E+03</totfact>
</mgrwt>
</event>
<event>
 4    1  0.4991066E-004  0.5149201E+03  0.7818608E-02  0.1009956E+00
          2   -1    0    0  501    0  0.00000000000E+00  0.00000000000E+00  0.17975631729E+03  0.17975631731E+03  0.25500000000E-02 0.  1.
         -2   -1    0    0    0  501 -0.00000000000E+00 -0.00000000000E+00 -0.36875303593E+03  0.36875303594E+03  0.25500000000E-02 0. -1.
    5000001    1    1    2    0    0  0.17193846059E+03  0.13752917271E+03  0.21604978368E+02  0.23424961615E+03  0.77000000000E+02 0.  0.
   -5000001    1    1    2    0    0 -0.17193846059E+03 -0.13752917271E+03 -0.21060169700E+03  0.31425973709E+03  0.77000000000E+02 0.  0.
<mgrwt>
<rscale>  0 0.51492014E+03</rscale>
<asrwt>0</asrwt>
<pdfrwt beam="1">  1        2 0.27654818E-01 0.51492014E+03</pdfrwt>
<pdfrwt beam="2">  1       -2 0.56731236E-01 0.51492014E+03</pdfrwt>
<totfact> 0.57310480E+02</totfact>
</mgrwt>
</event>
<event>
 4    1  0.4991066E-004  0.2068808E+03  0.7818608E-02  0.1144060E+00
          2   -1    0    0  501    0  0.00000000000E+00  0.00000000000E+00  0.17898399850E+04  0.17898399850E+04  0.25500000000E-02 0.  1.
         -2   -1    0    0    0  501 -0.00000000000E+00 -0.00000000000E+00 -0.59781406071E+01  0.59781411510E+01  0.25500000000E-02 0. -1.
    5000001    1    1    2    0    0  0.48305777942E+02  0.49369950175E+02  0.89431483821E+03  0.90027710734E+03  0.77000000000E+02 0.  0.
   -5000001    1    1    2    0    0 -0.48305777942E+02 -0.49369950175E+02  0.88954700622E+03  0.89554101885E+03  0.77000000000E+02 0.  0.
<mgrwt>
<rscale>  0 0.20688079E+03</rscale>
<asrwt>0</asrwt>
<pdfrwt beam="1">  1        2 0.27535963E+00 0.20688079E+03</pdfrwt>
<pdfrwt beam="2">  1       -2 0.91971522E-03 0.20688079E+03</pdfrwt>
<totfact> 0.22795035E+04</totfact>
</mgrwt>
</event>
<event>
 4    1  0.4991066E-004  0.4165274E+03  0.7818608E-02  0.1038202E+00
          2   -1    0    0  501    0  0.00000000000E+00  0.00000000000E+00  0.14543586572E+04  0.14543586572E+04  0.25500000000E-02 0.  1.
         -2   -1    0    0    0  501 -0.00000000000E+00 -0.00000000000E+00 -0.29823292825E+02  0.29823292934E+02  0.25500000000E-02 0. -1.
    5000001    1    1    2    0    0  0.16715076775E+03 -0.77147132371E+02  0.49985312355E+03  0.53821297301E+03  0.77000000000E+02 0.  0.
   -5000001    1    1    2    0    0 -0.16715076775E+03  0.77147132371E+02  0.92468224081E+03  0.94596897711E+03  0.77000000000E+02 0.  0.
<mgrwt>
<rscale>  0 0.41652738E+03</rscale>
<asrwt>0</asrwt>
<pdfrwt beam="1">  1        2 0.22374747E+00 0.41652738E+03</pdfrwt>
<pdfrwt beam="2">  1       -2 0.45881991E-02 0.41652738E+03</pdfrwt>
<totfact> 0.32248621E+03</totfact>
</mgrwt>
</event>
<event>
 4    1  0.4991066E-004  0.2990106E+03  0.7818608E-02  0.1085736E+00
         -2   -1    0    0    0  501 -0.00000000000E+00  0.00000000000E+00  0.79179646884E+02  0.79179646925E+02  0.25500000000E-02 0. -1.
          2   -1    0    0  501    0  0.00000000000E+00 -0.00000000000E+00 -0.28229273248E+03  0.28229273249E+03  0.25500000000E-02 0.  1.
    5000001    1    1    2    0    0  0.12812637084E+03 -0.19124231146E+01 -0.99528401740E+02  0.17959656740E+03  0.77000000000E+02 0.  0.
   -5000001    1    1    2    0    0 -0.12812637084E+03  0.19124231146E+01 -0.10358468385E+03  0.18187581202E+03  0.77000000000E+02 0.  0.
<mgrwt>
<rscale>  0 0.29901063E+03</rscale>
<asrwt>0</asrwt>
<pdfrwt beam="1">  1        2 0.43429650E-01 0.29901063E+03</pdfrwt>
<pdfrwt beam="2">  1       -2 0.12181484E-01 0.29901063E+03</pdfrwt>
<totfact> 0.56195623E+03</totfact>
</mgrwt>
</event>
<event>
 4    1  0.4991066E-004  0.4248454E+03  0.7818608E-02  0.1035501E+00
          2   -1    0    0  501    0  0.00000000000E+00  0.00000000000E+00  0.21329294156E+04  0.21329294156E+04  0.25500000000E-02 0.  1.
         -2   -1    0    0    0  501 -0.00000000000E+00 -0.00000000000E+00 -0.21155598575E+02  0.21155598728E+02  0.25500000000E-02 0. -1.
    5000001    1    1    2    0    0  0.16012086249E+03  0.11260622856E+03  0.12059145449E+04  0.12241232547E+04  0.77000000000E+02 0.  0.
   -5000001    1    1    2    0    0 -0.16012086249E+03 -0.11260622856E+03  0.90585927218E+03  0.92996175960E+03  0.77000000000E+02 0.  0.
<mgrwt>
<rscale>  0 0.42484538E+03</rscale>
<asrwt>0</asrwt>
<pdfrwt beam="1">  1        2 0.32814309E+00 0.42484538E+03</pdfrwt>
<pdfrwt beam="2">  1       -2 0.32547065E-02 0.42484538E+03</pdfrwt>
<totfact> 0.23483221E+03</totfact>
</mgrwt>
</event>
<event>
 4    1  0.4991066E-004  0.1878045E+03  0.7818608E-02  0.1160457E+00
         -2   -1    0    0    0  501 -0.00000000000E+00  0.00000000000E+00  0.16571690982E+02  0.16571691178E+02  0.25500000000E-02 0. -1.
          2   -1    0    0  501    0  0.00000000000E+00 -0.00000000000E+00 -0.53209016705E+03  0.53209016706E+03  0.25500000000E-02 0.  1.
    5000001    1    1    2    0    0 -0.35954065857E+02 -0.36689931413E+02 -0.30393185537E+03  0.31771436642E+03  0.77000000000E+02 0.  0.
   -5000001    1    1    2    0    0  0.35954065857E+02  0.36689931413E+02 -0.21158662070E+03  0.23094749182E+03  0.77000000000E+02 0.  0.
<mgrwt>
<rscale>  0 0.18780451E+03</rscale>
<asrwt>0</asrwt>
<pdfrwt beam="1">  1        2 0.81860012E-01 0.18780451E+03</pdfrwt>
<pdfrwt beam="2">  1       -2 0.25494913E-02 0.18780451E+03</pdfrwt>
<totfact> 0.30165385E+04</totfact>
</mgrwt>
</event>
<event>
 4    1  0.4991066E-004  0.2197048E+03  0.7818608E-02  0.1134103E+00
         -2   -1    0    0    0  501 -0.00000000000E+00  0.00000000000E+00  0.30869825286E+03  0.30869825287E+03  0.25500000000E-02 0. -1.
          2   -1    0    0  501    0  0.00000000000E+00 -0.00000000000E+00 -0.39091736079E+02  0.39091736162E+02  0.25500000000E-02 0.  1.
    5000001    1    1    2    0    0 -0.25617773358E+02 -0.66239577590E+02  0.82430556576E+02  0.13329571864E+03  0.77000000000E+02 0.  0.
   -5000001    1    1    2    0    0  0.25617773358E+02  0.66239577590E+02  0.18717596020E+03  0.21449427039E+03  0.77000000000E+02 0.  0.
<mgrwt>
<rscale>  0 0.21970481E+03</rscale>
<asrwt>0</asrwt>
<pdfrwt beam="1">  1        2 0.60141135E-02 0.21970481E+03</pdfrwt>
<pdfrwt beam="2">  1       -2 0.47492037E-01 0.21970481E+03</pdfrwt>
<totfact> 0.51462723E+03</totfact>
</mgrwt>
</event>
<event>
 4    1  0.4991066E-004  0.2211048E+03  0.7818608E-02  0.1133062E+00
         -2   -1    0    0    0  501 -0.00000000000E+00  0.00000000000E+00  0.71750739325E+02  0.71750739370E+02  0.25500000000E-02 0. -1.
          2   -1    0    0  501    0  0.00000000000E+00 -0.00000000000E+00 -0.17033745714E+03  0.17033745716E+03  0.25500000000E-02 0.  1.
    5000001    1    1    2    0    0  0.17258806847E+02  0.63363738019E+02 -0.98013541539E+02  0.14088464797E+03  0.77000000000E+02 0.  0.
   -5000001    1    1    2    0    0 -0.17258806847E+02 -0.63363738019E+02 -0.57317627681E+00  0.10120354856E+03  0.77000000000E+02 0.  0.
<mgrwt>
<rscale>  0 0.22110485E+03</rscale>
<asrwt>0</asrwt>
<pdfrwt beam="1">  1        2 0.26205762E-01 0.22110485E+03</pdfrwt>
<pdfrwt beam="2">  1       -2 0.11038575E-01 0.22110485E+03</pdfrwt>
<totfact> 0.11264040E+04</totfact>
</mgrwt>
</event>
<event>
 4    1  0.4991066E-004  0.4997223E+03  0.7818608E-02  0.1013851E+00
         -2   -1    0    0    0  501 -0.00000000000E+00  0.00000000000E+00  0.11989476662E+03  0.11989476665E+03  0.25500000000E-02 0. -1.
          2   -1    0    0  501    0  0.00000000000E+00 -0.00000000000E+00 -0.52071164639E+03  0.52071164639E+03  0.25500000000E-02 0.  1.
    5000001    1    1    2    0    0 -0.53676668366E+02 -0.19890199613E+03 -0.48412961357E+02  0.22520213947E+03  0.77000000000E+02 0.  0.
   -5000001    1    1    2    0    0  0.53676668366E+02  0.19890199613E+03 -0.35240391841E+03  0.41540427357E+03  0.77000000000E+02 0.  0.
<mgrwt>
<rscale>  0 0.49972233E+03</rscale>
<asrwt>0</asrwt>
<pdfrwt beam="1">  1        2 0.80109483E-01 0.49972233E+03</pdfrwt>
<pdfrwt beam="2">  1       -2 0.18445349E-01 0.49972233E+03</pdfrwt>
<totfact> 0.14425386E+03</totfact>
</mgrwt>
</event>
<event>
 4    1  0.4991066E-004  0.2395361E+03  0.7818608E-02  0.1120102E+00
          2   -1    0    0  501    0  0.00000000000E+00  0.00000000000E+00  0.19272010635E+04  0.19272010635E+04  0.25500000000E-02 0.  1.
         -2   -1    0    0    0  501 -0.00000000000E+00 -0.00000000000E+00 -0.74431203945E+01  0.74431208313E+01  0.25500000000E-02 0. -1.
    5000001    1    1    2    0    0  0.83093766823E+02 -0.13874137430E+02  0.12531311016E+04  0.12583177752E+04  0.77000000000E+02 0.  0.
   -5000001    1    1    2    0    0 -0.83093766823E+02  0.13874137430E+02  0.66662684151E+03  0.67632640906E+03  0.77000000000E+02 0.  0.
<mgrwt>
<rscale>  0 0.23953613E+03</rscale>
<asrwt>0</asrwt>
<pdfrwt beam="1">  1        2 0.29649262E+00 0.23953613E+03</pdfrwt>
<pdfrwt beam="2">  1       -2 0.11450949E-02 0.23953613E+03</pdfrwt>
<totfact> 0.14150472E+04</totfact>
</mgrwt>
</event>
<event>
 4    1  0.4991066E-004  0.2644367E+03  0.7818608E-02  0.1104506E+00
         -2   -1    0    0    0  501 -0.00000000000E+00  0.00000000000E+00  0.25613985217E+02  0.25613985344E+02  0.25500000000E-02 0. -1.
          2   -1    0    0  501    0  0.00000000000E+00 -0.00000000000E+00 -0.68250594754E+03  0.68250594755E+03  0.25500000000E-02 0.  1.
    5000001    1    1    2    0    0  0.87319862343E+02  0.51083760324E+02 -0.23121454348E+03  0.26386260449E+03  0.77000000000E+02 0.  0.
   -5000001    1    1    2    0    0 -0.87319862343E+02 -0.51083760324E+02 -0.42567741884E+03  0.44425732840E+03  0.77000000000E+02 0.  0.
<mgrwt>
<rscale>  0 0.26443674E+03</rscale>
<asrwt>0</asrwt>
<pdfrwt beam="1">  1        2 0.10500090E+00 0.26443674E+03</pdfrwt>
<pdfrwt beam="2">  1       -2 0.39406136E-02 0.26443674E+03</pdfrwt>
<totfact> 0.12084730E+04</totfact>
</mgrwt>
</event>
<event>
 4    1  0.4991066E-004  0.4628115E+03  0.7818608E-02  0.1023969E+00
         -2   -1    0    0    0  501 -0.00000000000E+00  0.00000000000E+00  0.28490409202E+03  0.28490409203E+03  0.25500000000E-02 0. -1.
          2   -1    0    0  501    0  0.00000000000E+00 -0.00000000000E+00 -0.18795312644E+03  0.18795312645E+03  0.25500000000E-02 0.  1.
    5000001    1    1    2    0    0  0.51493857882E+02  0.21153311723E+03  0.33261401720E+02  0.23330923241E+03  0.77000000000E+02 0.  0.
   -5000001    1    1    2    0    0 -0.51493857882E+02 -0.21153311723E+03  0.63689563863E+02  0.23954798607E+03  0.77000000000E+02 0.  0.
<mgrwt>
<rscale>  0 0.46281147E+03</rscale>
<asrwt>0</asrwt>
<pdfrwt beam="1">  1        2 0.28915866E-01 0.46281147E+03</pdfrwt>
<pdfrwt beam="2">  1       -2 0.43831399E-01 0.46281147E+03</pdfrwt>
<totfact> 0.91773232E+02</totfact>
</mgrwt>
</event>
<event>
 4    1  0.4991066E-004  0.1991846E+03  0.7818608E-02  0.1150429E+00
          2   -1    0    0  501    0  0.00000000000E+00  0.00000000000E+00  0.37976306363E+02  0.37976306448E+02  0.25500000000E-02 0.  1.
         -2   -1    0    0    0  501 -0.00000000000E+00 -0.00000000000E+00 -0.26117943432E+03  0.26117943433E+03  0.25500000000E-02 0. -1.
    5000001    1    1    2    0    0 -0.59042379507E+02  0.94621586662E+01 -0.14216425535E+03  0.17238100395E+03  0.77000000000E+02 0.  0.
   -5000001    1    1    2    0    0  0.59042379507E+02 -0.94621586662E+01 -0.81038872607E+02  0.12677473683E+03  0.77000000000E+02 0.  0.
<mgrwt>
<rscale>  0 0.19918464E+03</rscale>
<asrwt>0</asrwt>
<pdfrwt beam="1">  1        2 0.58425088E-02 0.19918464E+03</pdfrwt>
<pdfrwt beam="2">  1       -2 0.40181450E-01 0.19918464E+03</pdfrwt>
<totfact> 0.73430565E+03</totfact>
</mgrwt>
</event>
<event>
 4    1  0.4991066E-004  0.2515353E+03  0.7818608E-02  0.1112338E+00
         -2   -1    0    0    0  501 -0.00000000000E+00  0.00000000000E+00  0.22984309348E+02  0.22984309490E+02  0.25500000000E-02 0. -1.
          2   -1    0    0  501    0  0.00000000000E+00 -0.00000000000E+00 -0.68818701977E+03  0.68818701977E+03  0.25500000000E-02 0.  1.
    5000001    1    1    2    0    0 -0.87544385320E+02  0.97570001705E+01 -0.20213691111E+03  0.23355416778E+03  0.77000000000E+02 0.  0.
   -5000001    1    1    2    0    0  0.87544385320E+02 -0.97570001705E+01 -0.46306579931E+03  0.47761716149E+03  0.77000000000E+02 0.  0.
<mgrwt>
<rscale>  0 0.25153531E+03</rscale>
<asrwt>0</asrwt>
<pdfrwt beam="1">  1        2 0.10587491E+00 0.25153531E+03</pdfrwt>
<pdfrwt beam="2">  1       -2 0.35360481E-02 0.25153531E+03</pdfrwt>
<totfact> 0.14043233E+04</totfact>
</mgrwt>
</event>
<event>
 4    1  0.4991066E-004  0.1608759E+03  0.7818608E-02  0.1187711E+00
          2   -1    0    0  501    0  0.00000000000E+00  0.00000000000E+00  0.23098980532E+03  0.23098980534E+03  0.25500000000E-02 0.  1.
         -2   -1    0    0    0  501 -0.00000000000E+00 -0.00000000000E+00 -0.28011021941E+02  0.28011022057E+02  0.25500000000E-02 0. -1.
    5000001    1    1    2    0    0  0.19881152320E+02  0.12021550857E+02  0.10344970330E+03  0.13103670865E+03  0.77000000000E+02 0.  0.
   -5000001    1    1    2    0    0 -0.19881152320E+02 -0.12021550857E+02  0.99529080086E+02  0.12796411874E+03  0.77000000000E+02 0.  0.
<mgrwt>
<rscale>  0 0.16087586E+03</rscale>
<asrwt>0</asrwt>
<pdfrwt beam="1">  1        2 0.35536894E-01 0.16087586E+03</pdfrwt>
<pdfrwt beam="2">  1       -2 0.43093878E-02 0.16087586E+03</pdfrwt>
<totfact> 0.33586790E+04</totfact>
</mgrwt>
</event>
<event>
 4    1  0.4991066E-004  0.1724210E+03  0.7818608E-02  0.1175346E+00
          2   -1    0    0  501    0  0.00000000000E+00  0.00000000000E+00  0.56117129760E+03  0.56117129761E+03  0.25500000000E-02 0.  1.
         -2   -1    0    0    0  501 -0.00000000000E+00 -0.00000000000E+00 -0.13244168188E+02  0.13244168433E+02  0.25500000000E-02 0. -1.
    5000001    1    1    2    0    0  0.34786098952E+02  0.14738532424E+02  0.30299712114E+03  0.31490244908E+03  0.77000000000E+02 0.  0.
   -5000001    1    1    2    0    0 -0.34786098952E+02 -0.14738532424E+02  0.24493000827E+03  0.25951301696E+03  0.77000000000E+02 0.  0.
<mgrwt>
<rscale>  0 0.17242096E+03</rscale>
<asrwt>0</asrwt>
<pdfrwt beam="1">  1        2 0.86334046E-01 0.17242096E+03</pdfrwt>
<pdfrwt beam="2">  1       -2 0.20375643E-02 0.17242096E+03</pdfrwt>
<totfact> 0.39167585E+04</totfact>
</mgrwt>
</event>
<event>
 4    1  0.4991066E-004  0.1851463E+03  0.7818608E-02  0.1162913E+00
          2   -1    0    0  501    0  0.00000000000E+00  0.00000000000E+00  0.77611290452E+03  0.77611290452E+03  0.25500000000E-02 0.  1.
         -2   -1    0    0    0  501 -0.00000000000E+00 -0.00000000000E+00 -0.11041937348E+02  0.11041937642E+02  0.25500000000E-02 0. -1.
    5000001    1    1    2    0    0  0.24780829892E+02  0.44954017169E+02  0.37226384551E+03  0.38359395702E+03  0.77000000000E+02 0.  0.
   -5000001    1    1    2    0    0 -0.24780829892E+02 -0.44954017169E+02  0.39280712166E+03  0.40356088514E+03  0.77000000000E+02 0.  0.
<mgrwt>
<rscale>  0 0.18514632E+03</rscale>
<asrwt>0</asrwt>
<pdfrwt beam="1">  1        2 0.11940201E+00 0.18514632E+03</pdfrwt>
<pdfrwt beam="2">  1       -2 0.16987593E-02 0.18514632E+03</pdfrwt>
<totfact> 0.35027959E+04</totfact>
</mgrwt>
</event>
<event>
 4    1  0.4991066E-004  0.2224091E+03  0.7818608E-02  0.1132100E+00
          2   -1    0    0  501    0  0.00000000000E+00  0.00000000000E+00  0.35926963833E+03  0.35926963834E+03  0.25500000000E-02 0.  1.
         -2   -1    0    0    0  501 -0.00000000000E+00 -0.00000000000E+00 -0.34421073326E+02  0.34421073420E+02  0.25500000000E-02 0. -1.
    5000001    1    1    2    0    0  0.74731378548E+02  0.15990407288E+02  0.20567373437E+03  0.23253205601E+03  0.77000000000E+02 0.  0.
   -5000001    1    1    2    0    0 -0.74731378548E+02 -0.15990407288E+02  0.11917483064E+03  0.16115865575E+03  0.77000000000E+02 0.  0.
<mgrwt>
<rscale>  0 0.22240905E+03</rscale>
<asrwt>0</asrwt>
<pdfrwt beam="1">  1        2 0.55272252E-01 0.22240905E+03</pdfrwt>
<pdfrwt beam="2">  1       -2 0.52955498E-02 0.22240905E+03</pdfrwt>
<totfact> 0.15746133E+04</totfact>
</mgrwt>
</event>
<event>
 4    1  0.4991066E-004  0.2279998E+03  0.7818608E-02  0.1128056E+00
          2   -1    0    0  501    0  0.00000000000E+00  0.00000000000E+00  0.14158484573E+04  0.14158484573E+04  0.25500000000E-02 0.  1.
         -2   -1    0    0    0  501 -0.00000000000E+00 -0.00000000000E+00 -0.91789335728E+01  0.91789339270E+01  0.25500000000E-02 0. -1.
    5000001    1    1    2    0    0 -0.14389988564E+02 -0.63743997230E+02  0.10338600440E+04  0.10387809969E+04  0.77000000000E+02 0.  0.
   -5000001    1    1    2    0    0  0.14389988564E+02  0.63743997230E+02  0.37280947974E+03  0.38624639434E+03  0.77000000000E+02 0.  0.
<mgrwt>
<rscale>  0 0.22799982E+03</rscale>
<asrwt>0</asrwt>
<pdfrwt beam="1">  1        2 0.21782272E+00 0.22799982E+03</pdfrwt>
<pdfrwt beam="2">  1       -2 0.14121444E-02 0.22799982E+03</pdfrwt>
<totfact> 0.19360610E+04</totfact>
</mgrwt>
</event>
<event>
 4    1  0.4991066E-004  0.2688428E+03  0.7818608E-02  0.1101944E+00
         -2   -1    0    0    0  501 -0.00000000000E+00  0.00000000000E+00  0.11976409825E+02  0.11976410097E+02  0.25500000000E-02 0. -1.
          2   -1    0    0  501    0  0.00000000000E+00 -0.00000000000E+00 -0.15087253617E+04  0.15087253617E+04  0.25500000000E-02 0.  1.
    5000001    1    1    2    0    0 -0.99602388258E+02  0.45845975888E+02 -0.80972156760E+03  0.82073168958E+03  0.77000000000E+02 0.  0.
   -5000001    1    1    2    0    0  0.99602388258E+02 -0.45845975888E+02 -0.68702738426E+03  0.69997008220E+03  0.77000000000E+02 0.  0.
<mgrwt>
<rscale>  0 0.26884281E+03</rscale>
<asrwt>0</asrwt>
<pdfrwt beam="1">  1        2 0.23211144E+00 0.26884281E+03</pdfrwt>
<pdfrwt beam="2">  1       -2 0.18425258E-02 0.26884281E+03</pdfrwt>
<totfact> 0.11766451E+04</totfact>
</mgrwt>
</event>
<event>
 4    1  0.4991066E-004  0.2836957E+03  0.7818608E-02  0.1093687E+00
         -2   -1    0    0    0  501 -0.00000000000E+00  0.00000000000E+00  0.59442318872E+02  0.59442318927E+02  0.25500000000E-02 0. -1.
          2   -1    0    0  501    0  0.00000000000E+00 -0.00000000000E+00 -0.33849313725E+03  0.33849313726E+03  0.25500000000E-02 0.  1.
    5000001    1    1    2    0    0  0.11748709521E+03  0.12582859222E+02 -0.11824011889E+03  0.18404149424E+03  0.77000000000E+02 0.  0.
   -5000001    1    1    2    0    0 -0.11748709521E+03 -0.12582859222E+02 -0.16081069949E+03  0.21389396194E+03  0.77000000000E+02 0.  0.
<mgrwt>
<rscale>  0 0.28369573E+03</rscale>
<asrwt>0</asrwt>
<pdfrwt beam="1">  1        2 0.52075866E-01 0.28369573E+03</pdfrwt>
<pdfrwt beam="2">  1       -2 0.91449723E-02 0.28369573E+03</pdfrwt>
<totfact> 0.72960479E+03</totfact>
</mgrwt>
</event>
<event>
 4    1  0.4991066E-004  0.2212993E+03  0.7818608E-02  0.1132918E+00
          2   -1    0    0  501    0  0.00000000000E+00  0.00000000000E+00  0.18684139091E+02  0.18684139265E+02  0.25500000000E-02 0.  1.
         -2   -1    0    0    0  501 -0.00000000000E+00 -0.00000000000E+00 -0.65528026712E+03  0.65528026713E+03  0.25500000000E-02 0. -1.
    5000001    1    1    2    0    0 -0.15835149508E+02 -0.50433817714E+02 -0.13760986217E+03  0.16631234499E+03  0.77000000000E+02 0.  0.
   -5000001    1    1    2    0    0  0.15835149508E+02  0.50433817714E+02 -0.49898626586E+03  0.50765206141E+03  0.77000000000E+02 0.  0.
<mgrwt>
<rscale>  0 0.22129932E+03</rscale>
<asrwt>0</asrwt>
<pdfrwt beam="1">  1        2 0.28744835E-02 0.22129932E+03</pdfrwt>
<pdfrwt beam="2">  1       -2 0.10081233E+00 0.22129932E+03</pdfrwt>
<totfact> 0.27591089E+03</totfact>
</mgrwt>
</event>
<event>
 4    1  0.4991066E-004  0.1917868E+03  0.7818608E-02  0.1156860E+00
          2   -1    0    0  501    0  0.00000000000E+00  0.00000000000E+00  0.60983082264E+03  0.60983082264E+03  0.25500000000E-02 0.  1.
         -2   -1    0    0    0  501 -0.00000000000E+00 -0.00000000000E+00 -0.15078838652E+02  0.15078838867E+02  0.25500000000E-02 0. -1.
    5000001    1    1    2    0    0 -0.11419695578E+02 -0.49854408113E+02  0.21426112165E+03  0.23335102251E+03  0.77000000000E+02 0.  0.
   -5000001    1    1    2    0    0  0.11419695578E+02  0.49854408113E+02  0.38049086233E+03  0.39155863900E+03  0.77000000000E+02 0.  0.
<mgrwt>
<rscale>  0 0.19178676E+03</rscale>
<asrwt>0</asrwt>
<pdfrwt beam="1">  1        2 0.93820137E-01 0.19178676E+03</pdfrwt>
<pdfrwt beam="2">  1       -2 0.23198211E-02 0.19178676E+03</pdfrwt>
<totfact> 0.29727055E+04</totfact>
</mgrwt>
</event>
<event>
 4    1  0.4991066E-004  0.2479291E+03  0.7818608E-02  0.1114621E+00
         -2   -1    0    0    0  501 -0.00000000000E+00  0.00000000000E+00  0.17157764801E+02  0.17157764990E+02  0.25500000000E-02 0.  1.
          2   -1    0    0  501    0  0.00000000000E+00 -0.00000000000E+00 -0.89564147623E+03  0.89564147624E+03  0.25500000000E-02 0. -1.
    5000001    1    1    2    0    0  0.71659801423E+02  0.22432024381E+02 -0.66619329099E+03  0.67481910451E+03  0.77000000000E+02 0.  0.
   -5000001    1    1    2    0    0 -0.71659801423E+02 -0.22432024381E+02 -0.21229042044E+03  0.23798013671E+03  0.77000000000E+02 0.  0.
<mgrwt>
<rscale>  0 0.24792907E+03</rscale>
<asrwt>0</asrwt>
<pdfrwt beam="1">  1        2 0.13779096E+00 0.24792907E+03</pdfrwt>
<pdfrwt beam="2">  1       -2 0.26396568E-02 0.24792907E+03</pdfrwt>
<totfact> 0.15541636E+04</totfact>
</mgrwt>
</event>
<event>
 4    1  0.4991066E-004  0.2237193E+03  0.7818608E-02  0.1131140E+00
          2   -1    0    0  501    0  0.00000000000E+00  0.00000000000E+00  0.13544843971E+03  0.13544843973E+03  0.25500000000E-02 0.  1.
         -2   -1    0    0    0  501 -0.00000000000E+00 -0.00000000000E+00 -0.92378894714E+02  0.92378894749E+02  0.25500000000E-02 0. -1.
    5000001    1    1    2    0    0  0.67204736717E+02  0.45070820871E+02  0.27621278569E+02  0.11506428882E+03  0.77000000000E+02 0.  0.
   -5000001    1    1    2    0    0 -0.67204736717E+02 -0.45070820871E+02  0.15448266423E+02  0.11276304566E+03  0.77000000000E+02 0.  0.
<mgrwt>
<rscale>  0 0.22371926E+03</rscale>
<asrwt>0</asrwt>
<pdfrwt beam="1">  1        2 0.20838221E-01 0.22371926E+03</pdfrwt>
<pdfrwt beam="2">  1       -2 0.14212138E-01 0.22371926E+03</pdfrwt>
<totfact> 0.96870113E+03</totfact>
</mgrwt>
</event>
<event>
 4    1  0.4991066E-004  0.3809581E+03  0.7818608E-02  0.1050580E+00
          2   -1    0    0  501    0  0.00000000000E+00  0.00000000000E+00  0.24471232435E+04  0.24471232435E+04  0.25500000000E-02 0.  1.
         -2   -1    0    0    0  501 -0.00000000000E+00 -0.00000000000E+00 -0.14826500476E+02  0.14826500695E+02  0.25500000000E-02 0. -1.
    5000001    1    1    2    0    0  0.16959963825E+03 -0.13758854933E+02  0.14579477750E+04  0.14698619180E+04  0.77000000000E+02 0.  0.
   -5000001    1    1    2    0    0 -0.16959963825E+03  0.13758854933E+02  0.97434896805E+03  0.99208782622E+03  0.77000000000E+02 0.  0.
<mgrwt>
<rscale>  0 0.38095813E+03</rscale>
<asrwt>0</asrwt>
<pdfrwt beam="1">  1        2 0.37648052E+00 0.38095813E+03</pdfrwt>
<pdfrwt beam="2">  1       -2 0.22810000E-02 0.38095813E+03</pdfrwt>
<totfact> 0.27084088E+03</totfact>
</mgrwt>
</event>
<event>
 4    1  0.4991066E-004  0.3622713E+03  0.7818608E-02  0.1057688E+00
         -2   -1    0    0    0  501 -0.00000000000E+00  0.00000000000E+00  0.24675266961E+02  0.24675267093E+02  0.25500000000E-02 0. -1.
          2   -1    0    0  501    0  0.00000000000E+00 -0.00000000000E+00 -0.13296764858E+04  0.13296764858E+04  0.25500000000E-02 0.  1.
    5000001    1    1    2    0    0 -0.13444832477E+03  0.16598495024E+02 -0.30723506737E+03  0.34449128972E+03  0.77000000000E+02 0.  0.
   -5000001    1    1    2    0    0  0.13444832477E+03 -0.16598495024E+02 -0.99776615146E+03  0.10098604632E+04  0.77000000000E+02 0.  0.
<mgrwt>
<rscale>  0 0.36227129E+03</rscale>
<asrwt>0</asrwt>
<pdfrwt beam="1">  1        2 0.20456556E+00 0.36227129E+03</pdfrwt>
<pdfrwt beam="2">  1       -2 0.37961960E-02 0.36227129E+03</pdfrwt>
<totfact> 0.50417735E+03</totfact>
</mgrwt>
</event>
<event>
 4    1  0.4991066E-004  0.2958813E+03  0.7818608E-02  0.1087318E+00
          2   -1    0    0  501    0  0.00000000000E+00  0.00000000000E+00  0.26924351919E+03  0.26924351920E+03  0.25500000000E-02 0.  1.
         -2   -1    0    0    0  501 -0.00000000000E+00 -0.00000000000E+00 -0.81288628458E+02  0.81288628498E+02  0.25500000000E-02 0. -1.
    5000001    1    1    2    0    0  0.77267258639E+02  0.75066485384E+02  0.17213415112E+03  0.21717359984E+03  0.77000000000E+02 0.  0.
   -5000001    1    1    2    0    0 -0.77267258639E+02 -0.75066485384E+02  0.15820739613E+02  0.13335854786E+03  0.77000000000E+02 0.  0.
<mgrwt>
<rscale>  0 0.29588130E+03</rscale>
<asrwt>0</asrwt>
<pdfrwt beam="1">  1        2 0.41422079E-01 0.29588130E+03</pdfrwt>
<pdfrwt beam="2">  1       -2 0.12505943E-01 0.29588130E+03</pdfrwt>
<totfact> 0.56652592E+03</totfact>
</mgrwt>
</event>
<event>
 4    1  0.4991066E-004  0.6643101E+03  0.7818608E-02  0.9780292E-01
         -2   -1    0    0    0  501 -0.00000000000E+00  0.00000000000E+00  0.30417820790E+03  0.30417820791E+03  0.25500000000E-02 0. -1.
          2   -1    0    0  501    0  0.00000000000E+00 -0.00000000000E+00 -0.36270506730E+03  0.36270506731E+03  0.25500000000E-02 0.  1.
    5000001    1    1    2    0    0 -0.12751258669E+03 -0.28913478488E+03 -0.96900917148E+02  0.33937762351E+03  0.77000000000E+02 0.  0.
   -5000001    1    1    2    0    0  0.12751258669E+03  0.28913478488E+03  0.38374057755E+02  0.32750565171E+03  0.77000000000E+02 0.  0.
<mgrwt>
<rscale>  0 0.66431010E+03</rscale>
<asrwt>0</asrwt>
<pdfrwt beam="1">  1        2 0.55800780E-01 0.66431010E+03</pdfrwt>
<pdfrwt beam="2">  1       -2 0.46796647E-01 0.66431010E+03</pdfrwt>
<totfact> 0.38781388E+02</totfact>
</mgrwt>
</event>
<event>
 4    1  0.4991066E-004  0.2927864E+03  0.7818608E-02  0.1088903E+00
         -2   -1    0    0    0  501 -0.00000000000E+00  0.00000000000E+00  0.71699478241E+03  0.71699478241E+03  0.25500000000E-02 0. -1.
          2   -1    0    0  501    0  0.00000000000E+00 -0.00000000000E+00 -0.29890002364E+02  0.29890002472E+02  0.25500000000E-02 0.  1.
    5000001    1    1    2    0    0  0.11933628574E+03  0.24218208844E+02  0.27731078450E+03  0.31250270708E+03  0.77000000000E+02 0.  0.
   -5000001    1    1    2    0    0 -0.11933628574E+03 -0.24218208844E+02  0.40979399554E+03  0.43438207780E+03  0.77000000000E+02 0.  0.
<mgrwt>
<rscale>  0 0.29278645E+03</rscale>
<asrwt>0</asrwt>
<pdfrwt beam="1">  1        2 0.45984618E-02 0.29278645E+03</pdfrwt>
<pdfrwt beam="2">  1       -2 0.11030689E+00 0.29278645E+03</pdfrwt>
<totfact> 0.11975570E+03</totfact>
</mgrwt>
</event>
<event>
 4    1  0.4991066E-004  0.2146954E+03  0.7818608E-02  0.1137901E+00
         -2   -1    0    0    0  501 -0.00000000000E+00  0.00000000000E+00  0.15025022950E+02  0.15025023167E+02  0.25500000000E-02 0. -1.
          2   -1    0    0  501    0  0.00000000000E+00 -0.00000000000E+00 -0.76695546324E+03  0.76695546324E+03  0.25500000000E-02 0.  1.
    5000001    1    1    2    0    0 -0.53848547775E+02  0.36653651763E+02 -0.50985886581E+03  0.51973860674E+03  0.77000000000E+02 0.  0.
   -5000001    1    1    2    0    0  0.53848547775E+02 -0.36653651763E+02 -0.24207157447E+03  0.26224187967E+03  0.77000000000E+02 0.  0.
<mgrwt>
<rscale>  0 0.21469535E+03</rscale>
<asrwt>0</asrwt>
<pdfrwt beam="1">  1        2 0.11799312E+00 0.21469535E+03</pdfrwt>
<pdfrwt beam="2">  1       -2 0.23115426E-02 0.21469535E+03</pdfrwt>
<totfact> 0.22896658E+04</totfact>
</mgrwt>
</event>
<event>
 4    1  0.4991066E-004  0.1588036E+03  0.7818608E-02  0.1190054E+00
          2   -1    0    0  501    0  0.00000000000E+00  0.00000000000E+00  0.21525660539E+03  0.21525660540E+03  0.25500000000E-02 0.  1.
         -2   -1    0    0    0  501 -0.00000000000E+00 -0.00000000000E+00 -0.29288987513E+02  0.29288987624E+02  0.25500000000E-02 0. -1.
    5000001    1    1    2    0    0 -0.90320001788E+01  0.13573957820E+02  0.76846261186E+02  0.11000080553E+03  0.77000000000E+02 0.  0.
   -5000001    1    1    2    0    0  0.90320001788E+01 -0.13573957820E+02  0.10912135669E+03  0.13454478750E+03  0.77000000000E+02 0.  0.
<mgrwt>
<rscale>  0 0.15880363E+03</rscale>
<asrwt>0</asrwt>
<pdfrwt beam="1">  1        2 0.33116401E-01 0.15880363E+03</pdfrwt>
<pdfrwt beam="2">  1       -2 0.45059980E-02 0.15880363E+03</pdfrwt>
<totfact> 0.33851477E+04</totfact>
</mgrwt>
</event>
<event>
 4    1  0.4991066E-004  0.2014931E+03  0.7818608E-02  0.1148485E+00
          2   -1    0    0  501    0  0.00000000000E+00  0.00000000000E+00  0.73466334328E+02  0.73466334372E+02  0.25500000000E-02 0.  1.
         -2   -1    0    0    0  501 -0.00000000000E+00 -0.00000000000E+00 -0.13815676161E+03  0.13815676163E+03  0.25500000000E-02 0. -1.
    5000001    1    1    2    0    0 -0.44639508769E+01 -0.60934129718E+02 -0.91444669322E+01  0.98719381569E+02  0.77000000000E+02 0.  0.
   -5000001    1    1    2    0    0  0.44639508769E+01  0.60934129718E+02 -0.55545960347E+02  0.11290371443E+03  0.77000000000E+02 0.  0.
<mgrwt>
<rscale>  0 0.20149313E+03</rscale>
<asrwt>0</asrwt>
<pdfrwt beam="1">  1        2 0.11302513E-01 0.20149313E+03</pdfrwt>
<pdfrwt beam="2">  1       -2 0.21254886E-01 0.20149313E+03</pdfrwt>
<totfact> 0.10080004E+04</totfact>
</mgrwt>
</event>
<event>
 4    1  0.4991066E-004  0.2188240E+03  0.7818608E-02  0.1134763E+00
         -2   -1    0    0    0  501 -0.00000000000E+00  0.00000000000E+00  0.54645705231E+01  0.54645711181E+01  0.25500000000E-02 0. -1.
          2   -1    0    0  501    0  0.00000000000E+00 -0.00000000000E+00 -0.21906545531E+04  0.21906545531E+04  0.25500000000E-02 0.  1.
    5000001    1    1    2    0    0  0.35266469844E+02 -0.58229808651E+02 -0.14691194663E+04  0.14727102365E+04  0.77000000000E+02 0.  0.
   -5000001    1    1    2    0    0 -0.35266469844E+02  0.58229808651E+02 -0.71607051626E+03  0.72340888767E+03  0.77000000000E+02 0.  0.
<mgrwt>
<rscale>  0 0.21882401E+03</rscale>
<asrwt>0</asrwt>
<pdfrwt beam="1">  1        2 0.33702308E+00 0.21882401E+03</pdfrwt>
<pdfrwt beam="2">  1       -2 0.84070495E-03 0.21882401E+03</pdfrwt>
<totfact> 0.16060007E+04</totfact>
</mgrwt>
</event>
<event>
 4    1  0.4991066E-004  0.2277873E+03  0.7818608E-02  0.1128207E+00
          2   -1    0    0  501    0  0.00000000000E+00  0.00000000000E+00  0.15674746419E+04  0.15674746419E+04  0.25500000000E-02 0.  1.
         -2   -1    0    0    0  501 -0.00000000000E+00 -0.00000000000E+00 -0.82755812899E+01  0.82755816827E+01  0.25500000000E-02 0. -1.
    5000001    1    1    2    0    0 -0.79537367322E+02 -0.22424304804E+02  0.67846898315E+03  0.68780680670E+03  0.77000000000E+02 0.  0.
   -5000001    1    1    2    0    0  0.79537367322E+02  0.22424304804E+02  0.88073007751E+03  0.88794341693E+03  0.77000000000E+02 0.  0.
<mgrwt>
<rscale>  0 0.22778731E+03</rscale>
<asrwt>0</asrwt>
<pdfrwt beam="1">  1        2 0.24115009E+00 0.22778731E+03</pdfrwt>
<pdfrwt beam="2">  1       -2 0.12731656E-02 0.22778731E+03</pdfrwt>
<totfact> 0.18687456E+04</totfact>
</mgrwt>
</event>
<event>
 4    1  0.4991066E-004  0.1952730E+03  0.7818608E-02  0.1153790E+00
         -2   -1    0    0    0  501 -0.00000000000E+00  0.00000000000E+00  0.33025138939E+03  0.33025138940E+03  0.25500000000E-02 0. -1.
          2   -1    0    0  501    0  0.00000000000E+00 -0.00000000000E+00 -0.28865547510E+02  0.28865547623E+02  0.25500000000E-02 0.  1.
    5000001    1    1    2    0    0  0.36883987480E+02 -0.41017690996E+02  0.19425193801E+03  0.21611500394E+03  0.77000000000E+02 0.  0.
   -5000001    1    1    2    0    0 -0.36883987480E+02  0.41017690996E+02  0.10713390387E+03  0.14300193308E+03  0.77000000000E+02 0.  0.
<mgrwt>
<rscale>  0 0.19527301E+03</rscale>
<asrwt>0</asrwt>
<pdfrwt beam="1">  1        2 0.44408535E-02 0.19527301E+03</pdfrwt>
<pdfrwt beam="2">  1       -2 0.50807906E-01 0.19527301E+03</pdfrwt>
<totfact> 0.66566440E+03</totfact>
</mgrwt>
</event>
<event>
 4    1  0.4991066E-004  0.1750510E+03  0.7818608E-02  0.1172681E+00
         -2   -1    0    0    0  501 -0.00000000000E+00  0.00000000000E+00  0.47691928634E+02  0.47691928703E+02  0.25500000000E-02 0. -1.
          2   -1    0    0  501    0  0.00000000000E+00 -0.00000000000E+00 -0.16062904270E+03  0.16062904272E+03  0.25500000000E-02 0.  1.
    5000001    1    1    2    0    0 -0.39266062060E+01 -0.29556692386E+02 -0.91014980711E+02  0.12288914930E+03  0.77000000000E+02 0.  0.
   -5000001    1    1    2    0    0  0.39266062060E+01  0.29556692386E+02 -0.21922133356E+02  0.85431822127E+02  0.77000000000E+02 0.  0.
<mgrwt>
<rscale>  0 0.17505095E+03</rscale>
<asrwt>0</asrwt>
<pdfrwt beam="1">  1        2 0.24712160E-01 0.17505095E+03</pdfrwt>
<pdfrwt beam="2">  1       -2 0.73372199E-02 0.17505095E+03</pdfrwt>
<totfact> 0.22429851E+04</totfact>
</mgrwt>
</event>
<event>
 4    1  0.4991066E-004  0.2846022E+03  0.7818608E-02  0.1093202E+00
          2   -1    0    0  501    0  0.00000000000E+00  0.00000000000E+00  0.53352967767E+03  0.53352967768E+03  0.25500000000E-02 0.  1.
         -2   -1    0    0    0  501 -0.00000000000E+00 -0.00000000000E+00 -0.37954023248E+02  0.37954023334E+02  0.25500000000E-02 0. -1.
    5000001    1    1    2    0    0 -0.34845417913E+02 -0.43333954912E+01  0.18069349433E+02  0.86536020564E+02  0.77000000000E+02 0.  0.
   -5000001    1    1    2    0    0  0.34845417913E+02  0.43333954912E+01  0.47750630499E+03  0.48494768045E+03  0.77000000000E+02 0.  0.
<mgrwt>
<rscale>  0 0.28460216E+03</rscale>
<asrwt>0</asrwt>
<pdfrwt beam="1">  1        2 0.82081486E-01 0.28460216E+03</pdfrwt>
<pdfrwt beam="2">  1       -2 0.58390807E-02 0.28460216E+03</pdfrwt>
<totfact> 0.88907632E+03</totfact>
</mgrwt>
</event>
<event>
 4    1  0.4991066E-004  0.3612413E+03  0.7818608E-02  0.1058093E+00
          2   -1    0    0  501    0  0.00000000000E+00  0.00000000000E+00  0.64998021670E+03  0.64998021671E+03  0.25500000000E-02 0.  1.
         -2   -1    0    0    0  501 -0.00000000000E+00 -0.00000000000E+00 -0.50192014156E+02  0.50192014221E+02  0.25500000000E-02 0. -1.
    5000001    1    1    2    0    0  0.31932635096E+02 -0.85391696946E+02  0.56269097936E+03  0.57520567916E+03  0.77000000000E+02 0.  0.
   -5000001    1    1    2    0    0 -0.31932635096E+02  0.85391696946E+02  0.37097223188E+02  0.12496655176E+03  0.77000000000E+02 0.  0.
<mgrwt>
<rscale>  0 0.36124128E+03</rscale>
<asrwt>0</asrwt>
<pdfrwt beam="1">  1        2 0.99996952E-01 0.36124128E+03</pdfrwt>
<pdfrwt beam="2">  1       -2 0.77218487E-02 0.36124128E+03</pdfrwt>
<totfact> 0.46078710E+03</totfact>
</mgrwt>
</event>
<event>
 4    1  0.4991066E-004  0.2407811E+03  0.7818608E-02  0.1119274E+00
          2   -1    0    0  501    0  0.00000000000E+00  0.00000000000E+00  0.33044576484E+03  0.33044576485E+03  0.25500000000E-02 0.  1.
         -2   -1    0    0    0  501 -0.00000000000E+00 -0.00000000000E+00 -0.43861612153E+02  0.43861612227E+02  0.25500000000E-02 0. -1.
    5000001    1    1    2    0    0  0.88252571100E+02 -0.14851218994E+02  0.10664251511E+03  0.15909337208E+03  0.77000000000E+02 0.  0.
   -5000001    1    1    2    0    0 -0.88252571100E+02  0.14851218994E+02  0.17994163757E+03  0.21521400499E+03  0.77000000000E+02 0.  0.
<mgrwt>
<rscale>  0 0.24078110E+03</rscale>
<asrwt>0</asrwt>
<pdfrwt beam="1">  1        2 0.50837809E-01 0.24078110E+03</pdfrwt>
<pdfrwt beam="2">  1       -2 0.67479404E-02 0.24078110E+03</pdfrwt>
<totfact> 0.11943570E+04</totfact>
</mgrwt>
</event>
<event>
 4    1  0.4991066E-004  0.3182087E+03  0.7818608E-02  0.1076477E+00
         -2   -1    0    0    0  501 -0.00000000000E+00  0.00000000000E+00  0.24997761516E+02  0.24997761646E+02  0.25500000000E-02 0. -1.
          2   -1    0    0  501    0  0.00000000000E+00 -0.00000000000E+00 -0.10126581868E+04  0.10126581868E+04  0.25500000000E-02 0.  1.
    5000001    1    1    2    0    0 -0.96460590873E+02 -0.16471458402E+02 -0.17086264085E+03  0.21142137208E+03  0.77000000000E+02 0.  0.
   -5000001    1    1    2    0    0  0.96460590873E+02  0.16471458402E+02 -0.81679778441E+03  0.82623457635E+03  0.77000000000E+02 0.  0.
<mgrwt>
<rscale>  0 0.31820866E+03</rscale>
<asrwt>0</asrwt>
<pdfrwt beam="1">  1        2 0.15579354E+00 0.31820866E+03</pdfrwt>
<pdfrwt beam="2">  1       -2 0.38458103E-02 0.31820866E+03</pdfrwt>
<totfact> 0.75403663E+03</totfact>
</mgrwt>
</event>
<event>
 4    1  0.4991066E-004  0.3710536E+03  0.7818608E-02  0.1054291E+00
         -2   -1    0    0    0  501 -0.00000000000E+00  0.00000000000E+00  0.11775988334E+02  0.11775988610E+02  0.25500000000E-02 0. -1.
          2   -1    0    0  501    0  0.00000000000E+00 -0.00000000000E+00 -0.29229127298E+04  0.29229127298E+04  0.25500000000E-02 0.  1.
    5000001    1    1    2    0    0  0.41842608424E+02 -0.16252163891E+03 -0.15986109906E+04  0.16092390085E+04  0.77000000000E+02 0.  0.
   -5000001    1    1    2    0    0 -0.41842608424E+02  0.16252163891E+03 -0.13125257508E+04  0.13254497099E+04  0.77000000000E+02 0.  0.
<mgrwt>
<rscale>  0 0.37105356E+03</rscale>
<asrwt>0</asrwt>
<pdfrwt beam="1">  1        2 0.44967830E+00 0.37105356E+03</pdfrwt>
<pdfrwt beam="2">  1       -2 0.18116929E-02 0.37105356E+03</pdfrwt>
<totfact> 0.20463809E+03</totfact>
</mgrwt>
</event>
<event>
 4    1  0.4991066E-004  0.3047653E+03  0.7818608E-02  0.1082882E+00
         -2   -1    0    0    0  501 -0.00000000000E+00  0.00000000000E+00  0.27379127431E+02  0.27379127550E+02  0.25500000000E-02 0. -1.
          2   -1    0    0  501    0  0.00000000000E+00 -0.00000000000E+00 -0.84810842753E+03  0.84810842753E+03  0.25500000000E-02 0.  1.
    5000001    1    1    2    0    0  0.86035719659E+02  0.98736690945E+02 -0.44440170004E+03  0.46965194580E+03  0.77000000000E+02 0.  0.
   -5000001    1    1    2    0    0 -0.86035719659E+02 -0.98736690945E+02 -0.37632760005E+03  0.40583560928E+03  0.77000000000E+02 0.  0.
<mgrwt>
<rscale>  0 0.30476528E+03</rscale>
<asrwt>0</asrwt>
<pdfrwt beam="1">  1        2 0.13047820E+00 0.30476528E+03</pdfrwt>
<pdfrwt beam="2">  1       -2 0.42121741E-02 0.30476528E+03</pdfrwt>
<totfact> 0.83656150E+03</totfact>
</mgrwt>
</event>
<event>
 4    1  0.4991066E-004  0.2649340E+03  0.7818608E-02  0.1104214E+00
          2   -1    0    0  501    0  0.00000000000E+00  0.00000000000E+00  0.31949021758E+04  0.31949021758E+04  0.25500000000E-02 0.  1.
         -2   -1    0    0    0  501 -0.00000000000E+00 -0.00000000000E+00 -0.54923460049E+01  0.54923465968E+01  0.25500000000E-02 0. -1.
    5000001    1    1    2    0    0 -0.61681025679E+02  0.67092272431E+02  0.89944139343E+03  0.90732008804E+03  0.77000000000E+02 0.  0.
   -5000001    1    1    2    0    0  0.61681025679E+02 -0.67092272431E+02  0.22899684364E+04  0.22930744344E+04  0.77000000000E+02 0.  0.
<mgrwt>
<rscale>  0 0.26493402E+03</rscale>
<asrwt>0</asrwt>
<pdfrwt beam="1">  1        2 0.49152479E+00 0.26493402E+03</pdfrwt>
<pdfrwt beam="2">  1       -2 0.84497399E-03 0.26493402E+03</pdfrwt>
<totfact> 0.43287419E+03</totfact>
</mgrwt>
</event>
<event>
 4    1  0.4991066E-004  0.2923183E+03  0.7818608E-02  0.1089145E+00
         -2   -1    0    0    0  501 -0.00000000000E+00  0.00000000000E+00  0.17032205451E+02  0.17032205642E+02  0.25500000000E-02 0. -1.
          2   -1    0    0  501    0  0.00000000000E+00 -0.00000000000E+00 -0.12542416727E+04  0.12542416727E+04  0.25500000000E-02 0.  1.
    5000001    1    1    2    0    0  0.11249538733E+03  0.10743717498E+02 -0.84302259929E+03  0.85404141736E+03  0.77000000000E+02 0.  0.
   -5000001    1    1    2    0    0 -0.11249538733E+03 -0.10743717498E+02 -0.39418686797E+03  0.41723246100E+03  0.77000000000E+02 0.  0.
<mgrwt>
<rscale>  0 0.29231833E+03</rscale>
<asrwt>0</asrwt>
<pdfrwt beam="1">  1        2 0.19296019E+00 0.29231833E+03</pdfrwt>
<pdfrwt beam="2">  1       -2 0.26203403E-02 0.29231833E+03</pdfrwt>
<totfact> 0.96540181E+03</totfact>
</mgrwt>
</event>
<event>
 4    1  0.4991066E-004  0.2696629E+03  0.7818608E-02  0.1101473E+00
          2   -1    0    0  501    0  0.00000000000E+00  0.00000000000E+00  0.12894544633E+03  0.12894544636E+03  0.25500000000E-02 0.  1.
         -2   -1    0    0    0  501 -0.00000000000E+00 -0.00000000000E+00 -0.14098616538E+03  0.14098616540E+03  0.25500000000E-02 0. -1.
    5000001    1    1    2    0    0 -0.32087851900E+01  0.80352155792E+02 -0.82147161189E+02  0.13836156018E+03  0.77000000000E+02 0.  0.
   -5000001    1    1    2    0    0  0.32087851900E+01 -0.80352155792E+02  0.70106442144E+02  0.13157005158E+03  0.77000000000E+02 0.  0.
<mgrwt>
<rscale>  0 0.26966293E+03</rscale>
<asrwt>0</asrwt>
<pdfrwt beam="1">  1        2 0.19837761E-01 0.26966293E+03</pdfrwt>
<pdfrwt beam="2">  1       -2 0.21690179E-01 0.26966293E+03</pdfrwt>
<totfact> 0.50778016E+03</totfact>
</mgrwt>
</event>
<event>
 4    1  0.4991066E-004  0.2421250E+03  0.7818608E-02  0.1118385E+00
          2   -1    0    0  501    0  0.00000000000E+00  0.00000000000E+00  0.31245080266E+04  0.31245080266E+04  0.25500000000E-02 0.  1.
         -2   -1    0    0    0  501 -0.00000000000E+00 -0.00000000000E+00 -0.46907009888E+01  0.46907016820E+01  0.25500000000E-02 0. -1.
    5000001    1    1    2    0    0 -0.41878333997E+02  0.81798105651E+02  0.17770951122E+04  0.17811346841E+04  0.77000000000E+02 0.  0.
   -5000001    1    1    2    0    0  0.41878333997E+02 -0.81798105651E+02  0.13427222134E+04  0.13480640442E+04  0.77000000000E+02 0.  0.
<mgrwt>
<rscale>  0 0.24212504E+03</rscale>
<asrwt>0</asrwt>
<pdfrwt beam="1">  1        2 0.48069339E+00 0.24212504E+03</pdfrwt>
<pdfrwt beam="2">  1       -2 0.72164659E-03 0.24212504E+03</pdfrwt>
<totfact> 0.60121759E+03</totfact>
</mgrwt>
</event>
<event>
 4    1  0.4991066E-004  0.2548805E+03  0.7818608E-02  0.1110259E+00
         -2   -1    0    0    0  501 -0.00000000000E+00  0.00000000000E+00  0.38208484829E+03  0.38208484830E+03  0.25500000000E-02 0. -1.
          2   -1    0    0  501    0  0.00000000000E+00 -0.00000000000E+00 -0.42506317407E+02  0.42506317483E+02  0.25500000000E-02 0.  1.
    5000001    1    1    2    0    0  0.80295665977E-01  0.87273127663E+02  0.83303009329E+02  0.14312580698E+03  0.77000000000E+02 0.  0.
   -5000001    1    1    2    0    0 -0.80295665977E-01 -0.87273127663E+02  0.25627552155E+03  0.28146535880E+03  0.77000000000E+02 0.  0.
<mgrwt>
<rscale>  0 0.25488052E+03</rscale>
<asrwt>0</asrwt>
<pdfrwt beam="1">  1        2 0.65394336E-02 0.25488052E+03</pdfrwt>
<pdfrwt beam="2">  1       -2 0.58782283E-01 0.25488052E+03</pdfrwt>
<totfact> 0.30244295E+03</totfact>
</mgrwt>
</event>
<event>
 4    1  0.4991066E-004  0.1972985E+03  0.7818608E-02  0.1152039E+00
          2   -1    0    0  501    0  0.00000000000E+00  0.00000000000E+00  0.87875348116E+02  0.87875348153E+02  0.25500000000E-02 0.  1.
         -2   -1    0    0    0  501 -0.00000000000E+00 -0.00000000000E+00 -0.11074403228E+03  0.11074403230E+03  0.25500000000E-02 0. -1.
    5000001    1    1    2    0    0  0.10444402603E+02 -0.45579257632E+02 -0.51904436071E+02  0.10396934527E+03  0.77000000000E+02 0.  0.
   -5000001    1    1    2    0    0 -0.10444402603E+02  0.45579257632E+02  0.29035751911E+02  0.94650035188E+02  0.77000000000E+02 0.  0.
<mgrwt>
<rscale>  0 0.19729846E+03</rscale>
<asrwt>0</asrwt>
<pdfrwt beam="1">  1        2 0.13519284E-01 0.19729846E+03</pdfrwt>
<pdfrwt beam="2">  1       -2 0.17037544E-01 0.19729846E+03</pdfrwt>
<totfact> 0.11789310E+04</totfact>
</mgrwt>
</event>
<event>
 4    1  0.4991066E-004  0.1794079E+03  0.7818608E-02  0.1168377E+00
         -2   -1    0    0    0  501 -0.00000000000E+00  0.00000000000E+00  0.29916669248E+03  0.29916669249E+03  0.25500000000E-02 0. -1.
          2   -1    0    0  501    0  0.00000000000E+00 -0.00000000000E+00 -0.26897377004E+02  0.26897377125E+02  0.25500000000E-02 0.  1.
    5000001    1    1    2    0    0 -0.18662989940E+02  0.41850641360E+02  0.14384884314E+03  0.16947351725E+03  0.77000000000E+02 0.  0.
   -5000001    1    1    2    0    0  0.18662989940E+02 -0.41850641360E+02  0.12842047234E+03  0.15659055237E+03  0.77000000000E+02 0.  0.
<mgrwt>
<rscale>  0 0.17940791E+03</rscale>
<asrwt>0</asrwt>
<pdfrwt beam="1">  1        2 0.41380580E-02 0.17940791E+03</pdfrwt>
<pdfrwt beam="2">  1       -2 0.46025645E-01 0.17940791E+03</pdfrwt>
<totfact> 0.88299535E+03</totfact>
</mgrwt>
</event>
<event>
 4    1  0.4991066E-004  0.2297387E+03  0.7818608E-02  0.1126824E+00
         -2   -1    0    0    0  501 -0.00000000000E+00  0.00000000000E+00  0.10041410032E+02  0.10041410355E+02  0.25500000000E-02 0. -1.
          2   -1    0    0  501    0  0.00000000000E+00 -0.00000000000E+00 -0.13140555314E+04  0.13140555314E+04  0.25500000000E-02 0.  1.
    5000001    1    1    2    0    0  0.95765081678E+01 -0.83813869177E+02 -0.72247652863E+03  0.73144911553E+03  0.77000000000E+02 0.  0.
   -5000001    1    1    2    0    0 -0.95765081678E+01  0.83813869177E+02 -0.58153759273E+03  0.59264782623E+03  0.77000000000E+02 0.  0.
<mgrwt>
<rscale>  0 0.22973873E+03</rscale>
<asrwt>0</asrwt>
<pdfrwt beam="1">  1        2 0.20216225E+00 0.22973873E+03</pdfrwt>
<pdfrwt beam="2">  1       -2 0.15448334E-02 0.22973873E+03</pdfrwt>
<totfact> 0.19299598E+04</totfact>
</mgrwt>
</event>
<event>
 4    1  0.4991066E-004  0.2038551E+03  0.7818608E-02  0.1146527E+00
         -2   -1    0    0    0  501 -0.00000000000E+00  0.00000000000E+00  0.19746269833E+02  0.19746269997E+02  0.25500000000E-02 0. -1.
          2   -1    0    0  501    0  0.00000000000E+00 -0.00000000000E+00 -0.52613602895E+03  0.52613602895E+03  0.25500000000E-02 0.  1.
    5000001    1    1    2    0    0 -0.30324108880E+02  0.53917243875E+02 -0.18579080233E+03  0.21041350479E+03  0.77000000000E+02 0.  0.
   -5000001    1    1    2    0    0  0.30324108880E+02 -0.53917243875E+02 -0.32059895678E+03  0.33546879416E+03  0.77000000000E+02 0.  0.
<mgrwt>
<rscale>  0 0.20385509E+03</rscale>
<asrwt>0</asrwt>
<pdfrwt beam="1">  1        2 0.80943994E-01 0.20385509E+03</pdfrwt>
<pdfrwt beam="2">  1       -2 0.30378881E-02 0.20385509E+03</pdfrwt>
<totfact> 0.23732220E+04</totfact>
</mgrwt>
</event>
<event>
 4    1  0.4991066E-004  0.2629440E+03  0.7818608E-02  0.1105387E+00
          2   -1    0    0  501    0  0.00000000000E+00  0.00000000000E+00  0.12740367081E+03  0.12740367084E+03  0.25500000000E-02 0.  1.
         -2   -1    0    0    0  501 -0.00000000000E+00 -0.00000000000E+00 -0.13567027623E+03  0.13567027626E+03  0.25500000000E-02 0. -1.
    5000001    1    1    2    0    0 -0.70262015579E+02 -0.78812333243E+02 -0.18554185437E+02  0.13199012274E+03  0.77000000000E+02 0.  0.
   -5000001    1    1    2    0    0  0.70262015579E+02  0.78812333243E+02  0.10287580018E+02  0.13108382435E+03  0.77000000000E+02 0.  0.
<mgrwt>
<rscale>  0 0.26294403E+03</rscale>
<asrwt>0</asrwt>
<pdfrwt beam="1">  1        2 0.19600565E-01 0.26294403E+03</pdfrwt>
<pdfrwt beam="2">  1       -2 0.20872350E-01 0.26294403E+03</pdfrwt>
<totfact> 0.54958109E+03</totfact>
</mgrwt>
</event>
<event>
 4    1  0.4991066E-004  0.2606909E+03  0.7818608E-02  0.1106729E+00
         -2   -1    0    0    0  501 -0.00000000000E+00  0.00000000000E+00  0.29238543440E+02  0.29238543551E+02  0.25500000000E-02 0. -1.
          2   -1    0    0  501    0  0.00000000000E+00 -0.00000000000E+00 -0.58108024556E+03  0.58108024557E+03  0.25500000000E-02 0.  1.
    5000001    1    1    2    0    0  0.10410323710E+03  0.55639166487E+01 -0.30840301415E+03  0.33452931154E+03  0.77000000000E+02 0.  0.
   -5000001    1    1    2    0    0 -0.10410323710E+03 -0.55639166487E+01 -0.24343868798E+03  0.27578947758E+03  0.77000000000E+02 0.  0.
<mgrwt>
<rscale>  0 0.26069093E+03</rscale>
<asrwt>0</asrwt>
<pdfrwt beam="1">  1        2 0.89396952E-01 0.26069093E+03</pdfrwt>
<pdfrwt beam="2">  1       -2 0.44982379E-02 0.26069093E+03</pdfrwt>
<totfact> 0.11954107E+04</totfact>
</mgrwt>
</event>
<event>
 4    1  0.4991066E-004  0.2029157E+03  0.7818608E-02  0.1147302E+00
         -2   -1    0    0    0  501 -0.00000000000E+00  0.00000000000E+00  0.10954760489E+02  0.10954760786E+02  0.25500000000E-02 0.  1.
          2   -1    0    0  501    0  0.00000000000E+00 -0.00000000000E+00 -0.93965516660E+03  0.93965516660E+03  0.25500000000E-02 0. -1.
    5000001    1    1    2    0    0  0.11681682534E+01  0.61020584678E+02 -0.58284953911E+03  0.59107314405E+03  0.77000000000E+02 0.  0.
   -5000001    1    1    2    0    0 -0.11681682534E+01 -0.61020584678E+02 -0.34585086699E+03  0.35953678333E+03  0.77000000000E+02 0.  0.
<mgrwt>
<rscale>  0 0.20291572E+03</rscale>
<asrwt>0</asrwt>
<pdfrwt beam="1">  1        2 0.14456227E+00 0.20291572E+03</pdfrwt>
<pdfrwt beam="2">  1       -2 0.16853485E-02 0.20291572E+03</pdfrwt>
<totfact> 0.27846093E+04</totfact>
</mgrwt>
</event>
<event>
 4    1  0.4991066E-004  0.2073269E+03  0.7818608E-02  0.1143700E+00
          2   -1    0    0  501    0  0.00000000000E+00  0.00000000000E+00  0.46258187843E+02  0.46258187913E+02  0.25500000000E-02 0.  1.
         -2   -1    0    0    0  501 -0.00000000000E+00 -0.00000000000E+00 -0.23230725165E+03  0.23230725167E+03  0.25500000000E-02 0. -1.
    5000001    1    1    2    0    0 -0.67644289884E+02  0.57221761041E+01 -0.73617964288E+02  0.12632140721E+03  0.77000000000E+02 0.  0.
   -5000001    1    1    2    0    0  0.67644289884E+02 -0.57221761041E+01 -0.11243109952E+03  0.15224403237E+03  0.77000000000E+02 0.  0.
<mgrwt>
<rscale>  0 0.20732692E+03</rscale>
<asrwt>0</asrwt>
<pdfrwt beam="1">  1        2 0.71166444E-02 0.20732692E+03</pdfrwt>
<pdfrwt beam="2">  1       -2 0.35739577E-01 0.20732692E+03</pdfrwt>
<totfact> 0.71168130E+03</totfact>
</mgrwt>
</event>
<event>
 4    1  0.4991066E-004  0.1860811E+03  0.7818608E-02  0.1162044E+00
         -2   -1    0    0    0  501 -0.00000000000E+00  0.00000000000E+00  0.60862024226E+01  0.60862029568E+01  0.25500000000E-02 0. -1.
          2   -1    0    0  501    0  0.00000000000E+00 -0.00000000000E+00 -0.14223230620E+04  0.14223230620E+04  0.25500000000E-02 0.  1.
    5000001    1    1    2    0    0 -0.48480725265E+02 -0.16350158051E+02 -0.62766829897E+03  0.63444006961E+03  0.77000000000E+02 0.  0.
   -5000001    1    1    2    0    0  0.48480725265E+02  0.16350158051E+02 -0.78856856062E+03  0.79396919536E+03  0.77000000000E+02 0.  0.
<mgrwt>
<rscale>  0 0.18608113E+03</rscale>
<asrwt>0</asrwt>
<pdfrwt beam="1">  1        2 0.21881867E+00 0.18608113E+03</pdfrwt>
<pdfrwt beam="2">  1       -2 0.93634001E-03 0.18608113E+03</pdfrwt>
<totfact> 0.34424769E+04</totfact>
</mgrwt>
</event>
<event>
 4    1  0.4991066E-004  0.2264007E+03  0.7818608E-02  0.1129199E+00
          2   -1    0    0  501    0  0.00000000000E+00  0.00000000000E+00  0.41520968467E+03  0.41520968468E+03  0.25500000000E-02 0.  1.
         -2   -1    0    0    0  501 -0.00000000000E+00 -0.00000000000E+00 -0.30862276423E+02  0.30862276529E+02  0.25500000000E-02 0. -1.
    5000001    1    1    2    0    0 -0.11276559317E+02 -0.64611485271E+02  0.92027984004E+02  0.13674777753E+03  0.77000000000E+02 0.  0.
   -5000001    1    1    2    0    0  0.11276559317E+02  0.64611485271E+02  0.29231942424E+03  0.30932418368E+03  0.77000000000E+02 0.  0.
<mgrwt>
<rscale>  0 0.22640067E+03</rscale>
<asrwt>0</asrwt>
<pdfrwt beam="1">  1        2 0.63878416E-01 0.22640067E+03</pdfrwt>
<pdfrwt beam="2">  1       -2 0.47480423E-02 0.22640067E+03</pdfrwt>
<totfact> 0.15906508E+04</totfact>
</mgrwt>
</event>
<event>
 4    1  0.4991066E-004  0.2155592E+03  0.7818608E-02  0.1137238E+00
         -2   -1    0    0    0  501 -0.00000000000E+00  0.00000000000E+00  0.67995425947E+02  0.67995425995E+02  0.25500000000E-02 0. -1.
          2   -1    0    0  501    0  0.00000000000E+00 -0.00000000000E+00 -0.17084151027E+03  0.17084151029E+03  0.25500000000E-02 0.  1.
    5000001    1    1    2    0    0 -0.49972401176E+02  0.11191624392E+02  0.99173426221E+01  0.93004553762E+02  0.77000000000E+02 0.  0.
   -5000001    1    1    2    0    0  0.49972401176E+02 -0.11191624392E+02 -0.11276342695E+03  0.14583238252E+03  0.77000000000E+02 0.  0.
<mgrwt>
<rscale>  0 0.21555919E+03</rscale>
<asrwt>0</asrwt>
<pdfrwt beam="1">  1        2 0.26283309E-01 0.21555919E+03</pdfrwt>
<pdfrwt beam="2">  1       -2 0.10460835E-01 0.21555919E+03</pdfrwt>
<totfact> 0.12212404E+04</totfact>
</mgrwt>
</event>
<event>
 4    1  0.4991066E-004  0.2580253E+03  0.7818608E-02  0.1108335E+00
          2   -1    0    0  501    0  0.00000000000E+00  0.00000000000E+00  0.75322768461E+03  0.75322768461E+03  0.25500000000E-02 0.  1.
         -2   -1    0    0    0  501 -0.00000000000E+00 -0.00000000000E+00 -0.22097256994E+02  0.22097257141E+02  0.25500000000E-02 0. -1.
    5000001    1    1    2    0    0 -0.97797202793E+02  0.21685147449E+02  0.28716666600E+03  0.31373274065E+03  0.77000000000E+02 0.  0.
   -5000001    1    1    2    0    0  0.97797202793E+02 -0.21685147449E+02  0.44396376161E+03  0.46159220110E+03  0.77000000000E+02 0.  0.
<mgrwt>
<rscale>  0 0.25802531E+03</rscale>
<asrwt>0</asrwt>
<pdfrwt beam="1">  1        2 0.11588116E+00 0.25802531E+03</pdfrwt>
<pdfrwt beam="2">  1       -2 0.33995788E-02 0.25802531E+03</pdfrwt>
<totfact> 0.13351984E+04</totfact>
</mgrwt>
</event>
<event>
 4    1  0.4991066E-004  0.1723990E+03  0.7818608E-02  0.1175369E+00
          2   -1    0    0  501    0  0.00000000000E+00  0.00000000000E+00  0.56862300405E+02  0.56862300462E+02  0.25500000000E-02 0.  1.
         -2   -1    0    0    0  501 -0.00000000000E+00 -0.00000000000E+00 -0.13067270480E+03  0.13067270483E+03  0.25500000000E-02 0. -1.
    5000001    1    1    2    0    0  0.29847591827E+02 -0.18240076606E+02 -0.55034939657E+02  0.10090304116E+03  0.77000000000E+02 0.  0.
   -5000001    1    1    2    0    0 -0.29847591827E+02  0.18240076606E+02 -0.18775464741E+02  0.86631964128E+02  0.77000000000E+02 0.  0.
<mgrwt>
<rscale>  0 0.17239896E+03</rscale>
<asrwt>0</asrwt>
<pdfrwt beam="1">  1        2 0.87480462E-02 0.17239896E+03</pdfrwt>
<pdfrwt beam="2">  1       -2 0.20103493E-01 0.17239896E+03</pdfrwt>
<totfact> 0.15036227E+04</totfact>
</mgrwt>
</event>
<event>
 4    1  0.4991066E-004  0.1559721E+03  0.7818608E-02  0.1193321E+00
          2   -1    0    0  501    0  0.00000000000E+00  0.00000000000E+00  0.48094675509E+02  0.48094675577E+02  0.25500000000E-02 0.  1.
         -2   -1    0    0    0  501 -0.00000000000E+00 -0.00000000000E+00 -0.12645527223E+03  0.12645527226E+03  0.25500000000E-02 0. -1.
    5000001    1    1    2    0    0 -0.11028040939E+02 -0.99861050753E+00 -0.33029225513E+02  0.84513576708E+02  0.77000000000E+02 0.  0.
   -5000001    1    1    2    0    0  0.11028040939E+02  0.99861050753E+00 -0.45331371207E+02  0.90036371126E+02  0.77000000000E+02 0.  0.
<mgrwt>
<rscale>  0 0.15597212E+03</rscale>
<asrwt>0</asrwt>
<pdfrwt beam="1">  1        2 0.73991809E-02 0.15597212E+03</pdfrwt>
<pdfrwt beam="2">  1       -2 0.19454657E-01 0.15597212E+03</pdfrwt>
<totfact> 0.19453671E+04</totfact>
</mgrwt>
</event>
<event>
 4    1  0.4991066E-004  0.1952306E+03  0.7818608E-02  0.1153827E+00
         -2   -1    0    0    0  501 -0.00000000000E+00  0.00000000000E+00  0.94397095842E+02  0.94397095876E+02  0.25500000000E-02 0. -1.
          2   -1    0    0  501    0  0.00000000000E+00 -0.00000000000E+00 -0.10094319880E+03  0.10094319883E+03  0.25500000000E-02 0.  1.
    5000001    1    1    2    0    0 -0.51091681872E+02  0.72407451939E+01 -0.33899998123E+02  0.98696495481E+02  0.77000000000E+02 0.  0.
   -5000001    1    1    2    0    0  0.51091681872E+02 -0.72407451939E+01  0.27353895169E+02  0.96643799224E+02  0.77000000000E+02 0.  0.
<mgrwt>
<rscale>  0 0.19523058E+03</rscale>
<asrwt>0</asrwt>
<pdfrwt beam="1">  1        2 0.15529723E-01 0.19523058E+03</pdfrwt>
<pdfrwt beam="2">  1       -2 0.14522630E-01 0.19523058E+03</pdfrwt>
<totfact> 0.13017573E+04</totfact>
</mgrwt>
</event>
<event>
 4    1  0.4991066E-004  0.2090973E+03  0.7818608E-02  0.1142283E+00
          2   -1    0    0  501    0  0.00000000000E+00  0.00000000000E+00  0.15370549319E+04  0.15370549319E+04  0.25500000000E-02 0.  1.
         -2   -1    0    0    0  501 -0.00000000000E+00 -0.00000000000E+00 -0.71112721737E+01  0.71112726309E+01  0.25500000000E-02 0. -1.
    5000001    1    1    2    0    0  0.59325764419E+02 -0.30390716964E+02  0.59048224024E+03  0.59920064923E+03  0.77000000000E+02 0.  0.
   -5000001    1    1    2    0    0 -0.59325764419E+02  0.30390716964E+02  0.93946141949E+03  0.94496555530E+03  0.77000000000E+02 0.  0.
<mgrwt>
<rscale>  0 0.20909726E+03</rscale>
<asrwt>0</asrwt>
<pdfrwt beam="1">  1        2 0.23646996E+00 0.20909726E+03</pdfrwt>
<pdfrwt beam="2">  1       -2 0.10940421E-02 0.20909726E+03</pdfrwt>
<totfact> 0.24064992E+04</totfact>
</mgrwt>
</event>
<event>
 4    1  0.4991066E-004  0.2159077E+03  0.7818608E-02  0.1136971E+00
         -2   -1    0    0    0  501 -0.00000000000E+00  0.00000000000E+00  0.94857427524E+01  0.94857430952E+01  0.25500000000E-02 0. -1.
          2   -1    0    0  501    0  0.00000000000E+00 -0.00000000000E+00 -0.12285843723E+04  0.12285843723E+04  0.25500000000E-02 0.  1.
    5000001    1    1    2    0    0  0.62307470535E+02  0.13256932962E+01 -0.85559214496E+03  0.86130766679E+03  0.77000000000E+02 0.  0.
   -5000001    1    1    2    0    0 -0.62307470535E+02 -0.13256932962E+01 -0.36350648460E+03  0.37676244863E+03  0.77000000000E+02 0.  0.
<mgrwt>
<rscale>  0 0.21590772E+03</rscale>
<asrwt>0</asrwt>
<pdfrwt beam="1">  1        2 0.18901285E+00 0.21590772E+03</pdfrwt>
<pdfrwt beam="2">  1       -2 0.14593460E-02 0.21590772E+03</pdfrwt>
<totfact> 0.23310659E+04</totfact>
</mgrwt>
</event>
<event>
 4    1  0.4991066E-004  0.2163428E+03  0.7818608E-02  0.1136639E+00
          2   -1    0    0  501    0  0.00000000000E+00  0.00000000000E+00  0.10736954010E+04  0.10736954010E+04  0.25500000000E-02 0.  1.
         -2   -1    0    0    0  501 -0.00000000000E+00 -0.00000000000E+00 -0.10897925761E+02  0.10897926059E+02  0.25500000000E-02 0. -1.
    5000001    1    1    2    0    0  0.69740296598E+02 -0.20700654271E+02  0.64121502205E+03  0.64990609365E+03  0.77000000000E+02 0.  0.
   -5000001    1    1    2    0    0 -0.69740296598E+02  0.20700654271E+02  0.42158245317E+03  0.43468723339E+03  0.77000000000E+02 0.  0.
<mgrwt>
<rscale>  0 0.21634281E+03</rscale>
<asrwt>0</asrwt>
<pdfrwt beam="1">  1        2 0.16518386E+00 0.21634281E+03</pdfrwt>
<pdfrwt beam="2">  1       -2 0.16766045E-02 0.21634281E+03</pdfrwt>
<totfact> 0.23363517E+04</totfact>
</mgrwt>
</event>
<event>
 4    1  0.4991066E-004  0.1953759E+03  0.7818608E-02  0.1153700E+00
          2   -1    0    0  501    0  0.00000000000E+00  0.00000000000E+00  0.40710391467E+02  0.40710391547E+02  0.25500000000E-02 0.  1.
         -2   -1    0    0    0  501 -0.00000000000E+00 -0.00000000000E+00 -0.23441033431E+03  0.23441033432E+03  0.25500000000E-02 0. -1.
    5000001    1    1    2    0    0  0.50032493389E+02  0.64674298363E+01 -0.50812401403E+02  0.10514741166E+03  0.77000000000E+02 0.  0.
   -5000001    1    1    2    0    0 -0.50032493389E+02 -0.64674298363E+01 -0.14288754144E+03  0.16997331420E+03  0.77000000000E+02 0.  0.
<mgrwt>
<rscale>  0 0.19537591E+03</rscale>
<asrwt>0</asrwt>
<pdfrwt beam="1">  1        2 0.62631372E-02 0.19537591E+03</pdfrwt>
<pdfrwt beam="2">  1       -2 0.36063128E-01 0.19537591E+03</pdfrwt>
<totfact> 0.82168885E+03</totfact>
</mgrwt>
</event>
<event>
 4    1  0.4991066E-004  0.3822281E+03  0.7818608E-02  0.1050113E+00
          2   -1    0    0  501    0  0.00000000000E+00  0.00000000000E+00  0.94971504304E+03  0.94971504304E+03  0.25500000000E-02 0.  1.
         -2   -1    0    0    0  501 -0.00000000000E+00 -0.00000000000E+00 -0.38458452197E+02  0.38458452281E+02  0.25500000000E-02 0. -1.
    5000001    1    1    2    0    0  0.17333246615E+03 -0.13095578098E+02  0.40523602240E+03  0.44761688064E+03  0.77000000000E+02 0.  0.
   -5000001    1    1    2    0    0 -0.17333246615E+03  0.13095578098E+02  0.50602056844E+03  0.54055661468E+03  0.77000000000E+02 0.  0.
<mgrwt>
<rscale>  0 0.38222805E+03</rscale>
<asrwt>0</asrwt>
<pdfrwt beam="1">  1        2 0.14611000E+00 0.38222805E+03</pdfrwt>
<pdfrwt beam="2">  1       -2 0.59166852E-02 0.38222805E+03</pdfrwt>
<totfact> 0.42883150E+03</totfact>
</mgrwt>
</event>
<event>
 4    1  0.4991066E-004  0.2557573E+03  0.7818608E-02  0.1109719E+00
         -2   -1    0    0    0  501 -0.00000000000E+00  0.00000000000E+00  0.24660869810E+02  0.24660869942E+02  0.25500000000E-02 0. -1.
          2   -1    0    0  501    0  0.00000000000E+00 -0.00000000000E+00 -0.66311335051E+03  0.66311335051E+03  0.25500000000E-02 0.  1.
    5000001    1    1    2    0    0  0.10001217386E+03 -0.18032994348E+02 -0.29283288246E+03  0.31938647570E+03  0.77000000000E+02 0.  0.
   -5000001    1    1    2    0    0 -0.10001217386E+03  0.18032994348E+02 -0.34561959823E+03  0.36838774476E+03  0.77000000000E+02 0.  0.
<mgrwt>
<rscale>  0 0.25575732E+03</rscale>
<asrwt>0</asrwt>
<pdfrwt beam="1">  1        2 0.10201743E+00 0.25575732E+03</pdfrwt>
<pdfrwt beam="2">  1       -2 0.37939805E-02 0.25575732E+03</pdfrwt>
<totfact> 0.13222742E+04</totfact>
</mgrwt>
</event>
<event>
 4    1  0.4991066E-004  0.3010500E+03  0.7818608E-02  0.1084717E+00
         -2   -1    0    0    0  501 -0.00000000000E+00  0.00000000000E+00  0.10805632192E+03  0.10805632195E+03  0.25500000000E-02 0. -1.
          2   -1    0    0  501    0  0.00000000000E+00 -0.00000000000E+00 -0.20968491814E+03  0.20968491816E+03  0.25500000000E-02 0.  1.
    5000001    1    1    2    0    0  0.11935767682E+03  0.14688913614E+02 -0.56409195821E+00  0.14279824018E+03  0.77000000000E+02 0.  0.
   -5000001    1    1    2    0    0 -0.11935767682E+03 -0.14688913614E+02 -0.10106450427E+03  0.17494299992E+03  0.77000000000E+02 0.  0.
<mgrwt>
<rscale>  0 0.30105004E+03</rscale>
<asrwt>0</asrwt>
<pdfrwt beam="1">  1        2 0.32259218E-01 0.30105004E+03</pdfrwt>
<pdfrwt beam="2">  1       -2 0.16624049E-01 0.30105004E+03</pdfrwt>
<totfact> 0.46513797E+03</totfact>
</mgrwt>
</event>
<event>
 4    1  0.4991066E-004  0.8571503E+03  0.7818608E-02  0.9480790E-01
          2   -1    0    0  501    0  0.00000000000E+00  0.00000000000E+00  0.12528585865E+04  0.12528585865E+04  0.25500000000E-02 0.  1.
         -2   -1    0    0    0  501 -0.00000000000E+00 -0.00000000000E+00 -0.14660605384E+03  0.14660605387E+03  0.25500000000E-02 0. -1.
    5000001    1    1    2    0    0 -0.38836543457E+03 -0.63667265060E+02  0.80001658619E+03  0.89489483717E+03  0.77000000000E+02 0.  0.
   -5000001    1    1    2    0    0  0.38836543457E+03  0.63667265060E+02  0.30623594650E+03  0.50456980324E+03  0.77000000000E+02 0.  0.
<mgrwt>
<rscale>  0 0.85715029E+03</rscale>
<asrwt>0</asrwt>
<pdfrwt beam="1">  1        2 0.19274748E+00 0.85715029E+03</pdfrwt>
<pdfrwt beam="2">  1       -2 0.22554777E-01 0.85715029E+03</pdfrwt>
<totfact> 0.30513616E+02</totfact>
</mgrwt>
</event>
<event>
 4    1  0.4991066E-004  0.2888150E+03  0.7818608E-02  0.1090969E+00
         -2   -1    0    0    0  501 -0.00000000000E+00  0.00000000000E+00  0.23625782138E+02  0.23625782275E+02  0.25500000000E-02 0. -1.
          2   -1    0    0  501    0  0.00000000000E+00 -0.00000000000E+00 -0.88265961777E+03  0.88265961777E+03  0.25500000000E-02 0.  1.
    5000001    1    1    2    0    0 -0.11299629246E+03 -0.46408737426E+02 -0.43456781634E+03  0.45793025672E+03  0.77000000000E+02 0.  0.
   -5000001    1    1    2    0    0  0.11299629246E+03  0.46408737426E+02 -0.42446601929E+03  0.44835514333E+03  0.77000000000E+02 0.  0.
<mgrwt>
<rscale>  0 0.28881499E+03</rscale>
<asrwt>0</asrwt>
<pdfrwt beam="1">  1        2 0.13579376E+00 0.28881499E+03</pdfrwt>
<pdfrwt beam="2">  1       -2 0.36347364E-02 0.28881499E+03</pdfrwt>
<totfact> 0.98949485E+03</totfact>
</mgrwt>
</event>
<event>
 4    1  0.4991066E-004  0.1779559E+03  0.7818608E-02  0.1169796E+00
          2   -1    0    0  501    0  0.00000000000E+00  0.00000000000E+00  0.16121868890E+04  0.16121868890E+04  0.25500000000E-02 0.  1.
         -2   -1    0    0    0  501 -0.00000000000E+00 -0.00000000000E+00 -0.49107686368E+01  0.49107692989E+01  0.25500000000E-02 0. -1.
    5000001    1    1    2    0    0  0.42870938850E+02  0.30252380585E+01  0.69573208152E+03  0.70129822381E+03  0.77000000000E+02 0.  0.
   -5000001    1    1    2    0    0 -0.42870938850E+02 -0.30252380585E+01  0.91154403889E+03  0.91579943453E+03  0.77000000000E+02 0.  0.
<mgrwt>
<rscale>  0 0.17795592E+03</rscale>
<asrwt>0</asrwt>
<pdfrwt beam="1">  1        2 0.24802922E+00 0.17795592E+03</pdfrwt>
<pdfrwt beam="2">  1       -2 0.75550150E-03 0.17795592E+03</pdfrwt>
<totfact> 0.37106503E+04</totfact>
</mgrwt>
</event>
<event>
 4    1  0.4991066E-004  0.2648288E+03  0.7818608E-02  0.1104276E+00
         -2   -1    0    0    0  501 -0.00000000000E+00  0.00000000000E+00  0.39966772333E+02  0.39966772414E+02  0.25500000000E-02 0. -1.
          2   -1    0    0  501    0  0.00000000000E+00 -0.00000000000E+00 -0.43870368783E+03  0.43870368783E+03  0.25500000000E-02 0.  1.
    5000001    1    1    2    0    0 -0.70215662544E+02 -0.81323464050E+02 -0.21346503914E+03  0.25107781266E+03  0.77000000000E+02 0.  0.
   -5000001    1    1    2    0    0  0.70215662544E+02  0.81323464050E+02 -0.18527187635E+03  0.22759264759E+03  0.77000000000E+02 0.  0.
<mgrwt>
<rscale>  0 0.26482878E+03</rscale>
<asrwt>0</asrwt>
<pdfrwt beam="1">  1        2 0.67492872E-01 0.26482878E+03</pdfrwt>
<pdfrwt beam="2">  1       -2 0.61487345E-02 0.26482878E+03</pdfrwt>
<totfact> 0.10184616E+04</totfact>
</mgrwt>
</event>
<event>
 4    1  0.4991066E-004  0.3523121E+03  0.7818608E-02  0.1061670E+00
         -2   -1    0    0    0  501 -0.00000000000E+00  0.00000000000E+00  0.18103835675E+02  0.18103835855E+02  0.25500000000E-02 0. -1.
          2   -1    0    0  501    0  0.00000000000E+00 -0.00000000000E+00 -0.17140538684E+04  0.17140538684E+04  0.25500000000E-02 0.  1.
    5000001    1    1    2    0    0  0.10352207495E+03  0.11018777910E+03 -0.61508528871E+03  0.63805726941E+03  0.77000000000E+02 0.  0.
   -5000001    1    1    2    0    0 -0.10352207495E+03 -0.11018777910E+03 -0.10808647440E+04  0.10941004349E+04  0.77000000000E+02 0.  0.
<mgrwt>
<rscale>  0 0.35231208E+03</rscale>
<asrwt>0</asrwt>
<pdfrwt beam="1">  1        2 0.26370047E+00 0.35231208E+03</pdfrwt>
<pdfrwt beam="2">  1       -2 0.27852068E-02 0.35231208E+03</pdfrwt>
<totfact> 0.49748645E+03</totfact>
</mgrwt>
</event>
<event>
 4    1  0.4991066E-004  0.4220982E+03  0.7818608E-02  0.1036386E+00
          2   -1    0    0  501    0  0.00000000000E+00  0.00000000000E+00  0.55455475847E+03  0.55455475848E+03  0.25500000000E-02 0.  1.
         -2   -1    0    0    0  501 -0.00000000000E+00 -0.00000000000E+00 -0.80319795475E+02  0.80319795516E+02  0.25500000000E-02 0. -1.
    5000001    1    1    2    0    0  0.10020434117E+03  0.10285562287E+03  0.43887075772E+03  0.46814178529E+03  0.77000000000E+02 0.  0.
   -5000001    1    1    2    0    0 -0.10020434117E+03 -0.10285562287E+03  0.35364205274E+02  0.16673276871E+03  0.77000000000E+02 0.  0.
<mgrwt>
<rscale>  0 0.42209821E+03</rscale>
<asrwt>0</asrwt>
<pdfrwt beam="1">  1        2 0.85316115E-01 0.42209821E+03</pdfrwt>
<pdfrwt beam="2">  1       -2 0.12356892E-01 0.42209821E+03</pdfrwt>
<totfact> 0.26221241E+03</totfact>
</mgrwt>
</event>
<event>
 4    1  0.4991066E-004  0.1657676E+03  0.7818608E-02  0.1182335E+00
          2   -1    0    0  501    0  0.00000000000E+00  0.00000000000E+00  0.76803388415E+03  0.76803388415E+03  0.25500000000E-02 0.  1.
         -2   -1    0    0    0  501 -0.00000000000E+00 -0.00000000000E+00 -0.89445621707E+01  0.89445625342E+01  0.25500000000E-02 0. -1.
    5000001    1    1    2    0    0  0.25054587741E+02 -0.15498151254E+02  0.33955197039E+03  0.34941732306E+03  0.77000000000E+02 0.  0.
   -5000001    1    1    2    0    0 -0.25054587741E+02  0.15498151254E+02  0.41953735159E+03  0.42756112363E+03  0.77000000000E+02 0.  0.
<mgrwt>
<rscale>  0 0.16576763E+03</rscale>
<asrwt>0</asrwt>
<pdfrwt beam="1">  1        2 0.11815907E+00 0.16576763E+03</pdfrwt>
<pdfrwt beam="2">  1       -2 0.13760864E-02 0.16576763E+03</pdfrwt>
<totfact> 0.47705861E+04</totfact>
</mgrwt>
</event>
<event>
 4    1  0.4991066E-004  0.2138616E+03  0.7818608E-02  0.1138544E+00
         -2   -1    0    0    0  501 -0.00000000000E+00  0.00000000000E+00  0.55029604572E+02  0.55029604631E+02  0.25500000000E-02 0. -1.
          2   -1    0    0  501    0  0.00000000000E+00 -0.00000000000E+00 -0.20778260046E+03  0.20778260047E+03  0.25500000000E-02 0.  1.
    5000001    1    1    2    0    0 -0.29708920904E+02 -0.52410698817E+02 -0.23154198934E+02  0.10047197749E+03  0.77000000000E+02 0.  0.
   -5000001    1    1    2    0    0  0.29708920904E+02  0.52410698817E+02 -0.12959879695E+03  0.16234022762E+03  0.77000000000E+02 0.  0.
<mgrwt>
<rscale>  0 0.21386158E+03</rscale>
<asrwt>0</asrwt>
<pdfrwt beam="1">  1        2 0.31966553E-01 0.21386158E+03</pdfrwt>
<pdfrwt beam="2">  1       -2 0.84660932E-02 0.21386158E+03</pdfrwt>
<totfact> 0.13745280E+04</totfact>
</mgrwt>
</event>
<event>
 4    1  0.4991066E-004  0.1937036E+03  0.7818608E-02  0.1155163E+00
          2   -1    0    0  501    0  0.00000000000E+00  0.00000000000E+00  0.14254353730E+04  0.14254353730E+04  0.25500000000E-02 0.  1.
         -2   -1    0    0    0  501 -0.00000000000E+00 -0.00000000000E+00 -0.65806348987E+01  0.65806353928E+01  0.25500000000E-02 0. -1.
    5000001    1    1    2    0    0  0.32463519447E+02 -0.47308810136E+02  0.61612934834E+03  0.62356746026E+03  0.77000000000E+02 0.  0.
   -5000001    1    1    2    0    0 -0.32463519447E+02  0.47308810136E+02  0.80272538974E+03  0.80844854811E+03  0.77000000000E+02 0.  0.
<mgrwt>
<rscale>  0 0.19370359E+03</rscale>
<asrwt>0</asrwt>
<pdfrwt beam="1">  1        2 0.21929800E+00 0.19370359E+03</pdfrwt>
<pdfrwt beam="2">  1       -2 0.10124043E-02 0.19370359E+03</pdfrwt>
<totfact> 0.30721427E+04</totfact>
</mgrwt>
</event>
<event>
 4    1  0.4991066E-004  0.2054901E+03  0.7818608E-02  0.1145188E+00
         -2   -1    0    0    0  501 -0.00000000000E+00  0.00000000000E+00  0.21597005588E+02  0.21597005739E+02  0.25500000000E-02 0. -1.
          2   -1    0    0  501    0  0.00000000000E+00 -0.00000000000E+00 -0.48879673660E+03  0.48879673660E+03  0.25500000000E-02 0.  1.
    5000001    1    1    2    0    0  0.56525190575E+02  0.28338049934E+02 -0.29591292189E+03  0.31223644820E+03  0.77000000000E+02 0.  0.
   -5000001    1    1    2    0    0 -0.56525190575E+02 -0.28338049934E+02 -0.17128680912E+03  0.19815729415E+03  0.77000000000E+02 0.  0.
<mgrwt>
<rscale>  0 0.20549011E+03</rscale>
<asrwt>0</asrwt>
<pdfrwt beam="1">  1        2 0.75199490E-01 0.20549011E+03</pdfrwt>
<pdfrwt beam="2">  1       -2 0.33226166E-02 0.20549011E+03</pdfrwt>
<totfact> 0.22565817E+04</totfact>
</mgrwt>
</event>
<event>
 4    1  0.4991066E-004  0.1671679E+03  0.7818608E-02  0.1180834E+00
         -2   -1    0    0    0  501 -0.00000000000E+00  0.00000000000E+00  0.21616861097E+02  0.21616861247E+02  0.25500000000E-02 0. -1.
          2   -1    0    0  501    0  0.00000000000E+00 -0.00000000000E+00 -0.32318636130E+03  0.32318636131E+03  0.25500000000E-02 0.  1.
    5000001    1    1    2    0    0 -0.20199620595E+02  0.14380800624E+02 -0.10739901466E+03  0.13445586804E+03  0.77000000000E+02 0.  0.
   -5000001    1    1    2    0    0  0.20199620595E+02 -0.14380800624E+02 -0.19417048554E+03  0.21034735452E+03  0.77000000000E+02 0.  0.
<mgrwt>
<rscale>  0 0.16716788E+03</rscale>
<asrwt>0</asrwt>
<pdfrwt beam="1">  1        2 0.49720975E-01 0.16716788E+03</pdfrwt>
<pdfrwt beam="2">  1       -2 0.33256712E-02 0.16716788E+03</pdfrwt>
<totfact> 0.34638773E+04</totfact>
</mgrwt>
</event>
<event>
 4    1  0.4991066E-004  0.2378116E+03  0.7818608E-02  0.1121259E+00
          2   -1    0    0  501    0  0.00000000000E+00  0.00000000000E+00  0.75557072908E+02  0.75557072951E+02  0.25500000000E-02 0.  1.
         -2   -1    0    0    0  501 -0.00000000000E+00 -0.00000000000E+00 -0.18712455458E+03  0.18712455460E+03  0.25500000000E-02 0. -1.
    5000001    1    1    2    0    0 -0.82416407985E+02 -0.36739744371E+02 -0.64846035062E+02  0.13518979764E+03  0.77000000000E+02 0.  0.
   -5000001    1    1    2    0    0  0.82416407985E+02  0.36739744371E+02 -0.46721446614E+02  0.12749182992E+03  0.77000000000E+02 0.  0.
<mgrwt>
<rscale>  0 0.23781155E+03</rscale>
<asrwt>0</asrwt>
<pdfrwt beam="1">  1        2 0.11624165E-01 0.23781155E+03</pdfrwt>
<pdfrwt beam="2">  1       -2 0.28788393E-01 0.23781155E+03</pdfrwt>
<totfact> 0.57695640E+03</totfact>
</mgrwt>
</event>
<event>
 4    1  0.4991066E-004  0.2386841E+03  0.7818608E-02  0.1120673E+00
          2   -1    0    0  501    0  0.00000000000E+00  0.00000000000E+00  0.69414292163E+03  0.69414292164E+03  0.25500000000E-02 0.  1.
         -2   -1    0    0    0  501 -0.00000000000E+00 -0.00000000000E+00 -0.20518137155E+02  0.20518137314E+02  0.25500000000E-02 0. -1.
    5000001    1    1    2    0    0 -0.55090908566E+02 -0.10057187539E+02  0.12137004163E+03  0.15425901022E+03  0.77000000000E+02 0.  0.
   -5000001    1    1    2    0    0  0.55090908566E+02  0.10057187539E+02  0.55225474285E+03  0.56040204873E+03  0.77000000000E+02 0.  0.
<mgrwt>
<rscale>  0 0.23868406E+03</rscale>
<asrwt>0</asrwt>
<pdfrwt beam="1">  1        2 0.10679121E+00 0.23868406E+03</pdfrwt>
<pdfrwt beam="2">  1       -2 0.31566368E-02 0.23868406E+03</pdfrwt>
<totfact> 0.16419554E+04</totfact>
</mgrwt>
</event>
<event>
 4    1  0.4991066E-004  0.1947465E+03  0.7818608E-02  0.1154249E+00
         -2   -1    0    0    0  501 -0.00000000000E+00  0.00000000000E+00  0.10087641152E+02  0.10087641475E+02  0.25500000000E-02 0. -1.
          2   -1    0    0  501    0  0.00000000000E+00 -0.00000000000E+00 -0.93991702109E+03  0.93991702109E+03  0.25500000000E-02 0.  1.
    5000001    1    1    2    0    0 -0.34684287139E+02 -0.42573519856E+02 -0.35186742622E+03  0.36435585627E+03  0.77000000000E+02 0.  0.
   -5000001    1    1    2    0    0  0.34684287139E+02  0.42573519856E+02 -0.57796195372E+03  0.58564880630E+03  0.77000000000E+02 0.  0.
<mgrwt>
<rscale>  0 0.19474646E+03</rscale>
<asrwt>0</asrwt>
<pdfrwt beam="1">  1        2 0.14460255E+00 0.19474646E+03</pdfrwt>
<pdfrwt beam="2">  1       -2 0.15519456E-02 0.19474646E+03</pdfrwt>
<totfact> 0.31297257E+04</totfact>
</mgrwt>
</event>
<event>
 4    1  0.4991066E-004  0.2553330E+03  0.7818608E-02  0.1109980E+00
         -2   -1    0    0    0  501 -0.00000000000E+00  0.00000000000E+00  0.19179127323E+02  0.19179127493E+02  0.25500000000E-02 0. -1.
          2   -1    0    0  501    0  0.00000000000E+00 -0.00000000000E+00 -0.84981654569E+03  0.84981654569E+03  0.25500000000E-02 0.  1.
    5000001    1    1    2    0    0 -0.99430012548E+02 -0.14363274154E+02 -0.35866403612E+03  0.38034395203E+03  0.77000000000E+02 0.  0.
   -5000001    1    1    2    0    0  0.99430012548E+02  0.14363274154E+02 -0.47197338224E+03  0.48865172115E+03  0.77000000000E+02 0.  0.
<mgrwt>
<rscale>  0 0.25533304E+03</rscale>
<asrwt>0</asrwt>
<pdfrwt beam="1">  1        2 0.13074098E+00 0.25533304E+03</pdfrwt>
<pdfrwt beam="2">  1       -2 0.29506356E-02 0.25533304E+03</pdfrwt>
<totfact> 0.14137433E+04</totfact>
</mgrwt>
</event>
<event>
 4    1  0.4991066E-004  0.3244682E+03  0.7818608E-02  0.1073611E+00
         -2   -1    0    0    0  501 -0.00000000000E+00  0.00000000000E+00  0.97484291011E+01  0.97484294346E+01  0.25500000000E-02 0. -1.
          2   -1    0    0  501    0  0.00000000000E+00 -0.00000000000E+00 -0.26999117295E+04  0.26999117295E+04  0.25500000000E-02 0.  1.
    5000001    1    1    2    0    0 -0.63665141347E+02 -0.12781871480E+03 -0.13437757655E+04  0.13535335910E+04  0.77000000000E+02 0.  0.
   -5000001    1    1    2    0    0  0.63665141347E+02  0.12781871480E+03 -0.13463875349E+04  0.13561265679E+04  0.77000000000E+02 0.  0.
<mgrwt>
<rscale>  0 0.32446817E+03</rscale>
<asrwt>0</asrwt>
<pdfrwt beam="1">  1        2 0.41537044E+00 0.32446817E+03</pdfrwt>
<pdfrwt beam="2">  1       -2 0.14997605E-02 0.32446817E+03</pdfrwt>
<totfact> 0.36533829E+03</totfact>
</mgrwt>
</event>
<event>
 4    1  0.4991066E-004  0.2346222E+03  0.7818608E-02  0.1123428E+00
         -2   -1    0    0    0  501 -0.00000000000E+00  0.00000000000E+00  0.27206593614E+02  0.27206593733E+02  0.25500000000E-02 0. -1.
          2   -1    0    0  501    0  0.00000000000E+00 -0.00000000000E+00 -0.50582952730E+03  0.50582952731E+03  0.25500000000E-02 0.  1.
    5000001    1    1    2    0    0  0.78632099831E+02  0.15376952514E+02 -0.15389801853E+03  0.18982375484E+03  0.77000000000E+02 0.  0.
   -5000001    1    1    2    0    0 -0.78632099831E+02 -0.15376952514E+02 -0.32472491515E+03  0.34321236620E+03  0.77000000000E+02 0.  0.
<mgrwt>
<rscale>  0 0.23462224E+03</rscale>
<asrwt>0</asrwt>
<pdfrwt beam="1">  1        2 0.77819921E-01 0.23462224E+03</pdfrwt>
<pdfrwt beam="2">  1       -2 0.41856302E-02 0.23462224E+03</pdfrwt>
<totfact> 0.15512392E+04</totfact>
</mgrwt>
</event>
<event>
 4    1  0.4991066E-004  0.1871010E+03  0.7818608E-02  0.1161102E+00
          2   -1    0    0  501    0  0.00000000000E+00  0.00000000000E+00  0.90305625880E+03  0.90305625880E+03  0.25500000000E-02 0.  1.
         -2   -1    0    0    0  501 -0.00000000000E+00 -0.00000000000E+00 -0.96911991066E+01  0.96911994421E+01  0.25500000000E-02 0. -1.
    5000001    1    1    2    0    0 -0.37604875432E+02  0.29162797565E+02  0.33143501997E+03  0.34357352617E+03  0.77000000000E+02 0.  0.
   -5000001    1    1    2    0    0  0.37604875432E+02 -0.29162797565E+02  0.56193003972E+03  0.56917393208E+03  0.77000000000E+02 0.  0.
<mgrwt>
<rscale>  0 0.18710102E+03</rscale>
<asrwt>0</asrwt>
<pdfrwt beam="1">  1        2 0.13893172E+00 0.18710102E+03</pdfrwt>
<pdfrwt beam="2">  1       -2 0.14909538E-02 0.18710102E+03</pdfrwt>
<totfact> 0.34894539E+04</totfact>
</mgrwt>
</event>
<event>
 4    1  0.4991066E-004  0.2559769E+03  0.7818608E-02  0.1109585E+00
         -2   -1    0    0    0  501 -0.00000000000E+00  0.00000000000E+00  0.83372834690E+02  0.83372834729E+02  0.25500000000E-02 0. -1.
          2   -1    0    0  501    0  0.00000000000E+00 -0.00000000000E+00 -0.19647938186E+03  0.19647938187E+03  0.25500000000E-02 0.  1.
    5000001    1    1    2    0    0  0.46374152548E+02 -0.83319491984E+02 -0.96861394186E+02  0.15621725082E+03  0.77000000000E+02 0.  0.
   -5000001    1    1    2    0    0 -0.46374152548E+02  0.83319491984E+02 -0.16245152980E+02  0.12363496578E+03  0.77000000000E+02 0.  0.
<mgrwt>
<rscale>  0 0.25597690E+03</rscale>
<asrwt>0</asrwt>
<pdfrwt beam="1">  1        2 0.30227597E-01 0.25597690E+03</pdfrwt>
<pdfrwt beam="2">  1       -2 0.12826590E-01 0.25597690E+03</pdfrwt>
<totfact> 0.76149059E+03</totfact>
</mgrwt>
</event>
<event>
 4    1  0.4991066E-004  0.2301492E+03  0.7818608E-02  0.1126535E+00
         -2   -1    0    0    0  501 -0.00000000000E+00  0.00000000000E+00  0.51336040634E+02  0.51336040698E+02  0.25500000000E-02 0. -1.
          2   -1    0    0  501    0  0.00000000000E+00 -0.00000000000E+00 -0.25795053224E+03  0.25795053226E+03  0.25500000000E-02 0.  1.
    5000001    1    1    2    0    0  0.81431281486E+02 -0.62785163084E+01 -0.13737558568E+03  0.17740215588E+03  0.77000000000E+02 0.  0.
   -5000001    1    1    2    0    0 -0.81431281486E+02  0.62785163084E+01 -0.69238905931E+02  0.13188441707E+03  0.77000000000E+02 0.  0.
<mgrwt>
<rscale>  0 0.23014916E+03</rscale>
<asrwt>0</asrwt>
<pdfrwt beam="1">  1        2 0.39684697E-01 0.23014916E+03</pdfrwt>
<pdfrwt beam="2">  1       -2 0.78978526E-02 0.23014916E+03</pdfrwt>
<totfact> 0.12179160E+04</totfact>
</mgrwt>
</event>
<event>
 4    1  0.4991066E-004  0.1758007E+03  0.7818608E-02  0.1171930E+00
          2   -1    0    0  501    0  0.00000000000E+00  0.00000000000E+00  0.14328824533E+04  0.14328824533E+04  0.25500000000E-02 0.  1.
         -2   -1    0    0    0  501 -0.00000000000E+00 -0.00000000000E+00 -0.53922581671E+01  0.53922587700E+01  0.25500000000E-02 0. -1.
    5000001    1    1    2    0    0 -0.31256976995E+02 -0.25883508395E+02  0.81411773432E+03  0.81875737551E+03  0.77000000000E+02 0.  0.
   -5000001    1    1    2    0    0  0.31256976995E+02  0.25883508395E+02  0.61337246083E+03  0.61951733658E+03  0.77000000000E+02 0.  0.
<mgrwt>
<rscale>  0 0.17580071E+03</rscale>
<asrwt>0</asrwt>
<pdfrwt beam="1">  1        2 0.22044349E+00 0.17580071E+03</pdfrwt>
<pdfrwt beam="2">  1       -2 0.82957809E-03 0.17580071E+03</pdfrwt>
<totfact> 0.40281586E+04</totfact>
</mgrwt>
</event>
<event>
 4    1  0.4991066E-004  0.1603401E+03  0.7818608E-02  0.1188313E+00
          2   -1    0    0  501    0  0.00000000000E+00  0.00000000000E+00  0.16872216697E+02  0.16872216889E+02  0.25500000000E-02 0.  1.
         -2   -1    0    0    0  501 -0.00000000000E+00 -0.00000000000E+00 -0.38093612270E+03  0.38093612270E+03  0.25500000000E-02 0. -1.
    5000001    1    1    2    0    0 -0.72873716981E+00 -0.22291573971E+02 -0.17982464388E+03  0.19688409757E+03  0.77000000000E+02 0.  0.
   -5000001    1    1    2    0    0  0.72873716981E+00  0.22291573971E+02 -0.18423926212E+03  0.20092424203E+03  0.77000000000E+02 0.  0.
<mgrwt>
<rscale>  0 0.16034010E+03</rscale>
<asrwt>0</asrwt>
<pdfrwt beam="1">  1        2 0.25957259E-02 0.16034010E+03</pdfrwt>
<pdfrwt beam="2">  1       -2 0.58605551E-01 0.16034010E+03</pdfrwt>
<totfact> 0.10098607E+04</totfact>
</mgrwt>
</event>
<event>
 4    1  0.4991066E-004  0.1760847E+03  0.7818608E-02  0.1171647E+00
          2   -1    0    0  501    0  0.00000000000E+00  0.00000000000E+00  0.73674997563E+02  0.73674997607E+02  0.25500000000E-02 0.  1.
         -2   -1    0    0    0  501 -0.00000000000E+00 -0.00000000000E+00 -0.10521147137E+03  0.10521147140E+03  0.25500000000E-02 0. -1.
    5000001    1    1    2    0    0  0.41789935233E+01 -0.41791870961E+02 -0.23533844741E+02  0.90812258608E+02  0.77000000000E+02 0.  0.
   -5000001    1    1    2    0    0 -0.41789935233E+01  0.41791870961E+02 -0.80026290639E+01  0.88074210398E+02  0.77000000000E+02 0.  0.
<mgrwt>
<rscale>  0 0.17608469E+03</rscale>
<asrwt>0</asrwt>
<pdfrwt beam="1">  1        2 0.11334615E-01 0.17608469E+03</pdfrwt>
<pdfrwt beam="2">  1       -2 0.16186380E-01 0.17608469E+03</pdfrwt>
<totfact> 0.15738649E+04</totfact>
</mgrwt>
</event>
<event>
 4    1  0.4991066E-004  0.2713397E+03  0.7818608E-02  0.1100515E+00
         -2   -1    0    0    0  501 -0.00000000000E+00  0.00000000000E+00  0.49811690451E+02  0.49811690516E+02  0.25500000000E-02 0. -1.
          2   -1    0    0  501    0  0.00000000000E+00 -0.00000000000E+00 -0.36951784960E+03  0.36951784961E+03  0.25500000000E-02 0.  1.
    5000001    1    1    2    0    0 -0.38207047575E+02  0.77557879264E+02 -0.26915485650E+03  0.29299887354E+03  0.77000000000E+02 0.  0.
   -5000001    1    1    2    0    0  0.38207047575E+02 -0.77557879264E+02 -0.50551302655E+02  0.12633066659E+03  0.77000000000E+02 0.  0.
<mgrwt>
<rscale>  0 0.27133970E+03</rscale>
<asrwt>0</asrwt>
<pdfrwt beam="1">  1        2 0.56848898E-01 0.27133970E+03</pdfrwt>
<pdfrwt beam="2">  1       -2 0.76633373E-02 0.27133970E+03</pdfrwt>
<totfact> 0.87411965E+03</totfact>
</mgrwt>
</event>
<event>
 4    1  0.4991066E-004  0.1624197E+03  0.7818608E-02  0.1185992E+00
         -2   -1    0    0    0  501 -0.00000000000E+00  0.00000000000E+00  0.40764344667E+01  0.40764352643E+01  0.25500000000E-02 0. -1.
          2   -1    0    0  501    0  0.00000000000E+00 -0.00000000000E+00 -0.16178442605E+04  0.16178442605E+04  0.25500000000E-02 0.  1.
    5000001    1    1    2    0    0  0.18306470494E+02 -0.17942032206E+02 -0.77693698410E+03  0.78116395247E+03  0.77000000000E+02 0.  0.
   -5000001    1    1    2    0    0 -0.18306470494E+02  0.17942032206E+02 -0.83683084195E+03  0.84075674331E+03  0.77000000000E+02 0.  0.
<mgrwt>
<rscale>  0 0.16241966E+03</rscale>
<asrwt>0</asrwt>
<pdfrwt beam="1">  1        2 0.24889860E+00 0.16241966E+03</pdfrwt>
<pdfrwt beam="2">  1       -2 0.62714512E-03 0.16241966E+03</pdfrwt>
<totfact> 0.47794542E+04</totfact>
</mgrwt>
</event>
<event>
 4    1  0.4991066E-004  0.3303438E+03  0.7818608E-02  0.1070985E+00
          2   -1    0    0  501    0  0.00000000000E+00  0.00000000000E+00  0.22577830554E+03  0.22577830555E+03  0.25500000000E-02 0.  1.
         -2   -1    0    0    0  501 -0.00000000000E+00 -0.00000000000E+00 -0.12083428547E+03  0.12083428550E+03  0.25500000000E-02 0. -1.
    5000001    1    1    2    0    0  0.98856143664E+02 -0.17389402270E+02 -0.58955121720E+02  0.13956946238E+03  0.77000000000E+02 0.  0.
   -5000001    1    1    2    0    0 -0.98856143664E+02  0.17389402270E+02  0.16389914178E+03  0.20704312867E+03  0.77000000000E+02 0.  0.
<mgrwt>
<rscale>  0 0.33034382E+03</rscale>
<asrwt>0</asrwt>
<pdfrwt beam="1">  1        2 0.34735124E-01 0.33034382E+03</pdfrwt>
<pdfrwt beam="2">  1       -2 0.18589890E-01 0.33034382E+03</pdfrwt>
<totfact> 0.35611038E+03</totfact>
</mgrwt>
</event>
<event>
 4    1  0.4991066E-004  0.3313515E+03  0.7818608E-02  0.1070540E+00
          2   -1    0    0  501    0  0.00000000000E+00  0.00000000000E+00  0.26014499871E+03  0.26014499872E+03  0.25500000000E-02 0.  1.
         -2   -1    0    0    0  501 -0.00000000000E+00 -0.00000000000E+00 -0.10551216414E+03  0.10551216418E+03  0.25500000000E-02 0. -1.
    5000001    1    1    2    0    0  0.25341186030E+01 -0.12481166432E+03  0.16233202888E+03  0.21878085133E+03  0.77000000000E+02 0.  0.
   -5000001    1    1    2    0    0 -0.25341186030E+01  0.12481166432E+03 -0.76991943205E+01  0.14687631157E+03  0.77000000000E+02 0.  0.
<mgrwt>
<rscale>  0 0.33135155E+03</rscale>
<asrwt>0</asrwt>
<pdfrwt beam="1">  1        2 0.40022307E-01 0.33135155E+03</pdfrwt>
<pdfrwt beam="2">  1       -2 0.16232641E-01 0.33135155E+03</pdfrwt>
<totfact> 0.38368522E+03</totfact>
</mgrwt>
</event>
<event>
 4    1  0.4991066E-004  0.2310420E+03  0.7818608E-02  0.1125909E+00
          2   -1    0    0  501    0  0.00000000000E+00  0.00000000000E+00  0.45293137526E+03  0.45293137526E+03  0.25500000000E-02 0.  1.
         -2   -1    0    0    0  501 -0.00000000000E+00 -0.00000000000E+00 -0.29463836781E+02  0.29463836891E+02  0.25500000000E-02 0. -1.
    5000001    1    1    2    0    0 -0.77904491944E+02 -0.25379623409E+02  0.15638004316E+03  0.19260569319E+03  0.77000000000E+02 0.  0.
   -5000001    1    1    2    0    0  0.77904491944E+02  0.25379623409E+02  0.26708749531E+03  0.28978951897E+03  0.77000000000E+02 0.  0.
<mgrwt>
<rscale>  0 0.23104195E+03</rscale>
<asrwt>0</asrwt>
<pdfrwt beam="1">  1        2 0.69681749E-01 0.23104195E+03</pdfrwt>
<pdfrwt beam="2">  1       -2 0.45328980E-02 0.23104195E+03</pdfrwt>
<totfact> 0.15533680E+04</totfact>
</mgrwt>
</event>
<event>
 4    1  0.4991066E-004  0.2153962E+03  0.7818608E-02  0.1137363E+00
         -2   -1    0    0    0  501 -0.00000000000E+00  0.00000000000E+00  0.59340813971E+01  0.59340819450E+01  0.25500000000E-02 0. -1.
          2   -1    0    0  501    0  0.00000000000E+00 -0.00000000000E+00 -0.19546217002E+04  0.19546217002E+04  0.25500000000E-02 0.  1.
    5000001    1    1    2    0    0 -0.51884644037E+02 -0.33650078590E+02 -0.13653673533E+04  0.13689343862E+04  0.77000000000E+02 0.  0.
   -5000001    1    1    2    0    0  0.51884644037E+02  0.33650078590E+02 -0.58332026547E+03  0.59162139598E+03  0.77000000000E+02 0.  0.
<mgrwt>
<rscale>  0 0.21539624E+03</rscale>
<asrwt>0</asrwt>
<pdfrwt beam="1">  1        2 0.30071052E+00 0.21539624E+03</pdfrwt>
<pdfrwt beam="2">  1       -2 0.91293720E-03 0.21539624E+03</pdfrwt>
<totfact> 0.18944349E+04</totfact>
</mgrwt>
</event>
<event>
 4    1  0.4991066E-004  0.2223599E+03  0.7818608E-02  0.1132136E+00
          2   -1    0    0  501    0  0.00000000000E+00  0.00000000000E+00  0.24453051429E+04  0.24453051429E+04  0.25500000000E-02 0.  1.
         -2   -1    0    0    0  501 -0.00000000000E+00 -0.00000000000E+00 -0.50549869894E+01  0.50549876326E+01  0.25500000000E-02 0. -1.
    5000001    1    1    2    0    0 -0.74053417611E+01 -0.76738812794E+02  0.97661462625E+03  0.98267431669E+03  0.77000000000E+02 0.  0.
   -5000001    1    1    2    0    0  0.74053417611E+01  0.76738812794E+02  0.14636355297E+04  0.14676858139E+04  0.77000000000E+02 0.  0.
<mgrwt>
<rscale>  0 0.22235995E+03</rscale>
<asrwt>0</asrwt>
<pdfrwt beam="1">  1        2 0.37620124E+00 0.22235995E+03</pdfrwt>
<pdfrwt beam="2">  1       -2 0.77768943E-03 0.22235995E+03</pdfrwt>
<totfact> 0.13147030E+04</totfact>
</mgrwt>
</event>
<event>
 4    1  0.4991066E-004  0.3436335E+03  0.7818608E-02  0.1065259E+00
          2   -1    0    0  501    0  0.00000000000E+00  0.00000000000E+00  0.31955787771E+03  0.31955787772E+03  0.25500000000E-02 0.  1.
         -2   -1    0    0    0  501 -0.00000000000E+00 -0.00000000000E+00 -0.92380725733E+02  0.92380725769E+02  0.25500000000E-02 0. -1.
    5000001    1    1    2    0    0 -0.10593108305E+03  0.64608495110E+02  0.50592909004E+01  0.14611724204E+03  0.77000000000E+02 0.  0.
   -5000001    1    1    2    0    0  0.10593108305E+03 -0.64608495110E+02  0.22211786107E+03  0.26582136145E+03  0.77000000000E+02 0.  0.
<mgrwt>
<rscale>  0 0.34363346E+03</rscale>
<asrwt>0</asrwt>
<pdfrwt beam="1">  1        2 0.49162750E-01 0.34363346E+03</pdfrwt>
<pdfrwt beam="2">  1       -2 0.14212419E-01 0.34363346E+03</pdfrwt>
<totfact> 0.38328150E+03</totfact>
</mgrwt>
</event>
<event>
 4    1  0.4991066E-004  0.2490540E+03  0.7818608E-02  0.1113904E+00
          2   -1    0    0  501    0  0.00000000000E+00  0.00000000000E+00  0.35232401213E+04  0.35232401213E+04  0.25500000000E-02 0.  1.
         -2   -1    0    0    0  501 -0.00000000000E+00 -0.00000000000E+00 -0.44013388265E+01  0.44013395652E+01  0.25500000000E-02 0. -1.
    5000001    1    1    2    0    0 -0.16081647057E+02 -0.96510372015E+02  0.17274210240E+04  0.17319022101E+04  0.77000000000E+02 0.  0.
   -5000001    1    1    2    0    0  0.16081647057E+02  0.96510372015E+02  0.17914177585E+04  0.17957392507E+04  0.77000000000E+02 0.  0.
<mgrwt>
<rscale>  0 0.24905401E+03</rscale>
<asrwt>0</asrwt>
<pdfrwt beam="1">  1        2 0.54203769E+00 0.24905401E+03</pdfrwt>
<pdfrwt beam="2">  1       -2 0.67712817E-03 0.24905401E+03</pdfrwt>
<totfact> 0.36827524E+03</totfact>
</mgrwt>
</event>
<event>
 4    1  0.4991066E-004  0.2179429E+03  0.7818608E-02  0.1135426E+00
         -2   -1    0    0    0  501 -0.00000000000E+00  0.00000000000E+00  0.82839294074E+01  0.82839297999E+01  0.25500000000E-02 0. -1.
          2   -1    0    0  501    0  0.00000000000E+00 -0.00000000000E+00 -0.14334711042E+04  0.14334711042E+04  0.25500000000E-02 0.  1.
    5000001    1    1    2    0    0  0.35610233742E+02  0.65953966385E+02 -0.59282958125E+03  0.60248977322E+03  0.77000000000E+02 0.  0.
   -5000001    1    1    2    0    0 -0.35610233742E+02 -0.65953966385E+02 -0.83235759358E+03  0.83926526082E+03  0.77000000000E+02 0.  0.
<mgrwt>
<rscale>  0 0.21794287E+03</rscale>
<asrwt>0</asrwt>
<pdfrwt beam="1">  1        2 0.22053382E+00 0.21794287E+03</pdfrwt>
<pdfrwt beam="2">  1       -2 0.12744518E-02 0.21794287E+03</pdfrwt>
<totfact> 0.21943609E+04</totfact>
</mgrwt>
</event>
<event>
 4    1  0.4991066E-004  0.1910211E+03  0.7818608E-02  0.1157544E+00
          2   -1    0    0  501    0  0.00000000000E+00  0.00000000000E+00  0.34372934069E+03  0.34372934070E+03  0.25500000000E-02 0.  1.
         -2   -1    0    0    0  501 -0.00000000000E+00 -0.00000000000E+00 -0.26539099176E+02  0.26539099299E+02  0.25500000000E-02 0. -1.
    5000001    1    1    2    0    0 -0.10412838562E+02  0.54525294662E+02  0.17909345601E+03  0.20269410684E+03  0.77000000000E+02 0.  0.
   -5000001    1    1    2    0    0  0.10412838562E+02 -0.54525294662E+02  0.13809678551E+03  0.16757433316E+03  0.77000000000E+02 0.  0.
<mgrwt>
<rscale>  0 0.19102112E+03</rscale>
<asrwt>0</asrwt>
<pdfrwt beam="1">  1        2 0.52881442E-01 0.19102112E+03</pdfrwt>
<pdfrwt beam="2">  1       -2 0.40829380E-02 0.19102112E+03</pdfrwt>
<totfact> 0.24177719E+04</totfact>
</mgrwt>
</event>
<event>
 4    1  0.4991066E-004  0.3281459E+03  0.7818608E-02  0.1071960E+00
         -2   -1    0    0    0  501 -0.00000000000E+00  0.00000000000E+00  0.21674259251E+02  0.21674259401E+02  0.25500000000E-02 0. -1.
          2   -1    0    0  501    0  0.00000000000E+00 -0.00000000000E+00 -0.12420232734E+04  0.12420232734E+04  0.25500000000E-02 0.  1.
    5000001    1    1    2    0    0 -0.16872937402E+02 -0.11665748018E+03 -0.28574389106E+03  0.31854706870E+03  0.77000000000E+02 0.  0.
   -5000001    1    1    2    0    0  0.16872937402E+02  0.11665748018E+03 -0.93460512310E+03  0.94515046412E+03  0.77000000000E+02 0.  0.
<mgrwt>
<rscale>  0 0.32814591E+03</rscale>
<asrwt>0</asrwt>
<pdfrwt beam="1">  1        2 0.19108045E+00 0.32814591E+03</pdfrwt>
<pdfrwt beam="2">  1       -2 0.33345024E-02 0.32814591E+03</pdfrwt>
<totfact> 0.68585026E+03</totfact>
</mgrwt>
</event>
<event>
 4    1  0.4991066E-004  0.2199891E+03  0.7818608E-02  0.1133891E+00
         -2   -1    0    0    0  501 -0.00000000000E+00  0.00000000000E+00  0.33201247978E+02  0.33201248076E+02  0.25500000000E-02 0. -1.
          2   -1    0    0  501    0  0.00000000000E+00 -0.00000000000E+00 -0.36440791830E+03  0.36440791831E+03  0.25500000000E-02 0.  1.
    5000001    1    1    2    0    0  0.35625794632E+02  0.45901240981E+02 -0.70072550801E+02  0.11922786395E+03  0.77000000000E+02 0.  0.
   -5000001    1    1    2    0    0 -0.35625794632E+02 -0.45901240981E+02 -0.26113411952E+03  0.27838130243E+03  0.77000000000E+02 0.  0.
<mgrwt>
<rscale>  0 0.21998907E+03</rscale>
<asrwt>0</asrwt>
<pdfrwt beam="1">  1        2 0.56062754E-01 0.21998907E+03</pdfrwt>
<pdfrwt beam="2">  1       -2 0.51078846E-02 0.21998907E+03</pdfrwt>
<totfact> 0.16368674E+04</totfact>
</mgrwt>
</event>
<event>
 4    1  0.4991066E-004  0.2205604E+03  0.7818608E-02  0.1133466E+00
          2   -1    0    0  501    0  0.00000000000E+00  0.00000000000E+00  0.21017985673E+04  0.21017985673E+04  0.25500000000E-02 0.  1.
         -2   -1    0    0    0  501 -0.00000000000E+00 -0.00000000000E+00 -0.57863401815E+01  0.57863407434E+01  0.25500000000E-02 0. -1.
    5000001    1    1    2    0    0  0.56540484152E+02  0.50857328177E+02  0.84543030964E+03  0.85232898733E+03  0.77000000000E+02 0.  0.
   -5000001    1    1    2    0    0 -0.56540484152E+02 -0.50857328177E+02  0.12505819175E+04  0.12552559208E+04  0.77000000000E+02 0.  0.
<mgrwt>
<rscale>  0 0.22056040E+03</rscale>
<asrwt>0</asrwt>
<pdfrwt beam="1">  1        2 0.32335408E+00 0.22056040E+03</pdfrwt>
<pdfrwt beam="2">  1       -2 0.89020497E-03 0.22056040E+03</pdfrwt>
<totfact> 0.16470858E+04</totfact>
</mgrwt>
</event>
<event>
 4    1  0.4991066E-004  0.2006167E+03  0.7818608E-02  0.1149220E+00
         -2   -1    0    0    0  501 -0.00000000000E+00  0.00000000000E+00  0.73047507851E+02  0.73047507896E+02  0.25500000000E-02 0. -1.
          2   -1    0    0  501    0  0.00000000000E+00 -0.00000000000E+00 -0.13774279028E+03  0.13774279031E+03  0.25500000000E-02 0.  1.
    5000001    1    1    2    0    0 -0.36117201135E+02 -0.50967062200E+02 -0.48305797923E+02  0.11029299053E+03  0.77000000000E+02 0.  0.
   -5000001    1    1    2    0    0  0.36117201135E+02  0.50967062200E+02 -0.16389484510E+02  0.10049730767E+03  0.77000000000E+02 0.  0.
<mgrwt>
<rscale>  0 0.20061672E+03</rscale>
<asrwt>0</asrwt>
<pdfrwt beam="1">  1        2 0.21191199E-01 0.20061672E+03</pdfrwt>
<pdfrwt beam="2">  1       -2 0.11238078E-01 0.20061672E+03</pdfrwt>
<totfact> 0.13798520E+04</totfact>
</mgrwt>
</event>
<event>
 4    1  0.4991066E-004  0.2096547E+03  0.7818608E-02  0.1141840E+00
          2   -1    0    0  501    0  0.00000000000E+00  0.00000000000E+00  0.24342888953E+02  0.24342889086E+02  0.25500000000E-02 0.  1.
         -2   -1    0    0    0  501 -0.00000000000E+00 -0.00000000000E+00 -0.45141600280E+03  0.45141600281E+03  0.25500000000E-02 0. -1.
    5000001    1    1    2    0    0 -0.51658207681E+02 -0.14566483673E+02 -0.10760809365E+03  0.14279094749E+03  0.77000000000E+02 0.  0.
   -5000001    1    1    2    0    0  0.51658207681E+02  0.14566483673E+02 -0.31946502020E+03  0.33296794440E+03  0.77000000000E+02 0.  0.
<mgrwt>
<rscale>  0 0.20965467E+03</rscale>
<asrwt>0</asrwt>
<pdfrwt beam="1">  1        2 0.37450602E-02 0.20965467E+03</pdfrwt>
<pdfrwt beam="2">  1       -2 0.69448610E-01 0.20965467E+03</pdfrwt>
<totfact> 0.44066503E+03</totfact>
</mgrwt>
</event>
<event>
 4    1  0.4991066E-004  0.1708177E+03  0.7818608E-02  0.1176998E+00
          2   -1    0    0  501    0  0.00000000000E+00  0.00000000000E+00  0.63419180513E+03  0.63419180513E+03  0.25500000000E-02 0.  1.
         -2   -1    0    0    0  501 -0.00000000000E+00 -0.00000000000E+00 -0.11502307421E+02  0.11502307704E+02  0.25500000000E-02 0. -1.
    5000001    1    1    2    0    0 -0.35124491465E+02  0.10312847332E+02  0.29222499411E+03  0.30440849513E+03  0.77000000000E+02 0.  0.
   -5000001    1    1    2    0    0  0.35124491465E+02 -0.10312847332E+02  0.33046450359E+03  0.34128561771E+03  0.77000000000E+02 0.  0.
<mgrwt>
<rscale>  0 0.17081767E+03</rscale>
<asrwt>0</asrwt>
<pdfrwt beam="1">  1        2 0.97567946E-01 0.17081767E+03</pdfrwt>
<pdfrwt beam="2">  1       -2 0.17695862E-02 0.17081767E+03</pdfrwt>
<totfact> 0.41774292E+04</totfact>
</mgrwt>
</event>
<event>
 4    1  0.4991066E-004  0.1794543E+03  0.7818608E-02  0.1168332E+00
          2   -1    0    0  501    0  0.00000000000E+00  0.00000000000E+00  0.67801011592E+03  0.67801011592E+03  0.25500000000E-02 0.  1.
         -2   -1    0    0    0  501 -0.00000000000E+00 -0.00000000000E+00 -0.11874391809E+02  0.11874392083E+02  0.25500000000E-02 0. -1.
    5000001    1    1    2    0    0  0.59371353257E+01  0.44135401205E+02  0.28778043094E+03  0.30121381052E+03  0.77000000000E+02 0.  0.
   -5000001    1    1    2    0    0 -0.59371353257E+01 -0.44135401205E+02  0.37835529317E+03  0.38867069748E+03  0.77000000000E+02 0.  0.
<mgrwt>
<rscale>  0 0.17945426E+03</rscale>
<asrwt>0</asrwt>
<pdfrwt beam="1">  1        2 0.10430930E+00 0.17945426E+03</pdfrwt>
<pdfrwt beam="2">  1       -2 0.18268286E-02 0.17945426E+03</pdfrwt>
<totfact> 0.37032718E+04</totfact>
</mgrwt>
</event>
<event>
 4    1  0.4991066E-004  0.4833008E+03  0.7818608E-02  0.1018232E+00
          2   -1    0    0  501    0  0.00000000000E+00  0.00000000000E+00  0.76809485534E+03  0.76809485535E+03  0.25500000000E-02 0.  1.
         -2   -1    0    0    0  501 -0.00000000000E+00 -0.00000000000E+00 -0.76025646363E+02  0.76025646406E+02  0.25500000000E-02 0. -1.
    5000001    1    1    2    0    0 -0.10937556228E+03  0.20017259197E+03  0.38241317134E+03  0.45188595222E+03  0.77000000000E+02 0.  0.
   -5000001    1    1    2    0    0  0.10937556228E+03 -0.20017259197E+03  0.30965603764E+03  0.39223454953E+03  0.77000000000E+02 0.  0.
<mgrwt>
<rscale>  0 0.48330077E+03</rscale>
<asrwt>0</asrwt>
<pdfrwt beam="1">  1        2 0.11816844E+00 0.48330077E+03</pdfrwt>
<pdfrwt beam="2">  1       -2 0.11696254E-01 0.48330077E+03</pdfrwt>
<totfact> 0.19318360E+03</totfact>
</mgrwt>
</event>
<event>
 4    1  0.4991066E-004  0.1572320E+03  0.7818608E-02  0.1191858E+00
         -2   -1    0    0    0  501 -0.00000000000E+00  0.00000000000E+00  0.73524318509E+01  0.73524322931E+01  0.25500000000E-02 0. -1.
          2   -1    0    0  501    0  0.00000000000E+00 -0.00000000000E+00 -0.84060285344E+03  0.84060285345E+03  0.25500000000E-02 0.  1.
    5000001    1    1    2    0    0 -0.15335570310E+02  0.15045893356E+01 -0.39642341864E+03  0.40412618122E+03  0.77000000000E+02 0.  0.
   -5000001    1    1    2    0    0  0.15335570310E+02 -0.15045893356E+01 -0.43682700295E+03  0.44382910452E+03  0.77000000000E+02 0.  0.
<mgrwt>
<rscale>  0 0.15723200E+03</rscale>
<asrwt>0</asrwt>
<pdfrwt beam="1">  1        2 0.12932344E+00 0.15723200E+03</pdfrwt>
<pdfrwt beam="2">  1       -2 0.11311441E-02 0.15723200E+03</pdfrwt>
<totfact> 0.56226484E+04</totfact>
</mgrwt>
</event>
<event>
 4    1  0.4991066E-004  0.2012618E+03  0.7818608E-02  0.1148679E+00
         -2   -1    0    0    0  501 -0.00000000000E+00  0.00000000000E+00  0.32204865770E+02  0.32204865871E+02  0.25500000000E-02 0. -1.
          2   -1    0    0  501    0  0.00000000000E+00 -0.00000000000E+00 -0.31444233814E+03  0.31444233815E+03  0.25500000000E-02 0.  1.
    5000001    1    1    2    0    0 -0.59149851616E+01 -0.63287769891E+02 -0.16271676444E+03  0.19090854957E+03  0.77000000000E+02 0.  0.
   -5000001    1    1    2    0    0  0.59149851616E+01  0.63287769891E+02 -0.11952070792E+03  0.15573865445E+03  0.77000000000E+02 0.  0.
<mgrwt>
<rscale>  0 0.20126175E+03</rscale>
<asrwt>0</asrwt>
<pdfrwt beam="1">  1        2 0.48375742E-01 0.20126175E+03</pdfrwt>
<pdfrwt beam="2">  1       -2 0.49545949E-02 0.20126175E+03</pdfrwt>
<totfact> 0.19958019E+04</totfact>
</mgrwt>
</event>
<event>
 4    1  0.4991066E-004  0.2252736E+03  0.7818608E-02  0.1130011E+00
          2   -1    0    0  501    0  0.00000000000E+00  0.00000000000E+00  0.28079339677E+02  0.28079339793E+02  0.25500000000E-02 0.  1.
         -2   -1    0    0    0  501 -0.00000000000E+00 -0.00000000000E+00 -0.45182868469E+03  0.45182868469E+03  0.25500000000E-02 0. -1.
    5000001    1    1    2    0    0  0.58071610842E+02  0.55243717953E+02 -0.17294893236E+03  0.20558334944E+03  0.77000000000E+02 0.  0.
   -5000001    1    1    2    0    0 -0.58071610842E+02 -0.55243717953E+02 -0.25080041264E+03  0.27432467505E+03  0.77000000000E+02 0.  0.
<mgrwt>
<rscale>  0 0.22527362E+03</rscale>
<asrwt>0</asrwt>
<pdfrwt beam="1">  1        2 0.43198988E-02 0.22527362E+03</pdfrwt>
<pdfrwt beam="2">  1       -2 0.69512100E-01 0.22527362E+03</pdfrwt>
<totfact> 0.36486788E+03</totfact>
</mgrwt>
</event>
<event>
 4    1  0.4991066E-004  0.1736448E+03  0.7818608E-02  0.1174099E+00
         -2   -1    0    0    0  501 -0.00000000000E+00  0.00000000000E+00  0.49202661953E+01  0.49202668561E+01  0.25500000000E-02 0. -1.
          2   -1    0    0  501    0  0.00000000000E+00 -0.00000000000E+00 -0.15320574817E+04  0.15320574817E+04  0.25500000000E-02 0.  1.
    5000001    1    1    2    0    0  0.28933649949E+02 -0.18655324356E+02 -0.58131964408E+03  0.58740676351E+03  0.77000000000E+02 0.  0.
   -5000001    1    1    2    0    0 -0.28933649949E+02  0.18655324356E+02 -0.94581757141E+03  0.94957098503E+03  0.77000000000E+02 0.  0.
<mgrwt>
<rscale>  0 0.17364482E+03</rscale>
<asrwt>0</asrwt>
<pdfrwt beam="1">  1        2 0.23570077E+00 0.17364482E+03</pdfrwt>
<pdfrwt beam="2">  1       -2 0.75696530E-03 0.17364482E+03</pdfrwt>
<totfact> 0.40683079E+04</totfact>
</mgrwt>
</event>
<event>
 4    1  0.4991066E-004  0.2564211E+03  0.7818608E-02  0.1109313E+00
         -2   -1    0    0    0  501 -0.00000000000E+00  0.00000000000E+00  0.40022435001E+02  0.40022435082E+02  0.25500000000E-02 0. -1.
          2   -1    0    0  501    0  0.00000000000E+00 -0.00000000000E+00 -0.41071823067E+03  0.41071823068E+03  0.25500000000E-02 0.  1.
    5000001    1    1    2    0    0  0.33932488781E+02 -0.70910875636E+02 -0.69689890751E+02  0.13025147581E+03  0.77000000000E+02 0.  0.
   -5000001    1    1    2    0    0 -0.33932488781E+02  0.70910875636E+02 -0.30100590492E+03  0.32048918995E+03  0.77000000000E+02 0.  0.
<mgrwt>
<rscale>  0 0.25642109E+03</rscale>
<asrwt>0</asrwt>
<pdfrwt beam="1">  1        2 0.63187417E-01 0.25642109E+03</pdfrwt>
<pdfrwt beam="2">  1       -2 0.61572980E-02 0.25642109E+03</pdfrwt>
<totfact> 0.10906084E+04</totfact>
</mgrwt>
</event>
<event>
 4    1  0.4991066E-004  0.1884909E+03  0.7818608E-02  0.1159830E+00
         -2   -1    0    0    0  501 -0.00000000000E+00  0.00000000000E+00  0.49632127461E+01  0.49632134011E+01  0.25500000000E-02 0. -1.
          2   -1    0    0  501    0  0.00000000000E+00 -0.00000000000E+00 -0.17896077803E+04  0.17896077803E+04  0.25500000000E-02 0.  1.
    5000001    1    1    2    0    0 -0.11972684080E+02  0.48503292717E+02 -0.10959168532E+04  0.10997539105E+04  0.77000000000E+02 0.  0.
   -5000001    1    1    2    0    0  0.11972684080E+02 -0.48503292717E+02 -0.68872771435E+03  0.69481708319E+03  0.77000000000E+02 0.  0.
<mgrwt>
<rscale>  0 0.18849090E+03</rscale>
<asrwt>0</asrwt>
<pdfrwt beam="1">  1        2 0.27532376E+00 0.18849090E+03</pdfrwt>
<pdfrwt beam="2">  1       -2 0.76357267E-03 0.18849090E+03</pdfrwt>
<totfact> 0.29662907E+04</totfact>
</mgrwt>
</event>
<event>
 4    1  0.4991066E-004  0.2914184E+03  0.7818608E-02  0.1089611E+00
          2   -1    0    0  501    0  0.00000000000E+00  0.00000000000E+00  0.23507868606E+04  0.23507868606E+04  0.25500000000E-02 0. -1.
         -2   -1    0    0    0  501 -0.00000000000E+00 -0.00000000000E+00 -0.90315170412E+01  0.90315174012E+01  0.25500000000E-02 0.  1.
    5000001    1    1    2    0    0  0.11107970399E+03  0.52984994978E+02  0.12720378874E+04  0.12802950821E+04  0.77000000000E+02 0.  0.
   -5000001    1    1    2    0    0 -0.11107970399E+03 -0.52984994978E+02  0.10697174561E+04  0.10795232959E+04  0.77000000000E+02 0.  0.
<mgrwt>
<rscale>  0 0.29141841E+03</rscale>
<asrwt>0</asrwt>
<pdfrwt beam="1">  1        2 0.36165948E+00 0.29141841E+03</pdfrwt>
<pdfrwt beam="2">  1       -2 0.13894643E-02 0.29141841E+03</pdfrwt>
<totfact> 0.63800655E+03</totfact>
</mgrwt>
</event>
<event>
 4    1  0.4991066E-004  0.2805308E+03  0.7818608E-02  0.1095399E+00
          2   -1    0    0  501    0  0.00000000000E+00  0.00000000000E+00  0.45785281266E+03  0.45785281267E+03  0.25500000000E-02 0.  1.
         -2   -1    0    0    0  501 -0.00000000000E+00 -0.00000000000E+00 -0.42970967403E+02  0.42970967479E+02  0.25500000000E-02 0. -1.
    5000001    1    1    2    0    0  0.48385455934E+02 -0.59511893612E+02  0.49138909855E+02  0.11927468419E+03  0.77000000000E+02 0.  0.
   -5000001    1    1    2    0    0 -0.48385455934E+02  0.59511893612E+02  0.36574293540E+03  0.38154909596E+03  0.77000000000E+02 0.  0.
<mgrwt>
<rscale>  0 0.28053077E+03</rscale>
<asrwt>0</asrwt>
<pdfrwt beam="1">  1        2 0.70438894E-01 0.28053077E+03</pdfrwt>
<pdfrwt beam="2">  1       -2 0.66109181E-02 0.28053077E+03</pdfrwt>
<totfact> 0.87107235E+03</totfact>
</mgrwt>
</event>
