<event>
 8    1  0.1426346E-011  0.1978797E+04  0.7818608E-02  0.8616598E-01
         -3   -1    0    0    0  501 -0.00000000000E+00  0.00000000000E+00  0.16105676153E+04  0.16105676184E+04  0.10100000000E+00 0. -1.
          3   -1    0    0  501    0  0.00000000000E+00 -0.00000000000E+00 -0.60780407700E+03  0.60780408539E+03  0.10100000000E+00 0.  1.
     200001    2    1    2    0    0  0.53187190816E+03 -0.41822485355E+03  0.69869680296E+03  0.11984421306E+04  0.70020465800E+03 0.  0.
    5000001    2    3    3    0    0  0.14452387115E+03 -0.83569629225E+02  0.18889443394E+03  0.31984604796E+03  0.19684855845E+03 0.  0.
        -11    1    4    4    0    0  0.13378335407E+03 -0.42023103184E+02  0.18323970528E+02  0.14142027762E+03  0.51100000000E-03 0. -1.
     200002    1    4    4    0    0  0.10740517084E+02 -0.41546526041E+02  0.17057046341E+03  0.17842577034E+03  0.30000000000E+02 0. -1.
     200000    1    3    3    0    0  0.38734803701E+03 -0.33465522433E+03  0.50980236902E+03  0.87859608263E+03  0.50000000000E+03 0. -1.
    -200001    1    1    2    0    0 -0.53187190816E+03  0.41822485355E+03  0.30406673530E+03  0.10199295732E+04  0.70000000000E+03 0.  1.
<mgrwt>
<rscale>  0 0.19787972E+04</rscale>
<asrwt>0</asrwt>
<pdfrwt beam="1">  1        3 0.86829155E-01 0.19787972E+04</pdfrwt>
<pdfrwt beam="2">  1       -3 0.23008109E+00 0.19787972E+04</pdfrwt>
<totfact> 0.28394484E-01</totfact>
</mgrwt>
</event>
<event>
 8    1  0.1426346E-011  0.1526457E+04  0.7818608E-02  0.8867047E-01
         -3   -1    0    0    0  501 -0.00000000000E+00  0.00000000000E+00  0.14089921569E+04  0.14089921605E+04  0.10100000000E+00 0. -1.
          3   -1    0    0  501    0  0.00000000000E+00 -0.00000000000E+00 -0.41342879263E+03  0.41342880497E+03  0.10100000000E+00 0.  1.
     200001    2    1    2    0    0 -0.27921874507E+03  0.52881220985E+02  0.61104774609E+03  0.97471123227E+03  0.70421808212E+03 0.  0.
    5000001    2    3    3    0    0 -0.53779268024E+02  0.45001092782E+02  0.16888004290E+03  0.27015652753E+03  0.19886370321E+03 0.  0.
        -11    1    4    4    0    0 -0.74077905176E+02  0.10622201674E+03  0.66741260977E+02  0.14568819030E+03  0.51100000000E-03 0. -1.
     200002    1    4    4    0    0  0.20298637152E+02 -0.61220923957E+02  0.10213878192E+03  0.12446833723E+03  0.30000000000E+02 0. -1.
     200000    1    3    3    0    0 -0.22543947705E+03  0.78801282029E+01  0.44216770319E+03  0.70455470474E+03  0.50000000000E+03 0. -1.
    -200001    1    1    2    0    0  0.27921874507E+03 -0.52881220985E+02  0.38451561813E+03  0.84770973317E+03  0.70000000000E+03 0.  1.
<mgrwt>
<rscale>  0 0.15264573E+04</rscale>
<asrwt>0</asrwt>
<pdfrwt beam="1">  1        3 0.59061258E-01 0.15264573E+04</pdfrwt>
<pdfrwt beam="2">  1       -3 0.20128459E+00 0.15264573E+04</pdfrwt>
<totfact> 0.10246479E+00</totfact>
</mgrwt>
</event>
<event>
 8    1  0.1426346E-011  0.2318257E+04  0.7818608E-02  0.8470757E-01
         -3   -1    0    0    0  501 -0.00000000000E+00  0.00000000000E+00  0.80325427366E+03  0.80325428001E+03  0.10100000000E+00 0. -1.
          3   -1    0    0  501    0  0.00000000000E+00 -0.00000000000E+00 -0.16726697375E+04  0.16726697406E+04  0.10100000000E+00 0.  1.
     200001    2    1    2    0    0  0.22685162112E+03  0.57526042852E+03 -0.11668880844E+04  0.14956811024E+04  0.70217372492E+03 0.  0.
    5000001    2    3    3    0    0 -0.89272203062E+01  0.19733974366E+03 -0.37010963571E+03  0.45487775768E+03  0.17581229279E+03 0.  0.
        -11    1    4    4    0    0  0.10978703858E+02  0.10817131769E+03 -0.48236278370E+02  0.11894664544E+03  0.51100000000E-03 0. -1.
     200002    1    4    4    0    0 -0.19905924164E+02  0.89168425962E+02 -0.32187335734E+03  0.33593111224E+03  0.30000000000E+02 0. -1.
     200000    1    3    3    0    0  0.23577884142E+03  0.37792068486E+03 -0.79677844870E+03  0.10408033447E+04  0.50000000000E+03 0.  1.
    -200001    1    1    2    0    0 -0.22685162112E+03 -0.57526042852E+03  0.29747262055E+03  0.98024291816E+03  0.70000000000E+03 0. -1.
<mgrwt>
<rscale>  0 0.23182572E+04</rscale>
<asrwt>0</asrwt>
<pdfrwt beam="1">  1        3 0.23895282E+00 0.23182572E+04</pdfrwt>
<pdfrwt beam="2">  1       -3 0.11475061E+00 0.23182572E+04</pdfrwt>
<totfact> 0.12846127E-01</totfact>
</mgrwt>
</event>
<event>
 8    1  0.1426346E-011  0.1564603E+04  0.7818608E-02  0.8842594E-01
          3   -1    0    0  501    0  0.00000000000E+00  0.00000000000E+00  0.13844636227E+04  0.13844636264E+04  0.10100000000E+00 0.  1.
         -3   -1    0    0    0  501 -0.00000000000E+00 -0.00000000000E+00 -0.44204518593E+03  0.44204519747E+03  0.10100000000E+00 0. -1.
     200001    2    1    2    0    0  0.31729108420E+03  0.12773584679E+03  0.38412041525E+03  0.86802733759E+03  0.69923736079E+03 0.  0.
    5000001    2    3    3    0    0  0.87542984302E+02 -0.28246836771E+02  0.37195387335E+02  0.19909403600E+03  0.17260730125E+03 0.  0.
        -11    1    4    4    0    0  0.73339305384E+02  0.52413423501E+02 -0.23104018097E+02  0.93057059537E+02  0.51100000000E-03 0. -1.
     200002    1    4    4    0    0  0.14203678919E+02 -0.80660260272E+02  0.60299405431E+02  0.10603697646E+03  0.30000000000E+02 0. -1.
     200000    1    3    3    0    0  0.22974809989E+03  0.15598268356E+03  0.34692502792E+03  0.66893330159E+03  0.50000000000E+03 0.  1.
    -200001    1    1    2    0    0 -0.31729108420E+03 -0.12773584679E+03  0.55829802150E+03  0.95848148625E+03  0.70000000000E+03 0.  1.
<mgrwt>
<rscale>  0 0.15646028E+04</rscale>
<asrwt>0</asrwt>
<pdfrwt beam="1">  1        3 0.19778052E+00 0.15646028E+04</pdfrwt>
<pdfrwt beam="2">  1       -3 0.63149313E-01 0.15646028E+04</pdfrwt>
<totfact> 0.93860645E-01</totfact>
</mgrwt>
</event>
<event>
 8    1  0.1426346E-011  0.1676879E+04  0.7818608E-02  0.8774662E-01
          3   -1    0    0  501    0  0.00000000000E+00  0.00000000000E+00  0.56167128116E+03  0.56167129024E+03  0.10100000000E+00 0.  1.
         -3   -1    0    0    0  501 -0.00000000000E+00 -0.00000000000E+00 -0.12515875198E+04  0.12515875239E+04  0.10100000000E+00 0. -1.
     200001    2    1    2    0    0  0.30512031133E+03 -0.25104900942E+03 -0.60080957290E+03  0.10045165762E+04  0.70139674895E+03 0.  0.
    5000001    2    3    3    0    0  0.61667802962E+02 -0.62903354294E+02 -0.18056700343E+03  0.28252507446E+03  0.19863591082E+03 0.  0.
        -11    1    4    4    0    0  0.25002321393E+02  0.70048293990E+02 -0.45619385977E+02  0.87252552645E+02  0.51100000000E-03 0. -1.
     200002    1    4    4    0    0  0.36665481569E+02 -0.13295164828E+03 -0.13494761745E+03  0.19527252181E+03  0.30000000000E+02 0. -1.
     200000    1    3    3    0    0  0.24345250837E+03 -0.18814565513E+03 -0.42024256947E+03  0.72199150173E+03  0.50000000000E+03 0. -1.
    -200001    1    1    2    0    0 -0.30512031133E+03  0.25104900942E+03 -0.89106665749E+02  0.80874223792E+03  0.70000000000E+03 0.  1.
<mgrwt>
<rscale>  0 0.16768790E+04</rscale>
<asrwt>0</asrwt>
<pdfrwt beam="1">  1        3 0.80238755E-01 0.16768790E+04</pdfrwt>
<pdfrwt beam="2">  1       -3 0.17879822E+00 0.16768790E+04</pdfrwt>
<totfact> 0.73067947E-01</totfact>
</mgrwt>
</event>
<event>
 8    1  0.1426346E-011  0.1441608E+04  0.7818608E-02  0.8924240E-01
         -3   -1    0    0    0  501 -0.00000000000E+00  0.00000000000E+00  0.30260356134E+03  0.30260357820E+03  0.10100000000E+00 0. -1.
          3   -1    0    0  501    0  0.00000000000E+00 -0.00000000000E+00 -0.17169594494E+04  0.17169594523E+04  0.10100000000E+00 0.  1.
     200001    2    1    2    0    0 -0.77060901498E+02 -0.15312029903E+03 -0.71054834460E+03  0.10122253182E+04  0.70024062741E+03 0.  0.
    5000001    2    3    3    0    0 -0.22776013042E+02 -0.63400081247E+02 -0.26965249365E+03  0.33740258742E+03  0.19128439976E+03 0.  0.
        -11    1    4    4    0    0 -0.76855802204E+02  0.29221570632E+02 -0.66597532717E+02  0.10581089683E+03  0.51100000000E-03 0. -1.
     200002    1    4    4    0    0  0.54079789163E+02 -0.92621651879E+02 -0.20305496093E+03  0.23159169059E+03  0.30000000000E+02 0. -1.
     200000    1    3    3    0    0 -0.54284888457E+02 -0.89720217786E+02 -0.44089585096E+03  0.67482273079E+03  0.50000000000E+03 0. -1.
    -200001    1    1    2    0    0  0.77060901498E+02  0.15312029903E+03 -0.70380754343E+03  0.10073377123E+04  0.70000000000E+03 0.  1.
<mgrwt>
<rscale>  0 0.14416075E+04</rscale>
<asrwt>0</asrwt>
<pdfrwt beam="1">  1        3 0.24527992E+00 0.14416075E+04</pdfrwt>
<pdfrwt beam="2">  1       -3 0.43229082E-01 0.14416075E+04</pdfrwt>
<totfact> 0.10728715E+00</totfact>
</mgrwt>
</event>
<event>
 8    1  0.1426346E-011  0.1552007E+04  0.7818608E-02  0.8850587E-01
         -3   -1    0    0    0  501 -0.00000000000E+00  0.00000000000E+00  0.35782234247E+03  0.35782235673E+03  0.10100000000E+00 0. -1.
          3   -1    0    0  501    0  0.00000000000E+00 -0.00000000000E+00 -0.16829065671E+04  0.16829065702E+04  0.10100000000E+00 0.  1.
     200001    2    1    2    0    0 -0.91811467173E+02  0.54417282047E+02 -0.24463098381E+03  0.74892019811E+03  0.69974749647E+03 0.  0.
    5000001    2    3    3    0    0 -0.65826570436E+02  0.36915789569E+02 -0.56210520935E+02  0.21367839488E+03  0.19184087385E+03 0.  0.
        -11    1    4    4    0    0 -0.13870696421E+02  0.10767433008E+03 -0.53105957491E+02  0.12085694146E+03  0.51100000000E-03 0. -1.
     200002    1    4    4    0    0 -0.51955874015E+02 -0.70758540515E+02 -0.31045634443E+01  0.92821453418E+02  0.30000000000E+02 0. -1.
     200000    1    3    3    0    0 -0.25984896737E+02  0.17501492479E+02 -0.18842046287E+03  0.53524180323E+03  0.50000000000E+03 0. -1.
    -200001    1    1    2    0    0  0.91811467173E+02 -0.54417282047E+02 -0.10804532408E+04  0.12918087288E+04  0.70000000000E+03 0.  1.
<mgrwt>
<rscale>  0 0.15520072E+04</rscale>
<asrwt>0</asrwt>
<pdfrwt beam="1">  1        3 0.24041522E+00 0.15520072E+04</pdfrwt>
<pdfrwt beam="2">  1       -3 0.51117480E-01 0.15520072E+04</pdfrwt>
<totfact> 0.80774625E-01</totfact>
</mgrwt>
</event>
<event>
 8    1  0.1426346E-011  0.1677473E+04  0.7818608E-02  0.8774318E-01
          3   -1    0    0  501    0  0.00000000000E+00  0.00000000000E+00  0.99035603358E+03  0.99035603873E+03  0.10100000000E+00 0.  1.
         -3   -1    0    0    0  501 -0.00000000000E+00 -0.00000000000E+00 -0.71032943213E+03  0.71032943931E+03  0.10100000000E+00 0. -1.
     200001    2    1    2    0    0 -0.43377783802E+02  0.44825256919E+02  0.60446709566E+03  0.92663601576E+03  0.69955907555E+03 0.  0.
    5000001    2    3    3    0    0 -0.23830170531E+02 -0.54969239613E+02  0.25178752509E+03  0.30637483672E+03  0.16394843230E+03 0.  0.
        -11    1    4    4    0    0 -0.25580029698E+02 -0.66009888177E+02  0.26307089773E+03  0.27242969825E+03  0.51100000000E-03 0. -1.
     200002    1    4    4    0    0  0.17498591673E+01  0.11040648564E+02 -0.11283372639E+02  0.33945138473E+02  0.30000000000E+02 0. -1.
     200000    1    3    3    0    0 -0.19547613271E+02  0.99794496531E+02  0.35267957057E+03  0.62026117904E+03  0.50000000000E+03 0.  1.
    -200001    1    1    2    0    0  0.43377783802E+02 -0.44825256919E+02 -0.32444049421E+03  0.77404946229E+03  0.70000000000E+03 0. -1.
<mgrwt>
<rscale>  0 0.16774732E+04</rscale>
<asrwt>0</asrwt>
<pdfrwt beam="1">  1        3 0.14147943E+00 0.16774732E+04</pdfrwt>
<pdfrwt beam="2">  1       -3 0.10147563E+00 0.16774732E+04</pdfrwt>
<totfact> 0.79720766E-01</totfact>
</mgrwt>
</event>
<event>
 8    1  0.1426346E-011  0.1916340E+04  0.7818608E-02  0.8646766E-01
          3   -1    0    0  501    0  0.00000000000E+00  0.00000000000E+00  0.70629629423E+03  0.70629630145E+03  0.10100000000E+00 0. -1.
         -3   -1    0    0    0  501 -0.00000000000E+00 -0.00000000000E+00 -0.12998646063E+04  0.12998646102E+04  0.10100000000E+00 0.  1.
     200001    2    1    2    0    0  0.48930352611E+03  0.20533170344E+01 -0.75140507216E+03  0.11376365311E+04  0.70013222870E+03 0.  0.
    5000001    2    3    3    0    0  0.75097213104E+02  0.23328938942E+02 -0.14745261037E+03  0.25063140265E+03  0.18678864226E+03 0.  0.
        -11    1    4    4    0    0 -0.43006418195E+02  0.61196543987E+02 -0.60754206900E+02  0.96362039509E+02  0.51100000000E-03 0. -1.
     200002    1    4    4    0    0  0.11810363130E+03 -0.37867605044E+02 -0.86698403473E+02  0.15426936314E+03  0.30000000000E+02 0. -1.
     200000    1    3    3    0    0  0.41420631300E+03 -0.21275621908E+02 -0.60395246179E+03  0.88700512846E+03  0.50000000000E+03 0.  1.
    -200001    1    1    2    0    0 -0.48930352611E+03 -0.20533170344E+01  0.15783676011E+03  0.86852438055E+03  0.70000000000E+03 0. -1.
<mgrwt>
<rscale>  0 0.19163398E+04</rscale>
<asrwt>0</asrwt>
<pdfrwt beam="1">  1        3 0.10089947E+00 0.19163398E+04</pdfrwt>
<pdfrwt beam="2">  1       -3 0.18569495E+00 0.19163398E+04</pdfrwt>
<totfact> 0.38222648E-01</totfact>
</mgrwt>
</event>
<event>
 8    1  0.1426346E-011  0.1703898E+04  0.7818608E-02  0.8759144E-01
         -3   -1    0    0    0  501 -0.00000000000E+00  0.00000000000E+00  0.61594259086E+03  0.61594259914E+03  0.10100000000E+00 0. -1.
          3   -1    0    0  501    0  0.00000000000E+00 -0.00000000000E+00 -0.11783850017E+04  0.11783850060E+04  0.10100000000E+00 0.  1.
     200001    2    1    2    0    0 -0.13201713069E+03  0.18916320542E+03  0.16955871745E+03  0.75556059910E+03  0.69922129485E+03 0.  0.
    5000001    2    3    3    0    0  0.11530712837E+03  0.46919963255E+02  0.10445263316E+03  0.17621507934E+03  0.68148256099E+02 0.  0.
        -11    1    4    4    0    0  0.29348746417E+01  0.61299462701E+01 -0.72058352177E+01  0.99052406272E+01  0.51100000000E-03 0. -1.
     200002    1    4    4    0    0  0.11237225372E+03  0.40790016985E+02  0.11165846838E+03  0.16630983871E+03  0.30000000000E+02 0. -1.
     200000    1    3    3    0    0 -0.24732425906E+03  0.14224324216E+03  0.65106084288E+02  0.57934551976E+03  0.50000000000E+03 0. -1.
    -200001    1    1    2    0    0  0.13201713069E+03 -0.18916320542E+03 -0.73200112829E+03  0.10387670061E+04  0.70000000000E+03 0.  1.
<mgrwt>
<rscale>  0 0.17038985E+04</rscale>
<asrwt>0</asrwt>
<pdfrwt beam="1">  1        3 0.16834071E+00 0.17038985E+04</pdfrwt>
<pdfrwt beam="2">  1       -3 0.87991800E-01 0.17038985E+04</pdfrwt>
<totfact> 0.70126755E-01</totfact>
</mgrwt>
</event>
<event>
 8    1  0.1426346E-011  0.1630075E+04  0.7818608E-02  0.8802282E-01
          3   -1    0    0  501    0  0.00000000000E+00  0.00000000000E+00  0.26340056619E+03  0.26340058556E+03  0.10100000000E+00 0.  1.
         -3   -1    0    0    0  501 -0.00000000000E+00 -0.00000000000E+00 -0.25219622027E+04  0.25219622047E+04  0.10100000000E+00 0. -1.
     200001    2    1    2    0    0 -0.23991769765E+03  0.28442713935E+03 -0.80677255494E+03  0.11312313455E+04  0.70024503026E+03 0.  0.
    5000001    2    3    3    0    0 -0.12584032613E+03  0.11047590434E+03 -0.16909009699E+03  0.29462415212E+03  0.17369863842E+03 0.  0.
        -11    1    4    4    0    0 -0.48627867664E+02 -0.23431691501E+02  0.11332217390E+02  0.55155533099E+02  0.51100000000E-03 0. -1.
     200002    1    4    4    0    0 -0.77212458466E+02  0.13390759584E+03 -0.18042231438E+03  0.23946861902E+03  0.30000000000E+02 0. -1.
     200000    1    3    3    0    0 -0.11407737152E+03  0.17395123501E+03 -0.63768245795E+03  0.83660719339E+03  0.50000000000E+03 0.  1.
    -200001    1    1    2    0    0  0.23991769765E+03 -0.28442713935E+03 -0.14517890816E+04  0.16541314448E+04  0.70000000000E+03 0. -1.
<mgrwt>
<rscale>  0 0.16300752E+04</rscale>
<asrwt>0</asrwt>
<pdfrwt beam="1">  1        3 0.37628655E-01 0.16300752E+04</pdfrwt>
<pdfrwt beam="2">  1       -3 0.36028030E+00 0.16300752E+04</pdfrwt>
<totfact> 0.31166982E-01</totfact>
</mgrwt>
</event>
<event>
 8    1  0.1426346E-011  0.1898346E+04  0.7818608E-02  0.8655680E-01
         -3   -1    0    0    0  501 -0.00000000000E+00  0.00000000000E+00  0.31220541345E+03  0.31220542979E+03  0.10100000000E+00 0. -1.
          3   -1    0    0  501    0  0.00000000000E+00 -0.00000000000E+00 -0.28856943901E+04  0.28856943919E+04  0.10100000000E+00 0.  1.
     200001    2    1    2    0    0 -0.12827904455E+03  0.51116946153E+03 -0.67142836150E+03  0.11037211484E+04  0.69973894933E+03 0.  0.
    5000001    2    3    3    0    0 -0.53157113233E+01  0.15655030659E+03 -0.14745409845E+03  0.28798604761E+03  0.19146017130E+03 0.  0.
        -11    1    4    4    0    0 -0.53305405580E+02  0.14851764083E+03 -0.34691711227E+02  0.16156259075E+03  0.51100000000E-03 0. -1.
     200002    1    4    4    0    0  0.47989694256E+02  0.80326657557E+01 -0.11276238722E+03  0.12642345686E+03  0.30000000000E+02 0. -1.
     200000    1    3    3    0    0 -0.12296333323E+03  0.35461915495E+03 -0.52397426305E+03  0.81573510082E+03  0.50000000000E+03 0. -1.
    -200001    1    1    2    0    0  0.12827904455E+03 -0.51116946153E+03 -0.19020606152E+04  0.20941786733E+04  0.70000000000E+03 0. -1.
<mgrwt>
<rscale>  0 0.18983461E+04</rscale>
<asrwt>0</asrwt>
<pdfrwt beam="1">  1        3 0.41224204E+00 0.18983461E+04</pdfrwt>
<pdfrwt beam="2">  1       -3 0.44600776E-01 0.18983461E+04</pdfrwt>
<totfact> 0.11871498E-01</totfact>
</mgrwt>
</event>
<event>
 8    1  0.1426346E-011  0.1556273E+04  0.7818608E-02  0.8847871E-01
         -3   -1    0    0    0  501 -0.00000000000E+00  0.00000000000E+00  0.15374978729E+04  0.15374978762E+04  0.10100000000E+00 0. -1.
          3   -1    0    0  501    0  0.00000000000E+00 -0.00000000000E+00 -0.39381942467E+03  0.39381943763E+03  0.10100000000E+00 0.  1.
     200001    2    1    2    0    0 -0.29958450892E+03  0.13608789628E+03  0.67643176472E+03  0.10276634771E+04  0.70018675812E+03 0.  0.
    5000001    2    3    3    0    0 -0.81647293313E+02 -0.84134492290E+02  0.24696068256E+03  0.29935039822E+03  0.12196798305E+03 0.  0.
        -11    1    4    4    0    0 -0.19735459025E+02 -0.74725542904E+02  0.54020083747E+02  0.94295092945E+02  0.51100000000E-03 0. -1.
     200002    1    4    4    0    0 -0.61911834288E+02 -0.94089493863E+01  0.19294059881E+03  0.20505530528E+03  0.30000000000E+02 0. -1.
     200000    1    3    3    0    0 -0.21793721561E+03  0.22022238857E+03  0.42947108216E+03  0.72831307883E+03  0.50000000000E+03 0.  1.
    -200001    1    1    2    0    0  0.29958450892E+03 -0.13608789628E+03  0.46724668351E+03  0.90365383679E+03  0.70000000000E+03 0. -1.
<mgrwt>
<rscale>  0 0.15562732E+04</rscale>
<asrwt>0</asrwt>
<pdfrwt beam="1">  1        3 0.56259918E-01 0.15562732E+04</pdfrwt>
<pdfrwt beam="2">  1       -3 0.21964256E+00 0.15562732E+04</pdfrwt>
<totfact> 0.87173017E-01</totfact>
</mgrwt>
</event>
<event>
 8    1  0.1426346E-011  0.1996545E+04  0.7818608E-02  0.8608237E-01
         -3   -1    0    0    0  501 -0.00000000000E+00  0.00000000000E+00  0.15982921211E+04  0.15982921243E+04  0.10100000000E+00 0. -1.
          3   -1    0    0  501    0  0.00000000000E+00 -0.00000000000E+00 -0.62350831118E+03  0.62350831936E+03  0.10100000000E+00 0.  1.
     200001    2    1    2    0    0  0.20995126648E+03 -0.31120581855E+02 -0.26839139214E+03  0.77939529671E+03  0.70026785179E+03 0.  0.
    5000001    2    3    3    0    0  0.64205487351E+02  0.40668353290E+02 -0.73472019799E+02  0.21869123479E+03  0.19144570749E+03 0.  0.
        -11    1    4    4    0    0 -0.31650707589E+02  0.26095673827E+02 -0.10474376450E+03  0.11249003371E+03  0.51100000000E-03 0. -1.
     200002    1    4    4    0    0  0.95856194940E+02  0.14572679464E+02  0.31271744696E+02  0.10620120108E+03  0.30000000000E+02 0. -1.
     200000    1    3    3    0    0  0.14574577912E+03 -0.71788935145E+02 -0.19491937234E+03  0.56070406192E+03  0.50000000000E+03 0.  1.
    -200001    1    1    2    0    0 -0.20995126648E+03  0.31120581855E+02  0.12431752020E+04  0.14424051469E+04  0.70000000000E+03 0. -1.
<mgrwt>
<rscale>  0 0.19965455E+04</rscale>
<asrwt>0</asrwt>
<pdfrwt beam="1">  1        3 0.89072615E-01 0.19965455E+04</pdfrwt>
<pdfrwt beam="2">  1       -3 0.22832745E+00 0.19965455E+04</pdfrwt>
<totfact> 0.27410254E-01</totfact>
</mgrwt>
</event>
<event>
 8    1  0.1426346E-011  0.1638172E+04  0.7818608E-02  0.8797435E-01
         -3   -1    0    0    0  501 -0.00000000000E+00  0.00000000000E+00  0.60601049524E+03  0.60601050365E+03  0.10100000000E+00 0.  1.
          3   -1    0    0  501    0  0.00000000000E+00 -0.00000000000E+00 -0.11070796263E+04  0.11070796309E+04  0.10100000000E+00 0. -1.
     200001    2    1    2    0    0 -0.46991882273E+02 -0.41115365911E+03 -0.35299899299E+03  0.88654289801E+03  0.70006746287E+03 0.  0.
    5000001    2    3    3    0    0  0.10920646931E+03 -0.12128324482E+02 -0.35287691523E+02  0.15540705989E+03  0.10408162131E+03 0.  0.
        -11    1    4    4    0    0  0.24161259163E+02  0.25543960519E+01  0.33256112634E+02  0.41185682115E+02  0.51100000000E-03 0. -1.
     200002    1    4    4    0    0  0.85045210149E+02 -0.14682720534E+02 -0.68543804156E+02  0.11422137777E+03  0.30000000000E+02 0. -1.
     200000    1    3    3    0    0 -0.15619835158E+03 -0.39902533462E+03 -0.31771130147E+03  0.73113583812E+03  0.50000000000E+03 0.  1.
    -200001    1    1    2    0    0  0.46991882273E+02  0.41115365911E+03 -0.14807013803E+03  0.82654723650E+03  0.70000000000E+03 0.  1.
<mgrwt>
<rscale>  0 0.16381720E+04</rscale>
<asrwt>0</asrwt>
<pdfrwt beam="1">  1        3 0.15815423E+00 0.16381720E+04</pdfrwt>
<pdfrwt beam="2">  1       -3 0.86572929E-01 0.16381720E+04</pdfrwt>
<totfact> 0.86401381E-01</totfact>
</mgrwt>
</event>
<event>
 8    1  0.1426346E-011  0.1542821E+04  0.7818608E-02  0.8856467E-01
          3   -1    0    0  501    0  0.00000000000E+00  0.00000000000E+00  0.68317723554E+03  0.68317724301E+03  0.10100000000E+00 0.  1.
         -3   -1    0    0    0  501 -0.00000000000E+00 -0.00000000000E+00 -0.87103894438E+03  0.87103895024E+03  0.10100000000E+00 0. -1.
     200001    2    1    2    0    0  0.82745992407E+02 -0.26549202601E+03 -0.26163667747E+03  0.79739675565E+03  0.70003922732E+03 0.  0.
    5000001    2    3    3    0    0 -0.73689320728E+01 -0.53083522268E+02 -0.12821305496E+03  0.23079289481E+03  0.18426777074E+03 0.  0.
        -11    1    4    4    0    0  0.14091436780E+02  0.60213165773E+02 -0.94411727481E+01  0.62556611689E+02  0.51100000000E-03 0. -1.
     200002    1    4    4    0    0 -0.21460368852E+02 -0.11329668804E+03 -0.11877188221E+03  0.16823628312E+03  0.30000000000E+02 0. -1.
     200000    1    3    3    0    0  0.90114924479E+02 -0.21240850374E+03 -0.13342362251E+03  0.56660386084E+03  0.50000000000E+03 0. -1.
    -200001    1    1    2    0    0 -0.82745992407E+02  0.26549202601E+03  0.73774968634E+02  0.75681943760E+03  0.70000000000E+03 0.  1.
<mgrwt>
<rscale>  0 0.15428208E+04</rscale>
<asrwt>0</asrwt>
<pdfrwt beam="1">  1        3 0.97596750E-01 0.15428208E+04</pdfrwt>
<pdfrwt beam="2">  1       -3 0.12443413E+00 0.15428208E+04</pdfrwt>
<totfact> 0.12150628E+00</totfact>
</mgrwt>
</event>
<event>
 8    1  0.1426346E-011  0.1661740E+04  0.7818608E-02  0.8783491E-01
          3   -1    0    0  501    0  0.00000000000E+00  0.00000000000E+00  0.95147862338E+03  0.95147862874E+03  0.10100000000E+00 0.  1.
         -3   -1    0    0    0  501 -0.00000000000E+00 -0.00000000000E+00 -0.72554946848E+03  0.72554947551E+03  0.10100000000E+00 0. -1.
     200001    2    1    2    0    0 -0.37067429282E+03 -0.24607481654E+03  0.15787228099E+03  0.84481179536E+03  0.70059336693E+03 0.  0.
    5000001    2    3    3    0    0 -0.14499598527E+03 -0.11204801964E+03 -0.39078746701E+02  0.24674525384E+03  0.16055365893E+03 0.  0.
        -11    1    4    4    0    0 -0.74980804351E+02 -0.76279576072E+01  0.49396999094E+02  0.90113097151E+02  0.51100000000E-03 0. -1.
     200002    1    4    4    0    0 -0.70015180920E+02 -0.10442006203E+03 -0.88475745795E+02  0.15663215669E+03  0.30000000000E+02 0. -1.
     200000    1    3    3    0    0 -0.22567830755E+03 -0.13402679690E+03  0.19695102769E+03  0.59806654153E+03  0.50000000000E+03 0.  1.
    -200001    1    1    2    0    0  0.37067429282E+03  0.24607481654E+03  0.68056873909E+02  0.83221630889E+03  0.70000000000E+03 0.  1.
<mgrwt>
<rscale>  0 0.16617398E+04</rscale>
<asrwt>0</asrwt>
<pdfrwt beam="1">  1        3 0.13592552E+00 0.16617398E+04</pdfrwt>
<pdfrwt beam="2">  1       -3 0.10364993E+00 0.16617398E+04</pdfrwt>
<totfact> 0.84037875E-01</totfact>
</mgrwt>
</event>
<event>
 8    1  0.1426346E-011  0.1976914E+04  0.7818608E-02  0.8617491E-01
         -3   -1    0    0    0  501 -0.00000000000E+00  0.00000000000E+00  0.11761565069E+04  0.11761565112E+04  0.10100000000E+00 0. -1.
          3   -1    0    0  501    0  0.00000000000E+00 -0.00000000000E+00 -0.83071165475E+03  0.83071166089E+03  0.10100000000E+00 0.  1.
     200001    2    1    2    0    0 -0.32589814562E+03  0.56922303474E+03  0.41456516420E+03  0.10450978866E+04  0.70010060174E+03 0.  0.
    5000001    2    3    3    0    0 -0.12332894555E+03  0.23940234235E+03  0.26282926132E+03  0.39483658974E+03  0.11955417873E+03 0.  0.
        -11    1    4    4    0    0  0.61610081056E+01 -0.10086045732E+02  0.13062669950E+02  0.17615892991E+02  0.51100000000E-03 0. -1.
     200002    1    4    4    0    0 -0.12948995366E+03  0.24948838808E+03  0.24976659137E+03  0.37722069675E+03  0.30000000000E+02 0. -1.
     200000    1    3    3    0    0 -0.20256920007E+03  0.32982069239E+03  0.15173590288E+03  0.65026129684E+03  0.50000000000E+03 0.  1.
    -200001    1    1    2    0    0  0.32589814562E+03 -0.56922303474E+03 -0.69120312076E+02  0.96177028553E+03  0.70000000000E+03 0. -1.
<mgrwt>
<rscale>  0 0.19769137E+04</rscale>
<asrwt>0</asrwt>
<pdfrwt beam="1">  1        3 0.11867309E+00 0.19769137E+04</pdfrwt>
<pdfrwt beam="2">  1       -3 0.16802236E+00 0.19769137E+04</pdfrwt>
<totfact> 0.34062235E-01</totfact>
</mgrwt>
</event>
<event>
 8    1  0.1426346E-011  0.1519761E+04  0.7818608E-02  0.8871418E-01
          3   -1    0    0  501    0  0.00000000000E+00  0.00000000000E+00  0.82630756977E+03  0.82630757594E+03  0.10100000000E+00 0.  1.
         -3   -1    0    0    0  501 -0.00000000000E+00 -0.00000000000E+00 -0.69879307833E+03  0.69879308563E+03  0.10100000000E+00 0. -1.
     200001    2    1    2    0    0  0.44092210935E+02  0.54224520698E+02  0.35257991508E+03  0.78649463219E+03  0.69955470710E+03 0.  0.
    5000001    2    3    3    0    0 -0.72128165989E+02  0.84340888736E+02  0.11468403721E+03  0.21991840577E+03  0.15131364434E+03 0.  0.
        -11    1    4    4    0    0 -0.87844486006E+01 -0.40691186842E+02  0.11137596758E+02  0.43092752124E+02  0.51100000000E-03 0. -1.
     200002    1    4    4    0    0 -0.63343717389E+02  0.12503207558E+03  0.10354644046E+03  0.17682565365E+03  0.30000000000E+02 0. -1.
     200000    1    3    3    0    0  0.11622037692E+03 -0.30116368038E+02  0.23789587787E+03  0.56657622642E+03  0.50000000000E+03 0. -1.
    -200001    1    1    2    0    0 -0.44092210935E+02 -0.54224520698E+02 -0.22506542364E+03  0.73860602938E+03  0.70000000000E+03 0. -1.
<mgrwt>
<rscale>  0 0.15197605E+04</rscale>
<asrwt>0</asrwt>
<pdfrwt beam="1">  1        3 0.11804394E+00 0.15197605E+04</pdfrwt>
<pdfrwt beam="2">  1       -3 0.99827584E-01 0.15197605E+04</pdfrwt>
<totfact> 0.13150757E+00</totfact>
</mgrwt>
</event>
<event>
 8    1  0.1426346E-011  0.1742796E+04  0.7818608E-02  0.8737325E-01
         -3   -1    0    0    0  501 -0.00000000000E+00  0.00000000000E+00  0.12689557873E+04  0.12689557913E+04  0.10100000000E+00 0. -1.
          3   -1    0    0  501    0  0.00000000000E+00 -0.00000000000E+00 -0.59839347014E+03  0.59839347866E+03  0.10100000000E+00 0.  1.
     200001    2    1    2    0    0 -0.23924447839E+03  0.14762519479E+03  0.80221345677E+03  0.11016057482E+04  0.70068372014E+03 0.  0.
    5000001    2    3    3    0    0  0.87972975615E+02 -0.50168005980E+02  0.20377373972E+03  0.23308775333E+03  0.50498420670E+02 0.  0.
        -11    1    4    4    0    0  0.19803882096E+02  0.44631525256E+01  0.28874268697E+02  0.35296414402E+02  0.51100000000E-03 0. -1.
     200002    1    4    4    0    0  0.68169093519E+02 -0.54631158505E+02  0.17489947102E+03  0.19779133892E+03  0.30000000000E+02 0. -1.
     200000    1    3    3    0    0 -0.32721745400E+03  0.19779320077E+03  0.59843971705E+03  0.86851799487E+03  0.50000000000E+03 0. -1.
    -200001    1    1    2    0    0  0.23924447839E+03 -0.14762519479E+03 -0.13165113961E+03  0.76574352177E+03  0.70000000000E+03 0.  1.
<mgrwt>
<rscale>  0 0.17427965E+04</rscale>
<asrwt>0</asrwt>
<pdfrwt beam="1">  1        3 0.85484781E-01 0.17427965E+04</pdfrwt>
<pdfrwt beam="2">  1       -3 0.18127940E+00 0.17427965E+04</pdfrwt>
<totfact> 0.60689244E-01</totfact>
</mgrwt>
</event>
<event>
 8    1  0.1426346E-011  0.1598683E+04  0.7818608E-02  0.8821357E-01
         -3   -1    0    0    0  501 -0.00000000000E+00  0.00000000000E+00  0.12333188537E+04  0.12333188578E+04  0.10100000000E+00 0. -1.
          3   -1    0    0  501    0  0.00000000000E+00 -0.00000000000E+00 -0.51807135211E+03  0.51807136196E+03  0.10100000000E+00 0.  1.
     200001    2    1    2    0    0 -0.24206191179E+03  0.62679457017E+02  0.67728422037E+03  0.10071027120E+04  0.70215331224E+03 0.  0.
    5000001    2    3    3    0    0 -0.11922085143E+03 -0.30441539415E+02  0.20610511521E+03  0.30299249675E+03  0.18489141633E+03 0.  0.
        -11    1    4    4    0    0 -0.53316696400E+02 -0.10517799753E+03  0.11425576630E+03  0.16419336593E+03  0.51100000000E-03 0. -1.
     200002    1    4    4    0    0 -0.65904155029E+02  0.74736458118E+02  0.91849348907E+02  0.13879913082E+03  0.30000000000E+02 0. -1.
     200000    1    3    3    0    0 -0.12284106036E+03  0.93120996431E+02  0.47117910516E+03  0.70411021525E+03  0.50000000000E+03 0. -1.
    -200001    1    1    2    0    0  0.24206191179E+03 -0.62679457017E+02  0.37963281174E+02  0.74428750775E+03  0.70000000000E+03 0.  1.
<mgrwt>
<rscale>  0 0.15986834E+04</rscale>
<asrwt>0</asrwt>
<pdfrwt beam="1">  1        3 0.74010194E-01 0.15986834E+04</pdfrwt>
<pdfrwt beam="2">  1       -3 0.17618841E+00 0.15986834E+04</pdfrwt>
<totfact> 0.91551282E-01</totfact>
</mgrwt>
</event>
<event>
 8    1  0.1426346E-011  0.1462614E+04  0.7818608E-02  0.8909702E-01
         -3   -1    0    0    0  501 -0.00000000000E+00  0.00000000000E+00  0.37562421881E+03  0.37562423239E+03  0.10100000000E+00 0.  1.
          3   -1    0    0  501    0  0.00000000000E+00 -0.00000000000E+00 -0.14237906271E+04  0.14237906307E+04  0.10100000000E+00 0. -1.
     200001    2    1    2    0    0 -0.53553964329E+01 -0.19627040194E+03 -0.62089318621E+03  0.95613960717E+03  0.70010274159E+03 0.  0.
    5000001    2    3    3    0    0 -0.29877345756E+02  0.18507949726E+02 -0.30560950778E+03  0.32674715073E+03  0.11014231373E+03 0.  0.
        -11    1    4    4    0    0 -0.51842447957E+02  0.35545572926E+01 -0.66969485499E+02  0.84765478091E+02  0.51100000000E-03 0. -1.
     200002    1    4    4    0    0  0.21965102201E+02  0.14953392434E+02 -0.23864002228E+03  0.24198167264E+03  0.30000000000E+02 0. -1.
     200000    1    3    3    0    0  0.24521949323E+02 -0.21477835166E+03 -0.31528367843E+03  0.62939245644E+03  0.50000000000E+03 0. -1.
    -200001    1    1    2    0    0  0.53553964329E+01  0.19627040194E+03 -0.42727322212E+03  0.84327525595E+03  0.70000000000E+03 0.  1.
<mgrwt>
<rscale>  0 0.14626145E+04</rscale>
<asrwt>0</asrwt>
<pdfrwt beam="1">  1        3 0.20339866E+00 0.14626145E+04</pdfrwt>
<pdfrwt beam="2">  1       -3 0.53660605E-01 0.14626145E+04</pdfrwt>
<totfact> 0.12278736E+00</totfact>
</mgrwt>
</event>
<event>
 8    1  0.1426346E-011  0.1469206E+04  0.7818608E-02  0.8905193E-01
         -3   -1    0    0    0  501 -0.00000000000E+00  0.00000000000E+00  0.40346500401E+03  0.40346501665E+03  0.10100000000E+00 0.  1.
          3   -1    0    0  501    0  0.00000000000E+00 -0.00000000000E+00 -0.13375176099E+04  0.13375176137E+04  0.10100000000E+00 0. -1.
     200001    2    1    2    0    0 -0.21350634259E+02  0.20136739198E+03 -0.57745419081E+03  0.92970764259E+03  0.69992734057E+03 0.  0.
    5000001    2    3    3    0    0 -0.35693091668E+02 -0.13546725588E+01 -0.18509174189E+03  0.26243690829E+03  0.18258791303E+03 0.  0.
        -11    1    4    4    0    0 -0.62866972499E+02  0.40593441608E+02 -0.18973491652E+03  0.20395936429E+03  0.51100000000E-03 0. -1.
     200002    1    4    4    0    0  0.27173880831E+02 -0.41948114167E+02  0.46431746357E+01  0.58477544000E+02  0.30000000000E+02 0. -1.
     200000    1    3    3    0    0  0.14342457409E+02  0.20272206454E+03 -0.39236244892E+03  0.66727073431E+03  0.50000000000E+03 0. -1.
    -200001    1    1    2    0    0  0.21350634259E+02 -0.20136739198E+03 -0.35659841508E+03  0.81127498777E+03  0.70000000000E+03 0.  1.
<mgrwt>
<rscale>  0 0.14692060E+04</rscale>
<asrwt>0</asrwt>
<pdfrwt beam="1">  1        3 0.19107394E+00 0.14692060E+04</pdfrwt>
<pdfrwt beam="2">  1       -3 0.57637860E-01 0.14692060E+04</pdfrwt>
<totfact> 0.12660962E+00</totfact>
</mgrwt>
</event>
<event>
 8    1  0.1426346E-011  0.2188257E+04  0.7818608E-02  0.8523332E-01
         -3   -1    0    0    0  501 -0.00000000000E+00  0.00000000000E+00  0.19618207261E+04  0.19618207287E+04  0.10100000000E+00 0. -1.
          3   -1    0    0  501    0  0.00000000000E+00 -0.00000000000E+00 -0.61020705006E+03  0.61020705842E+03  0.10100000000E+00 0.  1.
     200001    2    1    2    0    0  0.59410261332E+03 -0.58180012589E+03  0.81780605752E+03  0.13610777984E+04  0.70162434672E+03 0.  0.
    5000001    2    3    3    0    0  0.94573331386E+02 -0.70534055732E+02  0.11904404369E+03  0.24340573111E+03  0.17650976622E+03 0.  0.
        -11    1    4    4    0    0  0.14012512646E+03 -0.42440979282E+02  0.59911229780E+02  0.15819495327E+03  0.51100000000E-03 0. -1.
     200002    1    4    4    0    0 -0.45551795070E+02 -0.28093076449E+02  0.59132813908E+02  0.85210777835E+02  0.30000000000E+02 0. -1.
     200000    1    3    3    0    0  0.49952928194E+03 -0.51126607016E+03  0.69876201383E+03  0.11176720673E+04  0.50000000000E+03 0.  1.
    -200001    1    1    2    0    0 -0.59410261332E+03  0.58180012589E+03  0.53380761854E+03  0.12109499888E+04  0.70000000000E+03 0.  1.
<mgrwt>
<rscale>  0 0.21882567E+04</rscale>
<asrwt>0</asrwt>
<pdfrwt beam="1">  1        3 0.87172435E-01 0.21882567E+04</pdfrwt>
<pdfrwt beam="2">  1       -3 0.28026011E+00 0.21882567E+04</pdfrwt>
<totfact> 0.14174381E-01</totfact>
</mgrwt>
</event>
<event>
 8    1  0.1426346E-011  0.1732574E+04  0.7818608E-02  0.8743001E-01
         -3   -1    0    0    0  501 -0.00000000000E+00  0.00000000000E+00  0.25235613137E+04  0.25235613157E+04  0.10100000000E+00 0. -1.
          3   -1    0    0  501    0  0.00000000000E+00 -0.00000000000E+00 -0.29737876297E+03  0.29737878012E+03  0.10100000000E+00 0.  1.
     200001    2    1    2    0    0  0.46877727494E+03  0.20110223817E+03  0.11253790925E+04  0.14202393793E+04  0.70029104586E+03 0.  0.
    5000001    2    3    3    0    0  0.10774589017E+03  0.40833343315E+02  0.45324269585E+03  0.49406600719E+03  0.15936040710E+03 0.  0.
        -11    1    4    4    0    0  0.10843617472E+03 -0.15961314538E+02  0.16046702967E+03  0.19432661980E+03  0.51100000000E-03 0. -1.
     200002    1    4    4    0    0 -0.69028454992E+00  0.56794657852E+02  0.29277566617E+03  0.29973938739E+03  0.30000000000E+02 0. -1.
     200000    1    3    3    0    0  0.36103138478E+03  0.16026889485E+03  0.67213639664E+03  0.92617337207E+03  0.50000000000E+03 0.  1.
    -200001    1    1    2    0    0 -0.46877727494E+03 -0.20110223817E+03  0.11008034582E+04  0.14007007165E+04  0.70000000000E+03 0. -1.
<mgrwt>
<rscale>  0 0.17325745E+04</rscale>
<asrwt>0</asrwt>
<pdfrwt beam="1">  1        3 0.42482683E-01 0.17325745E+04</pdfrwt>
<pdfrwt beam="2">  1       -3 0.36050875E+00 0.17325745E+04</pdfrwt>
<totfact> 0.24220176E-01</totfact>
</mgrwt>
</event>
<event>
 8    1  0.1426346E-011  0.1558862E+04  0.7818608E-02  0.8846227E-01
          3   -1    0    0  501    0  0.00000000000E+00  0.00000000000E+00  0.99751586633E+03  0.99751587144E+03  0.10100000000E+00 0.  1.
         -3   -1    0    0    0  501 -0.00000000000E+00 -0.00000000000E+00 -0.60902536317E+03  0.60902537155E+03  0.10100000000E+00 0. -1.
     200001    2    1    2    0    0  0.66212144230E+02 -0.31190041099E+03  0.62891072953E+02  0.77126829158E+03  0.69945234014E+03 0.  0.
    5000001    2    3    3    0    0  0.26865365908E+02 -0.70391410864E+02 -0.66838993605E+02  0.19968745191E+03  0.17242658953E+03 0.  0.
        -11    1    4    4    0    0  0.62120884073E+02 -0.68047581006E+02  0.26157877205E+02  0.95779497069E+02  0.51100000000E-03 0. -1.
     200002    1    4    4    0    0 -0.35255518165E+02 -0.23438298584E+01 -0.92996870810E+02  0.10390795484E+03  0.30000000000E+02 0. -1.
     200000    1    3    3    0    0  0.39346778323E+02 -0.24150900012E+03  0.12973006656E+03  0.57158083967E+03  0.50000000000E+03 0. -1.
    -200001    1    1    2    0    0 -0.66212144230E+02  0.31190041099E+03  0.32559943020E+03  0.83527295141E+03  0.70000000000E+03 0.  1.
<mgrwt>
<rscale>  0 0.15588617E+04</rscale>
<asrwt>0</asrwt>
<pdfrwt beam="1">  1        3 0.14250227E+00 0.15588617E+04</pdfrwt>
<pdfrwt beam="2">  1       -3 0.87003624E-01 0.15588617E+04</pdfrwt>
<totfact> 0.11263523E+00</totfact>
</mgrwt>
</event>
<event>
 8    1  0.1426346E-011  0.1466450E+04  0.7818608E-02  0.8907075E-01
         -3   -1    0    0    0  501 -0.00000000000E+00  0.00000000000E+00  0.97400746094E+03  0.97400746618E+03  0.10100000000E+00 0. -1.
          3   -1    0    0  501    0  0.00000000000E+00 -0.00000000000E+00 -0.55196589429E+03  0.55196590353E+03  0.10100000000E+00 0.  1.
     200001    2    1    2    0    0  0.20114861292E+02  0.16923808434E+03  0.35206263387E+03  0.80213416942E+03  0.70030349903E+03 0.  0.
    5000001    2    3    3    0    0  0.28863536513E+02  0.12634797000E+03  0.25956257338E+02  0.20358469775E+03  0.15484214090E+03 0.  0.
        -11    1    4    4    0    0  0.43677173527E+02 -0.13953172062E+02 -0.22961428644E+02  0.51279759199E+02  0.51100000000E-03 0. -1.
     200002    1    4    4    0    0 -0.14813637014E+02  0.14030114206E+03  0.48917685982E+02  0.15230493855E+03  0.30000000000E+02 0. -1.
     200000    1    3    3    0    0 -0.87486752209E+01  0.42890114346E+02  0.32610637653E+03  0.59854947168E+03  0.50000000000E+03 0. -1.
    -200001    1    1    2    0    0 -0.20114861292E+02 -0.16923808434E+03  0.69978932784E+02  0.72383920029E+03  0.70000000000E+03 0.  1.
<mgrwt>
<rscale>  0 0.14664500E+04</rscale>
<asrwt>0</asrwt>
<pdfrwt beam="1">  1        3 0.78852273E-01 0.14664500E+04</pdfrwt>
<pdfrwt beam="2">  1       -3 0.13914392E+00 0.14664500E+04</pdfrwt>
<totfact> 0.14996750E+00</totfact>
</mgrwt>
</event>
<event>
 8    1  0.1426346E-011  0.1719858E+04  0.7818608E-02  0.8750119E-01
         -3   -1    0    0    0  501 -0.00000000000E+00  0.00000000000E+00  0.10281421108E+04  0.10281421157E+04  0.10100000000E+00 0. -1.
          3   -1    0    0  501    0  0.00000000000E+00 -0.00000000000E+00 -0.71923674136E+03  0.71923674845E+03  0.10100000000E+00 0.  1.
     200001    2    1    2    0    0  0.32602566979E+03  0.33108713444E+03  0.34248481897E+03  0.90652274842E+03  0.69898227032E+03 0.  0.
    5000001    2    3    3    0    0  0.13316382607E+03 -0.14249936889E+02  0.92347664314E+02  0.22167095443E+03  0.15057973189E+03 0.  0.
        -11    1    4    4    0    0  0.78842980797E+02 -0.68408743597E+02  0.94474073282E+01  0.10481042566E+03  0.51100000000E-03 0. -1.
     200002    1    4    4    0    0  0.54320845276E+02  0.54158806708E+02  0.82900256986E+02  0.11686052877E+03  0.30000000000E+02 0. -1.
     200000    1    3    3    0    0  0.19286184372E+03  0.34533707133E+03  0.25013715466E+03  0.68485179399E+03  0.50000000000E+03 0. -1.
    -200001    1    1    2    0    0 -0.32602566979E+03 -0.33108713444E+03 -0.33579449575E+02  0.84085611575E+03  0.70000000000E+03 0.  1.
<mgrwt>
<rscale>  0 0.17198577E+04</rscale>
<asrwt>0</asrwt>
<pdfrwt beam="1">  1        3 0.10274811E+00 0.17198577E+04</pdfrwt>
<pdfrwt beam="2">  1       -3 0.14687744E+00 0.17198577E+04</pdfrwt>
<totfact> 0.69968566E-01</totfact>
</mgrwt>
</event>
<event>
 8    1  0.1426346E-011  0.1451457E+04  0.7818608E-02  0.8917391E-01
          3   -1    0    0  501    0  0.00000000000E+00  0.00000000000E+00  0.88195771599E+03  0.88195772178E+03  0.10100000000E+00 0.  1.
         -3   -1    0    0    0  501 -0.00000000000E+00 -0.00000000000E+00 -0.59717356241E+03  0.59717357095E+03  0.10100000000E+00 0. -1.
     200001    2    1    2    0    0 -0.17513167039E+03 -0.76471551784E+02  0.12102645985E+03  0.73526599412E+03  0.69960680237E+03 0.  0.
    5000001    2    3    3    0    0 -0.68030894771E+02  0.45003682353E+02 -0.98052239351E+01  0.19365382833E+03  0.17536284881E+03 0.  0.
        -11    1    4    4    0    0 -0.22201232393E+02  0.71194173637E+02 -0.74164519037E+02  0.10517547701E+03  0.51100000000E-03 0. -1.
     200002    1    4    4    0    0 -0.45829662378E+02 -0.26190491285E+02  0.64359295102E+02  0.88478351326E+02  0.30000000000E+02 0. -1.
     200000    1    3    3    0    0 -0.10710077562E+03 -0.12147523414E+03  0.13083168378E+03  0.54161216579E+03  0.50000000000E+03 0.  1.
    -200001    1    1    2    0    0  0.17513167039E+03  0.76471551784E+02  0.16375769374E+03  0.74386529860E+03  0.70000000000E+03 0. -1.
<mgrwt>
<rscale>  0 0.14514570E+04</rscale>
<asrwt>0</asrwt>
<pdfrwt beam="1">  1        3 0.12599396E+00 0.14514570E+04</pdfrwt>
<pdfrwt beam="2">  1       -3 0.85310510E-01 0.14514570E+04</pdfrwt>
<totfact> 0.16161797E+00</totfact>
</mgrwt>
</event>
<event>
 8    1  0.1426346E-011  0.1844974E+04  0.7818608E-02  0.8682742E-01
         -3   -1    0    0    0  501 -0.00000000000E+00  0.00000000000E+00  0.97210499742E+03  0.97210500266E+03  0.10100000000E+00 0.  1.
          3   -1    0    0  501    0  0.00000000000E+00 -0.00000000000E+00 -0.87540197707E+03  0.87540198290E+03  0.10100000000E+00 0. -1.
     200001    2    1    2    0    0 -0.50423982774E+03 -0.18942787494E+03 -0.21534626414E+03  0.91074902342E+03  0.70210330187E+03 0.  0.
    5000001    2    3    3    0    0 -0.53134985045E+02  0.35025247073E+02  0.54741533945E+02  0.15126090517E+03  0.12582977122E+03 0.  0.
        -11    1    4    4    0    0 -0.86107484410E+02  0.30319230682E+02  0.17429556825E+02  0.92938388581E+02  0.51100000000E-03 0. -1.
     200002    1    4    4    0    0  0.32972499365E+02  0.47060163909E+01  0.37311977120E+02  0.58322516589E+02  0.30000000000E+02 0. -1.
     200000    1    3    3    0    0 -0.45110484270E+03 -0.22445312202E+03 -0.27008779808E+03  0.75948811825E+03  0.50000000000E+03 0. -1.
    -200001    1    1    2    0    0  0.50423982774E+03  0.18942787494E+03  0.31204928448E+03  0.93675796214E+03  0.70000000000E+03 0.  1.
<mgrwt>
<rscale>  0 0.18449744E+04</rscale>
<asrwt>0</asrwt>
<pdfrwt beam="1">  1        3 0.12505743E+00 0.18449744E+04</pdfrwt>
<pdfrwt beam="2">  1       -3 0.13887214E+00 0.18449744E+04</pdfrwt>
<totfact> 0.49877843E-01</totfact>
</mgrwt>
</event>
<event>
 8    1  0.1426346E-011  0.1486552E+04  0.7818608E-02  0.8893445E-01
         -3   -1    0    0    0  501 -0.00000000000E+00  0.00000000000E+00  0.28446320853E+03  0.28446322646E+03  0.10100000000E+00 0.  1.
          3   -1    0    0  501    0  0.00000000000E+00 -0.00000000000E+00 -0.19421103015E+04  0.19421103041E+04  0.10100000000E+00 0. -1.
     200001    2    1    2    0    0 -0.17134586970E+03  0.15157296450E+03 -0.67611473645E+03  0.99948773998E+03  0.69965050911E+03 0.  0.
    5000001    2    3    3    0    0 -0.35227931147E+02  0.73898554779E+02 -0.20453969996E+03  0.29454488970E+03  0.19549475609E+03 0.  0.
        -11    1    4    4    0    0 -0.76210702787E+02  0.60382599298E+02 -0.15655144527E+02  0.98484582894E+02  0.51100000000E-03 0. -1.
     200002    1    4    4    0    0  0.40982771640E+02  0.13515955481E+02 -0.18888455543E+03  0.19606030681E+03  0.30000000000E+02 0. -1.
     200000    1    3    3    0    0 -0.13611793855E+03  0.77674409722E+02 -0.47157503649E+03  0.70494285028E+03  0.50000000000E+03 0.  1.
    -200001    1    1    2    0    0  0.17134586970E+03 -0.15157296450E+03 -0.98153235651E+03  0.12270857906E+04  0.70000000000E+03 0.  1.
<mgrwt>
<rscale>  0 0.14865516E+04</rscale>
<asrwt>0</asrwt>
<pdfrwt beam="1">  1        3 0.27744432E+00 0.14865516E+04</pdfrwt>
<pdfrwt beam="2">  1       -3 0.40637604E-01 0.14865516E+04</pdfrwt>
<totfact> 0.79473432E-01</totfact>
</mgrwt>
</event>
<event>
 8    1  0.1426346E-011  0.1503270E+04  0.7818608E-02  0.8882282E-01
          3   -1    0    0  501    0  0.00000000000E+00  0.00000000000E+00  0.60467672661E+03  0.60467673505E+03  0.10100000000E+00 0.  1.
         -3   -1    0    0    0  501 -0.00000000000E+00 -0.00000000000E+00 -0.93430894223E+03  0.93430894769E+03  0.10100000000E+00 0. -1.
     200001    2    1    2    0    0 -0.80580259552E+02 -0.21784014242E+03 -0.31291833816E+03  0.80126835234E+03  0.70011826160E+03 0.  0.
    5000001    2    3    3    0    0 -0.80266035091E+02 -0.75526415339E+02 -0.19970402301E+03  0.26922439099E+03  0.14301468489E+03 0.  0.
        -11    1    4    4    0    0 -0.92869856124E+01 -0.99375618011E+02 -0.10641331770E+03  0.14589570158E+03  0.51100000000E-03 0. -1.
     200002    1    4    4    0    0 -0.70979049478E+02  0.23849202672E+02 -0.93290705311E+02  0.12332868940E+03  0.30000000000E+02 0. -1.
     200000    1    3    3    0    0 -0.31422446129E+00 -0.14231372708E+03 -0.11321431515E+03  0.53204396135E+03  0.50000000000E+03 0. -1.
    -200001    1    1    2    0    0  0.80580259552E+02  0.21784014242E+03 -0.16713877459E+02  0.73771733041E+03  0.70000000000E+03 0.  1.
<mgrwt>
<rscale>  0 0.15032696E+04</rscale>
<asrwt>0</asrwt>
<pdfrwt beam="1">  1        3 0.86382390E-01 0.15032696E+04</pdfrwt>
<pdfrwt beam="2">  1       -3 0.13347271E+00 0.15032696E+04</pdfrwt>
<totfact> 0.13540557E+00</totfact>
</mgrwt>
</event>
<event>
 8    1  0.1426346E-011  0.1478044E+04  0.7818608E-02  0.8899186E-01
         -3   -1    0    0    0  501 -0.00000000000E+00  0.00000000000E+00  0.14734404335E+04  0.14734404369E+04  0.10100000000E+00 0.  1.
          3   -1    0    0  501    0  0.00000000000E+00 -0.00000000000E+00 -0.37066546968E+03  0.37066548344E+03  0.10100000000E+00 0. -1.
     200001    2    1    2    0    0  0.14835457713E+03 -0.15811955912E+03  0.66930051589E+03  0.99268888243E+03  0.70032646758E+03 0.  0.
    5000001    2    3    3    0    0  0.29436184604E+02 -0.11250809578E+03  0.13979163885E+03  0.25336375737E+03  0.17642825930E+03 0.  0.
        -11    1    4    4    0    0 -0.14635421132E+02 -0.12701512520E+03  0.15008511418E+03  0.19716130219E+03  0.51100000000E-03 0. -1.
     200002    1    4    4    0    0  0.44071605736E+02  0.14507029420E+02 -0.10293475331E+02  0.56202455188E+02  0.30000000000E+02 0. -1.
     200000    1    3    3    0    0  0.11891839252E+03 -0.45611463342E+02  0.52950887704E+03  0.73932512505E+03  0.50000000000E+03 0.  1.
    -200001    1    1    2    0    0 -0.14835457713E+03  0.15811955912E+03  0.43347444791E+03  0.85141703796E+03  0.70000000000E+03 0.  1.
<mgrwt>
<rscale>  0 0.14780440E+04</rscale>
<asrwt>0</asrwt>
<pdfrwt beam="1">  1        3 0.52952212E-01 0.14780440E+04</pdfrwt>
<pdfrwt beam="2">  1       -3 0.21049149E+00 0.14780440E+04</pdfrwt>
<totfact> 0.11315297E+00</totfact>
</mgrwt>
</event>
<event>
 8    1  0.1426346E-011  0.1958159E+04  0.7818608E-02  0.8626437E-01
         -3   -1    0    0    0  501 -0.00000000000E+00  0.00000000000E+00  0.10667755848E+04  0.10667755896E+04  0.10100000000E+00 0.  1.
          3   -1    0    0  501    0  0.00000000000E+00 -0.00000000000E+00 -0.89859223042E+03  0.89859223609E+03  0.10100000000E+00 0. -1.
     200001    2    1    2    0    0 -0.14796438979E+03 -0.66151462539E+03  0.17833628666E+03  0.99089456166E+03  0.70040926675E+03 0.  0.
    5000001    2    3    3    0    0  0.69140617162E+02 -0.74199456110E+02 -0.34238722075E+02  0.16188200058E+03  0.12143931733E+03 0.  0.
        -11    1    4    4    0    0  0.34396132588E+02 -0.93280330601E+02 -0.47857080012E+02  0.11033863386E+03  0.51100000000E-03 0. -1.
     200002    1    4    4    0    0  0.34744484574E+02  0.19080874491E+02  0.13618357938E+02  0.51543366718E+02  0.30000000000E+02 0. -1.
     200000    1    3    3    0    0 -0.21710500695E+03 -0.58731516928E+03  0.21257500873E+03  0.82901256109E+03  0.50000000000E+03 0. -1.
    -200001    1    1    2    0    0  0.14796438979E+03  0.66151462539E+03 -0.10152932270E+02  0.97447326401E+03  0.70000000000E+03 0.  1.
<mgrwt>
<rscale>  0 0.19581586E+04</rscale>
<asrwt>0</asrwt>
<pdfrwt beam="1">  1        3 0.12837032E+00 0.19581586E+04</pdfrwt>
<pdfrwt beam="2">  1       -3 0.15239651E+00 0.19581586E+04</pdfrwt>
<totfact> 0.36464795E-01</totfact>
</mgrwt>
</event>
<event>
 8    1  0.1426346E-011  0.1597798E+04  0.7818608E-02  0.8821902E-01
          3   -1    0    0  501    0  0.00000000000E+00  0.00000000000E+00  0.10815790473E+04  0.10815790520E+04  0.10100000000E+00 0. -1.
         -3   -1    0    0    0  501 -0.00000000000E+00 -0.00000000000E+00 -0.59009985669E+03  0.59009986534E+03  0.10100000000E+00 0.  1.
     200001    2    1    2    0    0  0.12297992024E+03  0.30154672390E+03  0.45757795748E+03  0.89888930753E+03  0.70183325124E+03 0.  0.
    5000001    2    3    3    0    0  0.88627799063E+02  0.49966226517E+02  0.14338496014E+03  0.25609069640E+03  0.18620334967E+03 0.  0.
        -11    1    4    4    0    0  0.11802946972E+03 -0.82634771003E+01  0.30297776207E+02  0.12213597349E+03  0.51100000000E-03 0. -1.
     200002    1    4    4    0    0 -0.29401670657E+02  0.58229703617E+02  0.11308718393E+03  0.13395472291E+03  0.30000000000E+02 0. -1.
     200000    1    3    3    0    0  0.34352121178E+02  0.25158049738E+03  0.31419299734E+03  0.64279861113E+03  0.50000000000E+03 0. -1.
    -200001    1    1    2    0    0 -0.12297992024E+03 -0.30154672390E+03  0.33901233147E+02  0.77278960985E+03  0.70000000000E+03 0. -1.
<mgrwt>
<rscale>  0 0.15977980E+04</rscale>
<asrwt>0</asrwt>
<pdfrwt beam="1">  1        3 0.15451129E+00 0.15977980E+04</pdfrwt>
<pdfrwt beam="2">  1       -3 0.84299980E-01 0.15977980E+04</pdfrwt>
<totfact> 0.97862263E-01</totfact>
</mgrwt>
</event>
<event>
 8    1  0.1426346E-011  0.1532664E+04  0.7818608E-02  0.8863017E-01
          3   -1    0    0  501    0  0.00000000000E+00  0.00000000000E+00  0.39698446232E+03  0.39698447517E+03  0.10100000000E+00 0. -1.
         -3   -1    0    0    0  501 -0.00000000000E+00 -0.00000000000E+00 -0.14793146377E+04  0.14793146411E+04  0.10100000000E+00 0.  1.
     200001    2    1    2    0    0  0.68179805622E+02  0.29733560271E+03 -0.46254509867E+03  0.89284068413E+03  0.70011397100E+03 0.  0.
    5000001    2    3    3    0    0  0.48429826498E+02  0.87635772631E+02 -0.44702528868E+02  0.20803670228E+03  0.17679218498E+03 0.  0.
        -11    1    4    4    0    0  0.10761372097E+03  0.59092742181E+02 -0.55977559192E+02  0.13493017548E+03  0.51100000000E-03 0. -1.
     200002    1    4    4    0    0 -0.59183894476E+02  0.28543030450E+02  0.11275030324E+02  0.73106526805E+02  0.30000000000E+02 0. -1.
     200000    1    3    3    0    0  0.19749979124E+02  0.20969983007E+03 -0.41784256981E+03  0.68480398185E+03  0.50000000000E+03 0. -1.
    -200001    1    1    2    0    0 -0.68179805622E+02 -0.29733560271E+03 -0.61978507670E+03  0.98345843218E+03  0.70000000000E+03 0.  1.
<mgrwt>
<rscale>  0 0.15326643E+04</rscale>
<asrwt>0</asrwt>
<pdfrwt beam="1">  1        3 0.56712068E-01 0.15326643E+04</pdfrwt>
<pdfrwt beam="2">  1       -3 0.21133066E+00 0.15326643E+04</pdfrwt>
<totfact> 0.96547814E-01</totfact>
</mgrwt>
</event>
<event>
 8    1  0.1426346E-011  0.1713837E+04  0.7818608E-02  0.8753512E-01
         -3   -1    0    0    0  501 -0.00000000000E+00  0.00000000000E+00  0.51010565719E+03  0.51010566718E+03  0.10100000000E+00 0. -1.
          3   -1    0    0  501    0  0.00000000000E+00 -0.00000000000E+00 -0.14395232389E+04  0.14395232424E+04  0.10100000000E+00 0.  1.
     200001    2    1    2    0    0 -0.28010298919E+03 -0.35956903238E+03 -0.24098590153E+03  0.86718456838E+03  0.69727132259E+03 0.  0.
    5000001    2    3    3    0    0 -0.21000253087E+02 -0.59942015139E+02 -0.37133456507E+02  0.19750823114E+03  0.18329362228E+03 0.  0.
        -11    1    4    4    0    0 -0.22555783322E+02  0.49859736527E+02  0.32900982383E+02  0.63853201407E+02  0.51100000000E-03 0. -1.
     200002    1    4    4    0    0  0.15555302356E+01 -0.10980175167E+03 -0.70034438891E+02  0.13365502974E+03  0.30000000000E+02 0. -1.
     200000    1    3    3    0    0 -0.25910273611E+03 -0.29962701724E+03 -0.20385244503E+03  0.66967633724E+03  0.50000000000E+03 0. -1.
    -200001    1    1    2    0    0  0.28010298919E+03  0.35956903238E+03 -0.68843168016E+03  0.10824443412E+04  0.70000000000E+03 0.  1.
<mgrwt>
<rscale>  0 0.17138366E+04</rscale>
<asrwt>0</asrwt>
<pdfrwt beam="1">  1        3 0.20564618E+00 0.17138366E+04</pdfrwt>
<pdfrwt beam="2">  1       -3 0.72872238E-01 0.17138366E+04</pdfrwt>
<totfact> 0.60756052E-01</totfact>
</mgrwt>
</event>
<event>
 8    1  0.1426346E-011  0.2234294E+04  0.7818608E-02  0.8504288E-01
         -3   -1    0    0    0  501 -0.00000000000E+00  0.00000000000E+00  0.17911916296E+04  0.17911916325E+04  0.10100000000E+00 0. -1.
          3   -1    0    0  501    0  0.00000000000E+00 -0.00000000000E+00 -0.69675276005E+03  0.69675276737E+03  0.10100000000E+00 0.  1.
     200001    2    1    2    0    0 -0.79241591471E+03  0.30961279839E+03  0.34281327053E+03  0.11542562399E+04  0.70071639209E+03 0.  0.
    5000001    2    3    3    0    0 -0.39009634289E+03  0.13623864110E+03  0.13263437982E+03  0.45705124684E+03  0.14341492063E+03 0.  0.
        -11    1    4    4    0    0 -0.76779525404E+02  0.41220888871E+02  0.90410153795E+02  0.12557170505E+03  0.51100000000E-03 0. -1.
     200002    1    4    4    0    0 -0.31331681748E+03  0.95017752233E+02  0.42224226025E+02  0.33147954178E+03  0.30000000000E+02 0. -1.
     200000    1    3    3    0    0 -0.40231957182E+03  0.17337415728E+03  0.21017889071E+03  0.69720499308E+03  0.50000000000E+03 0.  1.
    -200001    1    1    2    0    0  0.79241591471E+03 -0.30961279839E+03  0.75162559905E+03  0.13336881599E+04  0.70000000000E+03 0. -1.
<mgrwt>
<rscale>  0 0.22342943E+04</rscale>
<asrwt>0</asrwt>
<pdfrwt beam="1">  1        3 0.99536109E-01 0.22342943E+04</pdfrwt>
<pdfrwt beam="2">  1       -3 0.25588452E+00 0.22342943E+04</pdfrwt>
<totfact> 0.14338317E-01</totfact>
</mgrwt>
</event>
<event>
 8    1  0.1426346E-011  0.2215674E+04  0.7818608E-02  0.8511932E-01
         -3   -1    0    0    0  501 -0.00000000000E+00  0.00000000000E+00  0.78499710968E+03  0.78499711618E+03  0.10100000000E+00 0. -1.
          3   -1    0    0  501    0  0.00000000000E+00 -0.00000000000E+00 -0.15634490537E+04  0.15634490570E+04  0.10100000000E+00 0.  1.
     200001    2    1    2    0    0 -0.11405942237E+03 -0.75701143918E+03 -0.80157540275E+03  0.13108477127E+04  0.69980192101E+03 0.  0.
    5000001    2    3    3    0    0  0.30435014656E+00 -0.89702230853E+02 -0.20308262519E+03  0.27809689240E+03  0.16747759868E+03 0.  0.
        -11    1    4    4    0    0 -0.68578881941E+02 -0.68842230314E+02 -0.16460144713E+03  0.19114379959E+03  0.51100000000E-03 0. -1.
     200002    1    4    4    0    0  0.68883232088E+02 -0.20860000539E+02 -0.38481178064E+02  0.86953092817E+02  0.30000000000E+02 0. -1.
     200000    1    3    3    0    0 -0.11436377252E+03 -0.66730920833E+03 -0.59849277756E+03  0.10327508203E+04  0.50000000000E+03 0.  1.
    -200001    1    1    2    0    0  0.11405942237E+03  0.75701143918E+03  0.23123458703E+02  0.10375984605E+04  0.70000000000E+03 0. -1.
<mgrwt>
<rscale>  0 0.22156742E+04</rscale>
<asrwt>0</asrwt>
<pdfrwt beam="1">  1        3 0.22334987E+00 0.22156742E+04</pdfrwt>
<pdfrwt beam="2">  1       -3 0.11214244E+00 0.22156742E+04</pdfrwt>
<totfact> 0.16935335E-01</totfact>
</mgrwt>
</event>
<event>
 8    1  0.1426346E-011  0.1469209E+04  0.7818608E-02  0.8905191E-01
         -3   -1    0    0    0  501 -0.00000000000E+00  0.00000000000E+00  0.19674340606E+04  0.19674340632E+04  0.10100000000E+00 0.  1.
          3   -1    0    0  501    0  0.00000000000E+00 -0.00000000000E+00 -0.27428813452E+03  0.27428815312E+03  0.10100000000E+00 0. -1.
     200001    2    1    2    0    0  0.13622171929E+03  0.47579169758E+02  0.11063826355E+04  0.13169999372E+04  0.69970434070E+03 0.  0.
    5000001    2    3    3    0    0  0.11717093891E+02  0.37976197684E+02  0.32572168731E+03  0.38157215552E+03  0.19473882613E+03 0.  0.
        -11    1    4    4    0    0  0.76530590248E+02 -0.43206311348E+02  0.11508871610E+03  0.14480721376E+03  0.51100000000E-03 0. -1.
     200002    1    4    4    0    0 -0.64813496357E+02  0.81182509032E+02  0.21063297121E+03  0.23676494175E+03  0.30000000000E+02 0. -1.
     200000    1    3    3    0    0  0.12450462540E+03  0.96029720736E+01  0.78066094817E+03  0.93542778172E+03  0.50000000000E+03 0. -1.
    -200001    1    1    2    0    0 -0.13622171929E+03 -0.47579169758E+02  0.58676329057E+03  0.92472227905E+03  0.70000000000E+03 0. -1.
<mgrwt>
<rscale>  0 0.14692091E+04</rscale>
<asrwt>0</asrwt>
<pdfrwt beam="1">  1        3 0.39184021E-01 0.14692091E+04</pdfrwt>
<pdfrwt beam="2">  1       -3 0.28106201E+00 0.14692091E+04</pdfrwt>
<totfact> 0.80447673E-01</totfact>
</mgrwt>
</event>
<event>
 8    1  0.1426346E-011  0.1740412E+04  0.7818608E-02  0.8738646E-01
          3   -1    0    0  501    0  0.00000000000E+00  0.00000000000E+00  0.34192716498E+03  0.34192717989E+03  0.10100000000E+00 0. -1.
         -3   -1    0    0    0  501 -0.00000000000E+00 -0.00000000000E+00 -0.22146773256E+04  0.22146773279E+04  0.10100000000E+00 0.  1.
     200001    2    1    2    0    0  0.83609469160E+02 -0.22406689368E+03 -0.16078036216E+04  0.17708607934E+04  0.70265137009E+03 0.  0.
    5000001    2    3    3    0    0  0.28779634035E+02 -0.11428830288E+03 -0.45163294111E+03  0.50524304219E+03  0.19341182662E+03 0.  0.
        -11    1    4    4    0    0  0.35125872296E+02 -0.15253725885E+03 -0.41646698632E+03  0.44491144392E+03  0.51100000000E-03 0. -1.
     200002    1    4    4    0    0 -0.63462382614E+01  0.38248955968E+02 -0.35165954791E+02  0.60331598264E+02  0.30000000000E+02 0. -1.
     200000    1    3    3    0    0  0.54829835126E+02 -0.10977859080E+03 -0.11561706805E+04  0.12656177512E+04  0.50000000000E+03 0.  1.
    -200001    1    1    2    0    0 -0.83609469160E+02  0.22406689368E+03 -0.26494653907E+03  0.78574371442E+03  0.70000000000E+03 0. -1.
<mgrwt>
<rscale>  0 0.17404119E+04</rscale>
<asrwt>0</asrwt>
<pdfrwt beam="1">  1        3 0.48846740E-01 0.17404119E+04</pdfrwt>
<pdfrwt beam="2">  1       -3 0.31638247E+00 0.17404119E+04</pdfrwt>
<totfact> 0.32071429E-01</totfact>
</mgrwt>
</event>
<event>
 8    1  0.1426346E-011  0.1703444E+04  0.7818608E-02  0.8759403E-01
         -3   -1    0    0    0  501 -0.00000000000E+00  0.00000000000E+00  0.98390939545E+03  0.98390940063E+03  0.10100000000E+00 0.  1.
          3   -1    0    0  501    0  0.00000000000E+00 -0.00000000000E+00 -0.73729345568E+03  0.73729346259E+03  0.10100000000E+00 0. -1.
     200001    2    1    2    0    0 -0.41200077270E+03  0.16952776945E+01 -0.13550240822E+03  0.82356042743E+03  0.70010239560E+03 0.  0.
    5000001    2    3    3    0    0 -0.52215394988E+02 -0.59234359125E+02  0.91950564210E+02  0.16409640769E+03  0.11062354173E+03 0.  0.
        -11    1    4    4    0    0 -0.47230964646E+02 -0.72640851424E+02  0.26360750826E+02  0.90566806841E+02  0.51100000000E-03 0. -1.
     200002    1    4    4    0    0 -0.49844303426E+01  0.13406492299E+02  0.65589813384E+02  0.73529600852E+02  0.30000000000E+02 0. -1.
     200000    1    3    3    0    0 -0.35978537771E+03  0.60929636820E+02 -0.22745297243E+03  0.65946401974E+03  0.50000000000E+03 0. -1.
    -200001    1    1    2    0    0  0.41200077270E+03 -0.16952776945E+01  0.38211834799E+03  0.89764243580E+03  0.70000000000E+03 0.  1.
<mgrwt>
<rscale>  0 0.17034435E+04</rscale>
<asrwt>0</asrwt>
<pdfrwt beam="1">  1        3 0.10532764E+00 0.17034435E+04</pdfrwt>
<pdfrwt beam="2">  1       -3 0.14055849E+00 0.17034435E+04</pdfrwt>
<totfact> 0.73972232E-01</totfact>
</mgrwt>
</event>
<event>
 8    1  0.1426346E-011  0.1621789E+04  0.7818608E-02  0.8807273E-01
          3   -1    0    0  501    0  0.00000000000E+00  0.00000000000E+00  0.53333057101E+04  0.53333057111E+04  0.10100000000E+00 0.  1.
         -3   -1    0    0    0  501 -0.00000000000E+00 -0.00000000000E+00 -0.12329116976E+03  0.12329121113E+03  0.10100000000E+00 0. -1.
     200001    2    1    2    0    0  0.33891471609E+03 -0.11749063319E+03  0.19423993032E+04  0.20956481615E+04  0.70011351237E+03 0.  0.
    5000001    2    3    3    0    0  0.39296003645E+02  0.52740059071E+02  0.37993767749E+03  0.41933190461E+03  0.16480569684E+03 0.  0.
        -11    1    4    4    0    0 -0.52576355261E+02 -0.16470356112E+02  0.84488290073E+02  0.10086534054E+03  0.51100000000E-03 0. -1.
     200002    1    4    4    0    0  0.91872358906E+02  0.69210415184E+02  0.29544938742E+03  0.31846656407E+03  0.30000000000E+02 0. -1.
     200000    1    3    3    0    0  0.29961871244E+03 -0.17023069226E+03  0.15624616257E+04  0.16763162569E+04  0.50000000000E+03 0.  1.
    -200001    1    1    2    0    0 -0.33891471609E+03  0.11749063319E+03  0.32676152372E+04  0.33609487607E+04  0.70000000000E+03 0. -1.
<mgrwt>
<rscale>  0 0.16217887E+04</rscale>
<asrwt>0</asrwt>
<pdfrwt beam="1">  1        3 0.76190071E+00 0.16217887E+04</pdfrwt>
<pdfrwt beam="2">  1       -3 0.17613030E-01 0.16217887E+04</pdfrwt>
<totfact> 0.97901768E-03</totfact>
</mgrwt>
</event>
<event>
 8    1  0.1426346E-011  0.1432711E+04  0.7818608E-02  0.8930475E-01
          3   -1    0    0  501    0  0.00000000000E+00  0.00000000000E+00  0.58563582501E+03  0.58563583372E+03  0.10100000000E+00 0. -1.
         -3   -1    0    0    0  501 -0.00000000000E+00 -0.00000000000E+00 -0.87625265182E+03  0.87625265764E+03  0.10100000000E+00 0.  1.
     200001    2    1    2    0    0 -0.13473346577E+03 -0.53497814139E+02 -0.20692345952E+03  0.74215263520E+03  0.69782382656E+03 0.  0.
    5000001    2    3    3    0    0 -0.44403948830E+02 -0.11950345707E+03 -0.64253440201E+02  0.21029654475E+03  0.15441290501E+03 0.  0.
        -11    1    4    4    0    0  0.12984683932E+02  0.31528935964E+02 -0.22143608139E+02  0.40657289648E+02  0.51100000000E-03 0. -1.
     200002    1    4    4    0    0 -0.57388632762E+02 -0.15103239304E+03 -0.42109832062E+02  0.16963925511E+03  0.30000000000E+02 0. -1.
     200000    1    3    3    0    0 -0.90329516939E+02  0.66005642935E+02 -0.14267001932E+03  0.53185609044E+03  0.50000000000E+03 0.  1.
    -200001    1    1    2    0    0  0.13473346577E+03  0.53497814139E+02 -0.83693367292E+02  0.71973585616E+03  0.70000000000E+03 0. -1.
<mgrwt>
<rscale>  0 0.14327107E+04</rscale>
<asrwt>0</asrwt>
<pdfrwt beam="1">  1        3 0.83662262E-01 0.14327107E+04</pdfrwt>
<pdfrwt beam="2">  1       -3 0.12517895E+00 0.14327107E+04</pdfrwt>
<totfact> 0.17157891E+00</totfact>
</mgrwt>
</event>
<event>
 8    1  0.1426346E-011  0.1578536E+04  0.7818608E-02  0.8833844E-01
          3   -1    0    0  501    0  0.00000000000E+00  0.00000000000E+00  0.11906984014E+04  0.11906984057E+04  0.10100000000E+00 0.  1.
         -3   -1    0    0    0  501 -0.00000000000E+00 -0.00000000000E+00 -0.52317494616E+03  0.52317495591E+03  0.10100000000E+00 0. -1.
     200001    2    1    2    0    0 -0.25067620364E+03 -0.14718559113E+03  0.57380685704E+03  0.95014241549E+03  0.69929546203E+03 0.  0.
    5000001    2    3    3    0    0 -0.60469145790E+02 -0.15321977872E+03  0.21675681430E+03  0.30694736786E+03  0.14177570986E+03 0.  0.
        -11    1    4    4    0    0 -0.81979004964E+02 -0.45885060621E+02  0.14463100675E+03  0.17246484904E+03  0.51100000000E-03 0. -1.
     200002    1    4    4    0    0  0.21509859174E+02 -0.10733471810E+03  0.72125807554E+02  0.13448251881E+03  0.30000000000E+02 0. -1.
     200000    1    3    3    0    0 -0.19020705785E+03  0.60341875894E+01  0.35705004274E+03  0.64319504763E+03  0.50000000000E+03 0.  1.
    -200001    1    1    2    0    0  0.25067620364E+03  0.14718559113E+03  0.93716598228E+02  0.76373094614E+03  0.70000000000E+03 0. -1.
<mgrwt>
<rscale>  0 0.15785355E+04</rscale>
<asrwt>0</asrwt>
<pdfrwt beam="1">  1        3 0.17009977E+00 0.15785355E+04</pdfrwt>
<pdfrwt beam="2">  1       -3 0.74739279E-01 0.15785355E+04</pdfrwt>
<totfact> 0.99190543E-01</totfact>
</mgrwt>
</event>
<event>
 8    1  0.1426346E-011  0.2022942E+04  0.7818608E-02  0.8595969E-01
         -3   -1    0    0    0  501 -0.00000000000E+00  0.00000000000E+00  0.90700725120E+03  0.90700725682E+03  0.10100000000E+00 0. -1.
          3   -1    0    0  501    0  0.00000000000E+00 -0.00000000000E+00 -0.11279665903E+04  0.11279665949E+04  0.10100000000E+00 0.  1.
     200001    2    1    2    0    0 -0.42570967087E+03  0.24805582060E+03  0.43202612978E+03  0.95833536239E+03  0.69928511781E+03 0.  0.
    5000001    2    3    3    0    0 -0.15381009051E+03  0.51487083864E+02  0.14284399299E+03  0.29035710054E+03  0.19389269134E+03 0.  0.
        -11    1    4    4    0    0  0.92453502085E+01  0.77137464180E+02  0.14269512823E+02  0.78989137715E+02  0.51100000000E-03 0. -1.
     200002    1    4    4    0    0 -0.16305544072E+03 -0.25650380316E+02  0.12857448017E+03  0.21136796283E+03  0.30000000000E+02 0. -1.
     200000    1    3    3    0    0 -0.27189958036E+03  0.19656873674E+03  0.28918213678E+03  0.66797826185E+03  0.50000000000E+03 0. -1.
    -200001    1    1    2    0    0  0.42570967087E+03 -0.24805582060E+03 -0.65298546892E+03  0.10766384893E+04  0.70000000000E+03 0.  1.
<mgrwt>
<rscale>  0 0.20229423E+04</rscale>
<asrwt>0</asrwt>
<pdfrwt beam="1">  1        3 0.16113808E+00 0.20229423E+04</pdfrwt>
<pdfrwt beam="2">  1       -3 0.12957247E+00 0.20229423E+04</pdfrwt>
<totfact> 0.30633460E-01</totfact>
</mgrwt>
</event>
<event>
 8    1  0.1426346E-011  0.2024300E+04  0.7818608E-02  0.8595343E-01
          3   -1    0    0  501    0  0.00000000000E+00  0.00000000000E+00  0.89199345010E+03  0.89199345582E+03  0.10100000000E+00 0.  1.
         -3   -1    0    0    0  501 -0.00000000000E+00 -0.00000000000E+00 -0.11484927431E+04  0.11484927475E+04  0.10100000000E+00 0. -1.
     200001    2    1    2    0    0  0.33516062166E+02  0.28183132451E+03  0.55097544480E+03  0.93478838112E+03  0.69978793560E+03 0.  0.
    5000001    2    3    3    0    0  0.70821401171E+02 -0.12534899894E+02  0.84655044705E+02  0.18947108096E+03  0.15349273385E+03 0.  0.
        -11    1    4    4    0    0  0.58368870836E+02  0.28170910634E+02 -0.23894435299E+02  0.69075823029E+02  0.51100000000E-03 0. -1.
     200002    1    4    4    0    0  0.12452530335E+02 -0.40705810528E+02  0.10854948000E+03  0.12039525793E+03  0.30000000000E+02 0. -1.
     200000    1    3    3    0    0 -0.37305339004E+02  0.29436622440E+03  0.46632040009E+03  0.74531730017E+03  0.50000000000E+03 0.  1.
    -200001    1    1    2    0    0 -0.33516062166E+02 -0.28183132451E+03 -0.80747473778E+03  0.11056978222E+04  0.70000000000E+03 0. -1.
<mgrwt>
<rscale>  0 0.20243004E+04</rscale>
<asrwt>0</asrwt>
<pdfrwt beam="1">  1        3 0.12742764E+00 0.20243004E+04</pdfrwt>
<pdfrwt beam="2">  1       -3 0.16407039E+00 0.20243004E+04</pdfrwt>
<totfact> 0.30375656E-01</totfact>
</mgrwt>
</event>
<event>
 8    1  0.1426346E-011  0.2076043E+04  0.7818608E-02  0.8571871E-01
         -3   -1    0    0    0  501 -0.00000000000E+00  0.00000000000E+00  0.60622352309E+03  0.60622353151E+03  0.10100000000E+00 0. -1.
          3   -1    0    0  501    0  0.00000000000E+00 -0.00000000000E+00 -0.17773790327E+04  0.17773790356E+04  0.10100000000E+00 0.  1.
     200001    2    1    2    0    0 -0.42506427273E+03  0.41300825873E+03 -0.27968929875E+02  0.91795219478E+03  0.70042737891E+03 0.  0.
    5000001    2    3    3    0    0 -0.11163526319E+03  0.14780873275E+03 -0.11201951492E+03  0.26554662042E+03  0.15380761500E+03 0.  0.
        -11    1    4    4    0    0 -0.26625915317E+01  0.10581733738E+02 -0.85030909916E+02  0.85728164124E+02  0.51100000000E-03 0. -1.
     200002    1    4    4    0    0 -0.10897267166E+03  0.13722699901E+03 -0.26988605003E+02  0.17981845630E+03  0.30000000000E+02 0. -1.
     200000    1    3    3    0    0 -0.31342900954E+03  0.26519952598E+03  0.84050585044E+02  0.65240557435E+03  0.50000000000E+03 0. -1.
    -200001    1    1    2    0    0  0.42506427273E+03 -0.41300825873E+03 -0.11431865797E+04  0.14656503723E+04  0.70000000000E+03 0.  1.
<mgrwt>
<rscale>  0 0.20760433E+04</rscale>
<asrwt>0</asrwt>
<pdfrwt beam="1">  1        3 0.25391129E+00 0.20760433E+04</pdfrwt>
<pdfrwt beam="2">  1       -3 0.86603362E-01 0.20760433E+04</pdfrwt>
<totfact> 0.20747137E-01</totfact>
</mgrwt>
</event>
<event>
 8    1  0.1426346E-011  0.3375780E+04  0.7818608E-02  0.8143876E-01
         -3   -1    0    0    0  501 -0.00000000000E+00  0.00000000000E+00  0.13055403861E+04  0.13055403900E+04  0.10100000000E+00 0. -1.
          3   -1    0    0  501    0  0.00000000000E+00 -0.00000000000E+00 -0.21822171980E+04  0.21822172004E+04  0.10100000000E+00 0.  1.
     200001    2    1    2    0    0  0.40737412166E+03 -0.14757231669E+04 -0.56636513511E+03  0.17760315968E+04  0.69986157660E+03 0.  0.
    5000001    2    3    3    0    0  0.15662707014E+03 -0.47013286430E+03 -0.12594589741E+03  0.54393783196E+03  0.18560454404E+03 0.  0.
        -11    1    4    4    0    0  0.16800411305E+03 -0.34286226635E+03 -0.15051056578E+03  0.41040631830E+03  0.51100000000E-03 0. -1.
     200002    1    4    4    0    0 -0.11377042911E+02 -0.12727059795E+03  0.24564668375E+02  0.13353151366E+03  0.30000000000E+02 0. -1.
     200000    1    3    3    0    0  0.25074705151E+03 -0.10055903026E+04 -0.44041923770E+03  0.12320937649E+04  0.50000000000E+03 0. -1.
    -200001    1    1    2    0    0 -0.40737412166E+03  0.14757231669E+04 -0.31031167681E+03  0.17117259935E+04  0.70000000000E+03 0.  1.
<mgrwt>
<rscale>  0 0.33757800E+04</rscale>
<asrwt>0</asrwt>
<pdfrwt beam="1">  1        3 0.31174531E+00 0.33757800E+04</pdfrwt>
<pdfrwt beam="2">  1       -3 0.18650577E+00 0.33757800E+04</pdfrwt>
<totfact> 0.12964232E-02</totfact>
</mgrwt>
</event>
<event>
 8    1  0.1426346E-011  0.1641402E+04  0.7818608E-02  0.8795509E-01
         -3   -1    0    0    0  501 -0.00000000000E+00  0.00000000000E+00  0.90685067225E+03  0.90685067787E+03  0.10100000000E+00 0. -1.
          3   -1    0    0  501    0  0.00000000000E+00 -0.00000000000E+00 -0.74273511272E+03  0.74273511958E+03  0.10100000000E+00 0.  1.
     200001    2    1    2    0    0  0.19712076207E+03 -0.36894215887E+03  0.17381594200E+03  0.83406816500E+03  0.70034477991E+03 0.  0.
    5000001    2    3    3    0    0  0.16482836377E+02 -0.86910429097E+02  0.11319312356E+03  0.22921522179E+03  0.17861082861E+03 0.  0.
        -11    1    4    4    0    0 -0.51813929882E+02 -0.48427171637E+02  0.12572389424E+03  0.14434809270E+03  0.51100000000E-03 0. -1.
     200002    1    4    4    0    0  0.68296766259E+02 -0.38483257460E+02 -0.12530770677E+02  0.84867129090E+02  0.30000000000E+02 0. -1.
     200000    1    3    3    0    0  0.18063792569E+03 -0.28203172977E+03  0.60622818436E+02  0.60485294321E+03  0.50000000000E+03 0. -1.
    -200001    1    1    2    0    0 -0.19712076207E+03  0.36894215887E+03 -0.97003824691E+01  0.81551763246E+03  0.70000000000E+03 0. -1.
<mgrwt>
<rscale>  0 0.16414017E+04</rscale>
<asrwt>0</asrwt>
<pdfrwt beam="1">  1        3 0.10610502E+00 0.16414017E+04</pdfrwt>
<pdfrwt beam="2">  1       -3 0.12955010E+00 0.16414017E+04</pdfrwt>
<totfact> 0.89685349E-01</totfact>
</mgrwt>
</event>
<event>
 8    1  0.1426346E-011  0.1470950E+04  0.7818608E-02  0.8904004E-01
          3   -1    0    0  501    0  0.00000000000E+00  0.00000000000E+00  0.42158879024E+03  0.42158880234E+03  0.10100000000E+00 0.  1.
         -3   -1    0    0    0  501 -0.00000000000E+00 -0.00000000000E+00 -0.12830586299E+04  0.12830586339E+04  0.10100000000E+00 0. -1.
     200001    2    1    2    0    0 -0.43397961776E+02  0.21932227267E+03 -0.46785262152E+03  0.87102872435E+03  0.69987093153E+03 0.  0.
    5000001    2    3    3    0    0 -0.31459041483E+02  0.77339913530E+01 -0.21516343719E+03  0.27205964127E+03  0.16331459761E+03 0.  0.
        -11    1    4    4    0    0  0.22483008026E+02 -0.27165363524E+02 -0.19525198927E+03  0.19841063969E+03  0.51100000000E-03 0. -1.
     200002    1    4    4    0    0 -0.53942049509E+02  0.34899354877E+02 -0.19911447917E+02  0.73649001584E+02  0.30000000000E+02 0. -1.
     200000    1    3    3    0    0 -0.11938920293E+02  0.21158828132E+03 -0.25268918433E+03  0.59896908308E+03  0.50000000000E+03 0. -1.
    -200001    1    1    2    0    0  0.43397961776E+02 -0.21932227267E+03 -0.39361721816E+03  0.83361871189E+03  0.70000000000E+03 0.  1.
<mgrwt>
<rscale>  0 0.14709496E+04</rscale>
<asrwt>0</asrwt>
<pdfrwt beam="1">  1        3 0.60226972E-01 0.14709496E+04</pdfrwt>
<pdfrwt beam="2">  1       -3 0.18329409E+00 0.14709496E+04</pdfrwt>
<totfact> 0.12906767E+00</totfact>
</mgrwt>
</event>
<event>
 8    1  0.1426346E-011  0.1788045E+04  0.7818608E-02  0.8712683E-01
         -3   -1    0    0    0  501 -0.00000000000E+00  0.00000000000E+00  0.52596500535E+03  0.52596501504E+03  0.10100000000E+00 0.  1.
          3   -1    0    0  501    0  0.00000000000E+00 -0.00000000000E+00 -0.15196373681E+04  0.15196373714E+04  0.10100000000E+00 0. -1.
     200001    2    1    2    0    0  0.33477481966E+03 -0.22231297032E+03 -0.62388503105E+02  0.81321167576E+03  0.70421848003E+03 0.  0.
    5000001    2    3    3    0    0 -0.10753253468E+02 -0.46761686859E+02 -0.18756373629E+02  0.17908892331E+03  0.17151895838E+03 0.  0.
        -11    1    4    4    0    0 -0.66690427547E+02 -0.59207412252E+02 -0.55164961268E+02  0.10486326213E+03  0.51100000000E-03 0. -1.
     200002    1    4    4    0    0  0.55937174079E+02  0.12445725393E+02  0.36408587640E+02  0.74225661185E+02  0.30000000000E+02 0. -1.
     200000    1    3    3    0    0  0.34552807313E+03 -0.17555128346E+03 -0.43632129476E+02  0.63412275244E+03  0.50000000000E+03 0.  1.
    -200001    1    1    2    0    0 -0.33477481966E+03  0.22231297032E+03 -0.93128385960E+03  0.12323907107E+04  0.70000000000E+03 0. -1.
<mgrwt>
<rscale>  0 0.17880448E+04</rscale>
<asrwt>0</asrwt>
<pdfrwt beam="1">  1        3 0.21709105E+00 0.17880448E+04</pdfrwt>
<pdfrwt beam="2">  1       -3 0.75137860E-01 0.17880448E+04</pdfrwt>
<totfact> 0.48032180E-01</totfact>
</mgrwt>
</event>
<event>
 8    1  0.1426346E-011  0.1607144E+04  0.7818608E-02  0.8816171E-01
          3   -1    0    0  501    0  0.00000000000E+00  0.00000000000E+00  0.62793323850E+03  0.62793324662E+03  0.10100000000E+00 0.  1.
         -3   -1    0    0    0  501 -0.00000000000E+00 -0.00000000000E+00 -0.10283384570E+04  0.10283384620E+04  0.10100000000E+00 0. -1.
     200001    2    1    2    0    0  0.63492899705E+02  0.89069349050E+02  0.18701617551E+03  0.73593014624E+03  0.70331602640E+03 0.  0.
    5000001    2    3    3    0    0 -0.77834123098E+01  0.63405101671E+02  0.13249983031E+03  0.22729373568E+03  0.17327852961E+03 0.  0.
        -11    1    4    4    0    0  0.21216577427E+01 -0.53814128250E+02  0.99038370384E+01  0.54758997610E+02  0.51100000000E-03 0. -1.
     200002    1    4    4    0    0 -0.99050700525E+01  0.11721922992E+03  0.12259599327E+03  0.17253473807E+03  0.30000000000E+02 0. -1.
     200000    1    3    3    0    0  0.71276312015E+02  0.25664247379E+02  0.54516345199E+02  0.50863641055E+03  0.50000000000E+03 0.  1.
    -200001    1    1    2    0    0 -0.63492899705E+02 -0.89069349050E+02 -0.58742139405E+03  0.92034156238E+03  0.70000000000E+03 0. -1.
<mgrwt>
<rscale>  0 0.16071439E+04</rscale>
<asrwt>0</asrwt>
<pdfrwt beam="1">  1        3 0.89704750E-01 0.16071439E+04</pdfrwt>
<pdfrwt beam="2">  1       -3 0.14690549E+00 0.16071439E+04</pdfrwt>
<totfact> 0.96598956E-01</totfact>
</mgrwt>
</event>
<event>
 8    1  0.1426346E-011  0.2522499E+04  0.7818608E-02  0.8395014E-01
         -3   -1    0    0    0  501 -0.00000000000E+00  0.00000000000E+00  0.27235453793E+04  0.27235453811E+04  0.10100000000E+00 0. -1.
          3   -1    0    0  501    0  0.00000000000E+00 -0.00000000000E+00 -0.58407337755E+03  0.58407338628E+03  0.10100000000E+00 0.  1.
     200001    2    1    2    0    0 -0.72393213119E+02 -0.10467401589E+04  0.10407811510E+04  0.16348882682E+04  0.69909120140E+03 0.  0.
    5000001    2    3    3    0    0 -0.53805457850E+02 -0.30219270530E+03  0.30638926247E+03  0.47556611232E+03  0.19512377765E+03 0.  0.
        -11    1    4    4    0    0  0.22744237344E+02 -0.26229114892E+03  0.27024749342E+03  0.37728988170E+03  0.51100000000E-03 0. -1.
     200002    1    4    4    0    0 -0.76549695194E+02 -0.39901556376E+02  0.36141769051E+02  0.98276230624E+02  0.30000000000E+02 0.  1.
     200000    1    3    3    0    0 -0.18587755269E+02 -0.74454745355E+03  0.73439188853E+03  0.11593221559E+04  0.50000000000E+03 0. -1.
    -200001    1    1    2    0    0  0.72393213119E+02  0.10467401589E+04  0.10986908507E+04  0.16727304992E+04  0.70000000000E+03 0.  1.
<mgrwt>
<rscale>  0 0.25224991E+04</rscale>
<asrwt>0</asrwt>
<pdfrwt beam="1">  1        3 0.83439053E-01 0.25224991E+04</pdfrwt>
<pdfrwt beam="2">  1       -3 0.38907792E+00 0.25224991E+04</pdfrwt>
<totfact> 0.37649905E-02</totfact>
</mgrwt>
</event>
<event>
 8    1  0.1426346E-011  0.1653192E+04  0.7818608E-02  0.8788520E-01
          3   -1    0    0  501    0  0.00000000000E+00  0.00000000000E+00  0.54902149419E+03  0.54902150348E+03  0.10100000000E+00 0. -1.
         -3   -1    0    0    0  501 -0.00000000000E+00 -0.00000000000E+00 -0.12445067664E+04  0.12445067705E+04  0.10100000000E+00 0.  1.
     200001    2    1    2    0    0  0.13484360664E+03 -0.34295374706E+03 -0.87076795855E+02  0.79554984488E+03  0.69965499815E+03 0.  0.
    5000001    2    3    3    0    0  0.88852574832E+02 -0.35327599346E+02 -0.75637868318E+02  0.20658476032E+03  0.16677336940E+03 0.  0.
        -11    1    4    4    0    0  0.28997521902E+02 -0.22863361187E+02 -0.11983637299E+03  0.12539675376E+03  0.51100000000E-03 0. -1.
     200002    1    4    4    0    0  0.59855052930E+02 -0.12464238159E+02  0.44198504672E+02  0.81188006561E+02  0.30000000000E+02 0. -1.
     200000    1    3    3    0    0  0.45991031811E+02 -0.30762614771E+03 -0.11438927537E+02  0.58896508456E+03  0.50000000000E+03 0.  1.
    -200001    1    1    2    0    0 -0.13484360664E+03  0.34295374706E+03 -0.60840847639E+03  0.99797842913E+03  0.70000000000E+03 0.  1.
<mgrwt>
<rscale>  0 0.16531920E+04</rscale>
<asrwt>0</asrwt>
<pdfrwt beam="1">  1        3 0.78431643E-01 0.16531920E+04</pdfrwt>
<pdfrwt beam="2">  1       -3 0.17778668E+00 0.16531920E+04</pdfrwt>
<totfact> 0.78229283E-01</totfact>
</mgrwt>
</event>
<event>
 8    1  0.1426346E-011  0.1575833E+04  0.7818608E-02  0.8835534E-01
          3   -1    0    0  501    0  0.00000000000E+00  0.00000000000E+00  0.39515752880E+03  0.39515754171E+03  0.10100000000E+00 0.  1.
         -3   -1    0    0    0  501 -0.00000000000E+00 -0.00000000000E+00 -0.15710502393E+04  0.15710502425E+04  0.10100000000E+00 0. -1.
     200001    2    1    2    0    0 -0.31149344621E+03  0.17712619989E+03 -0.65025447377E+03  0.10203233232E+04  0.69987637875E+03 0.  0.
    5000001    2    3    3    0    0 -0.60358338018E+02  0.63122317951E+02 -0.22381998482E+03  0.30764380125E+03  0.19215037563E+03 0.  0.
        -11    1    4    4    0    0 -0.10278049296E+03  0.10016745626E+03 -0.12673801044E+03  0.19146767956E+03  0.51100000000E-03 0. -1.
     200002    1    4    4    0    0  0.42422154938E+02 -0.37045138311E+02 -0.97081974376E+02  0.11617612169E+03  0.30000000000E+02 0. -1.
     200000    1    3    3    0    0 -0.25113510819E+03  0.11400388194E+03 -0.42643448895E+03  0.71267952197E+03  0.50000000000E+03 0. -1.
    -200001    1    1    2    0    0  0.31149344621E+03 -0.17712619989E+03 -0.52563823672E+03  0.94588446103E+03  0.70000000000E+03 0. -1.
<mgrwt>
<rscale>  0 0.15758329E+04</rscale>
<asrwt>0</asrwt>
<pdfrwt beam="1">  1        3 0.56451078E-01 0.15758329E+04</pdfrwt>
<pdfrwt beam="2">  1       -3 0.22443575E+00 0.15758329E+04</pdfrwt>
<totfact> 0.80858006E-01</totfact>
</mgrwt>
</event>
<event>
 8    1  0.1426346E-011  0.1523712E+04  0.7818608E-02  0.8868836E-01
          3   -1    0    0  501    0  0.00000000000E+00  0.00000000000E+00  0.38221537246E+03  0.38221538580E+03  0.10100000000E+00 0.  1.
         -3   -1    0    0    0  501 -0.00000000000E+00 -0.00000000000E+00 -0.15185791414E+04  0.15185791447E+04  0.10100000000E+00 0. -1.
     200001    2    1    2    0    0  0.23403064618E+03 -0.13273822466E+03 -0.73799148008E+03  0.10516241942E+04  0.69920829620E+03 0.  0.
    5000001    2    3    3    0    0  0.12474312993E+03 -0.83608187036E+01 -0.23044044990E+03  0.32017252212E+03  0.18378490476E+03 0.  0.
        -11    1    4    4    0    0  0.58661815191E+02  0.83892388396E+02 -0.83482438831E+02  0.13209261518E+03  0.51100000000E-03 0. -1.
     200002    1    4    4    0    0  0.66081314737E+02 -0.92253207100E+02 -0.14695801107E+03  0.18807990694E+03  0.30000000000E+02 0. -1.
     200000    1    3    3    0    0  0.10928751625E+03 -0.12437740596E+03 -0.50755103018E+03  0.73145167206E+03  0.50000000000E+03 0.  1.
    -200001    1    1    2    0    0 -0.23403064618E+03  0.13273822466E+03 -0.39837228885E+03  0.84917033637E+03  0.70000000000E+03 0.  1.
<mgrwt>
<rscale>  0 0.15237117E+04</rscale>
<asrwt>0</asrwt>
<pdfrwt beam="1">  1        3 0.54602198E-01 0.15237117E+04</pdfrwt>
<pdfrwt beam="2">  1       -3 0.21693988E+00 0.15237117E+04</pdfrwt>
<totfact> 0.96597204E-01</totfact>
</mgrwt>
</event>
<event>
 8    1  0.1426346E-011  0.1818723E+04  0.7818608E-02  0.8696406E-01
         -3   -1    0    0    0  501 -0.00000000000E+00  0.00000000000E+00  0.12018433327E+04  0.12018433369E+04  0.10100000000E+00 0. -1.
          3   -1    0    0  501    0  0.00000000000E+00 -0.00000000000E+00 -0.68805815007E+03  0.68805815749E+03  0.10100000000E+00 0.  1.
     200001    2    1    2    0    0  0.17023905767E+03 -0.25545571618E+03  0.76902284683E+03  0.10840570771E+04  0.69967467282E+03 0.  0.
    5000001    2    3    3    0    0  0.99273702427E+02 -0.16833955270E+03  0.31518420940E+03  0.39951721968E+03  0.14859155415E+03 0.  0.
        -11    1    4    4    0    0  0.20747301042E+02 -0.15964961278E+03  0.20770520313E+03  0.26279250516E+03  0.51100000000E-03 0. -1.
     200002    1    4    4    0    0  0.78526401385E+02 -0.86899399210E+01  0.10747900627E+03  0.13672471451E+03  0.30000000000E+02 0. -1.
     200000    1    3    3    0    0  0.70965355248E+02 -0.87116163479E+02  0.45383863743E+03  0.68453985743E+03  0.50000000000E+03 0. -1.
    -200001    1    1    2    0    0 -0.17023905767E+03  0.25545571618E+03 -0.25523766421E+03  0.80584441732E+03  0.70000000000E+03 0.  1.
<mgrwt>
<rscale>  0 0.18187228E+04</rscale>
<asrwt>0</asrwt>
<pdfrwt beam="1">  1        3 0.98294022E-01 0.18187228E+04</pdfrwt>
<pdfrwt beam="2">  1       -3 0.17169191E+00 0.18187228E+04</pdfrwt>
<totfact> 0.50905406E-01</totfact>
</mgrwt>
</event>
<event>
 8    1  0.1426346E-011  0.1660305E+04  0.7818608E-02  0.8784333E-01
          3   -1    0    0  501    0  0.00000000000E+00  0.00000000000E+00  0.62231765702E+03  0.62231766521E+03  0.10100000000E+00 0.  1.
         -3   -1    0    0    0  501 -0.00000000000E+00 -0.00000000000E+00 -0.11073977910E+04  0.11073977956E+04  0.10100000000E+00 0. -1.
     200001    2    1    2    0    0  0.42049620088E+03 -0.51573629800E+02 -0.96482487581E+02  0.82390917634E+03  0.70002897526E+03 0.  0.
    5000001    2    3    3    0    0  0.24125017363E+03 -0.33544960124E+02  0.22689335862E+02  0.27924772670E+03  0.13467581921E+03 0.  0.
        -11    1    4    4    0    0  0.60662234396E+02  0.25293823345E+02  0.53198316549E+02  0.84556165152E+02  0.51100000000E-03 0. -1.
     200002    1    4    4    0    0  0.18058793923E+03 -0.58838783468E+02 -0.30508980687E+02  0.19469156155E+03  0.30000000000E+02 0. -1.
     200000    1    3    3    0    0  0.17924602725E+03 -0.18028669677E+02 -0.11917182344E+03  0.54466144963E+03  0.50000000000E+03 0.  1.
    -200001    1    1    2    0    0 -0.42049620088E+03  0.51573629800E+02 -0.38859764643E+03  0.90580628451E+03  0.70000000000E+03 0. -1.
<mgrwt>
<rscale>  0 0.16603050E+04</rscale>
<asrwt>0</asrwt>
<pdfrwt beam="1">  1        3 0.88902524E-01 0.16603050E+04</pdfrwt>
<pdfrwt beam="2">  1       -3 0.15819968E+00 0.16603050E+04</pdfrwt>
<totfact> 0.80913506E-01</totfact>
</mgrwt>
</event>
<event>
 8    1  0.1426346E-011  0.1642655E+04  0.7818608E-02  0.8794764E-01
          3   -1    0    0  501    0  0.00000000000E+00  0.00000000000E+00  0.21885024167E+03  0.21885026498E+03  0.10100000000E+00 0.  1.
         -3   -1    0    0    0  501 -0.00000000000E+00 -0.00000000000E+00 -0.30823747528E+04  0.30823747545E+04  0.10100000000E+00 0. -1.
     200001    2    1    2    0    0  0.72743052857E+02 -0.97999739825E+02 -0.22592643542E+04  0.23684732636E+04  0.70035325194E+03 0.  0.
    5000001    2    3    3    0    0 -0.56150728684E+01 -0.14730906967E+03 -0.60992986956E+03  0.64253130395E+03  0.13820470224E+03 0.  0.
        -11    1    4    4    0    0 -0.86355088511E+01 -0.41108265313E+02 -0.42561785557E+03  0.42768565614E+03  0.51100000000E-03 0. -1.
     200002    1    4    4    0    0  0.30204359826E+01 -0.10620080436E+03 -0.18431201399E+03  0.21484564781E+03  0.30000000000E+02 0. -1.
     200000    1    3    3    0    0  0.78358125725E+02  0.49309329848E+02 -0.16493344847E+04  0.17259419597E+04  0.50000000000E+03 0. -1.
    -200001    1    1    2    0    0 -0.72743052857E+02  0.97999739825E+02 -0.60426015693E+03  0.93275175583E+03  0.70000000000E+03 0.  1.
<mgrwt>
<rscale>  0 0.16426546E+04</rscale>
<asrwt>0</asrwt>
<pdfrwt beam="1">  1        3 0.31264324E-01 0.16426546E+04</pdfrwt>
<pdfrwt beam="2">  1       -3 0.44033922E+00 0.16426546E+04</pdfrwt>
<totfact> 0.16178105E-01</totfact>
</mgrwt>
</event>
<event>
 8    1  0.1426346E-011  0.1479923E+04  0.7818608E-02  0.8897914E-01
          3   -1    0    0  501    0  0.00000000000E+00  0.00000000000E+00  0.22199177594E+04  0.22199177617E+04  0.10100000000E+00 0.  1.
         -3   -1    0    0    0  501 -0.00000000000E+00 -0.00000000000E+00 -0.24665026113E+03  0.24665028181E+03  0.10100000000E+00 0. -1.
     200001    2    1    2    0    0  0.15649879962E+03  0.35894059623E+01  0.68336556946E+03  0.99064401292E+03  0.69991592402E+03 0.  0.
    5000001    2    3    3    0    0 -0.57895692717E+01 -0.70552897200E+02  0.13230080668E+03  0.22545974193E+03  0.16827763181E+03 0.  0.
        -11    1    4    4    0    0  0.66087952388E+02 -0.49204343077E+02  0.11725746946E+03  0.14331084737E+03  0.51100000000E-03 0. -1.
     200002    1    4    4    0    0 -0.71877521660E+02 -0.21348554123E+02  0.15043337220E+02  0.82148894563E+02  0.30000000000E+02 0. -1.
     200000    1    3    3    0    0  0.16228836889E+03  0.74142303163E+02  0.55106476279E+03  0.76518427100E+03  0.50000000000E+03 0. -1.
    -200001    1    1    2    0    0 -0.15649879962E+03 -0.35894059623E+01  0.12899019288E+04  0.14759240306E+04  0.70000000000E+03 0.  1.
<mgrwt>
<rscale>  0 0.14799234E+04</rscale>
<asrwt>0</asrwt>
<pdfrwt beam="1">  1        3 0.31713111E+00 0.14799234E+04</pdfrwt>
<pdfrwt beam="2">  1       -3 0.35235753E-01 0.14799234E+04</pdfrwt>
<totfact> 0.63589685E-01</totfact>
</mgrwt>
</event>
<event>
 8    1  0.1426346E-011  0.1655443E+04  0.7818608E-02  0.8787193E-01
          3   -1    0    0  501    0  0.00000000000E+00  0.00000000000E+00  0.12123558809E+04  0.12123558851E+04  0.10100000000E+00 0. -1.
         -3   -1    0    0    0  501 -0.00000000000E+00 -0.00000000000E+00 -0.56511680152E+03  0.56511681054E+03  0.10100000000E+00 0.  1.
     200001    2    1    2    0    0 -0.22774670878E+02 -0.42238172773E+03  0.18401660918E+03  0.83752585331E+03  0.69904394208E+03 0.  0.
    5000001    2    3    3    0    0 -0.14143799380E+03 -0.15084291597E+03  0.70374540830E+02  0.24530222140E+03  0.11163472774E+03 0.  0.
        -11    1    4    4    0    0 -0.87286785682E+02 -0.25882250972E+02  0.51434391993E+02  0.10456754061E+03  0.51100000000E-03 0. -1.
     200002    1    4    4    0    0 -0.54151208116E+02 -0.12496066500E+03  0.18940148837E+02  0.14073468078E+03  0.30000000000E+02 0. -1.
     200000    1    3    3    0    0  0.11866332292E+03 -0.27153881176E+03  0.11364206835E+03  0.59222363191E+03  0.50000000000E+03 0.  1.
    -200001    1    1    2    0    0  0.22774670878E+02  0.42238172773E+03  0.46322247023E+03  0.93994684237E+03  0.70000000000E+03 0. -1.
<mgrwt>
<rscale>  0 0.16554428E+04</rscale>
<asrwt>0</asrwt>
<pdfrwt beam="1">  1        3 0.17319370E+00 0.16554428E+04</pdfrwt>
<pdfrwt beam="2">  1       -3 0.80730973E-01 0.16554428E+04</pdfrwt>
<totfact> 0.79134549E-01</totfact>
</mgrwt>
</event>
<event>
 8    1  0.1426346E-011  0.1937580E+04  0.7818608E-02  0.8636373E-01
          3   -1    0    0  501    0  0.00000000000E+00  0.00000000000E+00  0.30462418142E+04  0.30462418158E+04  0.10100000000E+00 0.  1.
         -3   -1    0    0    0  501 -0.00000000000E+00 -0.00000000000E+00 -0.30810213620E+03  0.30810215275E+03  0.10100000000E+00 0. -1.
     200001    2    1    2    0    0  0.56416387549E+03  0.26928659516E+03  0.95349946823E+03  0.13379767335E+04  0.70016023495E+03 0.  0.
    5000001    2    3    3    0    0  0.21999887712E+03  0.62813637908E+02  0.25511863841E+03  0.38991744647E+03  0.18602428969E+03 0.  0.
        -11    1    4    4    0    0  0.77040707279E+01 -0.36576058700E+02  0.10122464259E+03  0.10790546345E+03  0.51100000000E-03 0. -1.
     200002    1    4    4    0    0  0.21229480639E+03  0.99389696608E+02  0.15389399582E+03  0.28201198301E+03  0.30000000000E+02 0. -1.
     200000    1    3    3    0    0  0.34416499837E+03  0.20647295725E+03  0.69838082982E+03  0.94805928698E+03  0.50000000000E+03 0.  1.
    -200001    1    1    2    0    0 -0.56416387549E+03 -0.26928659516E+03  0.17846402097E+04  0.20163672351E+04  0.70000000000E+03 0. -1.
<mgrwt>
<rscale>  0 0.19375796E+04</rscale>
<asrwt>0</asrwt>
<pdfrwt beam="1">  1        3 0.43517738E+00 0.19375796E+04</pdfrwt>
<pdfrwt beam="2">  1       -3 0.44014594E-01 0.19375796E+04</pdfrwt>
<totfact> 0.92208968E-02</totfact>
</mgrwt>
</event>
<event>
 8    1  0.1426346E-011  0.1416496E+04  0.7818608E-02  0.8941964E-01
          3   -1    0    0  501    0  0.00000000000E+00  0.00000000000E+00  0.92123644463E+03  0.92123645016E+03  0.10100000000E+00 0.  1.
         -3   -1    0    0    0  501 -0.00000000000E+00 -0.00000000000E+00 -0.54450194472E+03  0.54450195408E+03  0.10100000000E+00 0. -1.
     200001    2    1    2    0    0  0.44652419236E+02 -0.75550996702E+02  0.25463429990E+03  0.74977035294E+03  0.69972506302E+03 0.  0.
    5000001    2    3    3    0    0  0.56249847008E+02 -0.23696730915E+02  0.74452566275E+02  0.21564600193E+03  0.19296225843E+03 0.  0.
        -11    1    4    4    0    0 -0.62897666986E+02 -0.43340030240E+02  0.41501693877E+02  0.86930232534E+02  0.51100000000E-03 0. -1.
     200002    1    4    4    0    0  0.11914751399E+03  0.19643299324E+02  0.32950872398E+02  0.12871576940E+03  0.30000000000E+02 0. -1.
     200000    1    3    3    0    0 -0.11597427772E+02 -0.51854265787E+02  0.18018173363E+03  0.53412435101E+03  0.50000000000E+03 0.  1.
    -200001    1    1    2    0    0 -0.44652419236E+02  0.75550996702E+02  0.12210020000E+03  0.71596805130E+03  0.70000000000E+03 0.  1.
<mgrwt>
<rscale>  0 0.14164957E+04</rscale>
<asrwt>0</asrwt>
<pdfrwt beam="1">  1        3 0.13160521E+00 0.14164957E+04</pdfrwt>
<pdfrwt beam="2">  1       -3 0.77785993E-01 0.14164957E+04</pdfrwt>
<totfact> 0.17882197E+00</totfact>
</mgrwt>
</event>
<event>
 8    1  0.1426346E-011  0.1610445E+04  0.7818608E-02  0.8814157E-01
          3   -1    0    0  501    0  0.00000000000E+00  0.00000000000E+00  0.41099731766E+03  0.41099733007E+03  0.10100000000E+00 0.  1.
         -3   -1    0    0    0  501 -0.00000000000E+00 -0.00000000000E+00 -0.15775855184E+04  0.15775855216E+04  0.10100000000E+00 0. -1.
     200001    2    1    2    0    0 -0.13464571485E+03 -0.16972485398E+03 -0.99572056261E+03  0.12361655843E+04  0.69979276813E+03 0.  0.
    5000001    2    3    3    0    0 -0.29672335194E+02 -0.80256612565E+02 -0.51976833181E+03  0.53220926271E+03  0.75934242722E+02 0.  0.
        -11    1    4    4    0    0 -0.18793944121E+02 -0.67725450465E+02 -0.43708624678E+03  0.44270118150E+03  0.51100000000E-03 0. -1.
     200002    1    4    4    0    0 -0.10878391073E+02 -0.12531162100E+02 -0.82682085038E+02  0.89508081211E+02  0.30000000000E+02 0.  1.
     200000    1    3    3    0    0 -0.10497337966E+03 -0.89468241411E+02 -0.47595223080E+03  0.70395632156E+03  0.50000000000E+03 0. -1.
    -200001    1    1    2    0    0  0.13464571485E+03  0.16972485398E+03 -0.17086763812E+03  0.75241726744E+03  0.70000000000E+03 0.  1.
<mgrwt>
<rscale>  0 0.16104452E+04</rscale>
<asrwt>0</asrwt>
<pdfrwt beam="1">  1        3 0.58713904E-01 0.16104452E+04</pdfrwt>
<pdfrwt beam="2">  1       -3 0.22536936E+00 0.16104452E+04</pdfrwt>
<totfact> 0.73306229E-01</totfact>
</mgrwt>
</event>
<event>
 8    1  0.1426346E-011  0.1544604E+04  0.7818608E-02  0.8855322E-01
          3   -1    0    0  501    0  0.00000000000E+00  0.00000000000E+00  0.14288931278E+04  0.14288931313E+04  0.10100000000E+00 0.  1.
         -3   -1    0    0    0  501 -0.00000000000E+00 -0.00000000000E+00 -0.41742102701E+03  0.41742103923E+03  0.10100000000E+00 0. -1.
     200001    2    1    2    0    0 -0.19743340149E+03 -0.38286733602E+02  0.20041089883E+03  0.75623798274E+03  0.70091763865E+03 0.  0.
    5000001    2    3    3    0    0 -0.80615260698E+02 -0.66604322172E+02 -0.23648408345E+02  0.19530043098E+03  0.16324232029E+03 0.  0.
        -11    1    4    4    0    0 -0.17016935207E+02 -0.10591681773E+03  0.10525023393E+02  0.10779018730E+03  0.51100000000E-03 0. -1.
     200002    1    4    4    0    0 -0.63598325491E+02  0.39312495553E+02 -0.34173431739E+02  0.87510243678E+02  0.30000000000E+02 0. -1.
     200000    1    3    3    0    0 -0.11681814079E+03  0.28317588570E+02  0.22405930717E+03  0.56093755176E+03  0.50000000000E+03 0. -1.
    -200001    1    1    2    0    0  0.19743340149E+03  0.38286733602E+02  0.81106120194E+03  0.10900761878E+04  0.70000000000E+03 0.  1.
<mgrwt>
<rscale>  0 0.15446036E+04</rscale>
<asrwt>0</asrwt>
<pdfrwt beam="1">  1        3 0.20412759E+00 0.15446036E+04</pdfrwt>
<pdfrwt beam="2">  1       -3 0.59631576E-01 0.15446036E+04</pdfrwt>
<totfact> 0.96841567E-01</totfact>
</mgrwt>
</event>
<event>
 8    1  0.1426346E-011  0.1594569E+04  0.7818608E-02  0.8823891E-01
          3   -1    0    0  501    0  0.00000000000E+00  0.00000000000E+00  0.19311423693E+04  0.19311423720E+04  0.10100000000E+00 0.  1.
         -3   -1    0    0    0  501 -0.00000000000E+00 -0.00000000000E+00 -0.32916400242E+03  0.32916401792E+03  0.10100000000E+00 0. -1.
     200001    2    1    2    0    0  0.12296720528E+03  0.35783489959E+03  0.73360201095E+03  0.10824930581E+04  0.70032318357E+03 0.  0.
    5000001    2    3    3    0    0 -0.99481296884E+00  0.14518647690E+03  0.14528221584E+03  0.27211899944E+03  0.17849852910E+03 0.  0.
        -11    1    4    4    0    0 -0.10456511307E+02  0.24676656382E+02  0.14511708058E+03  0.14757114581E+03  0.51100000000E-03 0. -1.
     200002    1    4    4    0    0  0.94616983386E+01  0.12050982051E+03  0.16513525846E+00  0.12454785364E+03  0.30000000000E+02 0. -1.
     200000    1    3    3    0    0  0.12396201825E+03  0.21264842269E+03  0.58831979511E+03  0.81037405867E+03  0.50000000000E+03 0.  1.
    -200001    1    1    2    0    0 -0.12296720528E+03 -0.35783489959E+03  0.86837635598E+03  0.11778133318E+04  0.70000000000E+03 0. -1.
<mgrwt>
<rscale>  0 0.15945690E+04</rscale>
<asrwt>0</asrwt>
<pdfrwt beam="1">  1        3 0.27587749E+00 0.15945690E+04</pdfrwt>
<pdfrwt beam="2">  1       -3 0.47023429E-01 0.15945690E+04</pdfrwt>
<totfact> 0.59976192E-01</totfact>
</mgrwt>
</event>
<event>
 8    1  0.1426346E-011  0.1984853E+04  0.7818608E-02  0.8613735E-01
          3   -1    0    0  501    0  0.00000000000E+00  0.00000000000E+00  0.24314263820E+04  0.24314263841E+04  0.10100000000E+00 0.  1.
         -3   -1    0    0    0  501 -0.00000000000E+00 -0.00000000000E+00 -0.40507514725E+03  0.40507515984E+03  0.10100000000E+00 0. -1.
     200001    2    1    2    0    0 -0.45735557189E+03  0.53270074756E+03  0.10746102962E+04  0.14621817050E+04  0.70017415273E+03 0.  0.
    5000001    2    3    3    0    0 -0.78465216166E+02  0.19251160710E+03  0.24648040486E+03  0.36898196576E+03  0.17938113630E+03 0.  0.
        -11    1    4    4    0    0 -0.34321701016E+02 -0.29180067338E+02  0.27177094340E+02  0.52612260429E+02  0.51100000000E-03 0. -1.
     200002    1    4    4    0    0 -0.44143515151E+02  0.22169167444E+03  0.21930331052E+03  0.31636970533E+03  0.30000000000E+02 0. -1.
     200000    1    3    3    0    0 -0.37889035573E+03  0.34018914046E+03  0.82812989134E+03  0.10931997392E+04  0.50000000000E+03 0. -1.
    -200001    1    1    2    0    0  0.45735557189E+03 -0.53270074756E+03  0.95174093858E+03  0.13743198390E+04  0.70000000000E+03 0.  1.
<mgrwt>
<rscale>  0 0.19848531E+04</rscale>
<asrwt>0</asrwt>
<pdfrwt beam="1">  1        3 0.34734663E+00 0.19848531E+04</pdfrwt>
<pdfrwt beam="2">  1       -3 0.57867878E-01 0.19848531E+04</pdfrwt>
<totfact> 0.15325122E-01</totfact>
</mgrwt>
</event>
<event>
 8    1  0.1426346E-011  0.2032703E+04  0.7818608E-02  0.8591482E-01
          3   -1    0    0  501    0  0.00000000000E+00  0.00000000000E+00  0.12792572530E+04  0.12792572570E+04  0.10100000000E+00 0.  1.
         -3   -1    0    0    0  501 -0.00000000000E+00 -0.00000000000E+00 -0.80747645628E+03  0.80747646259E+03  0.10100000000E+00 0. -1.
     200001    2    1    2    0    0 -0.31648573241E+03  0.64842127371E+03  0.70015506690E+02  0.10041309691E+04  0.69481181986E+03 0.  0.
    5000001    2    3    3    0    0 -0.94315178525E+02  0.13770385555E+03 -0.24698065700E+01  0.25216942967E+03  0.18901221278E+03 0.  0.
        -11    1    4    4    0    0  0.21685427804E+02 -0.33579500275E+02 -0.15164713365E+02  0.42752884692E+02  0.51100000000E-03 0. -1.
     200002    1    4    4    0    0 -0.11600060633E+03  0.17128335582E+03  0.12694906795E+02  0.20941654497E+03  0.30000000000E+02 0. -1.
     200000    1    3    3    0    0 -0.22217055388E+03  0.51071741816E+03  0.72485313260E+02  0.75196153948E+03  0.50000000000E+03 0.  1.
    -200001    1    1    2    0    0  0.31648573241E+03 -0.64842127371E+03  0.40176529007E+03  0.10826027505E+04  0.70000000000E+03 0.  1.
<mgrwt>
<rscale>  0 0.20327028E+04</rscale>
<asrwt>0</asrwt>
<pdfrwt beam="1">  1        3 0.18275104E+00 0.20327028E+04</pdfrwt>
<pdfrwt beam="2">  1       -3 0.11535378E+00 0.20327028E+04</pdfrwt>
<totfact> 0.28900207E-01</totfact>
</mgrwt>
</event>
<event>
 8    1  0.1426346E-011  0.1584512E+04  0.7818608E-02  0.8830120E-01
          3   -1    0    0  501    0  0.00000000000E+00  0.00000000000E+00  0.10272074029E+04  0.10272074078E+04  0.10100000000E+00 0.  1.
         -3   -1    0    0    0  501 -0.00000000000E+00 -0.00000000000E+00 -0.61104451659E+03  0.61104452494E+03  0.10100000000E+00 0. -1.
     200001    2    1    2    0    0 -0.71990403000E+02 -0.24708230992E+03 -0.68049667593E+02  0.74904212438E+03  0.70014360016E+03 0.  0.
    5000001    2    3    3    0    0  0.53465242654E+02 -0.59482660495E+02  0.63102975588E+02  0.18500864727E+03  0.15443281700E+03 0.  0.
        -11    1    4    4    0    0  0.47770213662E+02 -0.10153934853E+03  0.70482646898E+02  0.13251428650E+03  0.51100000000E-03 0. -1.
     200002    1    4    4    0    0  0.56950289921E+01  0.42056688036E+02 -0.73796713095E+01  0.52494360768E+02  0.30000000000E+02 0. -1.
     200000    1    3    3    0    0 -0.12545564565E+03 -0.18759964943E+03 -0.13115264318E+03  0.56403347711E+03  0.50000000000E+03 0. -1.
    -200001    1    1    2    0    0  0.71990403000E+02  0.24708230992E+03  0.48421255387E+03  0.88920980839E+03  0.70000000000E+03 0.  1.
<mgrwt>
<rscale>  0 0.15845119E+04</rscale>
<asrwt>0</asrwt>
<pdfrwt beam="1">  1        3 0.14674391E+00 0.15845119E+04</pdfrwt>
<pdfrwt beam="2">  1       -3 0.87292076E-01 0.15845119E+04</pdfrwt>
<totfact> 0.10348697E+00</totfact>
</mgrwt>
</event>
<event>
 8    1  0.1426346E-011  0.2067757E+04  0.7818608E-02  0.8575581E-01
          3   -1    0    0  501    0  0.00000000000E+00  0.00000000000E+00  0.47405877057E+03  0.47405878133E+03  0.10100000000E+00 0.  1.
         -3   -1    0    0    0  501 -0.00000000000E+00 -0.00000000000E+00 -0.22547929397E+04  0.22547929419E+04  0.10100000000E+00 0. -1.
     200001    2    1    2    0    0  0.36989694723E+03  0.66401332553E+03 -0.91671053547E+03  0.13819017288E+04  0.70111107124E+03 0.  0.
    5000001    2    3    3    0    0  0.12004591546E+03  0.14872092447E+03 -0.27235723525E+03  0.38533614032E+03  0.19436188478E+03 0.  0.
        -11    1    4    4    0    0  0.22612089181E+02  0.16049009880E+03 -0.20993108014E+03  0.26521583059E+03  0.51100000000E-03 0. -1.
     200002    1    4    4    0    0  0.97433826276E+02 -0.11769174332E+02 -0.62426155111E+02  0.12012030973E+03  0.30000000000E+02 0. -1.
     200000    1    3    3    0    0  0.24985103178E+03  0.51529240106E+03 -0.64435330023E+03  0.99656558850E+03  0.50000000000E+03 0. -1.
    -200001    1    1    2    0    0 -0.36989694723E+03 -0.66401332553E+03 -0.86402363362E+03  0.13469499944E+04  0.70000000000E+03 0.  1.
<mgrwt>
<rscale>  0 0.20677566E+04</rscale>
<asrwt>0</asrwt>
<pdfrwt beam="1">  1        3 0.67722684E-01 0.20677566E+04</pdfrwt>
<pdfrwt beam="2">  1       -3 0.32211327E+00 0.20677566E+04</pdfrwt>
<totfact> 0.14592773E-01</totfact>
</mgrwt>
</event>
<event>
 8    1  0.1426346E-011  0.1588605E+04  0.7818608E-02  0.8827579E-01
         -3   -1    0    0    0  501 -0.00000000000E+00  0.00000000000E+00  0.13673861967E+04  0.13673862005E+04  0.10100000000E+00 0. -1.
          3   -1    0    0  501    0  0.00000000000E+00 -0.00000000000E+00 -0.46140351141E+03  0.46140352247E+03  0.10100000000E+00 0.  1.
     200001    2    1    2    0    0  0.54531943658E+02 -0.30763780097E+03  0.21311446376E+03  0.79550315962E+03  0.69985195066E+03 0.  0.
    5000001    2    3    3    0    0  0.13628507040E+03 -0.12101969228E+03 -0.36344901199E+01  0.21370422422E+03  0.11152084826E+03 0.  0.
        -11    1    4    4    0    0  0.41769426955E+02 -0.10451532028E+02 -0.42167165923E+02  0.60265989017E+02  0.51100000000E-03 0. -1.
     200002    1    4    4    0    0  0.94515643449E+02 -0.11056816025E+03  0.38532675803E+02  0.15343823521E+03  0.30000000000E+02 0. -1.
     200000    1    3    3    0    0 -0.81753126747E+02 -0.18661810869E+03  0.21674895388E+03  0.58179893540E+03  0.50000000000E+03 0.  1.
    -200001    1    1    2    0    0 -0.54531943658E+02  0.30763780097E+03  0.69286822157E+03  0.10332865633E+04  0.70000000000E+03 0. -1.
<mgrwt>
<rscale>  0 0.15886054E+04</rscale>
<asrwt>0</asrwt>
<pdfrwt beam="1">  1        3 0.65914789E-01 0.15886054E+04</pdfrwt>
<pdfrwt beam="2">  1       -3 0.19534089E+00 0.15886054E+04</pdfrwt>
<totfact> 0.88086810E-01</totfact>
</mgrwt>
</event>
<event>
 8    1  0.1426346E-011  0.1501840E+04  0.7818608E-02  0.8883230E-01
          3   -1    0    0  501    0  0.00000000000E+00  0.00000000000E+00  0.20896479515E+03  0.20896481956E+03  0.10100000000E+00 0.  1.
         -3   -1    0    0    0  501 -0.00000000000E+00 -0.00000000000E+00 -0.26984501318E+04  0.26984501337E+04  0.10100000000E+00 0. -1.
     200001    2    1    2    0    0 -0.20588640921E+03 -0.58207448248E+02 -0.15711127545E+04  0.17330276576E+04  0.69943709803E+03 0.  0.
    5000001    2    3    3    0    0 -0.75025071419E+02  0.20018502645E+02 -0.61946528537E+03  0.64726668269E+03  0.17084325258E+03 0.  0.
        -11    1    4    4    0    0 -0.11611156719E+03 -0.49368435812E+01 -0.51966713365E+03  0.53250370727E+03  0.51100000000E-03 0. -1.
     200002    1    4    4    0    0  0.41086495775E+02  0.24955346226E+02 -0.99798151721E+02  0.11476297542E+03  0.30000000000E+02 0. -1.
     200000    1    3    3    0    0 -0.13086133779E+03 -0.78225950892E+02 -0.95164746915E+03  0.10857609749E+04  0.50000000000E+03 0. -1.
    -200001    1    1    2    0    0  0.20588640921E+03  0.58207448248E+02 -0.91837258212E+03  0.11743872956E+04  0.70000000000E+03 0.  1.
<mgrwt>
<rscale>  0 0.15018404E+04</rscale>
<asrwt>0</asrwt>
<pdfrwt beam="1">  1        3 0.29852117E-01 0.15018404E+04</pdfrwt>
<pdfrwt beam="2">  1       -3 0.38549286E+00 0.15018404E+04</pdfrwt>
<totfact> 0.35772751E-01</totfact>
</mgrwt>
</event>
<event>
 8    1  0.1426346E-011  0.1928413E+04  0.7818608E-02  0.8640841E-01
         -3   -1    0    0    0  501 -0.00000000000E+00  0.00000000000E+00  0.75393276111E+03  0.75393276788E+03  0.10100000000E+00 0. -1.
          3   -1    0    0  501    0  0.00000000000E+00 -0.00000000000E+00 -0.12331256203E+04  0.12331256244E+04  0.10100000000E+00 0.  1.
     200001    2    1    2    0    0 -0.18249152268E+03  0.40783114768E+03 -0.74488059177E+03  0.11151527942E+04  0.69934916705E+03 0.  0.
    5000001    2    3    3    0    0 -0.86355266670E+02  0.11904411909E+03 -0.31784737096E+03  0.39058568252E+03  0.17292047243E+03 0.  0.
        -11    1    4    4    0    0 -0.10093667203E+03  0.41123089348E+02 -0.27457966683E+03  0.29542057084E+03  0.51100000000E-03 0. -1.
     200002    1    4    4    0    0  0.14581405364E+02  0.77921029745E+02 -0.43267704129E+02  0.95165111672E+02  0.30000000000E+02 0. -1.
     200000    1    3    3    0    0 -0.96136256008E+02  0.28878702859E+03 -0.42703322081E+03  0.72456711164E+03  0.50000000000E+03 0.  1.
    -200001    1    1    2    0    0  0.18249152268E+03 -0.40783114768E+03  0.26568773258E+03  0.87190559816E+03  0.70000000000E+03 0. -1.
<mgrwt>
<rscale>  0 0.19284126E+04</rscale>
<asrwt>0</asrwt>
<pdfrwt beam="1">  1        3 0.17616080E+00 0.19284126E+04</pdfrwt>
<pdfrwt beam="2">  1       -3 0.10770468E+00 0.19284126E+04</pdfrwt>
<totfact> 0.38030216E-01</totfact>
</mgrwt>
</event>
<event>
 8    1  0.1426346E-011  0.1847107E+04  0.7818608E-02  0.8681642E-01
         -3   -1    0    0    0  501 -0.00000000000E+00  0.00000000000E+00  0.24065356738E+04  0.24065356759E+04  0.10100000000E+00 0. -1.
          3   -1    0    0  501    0  0.00000000000E+00 -0.00000000000E+00 -0.35443102473E+03  0.35443103912E+03  0.10100000000E+00 0.  1.
     200001    2    1    2    0    0  0.55529366486E+03  0.19488163325E+03  0.12190770144E+04  0.15239279342E+04  0.69991262051E+03 0.  0.
    5000001    2    3    3    0    0  0.15671350919E+03  0.42718686076E+01  0.35253624075E+03  0.43026841895E+03  0.19045140714E+03 0.  0.
        -11    1    4    4    0    0  0.19295034600E+03  0.25434505969E+02  0.26744291922E+03  0.33076043469E+03  0.51100000000E-03 0. -1.
     200002    1    4    4    0    0 -0.36236836814E+02 -0.21162637362E+02  0.85093321529E+02  0.99507984258E+02  0.30000000000E+02 0. -1.
     200000    1    3    3    0    0  0.39858015568E+03  0.19060976464E+03  0.86654077363E+03  0.10936595152E+04  0.50000000000E+03 0.  1.
    -200001    1    1    2    0    0 -0.55529366486E+03 -0.19488163325E+03  0.83302763470E+03  0.12370387809E+04  0.70000000000E+03 0. -1.
<mgrwt>
<rscale>  0 0.18471068E+04</rscale>
<asrwt>0</asrwt>
<pdfrwt beam="1">  1        3 0.50633004E-01 0.18471068E+04</pdfrwt>
<pdfrwt beam="2">  1       -3 0.34379082E+00 0.18471068E+04</pdfrwt>
<totfact> 0.20796915E-01</totfact>
</mgrwt>
</event>
<event>
 8    1  0.1426346E-011  0.1442912E+04  0.7818608E-02  0.8923329E-01
          3   -1    0    0  501    0  0.00000000000E+00  0.00000000000E+00  0.61107226651E+03  0.61107227486E+03  0.10100000000E+00 0.  1.
         -3   -1    0    0    0  501 -0.00000000000E+00 -0.00000000000E+00 -0.85177960994E+03  0.85177961593E+03  0.10100000000E+00 0. -1.
     200001    2    1    2    0    0 -0.14325587588E+03 -0.64374579108E+02 -0.45535359385E+02  0.71937463104E+03  0.70054268850E+03 0.  0.
    5000001    2    3    3    0    0 -0.11825756677E+03  0.14093022012E+01 -0.21054926330E+02  0.21385338905E+03  0.17692688844E+03 0.  0.
        -11    1    4    4    0    0  0.14968449714E+01  0.15214870377E+02 -0.76359050103E+02  0.77874497484E+02  0.51100000000E-03 0. -1.
     200002    1    4    4    0    0 -0.11975441174E+03 -0.13805568176E+02  0.55304123773E+02  0.13597889156E+03  0.30000000000E+02 0. -1.
     200000    1    3    3    0    0 -0.24998309113E+02 -0.65783881310E+02 -0.24480433055E+02  0.50552124199E+03  0.50000000000E+03 0. -1.
    -200001    1    1    2    0    0  0.14325587588E+03  0.64374579108E+02 -0.19517198404E+03  0.74347725975E+03  0.70000000000E+03 0. -1.
<mgrwt>
<rscale>  0 0.14429122E+04</rscale>
<asrwt>0</asrwt>
<pdfrwt beam="1">  1        3 0.87296039E-01 0.14429122E+04</pdfrwt>
<pdfrwt beam="2">  1       -3 0.12168280E+00 0.14429122E+04</pdfrwt>
<totfact> 0.16702213E+00</totfact>
</mgrwt>
</event>
<event>
 8    1  0.1426346E-011  0.1551862E+04  0.7818608E-02  0.8850680E-01
         -3   -1    0    0    0  501 -0.00000000000E+00  0.00000000000E+00  0.69566503947E+03  0.69566504680E+03  0.10100000000E+00 0. -1.
          3   -1    0    0  501    0  0.00000000000E+00 -0.00000000000E+00 -0.86545754509E+03  0.86545755099E+03  0.10100000000E+00 0.  1.
     200001    2    1    2    0    0  0.10222191900E+03  0.31185208426E+03 -0.14782808127E+03  0.78769937657E+03  0.70065406804E+03 0.  0.
    5000001    2    3    3    0    0  0.87513295119E+02  0.82430737544E+02 -0.45941106991E+02  0.22802853270E+03  0.18823661467E+03 0.  0.
        -11    1    4    4    0    0  0.64071556743E+02  0.14007570925E+03 -0.36544651836E+02  0.15830944471E+03  0.51100000000E-03 0. -1.
     200002    1    4    4    0    0  0.23441738375E+02 -0.57644971708E+02 -0.93964551557E+01  0.69719087994E+02  0.30000000000E+02 0. -1.
     200000    1    3    3    0    0  0.14708623878E+02  0.22942134672E+03 -0.10188697428E+03  0.55967084387E+03  0.50000000000E+03 0.  1.
    -200001    1    1    2    0    0 -0.10222191900E+03 -0.31185208426E+03 -0.21964424356E+02  0.77342322122E+03  0.70000000000E+03 0.  1.
<mgrwt>
<rscale>  0 0.15518615E+04</rscale>
<asrwt>0</asrwt>
<pdfrwt beam="1">  1        3 0.12363679E+00 0.15518615E+04</pdfrwt>
<pdfrwt beam="2">  1       -3 0.99380721E-01 0.15518615E+04</pdfrwt>
<totfact> 0.11838382E+00</totfact>
</mgrwt>
</event>
<event>
 8    1  0.1426346E-011  0.1841605E+04  0.7818608E-02  0.8684482E-01
          3   -1    0    0  501    0  0.00000000000E+00  0.00000000000E+00  0.62208475212E+03  0.62208476032E+03  0.10100000000E+00 0.  1.
         -3   -1    0    0    0  501 -0.00000000000E+00 -0.00000000000E+00 -0.13629615624E+04  0.13629615661E+04  0.10100000000E+00 0. -1.
     200001    2    1    2    0    0  0.99096037962E+02  0.59019372858E+03 -0.35975287962E+03  0.98834972642E+03  0.69947436359E+03 0.  0.
    5000001    2    3    3    0    0  0.28113033169E+02  0.69003224601E+02 -0.11398500125E+03  0.22213828142E+03  0.17550227327E+03 0.  0.
        -11    1    4    4    0    0 -0.19762190966E+02  0.15264701198E+02 -0.13824170117E+03  0.14047890673E+03  0.51100000000E-03 0. -1.
     200002    1    4    4    0    0  0.47875224135E+02  0.53738523403E+02  0.24256699919E+02  0.81659374688E+02  0.30000000000E+02 0. -1.
     200000    1    3    3    0    0  0.70983004792E+02  0.52119050398E+03 -0.24576787837E+03  0.76621144500E+03  0.50000000000E+03 0.  1.
    -200001    1    1    2    0    0 -0.99096037962E+02 -0.59019372858E+03 -0.38112393064E+03  0.99669660003E+03  0.70000000000E+03 0.  1.
<mgrwt>
<rscale>  0 0.18416054E+04</rscale>
<asrwt>0</asrwt>
<pdfrwt beam="1">  1        3 0.88869251E-01 0.18416054E+04</pdfrwt>
<pdfrwt beam="2">  1       -3 0.19470880E+00 0.18416054E+04</pdfrwt>
<totfact> 0.45030136E-01</totfact>
</mgrwt>
</event>
<event>
 8    1  0.1426346E-011  0.1471603E+04  0.7818608E-02  0.8903559E-01
          3   -1    0    0  501    0  0.00000000000E+00  0.00000000000E+00  0.38794870609E+03  0.38794871924E+03  0.10100000000E+00 0.  1.
         -3   -1    0    0    0  501 -0.00000000000E+00 -0.00000000000E+00 -0.13955561118E+04  0.13955561155E+04  0.10100000000E+00 0. -1.
     200001    2    1    2    0    0 -0.15423459537E+03  0.10713334835E+03 -0.34999529097E+03  0.80487336260E+03  0.70004182830E+03 0.  0.
    5000001    2    3    3    0    0 -0.13976777488E+02  0.12380112908E+03 -0.65718710236E+02  0.21262067603E+03  0.15926874499E+03 0.  0.
        -11    1    4    4    0    0  0.18293203232E+02  0.11811494985E+03 -0.10053060643E+03  0.15617997789E+03  0.51100000000E-03 0. -1.
     200002    1    4    4    0    0 -0.32269980720E+02  0.56861792268E+01  0.34811896196E+02  0.56440698141E+02  0.30000000000E+02 0. -1.
     200000    1    3    3    0    0 -0.14025781788E+03 -0.16667780724E+02 -0.28427658074E+03  0.59225268657E+03  0.50000000000E+03 0.  1.
    -200001    1    1    2    0    0  0.15423459537E+03 -0.10713334835E+03 -0.65761211473E+03  0.97863147210E+03  0.70000000000E+03 0. -1.
<mgrwt>
<rscale>  0 0.14716035E+04</rscale>
<asrwt>0</asrwt>
<pdfrwt beam="1">  1        3 0.55421246E-01 0.14716035E+04</pdfrwt>
<pdfrwt beam="2">  1       -3 0.19936516E+00 0.14716035E+04</pdfrwt>
<totfact> 0.12088577E+00</totfact>
</mgrwt>
</event>
<event>
 8    1  0.1426346E-011  0.1831189E+04  0.7818608E-02  0.8689887E-01
         -3   -1    0    0    0  501 -0.00000000000E+00  0.00000000000E+00  0.83398603352E+03  0.83398603964E+03  0.10100000000E+00 0. -1.
          3   -1    0    0  501    0  0.00000000000E+00 -0.00000000000E+00 -0.10051884174E+04  0.10051884225E+04  0.10100000000E+00 0.  1.
     200001    2    1    2    0    0  0.98902077915E+02  0.10942184534E+03  0.48809100489E+03  0.86633196010E+03  0.70038808869E+03 0.  0.
    5000001    2    3    3    0    0  0.94828827620E+02  0.73596259129E+02  0.24415732592E+03  0.30883424375E+03  0.14613991380E+03 0.  0.
        -11    1    4    4    0    0  0.15511083020E+02 -0.25338814707E+02 -0.25606143265E+01  0.29819556892E+02  0.51100000000E-03 0. -1.
     200002    1    4    4    0    0  0.79317744599E+02  0.98935073836E+02  0.24671794025E+03  0.27901468686E+03  0.30000000000E+02 0. -1.
     200000    1    3    3    0    0  0.40732502955E+01  0.35825586207E+02  0.24393367897E+03  0.55749771635E+03  0.50000000000E+03 0. -1.
    -200001    1    1    2    0    0 -0.98902077915E+02 -0.10942184534E+03 -0.65929338876E+03  0.97284250201E+03  0.70000000000E+03 0.  1.
<mgrwt>
<rscale>  0 0.18311888E+04</rscale>
<asrwt>0</asrwt>
<pdfrwt beam="1">  1        3 0.14359835E+00 0.18311888E+04</pdfrwt>
<pdfrwt beam="2">  1       -3 0.11914086E+00 0.18311888E+04</pdfrwt>
<totfact> 0.51676419E-01</totfact>
</mgrwt>
</event>
<event>
 8    1  0.1426346E-011  0.1684225E+04  0.7818608E-02  0.8770413E-01
          3   -1    0    0  501    0  0.00000000000E+00  0.00000000000E+00  0.11520716249E+04  0.11520716293E+04  0.10100000000E+00 0.  1.
         -3   -1    0    0    0  501 -0.00000000000E+00 -0.00000000000E+00 -0.61554653053E+03  0.61554653881E+03  0.10100000000E+00 0. -1.
     200001    2    1    2    0    0 -0.32478729275E+03  0.29732637268E+03  0.10204158558E+03  0.83345240296E+03  0.70024329015E+03 0.  0.
    5000001    2    3    3    0    0 -0.50843276551E+02  0.11700006900E+03  0.99341955113E+02  0.23548067469E+03  0.17119658055E+03 0.  0.
        -11    1    4    4    0    0 -0.10795810818E+03  0.46736839647E+02  0.62609283715E+02  0.13326367738E+03  0.51100000000E-03 0. -1.
     200002    1    4    4    0    0  0.57114831628E+02  0.70263229351E+02  0.36732671398E+02  0.10221699731E+03  0.30000000000E+02 0. -1.
     200000    1    3    3    0    0 -0.27394401620E+03  0.18032630368E+03  0.26996304695E+01  0.59797172827E+03  0.50000000000E+03 0. -1.
    -200001    1    1    2    0    0  0.32478729275E+03 -0.29732637268E+03  0.43448350879E+03  0.93416576518E+03  0.70000000000E+03 0.  1.
<mgrwt>
<rscale>  0 0.16842253E+04</rscale>
<asrwt>0</asrwt>
<pdfrwt beam="1">  1        3 0.16458166E+00 0.16842253E+04</pdfrwt>
<pdfrwt beam="2">  1       -3 0.87935221E-01 0.16842253E+04</pdfrwt>
<totfact> 0.74738655E-01</totfact>
</mgrwt>
</event>
<event>
 8    1  0.1426346E-011  0.1520360E+04  0.7818608E-02  0.8871025E-01
          3   -1    0    0  501    0  0.00000000000E+00  0.00000000000E+00  0.78552169988E+03  0.78552170638E+03  0.10100000000E+00 0.  1.
         -3   -1    0    0    0  501 -0.00000000000E+00 -0.00000000000E+00 -0.73565605701E+03  0.73565606394E+03  0.10100000000E+00 0. -1.
     200001    2    1    2    0    0 -0.42267951421E+01  0.13408173227E+02  0.32176286451E+03  0.77009472295E+03  0.69951189871E+03 0.  0.
    5000001    2    3    3    0    0 -0.28135451883E+01 -0.86325123609E+01  0.38414566189E+02  0.19496513124E+03  0.19092743962E+03 0.  0.
        -11    1    4    4    0    0  0.69292396432E+02 -0.46936369212E+01 -0.43315731546E+02  0.81851811406E+02  0.51100000000E-03 0. -1.
     200002    1    4    4    0    0 -0.72105941620E+02 -0.39388754397E+01  0.81730297736E+02  0.11311331984E+03  0.30000000000E+02 0. -1.
     200000    1    3    3    0    0 -0.14132499537E+01  0.22040685587E+02  0.28334829832E+03  0.57512959171E+03  0.50000000000E+03 0.  1.
    -200001    1    1    2    0    0  0.42267951421E+01 -0.13408173227E+02 -0.27189722164E+03  0.75108304737E+03  0.70000000000E+03 0. -1.
<mgrwt>
<rscale>  0 0.15203602E+04</rscale>
<asrwt>0</asrwt>
<pdfrwt beam="1">  1        3 0.11221739E+00 0.15203602E+04</pdfrwt>
<pdfrwt beam="2">  1       -3 0.10509372E+00 0.15203602E+04</pdfrwt>
<totfact> 0.13154745E+00</totfact>
</mgrwt>
</event>
<event>
 8    1  0.1426346E-011  0.2856655E+04  0.7818608E-02  0.8285892E-01
          3   -1    0    0  501    0  0.00000000000E+00  0.00000000000E+00  0.52461899826E+03  0.52461900798E+03  0.10100000000E+00 0.  1.
         -3   -1    0    0    0  501 -0.00000000000E+00 -0.00000000000E+00 -0.38887641680E+04  0.38887641693E+04  0.10100000000E+00 0. -1.
     200001    2    1    2    0    0  0.10907161450E+04 -0.24817365854E+03 -0.84280102599E+03  0.15676094398E+04  0.70415475033E+03 0.  0.
    5000001    2    3    3    0    0  0.24608831478E+03 -0.40605320728E+02 -0.11725644111E+03  0.32950777547E+03  0.18060467981E+03 0.  0.
        -11    1    4    4    0    0  0.14722286919E+03 -0.34135996975E+02 -0.15764881561E+03  0.21838724451E+03  0.51100000000E-03 0. -1.
     200002    1    4    4    0    0  0.98865445589E+02 -0.64693237521E+01  0.40392374499E+02  0.11112053095E+03  0.30000000000E+02 0. -1.
     200000    1    3    3    0    0  0.84462783027E+03 -0.20756833782E+03 -0.72554458488E+03  0.12381016643E+04  0.50000000000E+03 0. -1.
    -200001    1    1    2    0    0 -0.10907161450E+04  0.24817365854E+03 -0.25213441437E+04  0.28457737375E+04  0.70000000000E+03 0. -1.
<mgrwt>
<rscale>  0 0.28566551E+04</rscale>
<asrwt>0</asrwt>
<pdfrwt beam="1">  1        3 0.74945575E-01 0.28566551E+04</pdfrwt>
<pdfrwt beam="2">  1       -3 0.55553772E+00 0.28566551E+04</pdfrwt>
<totfact> 0.59274624E-03</totfact>
</mgrwt>
</event>
<event>
 8    1  0.1426346E-011  0.2179304E+04  0.7818608E-02  0.8527092E-01
         -3   -1    0    0    0  501 -0.00000000000E+00  0.00000000000E+00  0.49967544810E+03  0.49967545831E+03  0.10100000000E+00 0. -1.
          3   -1    0    0  501    0  0.00000000000E+00 -0.00000000000E+00 -0.23762249003E+04  0.23762249025E+04  0.10100000000E+00 0.  1.
     200001    2    1    2    0    0  0.85962050567E+02  0.43761782065E+03 -0.81809865641E+01  0.83146900841E+03  0.70169434394E+03 0.  0.
    5000001    2    3    3    0    0 -0.31967884616E+02  0.12628893957E+03  0.27685490605E+02  0.22970531227E+03  0.18715555613E+03 0.  0.
        -11    1    4    4    0    0 -0.90444000382E+02  0.56641876658E+02  0.67199945287E+02  0.12611206145E+03  0.51100000000E-03 0. -1.
     200002    1    4    4    0    0  0.58476115765E+02  0.69647062909E+02 -0.39514454682E+02  0.10359325082E+03  0.30000000000E+02 0. -1.
     200000    1    3    3    0    0  0.11792993518E+03  0.31132888109E+03 -0.35866477169E+02  0.60176369614E+03  0.50000000000E+03 0. -1.
    -200001    1    1    2    0    0 -0.85962050567E+02 -0.43761782065E+03 -0.18683684657E+04  0.20444313524E+04  0.70000000000E+03 0.  1.
<mgrwt>
<rscale>  0 0.21793038E+04</rscale>
<asrwt>0</asrwt>
<pdfrwt beam="1">  1        3 0.33946070E+00 0.21793038E+04</pdfrwt>
<pdfrwt beam="2">  1       -3 0.71382209E-01 0.21793038E+04</pdfrwt>
<totfact> 0.10606654E-01</totfact>
</mgrwt>
</event>
<event>
 8    1  0.1426346E-011  0.1629830E+04  0.7818608E-02  0.8802429E-01
         -3   -1    0    0    0  501 -0.00000000000E+00  0.00000000000E+00  0.35593693306E+03  0.35593694739E+03  0.10100000000E+00 0.  1.
          3   -1    0    0  501    0  0.00000000000E+00 -0.00000000000E+00 -0.18657408313E+04  0.18657408341E+04  0.10100000000E+00 0. -1.
     200001    2    1    2    0    0  0.26850919891E+03  0.22747901866E+03 -0.44606744981E+03  0.90054980672E+03  0.69869155625E+03 0.  0.
    5000001    2    3    3    0    0  0.13246076212E+03  0.16292568373E+03 -0.22665560570E+03  0.33414194349E+03  0.12722988202E+03 0.  0.
        -11    1    4    4    0    0  0.46599764489E+02  0.13485055391E+03 -0.93952770400E+02  0.17083129984E+03  0.51100000000E-03 0. -1.
     200002    1    4    4    0    0  0.85860997634E+02  0.28075129823E+02 -0.13270283530E+03  0.16331064364E+03  0.30000000000E+02 0. -1.
     200000    1    3    3    0    0  0.13604843679E+03  0.64553334926E+02 -0.21941184410E+03  0.56640786324E+03  0.50000000000E+03 0.  1.
    -200001    1    1    2    0    0 -0.26850919891E+03 -0.22747901866E+03 -0.10637364485E+04  0.13211279747E+04  0.70000000000E+03 0. -1.
<mgrwt>
<rscale>  0 0.16298295E+04</rscale>
<asrwt>0</asrwt>
<pdfrwt beam="1">  1        3 0.26653440E+00 0.16298295E+04</pdfrwt>
<pdfrwt beam="2">  1       -3 0.50848135E-01 0.16298295E+04</pdfrwt>
<totfact> 0.57524401E-01</totfact>
</mgrwt>
</event>
<event>
 8    1  0.1426346E-011  0.1769370E+04  0.7818608E-02  0.8722760E-01
          3   -1    0    0  501    0  0.00000000000E+00  0.00000000000E+00  0.38993692756E+03  0.38993694064E+03  0.10100000000E+00 0.  1.
         -3   -1    0    0    0  501 -0.00000000000E+00 -0.00000000000E+00 -0.20071639625E+04  0.20071639650E+04  0.10100000000E+00 0. -1.
     200001    2    1    2    0    0  0.41656966702E+03 -0.34409736782E+03 -0.78450022437E+03  0.11824539499E+04  0.70058793572E+03 0.  0.
    5000001    2    3    3    0    0  0.13221865355E+03 -0.10919457110E+03 -0.24376867191E+03  0.35878809865E+03  0.19975111419E+03 0.  0.
        -11    1    4    4    0    0 -0.49353305297E+01 -0.11893324449E+03 -0.14098728723E+03  0.18451799179E+03  0.51100000000E-03 0. -1.
     200002    1    4    4    0    0  0.13715398408E+03  0.97386733897E+01 -0.10278138468E+03  0.17427010686E+03  0.30000000000E+02 0. -1.
     200000    1    3    3    0    0  0.28435101347E+03 -0.23490279672E+03 -0.54073155246E+03  0.82366585130E+03  0.50000000000E+03 0.  1.
    -200001    1    1    2    0    0 -0.41656966702E+03  0.34409736782E+03 -0.83272681054E+03  0.12146469557E+04  0.70000000000E+03 0. -1.
<mgrwt>
<rscale>  0 0.17693698E+04</rscale>
<asrwt>0</asrwt>
<pdfrwt beam="1">  1        3 0.55705278E-01 0.17693698E+04</pdfrwt>
<pdfrwt beam="2">  1       -3 0.28673770E+00 0.17693698E+04</pdfrwt>
<totfact> 0.35727686E-01</totfact>
</mgrwt>
</event>
<event>
 8    1  0.1426346E-011  0.1777037E+04  0.7818608E-02  0.8718607E-01
          3   -1    0    0  501    0  0.00000000000E+00  0.00000000000E+00  0.20861515538E+04  0.20861515563E+04  0.10100000000E+00 0.  1.
         -3   -1    0    0    0  501 -0.00000000000E+00 -0.00000000000E+00 -0.37843137283E+03  0.37843138631E+03  0.10100000000E+00 0. -1.
     200001    2    1    2    0    0 -0.50573781726E+03 -0.14720472990E+03  0.10601832273E+04  0.13752051024E+04  0.69982899761E+03 0.  0.
    5000001    2    3    3    0    0 -0.73858396991E+02  0.38884644718E+02  0.26921888259E+03  0.32793546968E+03  0.16761797974E+03 0.  0.
        -11    1    4    4    0    0 -0.10771095343E+03  0.44533966766E+02  0.10288294063E+03  0.15546646955E+03  0.51100000000E-03 0. -1.
     200002    1    4    4    0    0  0.33852556434E+02 -0.56493220484E+01  0.16633594196E+03  0.17246900013E+03  0.30000000000E+02 0. -1.
     200000    1    3    3    0    0 -0.43187942026E+03 -0.18608937461E+03  0.79096434474E+03  0.10472696327E+04  0.50000000000E+03 0.  1.
    -200001    1    1    2    0    0  0.50573781726E+03  0.14720472990E+03  0.64753695369E+03  0.10893778402E+04  0.70000000000E+03 0. -1.
<mgrwt>
<rscale>  0 0.17770371E+04</rscale>
<asrwt>0</asrwt>
<pdfrwt beam="1">  1        3 0.29802165E+00 0.17770371E+04</pdfrwt>
<pdfrwt beam="2">  1       -3 0.54061625E-01 0.17770371E+04</pdfrwt>
<totfact> 0.33428040E-01</totfact>
</mgrwt>
</event>
<event>
 8    1  0.1426346E-011  0.1903125E+04  0.7818608E-02  0.8653302E-01
          3   -1    0    0  501    0  0.00000000000E+00  0.00000000000E+00  0.48035046441E+03  0.48035047503E+03  0.10100000000E+00 0.  1.
         -3   -1    0    0    0  501 -0.00000000000E+00 -0.00000000000E+00 -0.18850224782E+04  0.18850224809E+04  0.10100000000E+00 0. -1.
     200001    2    1    2    0    0 -0.56725956261E+03  0.61815063409E+02 -0.10744675403E+04  0.14037911821E+04  0.70038894510E+03 0.  0.
    5000001    2    3    3    0    0 -0.20334243058E+03  0.72451836462E+01 -0.30390857448E+03  0.41425863058E+03  0.19454859189E+03 0.  0.
        -11    1    4    4    0    0 -0.84554051862E+02  0.60654656765E+02 -0.28121982343E+02  0.10779249030E+03  0.51100000000E-03 0. -1.
     200002    1    4    4    0    0 -0.11878837872E+03 -0.53409473119E+02 -0.27578659214E+03  0.30646614028E+03  0.30000000000E+02 0.  1.
     200000    1    3    3    0    0 -0.36391713203E+03  0.54569879763E+02 -0.77055896583E+03  0.98953255155E+03  0.50000000000E+03 0. -1.
    -200001    1    1    2    0    0  0.56725956261E+03 -0.61815063409E+02 -0.33020447352E+03  0.96158177384E+03  0.70000000000E+03 0.  1.
<mgrwt>
<rscale>  0 0.19031253E+04</rscale>
<asrwt>0</asrwt>
<pdfrwt beam="1">  1        3 0.68621497E-01 0.19031253E+04</pdfrwt>
<pdfrwt beam="2">  1       -3 0.26928892E+00 0.19031253E+04</pdfrwt>
<totfact> 0.28470621E-01</totfact>
</mgrwt>
</event>
<event>
 8    1  0.1426346E-011  0.1604830E+04  0.7818608E-02  0.8817586E-01
          3   -1    0    0  501    0  0.00000000000E+00  0.00000000000E+00  0.74111420754E+03  0.74111421443E+03  0.10100000000E+00 0.  1.
         -3   -1    0    0    0  501 -0.00000000000E+00 -0.00000000000E+00 -0.86878602561E+03  0.86878603148E+03  0.10100000000E+00 0. -1.
     200001    2    1    2    0    0  0.20611453704E+03  0.20607670435E+03  0.19781862753E+03  0.78473672233E+03  0.70123370108E+03 0.  0.
    5000001    2    3    3    0    0  0.15343482603E+02  0.12312992158E+03  0.13441178227E+03  0.23948981312E+03  0.15457180638E+03 0.  0.
        -11    1    4    4    0    0  0.77588747774E+02  0.96436295695E+02  0.91065145061E+02  0.15366467894E+03  0.51100000000E-03 0. -1.
     200002    1    4    4    0    0 -0.62245265171E+02  0.26693625886E+02  0.43346637213E+02  0.85825134179E+02  0.30000000000E+02 0. -1.
     200000    1    3    3    0    0  0.19077105444E+03  0.82946782772E+02  0.63406845257E+02  0.54524690921E+03  0.50000000000E+03 0.  1.
    -200001    1    1    2    0    0 -0.20611453704E+03 -0.20607670435E+03 -0.32549044560E+03  0.82516352357E+03  0.70000000000E+03 0. -1.
<mgrwt>
<rscale>  0 0.16048298E+04</rscale>
<asrwt>0</asrwt>
<pdfrwt beam="1">  1        3 0.10587346E+00 0.16048298E+04</pdfrwt>
<pdfrwt beam="2">  1       -3 0.12411229E+00 0.16048298E+04</pdfrwt>
<totfact> 0.10053473E+00</totfact>
</mgrwt>
</event>
<event>
 8    1  0.1426346E-011  0.1810798E+04  0.7818608E-02  0.8700578E-01
          3   -1    0    0  501    0  0.00000000000E+00  0.00000000000E+00  0.13911366163E+04  0.13911366200E+04  0.10100000000E+00 0.  1.
         -3   -1    0    0    0  501 -0.00000000000E+00 -0.00000000000E+00 -0.58926421416E+03  0.58926422281E+03  0.10100000000E+00 0. -1.
     200001    2    1    2    0    0  0.86479702205E+02  0.47079831327E+03  0.74865366684E+03  0.11307173579E+04  0.69922073765E+03 0.  0.
    5000001    2    3    3    0    0 -0.56907143749E+01  0.48616964665E+02  0.86223356743E+02  0.19501099771E+03  0.16792506810E+03 0.  0.
        -11    1    4    4    0    0  0.57450216694E+02  0.35828580427E+02  0.10179860451E+03  0.12225862118E+03  0.51100000000E-03 0. -1.
     200002    1    4    4    0    0 -0.63140931069E+02  0.12788384238E+02 -0.15575247764E+02  0.72752376529E+02  0.30000000000E+02 0. -1.
     200000    1    3    3    0    0  0.92170416580E+02  0.42218134860E+03  0.66243031010E+03  0.93570636021E+03  0.50000000000E+03 0.  1.
    -200001    1    1    2    0    0 -0.86479702205E+02 -0.47079831327E+03  0.53218735315E+02  0.84968348487E+03  0.70000000000E+03 0. -1.
<mgrwt>
<rscale>  0 0.18107977E+04</rscale>
<asrwt>0</asrwt>
<pdfrwt beam="1">  1        3 0.19873380E+00 0.18107977E+04</pdfrwt>
<pdfrwt beam="2">  1       -3 0.84180604E-01 0.18107977E+04</pdfrwt>
<totfact> 0.48349874E-01</totfact>
</mgrwt>
</event>
<event>
 8    1  0.1426346E-011  0.1648112E+04  0.7818608E-02  0.8791524E-01
          3   -1    0    0  501    0  0.00000000000E+00  0.00000000000E+00  0.10740704865E+04  0.10740704912E+04  0.10100000000E+00 0. -1.
         -3   -1    0    0    0  501 -0.00000000000E+00 -0.00000000000E+00 -0.63223825796E+03  0.63223826602E+03  0.10100000000E+00 0.  1.
     200001    2    1    2    0    0  0.29250102896E+03 -0.11905178086E+03 -0.88779487465E+02  0.77288550299E+03  0.69981427884E+03 0.  0.
    5000001    2    3    3    0    0  0.14742592772E+03 -0.54116299289E+02 -0.75908129050E+02  0.24807213270E+03  0.17639376677E+03 0.  0.
        -11    1    4    4    0    0  0.13915565296E+01  0.38229182178E+02 -0.61090928155E+02  0.72079874464E+02  0.51100000000E-03 0. -1.
     200002    1    4    4    0    0  0.14603437120E+03 -0.92345481467E+02 -0.14817200895E+02  0.17599225824E+03  0.30000000000E+02 0. -1.
     200000    1    3    3    0    0  0.14507510124E+03 -0.64935481570E+02 -0.12871358414E+02  0.52481337029E+03  0.50000000000E+03 0.  1.
    -200001    1    1    2    0    0 -0.29250102896E+03  0.11905178086E+03  0.53061171601E+03  0.93342325428E+03  0.70000000000E+03 0. -1.
<mgrwt>
<rscale>  0 0.16481122E+04</rscale>
<asrwt>0</asrwt>
<pdfrwt beam="1">  1        3 0.15343864E+00 0.16481122E+04</pdfrwt>
<pdfrwt beam="2">  1       -3 0.90319752E-01 0.16481122E+04</pdfrwt>
<totfact> 0.84887729E-01</totfact>
</mgrwt>
</event>
<event>
 8    1  0.1426346E-011  0.2373627E+04  0.7818608E-02  0.8449444E-01
         -3   -1    0    0    0  501 -0.00000000000E+00  0.00000000000E+00  0.57910397600E+03  0.57910398481E+03  0.10100000000E+00 0. -1.
          3   -1    0    0  501    0  0.00000000000E+00 -0.00000000000E+00 -0.24322503565E+04  0.24322503586E+04  0.10100000000E+00 0.  1.
     200001    2    1    2    0    0 -0.15191829098E+03  0.68411112745E+03 -0.97714287098E+02  0.99575789660E+03  0.70064149528E+03 0.  0.
    5000001    2    3    3    0    0 -0.30196457877E+02  0.32952275776E+03 -0.55993064943E+02  0.36942749102E+03  0.15441623572E+03 0.  0.
        -11    1    4    4    0    0 -0.71586881239E+02  0.15407134512E+03  0.20884043444E+02  0.17116893475E+03  0.51100000000E-03 0. -1.
     200002    1    4    4    0    0  0.41390423362E+02  0.17545141264E+03 -0.76877108387E+02  0.19825855628E+03  0.30000000000E+02 0. -1.
     200000    1    3    3    0    0 -0.12172183310E+03  0.35458836969E+03 -0.41721222155E+02  0.62633040558E+03  0.50000000000E+03 0. -1.
    -200001    1    1    2    0    0  0.15191829098E+03 -0.68411112745E+03 -0.17554320934E+04  0.20155964468E+04  0.70000000000E+03 0.  1.
<mgrwt>
<rscale>  0 0.23736267E+04</rscale>
<asrwt>0</asrwt>
<pdfrwt beam="1">  1        3 0.34746433E+00 0.23736267E+04</pdfrwt>
<pdfrwt beam="2">  1       -3 0.82729142E-01 0.23736267E+04</pdfrwt>
<totfact> 0.68074558E-02</totfact>
</mgrwt>
</event>
<event>
 8    1  0.1426346E-011  0.1546191E+04  0.7818608E-02  0.8854304E-01
         -3   -1    0    0    0  501 -0.00000000000E+00  0.00000000000E+00  0.31667005293E+03  0.31667006904E+03  0.10100000000E+00 0. -1.
          3   -1    0    0  501    0  0.00000000000E+00 -0.00000000000E+00 -0.18873803156E+04  0.18873803183E+04  0.10100000000E+00 0.  1.
     200001    2    1    2    0    0  0.28561304649E+03  0.85885045793E+02 -0.95937647707E+03  0.12279970841E+04  0.70613211249E+03 0.  0.
    5000001    2    3    3    0    0  0.86574809889E+02 -0.51876244940E+02 -0.18835729747E+03  0.27769977892E+03  0.17734811306E+03 0.  0.
        -11    1    4    4    0    0  0.82342816854E+02 -0.50097859244E+02 -0.21607519505E+03  0.23659802388E+03  0.51100000000E-03 0. -1.
     200002    1    4    4    0    0  0.42319930348E+01 -0.17783856959E+01  0.27717897581E+02  0.41101755036E+02  0.30000000000E+02 0. -1.
     200000    1    3    3    0    0  0.19903823660E+03  0.13776129073E+03 -0.77101917960E+03  0.95029730514E+03  0.50000000000E+03 0. -1.
    -200001    1    1    2    0    0 -0.28561304649E+03 -0.85885045793E+02 -0.61133378557E+03  0.97605330326E+03  0.70000000000E+03 0. -1.
<mgrwt>
<rscale>  0 0.15461912E+04</rscale>
<asrwt>0</asrwt>
<pdfrwt beam="1">  1        3 0.26962575E+00 0.15461912E+04</pdfrwt>
<pdfrwt beam="2">  1       -3 0.45238581E-01 0.15461912E+04</pdfrwt>
<totfact> 0.70590013E-01</totfact>
</mgrwt>
</event>
<event>
 8    1  0.1426346E-011  0.1817816E+04  0.7818608E-02  0.8696882E-01
          3   -1    0    0  501    0  0.00000000000E+00  0.00000000000E+00  0.31002407049E+03  0.31002408695E+03  0.10100000000E+00 0.  1.
         -3   -1    0    0    0  501 -0.00000000000E+00 -0.00000000000E+00 -0.26646747965E+04  0.26646747984E+04  0.10100000000E+00 0. -1.
     200001    2    1    2    0    0 -0.38798915474E+03 -0.16856529795E+03 -0.52768515043E+03  0.97301133277E+03  0.69953526848E+03 0.  0.
    5000001    2    3    3    0    0 -0.17562272267E+03 -0.10599634979E+03 -0.12688145330E+03  0.29503052303E+03  0.16989861518E+03 0.  0.
        -11    1    4    4    0    0 -0.21355104931E+01  0.38465256002E+02 -0.15753920164E+02  0.41621176403E+02  0.51100000000E-03 0. -1.
     200002    1    4    4    0    0 -0.17348721218E+03 -0.14446160579E+03 -0.11112753313E+03  0.25340934662E+03  0.30000000000E+02 0. -1.
     200000    1    3    3    0    0 -0.21236643207E+03 -0.62568948161E+02 -0.40080369714E+03  0.67798080974E+03  0.50000000000E+03 0.  1.
    -200001    1    1    2    0    0  0.38798915474E+03  0.16856529795E+03 -0.18269655756E+04  0.20016875526E+04  0.70000000000E+03 0. -1.
<mgrwt>
<rscale>  0 0.18178156E+04</rscale>
<asrwt>0</asrwt>
<pdfrwt beam="1">  1        3 0.44289156E-01 0.18178156E+04</pdfrwt>
<pdfrwt beam="2">  1       -3 0.38066782E+00 0.18178156E+04</pdfrwt>
<totfact> 0.17105915E-01</totfact>
</mgrwt>
</event>
<event>
 8    1  0.1426346E-011  0.2944173E+04  0.7818608E-02  0.8259855E-01
         -3   -1    0    0    0  501 -0.00000000000E+00  0.00000000000E+00  0.85369810148E+03  0.85369810746E+03  0.10100000000E+00 0.  1.
          3   -1    0    0  501    0  0.00000000000E+00 -0.00000000000E+00 -0.25384134246E+04  0.25384134266E+04  0.10100000000E+00 0. -1.
     200001    2    1    2    0    0 -0.81161274404E+03 -0.37285842363E+03  0.23881344987E+03  0.11587952576E+04  0.69859568763E+03 0.  0.
    5000001    2    3    3    0    0 -0.22767488360E+03 -0.35825097727E+02  0.10837774929E+03  0.30933168589E+03  0.17555929228E+03 0.  0.
        -11    1    4    4    0    0 -0.90663778946E+01 -0.43004155187E+02  0.73758684169E+02  0.85859769753E+02  0.51100000000E-03 0. -1.
     200002    1    4    4    0    0 -0.21860850570E+03  0.71790574599E+01  0.34619065118E+02  0.22347191614E+03  0.30000000000E+02 0. -1.
     200000    1    3    3    0    0 -0.58393786044E+03 -0.33703332590E+03  0.13043570059E+03  0.84946357168E+03  0.50000000000E+03 0.  1.
    -200001    1    1    2    0    0  0.81161274404E+03  0.37285842363E+03 -0.19235287730E+04  0.22333162765E+04  0.70000000000E+03 0. -1.
<mgrwt>
<rscale>  0 0.29441730E+04</rscale>
<asrwt>0</asrwt>
<pdfrwt beam="1">  1        3 0.36263049E+00 0.29441730E+04</pdfrwt>
<pdfrwt beam="2">  1       -3 0.12195687E+00 0.29441730E+04</pdfrwt>
<totfact> 0.21612202E-02</totfact>
</mgrwt>
</event>
<event>
 8    1  0.1426346E-011  0.2461979E+04  0.7818608E-02  0.8416657E-01
          3   -1    0    0  501    0  0.00000000000E+00  0.00000000000E+00  0.13163556556E+04  0.13163556595E+04  0.10100000000E+00 0.  1.
         -3   -1    0    0    0  501 -0.00000000000E+00 -0.00000000000E+00 -0.11511591431E+04  0.11511591475E+04  0.10100000000E+00 0. -1.
     200001    2    1    2    0    0 -0.96115604020E+03  0.28579389765E+03 -0.58645822696E+02  0.12242913852E+04  0.69996498321E+03 0.  0.
    5000001    2    3    3    0    0 -0.22065638349E+03  0.15388203244E+03 -0.88798397423E+02  0.32060468086E+03  0.15011091407E+03 0.  0.
        -11    1    4    4    0    0 -0.80663717930E+02  0.71654054249E+02  0.35891377825E+02  0.11370633176E+03  0.51100000000E-03 0. -1.
     200002    1    4    4    0    0 -0.13999266555E+03  0.82227978188E+02 -0.12468977525E+03  0.20689834909E+03  0.30000000000E+02 0. -1.
     200000    1    3    3    0    0 -0.74049965671E+03  0.13191186522E+03  0.30152574727E+02  0.90368670430E+03  0.50000000000E+03 0.  1.
    -200001    1    1    2    0    0  0.96115604020E+03 -0.28579389765E+03  0.22384233525E+03  0.12432234218E+04  0.70000000000E+03 0. -1.
<mgrwt>
<rscale>  0 0.24619788E+04</rscale>
<asrwt>0</asrwt>
<pdfrwt beam="1">  1        3 0.18805081E+00 0.24619788E+04</pdfrwt>
<pdfrwt beam="2">  1       -3 0.16445131E+00 0.24619788E+04</pdfrwt>
<totfact> 0.10458649E-01</totfact>
</mgrwt>
</event>
<event>
 8    1  0.1426346E-011  0.1549838E+04  0.7818608E-02  0.8851971E-01
         -3   -1    0    0    0  501 -0.00000000000E+00  0.00000000000E+00  0.57699983379E+03  0.57699984263E+03  0.10100000000E+00 0. -1.
          3   -1    0    0  501    0  0.00000000000E+00 -0.00000000000E+00 -0.10407276490E+04  0.10407276539E+04  0.10100000000E+00 0.  1.
     200001    2    1    2    0    0 -0.67546313537E+02  0.47074005573E+02  0.99674756855E+02  0.71539666769E+03  0.70361841115E+03 0.  0.
    5000001    2    3    3    0    0  0.10476053839E+03 -0.24366897854E+02  0.77163292274E+02  0.18126164736E+03  0.12382687517E+03 0.  0.
        -11    1    4    4    0    0 -0.12165292295E+02  0.19323647772E+02 -0.11180822649E+02  0.25424564799E+02  0.51100000000E-03 0. -1.
     200002    1    4    4    0    0  0.11692583069E+03 -0.43690545626E+02  0.88344114923E+02  0.15583708256E+03  0.30000000000E+02 0. -1.
     200000    1    3    3    0    0 -0.17230685193E+03  0.71440903427E+02  0.22511464582E+02  0.53413502033E+03  0.50000000000E+03 0. -1.
    -200001    1    1    2    0    0  0.67546313537E+02 -0.47074005573E+02 -0.56340257209E+03  0.90233082886E+03  0.70000000000E+03 0.  1.
<mgrwt>
<rscale>  0 0.15498383E+04</rscale>
<asrwt>0</asrwt>
<pdfrwt beam="1">  1        3 0.14867538E+00 0.15498383E+04</pdfrwt>
<pdfrwt beam="2">  1       -3 0.82428549E-01 0.15498383E+04</pdfrwt>
<totfact> 0.11417097E+00</totfact>
</mgrwt>
</event>
<event>
 8    1  0.1426346E-011  0.1651628E+04  0.7818608E-02  0.8789444E-01
          3   -1    0    0  501    0  0.00000000000E+00  0.00000000000E+00  0.74317907475E+03  0.74317908161E+03  0.10100000000E+00 0.  1.
         -3   -1    0    0    0  501 -0.00000000000E+00 -0.00000000000E+00 -0.91763725083E+03  0.91763725639E+03  0.10100000000E+00 0. -1.
     200001    2    1    2    0    0  0.25499193845E+03 -0.91938739288E+02  0.25846505958E+03  0.79427369714E+03  0.70042337089E+03 0.  0.
    5000001    2    3    3    0    0  0.18396816587E+03  0.14944684417E+01  0.76362745726E+02  0.24935591133E+03  0.15000194030E+03 0.  0.
        -11    1    4    4    0    0  0.17143443235E+03  0.33548315378E+02  0.18519983142E+02  0.17566514690E+03  0.51100000000E-03 0. -1.
     200002    1    4    4    0    0  0.12533733520E+02 -0.32053846936E+02  0.57842762585E+02  0.73690764433E+02  0.30000000000E+02 0. -1.
     200000    1    3    3    0    0  0.71023772581E+02 -0.93433207730E+02  0.18210231385E+03  0.54491778581E+03  0.50000000000E+03 0. -1.
    -200001    1    1    2    0    0 -0.25499193845E+03  0.91938739288E+02 -0.43292323567E+03  0.86654264086E+03  0.70000000000E+03 0.  1.
<mgrwt>
<rscale>  0 0.16516281E+04</rscale>
<asrwt>0</asrwt>
<pdfrwt beam="1">  1        3 0.10616844E+00 0.16516281E+04</pdfrwt>
<pdfrwt beam="2">  1       -3 0.13109104E+00 0.16516281E+04</pdfrwt>
<totfact> 0.86890561E-01</totfact>
</mgrwt>
</event>
<event>
 8    1  0.1426346E-011  0.1799748E+04  0.7818608E-02  0.8706434E-01
         -3   -1    0    0    0  501 -0.00000000000E+00  0.00000000000E+00  0.24617498125E+04  0.24617498146E+04  0.10100000000E+00 0. -1.
          3   -1    0    0  501    0  0.00000000000E+00 -0.00000000000E+00 -0.32894202154E+03  0.32894203705E+03  0.10100000000E+00 0.  1.
     200001    2    1    2    0    0  0.24049933825E+03 -0.14954742867E+03  0.18246885869E+04  0.19751295861E+04  0.70103072513E+03 0.  0.
    5000001    2    3    3    0    0  0.67649990483E+02 -0.71890098868E+02  0.44030748012E+03  0.49107480048E+03  0.19375003249E+03 0.  0.
        -11    1    4    4    0    0  0.49067919415E+02  0.26685269769E+02  0.34499700717E+03  0.34948919768E+03  0.51100000000E-03 0. -1.
     200002    1    4    4    0    0  0.18582071068E+02 -0.98575368637E+02  0.95310472958E+02  0.14158560281E+03  0.30000000000E+02 0. -1.
     200000    1    3    3    0    0  0.17284934776E+03 -0.77657329806E+02  0.13843811067E+04  0.14840547856E+04  0.50000000000E+03 0. -1.
    -200001    1    1    2    0    0 -0.24049933825E+03  0.14954742867E+03  0.30811920414E+03  0.81556226560E+03  0.70000000000E+03 0.  1.
<mgrwt>
<rscale>  0 0.17997477E+04</rscale>
<asrwt>0</asrwt>
<pdfrwt beam="1">  1        3 0.46991720E-01 0.17997477E+04</pdfrwt>
<pdfrwt beam="2">  1       -3 0.35167854E+00 0.17997477E+04</pdfrwt>
<totfact> 0.21992142E-01</totfact>
</mgrwt>
</event>
<event>
 8    1  0.1426346E-011  0.2024210E+04  0.7818608E-02  0.8595385E-01
         -3   -1    0    0    0  501 -0.00000000000E+00  0.00000000000E+00  0.46024634526E+03  0.46024635634E+03  0.10100000000E+00 0. -1.
          3   -1    0    0  501    0  0.00000000000E+00 -0.00000000000E+00 -0.22256693250E+04  0.22256693273E+04  0.10100000000E+00 0.  1.
     200001    2    1    2    0    0  0.15210006129E+03  0.63136382275E+03 -0.13283217019E+04  0.16357670120E+04  0.69967168638E+03 0.  0.
    5000001    2    3    3    0    0 -0.18172270928E+02  0.22683192385E+03 -0.34481298055E+03  0.44836306677E+03  0.17421393451E+03 0.  0.
        -11    1    4    4    0    0  0.66245225290E+02  0.39331252966E+02 -0.11618912834E+03  0.13941051208E+03  0.51100000000E-03 0. -1.
     200002    1    4    4    0    0 -0.84417496218E+02  0.18750067089E+03 -0.22862385221E+03  0.30895255469E+03  0.30000000000E+02 0. -1.
     200000    1    3    3    0    0  0.17027233222E+03  0.40453189890E+03 -0.98350872131E+03  0.11874039453E+04  0.50000000000E+03 0.  1.
    -200001    1    1    2    0    0 -0.15210006129E+03 -0.63136382275E+03 -0.43710127790E+03  0.10501486716E+04  0.70000000000E+03 0. -1.
<mgrwt>
<rscale>  0 0.20242097E+04</rscale>
<asrwt>0</asrwt>
<pdfrwt beam="1">  1        3 0.31795276E+00 0.20242097E+04</pdfrwt>
<pdfrwt beam="2">  1       -3 0.65749480E-01 0.20242097E+04</pdfrwt>
<totfact> 0.16823665E-01</totfact>
</mgrwt>
</event>
<event>
 8    1  0.1426346E-011  0.1943547E+04  0.7818608E-02  0.8633479E-01
         -3   -1    0    0    0  501 -0.00000000000E+00  0.00000000000E+00  0.19461346111E+04  0.19461346138E+04  0.10100000000E+00 0. -1.
          3   -1    0    0  501    0  0.00000000000E+00 -0.00000000000E+00 -0.48524088098E+03  0.48524089149E+03  0.10100000000E+00 0.  1.
     200001    2    1    2    0    0 -0.48547803470E+03 -0.16642311175E+03  0.18431745754E+03  0.88766809964E+03  0.70042569603E+03 0.  0.
    5000001    2    3    3    0    0 -0.17437306713E+03  0.57387946774E+01 -0.69645718525E+02  0.22364752942E+03  0.12136223054E+03 0.  0.
        -11    1    4    4    0    0 -0.99966039976E+02  0.56167602456E+02 -0.56989116111E+02  0.12804596077E+03  0.51100000000E-03 0. -1.
     200002    1    4    4    0    0 -0.74407027155E+02 -0.50428807778E+02 -0.12656602414E+02  0.95601568652E+02  0.30000000000E+02 0. -1.
     200000    1    3    3    0    0 -0.31110496757E+03 -0.17216190643E+03  0.25396317606E+03  0.66402057022E+03  0.50000000000E+03 0.  1.
    -200001    1    1    2    0    0  0.48547803470E+03  0.16642311175E+03  0.12765762726E+04  0.15437074056E+04  0.70000000000E+03 0. -1.
<mgrwt>
<rscale>  0 0.19435474E+04</rscale>
<asrwt>0</asrwt>
<pdfrwt beam="1">  1        3 0.69320125E-01 0.19435474E+04</pdfrwt>
<pdfrwt beam="2">  1       -3 0.27801924E+00 0.19435474E+04</pdfrwt>
<totfact> 0.24764937E-01</totfact>
</mgrwt>
</event>
<event>
 8    1  0.1426346E-011  0.2008384E+04  0.7818608E-02  0.8602711E-01
         -3   -1    0    0    0  501 -0.00000000000E+00  0.00000000000E+00  0.16834118081E+04  0.16834118112E+04  0.10100000000E+00 0. -1.
          3   -1    0    0  501    0  0.00000000000E+00 -0.00000000000E+00 -0.59902260320E+03  0.59902261171E+03  0.10100000000E+00 0.  1.
     200001    2    1    2    0    0  0.12679190846E+03  0.47259222712E+03 -0.58675426832E+02  0.85554397383E+03  0.69935190301E+03 0.  0.
    5000001    2    3    3    0    0  0.14296593785E+03  0.10519950557E+03 -0.19854079104E+02  0.23365482927E+03  0.15064594062E+03 0.  0.
        -11    1    4    4    0    0 -0.25093204748E+02  0.33172913730E+02 -0.24564902384E+02  0.48306785851E+02  0.51100000000E-03 0. -1.
     200002    1    4    4    0    0  0.16805914260E+03  0.72026591841E+02  0.47108232798E+01  0.18534804342E+03  0.30000000000E+02 0. -1.
     200000    1    3    3    0    0 -0.16174029395E+02  0.36739272155E+03 -0.38821347728E+02  0.62188914456E+03  0.50000000000E+03 0.  1.
    -200001    1    1    2    0    0 -0.12679190846E+03 -0.47259222712E+03  0.11430646318E+04  0.14268904491E+04  0.70000000000E+03 0. -1.
<mgrwt>
<rscale>  0 0.20083842E+04</rscale>
<asrwt>0</asrwt>
<pdfrwt beam="1">  1        3 0.85574658E-01 0.20083842E+04</pdfrwt>
<pdfrwt beam="2">  1       -3 0.24048740E+00 0.20083842E+04</pdfrwt>
<totfact> 0.25403451E-01</totfact>
</mgrwt>
</event>
<event>
 8    1  0.1426346E-011  0.1743506E+04  0.7818608E-02  0.8736933E-01
          3   -1    0    0  501    0  0.00000000000E+00  0.00000000000E+00  0.15584917293E+04  0.15584917325E+04  0.10100000000E+00 0.  1.
         -3   -1    0    0    0  501 -0.00000000000E+00 -0.00000000000E+00 -0.48762113057E+03  0.48762114103E+03  0.10100000000E+00 0. -1.
     200001    2    1    2    0    0 -0.45100887264E+03  0.13487356455E+03  0.27672773972E+03  0.88755223118E+03  0.69969338966E+03 0.  0.
    5000001    2    3    3    0    0 -0.75382065540E+02  0.14721769954E+03  0.81403811223E+02  0.23226655842E+03  0.14129991797E+03 0.  0.
        -11    1    4    4    0    0 -0.18283213226E+02  0.15172169165E+03  0.59638016320E+02  0.16404402030E+03  0.51100000000E-03 0. -1.
     200002    1    4    4    0    0 -0.57098852314E+02 -0.45039921185E+01  0.21765794903E+02  0.68222538126E+02  0.30000000000E+02 0. -1.
     200000    1    3    3    0    0 -0.37562680710E+03 -0.12344134983E+02  0.19532392849E+03  0.65528567276E+03  0.50000000000E+03 0. -1.
    -200001    1    1    2    0    0  0.45100887264E+03 -0.13487356455E+03  0.79414285897E+03  0.11585606424E+04  0.70000000000E+03 0. -1.
<mgrwt>
<rscale>  0 0.17435063E+04</rscale>
<asrwt>0</asrwt>
<pdfrwt beam="1">  1        3 0.22264167E+00 0.17435063E+04</pdfrwt>
<pdfrwt beam="2">  1       -3 0.69660163E-01 0.17435063E+04</pdfrwt>
<totfact> 0.52668448E-01</totfact>
</mgrwt>
</event>
<event>
 8    1  0.1426346E-011  0.1953829E+04  0.7818608E-02  0.8628516E-01
          3   -1    0    0  501    0  0.00000000000E+00  0.00000000000E+00  0.84511882496E+03  0.84511883099E+03  0.10100000000E+00 0.  1.
         -3   -1    0    0    0  501 -0.00000000000E+00 -0.00000000000E+00 -0.11292641430E+04  0.11292641475E+04  0.10100000000E+00 0. -1.
     200001    2    1    2    0    0  0.36476331364E+03 -0.56402514328E+03 -0.26188321790E+02  0.97053117214E+03  0.70004877735E+03 0.  0.
    5000001    2    3    3    0    0  0.11933727264E+01 -0.10721622045E+03  0.86934595786E+02  0.19357925059E+03  0.13571499641E+03 0.  0.
        -11    1    4    4    0    0  0.70461899575E+01 -0.17177045518E+02 -0.34600877625E+02  0.39267294513E+02  0.51100000000E-03 0. -1.
     200002    1    4    4    0    0 -0.58528172311E+01 -0.90039174931E+02  0.12153547341E+03  0.15431195608E+03  0.30000000000E+02 0. -1.
     200000    1    3    3    0    0  0.36356994091E+03 -0.45680892283E+03 -0.11312291758E+03  0.77695192155E+03  0.50000000000E+03 0.  1.
    -200001    1    1    2    0    0 -0.36476331364E+03  0.56402514328E+03 -0.25795699625E+03  0.10038518064E+04  0.70000000000E+03 0. -1.
<mgrwt>
<rscale>  0 0.19538295E+04</rscale>
<asrwt>0</asrwt>
<pdfrwt beam="1">  1        3 0.12073126E+00 0.19538295E+04</pdfrwt>
<pdfrwt beam="2">  1       -3 0.16132345E+00 0.19538295E+04</pdfrwt>
<totfact> 0.36503779E-01</totfact>
</mgrwt>
</event>
<event>
 8    1  0.1426346E-011  0.1563717E+04  0.7818608E-02  0.8843153E-01
         -3   -1    0    0    0  501 -0.00000000000E+00  0.00000000000E+00  0.65823802106E+03  0.65823802881E+03  0.10100000000E+00 0. -1.
          3   -1    0    0  501    0  0.00000000000E+00 -0.00000000000E+00 -0.92869561200E+03  0.92869561749E+03  0.10100000000E+00 0.  1.
     200001    2    1    2    0    0 -0.24790625608E+03 -0.23954825468E+03 -0.77848259712E+02  0.78323019814E+03  0.69896231201E+03 0.  0.
    5000001    2    3    3    0    0 -0.29438470286E+02 -0.30815832738E+02  0.47886709055E+02  0.18564616240E+03  0.17422721266E+03 0.  0.
        -11    1    4    4    0    0  0.18053608199E+02  0.46388050772E+02  0.71661305039E+02  0.87253232969E+02  0.51100000000E-03 0. -1.
     200002    1    4    4    0    0 -0.47492078485E+02 -0.77203883510E+02 -0.23774595984E+02  0.98392929431E+02  0.30000000000E+02 0. -1.
     200000    1    3    3    0    0 -0.21846778579E+03 -0.20873242194E+03 -0.12573496877E+03  0.59758403574E+03  0.50000000000E+03 0.  1.
    -200001    1    1    2    0    0  0.24790625608E+03  0.23954825468E+03 -0.19260933122E+03  0.80370344817E+03  0.70000000000E+03 0. -1.
<mgrwt>
<rscale>  0 0.15637171E+04</rscale>
<asrwt>0</asrwt>
<pdfrwt beam="1">  1        3 0.13267080E+00 0.15637171E+04</pdfrwt>
<pdfrwt beam="2">  1       -3 0.94034004E-01 0.15637171E+04</pdfrwt>
<totfact> 0.11291727E+00</totfact>
</mgrwt>
</event>
<event>
 8    1  0.1426346E-011  0.2656235E+04  0.7818608E-02  0.8349346E-01
         -3   -1    0    0    0  501 -0.00000000000E+00  0.00000000000E+00  0.16915158884E+04  0.16915158915E+04  0.10100000000E+00 0. -1.
          3   -1    0    0  501    0  0.00000000000E+00 -0.00000000000E+00 -0.10427903896E+04  0.10427903945E+04  0.10100000000E+00 0.  1.
     200001    2    1    2    0    0  0.78916936676E+03 -0.54477736248E+01  0.11549912164E+04  0.15642110144E+04  0.69995244133E+03 0.  0.
    5000001    2    3    3    0    0  0.24569484164E+03 -0.40046840204E+02  0.33374233280E+03  0.45921717571E+03  0.19371826229E+03 0.  0.
        -11    1    4    4    0    0  0.20397479560E+03 -0.42679950965E+02  0.12235308442E+03  0.24165589734E+03  0.51100000000E-03 0. -1.
     200002    1    4    4    0    0  0.41720046043E+02  0.26331107613E+01  0.21138924838E+03  0.21756127836E+03  0.30000000000E+02 0. -1.
     200000    1    3    3    0    0  0.54347452512E+03  0.34599066579E+02  0.82124888356E+03  0.11049938387E+04  0.50000000000E+03 0. -1.
    -200001    1    1    2    0    0 -0.78916936676E+03  0.54477736248E+01 -0.50626571748E+03  0.11700952715E+04  0.70000000000E+03 0.  1.
<mgrwt>
<rscale>  0 0.26562353E+04</rscale>
<asrwt>0</asrwt>
<pdfrwt beam="1">  1        3 0.14897006E+00 0.26562353E+04</pdfrwt>
<pdfrwt beam="2">  1       -3 0.24164513E+00 0.26562353E+04</pdfrwt>
<totfact> 0.62321664E-02</totfact>
</mgrwt>
</event>
<event>
 8    1  0.1426346E-011  0.1779524E+04  0.7818608E-02  0.8717265E-01
         -3   -1    0    0    0  501 -0.00000000000E+00  0.00000000000E+00  0.76765908592E+03  0.76765909256E+03  0.10100000000E+00 0. -1.
          3   -1    0    0  501    0  0.00000000000E+00 -0.00000000000E+00 -0.10312866304E+04  0.10312866353E+04  0.10100000000E+00 0.  1.
     200001    2    1    2    0    0 -0.24244330240E+03  0.47485442062E+03 -0.26523880521E+03  0.91902069026E+03  0.69998709251E+03 0.  0.
    5000001    2    3    3    0    0 -0.19568049972E+02  0.14350322730E+03 -0.21843676143E+02  0.23439803484E+03  0.18300056755E+03 0.  0.
        -11    1    4    4    0    0  0.12838281815E+02  0.11761714465E+03  0.63951174779E+02  0.13449299963E+03  0.51100000000E-03 0. -1.
     200002    1    4    4    0    0 -0.32406331787E+02  0.25886082653E+02 -0.85794850922E+02  0.99905035207E+02  0.30000000000E+02 0. -1.
     200000    1    3    3    0    0 -0.22287525243E+03  0.33135119332E+03 -0.24339512907E+03  0.68462265542E+03  0.50000000000E+03 0.  1.
    -200001    1    1    2    0    0  0.24244330240E+03 -0.47485442062E+03  0.16112607624E+01  0.87992503762E+03  0.70000000000E+03 0. -1.
<mgrwt>
<rscale>  0 0.17795242E+04</rscale>
<asrwt>0</asrwt>
<pdfrwt beam="1">  1        3 0.14732666E+00 0.17795242E+04</pdfrwt>
<pdfrwt beam="2">  1       -3 0.10966558E+00 0.17795242E+04</pdfrwt>
<totfact> 0.59298374E-01</totfact>
</mgrwt>
</event>
<event>
 8    1  0.1426346E-011  0.2122258E+04  0.7818608E-02  0.8551501E-01
          3   -1    0    0  501    0  0.00000000000E+00  0.00000000000E+00  0.23129373232E+04  0.23129373255E+04  0.10100000000E+00 0.  1.
         -3   -1    0    0    0  501 -0.00000000000E+00 -0.00000000000E+00 -0.48682468067E+03  0.48682469115E+03  0.10100000000E+00 0. -1.
     200001    2    1    2    0    0 -0.51573520263E+02 -0.97484325848E+02  0.19549787893E+04  0.20795054612E+04  0.70016989006E+03 0.  0.
    5000001    2    3    3    0    0 -0.13013208433E+03 -0.85764801695E+02  0.48588627819E+03  0.52562592877E+03  0.12612367376E+03 0.  0.
        -11    1    4    4    0    0 -0.15782485788E+02 -0.43031306201E+02  0.35353510639E+02  0.57884807038E+02  0.51100000000E-03 0. -1.
     200002    1    4    4    0    0 -0.11434959854E+03 -0.42733495494E+02  0.45053276755E+03  0.46774112173E+03  0.30000000000E+02 0. -1.
     200000    1    3    3    0    0  0.78558564063E+02 -0.11719524152E+02  0.14690925111E+04  0.15538795325E+04  0.50000000000E+03 0.  1.
    -200001    1    1    2    0    0  0.51573520263E+02  0.97484325848E+02 -0.12886614672E+03  0.72025655537E+03  0.70000000000E+03 0. -1.
<mgrwt>
<rscale>  0 0.21222582E+04</rscale>
<asrwt>0</asrwt>
<pdfrwt beam="1">  1        3 0.33041962E+00 0.21222582E+04</pdfrwt>
<pdfrwt beam="2">  1       -3 0.69546384E-01 0.21222582E+04</pdfrwt>
<totfact> 0.12633350E-01</totfact>
</mgrwt>
</event>
<event>
 8    1  0.1426346E-011  0.1693915E+04  0.7818608E-02  0.8764842E-01
         -3   -1    0    0    0  501 -0.00000000000E+00  0.00000000000E+00  0.16858764431E+04  0.16858764462E+04  0.10100000000E+00 0. -1.
          3   -1    0    0  501    0  0.00000000000E+00 -0.00000000000E+00 -0.42549795087E+03  0.42549796285E+03  0.10100000000E+00 0.  1.
     200001    2    1    2    0    0  0.42722235483E+03  0.11266374857E+03  0.85259801102E+03  0.11886084682E+04  0.70046745927E+03 0.  0.
    5000001    2    3    3    0    0  0.14964322968E+03  0.18857465507E+02  0.10992463028E+03  0.24658217346E+03  0.16115409933E+03 0.  0.
        -11    1    4    4    0    0 -0.94832932948E+01  0.42827831268E+02 -0.83202739766E+01  0.44647317301E+02  0.51100000000E-03 0. -1.
     200002    1    4    4    0    0  0.15912652298E+03 -0.23970365761E+02  0.11824490426E+03  0.20193485616E+03  0.30000000000E+02 0. -1.
     200000    1    3    3    0    0  0.27757912514E+03  0.93806283065E+02  0.74267338074E+03  0.94202629470E+03  0.50000000000E+03 0. -1.
    -200001    1    1    2    0    0 -0.42722235483E+03 -0.11266374857E+03  0.40778048126E+03  0.92276594085E+03  0.70000000000E+03 0.  1.
<mgrwt>
<rscale>  0 0.16939150E+04</rscale>
<asrwt>0</asrwt>
<pdfrwt beam="1">  1        3 0.60785424E-01 0.16939150E+04</pdfrwt>
<pdfrwt beam="2">  1       -3 0.24083949E+00 0.16939150E+04</pdfrwt>
<totfact> 0.54796733E-01</totfact>
</mgrwt>
</event>
<event>
 8    1  0.1426346E-011  0.1562618E+04  0.7818608E-02  0.8843848E-01
          3   -1    0    0  501    0  0.00000000000E+00  0.00000000000E+00  0.23957751628E+04  0.23957751649E+04  0.10100000000E+00 0.  1.
         -3   -1    0    0    0  501 -0.00000000000E+00 -0.00000000000E+00 -0.25480016263E+03  0.25480018265E+03  0.10100000000E+00 0. -1.
     200001    2    1    2    0    0  0.26588775659E+03 -0.91915259576E+02  0.14141035302E+04  0.16029652828E+04  0.70047426046E+03 0.  0.
    5000001    2    3    3    0    0  0.26376749323E+02 -0.11660503996E+03  0.21813817647E+03  0.28451610468E+03  0.13810387953E+03 0.  0.
        -11    1    4    4    0    0 -0.29490191114E+02 -0.58864414732E+02  0.17807843593E+03  0.18985947444E+03  0.51100000000E-03 0. -1.
     200002    1    4    4    0    0  0.55866940438E+02 -0.57740625229E+02  0.40059740547E+02  0.94656630240E+02  0.30000000000E+02 0. -1.
     200000    1    3    3    0    0  0.23951100726E+03  0.24689780384E+02  0.11959653537E+04  0.13184491781E+04  0.50000000000E+03 0.  1.
    -200001    1    1    2    0    0 -0.26588775659E+03  0.91915259576E+02  0.72687146995E+03  0.10476100648E+04  0.70000000000E+03 0.  1.
<mgrwt>
<rscale>  0 0.15626182E+04</rscale>
<asrwt>0</asrwt>
<pdfrwt beam="1">  1        3 0.34225358E+00 0.15626182E+04</pdfrwt>
<pdfrwt beam="2">  1       -3 0.36400026E-01 0.15626182E+04</pdfrwt>
<totfact> 0.43290967E-01</totfact>
</mgrwt>
</event>
<event>
 8    1  0.1426346E-011  0.2304679E+04  0.7818608E-02  0.8476079E-01
          3   -1    0    0  501    0  0.00000000000E+00  0.00000000000E+00  0.21456871089E+04  0.21456871113E+04  0.10100000000E+00 0.  1.
         -3   -1    0    0    0  501 -0.00000000000E+00 -0.00000000000E+00 -0.61886285420E+03  0.61886286244E+03  0.10100000000E+00 0. -1.
     200001    2    1    2    0    0  0.63501187617E+03  0.36627017307E+01  0.15537049797E+04  0.18190468951E+04  0.70119822048E+03 0.  0.
    5000001    2    3    3    0    0  0.24918316997E+03 -0.12954250510E+02  0.45692188349E+03  0.55331664195E+03  0.18740766752E+03 0.  0.
        -11    1    4    4    0    0  0.14544856735E+03  0.23809083934E+02  0.39906394842E+03  0.42541061711E+03  0.51100000000E-03 0. -1.
     200002    1    4    4    0    0  0.10373460261E+03 -0.36763334444E+02  0.57857935064E+02  0.12790602483E+03  0.30000000000E+02 0. -1.
     200000    1    3    3    0    0  0.38582870620E+03  0.16616952240E+02  0.10967830962E+04  0.12657302532E+04  0.50000000000E+03 0.  1.
    -200001    1    1    2    0    0 -0.63501187617E+03 -0.36627017307E+01 -0.26880725020E+02  0.94550307860E+03  0.70000000000E+03 0. -1.
<mgrwt>
<rscale>  0 0.23046788E+04</rscale>
<asrwt>0</asrwt>
<pdfrwt beam="1">  1        3 0.30652674E+00 0.23046788E+04</pdfrwt>
<pdfrwt beam="2">  1       -3 0.88408978E-01 0.23046788E+04</pdfrwt>
<totfact> 0.98560529E-02</totfact>
</mgrwt>
</event>
<event>
 8    1  0.1426346E-011  0.1621855E+04  0.7818608E-02  0.8807233E-01
          3   -1    0    0  501    0  0.00000000000E+00  0.00000000000E+00  0.27141462704E+03  0.27141464583E+03  0.10100000000E+00 0. -1.
         -3   -1    0    0    0  501 -0.00000000000E+00 -0.00000000000E+00 -0.24228724531E+04  0.24228724552E+04  0.10100000000E+00 0.  1.
     200001    2    1    2    0    0  0.51356634754E+02 -0.21175643007E+03 -0.16516025591E+04  0.18069689070E+04  0.69990522782E+03 0.  0.
    5000001    2    3    3    0    0  0.16053496693E+03 -0.60387537662E+02 -0.38208782272E+03  0.42983415842E+03  0.96685930497E+02 0.  0.
        -11    1    4    4    0    0  0.93951929582E+01  0.19254913946E+02 -0.25558944973E+02  0.33350877503E+02  0.51100000000E-03 0. -1.
     200002    1    4    4    0    0  0.15113977397E+03 -0.79642451608E+02 -0.35652887775E+03  0.39648328091E+03  0.30000000000E+02 0. -1.
     200000    1    3    3    0    0 -0.10917833217E+03 -0.15136889241E+03 -0.12695147364E+04  0.13771347486E+04  0.50000000000E+03 0.  1.
    -200001    1    1    2    0    0 -0.51356634754E+02  0.21175643007E+03 -0.49985526697E+03  0.88731819407E+03  0.70000000000E+03 0. -1.
<mgrwt>
<rscale>  0 0.16218546E+04</rscale>
<asrwt>0</asrwt>
<pdfrwt beam="1">  1        3 0.38773521E-01 0.16218546E+04</pdfrwt>
<pdfrwt beam="2">  1       -3 0.34612463E+00 0.16218546E+04</pdfrwt>
<totfact> 0.35215555E-01</totfact>
</mgrwt>
</event>
<event>
 8    1  0.1426346E-011  0.2031086E+04  0.7818608E-02  0.8592223E-01
          3   -1    0    0  501    0  0.00000000000E+00  0.00000000000E+00  0.74712373931E+03  0.74712374614E+03  0.10100000000E+00 0.  1.
         -3   -1    0    0    0  501 -0.00000000000E+00 -0.00000000000E+00 -0.13803971574E+04  0.13803971611E+04  0.10100000000E+00 0. -1.
     200001    2    1    2    0    0 -0.61925579063E+03  0.39633701442E+03 -0.32388715180E+03  0.10662572147E+04  0.70102838576E+03 0.  0.
    5000001    2    3    3    0    0 -0.12765369959E+03  0.68706956779E+02 -0.37671579466E+02  0.24107031201E+03  0.18889053577E+03 0.  0.
        -11    1    4    4    0    0 -0.88133070975E+02 -0.16812430495E+02 -0.91790217305E+02  0.12835708010E+03  0.51100000000E-03 0. -1.
     200002    1    4    4    0    0 -0.39520628618E+02  0.85519387274E+02  0.54118637839E+02  0.11271323191E+03  0.30000000000E+02 0. -1.
     200000    1    3    3    0    0 -0.49160209104E+03  0.32763005764E+03 -0.28621557234E+03  0.82518690272E+03  0.50000000000E+03 0.  1.
    -200001    1    1    2    0    0  0.61925579063E+03 -0.39633701442E+03 -0.30938626627E+03  0.10612636925E+04  0.70000000000E+03 0. -1.
<mgrwt>
<rscale>  0 0.20310859E+04</rscale>
<asrwt>0</asrwt>
<pdfrwt beam="1">  1        3 0.10673196E+00 0.20310859E+04</pdfrwt>
<pdfrwt beam="2">  1       -3 0.19719959E+00 0.20310859E+04</pdfrwt>
<totfact> 0.27923932E-01</totfact>
</mgrwt>
</event>
<event>
 8    1  0.1426346E-011  0.1525224E+04  0.7818608E-02  0.8867850E-01
          3   -1    0    0  501    0  0.00000000000E+00  0.00000000000E+00  0.42973963885E+04  0.42973963897E+04  0.10100000000E+00 0. -1.
         -3   -1    0    0    0  501 -0.00000000000E+00 -0.00000000000E+00 -0.13533242998E+03  0.13533246767E+03  0.10100000000E+00 0.  1.
     200001    2    1    2    0    0  0.11911427244E+03 -0.22266904995E+03  0.16089889496E+04  0.17734128331E+04  0.70169645929E+03 0.  0.
    5000001    2    3    3    0    0  0.54058586881E+02 -0.11826796381E+03  0.45187924026E+03  0.50690791465E+03  0.18934398348E+03 0.  0.
        -11    1    4    4    0    0  0.44848602035E+02  0.44381159948E+02  0.14611363445E+03  0.15915488882E+03  0.51100000000E-03 0. -1.
     200002    1    4    4    0    0  0.92099848459E+01 -0.16264912375E+03  0.30576560580E+03  0.34775302583E+03  0.30000000000E+02 0. -1.
     200000    1    3    3    0    0  0.65055685560E+02 -0.10440108614E+03  0.11571097093E+04  0.12665049184E+04  0.50000000000E+03 0. -1.
    -200001    1    1    2    0    0 -0.11911427244E+03  0.22266904995E+03  0.25530750090E+04  0.26593160243E+04  0.70000000000E+03 0. -1.
<mgrwt>
<rscale>  0 0.15252242E+04</rscale>
<asrwt>0</asrwt>
<pdfrwt beam="1">  1        3 0.61391383E+00 0.15252242E+04</pdfrwt>
<pdfrwt beam="2">  1       -3 0.19333205E-01 0.15252242E+04</pdfrwt>
<totfact> 0.61076852E-02</totfact>
</mgrwt>
</event>
<event>
 8    1  0.1426346E-011  0.1543369E+04  0.7818608E-02  0.8856114E-01
          3   -1    0    0  501    0  0.00000000000E+00  0.00000000000E+00  0.14263058028E+04  0.14263058064E+04  0.10100000000E+00 0.  1.
         -3   -1    0    0    0  501 -0.00000000000E+00 -0.00000000000E+00 -0.41750996053E+03  0.41750997275E+03  0.10100000000E+00 0. -1.
     200001    2    1    2    0    0  0.19647124830E+03 -0.25926851006E+03  0.50038348611E+03  0.91952998156E+03  0.69952172383E+03 0.  0.
    5000001    2    3    3    0    0 -0.41116201674E+02 -0.69983916664E+02  0.57221606790E+02  0.18558931301E+03  0.15678262080E+03 0.  0.
        -11    1    4    4    0    0  0.44325202507E+02  0.11939991279E+02  0.42559150229E+02  0.62598468332E+02  0.51100000000E-03 0. -1.
     200002    1    4    4    0    0 -0.85441404182E+02 -0.81923907943E+02  0.14662456561E+02  0.12299084467E+03  0.30000000000E+02 0. -1.
     200000    1    3    3    0    0  0.23758744998E+03 -0.18928459339E+03  0.44316187932E+03  0.73394066856E+03  0.50000000000E+03 0.  1.
    -200001    1    1    2    0    0 -0.19647124830E+03  0.25926851006E+03  0.50841235621E+03  0.92428579761E+03  0.70000000000E+03 0.  1.
<mgrwt>
<rscale>  0 0.15433689E+04</rscale>
<asrwt>0</asrwt>
<pdfrwt beam="1">  1        3 0.20375798E+00 0.15433689E+04</pdfrwt>
<pdfrwt beam="2">  1       -3 0.59644281E-01 0.15433689E+04</pdfrwt>
<totfact> 0.97322550E-01</totfact>
</mgrwt>
</event>
<event>
 8    1  0.1426346E-011  0.1726415E+04  0.7818608E-02  0.8746441E-01
         -3   -1    0    0    0  501 -0.00000000000E+00  0.00000000000E+00  0.11982747651E+04  0.11982747693E+04  0.10100000000E+00 0.  1.
          3   -1    0    0  501    0  0.00000000000E+00 -0.00000000000E+00 -0.62183342751E+03  0.62183343571E+03  0.10100000000E+00 0. -1.
     200001    2    1    2    0    0  0.20250991064E+03 -0.43404823721E+03  0.12304207758E+03  0.85834990636E+03  0.70158183612E+03 0.  0.
    5000001    2    3    3    0    0  0.99401958308E+02 -0.57069092035E+02 -0.49312420261E+02  0.20074014468E+03  0.15724903915E+03 0.  0.
        -11    1    4    4    0    0  0.97044073760E+02 -0.81090632618E+02 -0.81587162866E+02  0.15049819964E+03  0.51100000000E-03 0. -1.
     200002    1    4    4    0    0  0.23578845480E+01  0.24021540583E+02  0.32274742605E+02  0.50241945043E+02  0.30000000000E+02 0. -1.
     200000    1    3    3    0    0  0.10310795233E+03 -0.37697914517E+03  0.17235449784E+03  0.65760976168E+03  0.50000000000E+03 0.  1.
    -200001    1    1    2    0    0 -0.20250991064E+03  0.43404823721E+03  0.45339925999E+03  0.96175829868E+03  0.70000000000E+03 0.  1.
<mgrwt>
<rscale>  0 0.17264151E+04</rscale>
<asrwt>0</asrwt>
<pdfrwt beam="1">  1        3 0.88833349E-01 0.17264151E+04</pdfrwt>
<pdfrwt beam="2">  1       -3 0.17118211E+00 0.17264151E+04</pdfrwt>
<totfact> 0.65242311E-01</totfact>
</mgrwt>
</event>
<event>
 8    1  0.1426346E-011  0.2525138E+04  0.7818608E-02  0.8394084E-01
         -3   -1    0    0    0  501 -0.00000000000E+00  0.00000000000E+00  0.10067729560E+04  0.10067729610E+04  0.10100000000E+00 0. -1.
          3   -1    0    0  501    0  0.00000000000E+00 -0.00000000000E+00 -0.15833562912E+04  0.15833562944E+04  0.10100000000E+00 0.  1.
     200001    2    1    2    0    0  0.36179782177E+03 -0.16469137174E+03  0.71031573832E+03  0.10721931114E+04  0.69787442163E+03 0.  0.
    5000001    2    3    3    0    0  0.17735778187E+02 -0.11840778000E+03  0.13639381343E+03  0.23558852350E+03  0.15021224940E+03 0.  0.
        -11    1    4    4    0    0  0.38430767357E+02 -0.10413110361E+03  0.15627852847E+03  0.19168513004E+03  0.51100000000E-03 0. -1.
     200002    1    4    4    0    0 -0.20694989169E+02 -0.14276676391E+02 -0.19884715035E+02  0.43903393462E+02  0.30000000000E+02 0. -1.
     200000    1    3    3    0    0  0.34406204359E+03 -0.46283591743E+02  0.57392192488E+03  0.83660458794E+03  0.50000000000E+03 0.  1.
    -200001    1    1    2    0    0 -0.36179782177E+03  0.16469137174E+03 -0.12868990735E+04  0.15179361440E+04  0.70000000000E+03 0.  1.
<mgrwt>
<rscale>  0 0.25251379E+04</rscale>
<asrwt>0</asrwt>
<pdfrwt beam="1">  1        3 0.22619376E+00 0.25251379E+04</pdfrwt>
<pdfrwt beam="2">  1       -3 0.14382471E+00 0.25251379E+04</pdfrwt>
<totfact> 0.85645906E-02</totfact>
</mgrwt>
</event>
<event>
 8    1  0.1426346E-011  0.1952080E+04  0.7818608E-02  0.8629359E-01
         -3   -1    0    0    0  501 -0.00000000000E+00  0.00000000000E+00  0.16649430698E+04  0.16649430729E+04  0.10100000000E+00 0. -1.
          3   -1    0    0  501    0  0.00000000000E+00 -0.00000000000E+00 -0.57218393028E+03  0.57218393920E+03  0.10100000000E+00 0.  1.
     200001    2    1    2    0    0 -0.65338358703E+03 -0.12507082060E+03  0.70839730736E+03  0.11977585307E+04  0.70017564292E+03 0.  0.
    5000001    2    3    3    0    0 -0.18508133633E+03 -0.16120793237E+03  0.20751805469E+03  0.34835114050E+03  0.13431930445E+03 0.  0.
        -11    1    4    4    0    0 -0.16182212716E+03 -0.63015195997E+02  0.14227737900E+03  0.22449981813E+03  0.51100000000E-03 0. -1.
     200002    1    4    4    0    0 -0.23259209163E+02 -0.98192736372E+02  0.65240675697E+02  0.12385132237E+03  0.30000000000E+02 0. -1.
     200000    1    3    3    0    0 -0.46830225070E+03  0.36137111771E+02  0.50087925267E+03  0.84940739025E+03  0.50000000000E+03 0. -1.
    -200001    1    1    2    0    0  0.65338358703E+03  0.12507082060E+03  0.38436183219E+03  0.10393684813E+04  0.70000000000E+03 0. -1.
<mgrwt>
<rscale>  0 0.19520796E+04</rscale>
<asrwt>0</asrwt>
<pdfrwt beam="1">  1        3 0.81740560E-01 0.19520796E+04</pdfrwt>
<pdfrwt beam="2">  1       -3 0.23784902E+00 0.19520796E+04</pdfrwt>
<totfact> 0.29321895E-01</totfact>
</mgrwt>
</event>
<event>
 8    1  0.1426346E-011  0.2025079E+04  0.7818608E-02  0.8594985E-01
         -3   -1    0    0    0  501 -0.00000000000E+00  0.00000000000E+00  0.33254453333E+04  0.33254453349E+04  0.10100000000E+00 0. -1.
          3   -1    0    0  501    0  0.00000000000E+00 -0.00000000000E+00 -0.30830032165E+03  0.30830033820E+03  0.10100000000E+00 0.  1.
     200001    2    1    2    0    0  0.14753571026E+03  0.44056885116E+03  0.49199545270E+03  0.97249634358E+03  0.69844249183E+03 0.  0.
    5000001    2    3    3    0    0 -0.32701593964E+02  0.53224876927E+02  0.11795594142E+03  0.21590768638E+03  0.16970634387E+03 0.  0.
        -11    1    4    4    0    0  0.34059570600E+02 -0.42124972928E+02  0.64843093946E+02  0.84493754364E+02  0.51100000000E-03 0. -1.
     200002    1    4    4    0    0 -0.66761164564E+02  0.95349849855E+02  0.53112847470E+02  0.13141393202E+03  0.30000000000E+02 0. -1.
     200000    1    3    3    0    0  0.18023730423E+03  0.38734397424E+03  0.37403951128E+03  0.75658865721E+03  0.50000000000E+03 0.  1.
    -200001    1    1    2    0    0 -0.14753571026E+03 -0.44056885116E+03  0.25251495590E+04  0.26612493295E+04  0.70000000000E+03 0. -1.
<mgrwt>
<rscale>  0 0.20250787E+04</rscale>
<asrwt>0</asrwt>
<pdfrwt beam="1">  1        3 0.44042904E-01 0.20250787E+04</pdfrwt>
<pdfrwt beam="2">  1       -3 0.47506362E+00 0.20250787E+04</pdfrwt>
<totfact> 0.51796294E-02</totfact>
</mgrwt>
</event>
<event>
 8    1  0.1426346E-011  0.1664845E+04  0.7818608E-02  0.8781672E-01
         -3   -1    0    0    0  501 -0.00000000000E+00  0.00000000000E+00  0.20379769636E+04  0.20379769661E+04  0.10100000000E+00 0. -1.
          3   -1    0    0  501    0  0.00000000000E+00 -0.00000000000E+00 -0.34000754962E+03  0.34000756463E+03  0.10100000000E+00 0.  1.
     200001    2    1    2    0    0  0.28833860325E+03  0.13121168627E+03  0.13052466422E+04  0.15150900805E+04  0.70105170878E+03 0.  0.
    5000001    2    3    3    0    0  0.76783341094E+02  0.63953232601E+02  0.56594893343E+03  0.59539424454E+03  0.15559695931E+03 0.  0.
        -11    1    4    4    0    0 -0.19415623853E+02  0.40674928070E+02  0.37962859291E+03  0.38229476164E+03  0.51100000000E-03 0. -1.
     200002    1    4    4    0    0  0.96198964947E+02  0.23278304530E+02  0.18632034053E+03  0.21309948290E+03  0.30000000000E+02 0. -1.
     200000    1    3    3    0    0  0.21155526215E+03  0.67258453665E+02  0.73929770872E+03  0.91969583594E+03  0.50000000000E+03 0.  1.
    -200001    1    1    2    0    0 -0.28833860325E+03 -0.13121168627E+03  0.39272277180E+03  0.86289445022E+03  0.70000000000E+03 0.  1.
<mgrwt>
<rscale>  0 0.16648454E+04</rscale>
<asrwt>0</asrwt>
<pdfrwt beam="1">  1        3 0.48572506E-01 0.16648454E+04</pdfrwt>
<pdfrwt beam="2">  1       -3 0.29113958E+00 0.16648454E+04</pdfrwt>
<totfact> 0.45165459E-01</totfact>
</mgrwt>
</event>
<event>
 8    1  0.1426346E-011  0.1556147E+04  0.7818608E-02  0.8847951E-01
          3   -1    0    0  501    0  0.00000000000E+00  0.00000000000E+00  0.46694803171E+03  0.46694804263E+03  0.10100000000E+00 0.  1.
         -3   -1    0    0    0  501 -0.00000000000E+00 -0.00000000000E+00 -0.12965011519E+04  0.12965011559E+04  0.10100000000E+00 0. -1.
     200001    2    1    2    0    0 -0.12380300146E+03 -0.28275773463E+03 -0.57470156246E+03  0.95708176602E+03  0.70031742895E+03 0.  0.
    5000001    2    3    3    0    0 -0.90144225828E+02 -0.89667853625E+02 -0.27329654396E+03  0.34123957804E+03  0.15995981762E+03 0.  0.
        -11    1    4    4    0    0 -0.55908428069E+02  0.26185068410E+02 -0.31555103519E+02  0.69333503411E+02  0.51100000000E-03 0. -1.
     200002    1    4    4    0    0 -0.34235797759E+02 -0.11585292204E+03 -0.24174144044E+03  0.27190607463E+03  0.30000000000E+02 0. -1.
     200000    1    3    3    0    0 -0.33658775632E+02 -0.19308988101E+03 -0.30140501850E+03  0.61584218799E+03  0.50000000000E+03 0.  1.
    -200001    1    1    2    0    0  0.12380300146E+03  0.28275773463E+03 -0.25485155777E+03  0.80636743248E+03  0.70000000000E+03 0.  1.
<mgrwt>
<rscale>  0 0.15561474E+04</rscale>
<asrwt>0</asrwt>
<pdfrwt beam="1">  1        3 0.66706863E-01 0.15561474E+04</pdfrwt>
<pdfrwt beam="2">  1       -3 0.18521445E+00 0.15561474E+04</pdfrwt>
<totfact> 0.10015682E+00</totfact>
</mgrwt>
</event>
<event>
 8    1  0.1426346E-011  0.1683424E+04  0.7818608E-02  0.8770875E-01
          3   -1    0    0  501    0  0.00000000000E+00  0.00000000000E+00  0.63174375714E+03  0.63174376522E+03  0.10100000000E+00 0.  1.
         -3   -1    0    0    0  501 -0.00000000000E+00 -0.00000000000E+00 -0.11214664639E+04  0.11214664685E+04  0.10100000000E+00 0. -1.
     200001    2    1    2    0    0  0.67888555934E+02 -0.21627516921E+03  0.18030719878E+03  0.75806005447E+03  0.70054304322E+03 0.  0.
    5000001    2    3    3    0    0  0.25613697217E+01  0.30033158873E+01  0.47487751036E+02  0.19238196493E+03  0.18638710635E+03 0.  0.
        -11    1    4    4    0    0 -0.41285737636E+02 -0.46938474926E+02 -0.43221823847E+02  0.75999069846E+02  0.51100000000E-03 0. -1.
     200002    1    4    4    0    0  0.43847107358E+02  0.49941790813E+02  0.90709574884E+02  0.11638289509E+03  0.30000000000E+02 0. -1.
     200000    1    3    3    0    0  0.65327186212E+02 -0.21927848510E+03  0.13281944774E+03  0.56567808954E+03  0.50000000000E+03 0.  1.
    -200001    1    1    2    0    0 -0.67888555934E+02  0.21627516921E+03 -0.67002990555E+03  0.99515017921E+03  0.70000000000E+03 0. -1.
<mgrwt>
<rscale>  0 0.16834244E+04</rscale>
<asrwt>0</asrwt>
<pdfrwt beam="1">  1        3 0.90249109E-01 0.16834244E+04</pdfrwt>
<pdfrwt beam="2">  1       -3 0.16020950E+00 0.16834244E+04</pdfrwt>
<totfact> 0.75472911E-01</totfact>
</mgrwt>
</event>
<event>
 8    1  0.1426346E-011  0.1561547E+04  0.7818608E-02  0.8844526E-01
          3   -1    0    0  501    0  0.00000000000E+00  0.00000000000E+00  0.16584391522E+04  0.16584391552E+04  0.10100000000E+00 0. -1.
         -3   -1    0    0    0  501 -0.00000000000E+00 -0.00000000000E+00 -0.36757879887E+03  0.36757881275E+03  0.10100000000E+00 0.  1.
     200001    2    1    2    0    0 -0.18824708734E+03 -0.27510969136E+03  0.77006995794E+03  0.10920238866E+04  0.69884627824E+03 0.  0.
    5000001    2    3    3    0    0 -0.36510399152E+01 -0.11968640207E+03  0.17180064262E+03  0.27583869117E+03  0.17953650829E+03 0.  0.
        -11    1    4    4    0    0  0.17921437761E+02 -0.15088854766E+03  0.16918851527E+03  0.22740555280E+03  0.51100000000E-03 0. -1.
     200002    1    4    4    0    0 -0.21572477676E+02  0.31202145594E+02  0.26121273482E+01  0.48433138366E+02  0.30000000000E+02 0. -1.
     200000    1    3    3    0    0 -0.18459604742E+03 -0.15542328929E+03  0.59826931533E+03  0.81618519543E+03  0.50000000000E+03 0. -1.
    -200001    1    1    2    0    0  0.18824708734E+03  0.27510969136E+03  0.52079039534E+03  0.93399408138E+03  0.70000000000E+03 0.  1.
<mgrwt>
<rscale>  0 0.15615468E+04</rscale>
<asrwt>0</asrwt>
<pdfrwt beam="1">  1        3 0.23691988E+00 0.15615468E+04</pdfrwt>
<pdfrwt beam="2">  1       -3 0.52511259E-01 0.15615468E+04</pdfrwt>
<totfact> 0.80029066E-01</totfact>
</mgrwt>
</event>
<event>
 8    1  0.1426346E-011  0.1411937E+04  0.7818608E-02  0.8945223E-01
          3   -1    0    0  501    0  0.00000000000E+00  0.00000000000E+00  0.36223655871E+03  0.36223657279E+03  0.10100000000E+00 0.  1.
         -3   -1    0    0    0  501 -0.00000000000E+00 -0.00000000000E+00 -0.13758725186E+04  0.13758725223E+04  0.10100000000E+00 0. -1.
     200001    2    1    2    0    0 -0.73949094763E+02  0.15330018384E+02 -0.44168579407E+03  0.83100906189E+03  0.69984729919E+03 0.  0.
    5000001    2    3    3    0    0  0.18661476483E+02 -0.93896730016E+01 -0.18191930396E+02  0.16878943547E+03  0.16650078237E+03 0.  0.
        -11    1    4    4    0    0  0.86190370424E+02 -0.12597332989E+01  0.14795912011E+02  0.87460196057E+02  0.51100000000E-03 0. -1.
     200002    1    4    4    0    0 -0.67528893941E+02 -0.81299397027E+01 -0.32987842408E+02  0.81329239411E+02  0.30000000000E+02 0. -1.
     200000    1    3    3    0    0 -0.92610571246E+02  0.24719691386E+02 -0.42349386367E+03  0.66221962642E+03  0.50000000000E+03 0. -1.
    -200001    1    1    2    0    0  0.73949094763E+02 -0.15330018384E+02 -0.57195016584E+03  0.90710003323E+03  0.70000000000E+03 0. -1.
<mgrwt>
<rscale>  0 0.14119367E+04</rscale>
<asrwt>0</asrwt>
<pdfrwt beam="1">  1        3 0.51748082E-01 0.14119367E+04</pdfrwt>
<pdfrwt beam="2">  1       -3 0.19655322E+00 0.14119367E+04</pdfrwt>
<totfact> 0.14583541E+00</totfact>
</mgrwt>
</event>
<event>
 8    1  0.1426346E-011  0.1964150E+04  0.7818608E-02  0.8623568E-01
         -3   -1    0    0    0  501 -0.00000000000E+00  0.00000000000E+00  0.97386255522E+03  0.97386256046E+03  0.10100000000E+00 0. -1.
          3   -1    0    0  501    0  0.00000000000E+00 -0.00000000000E+00 -0.99035646411E+03  0.99035646926E+03  0.10100000000E+00 0.  1.
     200001    2    1    2    0    0 -0.35103918677E+03 -0.31942032463E+03  0.49110755277E+03  0.97785342899E+03  0.69982343900E+03 0.  0.
    5000001    2    3    3    0    0 -0.64183151080E+02 -0.17065511230E+01  0.83559143999E+02  0.20369315322E+03  0.17431689799E+03 0.  0.
        -11    1    4    4    0    0 -0.81799902457E+02 -0.46290086958E+02 -0.98449742287E+01  0.94503543375E+02  0.51100000000E-03 0. -1.
     200002    1    4    4    0    0  0.17616751377E+02  0.44583535835E+02  0.93404118227E+02  0.10918960985E+03  0.30000000000E+02 0. -1.
     200000    1    3    3    0    0 -0.28685603569E+03 -0.31771377351E+03  0.40754840877E+03  0.77416027577E+03  0.50000000000E+03 0. -1.
    -200001    1    1    2    0    0  0.35103918677E+03  0.31942032463E+03 -0.50760146166E+03  0.98636560073E+03  0.70000000000E+03 0.  1.
<mgrwt>
<rscale>  0 0.19641498E+04</rscale>
<asrwt>0</asrwt>
<pdfrwt beam="1">  1        3 0.14147950E+00 0.19641498E+04</pdfrwt>
<pdfrwt beam="2">  1       -3 0.13912322E+00 0.19641498E+04</pdfrwt>
<totfact> 0.36112130E-01</totfact>
</mgrwt>
</event>
<event>
 8    1  0.1426346E-011  0.1424898E+04  0.7818608E-02  0.8935991E-01
          3   -1    0    0  501    0  0.00000000000E+00  0.00000000000E+00  0.14522572469E+03  0.14522575981E+03  0.10100000000E+00 0.  1.
         -3   -1    0    0    0  501 -0.00000000000E+00 -0.00000000000E+00 -0.34951326196E+04  0.34951326211E+04  0.10100000000E+00 0. -1.
     200001    2    1    2    0    0 -0.42894103048E+02  0.12422096083E+03 -0.15686982821E+04  0.17220323206E+04  0.69807611458E+03 0.  0.
    5000001    2    3    3    0    0  0.46548872389E+01  0.90197077482E+02 -0.42947720946E+03  0.47654318638E+03  0.18570286556E+03 0.  0.
        -11    1    4    4    0    0 -0.36449073571E+01  0.25473306927E+02  0.12612704810E+02  0.28657547668E+02  0.51100000000E-03 0. -1.
     200002    1    4    4    0    0  0.82997945960E+01  0.64723770555E+02 -0.44208991427E+03  0.44788563871E+03  0.30000000000E+02 0. -1.
     200000    1    3    3    0    0 -0.47548990287E+02  0.34023883344E+02 -0.11392210726E+04  0.12454891342E+04  0.50000000000E+03 0. -1.
    -200001    1    1    2    0    0  0.42894103048E+02 -0.12422096083E+03 -0.17812086129E+04  0.19183260603E+04  0.70000000000E+03 0. -1.
<mgrwt>
<rscale>  0 0.14248975E+04</rscale>
<asrwt>0</asrwt>
<pdfrwt beam="1">  1        3 0.20746537E-01 0.14248975E+04</pdfrwt>
<pdfrwt beam="2">  1       -3 0.49930461E+00 0.14248975E+04</pdfrwt>
<totfact> 0.17132302E-01</totfact>
</mgrwt>
</event>
<event>
 8    1  0.1426346E-011  0.1714208E+04  0.7818608E-02  0.8753302E-01
          3   -1    0    0  501    0  0.00000000000E+00  0.00000000000E+00  0.59794446117E+03  0.59794446970E+03  0.10100000000E+00 0.  1.
         -3   -1    0    0    0  501 -0.00000000000E+00 -0.00000000000E+00 -0.12285882235E+04  0.12285882277E+04  0.10100000000E+00 0. -1.
     200001    2    1    2    0    0  0.39608522219E+02  0.45022010835E+03 -0.10177335868E+03  0.83963306476E+03  0.70025630016E+03 0.  0.
    5000001    2    3    3    0    0  0.24079372177E+02  0.16375705139E+03 -0.15748364403E+02  0.25679300339E+03  0.19569989158E+03 0.  0.
        -11    1    4    4    0    0 -0.16721995855E+02  0.13186031681E+02 -0.81964386789E+02  0.84685637972E+02  0.51100000000E-03 0. -1.
     200002    1    4    4    0    0  0.40801368032E+02  0.15057101971E+03  0.66216022385E+02  0.17210736541E+03  0.30000000000E+02 0. -1.
     200000    1    3    3    0    0  0.15529150043E+02  0.28646305696E+03 -0.86024994280E+02  0.58284006137E+03  0.50000000000E+03 0. -1.
    -200001    1    1    2    0    0 -0.39608522219E+02 -0.45022010835E+03 -0.52887040368E+03  0.98689963262E+03  0.70000000000E+03 0. -1.
<mgrwt>
<rscale>  0 0.17142083E+04</rscale>
<asrwt>0</asrwt>
<pdfrwt beam="1">  1        3 0.85420639E-01 0.17142083E+04</pdfrwt>
<pdfrwt beam="2">  1       -3 0.17551260E+00 0.17142083E+04</pdfrwt>
<totfact> 0.66646717E-01</totfact>
</mgrwt>
</event>
<event>
 8    1  0.1426346E-011  0.1586813E+04  0.7818608E-02  0.8828691E-01
         -3   -1    0    0    0  501 -0.00000000000E+00  0.00000000000E+00  0.27376925743E+03  0.27376927606E+03  0.10100000000E+00 0. -1.
          3   -1    0    0  501    0  0.00000000000E+00 -0.00000000000E+00 -0.22993578858E+04  0.22993578880E+04  0.10100000000E+00 0.  1.
     200001    2    1    2    0    0  0.24772944343E+03 -0.38218503478E+02 -0.14615755688E+04  0.16398848255E+04  0.70013467736E+03 0.  0.
    5000001    2    3    3    0    0  0.12334131617E+03  0.16364175693E+02 -0.46798532780E+03  0.51931655802E+03  0.18761277643E+03 0.  0.
        -11    1    4    4    0    0  0.15918743233E+02  0.90047373983E+02 -0.19140697079E+03  0.21212865062E+03  0.51100000000E-03 0. -1.
     200002    1    4    4    0    0  0.10742257294E+03 -0.73683198290E+02 -0.27657835701E+03  0.30718790740E+03  0.30000000000E+02 0. -1.
     200000    1    3    3    0    0  0.12438812726E+03 -0.54582679171E+02 -0.99359024100E+03  0.11205682675E+04  0.50000000000E+03 0.  1.
    -200001    1    1    2    0    0 -0.24772944343E+03  0.38218503478E+02 -0.56401305958E+03  0.93324233858E+03  0.70000000000E+03 0. -1.
<mgrwt>
<rscale>  0 0.15868126E+04</rscale>
<asrwt>0</asrwt>
<pdfrwt beam="1">  1        3 0.32847969E+00 0.15868126E+04</pdfrwt>
<pdfrwt beam="2">  1       -3 0.39109897E-01 0.15868126E+04</pdfrwt>
<totfact> 0.44562636E-01</totfact>
</mgrwt>
</event>
<event>
 8    1  0.1426346E-011  0.2169469E+04  0.7818608E-02  0.8531244E-01
         -3   -1    0    0    0  501 -0.00000000000E+00  0.00000000000E+00  0.19571659703E+04  0.19571659729E+04  0.10100000000E+00 0. -1.
          3   -1    0    0  501    0  0.00000000000E+00 -0.00000000000E+00 -0.60120040879E+03  0.60120041727E+03  0.10100000000E+00 0.  1.
     200001    2    1    2    0    0  0.48810438682E+03  0.54197731349E+02 -0.10957881427E+03  0.86160370675E+03  0.69940699484E+03 0.  0.
    5000001    2    3    3    0    0  0.15736468521E+03 -0.63866858663E+01 -0.17480377376E+03  0.25553975207E+03  0.99698403493E+02 0.  0.
        -11    1    4    4    0    0  0.13040013515E+02 -0.24074214250E+01  0.11767130369E+02  0.17728592379E+02  0.51100000000E-03 0. -1.
     200002    1    4    4    0    0  0.14432467170E+03 -0.39792644413E+01 -0.18657090412E+03  0.23781115969E+03  0.30000000000E+02 0. -1.
     200000    1    3    3    0    0  0.33073970161E+03  0.60584417215E+02  0.65224959488E+02  0.60606395468E+03  0.50000000000E+03 0.  1.
    -200001    1    1    2    0    0 -0.48810438682E+03 -0.54197731349E+02  0.14655443758E+04  0.16967626835E+04  0.70000000000E+03 0. -1.
<mgrwt>
<rscale>  0 0.21694691E+04</rscale>
<asrwt>0</asrwt>
<pdfrwt beam="1">  1        3 0.85885772E-01 0.21694691E+04</pdfrwt>
<pdfrwt beam="2">  1       -3 0.27959514E+00 0.21694691E+04</pdfrwt>
<totfact> 0.14810781E-01</totfact>
</mgrwt>
</event>
<event>
 8    1  0.1426346E-011  0.2350714E+04  0.7818608E-02  0.8458190E-01
          3   -1    0    0  501    0  0.00000000000E+00  0.00000000000E+00  0.19550589881E+04  0.19550589907E+04  0.10100000000E+00 0.  1.
         -3   -1    0    0    0  501 -0.00000000000E+00 -0.00000000000E+00 -0.70660977773E+03  0.70660978495E+03  0.10100000000E+00 0. -1.
     200001    2    1    2    0    0 -0.78825445147E+03  0.22223125128E+03  0.11567869989E+04  0.15804038819E+04  0.69913407863E+03 0.  0.
    5000001    2    3    3    0    0 -0.23458496894E+03  0.27033756809E+02  0.26717829810E+03  0.40309525703E+03  0.18799098810E+03 0.  0.
        -11    1    4    4    0    0 -0.20044839432E+03  0.33976440511E+02  0.94124013078E+02  0.22403858402E+03  0.51100000000E-03 0. -1.
     200002    1    4    4    0    0 -0.34136574627E+02 -0.69426837024E+01  0.17305428502E+03  0.17905667301E+03  0.30000000000E+02 0. -1.
     200000    1    3    3    0    0 -0.55366948252E+03  0.19519749447E+03  0.88960870080E+03  0.11773086249E+04  0.50000000000E+03 0.  1.
    -200001    1    1    2    0    0  0.78825445147E+03 -0.22223125128E+03  0.91662211426E+02  0.10812648937E+04  0.70000000000E+03 0. -1.
<mgrwt>
<rscale>  0 0.23507138E+04</rscale>
<asrwt>0</asrwt>
<pdfrwt beam="1">  1        3 0.27929414E+00 0.23507138E+04</pdfrwt>
<pdfrwt beam="2">  1       -3 0.10094425E+00 0.23507138E+04</pdfrwt>
<totfact> 0.10232002E-01</totfact>
</mgrwt>
</event>
<event>
 8    1  0.1426346E-011  0.1501104E+04  0.7818608E-02  0.8883719E-01
         -3   -1    0    0    0  501 -0.00000000000E+00  0.00000000000E+00  0.32301397054E+03  0.32301398633E+03  0.10100000000E+00 0. -1.
          3   -1    0    0  501    0  0.00000000000E+00 -0.00000000000E+00 -0.17439755756E+04  0.17439755785E+04  0.10100000000E+00 0.  1.
     200001    2    1    2    0    0  0.15548644632E+03  0.17917258972E+03 -0.89048134138E+03  0.11572158776E+04  0.69993765156E+03 0.  0.
    5000001    2    3    3    0    0  0.66731000784E+01  0.93039365369E+02 -0.26226727697E+03  0.33610854289E+03  0.18837190412E+03 0.  0.
        -11    1    4    4    0    0 -0.61063458574E+02  0.25823606498E+02 -0.13058375155E+02  0.67573114383E+02  0.51100000000E-03 0. -1.
     200002    1    4    4    0    0  0.67736558652E+02  0.67215758871E+02 -0.24920890182E+03  0.26853542851E+03  0.30000000000E+02 0. -1.
     200000    1    3    3    0    0  0.14881334624E+03  0.86133224351E+02 -0.62821406441E+03  0.82110733469E+03  0.50000000000E+03 0.  1.
    -200001    1    1    2    0    0 -0.15548644632E+03 -0.17917258972E+03 -0.53048026368E+03  0.90977368727E+03  0.70000000000E+03 0. -1.
<mgrwt>
<rscale>  0 0.15011043E+04</rscale>
<asrwt>0</asrwt>
<pdfrwt beam="1">  1        3 0.24913936E+00 0.15011043E+04</pdfrwt>
<pdfrwt beam="2">  1       -3 0.46144855E-01 0.15011043E+04</pdfrwt>
<totfact> 0.88973411E-01</totfact>
</mgrwt>
</event>
<event>
 8    1  0.1426346E-011  0.2169118E+04  0.7818608E-02  0.8531393E-01
         -3   -1    0    0    0  501 -0.00000000000E+00  0.00000000000E+00  0.11232687443E+04  0.11232687489E+04  0.10100000000E+00 0. -1.
          3   -1    0    0  501    0  0.00000000000E+00 -0.00000000000E+00 -0.10471829375E+04  0.10471829424E+04  0.10100000000E+00 0.  1.
     200001    2    1    2    0    0 -0.79133731026E+03 -0.23103741510E+03 -0.44092290183E+02  0.10823175999E+04  0.69991015940E+03 0.  0.
    5000001    2    3    3    0    0 -0.18441448442E+03 -0.54880742418E+02 -0.56238577390E+02  0.27638086409E+03  0.19027087663E+03 0.  0.
        -11    1    4    4    0    0 -0.16135749970E+03 -0.93766214992E+02 -0.95279189838E+02  0.20953870717E+03  0.51100000000E-03 0. -1.
     200002    1    4    4    0    0 -0.23056984717E+02  0.38885472575E+02  0.39040612448E+02  0.66842156922E+02  0.30000000000E+02 0. -1.
     200000    1    3    3    0    0 -0.60692282584E+03 -0.17615667268E+03  0.12146287207E+02  0.80593673582E+03  0.50000000000E+03 0.  1.
    -200001    1    1    2    0    0  0.79133731026E+03  0.23103741510E+03  0.12017809698E+03  0.10881340914E+04  0.70000000000E+03 0. -1.
<mgrwt>
<rscale>  0 0.21691177E+04</rscale>
<asrwt>0</asrwt>
<pdfrwt beam="1">  1        3 0.14959756E+00 0.21691177E+04</pdfrwt>
<pdfrwt beam="2">  1       -3 0.16046696E+00 0.21691177E+04</pdfrwt>
<totfact> 0.21229083E-01</totfact>
</mgrwt>
</event>
<event>
 8    1  0.1426346E-011  0.1491978E+04  0.7818608E-02  0.8889805E-01
         -3   -1    0    0    0  501 -0.00000000000E+00  0.00000000000E+00  0.53757924619E+03  0.53757925568E+03  0.10100000000E+00 0. -1.
          3   -1    0    0  501    0  0.00000000000E+00 -0.00000000000E+00 -0.10351954254E+04  0.10351954303E+04  0.10100000000E+00 0.  1.
     200001    2    1    2    0    0 -0.23532423917E+03 -0.51009547488E+02 -0.34502084115E+03  0.81695406661E+03  0.70028215359E+03 0.  0.
    5000001    2    3    3    0    0 -0.89837062709E+02  0.71458609303E+02 -0.14423861809E+03  0.24557112230E+03  0.16224477336E+03 0.  0.
        -11    1    4    4    0    0 -0.48843834181E+02 -0.41259072558E+02 -0.12958693372E+02  0.65237711027E+02  0.51100000000E-03 0. -1.
     200002    1    4    4    0    0 -0.40993228527E+02  0.11271768186E+03 -0.13127992471E+03  0.18033341128E+03  0.30000000000E+02 0. -1.
     200000    1    3    3    0    0 -0.14548717646E+03 -0.12246815679E+03 -0.20078222307E+03  0.57138294431E+03  0.50000000000E+03 0.  1.
    -200001    1    1    2    0    0  0.23532423917E+03  0.51009547488E+02 -0.15259533803E+03  0.75582061937E+03  0.70000000000E+03 0. -1.
<mgrwt>
<rscale>  0 0.14919780E+04</rscale>
<asrwt>0</asrwt>
<pdfrwt beam="1">  1        3 0.14788506E+00 0.14919780E+04</pdfrwt>
<pdfrwt beam="2">  1       -3 0.76797036E-01 0.14919780E+04</pdfrwt>
<totfact> 0.13610610E+00</totfact>
</mgrwt>
</event>
<event>
 8    1  0.1426346E-011  0.1641138E+04  0.7818608E-02  0.8795666E-01
          3   -1    0    0  501    0  0.00000000000E+00  0.00000000000E+00  0.30978677354E+04  0.30978677370E+04  0.10100000000E+00 0.  1.
         -3   -1    0    0    0  501 -0.00000000000E+00 -0.00000000000E+00 -0.21735393960E+03  0.21735396307E+03  0.10100000000E+00 0. -1.
     200001    2    1    2    0    0  0.29253597872E+02  0.38630808427E+02  0.58004486648E+03  0.91012182545E+03  0.69965818632E+03 0.  0.
    5000001    2    3    3    0    0 -0.72043702458E+02 -0.39956025579E+02  0.27179228772E+03  0.30890914607E+03  0.12151968491E+03 0.  0.
        -11    1    4    4    0    0 -0.52680377889E+02  0.60694566977E+01  0.31548129236E+02  0.61703686906E+02  0.51100000000E-03 0. -1.
     200002    1    4    4    0    0 -0.19363324569E+02 -0.46025482277E+02  0.24024415848E+03  0.24720545917E+03  0.30000000000E+02 0. -1.
     200000    1    3    3    0    0  0.10129730033E+03  0.78586834006E+02  0.30825257876E+03  0.60121267938E+03  0.50000000000E+03 0.  1.
    -200001    1    1    2    0    0 -0.29253597872E+02 -0.38630808427E+02  0.23004689293E+04  0.24050998747E+04  0.70000000000E+03 0.  1.
<mgrwt>
<rscale>  0 0.16411384E+04</rscale>
<asrwt>0</asrwt>
<pdfrwt beam="1">  1        3 0.44255250E+00 0.16411384E+04</pdfrwt>
<pdfrwt beam="2">  1       -3 0.31050567E-01 0.16411384E+04</pdfrwt>
<totfact> 0.17186481E-01</totfact>
</mgrwt>
</event>
<event>
 8    1  0.1426346E-011  0.1777259E+04  0.7818608E-02  0.8718487E-01
         -3   -1    0    0    0  501 -0.00000000000E+00  0.00000000000E+00  0.17414639078E+04  0.17414639107E+04  0.10100000000E+00 0. -1.
          3   -1    0    0  501    0  0.00000000000E+00 -0.00000000000E+00 -0.45344766371E+03  0.45344767496E+03  0.10100000000E+00 0.  1.
     200001    2    1    2    0    0  0.15375628654E+03  0.25088605251E+03  0.12143557123E+04  0.14320153405E+04  0.69958797331E+03 0.  0.
    5000001    2    3    3    0    0  0.13463317012E+03  0.86097555771E+02  0.48849308824E+03  0.53513324609E+03  0.14900743005E+03 0.  0.
        -11    1    4    4    0    0 -0.17336061879E+01 -0.33923722604E+02  0.64820008709E+02  0.73180993947E+02  0.51100000000E-03 0. -1.
     200002    1    4    4    0    0  0.13636677631E+03  0.12002127838E+03  0.42367307953E+03  0.46195225215E+03  0.30000000000E+02 0. -1.
     200000    1    3    3    0    0  0.19123116418E+02  0.16478849674E+03  0.72586262405E+03  0.89688209439E+03  0.50000000000E+03 0. -1.
    -200001    1    1    2    0    0 -0.15375628654E+03 -0.25088605251E+03  0.73660531785E+02  0.76289624520E+03  0.70000000000E+03 0. -1.
<mgrwt>
<rscale>  0 0.17772594E+04</rscale>
<asrwt>0</asrwt>
<pdfrwt beam="1">  1        3 0.64778239E-01 0.17772594E+04</pdfrwt>
<pdfrwt beam="2">  1       -3 0.24878056E+00 0.17772594E+04</pdfrwt>
<totfact> 0.42723298E-01</totfact>
</mgrwt>
</event>
<event>
 8    1  0.1426346E-011  0.2182669E+04  0.7818608E-02  0.8525676E-01
          3   -1    0    0  501    0  0.00000000000E+00  0.00000000000E+00  0.16518670024E+04  0.16518670054E+04  0.10100000000E+00 0.  1.
         -3   -1    0    0    0  501 -0.00000000000E+00 -0.00000000000E+00 -0.72100904952E+03  0.72100905660E+03  0.10100000000E+00 0. -1.
     200001    2    1    2    0    0 -0.73752683740E+03  0.22660413866E+03  0.11237283836E+03  0.10480314847E+04  0.70031926045E+03 0.  0.
    5000001    2    3    3    0    0 -0.27049519854E+03  0.88264647607E+02  0.52824202098E+02  0.34745857159E+03  0.19229862765E+03 0.  0.
        -11    1    4    4    0    0 -0.98557843497E+01  0.13052110485E+02  0.72022267195E+02  0.73855947935E+02  0.51100000000E-03 0. -1.
     200002    1    4    4    0    0 -0.26063941419E+03  0.75212537122E+02 -0.19198065097E+02  0.27360262366E+03  0.30000000000E+02 0. -1.
     200000    1    3    3    0    0 -0.46703163886E+03  0.13833949105E+03  0.59548636265E+02  0.70057291309E+03  0.50000000000E+03 0. -1.
    -200001    1    1    2    0    0  0.73752683740E+03 -0.22660413866E+03  0.81848511447E+03  0.13248445774E+04  0.70000000000E+03 0. -1.
<mgrwt>
<rscale>  0 0.21826691E+04</rscale>
<asrwt>0</asrwt>
<pdfrwt beam="1">  1        3 0.23598100E+00 0.21826691E+04</pdfrwt>
<pdfrwt beam="2">  1       -3 0.10300129E+00 0.21826691E+04</pdfrwt>
<totfact> 0.17496907E-01</totfact>
</mgrwt>
</event>
<event>
 8    1  0.1426346E-011  0.1783529E+04  0.7818608E-02  0.8715108E-01
          3   -1    0    0  501    0  0.00000000000E+00  0.00000000000E+00  0.47290594862E+03  0.47290595941E+03  0.10100000000E+00 0. -1.
         -3   -1    0    0    0  501 -0.00000000000E+00 -0.00000000000E+00 -0.16816111842E+04  0.16816111872E+04  0.10100000000E+00 0.  1.
     200001    2    1    2    0    0 -0.83891007145E+02 -0.53602681047E+03 -0.73111740358E+03  0.11483101203E+04  0.69980070867E+03 0.  0.
    5000001    2    3    3    0    0 -0.46186604972E+02 -0.78995690488E+02 -0.25508153594E+03  0.31951025669E+03  0.16925333839E+03 0.  0.
        -11    1    4    4    0    0 -0.97076248511E+02 -0.80933425784E+02 -0.21029450807E+03  0.24535239464E+03  0.51100000000E-03 0. -1.
     200002    1    4    4    0    0  0.50889643539E+02  0.19377352961E+01 -0.44787027877E+02  0.74157862049E+02  0.30000000000E+02 0. -1.
     200000    1    3    3    0    0 -0.37704402173E+02 -0.45703111998E+03 -0.47603586763E+03  0.82879986357E+03  0.50000000000E+03 0.  1.
    -200001    1    1    2    0    0  0.83891007145E+02  0.53602681047E+03 -0.47758783196E+03  0.10062070263E+04  0.70000000000E+03 0. -1.
<mgrwt>
<rscale>  0 0.17835290E+04</rscale>
<asrwt>0</asrwt>
<pdfrwt beam="1">  1        3 0.67557994E-01 0.17835290E+04</pdfrwt>
<pdfrwt beam="2">  1       -3 0.24023017E+00 0.17835290E+04</pdfrwt>
<totfact> 0.43761117E-01</totfact>
</mgrwt>
</event>
<event>
 8    1  0.1426346E-011  0.1434142E+04  0.7818608E-02  0.8929469E-01
          3   -1    0    0  501    0  0.00000000000E+00  0.00000000000E+00  0.53499255044E+03  0.53499255997E+03  0.10100000000E+00 0. -1.
         -3   -1    0    0    0  501 -0.00000000000E+00 -0.00000000000E+00 -0.96111712249E+03  0.96111712780E+03  0.10100000000E+00 0.  1.
     200001    2    1    2    0    0  0.11792765735E+03  0.90033034903E+02 -0.16763068266E+03  0.73529961253E+03  0.70039459926E+03 0.  0.
    5000001    2    3    3    0    0  0.13402569333E+02 -0.37914951333E+02 -0.14935844475E+03  0.20839349576E+03  0.13965218100E+03 0.  0.
        -11    1    4    4    0    0 -0.49437848562E+02 -0.54608019621E+02 -0.78664734173E+02  0.10776955544E+03  0.51100000000E-03 0. -1.
     200002    1    4    4    0    0  0.62840417896E+02  0.16693068288E+02 -0.70693710576E+02  0.10062394032E+03  0.30000000000E+02 0. -1.
     200000    1    3    3    0    0  0.10452508801E+03  0.12794798624E+03 -0.18272237909E+02  0.52690611676E+03  0.50000000000E+03 0.  1.
    -200001    1    1    2    0    0 -0.11792765735E+03 -0.90033034903E+02 -0.25849388939E+03  0.76081007524E+03  0.70000000000E+03 0.  1.
<mgrwt>
<rscale>  0 0.14341416E+04</rscale>
<asrwt>0</asrwt>
<pdfrwt beam="1">  1        3 0.76427509E-01 0.14341416E+04</pdfrwt>
<pdfrwt beam="2">  1       -3 0.13730245E+00 0.14341416E+04</pdfrwt>
<totfact> 0.16663098E+00</totfact>
</mgrwt>
</event>
<event>
 8    1  0.1426346E-011  0.1555165E+04  0.7818608E-02  0.8848575E-01
          3   -1    0    0  501    0  0.00000000000E+00  0.00000000000E+00  0.25815778447E+04  0.25815778467E+04  0.10100000000E+00 0. -1.
         -3   -1    0    0    0  501 -0.00000000000E+00 -0.00000000000E+00 -0.23421137193E+03  0.23421139371E+03  0.10100000000E+00 0.  1.
     200001    2    1    2    0    0 -0.21402888750E+03  0.19251486213E+03  0.14961689038E+04  0.16767512084E+04  0.70007348863E+03 0.  0.
    5000001    2    3    3    0    0 -0.86855490099E+02  0.10921154281E+03  0.28843200852E+03  0.36079493097E+03  0.16585813645E+03 0.  0.
        -11    1    4    4    0    0  0.25140458285E+02  0.91959827243E+02  0.94802532147E+02  0.13444765737E+03  0.51100000000E-03 0. -1.
     200002    1    4    4    0    0 -0.11199594838E+03  0.17251715569E+02  0.19362947638E+03  0.22634727360E+03  0.30000000000E+02 0. -1.
     200000    1    3    3    0    0 -0.12717339740E+03  0.83303319319E+02  0.12077368952E+04  0.13159562774E+04  0.50000000000E+03 0. -1.
    -200001    1    1    2    0    0  0.21402888750E+03 -0.19251486213E+03  0.85119756902E+03  0.11390380320E+04  0.70000000000E+03 0.  1.
<mgrwt>
<rscale>  0 0.15551655E+04</rscale>
<asrwt>0</asrwt>
<pdfrwt beam="1">  1        3 0.36879682E+00 0.15551655E+04</pdfrwt>
<pdfrwt beam="2">  1       -3 0.33458771E-01 0.15551655E+04</pdfrwt>
<totfact> 0.36706561E-01</totfact>
</mgrwt>
</event>
<event>
 8    1  0.1426346E-011  0.1456348E+04  0.7818608E-02  0.8914011E-01
          3   -1    0    0  501    0  0.00000000000E+00  0.00000000000E+00  0.15224618554E+04  0.15224618587E+04  0.10100000000E+00 0. -1.
         -3   -1    0    0    0  501 -0.00000000000E+00 -0.00000000000E+00 -0.34827622766E+03  0.34827624231E+03  0.10100000000E+00 0.  1.
     200001    2    1    2    0    0 -0.93031395934E+02  0.38989478708E+01  0.35922671058E+03  0.79239303611E+03  0.70012345458E+03 0.  0.
    5000001    2    3    3    0    0  0.26005163072E+02  0.31032293711E+02  0.22720214736E+03  0.26103966393E+03  0.12199023984E+03 0.  0.
        -11    1    4    4    0    0  0.39601883343E+02 -0.27154629209E+02  0.15662259273E+03  0.16381794653E+03  0.51100000000E-03 0. -1.
     200002    1    4    4    0    0 -0.13596720271E+02  0.58186922920E+02  0.70579554633E+02  0.97221717395E+02  0.30000000000E+02 0. -1.
     200000    1    3    3    0    0 -0.11903655901E+03 -0.27133345840E+02  0.13202456321E+03  0.53135337218E+03  0.50000000000E+03 0.  1.
    -200001    1    1    2    0    0  0.93031395934E+02 -0.38989478708E+01  0.81495891714E+03  0.10783450649E+04  0.70000000000E+03 0. -1.
<mgrwt>
<rscale>  0 0.14563479E+04</rscale>
<asrwt>0</asrwt>
<pdfrwt beam="1">  1        3 0.21749455E+00 0.14563479E+04</pdfrwt>
<pdfrwt beam="2">  1       -3 0.49753748E-01 0.14563479E+04</pdfrwt>
<totfact> 0.11759182E+00</totfact>
</mgrwt>
</event>
<event>
 8    1  0.1426346E-011  0.1825553E+04  0.7818608E-02  0.8692828E-01
         -3   -1    0    0    0  501 -0.00000000000E+00  0.00000000000E+00  0.13031479914E+04  0.13031479953E+04  0.10100000000E+00 0. -1.
          3   -1    0    0  501    0  0.00000000000E+00 -0.00000000000E+00 -0.63934477361E+03  0.63934478159E+03  0.10100000000E+00 0.  1.
     200001    2    1    2    0    0 -0.12085027715E+03 -0.49549821111E+03  0.24912363615E+02  0.86624708458E+03  0.69974289492E+03 0.  0.
    5000001    2    3    3    0    0 -0.11138513745E+03 -0.13376026833E+03  0.47952779048E+02  0.24861063095E+03  0.17090733915E+03 0.  0.
        -11    1    4    4    0    0  0.13862591274E+02  0.11638948286E+02 -0.33428308363E+02  0.38014317754E+02  0.51100000000E-03 0. -1.
     200002    1    4    4    0    0 -0.12524772873E+03 -0.14539921662E+03  0.81381087411E+02  0.21059631320E+03  0.30000000000E+02 0. -1.
     200000    1    3    3    0    0 -0.94651396954E+01 -0.36173794278E+03 -0.23040415432E+02  0.61763645363E+03  0.50000000000E+03 0.  1.
    -200001    1    1    2    0    0  0.12085027715E+03  0.49549821111E+03  0.63889085418E+03  0.10762456923E+04  0.70000000000E+03 0.  1.
<mgrwt>
<rscale>  0 0.18255529E+04</rscale>
<asrwt>0</asrwt>
<pdfrwt beam="1">  1        3 0.91334970E-01 0.18255529E+04</pdfrwt>
<pdfrwt beam="2">  1       -3 0.18616400E+00 0.18255529E+04</pdfrwt>
<totfact> 0.48139961E-01</totfact>
</mgrwt>
</event>
<event>
 8    1  0.1426346E-011  0.1448547E+04  0.7818608E-02  0.8919408E-01
         -3   -1    0    0    0  501 -0.00000000000E+00  0.00000000000E+00  0.98519252539E+03  0.98519253056E+03  0.10100000000E+00 0. -1.
          3   -1    0    0  501    0  0.00000000000E+00 -0.00000000000E+00 -0.53245649007E+03  0.53245649964E+03  0.10100000000E+00 0.  1.
     200001    2    1    2    0    0 -0.17090610217E+03 -0.63454796536E+02  0.22973163456E+03  0.76070360964E+03  0.70189596867E+03 0.  0.
    5000001    2    3    3    0    0 -0.11019542118E+03  0.26558252720E+02  0.24445888945E+02  0.20940480393E+03  0.17436857167E+03 0.  0.
        -11    1    4    4    0    0 -0.68392384349E+02 -0.52966353432E+02  0.63130625209E+02  0.10709074970E+03  0.51100000000E-03 0. -1.
     200002    1    4    4    0    0 -0.41803036829E+02  0.79524606152E+02 -0.38684736264E+02  0.10231405422E+03  0.30000000000E+02 0. -1.
     200000    1    3    3    0    0 -0.60710680994E+02 -0.90013049256E+02  0.20528574562E+03  0.55129880571E+03  0.50000000000E+03 0. -1.
    -200001    1    1    2    0    0  0.17090610217E+03  0.63454796536E+02  0.22300440076E+03  0.75694542057E+03  0.70000000000E+03 0. -1.
<mgrwt>
<rscale>  0 0.14485471E+04</rscale>
<asrwt>0</asrwt>
<pdfrwt beam="1">  1        3 0.76065214E-01 0.14485471E+04</pdfrwt>
<pdfrwt beam="2">  1       -3 0.14074179E+00 0.14485471E+04</pdfrwt>
<totfact> 0.15794727E+00</totfact>
</mgrwt>
</event>
<event>
 8    1  0.1426346E-011  0.1616038E+04  0.7818608E-02  0.8810755E-01
         -3   -1    0    0    0  501 -0.00000000000E+00  0.00000000000E+00  0.54432132621E+03  0.54432133558E+03  0.10100000000E+00 0.  1.
          3   -1    0    0  501    0  0.00000000000E+00 -0.00000000000E+00 -0.11994662215E+04  0.11994662258E+04  0.10100000000E+00 0. -1.
     200001    2    1    2    0    0 -0.16102256664E+03 -0.96869720087E+02  0.56597382061E+02  0.72796814875E+03  0.70101522972E+03 0.  0.
    5000001    2    3    3    0    0  0.57760390899E+01 -0.96213688381E+02 -0.56708212875E+02  0.18883888494E+03  0.15216394645E+03 0.  0.
        -11    1    4    4    0    0  0.68421988524E+02 -0.75782525142E+02 -0.55966673993E+02  0.11643379333E+03  0.51100000000E-03 0. -1.
     200002    1    4    4    0    0 -0.62645949434E+02 -0.20431163238E+02 -0.74153888214E+00  0.72405091614E+02  0.30000000000E+02 0. -1.
     200000    1    3    3    0    0 -0.16679860573E+03 -0.65603170576E+00  0.11330559494E+03  0.53912926381E+03  0.50000000000E+03 0.  1.
    -200001    1    1    2    0    0  0.16102256664E+03  0.96869720087E+02 -0.71174227737E+03  0.10158194126E+04  0.70000000000E+03 0. -1.
<mgrwt>
<rscale>  0 0.16160384E+04</rscale>
<asrwt>0</asrwt>
<pdfrwt beam="1">  1        3 0.17135232E+00 0.16160384E+04</pdfrwt>
<pdfrwt beam="2">  1       -3 0.77760191E-01 0.16160384E+04</pdfrwt>
<totfact> 0.88830534E-01</totfact>
</mgrwt>
</event>
<event>
 8    1  0.1426346E-011  0.1415143E+04  0.7818608E-02  0.8942930E-01
          3   -1    0    0  501    0  0.00000000000E+00  0.00000000000E+00  0.33167592436E+03  0.33167593974E+03  0.10100000000E+00 0.  1.
         -3   -1    0    0    0  501 -0.00000000000E+00 -0.00000000000E+00 -0.15094776963E+04  0.15094776997E+04  0.10100000000E+00 0. -1.
     200001    2    1    2    0    0  0.27485214446E+02 -0.18250763247E+02 -0.46109996789E+03  0.83878145140E+03  0.69989471741E+03 0.  0.
    5000001    2    3    3    0    0 -0.76927490768E+02 -0.67192608857E+01 -0.25679406381E+03  0.28853069856E+03  0.10650720870E+03 0.  0.
        -11    1    4    4    0    0 -0.83501843515E+02 -0.33765980545E+02 -0.18850484403E+03  0.20891810725E+03  0.51100000000E-03 0. -1.
     200002    1    4    4    0    0  0.65743527476E+01  0.27046719659E+02 -0.68289219780E+02  0.79612591319E+02  0.30000000000E+02 0. -1.
     200000    1    3    3    0    0  0.10441270521E+03 -0.11531502361E+02 -0.20430590408E+03  0.55025075284E+03  0.50000000000E+03 0.  1.
    -200001    1    1    2    0    0 -0.27485214446E+02  0.18250763247E+02 -0.71670180406E+03  0.10023721880E+04  0.70000000000E+03 0. -1.
<mgrwt>
<rscale>  0 0.14151430E+04</rscale>
<asrwt>0</asrwt>
<pdfrwt beam="1">  1        3 0.47382277E-01 0.14151430E+04</pdfrwt>
<pdfrwt beam="2">  1       -3 0.21563967E+00 0.14151430E+04</pdfrwt>
<totfact> 0.13272408E+00</totfact>
</mgrwt>
</event>
<event>
 8    1  0.1426346E-011  0.1764858E+04  0.7818608E-02  0.8725214E-01
         -3   -1    0    0    0  501 -0.00000000000E+00  0.00000000000E+00  0.14959400204E+04  0.14959400238E+04  0.10100000000E+00 0. -1.
          3   -1    0    0  501    0  0.00000000000E+00 -0.00000000000E+00 -0.52052970371E+03  0.52052971351E+03  0.10100000000E+00 0.  1.
     200001    2    1    2    0    0 -0.46738314645E+03 -0.11564652458E+03  0.21602383322E+03  0.87695714173E+03  0.70040446006E+03 0.  0.
    5000001    2    3    3    0    0 -0.89134129174E+01 -0.21040689173E+02  0.11256421177E+03  0.18424605193E+03  0.14406160609E+03 0.  0.
        -11    1    4    4    0    0  0.41602392154E+02 -0.14425560114E+02 -0.12617441902E+02  0.45804537525E+02  0.51100000000E-03 0. -1.
     200002    1    4    4    0    0 -0.50515805071E+02 -0.66151290591E+01  0.12518165367E+03  0.13844151440E+03  0.30000000000E+02 0. -1.
     200000    1    3    3    0    0 -0.45846973353E+03 -0.94605835406E+02  0.10345962145E+03  0.69271108980E+03  0.50000000000E+03 0.  1.
    -200001    1    1    2    0    0  0.46738314645E+03  0.11564652458E+03  0.75938648345E+03  0.11395125956E+04  0.70000000000E+03 0.  1.
<mgrwt>
<rscale>  0 0.17648583E+04</rscale>
<asrwt>0</asrwt>
<pdfrwt beam="1">  1        3 0.74361388E-01 0.17648583E+04</pdfrwt>
<pdfrwt beam="2">  1       -3 0.21370571E+00 0.17648583E+04</pdfrwt>
<totfact> 0.51284352E-01</totfact>
</mgrwt>
</event>
<event>
 8    1  0.1426346E-011  0.1459319E+04  0.7818608E-02  0.8911965E-01
         -3   -1    0    0    0  501 -0.00000000000E+00  0.00000000000E+00  0.10891440398E+04  0.10891440445E+04  0.10100000000E+00 0. -1.
          3   -1    0    0  501    0  0.00000000000E+00 -0.00000000000E+00 -0.48882720547E+03  0.48882721591E+03  0.10100000000E+00 0.  1.
     200001    2    1    2    0    0 -0.95388743915E+02  0.17606853554E+03  0.34940231331E+03  0.80786916420E+03  0.70033668206E+03 0.  0.
    5000001    2    3    3    0    0 -0.11881386537E+03  0.68744879062E+02  0.58566294966E+02  0.21909697301E+03  0.16040847756E+03 0.  0.
        -11    1    4    4    0    0 -0.13946755863E+03  0.30257603042E+02  0.78024062254E+02  0.16264832228E+03  0.51100000000E-03 0. -1.
     200002    1    4    4    0    0  0.20653693254E+02  0.38487276020E+02 -0.19457767287E+02  0.56448650722E+02  0.30000000000E+02 0. -1.
     200000    1    3    3    0    0  0.23425121457E+02  0.10732365647E+03  0.29083601835E+03  0.58877219119E+03  0.50000000000E+03 0. -1.
    -200001    1    1    2    0    0  0.95388743915E+02 -0.17606853554E+03  0.25091452099E+03  0.77010209616E+03  0.70000000000E+03 0. -1.
<mgrwt>
<rscale>  0 0.14593194E+04</rscale>
<asrwt>0</asrwt>
<pdfrwt beam="1">  1        3 0.69832461E-01 0.14593194E+04</pdfrwt>
<pdfrwt beam="2">  1       -3 0.15559200E+00 0.14593194E+04</pdfrwt>
<totfact> 0.14677930E+00</totfact>
</mgrwt>
</event>
<event>
 8    1  0.1426346E-011  0.1473472E+04  0.7818608E-02  0.8902288E-01
          3   -1    0    0  501    0  0.00000000000E+00  0.00000000000E+00  0.11556418652E+04  0.11556418696E+04  0.10100000000E+00 0.  1.
         -3   -1    0    0    0  501 -0.00000000000E+00 -0.00000000000E+00 -0.46967852349E+03  0.46967853435E+03  0.10100000000E+00 0. -1.
     200001    2    1    2    0    0 -0.80431093881E+02  0.91517569713E+02  0.12793525247E+03  0.72186040219E+03  0.69990741173E+03 0.  0.
    5000001    2    3    3    0    0 -0.21246100948E+02  0.45349594960E+00  0.20138546043E+02  0.19896877017E+03  0.19680296746E+03 0.  0.
        -11    1    4    4    0    0 -0.68266668721E+01 -0.94870191138E+02  0.23387319329E+02  0.97948574532E+02  0.51100000000E-03 0. -1.
     200002    1    4    4    0    0 -0.14419434076E+02  0.95323687088E+02 -0.32487732861E+01  0.10102019564E+03  0.30000000000E+02 0. -1.
     200000    1    3    3    0    0 -0.59184992933E+02  0.91064073763E+02  0.10779670642E+03  0.52289163202E+03  0.50000000000E+03 0. -1.
    -200001    1    1    2    0    0  0.80431093881E+02 -0.91517569713E+02  0.55802808927E+03  0.90346000179E+03  0.70000000000E+03 0.  1.
<mgrwt>
<rscale>  0 0.14734723E+04</rscale>
<asrwt>0</asrwt>
<pdfrwt beam="1">  1        3 0.16509170E+00 0.14734723E+04</pdfrwt>
<pdfrwt beam="2">  1       -3 0.67096933E-01 0.14734723E+04</pdfrwt>
<totfact> 0.13705481E+00</totfact>
</mgrwt>
</event>
<event>
 8    1  0.1426346E-011  0.2239127E+04  0.7818608E-02  0.8502317E-01
          3   -1    0    0  501    0  0.00000000000E+00  0.00000000000E+00  0.42771881466E+03  0.42771882659E+03  0.10100000000E+00 0.  1.
         -3   -1    0    0    0  501 -0.00000000000E+00 -0.00000000000E+00 -0.29304823795E+04  0.29304823812E+04  0.10100000000E+00 0. -1.
     200001    2    1    2    0    0 -0.21599810374E+03  0.52965449784E+03 -0.26080457769E+03  0.94085365979E+03  0.69999822393E+03 0.  0.
    5000001    2    3    3    0    0 -0.93319138584E+02  0.12983615232E+03 -0.11223922414E+03  0.27229064692E+03  0.18968042832E+03 0.  0.
        -11    1    4    4    0    0 -0.50548376535E+02 -0.34406681131E+02 -0.73553520733E+02  0.95650815413E+02  0.51100000000E-03 0. -1.
     200002    1    4    4    0    0 -0.42770762050E+02  0.16424283345E+03 -0.38685703404E+02  0.17663983150E+03  0.30000000000E+02 0. -1.
     200000    1    3    3    0    0 -0.12267896515E+03  0.39981834553E+03 -0.14856535355E+03  0.66856301288E+03  0.50000000000E+03 0.  1.
    -200001    1    1    2    0    0  0.21599810374E+03 -0.52965449784E+03 -0.22419589871E+04  0.24173475480E+04  0.70000000000E+03 0. -1.
<mgrwt>
<rscale>  0 0.22391270E+04</rscale>
<asrwt>0</asrwt>
<pdfrwt beam="1">  1        3 0.61102690E-01 0.22391270E+04</pdfrwt>
<pdfrwt beam="2">  1       -3 0.41864033E+00 0.22391270E+04</pdfrwt>
<totfact> 0.52357838E-02</totfact>
</mgrwt>
</event>
<event>
 8    1  0.1426346E-011  0.2191751E+04  0.7818608E-02  0.8521869E-01
         -3   -1    0    0    0  501 -0.00000000000E+00  0.00000000000E+00  0.11973130248E+04  0.11973130291E+04  0.10100000000E+00 0. -1.
          3   -1    0    0  501    0  0.00000000000E+00 -0.00000000000E+00 -0.10030322838E+04  0.10030322889E+04  0.10100000000E+00 0.  1.
     200001    2    1    2    0    0 -0.22424898327E+03 -0.39025661314E+03 -0.61817356730E+03  0.10373019681E+04  0.70090583041E+03 0.  0.
    5000001    2    3    3    0    0 -0.11467279629E+03 -0.12797822648E+03 -0.90949643527E+02  0.25706997781E+03  0.16818103094E+03 0.  0.
        -11    1    4    4    0    0 -0.37628014414E+01 -0.11260219033E+03 -0.84753871018E+02  0.14098450480E+03  0.51100000000E-03 0. -1.
     200002    1    4    4    0    0 -0.11090999485E+03 -0.15376036152E+02 -0.61957725086E+01  0.11608547301E+03  0.30000000000E+02 0. -1.
     200000    1    3    3    0    0 -0.10957618698E+03 -0.26227838666E+03 -0.52722392377E+03  0.78023199028E+03  0.50000000000E+03 0.  1.
    -200001    1    1    2    0    0  0.22424898327E+03  0.39025661314E+03  0.81245430830E+03  0.11630433499E+04  0.70000000000E+03 0. -1.
<mgrwt>
<rscale>  0 0.21917515E+04</rscale>
<asrwt>0</asrwt>
<pdfrwt beam="1">  1        3 0.14329033E+00 0.21917515E+04</pdfrwt>
<pdfrwt beam="2">  1       -3 0.17104472E+00 0.21917515E+04</pdfrwt>
<totfact> 0.19934721E-01</totfact>
</mgrwt>
</event>
<event>
 8    1  0.1426346E-011  0.2193866E+04  0.7818608E-02  0.8520985E-01
         -3   -1    0    0    0  501 -0.00000000000E+00  0.00000000000E+00  0.10097724493E+04  0.10097724543E+04  0.10100000000E+00 0. -1.
          3   -1    0    0  501    0  0.00000000000E+00 -0.00000000000E+00 -0.11916173062E+04  0.11916173105E+04  0.10100000000E+00 0.  1.
     200001    2    1    2    0    0 -0.46993636280E+03 -0.68017577287E+03 -0.26169008739E+03  0.11151786767E+04  0.70118650309E+03 0.  0.
    5000001    2    3    3    0    0 -0.16416975683E+03 -0.16386093150E+03 -0.86581964545E+02  0.31471812965E+03  0.19429089175E+03 0.  0.
        -11    1    4    4    0    0 -0.59813832323E+02 -0.11155717967E+03 -0.13479266509E+03  0.18491014422E+03  0.51100000000E-03 0. -1.
     200002    1    4    4    0    0 -0.10435592451E+03 -0.52303751831E+02  0.48210700545E+02  0.12980798543E+03  0.30000000000E+02 0. -1.
     200000    1    3    3    0    0 -0.30576660597E+03 -0.51631484137E+03 -0.17510812284E+03  0.80046054708E+03  0.50000000000E+03 0. -1.
    -200001    1    1    2    0    0  0.46993636280E+03  0.68017577287E+03  0.79845230480E+02  0.10862110881E+04  0.70000000000E+03 0. -1.
<mgrwt>
<rscale>  0 0.21938663E+04</rscale>
<asrwt>0</asrwt>
<pdfrwt beam="1">  1        3 0.17023105E+00 0.21938663E+04</pdfrwt>
<pdfrwt beam="2">  1       -3 0.14425321E+00 0.21938663E+04</pdfrwt>
<totfact> 0.19873285E-01</totfact>
</mgrwt>
</event>
<event>
 8    1  0.1426346E-011  0.1632183E+04  0.7818608E-02  0.8801017E-01
          3   -1    0    0  501    0  0.00000000000E+00  0.00000000000E+00  0.21338866573E+04  0.21338866597E+04  0.10100000000E+00 0.  1.
         -3   -1    0    0    0  501 -0.00000000000E+00 -0.00000000000E+00 -0.31210903014E+03  0.31210904648E+03  0.10100000000E+00 0. -1.
     200001    2    1    2    0    0  0.15759081102E+03  0.22417439069E+03  0.13843832536E+04  0.15762814662E+04  0.70218035207E+03 0.  0.
    5000001    2    3    3    0    0  0.10279987040E+03 -0.84343715319E+02  0.32380724461E+03  0.36260649339E+03  0.94607936863E+02 0.  0.
        -11    1    4    4    0    0  0.66705279238E+02 -0.62971059950E+02  0.28096586116E+03  0.29556177664E+03  0.51100000000E-03 0. -1.
     200002    1    4    4    0    0  0.36094591158E+02 -0.21372655369E+02  0.42841383444E+02  0.67044716748E+02  0.30000000000E+02 0. -1.
     200000    1    3    3    0    0  0.54790940622E+02  0.30851810601E+03  0.10605760090E+04  0.12136749728E+04  0.50000000000E+03 0. -1.
    -200001    1    1    2    0    0 -0.15759081102E+03 -0.22417439069E+03  0.43739437363E+03  0.86971423999E+03  0.70000000000E+03 0. -1.
<mgrwt>
<rscale>  0 0.16321830E+04</rscale>
<asrwt>0</asrwt>
<pdfrwt beam="1">  1        3 0.30484095E+00 0.16321830E+04</pdfrwt>
<pdfrwt beam="2">  1       -3 0.44587006E-01 0.16321830E+04</pdfrwt>
<totfact> 0.46021272E-01</totfact>
</mgrwt>
</event>
<event>
 8    1  0.1426346E-011  0.1544219E+04  0.7818608E-02  0.8855569E-01
          3   -1    0    0  501    0  0.00000000000E+00  0.00000000000E+00  0.35893535963E+03  0.35893537384E+03  0.10100000000E+00 0.  1.
         -3   -1    0    0    0  501 -0.00000000000E+00 -0.00000000000E+00 -0.16608934052E+04  0.16608934082E+04  0.10100000000E+00 0. -1.
     200001    2    1    2    0    0  0.25066473405E+03 -0.19629977745E+03 -0.74496273038E+03  0.10702972172E+04  0.69942851820E+03 0.  0.
    5000001    2    3    3    0    0 -0.24998243567E+02 -0.78972062144E+02 -0.33838516291E+03  0.35962064638E+03  0.89224391555E+02 0.  0.
        -11    1    4    4    0    0 -0.34571246257E+02 -0.13741085466E+01 -0.14143933767E+03  0.14560956522E+03  0.51100000000E-03 0. -1.
     200002    1    4    4    0    0  0.95730026900E+01 -0.77597953598E+02 -0.19694582523E+03  0.21401108116E+03  0.30000000000E+02 0. -1.
     200000    1    3    3    0    0  0.27566297761E+03 -0.11732771531E+03 -0.40657756748E+03  0.71067657087E+03  0.50000000000E+03 0. -1.
    -200001    1    1    2    0    0 -0.25066473405E+03  0.19629977745E+03 -0.55699531516E+03  0.94953156484E+03  0.70000000000E+03 0. -1.
<mgrwt>
<rscale>  0 0.15442194E+04</rscale>
<asrwt>0</asrwt>
<pdfrwt beam="1">  1        3 0.51276482E-01 0.15442194E+04</pdfrwt>
<pdfrwt beam="2">  1       -3 0.23727048E+00 0.15442194E+04</pdfrwt>
<totfact> 0.82995844E-01</totfact>
</mgrwt>
</event>
<event>
 8    1  0.1426346E-011  0.1683033E+04  0.7818608E-02  0.8771101E-01
         -3   -1    0    0    0  501 -0.00000000000E+00  0.00000000000E+00  0.86836923798E+03  0.86836924385E+03  0.10100000000E+00 0. -1.
          3   -1    0    0  501    0  0.00000000000E+00 -0.00000000000E+00 -0.81549449468E+03  0.81549450094E+03  0.10100000000E+00 0.  1.
     200001    2    1    2    0    0  0.26970683969E+03 -0.26094861185E+03 -0.25175962659E+03  0.83319456308E+03  0.69999593782E+03 0.  0.
    5000001    2    3    3    0    0 -0.49228894534E+02 -0.71508554949E+02 -0.62181584928E+02  0.18238939131E+03  0.14785933542E+03 0.  0.
        -11    1    4    4    0    0 -0.67172288341E+02 -0.10158965498E+03 -0.61106441593E+02  0.13625920712E+03  0.51100000000E-03 0. -1.
     200002    1    4    4    0    0  0.17943393807E+02  0.30081100031E+02 -0.10751433343E+01  0.46130184192E+02  0.30000000000E+02 0. -1.
     200000    1    3    3    0    0  0.31893573422E+03 -0.18944005690E+03 -0.18957804166E+03  0.65080517177E+03  0.50000000000E+03 0.  1.
    -200001    1    1    2    0    0 -0.26970683969E+03  0.26094861185E+03  0.30463436989E+03  0.85066918171E+03  0.70000000000E+03 0. -1.
<mgrwt>
<rscale>  0 0.16830334E+04</rscale>
<asrwt>0</asrwt>
<pdfrwt beam="1">  1        3 0.11649921E+00 0.16830334E+04</pdfrwt>
<pdfrwt beam="2">  1       -3 0.12405275E+00 0.16830334E+04</pdfrwt>
<totfact> 0.79620030E-01</totfact>
</mgrwt>
</event>
<event>
 8    1  0.1426346E-011  0.1813567E+04  0.7818608E-02  0.8699118E-01
          3   -1    0    0  501    0  0.00000000000E+00  0.00000000000E+00  0.17393972310E+04  0.17393972339E+04  0.10100000000E+00 0. -1.
         -3   -1    0    0    0  501 -0.00000000000E+00 -0.00000000000E+00 -0.47272503443E+03  0.47272504522E+03  0.10100000000E+00 0.  1.
     200001    2    1    2    0    0  0.15075510824E+03  0.53233121172E+03  0.44340334046E+03  0.99808964735E+03  0.70247619190E+03 0.  0.
    5000001    2    3    3    0    0  0.11977211931E+02  0.14681613388E+03  0.21213778697E+03  0.31152942714E+03  0.17421168888E+03 0.  0.
        -11    1    4    4    0    0 -0.70742606244E+02  0.11373372184E+03  0.11827360995E+03  0.17868554120E+03  0.51100000000E-03 0. -1.
     200002    1    4    4    0    0  0.82719818176E+02  0.33082412039E+02  0.93864177016E+02  0.13284388594E+03  0.30000000000E+02 0. -1.
     200000    1    3    3    0    0  0.13877789630E+03  0.38551507784E+03  0.23126555349E+03  0.68656022021E+03  0.50000000000E+03 0.  1.
    -200001    1    1    2    0    0 -0.15075510824E+03 -0.53233121172E+03  0.82326885610E+03  0.12140326318E+04  0.70000000000E+03 0. -1.
<mgrwt>
<rscale>  0 0.18135673E+04</rscale>
<asrwt>0</asrwt>
<pdfrwt beam="1">  1        3 0.24848532E+00 0.18135673E+04</pdfrwt>
<pdfrwt beam="2">  1       -3 0.67532148E-01 0.18135673E+04</pdfrwt>
<totfact> 0.39499154E-01</totfact>
</mgrwt>
</event>
<event>
 8    1  0.1426346E-011  0.1474311E+04  0.7818608E-02  0.8901718E-01
          3   -1    0    0  501    0  0.00000000000E+00  0.00000000000E+00  0.12371484209E+04  0.12371484250E+04  0.10100000000E+00 0.  1.
         -3   -1    0    0    0  501 -0.00000000000E+00 -0.00000000000E+00 -0.43923437701E+03  0.43923438862E+03  0.10100000000E+00 0. -1.
     200001    2    1    2    0    0  0.80104781460E+02 -0.20116530183E+03  0.45207361611E+03  0.86614219743E+03  0.70636215719E+03 0.  0.
    5000001    2    3    3    0    0 -0.48658122193E+02 -0.24139387575E+01  0.18231976929E+03  0.25063498581E+03  0.16493622369E+03 0.  0.
        -11    1    4    4    0    0 -0.57698895127E+02  0.20841002222E+01  0.20416702326E+03  0.21217370091E+03  0.51100000000E-03 0. -1.
     200002    1    4    4    0    0  0.90407729348E+01 -0.44980389797E+01 -0.21847253972E+02  0.38461284898E+02  0.30000000000E+02 0. -1.
     200000    1    3    3    0    0  0.12876290365E+03 -0.19875136308E+03  0.26975384682E+03  0.61550721162E+03  0.50000000000E+03 0.  1.
    -200001    1    1    2    0    0 -0.80104781460E+02  0.20116530183E+03  0.34584042779E+03  0.81024061622E+03  0.70000000000E+03 0. -1.
<mgrwt>
<rscale>  0 0.14743109E+04</rscale>
<asrwt>0</asrwt>
<pdfrwt beam="1">  1        3 0.17673549E+00 0.14743109E+04</pdfrwt>
<pdfrwt beam="2">  1       -3 0.62747770E-01 0.14743109E+04</pdfrwt>
<totfact> 0.13150952E+00</totfact>
</mgrwt>
</event>
<event>
 8    1  0.1426346E-011  0.2349692E+04  0.7818608E-02  0.8458582E-01
          3   -1    0    0  501    0  0.00000000000E+00  0.00000000000E+00  0.54451389553E+03  0.54451390490E+03  0.10100000000E+00 0. -1.
         -3   -1    0    0    0  501 -0.00000000000E+00 -0.00000000000E+00 -0.25348540310E+04  0.25348540330E+04  0.10100000000E+00 0.  1.
     200001    2    1    2    0    0  0.68605584613E+03 -0.18701743309E+03 -0.18079486418E+04  0.20650135613E+04  0.69996755123E+03 0.  0.
    5000001    2    3    3    0    0  0.34506759400E+03  0.59006349372E+01 -0.68860764505E+03  0.77799583182E+03  0.10950143187E+03 0.  0.
        -11    1    4    4    0    0  0.48979592094E+02 -0.16897848412E+02 -0.18944152748E+03  0.19639916002E+03  0.51100000000E-03 0. -1.
     200002    1    4    4    0    0  0.29608800190E+03  0.22798483349E+02 -0.49916611757E+03  0.58159667180E+03  0.30000000000E+02 0. -1.
     200000    1    3    3    0    0  0.34098825214E+03 -0.19291806803E+03 -0.11193409967E+04  0.12870177295E+04  0.50000000000E+03 0. -1.
    -200001    1    1    2    0    0 -0.68605584613E+03  0.18701743309E+03 -0.18239149364E+03  0.10143543766E+04  0.70000000000E+03 0. -1.
<mgrwt>
<rscale>  0 0.23496921E+04</rscale>
<asrwt>0</asrwt>
<pdfrwt beam="1">  1        3 0.77787701E-01 0.23496921E+04</pdfrwt>
<pdfrwt beam="2">  1       -3 0.36212200E+00 0.23496921E+04</pdfrwt>
<totfact> 0.63038804E-02</totfact>
</mgrwt>
</event>
<event>
 8    1  0.1426346E-011  0.1943303E+04  0.7818608E-02  0.8633597E-01
         -3   -1    0    0    0  501 -0.00000000000E+00  0.00000000000E+00  0.16726942720E+04  0.16726942751E+04  0.10100000000E+00 0. -1.
          3   -1    0    0  501    0  0.00000000000E+00 -0.00000000000E+00 -0.56442284667E+03  0.56442285571E+03  0.10100000000E+00 0.  1.
     200001    2    1    2    0    0  0.34221164459E+03 -0.43620268786E+03  0.11320962315E+03  0.90013187103E+03  0.70002812221E+03 0.  0.
    5000001    2    3    3    0    0  0.27244266083E+02 -0.81524093652E+02 -0.90329492721E+01  0.20017144270E+03  0.18055078073E+03 0.  0.
        -11    1    4    4    0    0  0.50419199135E+02  0.43869178948E+02 -0.16902840417E+02  0.68936974966E+02  0.51100000000E-03 0. -1.
     200002    1    4    4    0    0 -0.23174933053E+02 -0.12539327260E+03  0.78698911453E+01  0.13123446774E+03  0.30000000000E+02 0. -1.
     200000    1    3    3    0    0  0.31496737851E+03 -0.35467859421E+03  0.12224257243E+03  0.69996042833E+03  0.50000000000E+03 0.  1.
    -200001    1    1    2    0    0 -0.34221164459E+03  0.43620268786E+03  0.99506180221E+03  0.13369852598E+04  0.70000000000E+03 0. -1.
<mgrwt>
<rscale>  0 0.19433032E+04</rscale>
<asrwt>0</asrwt>
<pdfrwt beam="1">  1        3 0.80631835E-01 0.19433032E+04</pdfrwt>
<pdfrwt beam="2">  1       -3 0.23895633E+00 0.19433032E+04</pdfrwt>
<totfact> 0.29802074E-01</totfact>
</mgrwt>
</event>
<event>
 8    1  0.1426346E-011  0.1725556E+04  0.7818608E-02  0.8746922E-01
          3   -1    0    0  501    0  0.00000000000E+00  0.00000000000E+00  0.84969633215E+03  0.84969633816E+03  0.10100000000E+00 0.  1.
         -3   -1    0    0    0  501 -0.00000000000E+00 -0.00000000000E+00 -0.87606071364E+03  0.87606071946E+03  0.10100000000E+00 0. -1.
     200001    2    1    2    0    0  0.31178679236E+03 -0.20092293971E+03 -0.35991199841E+03  0.86620191434E+03  0.69511731256E+03 0.  0.
    5000001    2    3    3    0    0  0.53877399246E+02 -0.91413143658E+02 -0.10836080023E+03  0.24027248079E+03  0.18635896816E+03 0.  0.
        -11    1    4    4    0    0  0.25814778417E+02 -0.24455571674E+02  0.51249900595E+02  0.62378121821E+02  0.51100000000E-03 0. -1.
     200002    1    4    4    0    0  0.28062620829E+02 -0.66957571985E+02 -0.15961070083E+03  0.17789435897E+03  0.30000000000E+02 0. -1.
     200000    1    3    3    0    0  0.25790939311E+03 -0.10950979605E+03 -0.25155119818E+03  0.62592943355E+03  0.50000000000E+03 0.  1.
    -200001    1    1    2    0    0 -0.31178679236E+03  0.20092293971E+03  0.33354761692E+03  0.85955514328E+03  0.70000000000E+03 0.  1.
<mgrwt>
<rscale>  0 0.17255557E+04</rscale>
<asrwt>0</asrwt>
<pdfrwt beam="1">  1        3 0.12138519E+00 0.17255557E+04</pdfrwt>
<pdfrwt beam="2">  1       -3 0.12515153E+00 0.17255557E+04</pdfrwt>
<totfact> 0.70269921E-01</totfact>
</mgrwt>
</event>
<event>
 8    1  0.1426346E-011  0.1438933E+04  0.7818608E-02  0.8926109E-01
          3   -1    0    0  501    0  0.00000000000E+00  0.00000000000E+00  0.10769649036E+04  0.10769649084E+04  0.10100000000E+00 0.  1.
         -3   -1    0    0    0  501 -0.00000000000E+00 -0.00000000000E+00 -0.48063980695E+03  0.48063981756E+03  0.10100000000E+00 0. -1.
     200001    2    1    2    0    0  0.15800302271E+03 -0.48821559261E+02  0.27401621378E+03  0.76942231313E+03  0.69969801393E+03 0.  0.
    5000001    2    3    3    0    0  0.60749768108E+02 -0.35062144529E+02  0.16731825288E+03  0.24881500250E+03  0.17027512859E+03 0.  0.
        -11    1    4    4    0    0  0.47486759195E+02 -0.80667468460E+02  0.16835624119E+03  0.19262932465E+03  0.51100000000E-03 0. -1.
     200002    1    4    4    0    0  0.13263008912E+02  0.45605323931E+02 -0.10379883033E+01  0.56185677855E+02  0.30000000000E+02 0. -1.
     200000    1    3    3    0    0  0.97253254604E+02 -0.13759414732E+02  0.10669796090E+03  0.52060731063E+03  0.50000000000E+03 0.  1.
    -200001    1    1    2    0    0 -0.15800302271E+03  0.48821559261E+02  0.32230888289E+03  0.78818241279E+03  0.70000000000E+03 0.  1.
<mgrwt>
<rscale>  0 0.14389332E+04</rscale>
<asrwt>0</asrwt>
<pdfrwt beam="1">  1        3 0.15385213E+00 0.14389332E+04</pdfrwt>
<pdfrwt beam="2">  1       -3 0.68662831E-01 0.14389332E+04</pdfrwt>
<totfact> 0.15755209E+00</totfact>
</mgrwt>
</event>
<event>
 8    1  0.1426346E-011  0.1417592E+04  0.7818608E-02  0.8941182E-01
          3   -1    0    0  501    0  0.00000000000E+00  0.00000000000E+00  0.18784778925E+04  0.18784778952E+04  0.10100000000E+00 0. -1.
         -3   -1    0    0    0  501 -0.00000000000E+00 -0.00000000000E+00 -0.26744613377E+03  0.26744615284E+03  0.10100000000E+00 0.  1.
     200001    2    1    2    0    0  0.78525114352E+02  0.37291123996E+02  0.91000821635E+03  0.11514438680E+04  0.70010799585E+03 0.  0.
    5000001    2    3    3    0    0  0.98905601895E+02 -0.46594895762E+02  0.18862591158E+03  0.26948884750E+03  0.15840171088E+03 0.  0.
        -11    1    4    4    0    0  0.76931955895E+02 -0.94187963460E+02  0.16421534346E+03  0.20434426179E+03  0.51100000000E-03 0. -1.
     200002    1    4    4    0    0  0.21973646001E+02  0.47593067698E+02  0.24410568126E+02  0.65144585713E+02  0.30000000000E+02 0. -1.
     200000    1    3    3    0    0 -0.20380487543E+02  0.83886019758E+02  0.72138230477E+03  0.88195502052E+03  0.50000000000E+03 0. -1.
    -200001    1    1    2    0    0 -0.78525114352E+02 -0.37291123996E+02  0.70102354238E+03  0.99448018004E+03  0.70000000000E+03 0.  1.
<mgrwt>
<rscale>  0 0.14175919E+04</rscale>
<asrwt>0</asrwt>
<pdfrwt beam="1">  1        3 0.26835399E+00 0.14175919E+04</pdfrwt>
<pdfrwt beam="2">  1       -3 0.38206591E-01 0.14175919E+04</pdfrwt>
<totfact> 0.10149023E+00</totfact>
</mgrwt>
</event>
<event>
 8    1  0.1426346E-011  0.2263406E+04  0.7818608E-02  0.8492491E-01
          3   -1    0    0  501    0  0.00000000000E+00  0.00000000000E+00  0.29806883606E+04  0.29806883623E+04  0.10100000000E+00 0.  1.
         -3   -1    0    0    0  501 -0.00000000000E+00 -0.00000000000E+00 -0.42968334531E+03  0.42968335719E+03  0.10100000000E+00 0. -1.
     200001    2    1    2    0    0  0.64812159175E+03 -0.16113894421E+03  0.39075202697E+03  0.10433651013E+04  0.69992587536E+03 0.  0.
    5000001    2    3    3    0    0  0.14685893018E+03 -0.51966004922E+01  0.11045907704E+03  0.26609654525E+03  0.19238402652E+03 0.  0.
        -11    1    4    4    0    0 -0.28621506923E+02 -0.40956488155E+02  0.59098434225E+02  0.77390241689E+02  0.51100000000E-03 0. -1.
     200002    1    4    4    0    0  0.17548043711E+03  0.35759887663E+02  0.51360642813E+02  0.18870630356E+03  0.30000000000E+02 0. -1.
     200000    1    3    3    0    0  0.50126266157E+03 -0.15594234372E+03  0.28029294993E+03  0.77726855605E+03  0.50000000000E+03 0. -1.
    -200001    1    1    2    0    0 -0.64812159175E+03  0.16113894421E+03  0.21602529883E+04  0.23670066182E+04  0.70000000000E+03 0.  1.
<mgrwt>
<rscale>  0 0.22634064E+04</rscale>
<asrwt>0</asrwt>
<pdfrwt beam="1">  1        3 0.42581263E+00 0.22634064E+04</pdfrwt>
<pdfrwt beam="2">  1       -3 0.61383335E-01 0.22634064E+04</pdfrwt>
<totfact> 0.50414745E-02</totfact>
</mgrwt>
</event>
<event>
 8    1  0.1426346E-011  0.1695793E+04  0.7818608E-02  0.8763768E-01
         -3   -1    0    0    0  501 -0.00000000000E+00  0.00000000000E+00  0.10156096252E+04  0.10156096302E+04  0.10100000000E+00 0.  1.
          3   -1    0    0  501    0  0.00000000000E+00 -0.00000000000E+00 -0.70787847112E+03  0.70787847832E+03  0.10100000000E+00 0. -1.
     200001    2    1    2    0    0  0.39007875229E+03  0.25351996246E+03  0.26750047199E+03  0.88202966502E+03  0.69999001643E+03 0.  0.
    5000001    2    3    3    0    0  0.82515821724E+02  0.16966342352E+03  0.81084739740E+02  0.26043679134E+03  0.16018130086E+03 0.  0.
        -11    1    4    4    0    0  0.59559959450E+01 -0.21551746098E+02  0.43520803539E+02  0.48928641801E+02  0.51100000000E-03 0. -1.
     200002    1    4    4    0    0  0.76559825778E+02  0.19121516962E+03  0.37563936202E+02  0.21150814954E+03  0.30000000000E+02 0. -1.
     200000    1    3    3    0    0  0.30756293057E+03  0.83856538931E+02  0.18641573225E+03  0.62159287368E+03  0.50000000000E+03 0.  1.
    -200001    1    1    2    0    0 -0.39007875229E+03 -0.25351996246E+03  0.40230682059E+02  0.84145844350E+03  0.70000000000E+03 0. -1.
<mgrwt>
<rscale>  0 0.16957927E+04</rscale>
<asrwt>0</asrwt>
<pdfrwt beam="1">  1        3 0.10112550E+00 0.16957927E+04</pdfrwt>
<pdfrwt beam="2">  1       -3 0.14508709E+00 0.16957927E+04</pdfrwt>
<totfact> 0.75114223E-01</totfact>
</mgrwt>
</event>
<event>
 8    1  0.1426346E-011  0.2159903E+04  0.7818608E-02  0.8535305E-01
         -3   -1    0    0    0  501 -0.00000000000E+00  0.00000000000E+00  0.76110935137E+03  0.76110935808E+03  0.10100000000E+00 0.  1.
          3   -1    0    0  501    0  0.00000000000E+00 -0.00000000000E+00 -0.15323615964E+04  0.15323615997E+04  0.10100000000E+00 0. -1.
     200001    2    1    2    0    0  0.18378238419E+03 -0.34100472402E+03 -0.11561269441E+04  0.14056710251E+04  0.69944358849E+03 0.  0.
    5000001    2    3    3    0    0 -0.18437645471E+02 -0.38992085521E+02 -0.19570633903E+03  0.26351853407E+03  0.17111609262E+03 0.  0.
        -11    1    4    4    0    0 -0.24745260164E+01  0.65466859259E+02 -0.87686789008E+02  0.10945778139E+03  0.51100000000E-03 0. -1.
     200002    1    4    4    0    0 -0.15963119455E+02 -0.10445894478E+03 -0.10801955003E+03  0.15406075268E+03  0.30000000000E+02 0. -1.
     200000    1    3    3    0    0  0.20222002966E+03 -0.30201263850E+03 -0.96042060503E+03  0.11421524910E+04  0.50000000000E+03 0. -1.
    -200001    1    1    2    0    0 -0.18378238419E+03  0.34100472402E+03  0.38487469904E+03  0.88779993270E+03  0.70000000000E+03 0.  1.
<mgrwt>
<rscale>  0 0.21599025E+04</rscale>
<asrwt>0</asrwt>
<pdfrwt beam="1">  1        3 0.21890880E+00 0.21599025E+04</pdfrwt>
<pdfrwt beam="2">  1       -3 0.10872991E+00 0.21599025E+04</pdfrwt>
<totfact> 0.19481775E-01</totfact>
</mgrwt>
</event>
<event>
 8    1  0.1426346E-011  0.1938467E+04  0.7818608E-02  0.8635942E-01
          3   -1    0    0  501    0  0.00000000000E+00  0.00000000000E+00  0.18008488474E+04  0.18008488503E+04  0.10100000000E+00 0.  1.
         -3   -1    0    0    0  501 -0.00000000000E+00 -0.00000000000E+00 -0.52165049006E+03  0.52165049984E+03  0.10100000000E+00 0. -1.
     200001    2    1    2    0    0  0.12673838050E+03 -0.90494792973E+02 -0.14348682053E+03  0.72929972668E+03  0.69788086305E+03 0.  0.
    5000001    2    3    3    0    0 -0.44798865614E+02 -0.54482395007E+02 -0.75572849854E+02  0.19513287351E+03  0.16550019022E+03 0.  0.
        -11    1    4    4    0    0  0.20554374569E+02  0.24960554906E+02 -0.81636005231E+02  0.87806315066E+02  0.51100000000E-03 0. -1.
     200002    1    4    4    0    0 -0.65353240184E+02 -0.79442949912E+02  0.60631553769E+01  0.10732655844E+03  0.30000000000E+02 0. -1.
     200000    1    3    3    0    0  0.17153724612E+03 -0.36012397967E+02 -0.67913970680E+02  0.53416685317E+03  0.50000000000E+03 0. -1.
    -200001    1    1    2    0    0 -0.12673838050E+03  0.90494792973E+02  0.14226851779E+04  0.15931996234E+04  0.70000000000E+03 0.  1.
<mgrwt>
<rscale>  0 0.19384671E+04</rscale>
<asrwt>0</asrwt>
<pdfrwt beam="1">  1        3 0.25726413E+00 0.19384671E+04</pdfrwt>
<pdfrwt beam="2">  1       -3 0.74521498E-01 0.19384671E+04</pdfrwt>
<totfact> 0.28087842E-01</totfact>
</mgrwt>
</event>
<event>
 8    1  0.1426346E-011  0.1497564E+04  0.7818608E-02  0.8886075E-01
         -3   -1    0    0    0  501 -0.00000000000E+00  0.00000000000E+00  0.18750426880E+03  0.18750429600E+03  0.10100000000E+00 0. -1.
          3   -1    0    0  501    0  0.00000000000E+00 -0.00000000000E+00 -0.29901952134E+04  0.29901952151E+04  0.10100000000E+00 0.  1.
     200001    2    1    2    0    0  0.71645512359E+01 -0.26488767084E+03 -0.13674330685E+04  0.15590018927E+04  0.70028343950E+03 0.  0.
    5000001    2    3    3    0    0  0.93720643499E+02 -0.15436323386E+03 -0.30744503055E+03  0.37862811762E+03  0.12737832492E+03 0.  0.
        -11    1    4    4    0    0  0.10520824202E+03 -0.61113493447E+02 -0.18459276664E+03  0.22108397221E+03  0.51100000000E-03 0. -1.
     200002    1    4    4    0    0 -0.11487598522E+02 -0.93249740413E+02 -0.12285226391E+03  0.15754414541E+03  0.30000000000E+02 0. -1.
     200000    1    3    3    0    0 -0.86556092263E+02 -0.11052443698E+03 -0.10599880380E+04  0.11803737751E+04  0.50000000000E+03 0. -1.
    -200001    1    1    2    0    0 -0.71645512359E+01  0.26488767084E+03 -0.14352578760E+04  0.16186976184E+04  0.70000000000E+03 0.  1.
<mgrwt>
<rscale>  0 0.14975639E+04</rscale>
<asrwt>0</asrwt>
<pdfrwt beam="1">  1        3 0.42717072E+00 0.14975639E+04</pdfrwt>
<pdfrwt beam="2">  1       -3 0.26786328E-01 0.14975639E+04</pdfrwt>
<totfact> 0.27665657E-01</totfact>
</mgrwt>
</event>
<event>
 8    1  0.1426346E-011  0.1757003E+04  0.7818608E-02  0.8729505E-01
         -3   -1    0    0    0  501 -0.00000000000E+00  0.00000000000E+00  0.66364891316E+03  0.66364892085E+03  0.10100000000E+00 0. -1.
          3   -1    0    0  501    0  0.00000000000E+00 -0.00000000000E+00 -0.11629109979E+04  0.11629110023E+04  0.10100000000E+00 0.  1.
     200001    2    1    2    0    0  0.39432516277E+03 -0.35362901564E+03 -0.28639064934E+03  0.92331019980E+03  0.69995450304E+03 0.  0.
    5000001    2    3    3    0    0  0.93041239506E+02  0.28883506843E+02 -0.21323054083E+02  0.17675232372E+03  0.14593074416E+03 0.  0.
        -11    1    4    4    0    0 -0.22637951509E+02  0.61844652547E+01 -0.46905664235E+02  0.52448696805E+02  0.51100000000E-03 0. -1.
     200002    1    4    4    0    0  0.11567919101E+03  0.22699041588E+02  0.25582610152E+02  0.12430362692E+03  0.30000000000E+02 0. -1.
     200000    1    3    3    0    0  0.30128392326E+03 -0.38251252248E+03 -0.26506759525E+03  0.74655787607E+03  0.50000000000E+03 0.  1.
    -200001    1    1    2    0    0 -0.39432516277E+03  0.35362901564E+03 -0.21287143540E+03  0.90324972334E+03  0.70000000000E+03 0.  1.
<mgrwt>
<rscale>  0 0.17570027E+04</rscale>
<asrwt>0</asrwt>
<pdfrwt beam="1">  1        3 0.16613014E+00 0.17570027E+04</pdfrwt>
<pdfrwt beam="2">  1       -3 0.94806989E-01 0.17570027E+04</pdfrwt>
<totfact> 0.60993233E-01</totfact>
</mgrwt>
</event>
<event>
 8    1  0.1426346E-011  0.2054990E+04  0.7818608E-02  0.8581334E-01
          3   -1    0    0  501    0  0.00000000000E+00  0.00000000000E+00  0.60647816517E+03  0.60647817358E+03  0.10100000000E+00 0.  1.
         -3   -1    0    0    0  501 -0.00000000000E+00 -0.00000000000E+00 -0.17407808258E+04  0.17407808287E+04  0.10100000000E+00 0. -1.
     200001    2    1    2    0    0 -0.70825734756E+03  0.11914186771E+03 -0.31631673161E+03  0.10530703626E+04  0.70219488671E+03 0.  0.
    5000001    2    3    3    0    0 -0.20202078325E+03  0.66534048274E+02 -0.98167149137E+02  0.30699242966E+03  0.19841468257E+03 0.  0.
        -11    1    4    4    0    0 -0.13334280998E+03  0.17100959490E+02  0.41732148472E+02  0.14076334752E+03  0.51100000000E-03 0. -1.
     200002    1    4    4    0    0 -0.68677973269E+02  0.49433088783E+02 -0.13989929761E+03  0.16622908214E+03  0.30000000000E+02 0. -1.
     200000    1    3    3    0    0 -0.50623656431E+03  0.52607819431E+02 -0.21814958247E+03  0.74607793296E+03  0.50000000000E+03 0.  1.
    -200001    1    1    2    0    0  0.70825734756E+03 -0.11914186771E+03 -0.81798592902E+03  0.12941886397E+04  0.70000000000E+03 0.  1.
<mgrwt>
<rscale>  0 0.20549896E+04</rscale>
<asrwt>0</asrwt>
<pdfrwt beam="1">  1        3 0.86639739E-01 0.20549896E+04</pdfrwt>
<pdfrwt beam="2">  1       -3 0.24868297E+00 0.20549896E+04</pdfrwt>
<totfact> 0.22039712E-01</totfact>
</mgrwt>
</event>
<event>
 8    1  0.1426346E-011  0.1642380E+04  0.7818608E-02  0.8794927E-01
         -3   -1    0    0    0  501 -0.00000000000E+00  0.00000000000E+00  0.84451940237E+03  0.84451940841E+03  0.10100000000E+00 0. -1.
          3   -1    0    0  501    0  0.00000000000E+00 -0.00000000000E+00 -0.79850465945E+03  0.79850466583E+03  0.10100000000E+00 0.  1.
     200001    2    1    2    0    0  0.33133992947E+03  0.21435433152E+03  0.19306138594E+03  0.82610507978E+03  0.69960201243E+03 0.  0.
    5000001    2    3    3    0    0  0.52669128199E+02 -0.19522922607E+02  0.29641993829E+02  0.18652562170E+03  0.17537952611E+03 0.  0.
        -11    1    4    4    0    0  0.80594522565E+02 -0.19018957062E+02 -0.50157950710E+02  0.96814347154E+02  0.51100000000E-03 0. -1.
     200002    1    4    4    0    0 -0.27925394366E+02 -0.50396554566E+00  0.79799944539E+02  0.89711274544E+02  0.30000000000E+02 0. -1.
     200000    1    3    3    0    0  0.27867080127E+03  0.23387725413E+03  0.16341939211E+03  0.63957945808E+03  0.50000000000E+03 0. -1.
    -200001    1    1    2    0    0 -0.33133992947E+03 -0.21435433152E+03 -0.14704664301E+03  0.81691899447E+03  0.70000000000E+03 0.  1.
<mgrwt>
<rscale>  0 0.16423796E+04</rscale>
<asrwt>0</asrwt>
<pdfrwt beam="1">  1        3 0.11407210E+00 0.16423796E+04</pdfrwt>
<pdfrwt beam="2">  1       -3 0.12064563E+00 0.16423796E+04</pdfrwt>
<totfact> 0.89968448E-01</totfact>
</mgrwt>
</event>
<event>
 8    1  0.1426346E-011  0.1984886E+04  0.7818608E-02  0.8613720E-01
          3   -1    0    0  501    0  0.00000000000E+00  0.00000000000E+00  0.15932465940E+04  0.15932465972E+04  0.10100000000E+00 0.  1.
         -3   -1    0    0    0  501 -0.00000000000E+00 -0.00000000000E+00 -0.61819857095E+03  0.61819857920E+03  0.10100000000E+00 0. -1.
     200001    2    1    2    0    0 -0.30816689718E+03 -0.23111981442E+03  0.11432678453E+04  0.13949397485E+04  0.70029446006E+03 0.  0.
    5000001    2    3    3    0    0 -0.25274211934E+02 -0.62036656094E+02  0.41064424119E+03  0.44870788947E+03  0.16799626413E+03 0.  0.
        -11    1    4    4    0    0 -0.86448453580E+02 -0.67475353986E+02  0.21290375256E+03  0.23948750777E+03  0.51100000000E-03 0. -1.
     200002    1    4    4    0    0  0.61174241646E+02  0.54386978925E+01  0.19774048863E+03  0.20922038170E+03  0.30000000000E+02 0. -1.
     200000    1    3    3    0    0 -0.28289268525E+03 -0.16908315833E+03  0.73262360410E+03  0.94623185905E+03  0.50000000000E+03 0.  1.
    -200001    1    1    2    0    0  0.30816689718E+03  0.23111981442E+03 -0.16821982226E+03  0.81650542787E+03  0.70000000000E+03 0. -1.
<mgrwt>
<rscale>  0 0.19848857E+04</rscale>
<asrwt>0</asrwt>
<pdfrwt beam="1">  1        3 0.22760666E+00 0.19848857E+04</pdfrwt>
<pdfrwt beam="2">  1       -3 0.88314083E-01 0.19848857E+04</pdfrwt>
<totfact> 0.28464686E-01</totfact>
</mgrwt>
</event>
<event>
 8    1  0.1426346E-011  0.1616931E+04  0.7818608E-02  0.8810214E-01
          3   -1    0    0  501    0  0.00000000000E+00  0.00000000000E+00  0.17915954530E+04  0.17915954559E+04  0.10100000000E+00 0.  1.
         -3   -1    0    0    0  501 -0.00000000000E+00 -0.00000000000E+00 -0.36482345944E+03  0.36482347343E+03  0.10100000000E+00 0. -1.
     200001    2    1    2    0    0 -0.14116061910E+03 -0.36038614351E+03  0.86907837376E+03  0.11813155161E+04  0.70028896610E+03 0.  0.
    5000001    2    3    3    0    0 -0.49345749642E+02 -0.14244102174E+03  0.30553799684E+03  0.39169041343E+03  0.19324457245E+03 0.  0.
        -11    1    4    4    0    0 -0.10798356002E+03 -0.14252780735E+03  0.21304872865E+03  0.27814454135E+03  0.51100000000E-03 0. -1.
     200002    1    4    4    0    0  0.58637810375E+02  0.86785609637E-01  0.92489268183E+02  0.11354587208E+03  0.30000000000E+02 0. -1.
     200000    1    3    3    0    0 -0.91814869456E+02 -0.21794512177E+03  0.56354037692E+03  0.78962510268E+03  0.50000000000E+03 0.  1.
    -200001    1    1    2    0    0  0.14116061910E+03  0.36038614351E+03  0.55769361982E+03  0.97510341318E+03  0.70000000000E+03 0. -1.
<mgrwt>
<rscale>  0 0.16169305E+04</rscale>
<asrwt>0</asrwt>
<pdfrwt beam="1">  1        3 0.25594221E+00 0.16169305E+04</pdfrwt>
<pdfrwt beam="2">  1       -3 0.52117638E-01 0.16169305E+04</pdfrwt>
<totfact> 0.62849513E-01</totfact>
</mgrwt>
</event>
<event>
 8    1  0.1426346E-011  0.1639255E+04  0.7818608E-02  0.8796789E-01
          3   -1    0    0  501    0  0.00000000000E+00  0.00000000000E+00  0.11504404472E+04  0.11504404517E+04  0.10100000000E+00 0.  1.
         -3   -1    0    0    0  501 -0.00000000000E+00 -0.00000000000E+00 -0.58394064119E+03  0.58394064992E+03  0.10100000000E+00 0. -1.
     200001    2    1    2    0    0 -0.16943455786E+03  0.64577092015E+02 -0.12539303969E+03  0.73358442883E+03  0.69967451691E+03 0.  0.
    5000001    2    3    3    0    0 -0.26226839660E+02  0.22383876390E+02 -0.54694590442E+02  0.20700396136E+03  0.19664754449E+03 0.  0.
        -11    1    4    4    0    0  0.13619360199E+02  0.84287580875E+02 -0.86352013571E+02  0.12143538821E+03  0.51100000000E-03 0. -1.
     200002    1    4    4    0    0 -0.39846199858E+02 -0.61903704484E+02  0.31657423129E+02  0.85568573151E+02  0.30000000000E+02 0. -1.
     200000    1    3    3    0    0 -0.14320771820E+03  0.42193215624E+02 -0.70698449249E+02  0.52658046747E+03  0.50000000000E+03 0. -1.
    -200001    1    1    2    0    0  0.16943455786E+03 -0.64577092015E+02  0.69189284572E+03  0.10007966727E+04  0.70000000000E+03 0.  1.
<mgrwt>
<rscale>  0 0.16392546E+04</rscale>
<asrwt>0</asrwt>
<pdfrwt beam="1">  1        3 0.16434863E+00 0.16392546E+04</pdfrwt>
<pdfrwt beam="2">  1       -3 0.83420094E-01 0.16392546E+04</pdfrwt>
<totfact> 0.84813492E-01</totfact>
</mgrwt>
</event>
<event>
 8    1  0.1426346E-011  0.1455025E+04  0.7818608E-02  0.8914924E-01
          3   -1    0    0  501    0  0.00000000000E+00  0.00000000000E+00  0.74366681195E+03  0.74366681881E+03  0.10100000000E+00 0.  1.
         -3   -1    0    0    0  501 -0.00000000000E+00 -0.00000000000E+00 -0.71170942755E+03  0.71170943472E+03  0.10100000000E+00 0. -1.
     200001    2    1    2    0    0  0.12753028535E+03 -0.62958647852E+02  0.15360517583E+03  0.73078950911E+03  0.70016497453E+03 0.  0.
    5000001    2    3    3    0    0 -0.21227430429E+02 -0.70375053961E+02  0.30127481303E+02  0.19466396212E+03  0.17771646237E+03 0.  0.
        -11    1    4    4    0    0  0.15373592693E+02  0.53621140930E+00  0.89475317823E+02  0.90788035416E+02  0.51100000000E-03 0. -1.
     200002    1    4    4    0    0 -0.36601023122E+02 -0.70911265370E+02 -0.59347836520E+02  0.10387592671E+03  0.30000000000E+02 0. -1.
     200000    1    3    3    0    0  0.14875771578E+03  0.74164061089E+01  0.12347769453E+03  0.53612554699E+03  0.50000000000E+03 0.  1.
    -200001    1    1    2    0    0 -0.12753028535E+03  0.62958647852E+02 -0.12164779143E+03  0.72458674441E+03  0.70000000000E+03 0.  1.
<mgrwt>
<rscale>  0 0.14550253E+04</rscale>
<asrwt>0</asrwt>
<pdfrwt beam="1">  1        3 0.10623812E+00 0.14550253E+04</pdfrwt>
<pdfrwt beam="2">  1       -3 0.10167278E+00 0.14550253E+04</pdfrwt>
<totfact> 0.16283502E+00</totfact>
</mgrwt>
</event>
<event>
 8    1  0.1426346E-011  0.1820153E+04  0.7818608E-02  0.8695655E-01
         -3   -1    0    0    0  501 -0.00000000000E+00  0.00000000000E+00  0.91750309356E+03  0.91750309912E+03  0.10100000000E+00 0. -1.
          3   -1    0    0  501    0  0.00000000000E+00 -0.00000000000E+00 -0.90271002897E+03  0.90271003462E+03  0.10100000000E+00 0.  1.
     200001    2    1    2    0    0  0.28232201287E+03 -0.52461101390E+01  0.51596561427E+03  0.91417386021E+03  0.69982861542E+03 0.  0.
    5000001    2    3    3    0    0  0.78306004556E+02  0.99665649097E+01  0.93464376665E+02  0.22834498002E+03  0.19280735833E+03 0.  0.
        -11    1    4    4    0    0  0.11469233406E+03  0.70345906011E+01 -0.92543926895E+01  0.11527992341E+03  0.51100000000E-03 0. -1.
     200002    1    4    4    0    0 -0.36386329503E+02  0.29319743085E+01  0.10271876935E+03  0.11306505661E+03  0.30000000000E+02 0. -1.
     200000    1    3    3    0    0  0.20401600832E+03 -0.15212675049E+02  0.42250123760E+03  0.68582888019E+03  0.50000000000E+03 0. -1.
    -200001    1    1    2    0    0 -0.28232201287E+03  0.52461101390E+01 -0.50117254967E+03  0.90603927353E+03  0.70000000000E+03 0.  1.
<mgrwt>
<rscale>  0 0.18201530E+04</rscale>
<asrwt>0</asrwt>
<pdfrwt beam="1">  1        3 0.12895858E+00 0.18201530E+04</pdfrwt>
<pdfrwt beam="2">  1       -3 0.13107187E+00 0.18201530E+04</pdfrwt>
<totfact> 0.53569331E-01</totfact>
</mgrwt>
</event>
<event>
 8    1  0.1426346E-011  0.1854738E+04  0.7818608E-02  0.8677720E-01
         -3   -1    0    0    0  501 -0.00000000000E+00  0.00000000000E+00  0.45218307432E+03  0.45218308560E+03  0.10100000000E+00 0. -1.
          3   -1    0    0  501    0  0.00000000000E+00 -0.00000000000E+00 -0.19019130214E+04  0.19019130240E+04  0.10100000000E+00 0.  1.
     200001    2    1    2    0    0  0.89762418756E+02  0.51503839825E+03 -0.11129713312E+04  0.14177584521E+04  0.70569965360E+03 0.  0.
    5000001    2    3    3    0    0 -0.44141536517E+02  0.50030040095E+00 -0.22146847065E+03  0.26560521853E+03  0.13981817862E+03 0.  0.
        -11    1    4    4    0    0 -0.44692259299E+01 -0.38931170483E+01  0.19053982165E+02  0.19954562820E+02  0.51100000000E-03 0. -1.
     200002    1    4    4    0    0 -0.39672310588E+02  0.43934174492E+01 -0.24052245281E+03  0.24565065571E+03  0.30000000000E+02 0. -1.
     200000    1    3    3    0    0  0.13390395527E+03  0.51453809785E+03 -0.89150286052E+03  0.11521532336E+04  0.50000000000E+03 0.  1.
    -200001    1    1    2    0    0 -0.89762418756E+02 -0.51503839825E+03 -0.33675861586E+03  0.93633765750E+03  0.70000000000E+03 0. -1.
<mgrwt>
<rscale>  0 0.18547376E+04</rscale>
<asrwt>0</asrwt>
<pdfrwt beam="1">  1        3 0.27170186E+00 0.18547376E+04</pdfrwt>
<pdfrwt beam="2">  1       -3 0.64597584E-01 0.18547376E+04</pdfrwt>
<totfact> 0.31959789E-01</totfact>
</mgrwt>
</event>
<event>
 8    1  0.1426346E-011  0.1720584E+04  0.7818608E-02  0.8749711E-01
         -3   -1    0    0    0  501 -0.00000000000E+00  0.00000000000E+00  0.17232896681E+04  0.17232896710E+04  0.10100000000E+00 0. -1.
          3   -1    0    0  501    0  0.00000000000E+00 -0.00000000000E+00 -0.42947053906E+03  0.42947055093E+03  0.10100000000E+00 0.  1.
     200001    2    1    2    0    0 -0.35676782290E+03  0.34825717773E+03  0.63475187055E+03  0.10697385267E+04  0.70204290253E+03 0.  0.
    5000001    2    3    3    0    0 -0.10452674984E+03  0.16052195691E+03  0.24828833045E+03  0.36388858519E+03  0.18459324827E+03 0.  0.
        -11    1    4    4    0    0 -0.55688872061E+02  0.82610976141E+02  0.23961909066E+01  0.99657240487E+02  0.51100000000E-03 0. -1.
     200002    1    4    4    0    0 -0.48837877775E+02  0.77910980770E+02  0.24589213955E+03  0.26423134470E+03  0.30000000000E+02 0. -1.
     200000    1    3    3    0    0 -0.25224107306E+03  0.18773522082E+03  0.38646354010E+03  0.70584994149E+03  0.50000000000E+03 0.  1.
    -200001    1    1    2    0    0  0.35676782290E+03 -0.34825717773E+03  0.65906725847E+03  0.10830216953E+04  0.70000000000E+03 0. -1.
<mgrwt>
<rscale>  0 0.17205838E+04</rscale>
<asrwt>0</asrwt>
<pdfrwt beam="1">  1        3 0.61352935E-01 0.17205838E+04</pdfrwt>
<pdfrwt beam="2">  1       -3 0.24618424E+00 0.17205838E+04</pdfrwt>
<totfact> 0.49895621E-01</totfact>
</mgrwt>
</event>
<event>
 8    1  0.1426346E-011  0.1751492E+04  0.7818608E-02  0.8732529E-01
          3   -1    0    0  501    0  0.00000000000E+00  0.00000000000E+00  0.65332567712E+03  0.65332568493E+03  0.10100000000E+00 0.  1.
         -3   -1    0    0    0  501 -0.00000000000E+00 -0.00000000000E+00 -0.11738881409E+04  0.11738881452E+04  0.10100000000E+00 0. -1.
     200001    2    1    2    0    0 -0.30603009410E+03 -0.40169505895E+03 -0.10639983284E+03  0.86985077271E+03  0.70021861121E+03 0.  0.
    5000001    2    3    3    0    0 -0.57604947738E+02 -0.25244354920E+02 -0.10040028714E+03  0.19645179702E+03  0.15670827495E+03 0.  0.
        -11    1    4    4    0    0  0.49478739084E+01  0.17990779177E+02  0.34208554661E+02  0.38966329104E+02  0.51100000000E-03 0. -1.
     200002    1    4    4    0    0 -0.62552821646E+02 -0.43235134097E+02 -0.13460884180E+03  0.15748546792E+03  0.30000000000E+02 0. -1.
     200000    1    3    3    0    0 -0.24842514636E+03 -0.37645070403E+03 -0.59995457061E+01  0.67339897569E+03  0.50000000000E+03 0.  1.
    -200001    1    1    2    0    0  0.30603009410E+03  0.40169505895E+03 -0.41416263090E+03  0.95736305742E+03  0.70000000000E+03 0. -1.
<mgrwt>
<rscale>  0 0.17514923E+04</rscale>
<asrwt>0</asrwt>
<pdfrwt beam="1">  1        3 0.93332240E-01 0.17514923E+04</pdfrwt>
<pdfrwt beam="2">  1       -3 0.16769831E+00 0.17514923E+04</pdfrwt>
<totfact> 0.61492981E-01</totfact>
</mgrwt>
</event>
<event>
 8    1  0.1426346E-011  0.1523400E+04  0.7818608E-02  0.8869039E-01
          3   -1    0    0  501    0  0.00000000000E+00  0.00000000000E+00  0.69496020011E+03  0.69496020745E+03  0.10100000000E+00 0. -1.
         -3   -1    0    0    0  501 -0.00000000000E+00 -0.00000000000E+00 -0.83484928554E+03  0.83484929165E+03  0.10100000000E+00 0.  1.
     200001    2    1    2    0    0  0.26378477344E+03  0.13413067212E+03 -0.12555343127E+03  0.76969177474E+03  0.69934849689E+03 0.  0.
    5000001    2    3    3    0    0  0.82190129063E+02  0.96113950236E+02 -0.13265713444E+02  0.22468680450E+03  0.18524327847E+03 0.  0.
        -11    1    4    4    0    0 -0.45611351457E+02 -0.10607111941E+02 -0.28501353707E+02  0.54820008837E+02  0.51100000000E-03 0. -1.
     200002    1    4    4    0    0  0.12780148052E+03  0.10672106218E+03  0.15235640263E+02  0.16986679567E+03  0.30000000000E+02 0. -1.
     200000    1    3    3    0    0  0.18159464438E+03  0.38016721888E+02 -0.11228771783E+03  0.54500497024E+03  0.50000000000E+03 0.  1.
    -200001    1    1    2    0    0 -0.26378477344E+03 -0.13413067212E+03 -0.14335654153E+02  0.76011772436E+03  0.70000000000E+03 0. -1.
<mgrwt>
<rscale>  0 0.15234002E+04</rscale>
<asrwt>0</asrwt>
<pdfrwt beam="1">  1        3 0.99280029E-01 0.15234002E+04</pdfrwt>
<pdfrwt beam="2">  1       -3 0.11926418E+00 0.15234002E+04</pdfrwt>
<totfact> 0.12978514E+00</totfact>
</mgrwt>
</event>
<event>
 8    1  0.1426346E-011  0.1773989E+04  0.7818608E-02  0.8720255E-01
         -3   -1    0    0    0  501 -0.00000000000E+00  0.00000000000E+00  0.18058699707E+03  0.18058702531E+03  0.10100000000E+00 0. -1.
          3   -1    0    0  501    0  0.00000000000E+00 -0.00000000000E+00 -0.43566764704E+04  0.43566764716E+04  0.10100000000E+00 0.  1.
     200001    2    1    2    0    0  0.44911944909E+03 -0.16564505044E+03 -0.14239017932E+04  0.16573878764E+04  0.70020832196E+03 0.  0.
    5000001    2    3    3    0    0  0.18493519694E+03 -0.57295606029E+02 -0.60502333005E+03  0.65634099517E+03  0.16506501291E+03 0.  0.
        -11    1    4    4    0    0  0.16374870664E+03 -0.10308849209E+03 -0.42466748899E+03  0.46667263937E+03  0.51100000000E-03 0. -1.
     200002    1    4    4    0    0  0.21186490297E+02  0.45792886062E+02 -0.18035584107E+03  0.18966835580E+03  0.30000000000E+02 0. -1.
     200000    1    3    3    0    0  0.26418425215E+03 -0.10834944441E+03 -0.81887846310E+03  0.10010468813E+04  0.50000000000E+03 0. -1.
    -200001    1    1    2    0    0 -0.44911944909E+03  0.16564505044E+03 -0.27521876802E+04  0.28798756204E+04  0.70000000000E+03 0.  1.
<mgrwt>
<rscale>  0 0.17739889E+04</rscale>
<asrwt>0</asrwt>
<pdfrwt beam="1">  1        3 0.62238229E+00 0.17739889E+04</pdfrwt>
<pdfrwt beam="2">  1       -3 0.25798147E-01 0.17739889E+04</pdfrwt>
<totfact> 0.31818184E-02</totfact>
</mgrwt>
</event>
<event>
 8    1  0.1426346E-011  0.1441461E+04  0.7818608E-02  0.8924342E-01
          3   -1    0    0  501    0  0.00000000000E+00  0.00000000000E+00  0.11061121090E+04  0.11061121136E+04  0.10100000000E+00 0.  1.
         -3   -1    0    0    0  501 -0.00000000000E+00 -0.00000000000E+00 -0.46962023879E+03  0.46962024965E+03  0.10100000000E+00 0. -1.
     200001    2    1    2    0    0  0.47566000721E+02  0.80172242151E+02  0.16244640655E+03  0.72519769939E+03  0.70059457274E+03 0.  0.
    5000001    2    3    3    0    0 -0.44129012500E+02 -0.99654163416E+02  0.78517341036E+02  0.17949668269E+03  0.11906201838E+03 0.  0.
        -11    1    4    4    0    0 -0.68451037989E+01 -0.31364680481E+02  0.89784316404E+02  0.95351046665E+02  0.51100000000E-03 0. -1.
     200002    1    4    4    0    0 -0.37283908701E+02 -0.68289482935E+02 -0.11266975368E+02  0.84145636022E+02  0.30000000000E+02 0. -1.
     200000    1    3    3    0    0  0.91695013221E+02  0.17982640557E+03  0.83929065517E+02  0.54570101670E+03  0.50000000000E+03 0. -1.
    -200001    1    1    2    0    0 -0.47566000721E+02 -0.80172242151E+02  0.47404546367E+03  0.85053466388E+03  0.70000000000E+03 0.  1.
<mgrwt>
<rscale>  0 0.14414613E+04</rscale>
<asrwt>0</asrwt>
<pdfrwt beam="1">  1        3 0.15801602E+00 0.14414613E+04</pdfrwt>
<pdfrwt beam="2">  1       -3 0.67088607E-01 0.14414613E+04</pdfrwt>
<totfact> 0.15439785E+00</totfact>
</mgrwt>
</event>
<event>
 8    1  0.1426346E-011  0.1680359E+04  0.7818608E-02  0.8772647E-01
          3   -1    0    0  501    0  0.00000000000E+00  0.00000000000E+00  0.12149654171E+04  0.12149654213E+04  0.10100000000E+00 0.  1.
         -3   -1    0    0    0  501 -0.00000000000E+00 -0.00000000000E+00 -0.58100515500E+03  0.58100516378E+03  0.10100000000E+00 0. -1.
     200001    2    1    2    0    0  0.17950332915E+03  0.24344003229E+03 -0.60361129261E+02  0.76467688830E+03  0.69971621610E+03 0.  0.
    5000001    2    3    3    0    0  0.17750857888E+02  0.11268492350E+03  0.30938264745E+02  0.21549901203E+03  0.18019340449E+03 0.  0.
        -11    1    4    4    0    0 -0.52128177549E+02  0.12476797367E+03  0.94160711714E+01  0.13554724838E+03  0.51100000000E-03 0. -1.
     200002    1    4    4    0    0  0.69879035437E+02 -0.12083050169E+02  0.21522193573E+02  0.79951763653E+02  0.30000000000E+02 0. -1.
     200000    1    3    3    0    0  0.16175247127E+03  0.13075510880E+03 -0.91299394006E+02  0.54917787627E+03  0.50000000000E+03 0. -1.
    -200001    1    1    2    0    0 -0.17950332915E+03 -0.24344003229E+03  0.69432139133E+03  0.10312936968E+04  0.70000000000E+03 0.  1.
<mgrwt>
<rscale>  0 0.16803585E+04</rscale>
<asrwt>0</asrwt>
<pdfrwt beam="1">  1        3 0.17356649E+00 0.16803585E+04</pdfrwt>
<pdfrwt beam="2">  1       -3 0.83000738E-01 0.16803585E+04</pdfrwt>
<totfact> 0.73789124E-01</totfact>
</mgrwt>
</event>
<event>
 8    1  0.1426346E-011  0.1447392E+04  0.7818608E-02  0.8920211E-01
          3   -1    0    0  501    0  0.00000000000E+00  0.00000000000E+00  0.75933323540E+03  0.75933324212E+03  0.10100000000E+00 0.  1.
         -3   -1    0    0    0  501 -0.00000000000E+00 -0.00000000000E+00 -0.68973126808E+03  0.68973127547E+03  0.10100000000E+00 0. -1.
     200001    2    1    2    0    0  0.15621950028E+03  0.17447183343E+02  0.12639312448E+03  0.72938808196E+03  0.70094423152E+03 0.  0.
    5000001    2    3    3    0    0  0.55155386181E+02  0.30288699559E+02 -0.36741163774E+01  0.20279872881E+03  0.19275451572E+03 0.  0.
        -11    1    4    4    0    0  0.91000273577E+02  0.88238575612E+02  0.98131088638E+01  0.12713533389E+03  0.51100000000E-03 0. -1.
     200002    1    4    4    0    0 -0.35844887396E+02 -0.57949876053E+02 -0.13487225241E+02  0.75663394926E+02  0.30000000000E+02 0. -1.
     200000    1    3    3    0    0  0.10106411410E+03 -0.12841516216E+02  0.13006724086E+03  0.52658935314E+03  0.50000000000E+03 0.  1.
    -200001    1    1    2    0    0 -0.15621950028E+03 -0.17447183343E+02 -0.56791157161E+02  0.71967643563E+03  0.70000000000E+03 0. -1.
<mgrwt>
<rscale>  0 0.14473920E+04</rscale>
<asrwt>0</asrwt>
<pdfrwt beam="1">  1        3 0.10847618E+00 0.14473920E+04</pdfrwt>
<pdfrwt beam="2">  1       -3 0.98533040E-01 0.14473920E+04</pdfrwt>
<totfact> 0.16687888E+00</totfact>
</mgrwt>
</event>
<event>
 8    1  0.1426346E-011  0.1448655E+04  0.7818608E-02  0.8919334E-01
          3   -1    0    0  501    0  0.00000000000E+00  0.00000000000E+00  0.71836741434E+03  0.71836742144E+03  0.10100000000E+00 0.  1.
         -3   -1    0    0    0  501 -0.00000000000E+00 -0.00000000000E+00 -0.73033657797E+03  0.73033658495E+03  0.10100000000E+00 0. -1.
     200001    2    1    2    0    0 -0.18152984096E+03 -0.89749870109E+01  0.31322291402E+02  0.72419880722E+03  0.70032077857E+03 0.  0.
    5000001    2    3    3    0    0 -0.12567908050E+03  0.93291975512E+02 -0.31622515669E+02  0.20695622602E+03  0.13165208704E+03 0.  0.
        -11    1    4    4    0    0 -0.10162938017E+03  0.96041180157E+01  0.15911649943E+02  0.10331481307E+03  0.51100000000E-03 0. -1.
     200002    1    4    4    0    0 -0.24049700333E+02  0.83687857496E+02 -0.47534165612E+02  0.10364141295E+03  0.30000000000E+02 0. -1.
     200000    1    3    3    0    0 -0.55850760458E+02 -0.10226696252E+03  0.62944807071E+02  0.51724258120E+03  0.50000000000E+03 0.  1.
    -200001    1    1    2    0    0  0.18152984096E+03  0.89749870109E+01 -0.43291455031E+02  0.72450519917E+03  0.70000000000E+03 0. -1.
<mgrwt>
<rscale>  0 0.14486546E+04</rscale>
<asrwt>0</asrwt>
<pdfrwt beam="1">  1        3 0.10262392E+00 0.14486546E+04</pdfrwt>
<pdfrwt beam="2">  1       -3 0.10433380E+00 0.14486546E+04</pdfrwt>
<totfact> 0.16633364E+00</totfact>
</mgrwt>
</event>
<event>
 8    1  0.1426346E-011  0.1542022E+04  0.7818608E-02  0.8856980E-01
          3   -1    0    0  501    0  0.00000000000E+00  0.00000000000E+00  0.26946888455E+03  0.26946890348E+03  0.10100000000E+00 0.  1.
         -3   -1    0    0    0  501 -0.00000000000E+00 -0.00000000000E+00 -0.22060350924E+04  0.22060350947E+04  0.10100000000E+00 0. -1.
     200001    2    1    2    0    0  0.23228157937E+03 -0.19443120110E+03 -0.78627299756E+03  0.10953110067E+04  0.69980193674E+03 0.  0.
    5000001    2    3    3    0    0  0.37330056399E+02 -0.63606874423E+01 -0.12539295511E+03  0.22345147392E+03  0.18103363376E+03 0.  0.
        -11    1    4    4    0    0  0.80054829710E+02 -0.35509215112E+02 -0.34569930351E+01  0.87644913822E+02  0.51100000000E-03 0. -1.
     200002    1    4    4    0    0 -0.42724773310E+02  0.29148527669E+02 -0.12193596207E+03  0.13580656010E+03  0.30000000000E+02 0. -1.
     200000    1    3    3    0    0  0.19495152297E+03 -0.18807051365E+03 -0.66088004245E+03  0.87185953280E+03  0.50000000000E+03 0. -1.
    -200001    1    1    2    0    0 -0.23228157937E+03  0.19443120110E+03 -0.11502932103E+04  0.13801929915E+04  0.70000000000E+03 0. -1.
<mgrwt>
<rscale>  0 0.15420218E+04</rscale>
<asrwt>0</asrwt>
<pdfrwt beam="1">  1        3 0.38495558E-01 0.15420218E+04</pdfrwt>
<pdfrwt beam="2">  1       -3 0.31514786E+00 0.15420218E+04</pdfrwt>
<totfact> 0.53406002E-01</totfact>
</mgrwt>
</event>
<event>
 8    1  0.1426346E-011  0.1596405E+04  0.7818608E-02  0.8822759E-01
          3   -1    0    0  501    0  0.00000000000E+00  0.00000000000E+00  0.29207918303E+03  0.29207920050E+03  0.10100000000E+00 0. -1.
         -3   -1    0    0    0  501 -0.00000000000E+00 -0.00000000000E+00 -0.21813516117E+04  0.21813516141E+04  0.10100000000E+00 0.  1.
     200001    2    1    2    0    0  0.17017998393E+03  0.30631003147E+03 -0.11862544587E+04  0.14212800039E+04  0.70003581786E+03 0.  0.
    5000001    2    3    3    0    0 -0.96243665306E+01  0.71220961515E+02 -0.25166757168E+03  0.32080323235E+03  0.18550766415E+03 0.  0.
        -11    1    4    4    0    0 -0.55540967445E+02  0.67732863536E+02 -0.30253943462E+02  0.92670604632E+02  0.51100000000E-03 0. -1.
     200002    1    4    4    0    0  0.45916600915E+02  0.34880979788E+01 -0.22141362822E+03  0.22813262772E+03  0.30000000000E+02 0. -1.
     200000    1    3    3    0    0  0.17980435046E+03  0.23508906995E+03 -0.93458688704E+03  0.11004767715E+04  0.50000000000E+03 0.  1.
    -200001    1    1    2    0    0 -0.17017998393E+03 -0.30631003147E+03 -0.70301796997E+03  0.10521508107E+04  0.70000000000E+03 0. -1.
<mgrwt>
<rscale>  0 0.15964052E+04</rscale>
<asrwt>0</asrwt>
<pdfrwt beam="1">  1        3 0.41725600E-01 0.15964052E+04</pdfrwt>
<pdfrwt beam="2">  1       -3 0.31162165E+00 0.15964052E+04</pdfrwt>
<totfact> 0.47415533E-01</totfact>
</mgrwt>
</event>
<event>
 8    1  0.1426346E-011  0.1926650E+04  0.7818608E-02  0.8641703E-01
          3   -1    0    0  501    0  0.00000000000E+00  0.00000000000E+00  0.25579568388E+03  0.25579570382E+03  0.10100000000E+00 0.  1.
         -3   -1    0    0    0  501 -0.00000000000E+00 -0.00000000000E+00 -0.36278769224E+04  0.36278769238E+04  0.10100000000E+00 0. -1.
     200001    2    1    2    0    0  0.80171777048E+02  0.11160974701E+03 -0.29909859177E+04  0.30748970759E+04  0.70007929434E+03 0.  0.
    5000001    2    3    3    0    0 -0.64297335732E+02  0.94610400482E+02 -0.56562219050E+03  0.59426217505E+03  0.14189360470E+03 0.  0.
        -11    1    4    4    0    0  0.38992778057E+02 -0.28264138301E-01 -0.11999583458E+03  0.12617225470E+03  0.51100000000E-03 0. -1.
     200002    1    4    4    0    0 -0.10329011379E+03  0.94638664620E+02 -0.44562635591E+03  0.46808992035E+03  0.30000000000E+02 0. -1.
     200000    1    3    3    0    0  0.14446911278E+03  0.16999346532E+02 -0.24253637272E+04  0.24806349009E+04  0.50000000000E+03 0. -1.
    -200001    1    1    2    0    0 -0.80171777048E+02 -0.11160974701E+03 -0.38109532086E+03  0.80877555171E+03  0.70000000000E+03 0.  1.
<mgrwt>
<rscale>  0 0.19266503E+04</rscale>
<asrwt>0</asrwt>
<pdfrwt beam="1">  1        3 0.36542244E-01 0.19266503E+04</pdfrwt>
<pdfrwt beam="2">  1       -3 0.51826810E+00 0.19266503E+04</pdfrwt>
<totfact> 0.44663705E-02</totfact>
</mgrwt>
</event>
<event>
 8    1  0.1426346E-011  0.1419941E+04  0.7818608E-02  0.8939509E-01
         -3   -1    0    0    0  501 -0.00000000000E+00  0.00000000000E+00  0.69416220461E+03  0.69416221196E+03  0.10100000000E+00 0. -1.
          3   -1    0    0  501    0  0.00000000000E+00 -0.00000000000E+00 -0.72613929057E+03  0.72613929759E+03  0.10100000000E+00 0.  1.
     200001    2    1    2    0    0  0.10572677247E+03 -0.25516696898E+02  0.39171414466E+02  0.70833847586E+03  0.69884171629E+03 0.  0.
    5000001    2    3    3    0    0  0.77597613354E+02 -0.17923295977E+02  0.58469422441E+02  0.20711864141E+03  0.18203522770E+03 0.  0.
        -11    1    4    4    0    0  0.80353346687E+02  0.68310508630E+02  0.17101167667E+02  0.10684304305E+03  0.51100000000E-03 0. -1.
     200002    1    4    4    0    0 -0.27557333328E+01 -0.86233804607E+02  0.41368254774E+02  0.10027559836E+03  0.30000000000E+02 0. -1.
     200000    1    3    3    0    0  0.28129159120E+02 -0.75934009207E+01 -0.19298007975E+02  0.50121983445E+03  0.50000000000E+03 0.  1.
    -200001    1    1    2    0    0 -0.10572677247E+03  0.25516696898E+02 -0.71148500420E+02  0.71196303370E+03  0.70000000000E+03 0.  1.
<mgrwt>
<rscale>  0 0.14199415E+04</rscale>
<asrwt>0</asrwt>
<pdfrwt beam="1">  1        3 0.10373419E+00 0.14199415E+04</pdfrwt>
<pdfrwt beam="2">  1       -3 0.99166030E-01 0.14199415E+04</pdfrwt>
<totfact> 0.18313956E+00</totfact>
</mgrwt>
</event>
<event>
 8    1  0.1426346E-011  0.1414091E+04  0.7818608E-02  0.8943682E-01
          3   -1    0    0  501    0  0.00000000000E+00  0.00000000000E+00  0.21207239405E+04  0.21207239429E+04  0.10100000000E+00 0.  1.
         -3   -1    0    0    0  501 -0.00000000000E+00 -0.00000000000E+00 -0.23572761249E+03  0.23572763413E+03  0.10100000000E+00 0. -1.
     200001    2    1    2    0    0  0.54834394706E+02 -0.77557259594E+02  0.89125463782E+03  0.11372122707E+04  0.69992498152E+03 0.  0.
    5000001    2    3    3    0    0 -0.18282135542E+02 -0.24002806287E+02  0.31680445953E+03  0.37026565335E+03  0.18926493940E+03 0.  0.
        -11    1    4    4    0    0 -0.59117166152E+02  0.46075089976E+02  0.24998805196E+03  0.26098233537E+03  0.51100000000E-03 0. -1.
     200002    1    4    4    0    0  0.40835030610E+02 -0.70077896264E+02  0.66816407569E+02  0.10928331799E+03  0.30000000000E+02 0. -1.
     200000    1    3    3    0    0  0.73116530249E+02 -0.53554453307E+02  0.57445017830E+03  0.76694661731E+03  0.50000000000E+03 0. -1.
    -200001    1    1    2    0    0 -0.54834394706E+02  0.77557259594E+02  0.99374169014E+03  0.12192393063E+04  0.70000000000E+03 0.  1.
<mgrwt>
<rscale>  0 0.14140908E+04</rscale>
<asrwt>0</asrwt>
<pdfrwt beam="1">  1        3 0.30296057E+00 0.14140908E+04</pdfrwt>
<pdfrwt beam="2">  1       -3 0.33675374E-01 0.14140908E+04</pdfrwt>
<totfact> 0.83439809E-01</totfact>
</mgrwt>
</event>
<event>
 8    1  0.1426346E-011  0.1582410E+04  0.7818608E-02  0.8831428E-01
          3   -1    0    0  501    0  0.00000000000E+00  0.00000000000E+00  0.12327621792E+04  0.12327621833E+04  0.10100000000E+00 0.  1.
         -3   -1    0    0    0  501 -0.00000000000E+00 -0.00000000000E+00 -0.50780690033E+03  0.50780691037E+03  0.10100000000E+00 0. -1.
     200001    2    1    2    0    0 -0.71610286056E+02 -0.32172243573E+03  0.18060651440E+03  0.79455168577E+03  0.70004307696E+03 0.  0.
    5000001    2    3    3    0    0 -0.36458774849E+02 -0.12150473363E+03  0.14138965478E+03  0.25338561232E+03  0.16769195417E+03 0.  0.
        -11    1    4    4    0    0 -0.50694849346E+02 -0.24703728746E+01  0.11684502025E+03  0.12739242226E+03  0.51100000000E-03 0. -1.
     200002    1    4    4    0    0  0.14236074497E+02 -0.11903436075E+03  0.24544634531E+02  0.12599319006E+03  0.30000000000E+02 0. -1.
     200000    1    3    3    0    0 -0.35151511207E+02 -0.20021770211E+03  0.39216859616E+02  0.54116607345E+03  0.50000000000E+03 0. -1.
    -200001    1    1    2    0    0  0.71610286056E+02  0.32172243573E+03  0.54434876446E+03  0.94601740792E+03  0.70000000000E+03 0.  1.
<mgrwt>
<rscale>  0 0.15824097E+04</rscale>
<asrwt>0</asrwt>
<pdfrwt beam="1">  1        3 0.17610888E+00 0.15824097E+04</pdfrwt>
<pdfrwt beam="2">  1       -3 0.72543844E-01 0.15824097E+04</pdfrwt>
<totfact> 0.96303536E-01</totfact>
</mgrwt>
</event>
<event>
 8    1  0.1426346E-011  0.1981453E+04  0.7818608E-02  0.8615341E-01
         -3   -1    0    0    0  501 -0.00000000000E+00  0.00000000000E+00  0.11487047997E+04  0.11487048042E+04  0.10100000000E+00 0. -1.
          3   -1    0    0  501    0  0.00000000000E+00 -0.00000000000E+00 -0.85447448145E+03  0.85447448742E+03  0.10100000000E+00 0.  1.
     200001    2    1    2    0    0 -0.67972535303E+03  0.10997186166E+03  0.24173039722E+03  0.10198804522E+04  0.71246205923E+03 0.  0.
    5000001    2    3    3    0    0 -0.21006063815E+03  0.13231477561E+03  0.68312375781E+02  0.31195534287E+03  0.17611610861E+03 0.  0.
        -11    1    4    4    0    0 -0.21925585954E+02  0.89477373107E+02  0.71571702398E+02  0.11665950541E+03  0.51100000000E-03 0. -1.
     200002    1    4    4    0    0 -0.18813505220E+03  0.42837402505E+02 -0.32593266176E+01  0.19529583746E+03  0.30000000000E+02 0. -1.
     200000    1    3    3    0    0 -0.46966471488E+03 -0.22342913952E+02  0.17341802144E+03  0.70792510929E+03  0.50000000000E+03 0. -1.
    -200001    1    1    2    0    0  0.67972535303E+03 -0.10997186166E+03  0.52499921050E+02  0.98329883943E+03  0.70000000000E+03 0.  1.
<mgrwt>
<rscale>  0 0.19814530E+04</rscale>
<asrwt>0</asrwt>
<pdfrwt beam="1">  1        3 0.12206778E+00 0.19814530E+04</pdfrwt>
<pdfrwt beam="2">  1       -3 0.16410069E+00 0.19814530E+04</pdfrwt>
<totfact> 0.33869174E-01</totfact>
</mgrwt>
</event>
<event>
 8    1  0.1426346E-011  0.1676470E+04  0.7818608E-02  0.8774900E-01
          3   -1    0    0  501    0  0.00000000000E+00  0.00000000000E+00  0.59313506388E+03  0.59313507248E+03  0.10100000000E+00 0.  1.
         -3   -1    0    0    0  501 -0.00000000000E+00 -0.00000000000E+00 -0.11846165587E+04  0.11846165630E+04  0.10100000000E+00 0. -1.
     200001    2    1    2    0    0 -0.91871787234E+02 -0.32882696404E+03  0.30404413055E+02  0.78110240931E+03  0.70187530797E+03 0.  0.
    5000001    2    3    3    0    0 -0.10435782709E+01 -0.12890198069E+03  0.11148155843E+03  0.22902155834E+03  0.15298995599E+03 0.  0.
        -11    1    4    4    0    0  0.29289340296E+01 -0.41581621584E+02  0.12846474600E+03  0.13505850907E+03  0.51100000000E-03 0. -1.
     200002    1    4    4    0    0 -0.39725123005E+01 -0.87320359105E+02 -0.16983187565E+02  0.93963049270E+02  0.30000000000E+02 0. -1.
     200000    1    3    3    0    0 -0.90828208963E+02 -0.19992498335E+03 -0.81077145377E+02  0.55208085097E+03  0.50000000000E+03 0.  1.
    -200001    1    1    2    0    0  0.91871787234E+02  0.32882696404E+03 -0.62188590784E+03  0.99664922612E+03  0.70000000000E+03 0. -1.
<mgrwt>
<rscale>  0 0.16764697E+04</rscale>
<asrwt>0</asrwt>
<pdfrwt beam="1">  1        3 0.84733582E-01 0.16764697E+04</pdfrwt>
<pdfrwt beam="2">  1       -3 0.16923094E+00 0.16764697E+04</pdfrwt>
<totfact> 0.75198937E-01</totfact>
</mgrwt>
</event>
<event>
 8    1  0.1426346E-011  0.1882647E+04  0.7818608E-02  0.8663543E-01
         -3   -1    0    0    0  501 -0.00000000000E+00  0.00000000000E+00  0.81562372779E+03  0.81562373404E+03  0.10100000000E+00 0. -1.
          3   -1    0    0  501    0  0.00000000000E+00 -0.00000000000E+00 -0.10863953980E+04  0.10863954027E+04  0.10100000000E+00 0.  1.
     200001    2    1    2    0    0 -0.53937921127E+03 -0.31727594753E+03 -0.63395141694E+02  0.94045843401E+03  0.69917748939E+03 0.  0.
    5000001    2    3    3    0    0 -0.22428508253E+03 -0.65648892713E+02  0.15262899754E+02  0.29332044859E+03  0.17660791062E+03 0.  0.
        -11    1    4    4    0    0 -0.50979044412E+02  0.53290096460E+02 -0.23677250395E+02  0.77455209872E+02  0.51100000000E-03 0. -1.
     200002    1    4    4    0    0 -0.17330603812E+03 -0.11893898917E+03  0.38940150149E+02  0.21586523872E+03  0.30000000000E+02 0. -1.
     200000    1    3    3    0    0 -0.31509412874E+03 -0.25162705482E+03 -0.78658041448E+02  0.64713798542E+03  0.50000000000E+03 0. -1.
    -200001    1    1    2    0    0  0.53937921127E+03  0.31727594753E+03 -0.20737652851E+03  0.96156070272E+03  0.70000000000E+03 0.  1.
<mgrwt>
<rscale>  0 0.18826469E+04</rscale>
<asrwt>0</asrwt>
<pdfrwt beam="1">  1        3 0.15519934E+00 0.18826469E+04</pdfrwt>
<pdfrwt beam="2">  1       -3 0.11651768E+00 0.18826469E+04</pdfrwt>
<totfact> 0.44423268E-01</totfact>
</mgrwt>
</event>
<event>
 8    1  0.1426346E-011  0.1552738E+04  0.7818608E-02  0.8850120E-01
         -3   -1    0    0    0  501 -0.00000000000E+00  0.00000000000E+00  0.32597744023E+03  0.32597745588E+03  0.10100000000E+00 0. -1.
          3   -1    0    0  501    0  0.00000000000E+00 -0.00000000000E+00 -0.18490517616E+04  0.18490517644E+04  0.10100000000E+00 0.  1.
     200001    2    1    2    0    0 -0.16444045643E+03 -0.28542112734E+03 -0.67415777015E+03  0.10264800508E+04  0.70047606101E+03 0.  0.
    5000001    2    3    3    0    0 -0.77736994238E+02 -0.86974335163E+02 -0.24109213403E+03  0.33045960223E+03  0.19357312924E+03 0.  0.
        -11    1    4    4    0    0 -0.59365740232E+01 -0.21648823720E+02 -0.22674188214E+03  0.22785037984E+03  0.51100000000E-03 0. -1.
     200002    1    4    4    0    0 -0.71800420215E+02 -0.65325511443E+02 -0.14350251890E+02  0.10260922238E+03  0.30000000000E+02 0. -1.
     200000    1    3    3    0    0 -0.86703462190E+02 -0.19844679217E+03 -0.43306563612E+03  0.69602044860E+03  0.50000000000E+03 0. -1.
    -200001    1    1    2    0    0  0.16444045643E+03  0.28542112734E+03 -0.84891655124E+03  0.11485491694E+04  0.70000000000E+03 0. -1.
<mgrwt>
<rscale>  0 0.15527385E+04</rscale>
<asrwt>0</asrwt>
<pdfrwt beam="1">  1        3 0.26415025E+00 0.15527385E+04</pdfrwt>
<pdfrwt beam="2">  1       -3 0.46568208E-01 0.15527385E+04</pdfrwt>
<totfact> 0.71440656E-01</totfact>
</mgrwt>
</event>
<event>
 8    1  0.1426346E-011  0.1473644E+04  0.7818608E-02  0.8902171E-01
          3   -1    0    0  501    0  0.00000000000E+00  0.00000000000E+00  0.19061028353E+04  0.19061028379E+04  0.10100000000E+00 0.  1.
         -3   -1    0    0    0  501 -0.00000000000E+00 -0.00000000000E+00 -0.28482553250E+03  0.28482555041E+03  0.10100000000E+00 0. -1.
     200001    2    1    2    0    0 -0.59202427649E+02 -0.11788220887E+03  0.10949520424E+04  0.13052538306E+04  0.69811635450E+03 0.  0.
    5000001    2    3    3    0    0 -0.32927326917E+01  0.56947241800E+01  0.34427095134E+03  0.39315775401E+03  0.18975578946E+03 0.  0.
        -11    1    4    4    0    0 -0.34110453055E+02  0.73918799385E+02  0.70296860607E+02  0.10756003218E+03  0.51100000000E-03 0. -1.
     200002    1    4    4    0    0  0.30817720363E+02 -0.68224075205E+02  0.27397409073E+03  0.28559772184E+03  0.30000000000E+02 0. -1.
     200000    1    3    3    0    0 -0.55909694957E+02 -0.12357693305E+03  0.75068109108E+03  0.91209607656E+03  0.50000000000E+03 0.  1.
    -200001    1    1    2    0    0  0.59202427649E+02  0.11788220887E+03  0.52632526035E+03  0.88567455778E+03  0.70000000000E+03 0. -1.
<mgrwt>
<rscale>  0 0.14736442E+04</rscale>
<asrwt>0</asrwt>
<pdfrwt beam="1">  1        3 0.27230042E+00 0.14736442E+04</pdfrwt>
<pdfrwt beam="2">  1       -3 0.40689362E-01 0.14736442E+04</pdfrwt>
<totfact> 0.84789518E-01</totfact>
</mgrwt>
</event>
<event>
 8    1  0.1426346E-011  0.1460555E+04  0.7818608E-02  0.8911116E-01
         -3   -1    0    0    0  501 -0.00000000000E+00  0.00000000000E+00  0.53566154237E+03  0.53566155189E+03  0.10100000000E+00 0. -1.
          3   -1    0    0  501    0  0.00000000000E+00 -0.00000000000E+00 -0.99560078311E+03  0.99560078823E+03  0.10100000000E+00 0.  1.
     200001    2    1    2    0    0  0.21183347979E+02  0.89993432630E+02 -0.42531556096E+03  0.82433493837E+03  0.70006229156E+03 0.  0.
    5000001    2    3    3    0    0  0.53994883815E+02 -0.34446928428E+02 -0.18076246769E+03  0.25304848152E+03  0.16509520260E+03 0.  0.
        -11    1    4    4    0    0  0.86093338330E+02  0.20162825173E+02 -0.42654808729E+02  0.98173495057E+02  0.51100000000E-03 0. -1.
     200002    1    4    4    0    0 -0.32098454514E+02 -0.54609753600E+02 -0.13810765896E+03  0.15487498647E+03  0.30000000000E+02 0. -1.
     200000    1    3    3    0    0 -0.32811535836E+02  0.12444036106E+03 -0.24455309328E+03  0.57128645685E+03  0.50000000000E+03 0.  1.
    -200001    1    1    2    0    0 -0.21183347979E+02 -0.89993432630E+02 -0.34623679779E+02  0.70692740175E+03  0.70000000000E+03 0. -1.
<mgrwt>
<rscale>  0 0.14605548E+04</rscale>
<asrwt>0</asrwt>
<pdfrwt beam="1">  1        3 0.14222868E+00 0.14605548E+04</pdfrwt>
<pdfrwt beam="2">  1       -3 0.76523079E-01 0.14605548E+04</pdfrwt>
<totfact> 0.15198008E+00</totfact>
</mgrwt>
</event>
<event>
 8    1  0.1426346E-011  0.1509415E+04  0.7818608E-02  0.8878216E-01
         -3   -1    0    0    0  501 -0.00000000000E+00  0.00000000000E+00  0.26818600695E+03  0.26818602597E+03  0.10100000000E+00 0. -1.
          3   -1    0    0  501    0  0.00000000000E+00 -0.00000000000E+00 -0.21238371513E+04  0.21238371537E+04  0.10100000000E+00 0.  1.
     200001    2    1    2    0    0 -0.24409063479E+03  0.13667542726E+03 -0.86676229909E+03  0.11485757306E+04  0.69977776137E+03 0.  0.
    5000001    2    3    3    0    0 -0.64616826141E+02  0.10942612790E+02 -0.26559619424E+03  0.33652876502E+03  0.19599794972E+03 0.  0.
        -11    1    4    4    0    0 -0.34962943809E+02  0.85642490072E+02 -0.22156837026E+03  0.24010328245E+03  0.51100000000E-03 0. -1.
     200002    1    4    4    0    0 -0.29653882331E+02 -0.74699877282E+02 -0.44027823978E+02  0.96425482563E+02  0.30000000000E+02 0. -1.
     200000    1    3    3    0    0 -0.17947380865E+03  0.12573281447E+03 -0.60116610485E+03  0.81204696554E+03  0.50000000000E+03 0.  1.
    -200001    1    1    2    0    0  0.24409063479E+03 -0.13667542726E+03 -0.98888884526E+03  0.12434474491E+04  0.70000000000E+03 0.  1.
<mgrwt>
<rscale>  0 0.15094150E+04</rscale>
<asrwt>0</asrwt>
<pdfrwt beam="1">  1        3 0.30340530E+00 0.15094150E+04</pdfrwt>
<pdfrwt beam="2">  1       -3 0.38312289E-01 0.15094150E+04</pdfrwt>
<totfact> 0.64025481E-01</totfact>
</mgrwt>
</event>
<event>
 8    1  0.1426346E-011  0.1577832E+04  0.7818608E-02  0.8834284E-01
          3   -1    0    0  501    0  0.00000000000E+00  0.00000000000E+00  0.67554566199E+03  0.67554566954E+03  0.10100000000E+00 0. -1.
         -3   -1    0    0    0  501 -0.00000000000E+00 -0.00000000000E+00 -0.92131173847E+03  0.92131174401E+03  0.10100000000E+00 0.  1.
     200001    2    1    2    0    0 -0.23743053609E+02  0.33831222194E+03  0.66536359967E+00  0.78092399300E+03  0.70343652737E+03 0.  0.
    5000001    2    3    3    0    0 -0.53643144662E+02  0.15435773076E+02  0.59377618824E+02  0.18209985723E+03  0.16284595888E+03 0.  0.
        -11    1    4    4    0    0 -0.96648885515E+02 -0.28065959495E+02  0.17569522646E+02  0.10216356141E+03  0.51100000000E-03 0. -1.
     200002    1    4    4    0    0  0.43005740853E+02  0.43501732571E+02  0.41808096178E+02  0.79936295817E+02  0.30000000000E+02 0. -1.
     200000    1    3    3    0    0  0.29900091053E+02  0.32287644886E+03 -0.58712255224E+02  0.59882413578E+03  0.50000000000E+03 0. -1.
    -200001    1    1    2    0    0  0.23743053609E+02 -0.33831222194E+03 -0.24643144008E+03  0.81593342055E+03  0.70000000000E+03 0.  1.
<mgrwt>
<rscale>  0 0.15778316E+04</rscale>
<asrwt>0</asrwt>
<pdfrwt beam="1">  1        3 0.96506524E-01 0.15778316E+04</pdfrwt>
<pdfrwt beam="2">  1       -3 0.13161596E+00 0.15778316E+04</pdfrwt>
<totfact> 0.10821450E+00</totfact>
</mgrwt>
</event>
<event>
 8    1  0.1426346E-011  0.1740178E+04  0.7818608E-02  0.8738775E-01
         -3   -1    0    0    0  501 -0.00000000000E+00  0.00000000000E+00  0.68830684636E+03  0.68830685377E+03  0.10100000000E+00 0. -1.
          3   -1    0    0  501    0  0.00000000000E+00 -0.00000000000E+00 -0.10998804663E+04  0.10998804709E+04  0.10100000000E+00 0.  1.
     200001    2    1    2    0    0 -0.16181395281E+03  0.52712627439E+02  0.29656650515E+03  0.77802653889E+03  0.69886424063E+03 0.  0.
    5000001    2    3    3    0    0 -0.12689118152E+02  0.15456767255E+02  0.17682355734E+03  0.24140321758E+03  0.16312270735E+03 0.  0.
        -11    1    4    4    0    0  0.28149160938E+02 -0.22325826248E+02 -0.15373723718E+02  0.39079011763E+02  0.51100000000E-03 0. -1.
     200002    1    4    4    0    0 -0.40838279091E+02  0.37782593503E+02  0.19219728106E+03  0.20232420581E+03  0.30000000000E+02 0. -1.
     200000    1    3    3    0    0 -0.14912483466E+03  0.37255860184E+02  0.11974294781E+03  0.53662332131E+03  0.50000000000E+03 0. -1.
    -200001    1    1    2    0    0  0.16181395281E+03 -0.52712627439E+02 -0.70814012505E+03  0.10101607858E+04  0.70000000000E+03 0.  1.
<mgrwt>
<rscale>  0 0.17401785E+04</rscale>
<asrwt>0</asrwt>
<pdfrwt beam="1">  1        3 0.15712578E+00 0.17401785E+04</pdfrwt>
<pdfrwt beam="2">  1       -3 0.98329550E-01 0.17401785E+04</pdfrwt>
<totfact> 0.65094770E-01</totfact>
</mgrwt>
</event>
<event>
 8    1  0.1426346E-011  0.1648693E+04  0.7818608E-02  0.8791180E-01
         -3   -1    0    0    0  501 -0.00000000000E+00  0.00000000000E+00  0.28990896254E+04  0.28990896272E+04  0.10100000000E+00 0.  1.
          3   -1    0    0  501    0  0.00000000000E+00 -0.00000000000E+00 -0.23440008446E+03  0.23440010622E+03  0.10100000000E+00 0. -1.
     200001    2    1    2    0    0  0.30787314773E+03 -0.13429864343E+03  0.80225365078E+03  0.11156965216E+04  0.69881743489E+03 0.  0.
    5000001    2    3    3    0    0  0.18754367285E+03 -0.89733277093E+02  0.26645112443E+03  0.37168738072E+03  0.15469523921E+03 0.  0.
        -11    1    4    4    0    0  0.18533841753E+03 -0.77539336392E+02  0.27261706180E+03  0.33864840186E+03  0.51100000000E-03 0. -1.
     200002    1    4    4    0    0  0.22052553271E+01 -0.12193940701E+02 -0.61659373634E+01  0.33038978865E+02  0.30000000000E+02 0. -1.
     200000    1    3    3    0    0  0.12032947488E+03 -0.44565366341E+02  0.53580252634E+03  0.74400914083E+03  0.50000000000E+03 0.  1.
    -200001    1    1    2    0    0 -0.30787314773E+03  0.13429864343E+03  0.18624358902E+04  0.20177932118E+04  0.70000000000E+03 0.  1.
<mgrwt>
<rscale>  0 0.16486927E+04</rscale>
<asrwt>0</asrwt>
<pdfrwt beam="1">  1        3 0.33485729E-01 0.16486927E+04</pdfrwt>
<pdfrwt beam="2">  1       -3 0.41415564E+00 0.16486927E+04</pdfrwt>
<totfact> 0.19702455E-01</totfact>
</mgrwt>
</event>
<event>
 8    1  0.1426346E-011  0.1685333E+04  0.7818608E-02  0.8769774E-01
          3   -1    0    0  501    0  0.00000000000E+00  0.00000000000E+00  0.11423416511E+04  0.11423416555E+04  0.10100000000E+00 0. -1.
         -3   -1    0    0    0  501 -0.00000000000E+00 -0.00000000000E+00 -0.62160609701E+03  0.62160610521E+03  0.10100000000E+00 0.  1.
     200001    2    1    2    0    0 -0.21626290827E+03  0.36839852589E+03  0.46284775011E+03  0.94185402082E+03  0.70026697580E+03 0.  0.
    5000001    2    3    3    0    0  0.25647860827E+02  0.11976129988E+03  0.53625327266E+02  0.20850261684E+03  0.15999088659E+03 0.  0.
        -11    1    4    4    0    0  0.34772524353E+02 -0.26720659427E+02 -0.11225002415E+02  0.45267237264E+02  0.51100000000E-03 0. -1.
     200002    1    4    4    0    0 -0.91246635254E+01  0.14648195930E+03  0.64850329681E+02  0.16323537958E+03  0.30000000000E+02 0. -1.
     200000    1    3    3    0    0 -0.24191076910E+03  0.24863722601E+03  0.40922242285E+03  0.73335140398E+03  0.50000000000E+03 0. -1.
    -200001    1    1    2    0    0  0.21626290827E+03 -0.36839852589E+03  0.57887803942E+02  0.82209373992E+03  0.70000000000E+03 0. -1.
<mgrwt>
<rscale>  0 0.16853327E+04</rscale>
<asrwt>0</asrwt>
<pdfrwt beam="1">  1        3 0.16319166E+00 0.16853327E+04</pdfrwt>
<pdfrwt beam="2">  1       -3 0.88800874E-01 0.16853327E+04</pdfrwt>
<totfact> 0.74761351E-01</totfact>
</mgrwt>
</event>
<event>
 8    1  0.1426346E-011  0.1750255E+04  0.7818608E-02  0.8733210E-01
         -3   -1    0    0    0  501 -0.00000000000E+00  0.00000000000E+00  0.59150259371E+03  0.59150260234E+03  0.10100000000E+00 0.  1.
          3   -1    0    0  501    0  0.00000000000E+00 -0.00000000000E+00 -0.12947496058E+04  0.12947496097E+04  0.10100000000E+00 0. -1.
     200001    2    1    2    0    0  0.17654121586E+03 -0.19152181643E+03  0.13927610290E+03  0.76033365091E+03  0.70061545858E+03 0.  0.
    5000001    2    3    3    0    0  0.11126057837E+03 -0.10959179783E+03 -0.48739511043E+02  0.21597718620E+03  0.14100115806E+03 0.  0.
        -11    1    4    4    0    0 -0.32585842159E+02 -0.21339965322E+02 -0.10818232605E+02  0.40426048362E+02  0.51100000000E-03 0. -1.
     200002    1    4    4    0    0  0.14384642053E+03 -0.88251832503E+02 -0.37921278438E+02  0.17555113784E+03  0.30000000000E+02 0. -1.
     200000    1    3    3    0    0  0.65280637494E+02 -0.81930018609E+02  0.18801561394E+03  0.54435646471E+03  0.50000000000E+03 0.  1.
    -200001    1    1    2    0    0 -0.17654121586E+03  0.19152181643E+03 -0.84252311495E+03  0.11259185611E+04  0.70000000000E+03 0. -1.
<mgrwt>
<rscale>  0 0.17502546E+04</rscale>
<asrwt>0</asrwt>
<pdfrwt beam="1">  1        3 0.18496423E+00 0.17502546E+04</pdfrwt>
<pdfrwt beam="2">  1       -3 0.84500372E-01 0.17502546E+04</pdfrwt>
<totfact> 0.59104314E-01</totfact>
</mgrwt>
</event>
<event>
 8    1  0.1426346E-011  0.1654844E+04  0.7818608E-02  0.8787546E-01
          3   -1    0    0  501    0  0.00000000000E+00  0.00000000000E+00  0.65614475141E+03  0.65614475919E+03  0.10100000000E+00 0.  1.
         -3   -1    0    0    0  501 -0.00000000000E+00 -0.00000000000E+00 -0.10434086378E+04  0.10434086427E+04  0.10100000000E+00 0. -1.
     200001    2    1    2    0    0  0.35753356956E+02 -0.18266141335E+03 -0.60458172649E+03  0.94333217884E+03  0.69979499939E+03 0.  0.
    5000001    2    3    3    0    0 -0.12626559847E+03 -0.70174452559E+02 -0.11188263655E+03  0.21418483331E+03  0.11175850442E+03 0.  0.
        -11    1    4    4    0    0  0.17639765148E+02 -0.16419274256E+02 -0.48869697791E+01  0.24589354515E+02  0.51100000000E-03 0. -1.
     200002    1    4    4    0    0 -0.14390536362E+03 -0.53755178303E+02 -0.10699566677E+03  0.18959547880E+03  0.30000000000E+02 0. -1.
     200000    1    3    3    0    0  0.16201895542E+03 -0.11248696079E+03 -0.49269908994E+03  0.72914734553E+03  0.50000000000E+03 0. -1.
    -200001    1    1    2    0    0 -0.35753356956E+02  0.18266141335E+03  0.21731784015E+03  0.75622122299E+03  0.70000000000E+03 0.  1.
<mgrwt>
<rscale>  0 0.16548439E+04</rscale>
<asrwt>0</asrwt>
<pdfrwt beam="1">  1        3 0.93734965E-01 0.16548439E+04</pdfrwt>
<pdfrwt beam="2">  1       -3 0.14905838E+00 0.16548439E+04</pdfrwt>
<totfact> 0.83814052E-01</totfact>
</mgrwt>
</event>
<event>
 8    1  0.1426346E-011  0.1623833E+04  0.7818608E-02  0.8806039E-01
         -3   -1    0    0    0  501 -0.00000000000E+00  0.00000000000E+00  0.21481039432E+03  0.21481041806E+03  0.10100000000E+00 0. -1.
          3   -1    0    0  501    0  0.00000000000E+00 -0.00000000000E+00 -0.30687923865E+04  0.30687923881E+04  0.10100000000E+00 0.  1.
     200001    2    1    2    0    0 -0.34048805978E+03  0.80183703352E+02 -0.98567695843E+03  0.12580349243E+04  0.69909316921E+03 0.  0.
    5000001    2    3    3    0    0 -0.16367624650E+03  0.53324991871E+02 -0.31660741975E+03  0.40384650522E+03  0.18225880805E+03 0.  0.
        -11    1    4    4    0    0 -0.28358625612E+02 -0.13063855124E+02  0.17711093220E+02  0.35896500952E+02  0.51100000000E-03 0. -1.
     200002    1    4    4    0    0 -0.13531762088E+03  0.66388846994E+02 -0.33431851297E+03  0.36795000427E+03  0.30000000000E+02 0. -1.
     200000    1    3    3    0    0 -0.17681181328E+03  0.26858711481E+02 -0.66906953868E+03  0.85418841908E+03  0.50000000000E+03 0. -1.
    -200001    1    1    2    0    0  0.34048805978E+03 -0.80183703352E+02 -0.18683050337E+04  0.20255678819E+04  0.70000000000E+03 0.  1.
<mgrwt>
<rscale>  0 0.16238332E+04</rscale>
<asrwt>0</asrwt>
<pdfrwt beam="1">  1        3 0.43839889E+00 0.16238332E+04</pdfrwt>
<pdfrwt beam="2">  1       -3 0.30687203E-01 0.16238332E+04</pdfrwt>
<totfact> 0.18494758E-01</totfact>
</mgrwt>
</event>
<event>
 8    1  0.1426346E-011  0.1698989E+04  0.7818608E-02  0.8761941E-01
         -3   -1    0    0    0  501 -0.00000000000E+00  0.00000000000E+00  0.10914084264E+04  0.10914084311E+04  0.10100000000E+00 0. -1.
          3   -1    0    0  501    0  0.00000000000E+00 -0.00000000000E+00 -0.66120158792E+03  0.66120159563E+03  0.10100000000E+00 0.  1.
     200001    2    1    2    0    0 -0.10055390334E+03  0.30370026053E+03  0.58602384484E+03  0.96735600723E+03  0.70000625874E+03 0.  0.
    5000001    2    3    3    0    0 -0.32726896529E+01  0.16740632496E+03  0.17853419897E+03  0.30095711550E+03  0.17511463969E+03 0.  0.
        -11    1    4    4    0    0 -0.33246422339E+02  0.13795060373E+03  0.19984402448E+03  0.24509860829E+03  0.51100000000E-03 0. -1.
     200002    1    4    4    0    0  0.29973732686E+02  0.29455721224E+02 -0.21309825506E+02  0.55858507204E+02  0.30000000000E+02 0. -1.
     200000    1    3    3    0    0 -0.97281213689E+02  0.13629393558E+03  0.40748964586E+03  0.66639889173E+03  0.50000000000E+03 0. -1.
    -200001    1    1    2    0    0  0.10055390334E+03 -0.30370026053E+03 -0.15581700631E+03  0.78525401952E+03  0.70000000000E+03 0.  1.
<mgrwt>
<rscale>  0 0.16989891E+04</rscale>
<asrwt>0</asrwt>
<pdfrwt beam="1">  1        3 0.94457371E-01 0.16989891E+04</pdfrwt>
<pdfrwt beam="2">  1       -3 0.15591549E+00 0.16989891E+04</pdfrwt>
<totfact> 0.72971269E-01</totfact>
</mgrwt>
</event>
<event>
 8    1  0.1426346E-011  0.1774809E+04  0.7818608E-02  0.8719811E-01
         -3   -1    0    0    0  501 -0.00000000000E+00  0.00000000000E+00  0.13339413965E+04  0.13339414003E+04  0.10100000000E+00 0. -1.
          3   -1    0    0  501    0  0.00000000000E+00 -0.00000000000E+00 -0.59034600133E+03  0.59034600997E+03  0.10100000000E+00 0.  1.
     200001    2    1    2    0    0  0.26191772817E+03  0.73355756794E+02 -0.14006643681E+03  0.76461495797E+03  0.70073922671E+03 0.  0.
    5000001    2    3    3    0    0  0.40767334813E+02  0.90300238451E+02 -0.15884669895E+02  0.20370879544E+03  0.17728181505E+03 0.  0.
        -11    1    4    4    0    0  0.87282393538E+02  0.92112578004E+02  0.31584197112E+02  0.13076889827E+03  0.51100000000E-03 0. -1.
     200002    1    4    4    0    0 -0.46515058726E+02 -0.18123395534E+01 -0.47468867007E+02  0.72939897161E+02  0.30000000000E+02 0. -1.
     200000    1    3    3    0    0  0.22115039336E+03 -0.16944481657E+02 -0.12418176691E+03  0.56090616254E+03  0.50000000000E+03 0.  1.
    -200001    1    1    2    0    0 -0.26191772817E+03 -0.73355756794E+02  0.88366183198E+03  0.11596724523E+04  0.70000000000E+03 0. -1.
<mgrwt>
<rscale>  0 0.17748093E+04</rscale>
<asrwt>0</asrwt>
<pdfrwt beam="1">  1        3 0.84335144E-01 0.17748093E+04</pdfrwt>
<pdfrwt beam="2">  1       -3 0.19056306E+00 0.17748093E+04</pdfrwt>
<totfact> 0.54213210E-01</totfact>
</mgrwt>
</event>
<event>
 8    1  0.1426346E-011  0.1524558E+04  0.7818608E-02  0.8868284E-01
          3   -1    0    0  501    0  0.00000000000E+00  0.00000000000E+00  0.71719091404E+03  0.71719092115E+03  0.10100000000E+00 0.  1.
         -3   -1    0    0    0  501 -0.00000000000E+00 -0.00000000000E+00 -0.81020195090E+03  0.81020195720E+03  0.10100000000E+00 0. -1.
     200001    2    1    2    0    0 -0.81973902613E+02  0.69738672617E+02  0.23551137447E+03  0.74668155019E+03  0.70034600500E+03 0.  0.
    5000001    2    3    3    0    0 -0.95146506716E+02  0.87564026291E+02 -0.20089678024E+02  0.18470009252E+03  0.13034650963E+03 0.  0.
        -11    1    4    4    0    0 -0.10731690320E+03  0.26035665441E+02 -0.30096406717E+02  0.11445770960E+03  0.51100000000E-03 0. -1.
     200002    1    4    4    0    0  0.12170396488E+02  0.61528360850E+02  0.10006728692E+02  0.70242382923E+02  0.30000000000E+02 0. -1.
     200000    1    3    3    0    0  0.13172604103E+02 -0.17825353674E+02  0.25560105249E+03  0.56198145767E+03  0.50000000000E+03 0.  1.
    -200001    1    1    2    0    0  0.81973902613E+02 -0.69738672617E+02 -0.32852241133E+03  0.78071132816E+03  0.70000000000E+03 0. -1.
<mgrwt>
<rscale>  0 0.15245583E+04</rscale>
<asrwt>0</asrwt>
<pdfrwt beam="1">  1        3 0.10245585E+00 0.15245583E+04</pdfrwt>
<pdfrwt beam="2">  1       -3 0.11574314E+00 0.15245583E+04</pdfrwt>
<totfact> 0.12960457E+00</totfact>
</mgrwt>
</event>
<event>
 8    1  0.1426346E-011  0.1619649E+04  0.7818608E-02  0.8808567E-01
          3   -1    0    0  501    0  0.00000000000E+00  0.00000000000E+00  0.30525584904E+03  0.30525586575E+03  0.10100000000E+00 0.  1.
         -3   -1    0    0    0  501 -0.00000000000E+00 -0.00000000000E+00 -0.21484121507E+04  0.21484121530E+04  0.10100000000E+00 0. -1.
     200001    2    1    2    0    0 -0.30156141602E+03  0.19630124144E+01 -0.13318009298E+04  0.15358295486E+04  0.70294775393E+03 0.  0.
    5000001    2    3    3    0    0 -0.55548133737E+02  0.49837486209E+02 -0.29125759722E+03  0.35449770393E+03  0.18779846635E+03 0.  0.
        -11    1    4    4    0    0 -0.23644484223E+02 -0.52584507977E+02 -0.20685862990E+03  0.21474329996E+03  0.51100000000E-03 0. -1.
     200002    1    4    4    0    0 -0.31903649514E+02  0.10242199419E+03 -0.84398967318E+02  0.13975440397E+03  0.30000000000E+02 0. -1.
     200000    1    3    3    0    0 -0.24601328228E+03 -0.47874473795E+02 -0.10405433325E+04  0.11813318447E+04  0.50000000000E+03 0. -1.
    -200001    1    1    2    0    0  0.30156141602E+03 -0.19630124144E+01 -0.51135537185E+03  0.91783847019E+03  0.70000000000E+03 0.  1.
<mgrwt>
<rscale>  0 0.16196486E+04</rscale>
<asrwt>0</asrwt>
<pdfrwt beam="1">  1        3 0.43607981E-01 0.16196486E+04</pdfrwt>
<pdfrwt beam="2">  1       -3 0.30691601E+00 0.16196486E+04</pdfrwt>
<totfact> 0.46022507E-01</totfact>
</mgrwt>
</event>
<event>
 8    1  0.1426346E-011  0.1602550E+04  0.7818608E-02  0.8818983E-01
         -3   -1    0    0    0  501 -0.00000000000E+00  0.00000000000E+00  0.49557441896E+03  0.49557442925E+03  0.10100000000E+00 0. -1.
          3   -1    0    0  501    0  0.00000000000E+00 -0.00000000000E+00 -0.12955507891E+04  0.12955507930E+04  0.10100000000E+00 0.  1.
     200001    2    1    2    0    0 -0.32084854189E+03  0.22495906283E+03 -0.38386684238E+03  0.88741204549E+03  0.69756434758E+03 0.  0.
    5000001    2    3    3    0    0  0.42422359394E+02  0.89443488165E+02 -0.79525891570E+02  0.18530547734E+03  0.13495909881E+03 0.  0.
        -11    1    4    4    0    0 -0.37274165699E+02  0.52450701130E+02 -0.64764141728E+02  0.91295309472E+02  0.51100000000E-03 0. -1.
     200002    1    4    4    0    0  0.79696525093E+02  0.36992787035E+02 -0.14761749842E+02  0.94010167870E+02  0.30000000000E+02 0. -1.
     200000    1    3    3    0    0 -0.36327090129E+03  0.13551557467E+03 -0.30434095082E+03  0.70210656815E+03  0.50000000000E+03 0. -1.
    -200001    1    1    2    0    0  0.32084854189E+03 -0.22495906283E+03 -0.41610952772E+03  0.90371317676E+03  0.70000000000E+03 0.  1.
<mgrwt>
<rscale>  0 0.16025503E+04</rscale>
<asrwt>0</asrwt>
<pdfrwt beam="1">  1        3 0.18507868E+00 0.16025503E+04</pdfrwt>
<pdfrwt beam="2">  1       -3 0.70796347E-01 0.16025503E+04</pdfrwt>
<totfact> 0.88348528E-01</totfact>
</mgrwt>
</event>
<event>
 8    1  0.1426346E-011  0.1518000E+04  0.7818608E-02  0.8872570E-01
          3   -1    0    0  501    0  0.00000000000E+00  0.00000000000E+00  0.79171671430E+03  0.79171672074E+03  0.10100000000E+00 0. -1.
         -3   -1    0    0    0  501 -0.00000000000E+00 -0.00000000000E+00 -0.72763567961E+03  0.72763568662E+03  0.10100000000E+00 0.  1.
     200001    2    1    2    0    0 -0.19484533680E+03 -0.12189891002E+03  0.21952854286E+03  0.76636636677E+03  0.69735254889E+03 0.  0.
    5000001    2    3    3    0    0 -0.65745358915E+02 -0.71718121983E+02  0.29184532531E+02  0.21372203445E+03  0.18804103230E+03 0.  0.
        -11    1    4    4    0    0  0.49818093329E+02  0.20606804640E+02  0.32142781820E+02  0.62766561510E+02  0.51100000000E-03 0. -1.
     200002    1    4    4    0    0 -0.11556345224E+03 -0.92324926623E+02 -0.29582492888E+01  0.15095547294E+03  0.30000000000E+02 0. -1.
     200000    1    3    3    0    0 -0.12909997788E+03 -0.50180788042E+02  0.19034401033E+03  0.55264433232E+03  0.50000000000E+03 0. -1.
    -200001    1    1    2    0    0  0.19484533680E+03  0.12189891002E+03 -0.15544750817E+03  0.75298604060E+03  0.70000000000E+03 0. -1.
<mgrwt>
<rscale>  0 0.15180004E+04</rscale>
<asrwt>0</asrwt>
<pdfrwt beam="1">  1        3 0.11310239E+00 0.15180004E+04</pdfrwt>
<pdfrwt beam="2">  1       -3 0.10394795E+00 0.15180004E+04</pdfrwt>
<totfact> 0.13251526E+00</totfact>
</mgrwt>
</event>
<event>
 8    1  0.1426346E-011  0.1534353E+04  0.7818608E-02  0.8861925E-01
          3   -1    0    0  501    0  0.00000000000E+00  0.00000000000E+00  0.22694408280E+04  0.22694408303E+04  0.10100000000E+00 0.  1.
         -3   -1    0    0    0  501 -0.00000000000E+00 -0.00000000000E+00 -0.25934127117E+03  0.25934129084E+03  0.10100000000E+00 0. -1.
     200001    2    1    2    0    0 -0.27538638542E+03  0.13551435087E+02  0.75923411058E+03  0.10690952823E+04  0.70036203877E+03 0.  0.
    5000001    2    3    3    0    0 -0.88139500543E+02  0.37027164352E+02  0.30650886652E+03  0.36868636435E+03  0.18122463284E+03 0.  0.
        -11    1    4    4    0    0 -0.12612571175E+03 -0.14459385403E+02  0.14704188244E+03  0.19426292539E+03  0.51100000000E-03 0. -1.
     200002    1    4    4    0    0  0.37986211204E+02  0.51486549755E+02  0.15946698408E+03  0.17442343896E+03  0.30000000000E+02 0. -1.
     200000    1    3    3    0    0 -0.18724688488E+03 -0.23475729265E+02  0.45272524406E+03  0.70040891797E+03  0.50000000000E+03 0. -1.
    -200001    1    1    2    0    0  0.27538638542E+03 -0.13551435087E+02  0.12508654463E+04  0.14596868388E+04  0.70000000000E+03 0.  1.
<mgrwt>
<rscale>  0 0.15343529E+04</rscale>
<asrwt>0</asrwt>
<pdfrwt beam="1">  1        3 0.32420584E+00 0.15343529E+04</pdfrwt>
<pdfrwt beam="2">  1       -3 0.37048754E-01 0.15343529E+04</pdfrwt>
<totfact> 0.52523565E-01</totfact>
</mgrwt>
</event>
<event>
 8    1  0.1426346E-011  0.1500508E+04  0.7818608E-02  0.8884115E-01
         -3   -1    0    0    0  501 -0.00000000000E+00  0.00000000000E+00  0.19763362807E+03  0.19763365388E+03  0.10100000000E+00 0. -1.
          3   -1    0    0  501    0  0.00000000000E+00 -0.00000000000E+00 -0.28481044010E+04  0.28481044028E+04  0.10100000000E+00 0.  1.
     200001    2    1    2    0    0  0.11819069955E+03 -0.67357251092E+02 -0.17976366151E+04  0.19340581830E+04  0.70041246030E+03 0.  0.
    5000001    2    3    3    0    0  0.41271520004E+02 -0.10743909825E+02 -0.47303973623E+03  0.51501677342E+03  0.19914044011E+03 0.  0.
        -11    1    4    4    0    0 -0.73763057770E+02 -0.23168350544E+02 -0.25373500879E+03  0.26525311656E+03  0.51100000000E-03 0. -1.
     200002    1    4    4    0    0  0.11503457777E+03  0.12424440720E+02 -0.21930472744E+03  0.24976365686E+03  0.30000000000E+02 0. -1.
     200000    1    3    3    0    0  0.76919179550E+02 -0.56613341268E+02 -0.13245968789E+04  0.14190414096E+04  0.50000000000E+03 0.  1.
    -200001    1    1    2    0    0 -0.11819069955E+03  0.67357251092E+02 -0.85283415777E+03  0.11116798736E+04  0.70000000000E+03 0. -1.
<mgrwt>
<rscale>  0 0.15005082E+04</rscale>
<asrwt>0</asrwt>
<pdfrwt beam="1">  1        3 0.40687203E+00 0.15005082E+04</pdfrwt>
<pdfrwt beam="2">  1       -3 0.28233379E-01 0.15005082E+04</pdfrwt>
<totfact> 0.31997876E-01</totfact>
</mgrwt>
</event>
<event>
 8    1  0.1426346E-011  0.1746467E+04  0.7818608E-02  0.8735298E-01
         -3   -1    0    0    0  501 -0.00000000000E+00  0.00000000000E+00  0.57574641698E+03  0.57574642584E+03  0.10100000000E+00 0. -1.
          3   -1    0    0  501    0  0.00000000000E+00 -0.00000000000E+00 -0.13244309079E+04  0.13244309118E+04  0.10100000000E+00 0.  1.
     200001    2    1    2    0    0 -0.15536295900E+03  0.48280352093E+03 -0.50867835968E+03  0.10030486780E+04  0.70008291506E+03 0.  0.
    5000001    2    3    3    0    0  0.47153877603E+00  0.59178566671E+02 -0.19462334723E+02  0.17053752993E+03  0.15875119383E+03 0.  0.
        -11    1    4    4    0    0  0.33108033416E+02 -0.90037935524E+01 -0.67759550689E+02  0.75951082184E+02  0.51100000000E-03 0. -1.
     200002    1    4    4    0    0 -0.32636494640E+02  0.68182360223E+02  0.48297215966E+02  0.94586447750E+02  0.30000000000E+02 0. -1.
     200000    1    3    3    0    0 -0.15583449778E+03  0.42362495426E+03 -0.48921602495E+03  0.83251114806E+03  0.50000000000E+03 0.  1.
    -200001    1    1    2    0    0  0.15536295900E+03 -0.48280352093E+03 -0.24000613126E+03  0.89712865961E+03  0.70000000000E+03 0. -1.
<mgrwt>
<rscale>  0 0.17464666E+04</rscale>
<asrwt>0</asrwt>
<pdfrwt beam="1">  1        3 0.18920442E+00 0.17464666E+04</pdfrwt>
<pdfrwt beam="2">  1       -3 0.82249489E-01 0.17464666E+04</pdfrwt>
<totfact> 0.58939273E-01</totfact>
</mgrwt>
</event>
<event>
 8    1  0.1426346E-011  0.2052025E+04  0.7818608E-02  0.8582676E-01
         -3   -1    0    0    0  501 -0.00000000000E+00  0.00000000000E+00  0.20524699301E+04  0.20524699325E+04  0.10100000000E+00 0.  1.
          3   -1    0    0  501    0  0.00000000000E+00 -0.00000000000E+00 -0.51289526034E+03  0.51289527028E+03  0.10100000000E+00 0. -1.
     200001    2    1    2    0    0 -0.45917309671E+03  0.59238386990E+03  0.80936423630E+03  0.13064109308E+04  0.69991461690E+03 0.  0.
    5000001    2    3    3    0    0 -0.24781664008E+03  0.24675774225E+03  0.30554879054E+03  0.48912335881E+03  0.15355496175E+03 0.  0.
        -11    1    4    4    0    0  0.86542041234E+01  0.66421459106E+02  0.54410221882E+02  0.86297031955E+02  0.51100000000E-03 0. -1.
     200002    1    4    4    0    0 -0.25647084420E+03  0.18033628314E+03  0.25113856866E+03  0.40282632686E+03  0.30000000000E+02 0. -1.
     200000    1    3    3    0    0 -0.21135645664E+03  0.34562612765E+03  0.50381544575E+03  0.81728757194E+03  0.50000000000E+03 0. -1.
    -200001    1    1    2    0    0  0.45917309671E+03 -0.59238386990E+03  0.73021043342E+03  0.12589542721E+04  0.70000000000E+03 0. -1.
<mgrwt>
<rscale>  0 0.20520255E+04</rscale>
<asrwt>0</asrwt>
<pdfrwt beam="1">  1        3 0.73270751E-01 0.20520255E+04</pdfrwt>
<pdfrwt beam="2">  1       -3 0.29321000E+00 0.20520255E+04</pdfrwt>
<totfact> 0.17854831E-01</totfact>
</mgrwt>
</event>
<event>
 8    1  0.1426346E-011  0.1477285E+04  0.7818608E-02  0.8899700E-01
          3   -1    0    0  501    0  0.00000000000E+00  0.00000000000E+00  0.37475967645E+03  0.37475969006E+03  0.10100000000E+00 0.  1.
         -3   -1    0    0    0  501 -0.00000000000E+00 -0.00000000000E+00 -0.14558476269E+04  0.14558476304E+04  0.10100000000E+00 0. -1.
     200001    2    1    2    0    0  0.16483579923E+02 -0.70275019867E+02 -0.26193215379E+03  0.75068764474E+03  0.69979511283E+03 0.  0.
    5000001    2    3    3    0    0 -0.44173835073E+02  0.40094794205E+02 -0.25487460449E+01  0.17350433758E+03  0.16290592016E+03 0.  0.
        -11    1    4    4    0    0 -0.37372471058E+02  0.15847594296E+01 -0.76198042680E+02  0.84884361127E+02  0.51100000000E-03 0. -1.
     200002    1    4    4    0    0 -0.68013640151E+01  0.38510034775E+02  0.73649296635E+02  0.88619976448E+02  0.30000000000E+02 0. -1.
     200000    1    3    3    0    0  0.60657414996E+02 -0.11036981407E+03 -0.25938340774E+03  0.57718330716E+03  0.50000000000E+03 0.  1.
    -200001    1    1    2    0    0 -0.16483579923E+02  0.70275019867E+02 -0.81915579670E+03  0.10799196758E+04  0.70000000000E+03 0. -1.
<mgrwt>
<rscale>  0 0.14772853E+04</rscale>
<asrwt>0</asrwt>
<pdfrwt beam="1">  1        3 0.53537098E-01 0.14772853E+04</pdfrwt>
<pdfrwt beam="2">  1       -3 0.20797823E+00 0.14772853E+04</pdfrwt>
<totfact> 0.11464863E+00</totfact>
</mgrwt>
</event>
<event>
 8    1  0.1426346E-011  0.1486350E+04  0.7818608E-02  0.8893581E-01
          3   -1    0    0  501    0  0.00000000000E+00  0.00000000000E+00  0.30592722806E+03  0.30592724474E+03  0.10100000000E+00 0.  1.
         -3   -1    0    0    0  501 -0.00000000000E+00 -0.00000000000E+00 -0.18053619846E+04  0.18053619875E+04  0.10100000000E+00 0. -1.
     200001    2    1    2    0    0 -0.10676743227E+03 -0.21519996131E+03 -0.74832775897E+03  0.10568358052E+04  0.70653887103E+03 0.  0.
    5000001    2    3    3    0    0 -0.85977984826E+02 -0.18628057080E+02 -0.27276297664E+03  0.33903738161E+03  0.18112836973E+03 0.  0.
        -11    1    4    4    0    0 -0.86319258050E+02  0.31042470106E+02 -0.41637908861E+02  0.10073909229E+03  0.51100000000E-03 0. -1.
     200002    1    4    4    0    0  0.34127322475E+00 -0.49670527186E+02 -0.23112506778E+03  0.23829828932E+03  0.30000000000E+02 0. -1.
     200000    1    3    3    0    0 -0.20789447444E+02 -0.19657190423E+03 -0.47556478233E+03  0.71779842355E+03  0.50000000000E+03 0.  1.
    -200001    1    1    2    0    0  0.10676743227E+03  0.21519996131E+03 -0.75110699760E+03  0.10544534270E+04  0.70000000000E+03 0. -1.
<mgrwt>
<rscale>  0 0.14863504E+04</rscale>
<asrwt>0</asrwt>
<pdfrwt beam="1">  1        3 0.43703892E-01 0.14863504E+04</pdfrwt>
<pdfrwt beam="2">  1       -3 0.25790885E+00 0.14863504E+04</pdfrwt>
<totfact> 0.87522138E-01</totfact>
</mgrwt>
</event>
<event>
 8    1  0.1426346E-011  0.1897862E+04  0.7818608E-02  0.8655921E-01
         -3   -1    0    0    0  501 -0.00000000000E+00  0.00000000000E+00  0.36156436677E+03  0.36156438088E+03  0.10100000000E+00 0. -1.
          3   -1    0    0  501    0  0.00000000000E+00 -0.00000000000E+00 -0.24904824024E+04  0.24904824044E+04  0.10100000000E+00 0.  1.
     200001    2    1    2    0    0  0.50400429093E+03  0.40577961313E+02 -0.16556064148E+04  0.18673179969E+04  0.70012642064E+03 0.  0.
    5000001    2    3    3    0    0  0.94674113554E+02  0.50310183346E+02 -0.57239531733E+03  0.60597260734E+03  0.16754730445E+03 0.  0.
        -11    1    4    4    0    0  0.35829478816E+02  0.80942827491E+02 -0.12784006588E+03  0.15549461508E+03  0.51100000000E-03 0. -1.
     200002    1    4    4    0    0  0.58844634738E+02 -0.30632644145E+02 -0.44455525144E+03  0.45047799226E+03  0.30000000000E+02 0. -1.
     200000    1    3    3    0    0  0.40933017738E+03 -0.97322220332E+01 -0.10832110974E+04  0.12613453896E+04  0.50000000000E+03 0. -1.
    -200001    1    1    2    0    0 -0.50400429093E+03 -0.40577961313E+02 -0.47331162087E+03  0.98472878838E+03  0.70000000000E+03 0. -1.
<mgrwt>
<rscale>  0 0.18978617E+04</rscale>
<asrwt>0</asrwt>
<pdfrwt beam="1">  1        3 0.35578319E+00 0.18978617E+04</pdfrwt>
<pdfrwt beam="2">  1       -3 0.51652055E-01 0.18978617E+04</pdfrwt>
<totfact> 0.17612662E-01</totfact>
</mgrwt>
</event>
<event>
 8    1  0.1426346E-011  0.2003466E+04  0.7818608E-02  0.8605002E-01
         -3   -1    0    0    0  501 -0.00000000000E+00  0.00000000000E+00  0.71600105277E+03  0.71600105989E+03  0.10100000000E+00 0. -1.
          3   -1    0    0  501    0  0.00000000000E+00 -0.00000000000E+00 -0.14014910409E+04  0.14014910446E+04  0.10100000000E+00 0.  1.
     200001    2    1    2    0    0 -0.47035718623E+03 -0.17522249866E+03  0.19741260553E+03  0.88401904168E+03  0.70041353681E+03 0.  0.
    5000001    2    3    3    0    0 -0.17152668756E+03 -0.13719612717E+03  0.37163529263E+02  0.27868819139E+03  0.16745685491E+03 0.  0.
        -11    1    4    4    0    0 -0.21038849207E+02 -0.81431760829E+02  0.73191006546E+02  0.11149299658E+03  0.51100000000E-03 0. -1.
     200002    1    4    4    0    0 -0.15048783836E+03 -0.55764366343E+02 -0.36027477283E+02  0.16719519481E+03  0.30000000000E+02 0. -1.
     200000    1    3    3    0    0 -0.29883049867E+03 -0.38026371488E+02  0.16024907627E+03  0.60533085029E+03  0.50000000000E+03 0. -1.
    -200001    1    1    2    0    0  0.47035718623E+03  0.17522249866E+03 -0.88290259371E+03  0.12334730628E+04  0.70000000000E+03 0.  1.
<mgrwt>
<rscale>  0 0.20034661E+04</rscale>
<asrwt>0</asrwt>
<pdfrwt beam="1">  1        3 0.20021300E+00 0.20034661E+04</pdfrwt>
<pdfrwt beam="2">  1       -3 0.10228587E+00 0.20034661E+04</pdfrwt>
<totfact> 0.29754298E-01</totfact>
</mgrwt>
</event>
<event>
 8    1  0.1426346E-011  0.1743667E+04  0.7818608E-02  0.8736844E-01
          3   -1    0    0  501    0  0.00000000000E+00  0.00000000000E+00  0.49879008688E+03  0.49879009710E+03  0.10100000000E+00 0.  1.
         -3   -1    0    0    0  501 -0.00000000000E+00 -0.00000000000E+00 -0.15238751299E+04  0.15238751332E+04  0.10100000000E+00 0. -1.
     200001    2    1    2    0    0  0.19038188256E+03  0.42938094072E+03 -0.77287109175E+03  0.11427645935E+04  0.69854701937E+03 0.  0.
    5000001    2    3    3    0    0  0.15699077837E+03  0.13097143486E+03 -0.23853735090E+03  0.35176791486E+03  0.15824341032E+03 0.  0.
        -11    1    4    4    0    0  0.16021361423E+03  0.56004841969E+02 -0.11823639939E+03  0.20684484681E+03  0.51100000000E-03 0. -1.
     200002    1    4    4    0    0 -0.32228358597E+01  0.74966592886E+02 -0.12030095151E+03  0.14492306806E+03  0.30000000000E+02 0. -1.
     200000    1    3    3    0    0  0.33391104183E+02  0.29840950586E+03 -0.53433374085E+03  0.79099667865E+03  0.50000000000E+03 0.  1.
    -200001    1    1    2    0    0 -0.19038188256E+03 -0.42938094072E+03 -0.25221395124E+03  0.87990063681E+03  0.70000000000E+03 0. -1.
<mgrwt>
<rscale>  0 0.17436672E+04</rscale>
<asrwt>0</asrwt>
<pdfrwt beam="1">  1        3 0.71255729E-01 0.17436672E+04</pdfrwt>
<pdfrwt beam="2">  1       -3 0.21769645E+00 0.17436672E+04</pdfrwt>
<totfact> 0.53315464E-01</totfact>
</mgrwt>
</event>
<event>
 8    1  0.1426346E-011  0.1573387E+04  0.7818608E-02  0.8837066E-01
          3   -1    0    0  501    0  0.00000000000E+00  0.00000000000E+00  0.20728068614E+04  0.20728068638E+04  0.10100000000E+00 0.  1.
         -3   -1    0    0    0  501 -0.00000000000E+00 -0.00000000000E+00 -0.29857425627E+03  0.29857427335E+03  0.10100000000E+00 0. -1.
     200001    2    1    2    0    0  0.26600348721E+03 -0.23699199023E+01  0.52463456799E+03  0.91458371610E+03  0.70032740350E+03 0.  0.
    5000001    2    3    3    0    0  0.45821525507E+02  0.35004442080E+02  0.14072332877E+03  0.24580514378E+03  0.19311185951E+03 0.  0.
        -11    1    4    4    0    0  0.41795519857E+02 -0.11501204909E+02  0.17519658985E+03  0.18047988333E+03  0.51100000000E-03 0. -1.
     200002    1    4    4    0    0  0.40260056501E+01  0.46505646988E+02 -0.34473261076E+02  0.65325260448E+02  0.30000000000E+02 0. -1.
     200000    1    3    3    0    0  0.22018196171E+03 -0.37374361982E+02  0.38391123922E+03  0.66877857232E+03  0.50000000000E+03 0. -1.
    -200001    1    1    2    0    0 -0.26600348721E+03  0.23699199023E+01  0.12495980371E+04  0.14567974211E+04  0.70000000000E+03 0.  1.
<mgrwt>
<rscale>  0 0.15733872E+04</rscale>
<asrwt>0</asrwt>
<pdfrwt beam="1">  1        3 0.29611526E+00 0.15733872E+04</pdfrwt>
<pdfrwt beam="2">  1       -3 0.42653468E-01 0.15733872E+04</pdfrwt>
<totfact> 0.56457053E-01</totfact>
</mgrwt>
</event>
<event>
 8    1  0.1426346E-011  0.1675586E+04  0.7818608E-02  0.8775412E-01
         -3   -1    0    0    0  501 -0.00000000000E+00  0.00000000000E+00  0.15631582353E+04  0.15631582386E+04  0.10100000000E+00 0. -1.
          3   -1    0    0  501    0  0.00000000000E+00 -0.00000000000E+00 -0.44902508324E+03  0.44902509460E+03  0.10100000000E+00 0.  1.
     200001    2    1    2    0    0  0.43775790845E+03 -0.51409766823E+02  0.71578041543E+03  0.10940548817E+04  0.70024247989E+03 0.  0.
    5000001    2    3    3    0    0  0.12669178756E+03 -0.56173731926E+02  0.26666209730E+03  0.35345236312E+03  0.18604731028E+03 0.  0.
        -11    1    4    4    0    0 -0.33964011095E+02 -0.58758112409E+02  0.66326184768E+02  0.94895904072E+02  0.51100000000E-03 0. -1.
     200002    1    4    4    0    0  0.16065579865E+03  0.25843804829E+01  0.20033591253E+03  0.25855645905E+03  0.30000000000E+02 0. -1.
     200000    1    3    3    0    0  0.31106612089E+03  0.47639651038E+01  0.44911831813E+03  0.74060251863E+03  0.50000000000E+03 0.  1.
    -200001    1    1    2    0    0 -0.43775790845E+03  0.51409766823E+02  0.39835273664E+03  0.91812845143E+03  0.70000000000E+03 0. -1.
<mgrwt>
<rscale>  0 0.16755862E+04</rscale>
<asrwt>0</asrwt>
<pdfrwt beam="1">  1        3 0.64146441E-01 0.16755862E+04</pdfrwt>
<pdfrwt beam="2">  1       -3 0.22330832E+00 0.16755862E+04</pdfrwt>
<totfact> 0.62196019E-01</totfact>
</mgrwt>
</event>
<event>
 8    1  0.1426346E-011  0.2043830E+04  0.7818608E-02  0.8586398E-01
         -3   -1    0    0    0  501 -0.00000000000E+00  0.00000000000E+00  0.13132958537E+04  0.13132958576E+04  0.10100000000E+00 0.  1.
          3   -1    0    0  501    0  0.00000000000E+00 -0.00000000000E+00 -0.79518283525E+03  0.79518284166E+03  0.10100000000E+00 0. -1.
     200001    2    1    2    0    0 -0.49709893773E+03  0.39917738635E+03 -0.13250500660E+03  0.95967333968E+03  0.70495773097E+03 0.  0.
    5000001    2    3    3    0    0 -0.16320528355E+03  0.10208246533E+03  0.11802512105E+03  0.24377131478E+03  0.91857119502E+02 0.  0.
        -11    1    4    4    0    0 -0.13715239820E+03  0.75709853971E+02  0.11792097902E+03  0.19608192067E+03  0.51100000000E-03 0. -1.
     200002    1    4    4    0    0 -0.26052885351E+02  0.26372611361E+02  0.10414203219E+00  0.47689394111E+02  0.30000000000E+02 0. -1.
     200000    1    3    3    0    0 -0.33389365418E+03  0.29709492102E+03 -0.25053012765E+03  0.71590202490E+03  0.50000000000E+03 0. -1.
    -200001    1    1    2    0    0  0.49709893773E+03 -0.39917738635E+03  0.65061802506E+03  0.11488053596E+04  0.70000000000E+03 0.  1.
<mgrwt>
<rscale>  0 0.20438301E+04</rscale>
<asrwt>0</asrwt>
<pdfrwt beam="1">  1        3 0.11359755E+00 0.20438301E+04</pdfrwt>
<pdfrwt beam="2">  1       -3 0.18761369E+00 0.20438301E+04</pdfrwt>
<totfact> 0.27732400E-01</totfact>
</mgrwt>
</event>
<event>
 8    1  0.1426346E-011  0.2056393E+04  0.7818608E-02  0.8580700E-01
          3   -1    0    0  501    0  0.00000000000E+00  0.00000000000E+00  0.86435988545E+03  0.86435989135E+03  0.10100000000E+00 0.  1.
         -3   -1    0    0    0  501 -0.00000000000E+00 -0.00000000000E+00 -0.12230879874E+04  0.12230879915E+04  0.10100000000E+00 0. -1.
     200001    2    1    2    0    0  0.22403957302E+03  0.71262757523E+03 -0.84869482335E+02  0.10277166270E+04  0.70069026327E+03 0.  0.
    5000001    2    3    3    0    0  0.42428256153E+02  0.18045653575E+03  0.34899194205E+02  0.26578931970E+03  0.18724660342E+03 0.  0.
        -11    1    4    4    0    0 -0.18761476862E+02  0.91590543563E+02 -0.66488474916E+02  0.11472374637E+03  0.51100000000E-03 0. -1.
     200002    1    4    4    0    0  0.61189733015E+02  0.88865992190E+02  0.10138766912E+03  0.15106557333E+03  0.30000000000E+02 0. -1.
     200000    1    3    3    0    0  0.18161131686E+03  0.53217103948E+03 -0.11976867654E+03  0.76192730726E+03  0.50000000000E+03 0.  1.
    -200001    1    1    2    0    0 -0.22403957302E+03 -0.71262757523E+03 -0.27385861957E+03  0.10597312559E+04  0.70000000000E+03 0. -1.
<mgrwt>
<rscale>  0 0.20563932E+04</rscale>
<asrwt>0</asrwt>
<pdfrwt beam="1">  1        3 0.12347999E+00 0.20563932E+04</pdfrwt>
<pdfrwt beam="2">  1       -3 0.17472686E+00 0.20563932E+04</pdfrwt>
<totfact> 0.27600444E-01</totfact>
</mgrwt>
</event>
<event>
 8    1  0.1426346E-011  0.1879428E+04  0.7818608E-02  0.8665165E-01
          3   -1    0    0  501    0  0.00000000000E+00  0.00000000000E+00  0.98084082847E+03  0.98084083367E+03  0.10100000000E+00 0. -1.
         -3   -1    0    0    0  501 -0.00000000000E+00 -0.00000000000E+00 -0.90031125253E+03  0.90031125819E+03  0.10100000000E+00 0.  1.
     200001    2    1    2    0    0 -0.16327728971E+03  0.51638443285E+03 -0.27627912293E+03  0.92688546067E+03  0.69962429032E+03 0.  0.
    5000001    2    3    3    0    0  0.23317959112E+01  0.94194126680E+02 -0.32772233840E+02  0.20927370707E+03  0.18396601422E+03 0.  0.
        -11    1    4    4    0    0  0.81937577804E+02  0.34447728588E+01 -0.75785912519E+01  0.82359384177E+02  0.51100000000E-03 0. -1.
     200002    1    4    4    0    0 -0.79605781893E+02  0.90749353821E+02 -0.25193642589E+02  0.12691432290E+03  0.30000000000E+02 0. -1.
     200000    1    3    3    0    0 -0.16560908562E+03  0.42219030617E+03 -0.24350688909E+03  0.71761175359E+03  0.50000000000E+03 0.  1.
    -200001    1    1    2    0    0  0.16327728971E+03 -0.51638443285E+03  0.35680869888E+03  0.95426663120E+03  0.70000000000E+03 0. -1.
<mgrwt>
<rscale>  0 0.18794276E+04</rscale>
<asrwt>0</asrwt>
<pdfrwt beam="1">  1        3 0.14012012E+00 0.18794276E+04</pdfrwt>
<pdfrwt beam="2">  1       -3 0.12861589E+00 0.18794276E+04</pdfrwt>
<totfact> 0.45383325E-01</totfact>
</mgrwt>
</event>
<event>
 8    1  0.1426346E-011  0.1449868E+04  0.7818608E-02  0.8918492E-01
          3   -1    0    0  501    0  0.00000000000E+00  0.00000000000E+00  0.19305335788E+03  0.19305338430E+03  0.10100000000E+00 0.  1.
         -3   -1    0    0    0  501 -0.00000000000E+00 -0.00000000000E+00 -0.27221977057E+04  0.27221977076E+04  0.10100000000E+00 0. -1.
     200001    2    1    2    0    0  0.94361492222E+02 -0.28297211401E+01 -0.91632098754E+03  0.11545378017E+04  0.69598942875E+03 0.  0.
    5000001    2    3    3    0    0  0.11326960156E+03  0.49189822870E+01 -0.27475279356E+03  0.34088719705E+03  0.16691550114E+03 0.  0.
        -11    1    4    4    0    0  0.97200785239E+02  0.17349297999E+02 -0.28631001768E+03  0.30285709008E+03  0.51100000000E-03 0. -1.
     200002    1    4    4    0    0  0.16068816318E+02 -0.12430315712E+02  0.11557224116E+02  0.38030106966E+02  0.30000000000E+02 0. -1.
     200000    1    3    3    0    0 -0.18908109335E+02 -0.77487034271E+01 -0.64156819398E+03  0.81365060470E+03  0.50000000000E+03 0.  1.
    -200001    1    1    2    0    0 -0.94361492222E+02  0.28297211401E+01 -0.16128233603E+04  0.17607132901E+04  0.70000000000E+03 0. -1.
<mgrwt>
<rscale>  0 0.14498682E+04</rscale>
<asrwt>0</asrwt>
<pdfrwt beam="1">  1        3 0.27579055E-01 0.14498682E+04</pdfrwt>
<pdfrwt beam="2">  1       -3 0.38888537E+00 0.14498682E+04</pdfrwt>
<totfact> 0.39990999E-01</totfact>
</mgrwt>
</event>
<event>
 8    1  0.1426346E-011  0.1673392E+04  0.7818608E-02  0.8776687E-01
          3   -1    0    0  501    0  0.00000000000E+00  0.00000000000E+00  0.97653572654E+03  0.97653573176E+03  0.10100000000E+00 0.  1.
         -3   -1    0    0    0  501 -0.00000000000E+00 -0.00000000000E+00 -0.71688086590E+03  0.71688087302E+03  0.10100000000E+00 0. -1.
     200001    2    1    2    0    0 -0.22299417749E+03 -0.30694850347E+03  0.39143596866E+03  0.88637878199E+03  0.69892878079E+03 0.  0.
    5000001    2    3    3    0    0 -0.93633956368E+02 -0.98883281980E+02  0.11086317442E+03  0.26288355661E+03  0.19563205170E+03 0.  0.
        -11    1    4    4    0    0  0.50453700993E+02 -0.51079262183E+02 -0.12259578093E+01  0.71806475626E+02  0.51100000000E-03 0. -1.
     200002    1    4    4    0    0 -0.14408765736E+03 -0.47804019797E+02  0.11208913223E+03  0.19107708098E+03  0.30000000000E+02 0. -1.
     200000    1    3    3    0    0 -0.12936022113E+03 -0.20806522149E+03  0.28057279424E+03  0.62349522538E+03  0.50000000000E+03 0.  1.
    -200001    1    1    2    0    0  0.22299417749E+03  0.30694850347E+03 -0.13178110802E+03  0.80703782279E+03  0.70000000000E+03 0. -1.
<mgrwt>
<rscale>  0 0.16733915E+04</rscale>
<asrwt>0</asrwt>
<pdfrwt beam="1">  1        3 0.13950510E+00 0.16733915E+04</pdfrwt>
<pdfrwt beam="2">  1       -3 0.10241155E+00 0.16733915E+04</pdfrwt>
<totfact> 0.80882580E-01</totfact>
</mgrwt>
</event>
<event>
 8    1  0.1426346E-011  0.1584665E+04  0.7818608E-02  0.8830025E-01
         -3   -1    0    0    0  501 -0.00000000000E+00  0.00000000000E+00  0.28294667348E+04  0.28294667366E+04  0.10100000000E+00 0. -1.
          3   -1    0    0  501    0  0.00000000000E+00 -0.00000000000E+00 -0.22187600299E+03  0.22187602597E+03  0.10100000000E+00 0.  1.
     200001    2    1    2    0    0  0.52573236612E+02 -0.29655844365E+02  0.60218685038E+03  0.92642202477E+03  0.70141667423E+03 0.  0.
    5000001    2    3    3    0    0  0.18942627909E+02  0.14218103658E+02  0.22207124785E+03  0.29591126955E+03  0.19413104518E+03 0.  0.
        -11    1    4    4    0    0  0.93648580433E+02  0.45899427787E+02  0.88558005073E+02  0.13681861844E+03  0.51100000000E-03 0. -1.
     200002    1    4    4    0    0 -0.74705952524E+02 -0.31681324130E+02  0.13351324278E+03  0.15909265111E+03  0.30000000000E+02 0. -1.
     200000    1    3    3    0    0  0.33630608703E+02 -0.43873948023E+02  0.38011560253E+03  0.63051075522E+03  0.50000000000E+03 0.  1.
    -200001    1    1    2    0    0 -0.52573236612E+02  0.29655844365E+02  0.20054038815E+04  0.21249207378E+04  0.70000000000E+03 0. -1.
<mgrwt>
<rscale>  0 0.15846650E+04</rscale>
<asrwt>0</asrwt>
<pdfrwt beam="1">  1        3 0.31696574E-01 0.15846650E+04</pdfrwt>
<pdfrwt beam="2">  1       -3 0.40420953E+00 0.15846650E+04</pdfrwt>
<totfact> 0.24977655E-01</totfact>
</mgrwt>
</event>
<event>
 8    1  0.1426346E-011  0.1980421E+04  0.7818608E-02  0.8615830E-01
          3   -1    0    0  501    0  0.00000000000E+00  0.00000000000E+00  0.35562421045E+04  0.35562421059E+04  0.10100000000E+00 0.  1.
         -3   -1    0    0    0  501 -0.00000000000E+00 -0.00000000000E+00 -0.27571697702E+03  0.27571699552E+03  0.10100000000E+00 0. -1.
     200001    2    1    2    0    0 -0.36322783553E+03 -0.42495411067E+03  0.82458363189E+03  0.12177347258E+04  0.70029939290E+03 0.  0.
    5000001    2    3    3    0    0 -0.23287024354E+03 -0.58965173267E+02  0.30773856488E+03  0.40037933955E+03  0.88854652323E+02 0.  0.
        -11    1    4    4    0    0 -0.16544758361E+03 -0.42858776708E+02  0.15839351211E+03  0.23301991834E+03  0.51100000000E-03 0. -1.
     200002    1    4    4    0    0 -0.67422659933E+02 -0.16106396558E+02  0.14934505276E+03  0.16735942121E+03  0.30000000000E+02 0.  1.
     200000    1    3    3    0    0 -0.13035759198E+03 -0.36598893740E+03  0.51684506701E+03  0.81735538622E+03  0.50000000000E+03 0.  1.
    -200001    1    1    2    0    0  0.36322783553E+03  0.42495411067E+03  0.24559414956E+04  0.26142243757E+04  0.70000000000E+03 0.  1.
<mgrwt>
<rscale>  0 0.19804205E+04</rscale>
<asrwt>0</asrwt>
<pdfrwt beam="1">  1        3 0.50803453E+00 0.19804205E+04</pdfrwt>
<pdfrwt beam="2">  1       -3 0.39388145E-01 0.19804205E+04</pdfrwt>
<totfact> 0.49314396E-02</totfact>
</mgrwt>
</event>
<event>
 8    1  0.1426346E-011  0.1639836E+04  0.7818608E-02  0.8796442E-01
         -3   -1    0    0    0  501 -0.00000000000E+00  0.00000000000E+00  0.15736869919E+04  0.15736869951E+04  0.10100000000E+00 0. -1.
          3   -1    0    0  501    0  0.00000000000E+00 -0.00000000000E+00 -0.42719158375E+03  0.42719159569E+03  0.10100000000E+00 0.  1.
     200001    2    1    2    0    0  0.32965688132E+03 -0.15864686419E+03  0.84146820516E+03  0.11541885168E+04  0.70017133979E+03 0.  0.
    5000001    2    3    3    0    0  0.12636068577E+03 -0.13723019614E+03  0.41256989216E+03  0.46444814556E+03  0.10343603995E+03 0.  0.
        -11    1    4    4    0    0  0.11806894429E+03 -0.13448412598E+03  0.37551406127E+03  0.41597724211E+03  0.51100000000E-03 0. -1.
     200002    1    4    4    0    0  0.82917414802E+01 -0.27460701548E+01  0.37055830889E+02  0.48470903447E+02  0.30000000000E+02 0.  1.
     200000    1    3    3    0    0  0.20329619555E+03 -0.21416668049E+02  0.42889831300E+03  0.68974037122E+03  0.50000000000E+03 0.  1.
    -200001    1    1    2    0    0 -0.32965688132E+03  0.15864686419E+03  0.30502720300E+03  0.84669007405E+03  0.70000000000E+03 0.  1.
<mgrwt>
<rscale>  0 0.16398364E+04</rscale>
<asrwt>0</asrwt>
<pdfrwt beam="1">  1        3 0.61027371E-01 0.16398364E+04</pdfrwt>
<pdfrwt beam="2">  1       -3 0.22481243E+00 0.16398364E+04</pdfrwt>
<totfact> 0.67924910E-01</totfact>
</mgrwt>
</event>
<event>
 8    1  0.1426346E-011  0.1510185E+04  0.7818608E-02  0.8877708E-01
          3   -1    0    0  501    0  0.00000000000E+00  0.00000000000E+00  0.26952214628E+03  0.26952216520E+03  0.10100000000E+00 0. -1.
         -3   -1    0    0    0  501 -0.00000000000E+00 -0.00000000000E+00 -0.21154636483E+04  0.21154636507E+04  0.10100000000E+00 0.  1.
     200001    2    1    2    0    0 -0.21388914398E+03  0.11265400013E+03 -0.69754132526E+03  0.10185076947E+04  0.70167979460E+03 0.  0.
    5000001    2    3    3    0    0  0.65616564949E+02 -0.18480610109E+02 -0.24202813216E+03  0.27499441550E+03  0.11134291739E+03 0.  0.
        -11    1    4    4    0    0  0.81549270320E+02 -0.19356617308E+02 -0.10789744911E+03  0.13662657739E+03  0.51100000000E-03 0. -1.
     200002    1    4    4    0    0 -0.15932705371E+02  0.87600719836E+00 -0.13413068305E+03  0.13836783812E+03  0.30000000000E+02 0. -1.
     200000    1    3    3    0    0 -0.27950570892E+03  0.13113461024E+03 -0.45551319310E+03  0.74351327924E+03  0.50000000000E+03 0. -1.
    -200001    1    1    2    0    0  0.21388914398E+03 -0.11265400013E+03 -0.11484001768E+04  0.13664781212E+04  0.70000000000E+03 0.  1.
<mgrwt>
<rscale>  0 0.15101845E+04</rscale>
<asrwt>0</asrwt>
<pdfrwt beam="1">  1        3 0.38503167E-01 0.15101845E+04</pdfrwt>
<pdfrwt beam="2">  1       -3 0.30220908E+00 0.15101845E+04</pdfrwt>
<totfact> 0.63183613E-01</totfact>
</mgrwt>
</event>
<event>
 8    1  0.1426346E-011  0.2492558E+04  0.7818608E-02  0.8405642E-01
          3   -1    0    0  501    0  0.00000000000E+00  0.00000000000E+00  0.19189738620E+04  0.19189738646E+04  0.10100000000E+00 0. -1.
         -3   -1    0    0    0  501 -0.00000000000E+00 -0.00000000000E+00 -0.80939689260E+03  0.80939689890E+03  0.10100000000E+00 0.  1.
     200001    2    1    2    0    0  0.69089699878E+03 -0.50930662323E+03 -0.70363923945E+02  0.11100406331E+04  0.70036221052E+03 0.  0.
    5000001    2    3    3    0    0  0.10797357047E+03 -0.85440601002E+02 -0.80235475878E+01  0.23063830730E+03  0.18485470851E+03 0.  0.
        -11    1    4    4    0    0  0.10998947363E+03 -0.52096547531E+01 -0.64883973885E+02  0.12780749149E+03  0.51100000000E-03 0. -1.
     200002    1    4    4    0    0 -0.20159031675E+01 -0.80230946249E+02  0.56860426297E+02  0.10283081581E+03  0.30000000000E+02 0. -1.
     200000    1    3    3    0    0  0.58292342831E+03 -0.42386602223E+03 -0.62340376358E+02  0.87940232579E+03  0.50000000000E+03 0. -1.
    -200001    1    1    2    0    0 -0.69089699878E+03  0.50930662323E+03  0.11799408933E+04  0.16183301305E+04  0.70000000000E+03 0.  1.
<mgrwt>
<rscale>  0 0.24925581E+04</rscale>
<asrwt>0</asrwt>
<pdfrwt beam="1">  1        3 0.27413913E+00 0.24925581E+04</pdfrwt>
<pdfrwt beam="2">  1       -3 0.11562813E+00 0.24925581E+04</pdfrwt>
<totfact> 0.78190642E-02</totfact>
</mgrwt>
</event>
<event>
 8    1  0.1426346E-011  0.1414316E+04  0.7818608E-02  0.8943520E-01
         -3   -1    0    0    0  501 -0.00000000000E+00  0.00000000000E+00  0.92317261966E+03  0.92317262519E+03  0.10100000000E+00 0. -1.
          3   -1    0    0  501    0  0.00000000000E+00 -0.00000000000E+00 -0.54168920449E+03  0.54168921391E+03  0.10100000000E+00 0.  1.
     200001    2    1    2    0    0  0.46497784067E+01  0.69103273364E+02  0.23241977285E+03  0.74582299989E+03  0.70529150961E+03 0.  0.
    5000001    2    3    3    0    0  0.27756548474E+02 -0.54498337652E+00 -0.33462324271E+02  0.17479052090E+03  0.16929641479E+03 0.  0.
        -11    1    4    4    0    0  0.87996381109E+02  0.87765786261E+01  0.17138272825E+02  0.90078364862E+02  0.51100000000E-03 0. -1.
     200002    1    4    4    0    0 -0.60239832635E+02 -0.93215620026E+01 -0.50600597096E+02  0.84712156038E+02  0.30000000000E+02 0. -1.
     200000    1    3    3    0    0 -0.23106770067E+02  0.69648256740E+02  0.26588209712E+03  0.57103247899E+03  0.50000000000E+03 0. -1.
    -200001    1    1    2    0    0 -0.46497784067E+01 -0.69103273364E+02  0.14906364232E+03  0.71903883921E+03  0.70000000000E+03 0. -1.
<mgrwt>
<rscale>  0 0.14143163E+04</rscale>
<asrwt>0</asrwt>
<pdfrwt beam="1">  1        3 0.77384174E-01 0.14143163E+04</pdfrwt>
<pdfrwt beam="2">  1       -3 0.13188180E+00 0.14143163E+04</pdfrwt>
<totfact> 0.17961100E+00</totfact>
</mgrwt>
</event>
<event>
 8    1  0.1426346E-011  0.1483472E+04  0.7818608E-02  0.8895519E-01
         -3   -1    0    0    0  501 -0.00000000000E+00  0.00000000000E+00  0.19797382427E+04  0.19797382452E+04  0.10100000000E+00 0. -1.
          3   -1    0    0  501    0  0.00000000000E+00 -0.00000000000E+00 -0.27790150260E+03  0.27790152095E+03  0.10100000000E+00 0.  1.
     200001    2    1    2    0    0  0.22778948259E+03 -0.88771633834E+02  0.90044182013E+03  0.11658512019E+04  0.69903154596E+03 0.  0.
    5000001    2    3    3    0    0 -0.64662454359E+02 -0.55033541073E+02  0.33574611561E+03  0.35619224099E+03  0.83291864829E+02 0.  0.
        -11    1    4    4    0    0  0.70307169697E+01 -0.15829282614E+02  0.15073770453E+03  0.15172953811E+03  0.51100000000E-03 0. -1.
     200002    1    4    4    0    0 -0.71693171329E+02 -0.39204258459E+02  0.18500841108E+03  0.20446270288E+03  0.30000000000E+02 0. -1.
     200000    1    3    3    0    0  0.29245193695E+03 -0.33738092761E+02  0.56469570453E+03  0.80965896095E+03  0.50000000000E+03 0.  1.
    -200001    1    1    2    0    0 -0.22778948259E+03  0.88771633834E+02  0.80139491993E+03  0.10917885643E+04  0.70000000000E+03 0.  1.
<mgrwt>
<rscale>  0 0.14834719E+04</rscale>
<asrwt>0</asrwt>
<pdfrwt beam="1">  1        3 0.39700216E-01 0.14834719E+04</pdfrwt>
<pdfrwt beam="2">  1       -3 0.28281975E+00 0.14834719E+04</pdfrwt>
<totfact> 0.76542141E-01</totfact>
</mgrwt>
</event>
<event>
 8    1  0.1426346E-011  0.1452406E+04  0.7818608E-02  0.8916734E-01
         -3   -1    0    0    0  501 -0.00000000000E+00  0.00000000000E+00  0.46066529160E+03  0.46066530267E+03  0.10100000000E+00 0. -1.
          3   -1    0    0  501    0  0.00000000000E+00 -0.00000000000E+00 -0.11448019018E+04  0.11448019062E+04  0.10100000000E+00 0.  1.
     200001    2    1    2    0    0  0.23248454075E+02 -0.88440402877E+02 -0.53144284333E+03  0.88319469668E+03  0.69945634677E+03 0.  0.
    5000001    2    3    3    0    0  0.90853368383E+02 -0.12499279199E+03 -0.57824993856E+02  0.19021535433E+03  0.94660543585E+02 0.  0.
        -11    1    4    4    0    0  0.81613051394E+02 -0.11693260210E+03 -0.65482930799E+02  0.15691379104E+03  0.51100000000E-03 0. -1.
     200002    1    4    4    0    0  0.92403169886E+01 -0.80601898833E+01  0.76579369429E+01  0.33301563285E+02  0.30000000000E+02 0. -1.
     200000    1    3    3    0    0 -0.67604914307E+02  0.36552389111E+02 -0.47361784948E+03  0.69297934236E+03  0.50000000000E+03 0.  1.
    -200001    1    1    2    0    0 -0.23248454075E+02  0.88440402877E+02 -0.15269376684E+03  0.72227251222E+03  0.70000000000E+03 0. -1.
<mgrwt>
<rscale>  0 0.14524056E+04</rscale>
<asrwt>0</asrwt>
<pdfrwt beam="1">  1        3 0.16354313E+00 0.14524056E+04</pdfrwt>
<pdfrwt beam="2">  1       -3 0.65809329E-01 0.14524056E+04</pdfrwt>
<totfact> 0.14676644E+00</totfact>
</mgrwt>
</event>
<event>
 8    1  0.1426346E-011  0.2272716E+04  0.7818608E-02  0.8488757E-01
          3   -1    0    0  501    0  0.00000000000E+00  0.00000000000E+00  0.14685916973E+04  0.14685917007E+04  0.10100000000E+00 0. -1.
         -3   -1    0    0    0  501 -0.00000000000E+00 -0.00000000000E+00 -0.87928418281E+03  0.87928418861E+03  0.10100000000E+00 0.  1.
     200001    2    1    2    0    0  0.53070208999E+03  0.71306983505E+03  0.18536423890E+03  0.11465085567E+04  0.70000619401E+03 0.  0.
    5000001    2    3    3    0    0  0.14253231473E+03  0.23458455908E+03  0.10068892242E+03  0.34851492083E+03  0.18968135080E+03 0.  0.
        -11    1    4    4    0    0  0.10735193366E+03  0.10658029678E+03 -0.36134173772E+02  0.15552966224E+03  0.51100000000E-03 0. -1.
     200002    1    4    4    0    0  0.35180381068E+02  0.12800426231E+03  0.13682309620E+03  0.19298525859E+03  0.30000000000E+02 0. -1.
     200000    1    3    3    0    0  0.38816977526E+03  0.47848527596E+03  0.84675316480E+02  0.79799363592E+03  0.50000000000E+03 0. -1.
    -200001    1    1    2    0    0 -0.53070208999E+03 -0.71306983505E+03  0.40394327555E+03  0.12013673326E+04  0.70000000000E+03 0.  1.
<mgrwt>
<rscale>  0 0.22727160E+04</rscale>
<asrwt>0</asrwt>
<pdfrwt beam="1">  1        3 0.20979882E+00 0.22727160E+04</pdfrwt>
<pdfrwt beam="2">  1       -3 0.12561203E+00 0.22727160E+04</pdfrwt>
<totfact> 0.15461605E-01</totfact>
</mgrwt>
</event>
<event>
 8    1  0.1426346E-011  0.1957360E+04  0.7818608E-02  0.8626820E-01
          3   -1    0    0  501    0  0.00000000000E+00  0.00000000000E+00  0.69167362875E+03  0.69167363613E+03  0.10100000000E+00 0.  1.
         -3   -1    0    0    0  501 -0.00000000000E+00 -0.00000000000E+00 -0.13847776077E+04  0.13847776114E+04  0.10100000000E+00 0. -1.
     200001    2    1    2    0    0  0.62319489744E+03  0.26184056983E+03 -0.23280269829E+03  0.99997104185E+03  0.69915135986E+03 0.  0.
    5000001    2    3    3    0    0  0.22450946571E+03  0.14315312465E+03 -0.14100793658E+02  0.31377332529E+03  0.16540117893E+03 0.  0.
        -11    1    4    4    0    0  0.15582057120E+03  0.49863229200E+01 -0.14615902057E+02  0.15658396603E+03  0.51100000000E-03 0. -1.
     200002    1    4    4    0    0  0.68688894519E+02  0.13816680173E+03  0.51510839865E+00  0.15718935927E+03  0.30000000000E+02 0.  1.
     200000    1    3    3    0    0  0.39868543173E+03  0.11868744518E+03 -0.21870190464E+03  0.68619771656E+03  0.50000000000E+03 0. -1.
    -200001    1    1    2    0    0 -0.62319489744E+03 -0.26184056983E+03 -0.46030128064E+03  0.10764802057E+04  0.70000000000E+03 0. -1.
<mgrwt>
<rscale>  0 0.19573596E+04</rscale>
<asrwt>0</asrwt>
<pdfrwt beam="1">  1        3 0.98810520E-01 0.19573596E+04</pdfrwt>
<pdfrwt beam="2">  1       -3 0.19782537E+00 0.19573596E+04</pdfrwt>
<totfact> 0.33378952E-01</totfact>
</mgrwt>
</event>
<event>
 8    1  0.1426346E-011  0.1644701E+04  0.7818608E-02  0.8793547E-01
          3   -1    0    0  501    0  0.00000000000E+00  0.00000000000E+00  0.84485539228E+03  0.84485539832E+03  0.10100000000E+00 0.  1.
         -3   -1    0    0    0  501 -0.00000000000E+00 -0.00000000000E+00 -0.80044507939E+03  0.80044508577E+03  0.10100000000E+00 0. -1.
     200001    2    1    2    0    0 -0.35363109869E+03 -0.24581719412E+03  0.76937101071E+01  0.82260421218E+03  0.70081199322E+03 0.  0.
    5000001    2    3    3    0    0 -0.46936011653E+02 -0.55368314977E+02  0.70603761509E+01  0.20589272932E+03  0.19254435225E+03 0.  0.
        -11    1    4    4    0    0  0.67226458458E+02  0.60555776745E+01  0.24251440454E+02  0.71723072314E+02  0.51100000000E-03 0. -1.
     200002    1    4    4    0    0 -0.11416247011E+03 -0.61423892652E+02 -0.17191064303E+02  0.13416965701E+03  0.30000000000E+02 0. -1.
     200000    1    3    3    0    0 -0.30669508703E+03 -0.19044887914E+03  0.63333395616E+00  0.61671148286E+03  0.50000000000E+03 0. -1.
    -200001    1    1    2    0    0  0.35363109869E+03  0.24581719412E+03  0.36716602779E+02  0.82269627190E+03  0.70000000000E+03 0.  1.
<mgrwt>
<rscale>  0 0.16447010E+04</rscale>
<asrwt>0</asrwt>
<pdfrwt beam="1">  1        3 0.12069363E+00 0.16447010E+04</pdfrwt>
<pdfrwt beam="2">  1       -3 0.11434930E+00 0.16447010E+04</pdfrwt>
<totfact> 0.89365203E-01</totfact>
</mgrwt>
</event>
<event>
 8    1  0.1426346E-011  0.1609150E+04  0.7818608E-02  0.8814947E-01
          3   -1    0    0  501    0  0.00000000000E+00  0.00000000000E+00  0.47058712080E+03  0.47058713164E+03  0.10100000000E+00 0.  1.
         -3   -1    0    0    0  501 -0.00000000000E+00 -0.00000000000E+00 -0.13756020773E+04  0.13756020810E+04  0.10100000000E+00 0. -1.
     200001    2    1    2    0    0  0.25347005199E+03 -0.11709081912E+03 -0.77579518406E+03  0.10815618022E+04  0.69997174032E+03 0.  0.
    5000001    2    3    3    0    0  0.13028903763E+03 -0.65900547529E+02 -0.11768754802E+03  0.24436429458E+03  0.15666982484E+03 0.  0.
        -11    1    4    4    0    0  0.36587344259E+01  0.37143032099E+01 -0.94884495421E+02  0.95027626812E+02  0.51100000000E-03 0. -1.
     200002    1    4    4    0    0  0.12663030320E+03 -0.69614850739E+02 -0.22803052603E+02  0.14933666777E+03  0.30000000000E+02 0. -1.
     200000    1    3    3    0    0  0.12318101436E+03 -0.51190271587E+02 -0.65810763604E+03  0.83719750765E+03  0.50000000000E+03 0. -1.
    -200001    1    1    2    0    0 -0.25347005199E+03  0.11709081912E+03 -0.12921977243E+03  0.76462741042E+03  0.70000000000E+03 0.  1.
<mgrwt>
<rscale>  0 0.16091496E+04</rscale>
<asrwt>0</asrwt>
<pdfrwt beam="1">  1        3 0.67226733E-01 0.16091496E+04</pdfrwt>
<pdfrwt beam="2">  1       -3 0.19651458E+00 0.16091496E+04</pdfrwt>
<totfact> 0.82847711E-01</totfact>
</mgrwt>
</event>
<event>
 8    1  0.1426346E-011  0.1687573E+04  0.7818608E-02  0.8768484E-01
          3   -1    0    0  501    0  0.00000000000E+00  0.00000000000E+00  0.34266564701E+04  0.34266564715E+04  0.10100000000E+00 0. -1.
         -3   -1    0    0    0  501 -0.00000000000E+00 -0.00000000000E+00 -0.20777548490E+03  0.20777550945E+03  0.10100000000E+00 0.  1.
     200001    2    1    2    0    0  0.41858462995E+03 -0.74102153779E+02  0.11715536361E+04  0.14293801685E+04  0.69991822539E+03 0.  0.
    5000001    2    3    3    0    0  0.52483803373E+02 -0.74986403234E+02  0.16360969402E+03  0.24617199261E+03  0.15954625562E+03 0.  0.
        -11    1    4    4    0    0  0.15117472146E+02 -0.85491263371E+02  0.13014133805E+02  0.87787594544E+02  0.51100000000E-03 0. -1.
     200002    1    4    4    0    0  0.37366331228E+02  0.10504860136E+02  0.15059556021E+03  0.15838439807E+03  0.30000000000E+02 0. -1.
     200000    1    3    3    0    0  0.36610082657E+03  0.88424945534E+00  0.10079439421E+04  0.11832081759E+04  0.50000000000E+03 0.  1.
    -200001    1    1    2    0    0 -0.41858462995E+03  0.74102153779E+02  0.20473273490E+04  0.22050518125E+04  0.70000000000E+03 0. -1.
<mgrwt>
<rscale>  0 0.16875725E+04</rscale>
<asrwt>0</asrwt>
<pdfrwt beam="1">  1        3 0.48952235E+00 0.16875725E+04</pdfrwt>
<pdfrwt beam="2">  1       -3 0.29682214E-01 0.16875725E+04</pdfrwt>
<totfact> 0.10804336E-01</totfact>
</mgrwt>
</event>
<event>
 8    1  0.1426346E-011  0.1409773E+04  0.7818608E-02  0.8946775E-01
         -3   -1    0    0    0  501 -0.00000000000E+00  0.00000000000E+00  0.81240480058E+03  0.81240480686E+03  0.10100000000E+00 0. -1.
          3   -1    0    0  501    0  0.00000000000E+00 -0.00000000000E+00 -0.61159738498E+03  0.61159739332E+03  0.10100000000E+00 0.  1.
     200001    2    1    2    0    0 -0.59645855944E+02  0.28558953848E+02  0.51172572352E+02  0.70513932849E+03  0.70016397969E+03 0.  0.
    5000001    2    3    3    0    0 -0.28419696854E+02 -0.37401543225E+02  0.89007585116E+02  0.19842703500E+03  0.17100989272E+03 0.  0.
        -11    1    4    4    0    0  0.16262501255E+02  0.98755498132E+01  0.11918553489E+03  0.12069460286E+03  0.51100000000E-03 0. -1.
     200002    1    4    4    0    0 -0.44682198109E+02 -0.47277093039E+02 -0.30177949778E+02  0.77732432143E+02  0.30000000000E+02 0. -1.
     200000    1    3    3    0    0 -0.31226159091E+02  0.65960497073E+02 -0.37835012764E+02  0.50671229349E+03  0.50000000000E+03 0.  1.
    -200001    1    1    2    0    0  0.59645855944E+02 -0.28558953848E+02  0.14963484325E+03  0.71886287169E+03  0.70000000000E+03 0. -1.
<mgrwt>
<rscale>  0 0.14097726E+04</rscale>
<asrwt>0</asrwt>
<pdfrwt beam="1">  1        3 0.87371055E-01 0.14097726E+04</pdfrwt>
<pdfrwt beam="2">  1       -3 0.11605783E+00 0.14097726E+04</pdfrwt>
<totfact> 0.18749284E+00</totfact>
</mgrwt>
</event>
<event>
 8    1  0.1426346E-011  0.1742062E+04  0.7818608E-02  0.8737732E-01
         -3   -1    0    0    0  501 -0.00000000000E+00  0.00000000000E+00  0.68139395029E+03  0.68139395778E+03  0.10100000000E+00 0.  1.
          3   -1    0    0  501    0  0.00000000000E+00 -0.00000000000E+00 -0.11134454246E+04  0.11134454292E+04  0.10100000000E+00 0. -1.
     200001    2    1    2    0    0  0.11471638359E+02  0.41020382356E+03 -0.54221175303E+03  0.97597794427E+03  0.70010041224E+03 0.  0.
    5000001    2    3    3    0    0  0.44451254630E+02  0.18614841855E+03 -0.15417020975E+03  0.30376910848E+03  0.17854990877E+03 0.  0.
        -11    1    4    4    0    0  0.94400312920E+02  0.14134201245E+03 -0.15533755658E+03  0.23025798585E+03  0.51100000000E-03 0. -1.
     200002    1    4    4    0    0 -0.49949058290E+02  0.44806406104E+02  0.11673468258E+01  0.73511122632E+02  0.30000000000E+02 0. -1.
     200000    1    3    3    0    0 -0.32979616272E+02  0.22405540501E+03 -0.38804154328E+03  0.67220883579E+03  0.50000000000E+03 0. -1.
    -200001    1    1    2    0    0 -0.11471638359E+02 -0.41020382356E+03  0.11016027871E+03  0.81886144271E+03  0.70000000000E+03 0.  1.
<mgrwt>
<rscale>  0 0.17420620E+04</rscale>
<asrwt>0</asrwt>
<pdfrwt beam="1">  1        3 0.15906363E+00 0.17420620E+04</pdfrwt>
<pdfrwt beam="2">  1       -3 0.97341994E-01 0.17420620E+04</pdfrwt>
<totfact> 0.64506346E-01</totfact>
</mgrwt>
</event>
<event>
 8    1  0.1426346E-011  0.2521065E+04  0.7818608E-02  0.8395519E-01
         -3   -1    0    0    0  501 -0.00000000000E+00  0.00000000000E+00  0.59025961708E+03  0.59025962572E+03  0.10100000000E+00 0. -1.
          3   -1    0    0  501    0  0.00000000000E+00 -0.00000000000E+00 -0.26919380734E+04  0.26919380753E+04  0.10100000000E+00 0.  1.
     200001    2    1    2    0    0  0.39598114783E+03 -0.33411271631E+03  0.13655189690E+03  0.88050923439E+03  0.69872577930E+03 0.  0.
    5000001    2    3    3    0    0  0.39772822827E+02 -0.13924441060E+03  0.30049616587E+01  0.22271533712E+03  0.16918099266E+03 0.  0.
        -11    1    4    4    0    0 -0.16057288578E+02 -0.10339234019E+03 -0.64919653776E+02  0.12313559182E+03  0.51100000000E-03 0. -1.
     200002    1    4    4    0    0  0.55830111404E+02 -0.35852070407E+02  0.67924615434E+02  0.99579745299E+02  0.30000000000E+02 0. -1.
     200000    1    3    3    0    0  0.35620832501E+03 -0.19486830571E+03  0.13354693524E+03  0.65779389727E+03  0.50000000000E+03 0. -1.
    -200001    1    1    2    0    0 -0.39598114783E+03  0.33411271631E+03 -0.22382303532E+04  0.24016884666E+04  0.70000000000E+03 0.  1.
<mgrwt>
<rscale>  0 0.25210651E+04</rscale>
<asrwt>0</asrwt>
<pdfrwt beam="1">  1        3 0.38456257E+00 0.25210651E+04</pdfrwt>
<pdfrwt beam="2">  1       -3 0.84322805E-01 0.25210651E+04</pdfrwt>
<totfact> 0.40655962E-02</totfact>
</mgrwt>
</event>
<event>
 8    1  0.1426346E-011  0.1770976E+04  0.7818608E-02  0.8721888E-01
         -3   -1    0    0    0  501 -0.00000000000E+00  0.00000000000E+00  0.93332576053E+03  0.93332576600E+03  0.10100000000E+00 0. -1.
          3   -1    0    0  501    0  0.00000000000E+00 -0.00000000000E+00 -0.84010184882E+03  0.84010185489E+03  0.10100000000E+00 0.  1.
     200001    2    1    2    0    0 -0.30097417449E+03 -0.41994273512E+03 -0.11703909028E+03  0.87835897297E+03  0.70062756315E+03 0.  0.
    5000001    2    3    3    0    0 -0.13067556674E+03 -0.12472627015E+03 -0.41764148867E+02  0.26858795546E+03  0.19432575608E+03 0.  0.
        -11    1    4    4    0    0 -0.15860394291E+03 -0.29649586526E+02 -0.32920005601E+02  0.16467554602E+03  0.51100000000E-03 0. -1.
     200002    1    4    4    0    0  0.27928376170E+02 -0.95076683626E+02 -0.88441432656E+01  0.10391240944E+03  0.30000000000E+02 0. -1.
     200000    1    3    3    0    0 -0.17029860775E+03 -0.29521646497E+03 -0.75274941414E+02  0.60977101751E+03  0.50000000000E+03 0.  1.
    -200001    1    1    2    0    0  0.30097417449E+03  0.41994273512E+03  0.21026300199E+03  0.89506864792E+03  0.70000000000E+03 0. -1.
<mgrwt>
<rscale>  0 0.17709757E+04</rscale>
<asrwt>0</asrwt>
<pdfrwt beam="1">  1        3 0.12001455E+00 0.17709757E+04</pdfrwt>
<pdfrwt beam="2">  1       -3 0.13333225E+00 0.17709757E+04</pdfrwt>
<totfact> 0.61504913E-01</totfact>
</mgrwt>
</event>
<event>
 8    1  0.1426346E-011  0.3103339E+04  0.7818608E-02  0.8214822E-01
          3   -1    0    0  501    0  0.00000000000E+00  0.00000000000E+00  0.22408532350E+04  0.22408532372E+04  0.10100000000E+00 0.  1.
         -3   -1    0    0    0  501 -0.00000000000E+00 -0.00000000000E+00 -0.10744468206E+04  0.10744468254E+04  0.10100000000E+00 0. -1.
     200001    2    1    2    0    0  0.29727638333E+03 -0.11352299595E+04  0.13682004397E+04  0.19340538363E+04  0.70105027602E+03 0.  0.
    5000001    2    3    3    0    0 -0.59555885807E+02 -0.18139389082E+03  0.19710807925E+03  0.30353556566E+03  0.12973664691E+03 0.  0.
        -11    1    4    4    0    0 -0.66223614431E+02 -0.61880909962E+02  0.29329448309E+02  0.95262955363E+02  0.51100000000E-03 0. -1.
     200002    1    4    4    0    0  0.66677286242E+01 -0.11951298086E+03  0.16777863094E+03  0.20827261030E+03  0.30000000000E+02 0. -1.
     200000    1    3    3    0    0  0.35683226914E+03 -0.95383606869E+03  0.11710923604E+04  0.16305182706E+04  0.50000000000E+03 0.  1.
    -200001    1    1    2    0    0 -0.29727638333E+03  0.11352299595E+04 -0.20179402538E+03  0.13812462263E+04  0.70000000000E+03 0. -1.
<mgrwt>
<rscale>  0 0.31033386E+04</rscale>
<asrwt>0</asrwt>
<pdfrwt beam="1">  1        3 0.32012188E+00 0.31033386E+04</pdfrwt>
<pdfrwt beam="2">  1       -3 0.15349241E+00 0.31033386E+04</pdfrwt>
<totfact> 0.20272709E-02</totfact>
</mgrwt>
</event>
<event>
 8    1  0.1426346E-011  0.1430651E+04  0.7818608E-02  0.8931926E-01
         -3   -1    0    0    0  501 -0.00000000000E+00  0.00000000000E+00  0.14482355908E+04  0.14482355944E+04  0.10100000000E+00 0. -1.
          3   -1    0    0  501    0  0.00000000000E+00 -0.00000000000E+00 -0.35331975959E+03  0.35331977402E+03  0.10100000000E+00 0.  1.
     200001    2    1    2    0    0 -0.97621005333E+02  0.97875959480E+02  0.60943397434E+03  0.93853613481E+03  0.70023620526E+03 0.  0.
    5000001    2    3    3    0    0  0.82919273521E+02  0.99738041384E+01  0.20100669144E+03  0.26241896552E+03  0.14657742244E+03 0.  0.
        -11    1    4    4    0    0  0.11618458213E+03  0.10832285843E+02  0.10716889212E+03  0.15843410927E+03  0.51100000000E-03 0. -1.
     200002    1    4    4    0    0 -0.33265308610E+02 -0.85848170459E+00  0.93837799321E+02  0.10398485625E+03  0.30000000000E+02 0. -1.
     200000    1    3    3    0    0 -0.18054027885E+03  0.87902155342E+02  0.40842728290E+03  0.67611716930E+03  0.50000000000E+03 0.  1.
    -200001    1    1    2    0    0  0.97621005333E+02 -0.97875959480E+02  0.48548185693E+03  0.86301923358E+03  0.70000000000E+03 0.  1.
<mgrwt>
<rscale>  0 0.14306506E+04</rscale>
<asrwt>0</asrwt>
<pdfrwt beam="1">  1        3 0.50474253E-01 0.14306506E+04</pdfrwt>
<pdfrwt beam="2">  1       -3 0.20689080E+00 0.14306506E+04</pdfrwt>
<totfact> 0.13193423E+00</totfact>
</mgrwt>
</event>
<event>
 8    1  0.1426346E-011  0.1515533E+04  0.7818608E-02  0.8874189E-01
          3   -1    0    0  501    0  0.00000000000E+00  0.00000000000E+00  0.29658190360E+03  0.29658192080E+03  0.10100000000E+00 0.  1.
         -3   -1    0    0    0  501 -0.00000000000E+00 -0.00000000000E+00 -0.19360934979E+04  0.19360935006E+04  0.10100000000E+00 0. -1.
     200001    2    1    2    0    0 -0.14507728224E+03 -0.23868088253E+03 -0.93537768160E+03  0.12012586537E+04  0.70005354397E+03 0.  0.
    5000001    2    3    3    0    0 -0.14485115800E+02 -0.12457569110E+03 -0.37010854091E+03  0.42691795994E+03  0.17190023580E+03 0.  0.
        -11    1    4    4    0    0 -0.53121161038E+02 -0.90206666327E+02 -0.82847538583E+02  0.13350211627E+03  0.51100000000E-03 0. -1.
     200002    1    4    4    0    0  0.38636045238E+02 -0.34369024777E+02 -0.28726100233E+03  0.29341584367E+03  0.30000000000E+02 0. -1.
     200000    1    3    3    0    0 -0.13059216644E+03 -0.11410519142E+03 -0.56526914069E+03  0.77434069379E+03  0.50000000000E+03 0. -1.
    -200001    1    1    2    0    0  0.14507728224E+03  0.23868088253E+03 -0.70413391274E+03  0.10314167676E+04  0.70000000000E+03 0. -1.
<mgrwt>
<rscale>  0 0.15155333E+04</rscale>
<asrwt>0</asrwt>
<pdfrwt beam="1">  1        3 0.42368846E-01 0.15155333E+04</pdfrwt>
<pdfrwt beam="2">  1       -3 0.27658478E+00 0.15155333E+04</pdfrwt>
<totfact> 0.72742202E-01</totfact>
</mgrwt>
</event>
<event>
 8    1  0.1426346E-011  0.1718867E+04  0.7818608E-02  0.8750677E-01
          3   -1    0    0  501    0  0.00000000000E+00  0.00000000000E+00  0.12439320528E+04  0.12439320569E+04  0.10100000000E+00 0.  1.
         -3   -1    0    0    0  501 -0.00000000000E+00 -0.00000000000E+00 -0.59378301125E+03  0.59378301984E+03  0.10100000000E+00 0. -1.
     200001    2    1    2    0    0 -0.30616306229E+03 -0.10746559373E+03 -0.79174789850E+02  0.77601929849E+03  0.70046600898E+03 0.  0.
    5000001    2    3    3    0    0 -0.11943519432E+03 -0.14422235187E+02  0.68049105237E+02  0.21459322274E+03  0.16415481720E+03 0.  0.
        -11    1    4    4    0    0 -0.14589933046E+03 -0.36840430457E+02  0.75131143562E+02  0.16819191621E+03  0.51100000000E-03 0. -1.
     200002    1    4    4    0    0  0.26464136139E+02  0.22418195271E+02 -0.70820383244E+01  0.46401306529E+02  0.30000000000E+02 0. -1.
     200000    1    3    3    0    0 -0.18672786796E+03 -0.93043358547E+02 -0.14722389509E+03  0.56142607575E+03  0.50000000000E+03 0. -1.
    -200001    1    1    2    0    0  0.30616306229E+03  0.10746559373E+03  0.72932383144E+03  0.10616957783E+04  0.70000000000E+03 0.  1.
<mgrwt>
<rscale>  0 0.17188668E+04</rscale>
<asrwt>0</asrwt>
<pdfrwt beam="1">  1        3 0.17770458E+00 0.17188668E+04</pdfrwt>
<pdfrwt beam="2">  1       -3 0.84826145E-01 0.17188668E+04</pdfrwt>
<totfact> 0.65658552E-01</totfact>
</mgrwt>
</event>
<event>
 8    1  0.1426346E-011  0.1785861E+04  0.7818608E-02  0.8713855E-01
         -3   -1    0    0    0  501 -0.00000000000E+00  0.00000000000E+00  0.12127094727E+04  0.12127094769E+04  0.10100000000E+00 0. -1.
          3   -1    0    0  501    0  0.00000000000E+00 -0.00000000000E+00 -0.65747391955E+03  0.65747392731E+03  0.10100000000E+00 0.  1.
     200001    2    1    2    0    0 -0.10586799533E+03  0.21240215459E+03 -0.24748614971E+03  0.77899834202E+03  0.69947574287E+03 0.  0.
    5000001    2    3    3    0    0 -0.74094021088E+02  0.81307330515E+02 -0.13132920339E+03  0.24825558463E+03  0.17967378686E+03 0.  0.
        -11    1    4    4    0    0  0.36931492156E+02 -0.31471879564E+02 -0.41345526788E+02  0.63748465878E+02  0.51100000000E-03 0. -1.
     200002    1    4    4    0    0 -0.11102551324E+03  0.11277921008E+03 -0.89983676599E+02  0.18450711876E+03  0.30000000000E+02 0. -1.
     200000    1    3    3    0    0 -0.31773974237E+02  0.13109482407E+03 -0.11615694632E+03  0.53074275738E+03  0.50000000000E+03 0.  1.
    -200001    1    1    2    0    0  0.10586799533E+03 -0.21240215459E+03  0.80272170286E+03  0.10911850622E+04  0.70000000000E+03 0. -1.
<mgrwt>
<rscale>  0 0.17858610E+04</rscale>
<asrwt>0</asrwt>
<pdfrwt beam="1">  1        3 0.93924847E-01 0.17858610E+04</pdfrwt>
<pdfrwt beam="2">  1       -3 0.17324421E+00 0.17858610E+04</pdfrwt>
<totfact> 0.55323674E-01</totfact>
</mgrwt>
</event>
<event>
 8    1  0.1426346E-011  0.1567763E+04  0.7818608E-02  0.8840601E-01
         -3   -1    0    0    0  501 -0.00000000000E+00  0.00000000000E+00  0.14216505288E+04  0.14216505324E+04  0.10100000000E+00 0. -1.
          3   -1    0    0  501    0  0.00000000000E+00 -0.00000000000E+00 -0.43222312360E+03  0.43222313540E+03  0.10100000000E+00 0.  1.
     200001    2    1    2    0    0  0.97150367425E+02 -0.12861981746E+03  0.12358328612E+03  0.72885487244E+03  0.69998238916E+03 0.  0.
    5000001    2    3    3    0    0 -0.60719983014E+02 -0.52488984138E+01  0.48698871987E+02  0.18502483769E+03  0.16777408369E+03 0.  0.
        -11    1    4    4    0    0 -0.71714217259E+02  0.73389080807E+01 -0.45170097584E+02  0.85071300947E+02  0.51100000000E-03 0. -1.
     200002    1    4    4    0    0  0.10994234245E+02 -0.12587806494E+02  0.93868969572E+02  0.99953536743E+02  0.30000000000E+02 0. -1.
     200000    1    3    3    0    0  0.15787035044E+03 -0.12337091905E+03  0.74884414131E+02  0.54383003475E+03  0.50000000000E+03 0.  1.
    -200001    1    1    2    0    0 -0.97150367425E+02  0.12861981746E+03  0.86584411904E+03  0.11250187953E+04  0.70000000000E+03 0. -1.
<mgrwt>
<rscale>  0 0.15677631E+04</rscale>
<asrwt>0</asrwt>
<pdfrwt beam="1">  1        3 0.61746161E-01 0.15677631E+04</pdfrwt>
<pdfrwt beam="2">  1       -3 0.20309294E+00 0.15677631E+04</pdfrwt>
<totfact> 0.90568897E-01</totfact>
</mgrwt>
</event>
<event>
 8    1  0.1426346E-011  0.1535822E+04  0.7818608E-02  0.8860975E-01
          3   -1    0    0  501    0  0.00000000000E+00  0.00000000000E+00  0.71703320386E+03  0.71703321097E+03  0.10100000000E+00 0. -1.
         -3   -1    0    0    0  501 -0.00000000000E+00 -0.00000000000E+00 -0.82239927496E+03  0.82239928117E+03  0.10100000000E+00 0.  1.
     200001    2    1    2    0    0  0.22004952469E+03  0.14358496302E+02  0.17952778500E+03  0.75216349810E+03  0.69634168520E+03 0.  0.
    5000001    2    3    3    0    0 -0.24454763933E+02 -0.88241790858E+02 -0.20756864742E+01  0.15778231827E+03  0.12847685531E+03 0.  0.
        -11    1    4    4    0    0 -0.34783275150E+02 -0.32159823018E+01 -0.45347075964E+02  0.57241384252E+02  0.51100000000E-03 0. -1.
     200002    1    4    4    0    0  0.10328511216E+02 -0.85025808556E+02  0.43271389490E+02  0.10054093402E+03  0.30000000000E+02 0. -1.
     200000    1    3    3    0    0  0.24450428863E+03  0.10260028716E+03  0.18160347147E+03  0.59438117983E+03  0.50000000000E+03 0.  1.
    -200001    1    1    2    0    0 -0.22004952469E+03 -0.14358496302E+02 -0.28489385611E+03  0.78726899404E+03  0.70000000000E+03 0.  1.
<mgrwt>
<rscale>  0 0.15358224E+04</rscale>
<asrwt>0</asrwt>
<pdfrwt beam="1">  1        3 0.10243332E+00 0.15358224E+04</pdfrwt>
<pdfrwt beam="2">  1       -3 0.11748561E+00 0.15358224E+04</pdfrwt>
<totfact> 0.12497595E+00</totfact>
</mgrwt>
</event>
<event>
 8    1  0.1426346E-011  0.1674905E+04  0.7818608E-02  0.8775808E-01
         -3   -1    0    0    0  501 -0.00000000000E+00  0.00000000000E+00  0.21307213850E+03  0.21307216244E+03  0.10100000000E+00 0. -1.
          3   -1    0    0  501    0  0.00000000000E+00 -0.00000000000E+00 -0.32914982767E+04  0.32914982782E+04  0.10100000000E+00 0.  1.
     200001    2    1    2    0    0 -0.35979014274E+03 -0.18998282883E+03 -0.19867835160E+04  0.21454435015E+04  0.70005475276E+03 0.  0.
    5000001    2    3    3    0    0 -0.24403040917E+03 -0.97055380774E+02 -0.87953603121E+03  0.92150199189E+03  0.81312381105E+02 0.  0.
        -11    1    4    4    0    0 -0.84587830903E+02  0.17996718797E+01 -0.29226709136E+03  0.30426697594E+03  0.51100000000E-03 0. -1.
     200002    1    4    4    0    0 -0.15944257826E+03 -0.98855052654E+02 -0.58726893985E+03  0.61723501595E+03  0.30000000000E+02 0. -1.
     200000    1    3    3    0    0 -0.11575973357E+03 -0.92927448055E+02 -0.11072474848E+04  0.12239415096E+04  0.50000000000E+03 0.  1.
    -200001    1    1    2    0    0  0.35979014274E+03  0.18998282883E+03 -0.10916426222E+04  0.13591269391E+04  0.70000000000E+03 0. -1.
<mgrwt>
<rscale>  0 0.16749049E+04</rscale>
<asrwt>0</asrwt>
<pdfrwt beam="1">  1        3 0.47021401E+00 0.16749049E+04</pdfrwt>
<pdfrwt beam="2">  1       -3 0.30438881E-01 0.16749049E+04</pdfrwt>
<totfact> 0.12869718E-01</totfact>
</mgrwt>
</event>
<event>
 8    1  0.1426346E-011  0.1916116E+04  0.7818608E-02  0.8646876E-01
         -3   -1    0    0    0  501 -0.00000000000E+00  0.00000000000E+00  0.13058028415E+04  0.13058028454E+04  0.10100000000E+00 0.  1.
          3   -1    0    0  501    0  0.00000000000E+00 -0.00000000000E+00 -0.70291983851E+03  0.70291984577E+03  0.10100000000E+00 0. -1.
     200001    2    1    2    0    0  0.65264309913E+02  0.52633121169E+03  0.70270957872E+03  0.11248395995E+04  0.70012812968E+03 0.  0.
    5000001    2    3    3    0    0 -0.45283741932E+02  0.17233250861E+03  0.17022044178E+03  0.30564448565E+03  0.18081604465E+03 0.  0.
        -11    1    4    4    0    0 -0.85115933843E+02  0.61688858541E+02  0.14914324621E+03  0.18246628552E+03  0.51100000000E-03 0. -1.
     200002    1    4    4    0    0  0.39832191911E+02  0.11064365007E+03  0.21077195564E+02  0.12317820013E+03  0.30000000000E+02 0. -1.
     200000    1    3    3    0    0  0.11054805185E+03  0.35399870307E+03  0.53248913695E+03  0.81919511382E+03  0.50000000000E+03 0.  1.
    -200001    1    1    2    0    0 -0.65264309913E+02 -0.52633121169E+03 -0.99826575752E+02  0.88388309169E+03  0.70000000000E+03 0. -1.
<mgrwt>
<rscale>  0 0.19161156E+04</rscale>
<asrwt>0</asrwt>
<pdfrwt beam="1">  1        3 0.10041712E+00 0.19161156E+04</pdfrwt>
<pdfrwt beam="2">  1       -3 0.18654326E+00 0.19161156E+04</pdfrwt>
<totfact> 0.38161778E-01</totfact>
</mgrwt>
</event>
<event>
 8    1  0.1426346E-011  0.1491882E+04  0.7818608E-02  0.8889869E-01
          3   -1    0    0  501    0  0.00000000000E+00  0.00000000000E+00  0.51752823517E+03  0.51752824502E+03  0.10100000000E+00 0.  1.
         -3   -1    0    0    0  501 -0.00000000000E+00 -0.00000000000E+00 -0.10751650030E+04  0.10751650077E+04  0.10100000000E+00 0. -1.
     200001    2    1    2    0    0 -0.12917597484E+03 -0.13707111293E+03 -0.46651208399E+03  0.86209169888E+03  0.70006688987E+03 0.  0.
    5000001    2    3    3    0    0 -0.35081107454E+02 -0.47280373221E+02 -0.15605744975E+03  0.25934938170E+03  0.19860024263E+03 0.  0.
        -11    1    4    4    0    0 -0.96151906317E+02  0.29608931199E+02 -0.52340042844E+02  0.11340792733E+03  0.51100000000E-03 0. -1.
     200002    1    4    4    0    0  0.61070798864E+02 -0.76889304420E+02 -0.10371740691E+03  0.14594145437E+03  0.30000000000E+02 0. -1.
     200000    1    3    3    0    0 -0.94094867388E+02 -0.89790739707E+02 -0.31045463424E+03  0.60274231719E+03  0.50000000000E+03 0. -1.
    -200001    1    1    2    0    0  0.12917597484E+03  0.13707111293E+03 -0.91124683790E+02  0.73060155384E+03  0.70000000000E+03 0.  1.
<mgrwt>
<rscale>  0 0.14918824E+04</rscale>
<asrwt>0</asrwt>
<pdfrwt beam="1">  1        3 0.73932607E-01 0.14918824E+04</pdfrwt>
<pdfrwt beam="2">  1       -3 0.15359500E+00 0.14918824E+04</pdfrwt>
<totfact> 0.13374249E+00</totfact>
</mgrwt>
</event>
<event>
 8    1  0.1426346E-011  0.1486877E+04  0.7818608E-02  0.8893227E-01
          3   -1    0    0  501    0  0.00000000000E+00  0.00000000000E+00  0.75506418352E+03  0.75506419027E+03  0.10100000000E+00 0.  1.
         -3   -1    0    0    0  501 -0.00000000000E+00 -0.00000000000E+00 -0.73199134845E+03  0.73199135542E+03  0.10100000000E+00 0. -1.
     200001    2    1    2    0    0 -0.18085807933E+03 -0.11233309820E+03 -0.11408206570E+03  0.74264985212E+03  0.70227182439E+03 0.  0.
    5000001    2    3    3    0    0 -0.11118603266E+03 -0.71509497113E+02 -0.13422927561E+02  0.22626528362E+03  0.18313891326E+03 0.  0.
        -11    1    4    4    0    0 -0.18876066065E+02 -0.52032022379E+02  0.75214326106E+02  0.93385395404E+02  0.51100000000E-03 0. -1.
     200002    1    4    4    0    0 -0.92309966595E+02 -0.19477474734E+02 -0.88637253668E+02  0.13287988822E+03  0.30000000000E+02 0. -1.
     200000    1    3    3    0    0 -0.69672046671E+02 -0.40823601082E+02 -0.10065913814E+03  0.51638456850E+03  0.50000000000E+03 0. -1.
    -200001    1    1    2    0    0  0.18085807933E+03  0.11233309820E+03  0.13715490077E+03  0.74440569357E+03  0.70000000000E+03 0.  1.
<mgrwt>
<rscale>  0 0.14868765E+04</rscale>
<asrwt>0</asrwt>
<pdfrwt beam="1">  1        3 0.10786631E+00 0.14868765E+04</pdfrwt>
<pdfrwt beam="2">  1       -3 0.10457019E+00 0.14868765E+04</pdfrwt>
<totfact> 0.14663562E+00</totfact>
</mgrwt>
</event>
<event>
 8    1  0.1426346E-011  0.2050421E+04  0.7818608E-02  0.8583404E-01
         -3   -1    0    0    0  501 -0.00000000000E+00  0.00000000000E+00  0.37124942440E+03  0.37124943814E+03  0.10100000000E+00 0. -1.
          3   -1    0    0  501    0  0.00000000000E+00 -0.00000000000E+00 -0.28311318030E+04  0.28311318048E+04  0.10100000000E+00 0.  1.
     200001    2    1    2    0    0  0.43658756491E+03 -0.47637986053E+03 -0.63854573585E+03  0.11469460969E+04  0.70014157072E+03 0.  0.
    5000001    2    3    3    0    0  0.70176445700E+02 -0.10623170767E+03 -0.17178307735E+03  0.28721698681E+03  0.19176616648E+03 0.  0.
        -11    1    4    4    0    0  0.98016935639E+02 -0.66127188938E+02 -0.19281233418E+03  0.22617851579E+03  0.51100000000E-03 0. -1.
     200002    1    4    4    0    0 -0.27840489939E+02 -0.40104518730E+02  0.21029256834E+02  0.61038471029E+02  0.30000000000E+02 0. -1.
     200000    1    3    3    0    0  0.36641111921E+03 -0.37014815286E+03 -0.46676265850E+03  0.85972911008E+03  0.50000000000E+03 0.  1.
    -200001    1    1    2    0    0 -0.43658756491E+03  0.47637986053E+03 -0.18213366427E+04  0.20554351460E+04  0.70000000000E+03 0.  1.
<mgrwt>
<rscale>  0 0.20504205E+04</rscale>
<asrwt>0</asrwt>
<pdfrwt beam="1">  1        3 0.40444739E+00 0.20504205E+04</pdfrwt>
<pdfrwt beam="2">  1       -3 0.53035635E-01 0.20504205E+04</pdfrwt>
<totfact> 0.90391260E-02</totfact>
</mgrwt>
</event>
<event>
 8    1  0.1426346E-011  0.2972501E+04  0.7818608E-02  0.8251627E-01
          3   -1    0    0  501    0  0.00000000000E+00  0.00000000000E+00  0.79585629486E+03  0.79585630127E+03  0.10100000000E+00 0. -1.
         -3   -1    0    0    0  501 -0.00000000000E+00 -0.00000000000E+00 -0.27755514855E+04  0.27755514873E+04  0.10100000000E+00 0.  1.
     200001    2    1    2    0    0 -0.10812086186E+04  0.61287339495E+03 -0.49030794447E+03  0.15091516832E+04  0.70179131317E+03 0.  0.
    5000001    2    3    3    0    0 -0.32257274128E+03  0.26314005100E+03 -0.15695753794E+03  0.48009177249E+03  0.18043442422E+03 0.  0.
        -11    1    4    4    0    0 -0.22455448172E+03  0.10134039691E+03 -0.14998548490E+03  0.28842717796E+03  0.51100000000E-03 0. -1.
     200002    1    4    4    0    0 -0.98018259552E+02  0.16179965410E+03 -0.69720530356E+01  0.19166459453E+03  0.30000000000E+02 0. -1.
     200000    1    3    3    0    0 -0.75863587736E+03  0.34973334394E+03 -0.33335040653E+03  0.10290599107E+04  0.50000000000E+03 0.  1.
    -200001    1    1    2    0    0  0.10812086186E+04 -0.61287339495E+03 -0.14893872462E+04  0.20622561054E+04  0.70000000000E+03 0.  1.
<mgrwt>
<rscale>  0 0.29725007E+04</rscale>
<asrwt>0</asrwt>
<pdfrwt beam="1">  1        3 0.11369376E+00 0.29725007E+04</pdfrwt>
<pdfrwt beam="2">  1       -3 0.39650735E+00 0.29725007E+04</pdfrwt>
<totfact> 0.16049886E-02</totfact>
</mgrwt>
</event>
<event>
 8    1  0.1426346E-011  0.1696162E+04  0.7818608E-02  0.8763556E-01
          3   -1    0    0  501    0  0.00000000000E+00  0.00000000000E+00  0.36333052045E+03  0.36333053449E+03  0.10100000000E+00 0.  1.
         -3   -1    0    0    0  501 -0.00000000000E+00 -0.00000000000E+00 -0.19795788149E+04  0.19795788175E+04  0.10100000000E+00 0. -1.
     200001    2    1    2    0    0 -0.40424626044E+03 -0.25082539306E+03 -0.75016085800E+03  0.11319445034E+04  0.70159007192E+03 0.  0.
    5000001    2    3    3    0    0 -0.10415327877E+03  0.35380716947E+01 -0.10198308750E+03  0.22370940608E+03  0.16966120594E+03 0.  0.
        -11    1    4    4    0    0 -0.67991694221E+02 -0.61839526897E+01  0.36311288903E+02  0.77328012104E+02  0.51100000000E-03 0. -1.
     200002    1    4    4    0    0 -0.36161584549E+02  0.97220243844E+01 -0.13829437641E+03  0.14638139397E+03  0.30000000000E+02 0. -1.
     200000    1    3    3    0    0 -0.30009298167E+03 -0.25436346475E+03 -0.64817777050E+03  0.90823509733E+03  0.50000000000E+03 0.  1.
    -200001    1    1    2    0    0  0.40424626044E+03  0.25082539306E+03 -0.86608743647E+03  0.12109648486E+04  0.70000000000E+03 0. -1.
<mgrwt>
<rscale>  0 0.16961620E+04</rscale>
<asrwt>0</asrwt>
<pdfrwt beam="1">  1        3 0.51904362E-01 0.16961620E+04</pdfrwt>
<pdfrwt beam="2">  1       -3 0.28279697E+00 0.16961620E+04</pdfrwt>
<totfact> 0.43802561E-01</totfact>
</mgrwt>
</event>
<event>
 8    1  0.1426346E-011  0.1567920E+04  0.7818608E-02  0.8840502E-01
         -3   -1    0    0    0  501 -0.00000000000E+00  0.00000000000E+00  0.22330776873E+04  0.22330776896E+04  0.10100000000E+00 0.  1.
          3   -1    0    0  501    0  0.00000000000E+00 -0.00000000000E+00 -0.27522254483E+03  0.27522256336E+03  0.10100000000E+00 0. -1.
     200001    2    1    2    0    0  0.20915477737E+03 -0.25464443847E+03  0.11842633663E+04  0.14142098787E+04  0.69922839558E+03 0.  0.
    5000001    2    3    3    0    0  0.51916121370E+02 -0.13152441878E+03  0.28608519783E+03  0.36702004080E+03  0.18128710252E+03 0.  0.
        -11    1    4    4    0    0  0.50341664536E+02 -0.16404648904E+03  0.26999996049E+03  0.31991485183E+03  0.51100000000E-03 0. -1.
     200002    1    4    4    0    0  0.15744568342E+01  0.32522070258E+02  0.16085237338E+02  0.47105188975E+02  0.30000000000E+02 0. -1.
     200000    1    3    3    0    0  0.15723865600E+03 -0.12312001969E+03  0.89817816849E+03  0.10471898379E+04  0.50000000000E+03 0.  1.
    -200001    1    1    2    0    0 -0.20915477737E+03  0.25464443847E+03  0.77359177613E+03  0.10940903743E+04  0.70000000000E+03 0. -1.
<mgrwt>
<rscale>  0 0.15679201E+04</rscale>
<asrwt>0</asrwt>
<pdfrwt beam="1">  1        3 0.39317507E-01 0.15679201E+04</pdfrwt>
<pdfrwt beam="2">  1       -3 0.31901111E+00 0.15679201E+04</pdfrwt>
<totfact> 0.48652294E-01</totfact>
</mgrwt>
</event>
<event>
 8    1  0.1426346E-011  0.1588980E+04  0.7818608E-02  0.8827347E-01
          3   -1    0    0  501    0  0.00000000000E+00  0.00000000000E+00  0.88310168361E+03  0.88310168939E+03  0.10100000000E+00 0.  1.
         -3   -1    0    0    0  501 -0.00000000000E+00 -0.00000000000E+00 -0.71476994556E+03  0.71476995270E+03  0.10100000000E+00 0. -1.
     200001    2    1    2    0    0 -0.12178311758E+02 -0.25223615664E+03 -0.19362093598E+03  0.77035661006E+03  0.70156172203E+03 0.  0.
    5000001    2    3    3    0    0 -0.80579272091E+01 -0.11972881251E+03 -0.10327810259E+03  0.24524995293E+03  0.18729990444E+03 0.  0.
        -11    1    4    4    0    0 -0.27357588521E+02  0.29238252559E+02 -0.81137108762E+02  0.90479519676E+02  0.51100000000E-03 0. -1.
     200002    1    4    4    0    0  0.19299661312E+02 -0.14896706507E+03 -0.22140993824E+02  0.15477043326E+03  0.30000000000E+02 0. -1.
     200000    1    3    3    0    0 -0.41203845484E+01 -0.13250734413E+03 -0.90342833391E+02  0.52510665713E+03  0.50000000000E+03 0.  1.
    -200001    1    1    2    0    0  0.12178311758E+02  0.25223615664E+03  0.36195267403E+03  0.82751503203E+03  0.70000000000E+03 0.  1.
<mgrwt>
<rscale>  0 0.15889802E+04</rscale>
<asrwt>0</asrwt>
<pdfrwt beam="1">  1        3 0.12615738E+00 0.15889802E+04</pdfrwt>
<pdfrwt beam="2">  1       -3 0.10210999E+00 0.15889802E+04</pdfrwt>
<totfact> 0.10539923E+00</totfact>
</mgrwt>
</event>
<event>
 8    1  0.1426346E-011  0.2006364E+04  0.7818608E-02  0.8603651E-01
         -3   -1    0    0    0  501 -0.00000000000E+00  0.00000000000E+00  0.89831500215E+03  0.89831500783E+03  0.10100000000E+00 0. -1.
          3   -1    0    0  501    0  0.00000000000E+00 -0.00000000000E+00 -0.11202908919E+04  0.11202908964E+04  0.10100000000E+00 0.  1.
     200001    2    1    2    0    0 -0.97316963440E+02 -0.36505761845E+03 -0.72803324475E+03  0.10758271907E+04  0.69615665094E+03 0.  0.
    5000001    2    3    3    0    0  0.44304987160E+02 -0.85864461127E+02 -0.15757337851E+03  0.25519934876E+03  0.17595937151E+03 0.  0.
        -11    1    4    4    0    0  0.28640586592E+02 -0.12818619097E+03 -0.15174838611E+03  0.20069767174E+03  0.51100000000E-03 0. -1.
     200002    1    4    4    0    0  0.15664400568E+02  0.42321729841E+02 -0.58249923996E+01  0.54501677023E+02  0.30000000000E+02 0. -1.
     200000    1    3    3    0    0 -0.14162195060E+03 -0.27919315732E+03 -0.57045986624E+03  0.82062784195E+03  0.50000000000E+03 0.  1.
    -200001    1    1    2    0    0  0.97316963440E+02  0.36505761845E+03  0.50605735502E+03  0.94277871355E+03  0.70000000000E+03 0. -1.
<mgrwt>
<rscale>  0 0.20063640E+04</rscale>
<asrwt>0</asrwt>
<pdfrwt beam="1">  1        3 0.16004156E+00 0.20063640E+04</pdfrwt>
<pdfrwt beam="2">  1       -3 0.12833071E+00 0.20063640E+04</pdfrwt>
<totfact> 0.31993394E-01</totfact>
</mgrwt>
</event>
<event>
 8    1  0.1426346E-011  0.1615508E+04  0.7818608E-02  0.8811077E-01
          3   -1    0    0  501    0  0.00000000000E+00  0.00000000000E+00  0.13251739781E+04  0.13251739820E+04  0.10100000000E+00 0.  1.
         -3   -1    0    0    0  501 -0.00000000000E+00 -0.00000000000E+00 -0.49236308309E+03  0.49236309345E+03  0.10100000000E+00 0. -1.
     200001    2    1    2    0    0 -0.63354486631E+01  0.91633979249E+02 -0.20157604229E+02  0.71029176168E+03  0.70403915632E+03 0.  0.
    5000001    2    3    3    0    0  0.13264162825E+03  0.61551458660E+02 -0.36152381771E+02  0.19021924860E+03  0.11616360971E+03 0.  0.
        -11    1    4    4    0    0  0.10621317890E+03  0.34163927286E+02 -0.69448889301E+02  0.13142131306E+03  0.51100000000E-03 0. -1.
     200002    1    4    4    0    0  0.26428449348E+02  0.27387531374E+02  0.33296507530E+02  0.58797935537E+02  0.30000000000E+02 0. -1.
     200000    1    3    3    0    0 -0.13897707692E+03  0.30082520588E+02  0.15994777542E+02  0.52007251308E+03  0.50000000000E+03 0.  1.
    -200001    1    1    2    0    0  0.63354486631E+01 -0.91633979249E+02  0.85296849927E+03  0.11072453137E+04  0.70000000000E+03 0.  1.
<mgrwt>
<rscale>  0 0.16155083E+04</rscale>
<asrwt>0</asrwt>
<pdfrwt beam="1">  1        3 0.18931057E+00 0.16155083E+04</pdfrwt>
<pdfrwt beam="2">  1       -3 0.70337584E-01 0.16155083E+04</pdfrwt>
<totfact> 0.83998580E-01</totfact>
</mgrwt>
</event>
<event>
 8    1  0.1426346E-011  0.1432422E+04  0.7818608E-02  0.8930679E-01
         -3   -1    0    0    0  501 -0.00000000000E+00  0.00000000000E+00  0.21217380737E+04  0.21217380761E+04  0.10100000000E+00 0. -1.
          3   -1    0    0  501    0  0.00000000000E+00 -0.00000000000E+00 -0.24176316657E+03  0.24176318767E+03  0.10100000000E+00 0.  1.
     200001    2    1    2    0    0 -0.35454085688E+02 -0.64049563125E+02  0.11606858671E+04  0.13571533807E+04  0.69951002695E+03 0.  0.
    5000001    2    3    3    0    0 -0.77985000340E+02 -0.53807378034E+02  0.15826481277E+03  0.23609952324E+03  0.14737143449E+03 0.  0.
        -11    1    4    4    0    0 -0.17015125015E+02 -0.92421048253E+02  0.64237873737E+02  0.11383175770E+03  0.51100000000E-03 0. -1.
     200002    1    4    4    0    0 -0.60969875326E+02  0.38613670219E+02  0.94026939036E+02  0.12226776554E+03  0.30000000000E+02 0. -1.
     200000    1    3    3    0    0  0.42530914653E+02 -0.10242185091E+02  0.10024210544E+04  0.11210538574E+04  0.50000000000E+03 0. -1.
    -200001    1    1    2    0    0  0.35454085688E+02  0.64049563125E+02  0.71928903994E+03  0.10063478830E+04  0.70000000000E+03 0.  1.
<mgrwt>
<rscale>  0 0.14324219E+04</rscale>
<asrwt>0</asrwt>
<pdfrwt beam="1">  1        3 0.34537597E-01 0.14324219E+04</pdfrwt>
<pdfrwt beam="2">  1       -3 0.30310544E+00 0.14324219E+04</pdfrwt>
<totfact> 0.77724712E-01</totfact>
</mgrwt>
</event>
<event>
 8    1  0.1426346E-011  0.1760854E+04  0.7818608E-02  0.8727398E-01
         -3   -1    0    0    0  501 -0.00000000000E+00  0.00000000000E+00  0.93584163042E+03  0.93584163587E+03  0.10100000000E+00 0. -1.
          3   -1    0    0  501    0  0.00000000000E+00 -0.00000000000E+00 -0.82829349135E+03  0.82829349751E+03  0.10100000000E+00 0.  1.
     200001    2    1    2    0    0 -0.49930156745E+03 -0.27299731066E+02 -0.13356281726E+03  0.87072491190E+03  0.70019676911E+03 0.  0.
    5000001    2    3    3    0    0 -0.15192246525E+03  0.61914856929E+01 -0.11303296909E+03  0.26063034799E+03  0.17897753001E+03 0.  0.
        -11    1    4    4    0    0 -0.66216021824E+02  0.12010370862E+02 -0.14844812732E+03  0.16298974526E+03  0.51100000000E-03 0. -1.
     200002    1    4    4    0    0 -0.85706443422E+02 -0.58188851694E+01  0.35415158226E+02  0.97640602727E+02  0.30000000000E+02 0. -1.
     200000    1    3    3    0    0 -0.34737910221E+03 -0.33491216759E+02 -0.20529848160E+02  0.61009456391E+03  0.50000000000E+03 0.  1.
    -200001    1    1    2    0    0  0.49930156745E+03  0.27299731066E+02  0.24111095632E+03  0.89341022148E+03  0.70000000000E+03 0. -1.
<mgrwt>
<rscale>  0 0.17608538E+04</rscale>
<asrwt>0</asrwt>
<pdfrwt beam="1">  1        3 0.11832764E+00 0.17608538E+04</pdfrwt>
<pdfrwt beam="2">  1       -3 0.13369166E+00 0.17608538E+04</pdfrwt>
<totfact> 0.63288206E-01</totfact>
</mgrwt>
</event>
<event>
 8    1  0.1426346E-011  0.1904508E+04  0.7818608E-02  0.8652616E-01
          3   -1    0    0  501    0  0.00000000000E+00  0.00000000000E+00  0.46170804205E+03  0.46170805310E+03  0.10100000000E+00 0.  1.
         -3   -1    0    0    0  501 -0.00000000000E+00 -0.00000000000E+00 -0.19639840575E+04  0.19639840601E+04  0.10100000000E+00 0. -1.
     200001    2    1    2    0    0  0.47235903116E+03  0.42747903603E+03 -0.88250144832E+03  0.12943292649E+04  0.70044133160E+03 0.  0.
    5000001    2    3    3    0    0  0.14869530632E+03  0.60474203323E+02 -0.26634730806E+03  0.36207571642E+03  0.18544679162E+03 0.  0.
        -11    1    4    4    0    0  0.14323738829E+03  0.84788850783E+02 -0.10665502326E+03  0.19769014292E+03  0.51100000000E-03 0. -1.
     200002    1    4    4    0    0  0.54579180296E+01 -0.24314647460E+02 -0.15969228480E+03  0.16438557350E+03  0.30000000000E+02 0. -1.
     200000    1    3    3    0    0  0.32366372484E+03  0.36700483271E+03 -0.61615414025E+03  0.93225354843E+03  0.50000000000E+03 0. -1.
    -200001    1    1    2    0    0 -0.47235903116E+03 -0.42747903603E+03 -0.61977456715E+03  0.11313628484E+04  0.70000000000E+03 0.  1.
<mgrwt>
<rscale>  0 0.19045075E+04</rscale>
<asrwt>0</asrwt>
<pdfrwt beam="1">  1        3 0.65958294E-01 0.19045075E+04</pdfrwt>
<pdfrwt beam="2">  1       -3 0.28056915E+00 0.19045075E+04</pdfrwt>
<totfact> 0.26759154E-01</totfact>
</mgrwt>
</event>
<event>
 8    1  0.1426346E-011  0.1496755E+04  0.7818608E-02  0.8886614E-01
          3   -1    0    0  501    0  0.00000000000E+00  0.00000000000E+00  0.11855099603E+04  0.11855099646E+04  0.10100000000E+00 0.  1.
         -3   -1    0    0    0  501 -0.00000000000E+00 -0.00000000000E+00 -0.47242849036E+03  0.47242850115E+03  0.10100000000E+00 0. -1.
     200001    2    1    2    0    0 -0.14307313950E+03  0.20770114989E+03  0.43967689758E+03  0.86524700551E+03  0.70123242607E+03 0.  0.
    5000001    2    3    3    0    0 -0.36305093810E+02  0.11645326289E+03  0.94825478588E+02  0.24183053665E+03  0.18603955169E+03 0.  0.
        -11    1    4    4    0    0 -0.32958605400E+02 -0.19790652884E+02  0.94782942677E+02  0.10228267612E+03  0.51100000000E-03 0. -1.
     200002    1    4    4    0    0 -0.33464884106E+01  0.13624391577E+03  0.42535911564E-01  0.13954786053E+03  0.30000000000E+02 0. -1.
     200000    1    3    3    0    0 -0.10676804569E+03  0.91247887000E+02  0.34485141900E+03  0.62341646886E+03  0.50000000000E+03 0.  1.
    -200001    1    1    2    0    0  0.14307313950E+03 -0.20770114989E+03  0.27340457231E+03  0.79269146020E+03  0.70000000000E+03 0. -1.
<mgrwt>
<rscale>  0 0.14967547E+04</rscale>
<asrwt>0</asrwt>
<pdfrwt beam="1">  1        3 0.16935857E+00 0.14967547E+04</pdfrwt>
<pdfrwt beam="2">  1       -3 0.67489786E-01 0.14967547E+04</pdfrwt>
<totfact> 0.12614328E+00</totfact>
</mgrwt>
</event>
<event>
 8    1  0.1426346E-011  0.1439275E+04  0.7818608E-02  0.8925870E-01
          3   -1    0    0  501    0  0.00000000000E+00  0.00000000000E+00  0.26515897636E+03  0.26515899559E+03  0.10100000000E+00 0. -1.
         -3   -1    0    0    0  501 -0.00000000000E+00 -0.00000000000E+00 -0.19530849408E+04  0.19530849434E+04  0.10100000000E+00 0.  1.
     200001    2    1    2    0    0  0.12544811351E+03  0.84711708373E+02 -0.73096902781E+03  0.10229699615E+04  0.69945587410E+03 0.  0.
    5000001    2    3    3    0    0  0.93041404027E+02 -0.61621850644E+02 -0.23721554585E+03  0.30446024949E+03  0.15482529828E+03 0.  0.
        -11    1    4    4    0    0  0.82373866994E+02  0.18601269478E+02 -0.18556081676E+03  0.20387319075E+03  0.51100000000E-03 0. -1.
     200002    1    4    4    0    0  0.10667537033E+02 -0.80223120123E+02 -0.51654729086E+02  0.10058705874E+03  0.30000000000E+02 0. -1.
     200000    1    3    3    0    0  0.32406709479E+02  0.14633355902E+03 -0.49375348196E+03  0.71850971202E+03  0.50000000000E+03 0. -1.
    -200001    1    1    2    0    0 -0.12544811351E+03 -0.84711708373E+02 -0.95695693662E+03  0.11952739775E+04  0.70000000000E+03 0.  1.
<mgrwt>
<rscale>  0 0.14392749E+04</rscale>
<asrwt>0</asrwt>
<pdfrwt beam="1">  1        3 0.37879857E-01 0.14392749E+04</pdfrwt>
<pdfrwt beam="2">  1       -3 0.27901213E+00 0.14392749E+04</pdfrwt>
<totfact> 0.88516538E-01</totfact>
</mgrwt>
</event>
<event>
 8    1  0.1426346E-011  0.2020600E+04  0.7818608E-02  0.8597050E-01
          3   -1    0    0  501    0  0.00000000000E+00  0.00000000000E+00  0.88221552467E+03  0.88221553045E+03  0.10100000000E+00 0.  1.
         -3   -1    0    0    0  501 -0.00000000000E+00 -0.00000000000E+00 -0.11569804002E+04  0.11569804046E+04  0.10100000000E+00 0. -1.
     200001    2    1    2    0    0  0.52691529312E+03 -0.50034971385E+03 -0.18941055033E+03  0.10266373328E+04  0.70008449074E+03 0.  0.
    5000001    2    3    3    0    0  0.83977084353E+02 -0.12957203337E+03  0.66734694473E+02  0.22085775275E+03  0.14312080554E+03 0.  0.
        -11    1    4    4    0    0 -0.30288332863E+01 -0.90272407501E+02 -0.15110584706E+02  0.91578442647E+02  0.51100000000E-03 0. -1.
     200002    1    4    4    0    0  0.87005917639E+02 -0.39299625865E+02  0.81845279178E+02  0.12927931010E+03  0.30000000000E+02 0. -1.
     200000    1    3    3    0    0  0.44293820877E+03 -0.37077768048E+03 -0.25614524481E+03  0.80577958001E+03  0.50000000000E+03 0.  1.
    -200001    1    1    2    0    0 -0.52691529312E+03  0.50034971385E+03 -0.85354325219E+02  0.10125586023E+04  0.70000000000E+03 0. -1.
<mgrwt>
<rscale>  0 0.20206000E+04</rscale>
<asrwt>0</asrwt>
<pdfrwt beam="1">  1        3 0.12603079E+00 0.20206000E+04</pdfrwt>
<pdfrwt beam="2">  1       -3 0.16528291E+00 0.20206000E+04</pdfrwt>
<totfact> 0.30612166E-01</totfact>
</mgrwt>
</event>
<event>
 8    1  0.1426346E-011  0.1895936E+04  0.7818608E-02  0.8656882E-01
          3   -1    0    0  501    0  0.00000000000E+00  0.00000000000E+00  0.10459118854E+04  0.10459118903E+04  0.10100000000E+00 0.  1.
         -3   -1    0    0    0  501 -0.00000000000E+00 -0.00000000000E+00 -0.85919633943E+03  0.85919634537E+03  0.10100000000E+00 0. -1.
     200001    2    1    2    0    0  0.25349421353E+03 -0.69124588082E+02 -0.49227778599E+03  0.89512334972E+03  0.69990775653E+03 0.  0.
    5000001    2    3    3    0    0  0.10522747627E+03 -0.55217364267E+01 -0.28336277834E+03  0.32972629583E+03  0.13161175738E+03 0.  0.
        -11    1    4    4    0    0  0.10457633924E+02  0.51724899350E+02 -0.10758099294E+03  0.11982694756E+03  0.51100000000E-03 0. -1.
     200002    1    4    4    0    0  0.94769842345E+02 -0.57246635776E+02 -0.17578178540E+03  0.20989934827E+03  0.30000000000E+02 0. -1.
     200000    1    3    3    0    0  0.14826673726E+03 -0.63602851656E+02 -0.20891500765E+03  0.56539705388E+03  0.50000000000E+03 0.  1.
    -200001    1    1    2    0    0 -0.25349421353E+03  0.69124588082E+02  0.67899333200E+03  0.10099848860E+04  0.70000000000E+03 0.  1.
<mgrwt>
<rscale>  0 0.18959364E+04</rscale>
<asrwt>0</asrwt>
<pdfrwt beam="1">  1        3 0.14941599E+00 0.18959364E+04</pdfrwt>
<pdfrwt beam="2">  1       -3 0.12274233E+00 0.18959364E+04</pdfrwt>
<totfact> 0.43143007E-01</totfact>
</mgrwt>
</event>
<event>
 8    1  0.1426346E-011  0.1485961E+04  0.7818608E-02  0.8893843E-01
         -3   -1    0    0    0  501 -0.00000000000E+00  0.00000000000E+00  0.52410108868E+03  0.52410109842E+03  0.10100000000E+00 0. -1.
          3   -1    0    0  501    0  0.00000000000E+00 -0.00000000000E+00 -0.10532695032E+04  0.10532695081E+04  0.10100000000E+00 0.  1.
     200001    2    1    2    0    0 -0.51738526187E+02 -0.24173323856E+03 -0.29784808568E+03  0.79979686190E+03  0.69989263780E+03 0.  0.
    5000001    2    3    3    0    0 -0.66126942511E+02 -0.18631979963E+02 -0.13617737971E+01  0.17699245340E+03  0.16310901548E+03 0.  0.
        -11    1    4    4    0    0 -0.84297069685E+02 -0.11701876945E+02 -0.62897101514E+02  0.10582521089E+03  0.51100000000E-03 0. -1.
     200002    1    4    4    0    0  0.18170127174E+02 -0.69301030178E+01  0.61535327717E+02  0.71167242511E+02  0.30000000000E+02 0. -1.
     200000    1    3    3    0    0  0.14388416324E+02 -0.22310125860E+03 -0.29648631188E+03  0.62280440850E+03  0.50000000000E+03 0. -1.
    -200001    1    1    2    0    0  0.51738526187E+02  0.24173323856E+03 -0.23132032886E+03  0.77757374458E+03  0.70000000000E+03 0. -1.
<mgrwt>
<rscale>  0 0.14859606E+04</rscale>
<asrwt>0</asrwt>
<pdfrwt beam="1">  1        3 0.15046707E+00 0.14859606E+04</pdfrwt>
<pdfrwt beam="2">  1       -3 0.74871585E-01 0.14859606E+04</pdfrwt>
<totfact> 0.13771089E+00</totfact>
</mgrwt>
</event>
<event>
 8    1  0.1426346E-011  0.2090836E+04  0.7818608E-02  0.8565291E-01
         -3   -1    0    0    0  501 -0.00000000000E+00  0.00000000000E+00  0.44512097039E+03  0.44512098185E+03  0.10100000000E+00 0.  1.
          3   -1    0    0  501    0  0.00000000000E+00 -0.00000000000E+00 -0.24552843898E+04  0.24552843919E+04  0.10100000000E+00 0. -1.
     200001    2    1    2    0    0 -0.58879914852E+03 -0.29256823396E+03 -0.15781215707E+04  0.18473428078E+04  0.69994796132E+03 0.  0.
    5000001    2    3    3    0    0 -0.12528456445E+03 -0.16242443695E+03 -0.22224367731E+03  0.32412646087E+03  0.11656667931E+03 0.  0.
        -11    1    4    4    0    0 -0.99456106676E+01 -0.93677647170E+02 -0.61309394814E+02  0.11239776974E+03  0.51100000000E-03 0. -1.
     200002    1    4    4    0    0 -0.11533895378E+03 -0.68746789782E+02 -0.16093428249E+03  0.21172869113E+03  0.30000000000E+02 0. -1.
     200000    1    3    3    0    0 -0.46351458407E+03 -0.13014379701E+03 -0.13558778934E+04  0.15232163469E+04  0.50000000000E+03 0. -1.
    -200001    1    1    2    0    0  0.58879914852E+03  0.29256823396E+03 -0.43204184868E+03  0.10530625660E+04  0.70000000000E+03 0.  1.
<mgrwt>
<rscale>  0 0.20908358E+04</rscale>
<asrwt>0</asrwt>
<pdfrwt beam="1">  1        3 0.35075491E+00 0.20908358E+04</pdfrwt>
<pdfrwt beam="2">  1       -3 0.63588712E-01 0.20908358E+04</pdfrwt>
<totfact> 0.11917291E-01</totfact>
</mgrwt>
</event>
<event>
 8    1  0.1426346E-011  0.1601513E+04  0.7818608E-02  0.8819619E-01
         -3   -1    0    0    0  501 -0.00000000000E+00  0.00000000000E+00  0.40267087541E+03  0.40267088808E+03  0.10100000000E+00 0. -1.
          3   -1    0    0  501    0  0.00000000000E+00 -0.00000000000E+00 -0.15923942274E+04  0.15923942306E+04  0.10100000000E+00 0.  1.
     200001    2    1    2    0    0  0.37641246439E+03 -0.40425100868E+02 -0.49160240102E+03  0.93643704692E+03  0.70137072224E+03 0.  0.
    5000001    2    3    3    0    0  0.69598057484E+02  0.10581394950E+01 -0.17388291986E+03  0.26800484525E+03  0.19169329147E+03 0.  0.
        -11    1    4    4    0    0 -0.15288202729E+02 -0.80814394784E+02 -0.70380551652E+02  0.10825025449E+03  0.51100000000E-03 0. -1.
     200002    1    4    4    0    0  0.84886260214E+02  0.81872534279E+02 -0.10350236821E+03  0.15975459075E+03  0.30000000000E+02 0. -1.
     200000    1    3    3    0    0  0.30681440691E+03 -0.41483240363E+02 -0.31771948116E+03  0.66843220167E+03  0.50000000000E+03 0.  1.
    -200001    1    1    2    0    0 -0.37641246439E+03  0.40425100868E+02 -0.69812095094E+03  0.10586280717E+04  0.70000000000E+03 0. -1.
<mgrwt>
<rscale>  0 0.16015128E+04</rscale>
<asrwt>0</asrwt>
<pdfrwt beam="1">  1        3 0.22748489E+00 0.16015128E+04</pdfrwt>
<pdfrwt beam="2">  1       -3 0.57524413E-01 0.16015128E+04</pdfrwt>
<totfact> 0.74998211E-01</totfact>
</mgrwt>
</event>
<event>
 8    1  0.1426346E-011  0.2749616E+04  0.7818608E-02  0.8319084E-01
         -3   -1    0    0    0  501 -0.00000000000E+00  0.00000000000E+00  0.13510364785E+04  0.13510364823E+04  0.10100000000E+00 0. -1.
          3   -1    0    0  501    0  0.00000000000E+00 -0.00000000000E+00 -0.13989973139E+04  0.13989973176E+04  0.10100000000E+00 0.  1.
     200001    2    1    2    0    0  0.13260491305E+03 -0.66539750719E+02  0.11499230736E+04  0.13547067913E+04  0.70063957480E+03 0.  0.
    5000001    2    3    3    0    0  0.17070093300E+03 -0.74206330282E+02  0.32057980510E+03  0.38552139097E+03  0.10587702055E+03 0.  0.
        -11    1    4    4    0    0  0.15770854523E+03 -0.83014798451E+02  0.24762680011E+03  0.30509420534E+03  0.51100000000E-03 0. -1.
     200002    1    4    4    0    0  0.12992387768E+02  0.88084681685E+01  0.72953004992E+02  0.80427185632E+02  0.30000000000E+02 0. -1.
     200000    1    3    3    0    0 -0.38096019947E+02  0.76665795627E+01  0.82934326849E+03  0.96918540031E+03  0.50000000000E+03 0. -1.
    -200001    1    1    2    0    0 -0.13260491305E+03  0.66539750719E+02 -0.11978839090E+04  0.13953270086E+04  0.70000000000E+03 0.  1.
<mgrwt>
<rscale>  0 0.27496155E+04</rscale>
<asrwt>0</asrwt>
<pdfrwt beam="1">  1        3 0.19985676E+00 0.27496155E+04</pdfrwt>
<pdfrwt beam="2">  1       -3 0.19300521E+00 0.27496155E+04</pdfrwt>
<totfact> 0.54989756E-02</totfact>
</mgrwt>
</event>
<event>
 8    1  0.1426346E-011  0.2342653E+04  0.7818608E-02  0.8461291E-01
         -3   -1    0    0    0  501 -0.00000000000E+00  0.00000000000E+00  0.50037338585E+03  0.50037339605E+03  0.10100000000E+00 0. -1.
          3   -1    0    0  501    0  0.00000000000E+00 -0.00000000000E+00 -0.27419648895E+04  0.27419648914E+04  0.10100000000E+00 0.  1.
     200001    2    1    2    0    0  0.37625670163E+03  0.65650814683E+03 -0.35033599946E+03  0.10884071292E+04  0.69951605694E+03 0.  0.
    5000001    2    3    3    0    0  0.12083412928E+03  0.19481523696E+03 -0.11856106448E+03  0.32543881135E+03  0.19824184870E+03 0.  0.
        -11    1    4    4    0    0  0.16344851159E+03  0.14802898689E+03 -0.47319630600E+02  0.22553745663E+03  0.51100000000E-03 0. -1.
     200002    1    4    4    0    0 -0.42614382311E+02  0.46786250067E+02 -0.71241433876E+02  0.99901354724E+02  0.30000000000E+02 0. -1.
     200000    1    3    3    0    0  0.25542257235E+03  0.46169290987E+03 -0.23177493498E+03  0.76296831780E+03  0.50000000000E+03 0. -1.
    -200001    1    1    2    0    0 -0.37625670163E+03 -0.65650814683E+03 -0.18912555042E+04  0.21539311583E+04  0.70000000000E+03 0.  1.
<mgrwt>
<rscale>  0 0.23426534E+04</rscale>
<asrwt>0</asrwt>
<pdfrwt beam="1">  1        3 0.39170926E+00 0.23426534E+04</pdfrwt>
<pdfrwt beam="2">  1       -3 0.71481915E-01 0.23426534E+04</pdfrwt>
<totfact> 0.54571117E-02</totfact>
</mgrwt>
</event>
<event>
 8    1  0.1426346E-011  0.1918802E+04  0.7818608E-02  0.8645554E-01
          3   -1    0    0  501    0  0.00000000000E+00  0.00000000000E+00  0.54026899728E+03  0.54026900672E+03  0.10100000000E+00 0.  1.
         -3   -1    0    0    0  501 -0.00000000000E+00 -0.00000000000E+00 -0.17036886999E+04  0.17036887029E+04  0.10100000000E+00 0. -1.
     200001    2    1    2    0    0  0.41983262529E+03 -0.31467506108E+03 -0.10414447912E+04  0.13606923438E+04  0.70113948274E+03 0.  0.
    5000001    2    3    3    0    0  0.85643241851E+02 -0.15164555558E+03 -0.26665516328E+03  0.36642873135E+03  0.18120126836E+03 0.  0.
        -11    1    4    4    0    0  0.91071572885E+02 -0.22915989848E+02 -0.36088478227E+02  0.10060592547E+03  0.51100000000E-03 0. -1.
     200002    1    4    4    0    0 -0.54283310332E+01 -0.12872956573E+03 -0.23056668505E+03  0.26582280588E+03  0.30000000000E+02 0. -1.
     200000    1    3    3    0    0  0.33418938344E+03 -0.16302950550E+03 -0.77478962788E+03  0.99426361250E+03  0.50000000000E+03 0. -1.
    -200001    1    1    2    0    0 -0.41983262529E+03  0.31467506108E+03 -0.12197491145E+03  0.88326536576E+03  0.70000000000E+03 0.  1.
<mgrwt>
<rscale>  0 0.19188019E+04</rscale>
<asrwt>0</asrwt>
<pdfrwt beam="1">  1        3 0.77181287E-01 0.19188019E+04</pdfrwt>
<pdfrwt beam="2">  1       -3 0.24338410E+00 0.19188019E+04</pdfrwt>
<totfact> 0.31002011E-01</totfact>
</mgrwt>
</event>
<event>
 8    1  0.1426346E-011  0.1909726E+04  0.7818608E-02  0.8650030E-01
          3   -1    0    0  501    0  0.00000000000E+00  0.00000000000E+00  0.22072792983E+03  0.22072795294E+03  0.10100000000E+00 0.  1.
         -3   -1    0    0    0  501 -0.00000000000E+00 -0.00000000000E+00 -0.41307106585E+04  0.41307106598E+04  0.10100000000E+00 0. -1.
     200001    2    1    2    0    0 -0.63556453887E+03 -0.60517190163E+02 -0.16815635086E+04  0.19299810281E+04  0.69969016149E+03 0.  0.
    5000001    2    3    3    0    0 -0.12737468780E+03 -0.15858131059E+02 -0.30214182993E+03  0.37657975226E+03  0.18451783925E+03 0.  0.
        -11    1    4    4    0    0 -0.92222917970E+02 -0.88789410757E+02 -0.23345185213E+03  0.26624874333E+03  0.51100000000E-03 0. -1.
     200002    1    4    4    0    0 -0.35151769827E+02  0.72931279698E+02 -0.68689977807E+02  0.11033100893E+03  0.30000000000E+02 0. -1.
     200000    1    3    3    0    0 -0.50818985107E+03 -0.44659059104E+02 -0.13794216786E+04  0.15534012758E+04  0.50000000000E+03 0.  1.
    -200001    1    1    2    0    0  0.63556453887E+03  0.60517190163E+02 -0.22284192201E+04  0.24214575846E+04  0.70000000000E+03 0.  1.
<mgrwt>
<rscale>  0 0.19097259E+04</rscale>
<asrwt>0</asrwt>
<pdfrwt beam="1">  1        3 0.31532566E-01 0.19097259E+04</pdfrwt>
<pdfrwt beam="2">  1       -3 0.59010148E+00 0.19097259E+04</pdfrwt>
<totfact> 0.25078245E-02</totfact>
</mgrwt>
</event>
<event>
 8    1  0.1426346E-011  0.1497682E+04  0.7818608E-02  0.8885996E-01
          3   -1    0    0  501    0  0.00000000000E+00  0.00000000000E+00  0.12700623499E+04  0.12700623539E+04  0.10100000000E+00 0.  1.
         -3   -1    0    0    0  501 -0.00000000000E+00 -0.00000000000E+00 -0.44152404474E+03  0.44152405629E+03  0.10100000000E+00 0. -1.
     200001    2    1    2    0    0 -0.14507239999E+03 -0.10586364188E+03  0.19008953820E+03  0.74728876946E+03  0.70003811361E+03 0.  0.
    5000001    2    3    3    0    0  0.52443927931E+01 -0.42641930040E+02 -0.82650949439E+02  0.15485354377E+03  0.12370368920E+03 0.  0.
        -11    1    4    4    0    0  0.47168009892E+02 -0.57955067312E+02 -0.62528071139E+02  0.97433929742E+02  0.51100000000E-03 0. -1.
     200002    1    4    4    0    0 -0.41923617099E+02  0.15313137271E+02 -0.20122878300E+02  0.57419614025E+02  0.30000000000E+02 0. -1.
     200000    1    3    3    0    0 -0.15031679278E+03 -0.63221711835E+02  0.27274048764E+03  0.59243522569E+03  0.50000000000E+03 0.  1.
    -200001    1    1    2    0    0  0.14507239999E+03  0.10586364188E+03  0.63844876694E+03  0.96429764073E+03  0.70000000000E+03 0.  1.
<mgrwt>
<rscale>  0 0.14976823E+04</rscale>
<asrwt>0</asrwt>
<pdfrwt beam="1">  1        3 0.18143748E+00 0.14976823E+04</pdfrwt>
<pdfrwt beam="2">  1       -3 0.63074864E-01 0.14976823E+04</pdfrwt>
<totfact> 0.12073847E+00</totfact>
</mgrwt>
</event>
<event>
 8    1  0.1426346E-011  0.1894284E+04  0.7818608E-02  0.8657707E-01
         -3   -1    0    0    0  501 -0.00000000000E+00  0.00000000000E+00  0.18327812577E+04  0.18327812605E+04  0.10100000000E+00 0.  1.
          3   -1    0    0  501    0  0.00000000000E+00 -0.00000000000E+00 -0.48946268765E+03  0.48946269807E+03  0.10100000000E+00 0. -1.
     200001    2    1    2    0    0  0.45522665202E+03 -0.44672401319E+03  0.69470373642E+03  0.11744221731E+04  0.69990035766E+03 0.  0.
    5000001    2    3    3    0    0  0.10591625787E+03 -0.89755335303E+02  0.16085700853E+03  0.28873785163E+03  0.19550011733E+03 0.  0.
        -11    1    4    4    0    0  0.48176756721E+02 -0.11430514458E+03  0.12229570906E+02  0.12464440769E+03  0.51100000000E-03 0. -1.
     200002    1    4    4    0    0  0.57739501154E+02  0.24549809274E+02  0.14862743762E+03  0.16409344394E+03  0.30000000000E+02 0. -1.
     200000    1    3    3    0    0  0.34931039415E+03 -0.35696867789E+03  0.53384672790E+03  0.88568432149E+03  0.50000000000E+03 0. -1.
    -200001    1    1    2    0    0 -0.45522665202E+03  0.44672401319E+03  0.64861483361E+03  0.11478217854E+04  0.70000000000E+03 0.  1.
<mgrwt>
<rscale>  0 0.18942841E+04</rscale>
<asrwt>0</asrwt>
<pdfrwt beam="1">  1        3 0.69923242E-01 0.18942841E+04</pdfrwt>
<pdfrwt beam="2">  1       -3 0.26182589E+00 0.18942841E+04</pdfrwt>
<totfact> 0.30174368E-01</totfact>
</mgrwt>
</event>
<event>
 8    1  0.1426346E-011  0.1545413E+04  0.7818608E-02  0.8854803E-01
         -3   -1    0    0    0  501 -0.00000000000E+00  0.00000000000E+00  0.10776412108E+04  0.10776412156E+04  0.10100000000E+00 0. -1.
          3   -1    0    0  501    0  0.00000000000E+00 -0.00000000000E+00 -0.55405793466E+03  0.55405794387E+03  0.10100000000E+00 0.  1.
     200001    2    1    2    0    0 -0.32349944266E+01 -0.17765383298E+03  0.54336001637E+03  0.90922945833E+03  0.70702669747E+03 0.  0.
    5000001    2    3    3    0    0 -0.22058972402E+02 -0.95063587986E+02  0.22519841934E+03  0.31056236174E+03  0.19029179812E+03 0.  0.
        -11    1    4    4    0    0 -0.77465392936E+02 -0.26170455664E+02  0.19659122169E+03  0.21291756221E+03  0.51100000000E-03 0. -1.
     200002    1    4    4    0    0  0.55406420534E+02 -0.68893132322E+02  0.28607197653E+02  0.97644799529E+02  0.30000000000E+02 0. -1.
     200000    1    3    3    0    0  0.18823977975E+02 -0.82590244995E+02  0.31816159703E+03  0.59866709659E+03  0.50000000000E+03 0.  1.
    -200001    1    1    2    0    0  0.32349944266E+01  0.17765383298E+03 -0.19776740195E+02  0.72246970110E+03  0.70000000000E+03 0.  1.
<mgrwt>
<rscale>  0 0.15454134E+04</rscale>
<asrwt>0</asrwt>
<pdfrwt beam="1">  1        3 0.79151136E-01 0.15454134E+04</pdfrwt>
<pdfrwt beam="2">  1       -3 0.15394874E+00 0.15454134E+04</pdfrwt>
<totfact> 0.11389556E+00</totfact>
</mgrwt>
</event>
<event>
 8    1  0.1426346E-011  0.1998218E+04  0.7818608E-02  0.8607454E-01
          3   -1    0    0  501    0  0.00000000000E+00  0.00000000000E+00  0.56386479591E+03  0.56386480496E+03  0.10100000000E+00 0.  1.
         -3   -1    0    0    0  501 -0.00000000000E+00 -0.00000000000E+00 -0.17703156634E+04  0.17703156662E+04  0.10100000000E+00 0. -1.
     200001    2    1    2    0    0 -0.10081436737E+02  0.61915649206E+03 -0.19063614270E+03  0.95384139980E+03  0.70001062852E+03 0.  0.
    5000001    2    3    3    0    0 -0.43581081551E+02  0.17020823565E+03 -0.87093462698E+02  0.27310808218E+03  0.19008576789E+03 0.  0.
        -11    1    4    4    0    0  0.69167287011E+02  0.74735649704E+02 -0.64832856366E+02  0.12071797792E+03  0.51100000000E-03 0. -1.
     200002    1    4    4    0    0 -0.11274836856E+03  0.95472585944E+02 -0.22260606332E+02  0.15239010425E+03  0.30000000000E+02 0. -1.
     200000    1    3    3    0    0  0.33499644815E+02  0.44894825641E+03 -0.10354268000E+03  0.68073331762E+03  0.50000000000E+03 0. -1.
    -200001    1    1    2    0    0  0.10081436737E+02 -0.61915649206E+03 -0.10158147247E+04  0.13803390714E+04  0.70000000000E+03 0. -1.
<mgrwt>
<rscale>  0 0.19982179E+04</rscale>
<asrwt>0</asrwt>
<pdfrwt beam="1">  1        3 0.80552116E-01 0.19982179E+04</pdfrwt>
<pdfrwt beam="2">  1       -3 0.25290224E+00 0.19982179E+04</pdfrwt>
<totfact> 0.24655702E-01</totfact>
</mgrwt>
</event>
<event>
 8    1  0.1426346E-011  0.1987565E+04  0.7818608E-02  0.8612456E-01
          3   -1    0    0  501    0  0.00000000000E+00  0.00000000000E+00  0.21122723245E+04  0.21122723270E+04  0.10100000000E+00 0.  1.
         -3   -1    0    0    0  501 -0.00000000000E+00 -0.00000000000E+00 -0.46755522665E+03  0.46755523756E+03  0.10100000000E+00 0. -1.
     200001    2    1    2    0    0 -0.11203960414E+03 -0.69042335795E+03  0.70153928530E+03  0.12127790386E+04  0.69959870033E+03 0.  0.
    5000001    2    3    3    0    0 -0.43677830177E+02 -0.29729877814E+03  0.23761319200E+03  0.42255901388E+03  0.17833052141E+03 0.  0.
        -11    1    4    4    0    0  0.38558383214E+02 -0.71329351931E+02  0.13901891604E+03  0.16093751701E+03  0.51100000000E-03 0. -1.
     200002    1    4    4    0    0 -0.82236213391E+02 -0.22596942621E+03  0.98594275958E+02  0.26162149687E+03  0.30000000000E+02 0. -1.
     200000    1    3    3    0    0 -0.68361773968E+02 -0.39312457981E+03  0.46392609330E+03  0.79022002470E+03  0.50000000000E+03 0.  1.
    -200001    1    1    2    0    0  0.11203960414E+03  0.69042335795E+03  0.94317781259E+03  0.13670485259E+04  0.70000000000E+03 0. -1.
<mgrwt>
<rscale>  0 0.19875653E+04</rscale>
<asrwt>0</asrwt>
<pdfrwt beam="1">  1        3 0.30175319E+00 0.19875653E+04</pdfrwt>
<pdfrwt beam="2">  1       -3 0.66793606E-01 0.19875653E+04</pdfrwt>
<totfact> 0.20019714E-01</totfact>
</mgrwt>
</event>
<event>
 8    1  0.1426346E-011  0.1485333E+04  0.7818608E-02  0.8894265E-01
         -3   -1    0    0    0  501 -0.00000000000E+00  0.00000000000E+00  0.15397126874E+04  0.15397126907E+04  0.10100000000E+00 0. -1.
          3   -1    0    0  501    0  0.00000000000E+00 -0.00000000000E+00 -0.35821868022E+03  0.35821869446E+03  0.10100000000E+00 0.  1.
     200001    2    1    2    0    0 -0.13075453850E+02 -0.22687700073E+03  0.71592535299E+03  0.10270707116E+04  0.70048625588E+03 0.  0.
    5000001    2    3    3    0    0  0.56937810254E+02 -0.66578784837E+02  0.39022844071E+02  0.16753922195E+03  0.13737525143E+03 0.  0.
        -11    1    4    4    0    0  0.40337918688E+02 -0.92961856797E+02  0.61752496427E+02  0.11866939504E+03  0.51100000000E-03 0. -1.
     200002    1    4    4    0    0  0.16599891566E+02  0.26383071960E+02 -0.22729652356E+02  0.48869826911E+02  0.30000000000E+02 0. -1.
     200000    1    3    3    0    0 -0.70013264103E+02 -0.16029821589E+03  0.67690250892E+03  0.85953148968E+03  0.50000000000E+03 0. -1.
    -200001    1    1    2    0    0  0.13075453850E+02  0.22687700073E+03  0.46556865418E+03  0.87086067354E+03  0.70000000000E+03 0.  1.
<mgrwt>
<rscale>  0 0.14853334E+04</rscale>
<asrwt>0</asrwt>
<pdfrwt beam="1">  1        3 0.51174097E-01 0.14853334E+04</pdfrwt>
<pdfrwt beam="2">  1       -3 0.21995896E+00 0.14853334E+04</pdfrwt>
<totfact> 0.10619222E+00</totfact>
</mgrwt>
</event>
<event>
 8    1  0.1426346E-011  0.1751356E+04  0.7818608E-02  0.8732604E-01
         -3   -1    0    0    0  501 -0.00000000000E+00  0.00000000000E+00  0.11407514322E+04  0.11407514367E+04  0.10100000000E+00 0. -1.
          3   -1    0    0  501    0  0.00000000000E+00 -0.00000000000E+00 -0.67219922341E+03  0.67219923100E+03  0.10100000000E+00 0.  1.
     200001    2    1    2    0    0  0.11784246698E+03  0.24652346538E+03 -0.23068418630E+03  0.78650427248E+03  0.70050917968E+03 0.  0.
    5000001    2    3    3    0    0 -0.37107975928E+02  0.10828374345E+02  0.94222119748E+01  0.16423994104E+03  0.15934781011E+03 0.  0.
        -11    1    4    4    0    0 -0.75743226487E+02  0.57302333441E+02  0.16492850658E+02  0.96398173735E+02  0.51100000000E-03 0. -1.
     200002    1    4    4    0    0  0.38635250559E+02 -0.46473959096E+02 -0.70706386832E+01  0.67841767306E+02  0.30000000000E+02 0. -1.
     200000    1    3    3    0    0  0.15495044291E+03  0.23569509103E+03 -0.24010639827E+03  0.62226433144E+03  0.50000000000E+03 0.  1.
    -200001    1    1    2    0    0 -0.11784246698E+03 -0.24652346538E+03  0.69923639511E+03  0.10264463952E+04  0.70000000000E+03 0. -1.
<mgrwt>
<rscale>  0 0.17513563E+04</rscale>
<asrwt>0</asrwt>
<pdfrwt beam="1">  1        3 0.96028463E-01 0.17513563E+04</pdfrwt>
<pdfrwt beam="2">  1       -3 0.16296449E+00 0.17513563E+04</pdfrwt>
<totfact> 0.62196632E-01</totfact>
</mgrwt>
</event>
<event>
 8    1  0.1426346E-011  0.1472087E+04  0.7818608E-02  0.8903230E-01
         -3   -1    0    0    0  501 -0.00000000000E+00  0.00000000000E+00  0.28534550483E+03  0.28534552270E+03  0.10100000000E+00 0. -1.
          3   -1    0    0  501    0  0.00000000000E+00 -0.00000000000E+00 -0.18986100772E+04  0.18986100799E+04  0.10100000000E+00 0.  1.
     200001    2    1    2    0    0  0.40622962426E+02 -0.17160497680E+03 -0.10225036364E+04  0.12511657138E+04  0.69914480890E+03 0.  0.
    5000001    2    3    3    0    0  0.39401734026E+02 -0.34096720671E+02 -0.36560633611E+03  0.41425229234E+03  0.18767494692E+03 0.  0.
        -11    1    4    4    0    0 -0.65657059873E+02 -0.27285090686E+01 -0.63141053595E+02  0.91132249628E+02  0.51100000000E-03 0. -1.
     200002    1    4    4    0    0  0.10505879390E+03 -0.31368211603E+02 -0.30246528252E+03  0.32312004271E+03  0.30000000000E+02 0. -1.
     200000    1    3    3    0    0  0.12212283994E+01 -0.13750825613E+03 -0.65689730025E+03  0.83691342143E+03  0.50000000000E+03 0.  1.
    -200001    1    1    2    0    0 -0.40622962426E+02  0.17160497680E+03 -0.59076093598E+03  0.93278988878E+03  0.70000000000E+03 0. -1.
<mgrwt>
<rscale>  0 0.14720868E+04</rscale>
<asrwt>0</asrwt>
<pdfrwt beam="1">  1        3 0.27123001E+00 0.14720868E+04</pdfrwt>
<pdfrwt beam="2">  1       -3 0.40763646E-01 0.14720868E+04</pdfrwt>
<totfact> 0.85669661E-01</totfact>
</mgrwt>
</event>
<event>
 8    1  0.1426346E-011  0.1844717E+04  0.7818608E-02  0.8682874E-01
          3   -1    0    0  501    0  0.00000000000E+00  0.00000000000E+00  0.40104842957E+03  0.40104844229E+03  0.10100000000E+00 0. -1.
         -3   -1    0    0    0  501 -0.00000000000E+00 -0.00000000000E+00 -0.21213030762E+04  0.21213030786E+04  0.10100000000E+00 0.  1.
     200001    2    1    2    0    0  0.27035476554E+03  0.24997191642E+03 -0.15089554646E+04  0.17036788131E+04  0.69999803270E+03 0.  0.
    5000001    2    3    3    0    0  0.13042016052E+02 -0.23124231599E+02 -0.15796007419E+02  0.84939636546E+02  0.79122713152E+02 0.  0.
        -11    1    4    4    0    0 -0.22456681099E+02 -0.23215813801E+01  0.13389301067E+02  0.26248155163E+02  0.51100000000E-03 0. -1.
     200002    1    4    4    0    0  0.35498697152E+02 -0.20802650219E+02 -0.29185308486E+02  0.58691481384E+02  0.30000000000E+02 0. -1.
     200000    1    3    3    0    0  0.25731274949E+03  0.27309614801E+03 -0.14931594571E+04  0.16187391765E+04  0.50000000000E+03 0.  1.
    -200001    1    1    2    0    0 -0.27035476554E+03 -0.24997191642E+03 -0.21129918209E+03  0.81867270786E+03  0.70000000000E+03 0.  1.
<mgrwt>
<rscale>  0 0.18447171E+04</rscale>
<asrwt>0</asrwt>
<pdfrwt beam="1">  1        3 0.57292635E-01 0.18447171E+04</pdfrwt>
<pdfrwt beam="2">  1       -3 0.30304329E+00 0.18447171E+04</pdfrwt>
<totfact> 0.27122622E-01</totfact>
</mgrwt>
</event>
<event>
 8    1  0.1426346E-011  0.1623855E+04  0.7818608E-02  0.8806026E-01
          3   -1    0    0  501    0  0.00000000000E+00  0.00000000000E+00  0.27456317837E+03  0.27456319695E+03  0.10100000000E+00 0.  1.
         -3   -1    0    0    0  501 -0.00000000000E+00 -0.00000000000E+00 -0.24009993951E+04  0.24009993973E+04  0.10100000000E+00 0. -1.
     200001    2    1    2    0    0 -0.23683635996E+03  0.29878693221E+03 -0.13029121522E+04  0.15294574607E+04  0.70448204756E+03 0.  0.
    5000001    2    3    3    0    0 -0.33010438411E+02  0.70514850547E+01 -0.32619125857E+03  0.37592450426E+03  0.18379086825E+03 0.  0.
        -11    1    4    4    0    0 -0.37274599821E+02 -0.72566758782E+02 -0.24506270643E+03  0.25828484345E+03  0.51100000000E-03 0. -1.
     200002    1    4    4    0    0  0.42641614101E+01  0.79618243836E+02 -0.81128552144E+02  0.11763966082E+03  0.30000000000E+02 0. -1.
     200000    1    3    3    0    0 -0.20382592155E+03  0.29173544715E+03 -0.97672089364E+03  0.11535329564E+04  0.50000000000E+03 0. -1.
    -200001    1    1    2    0    0  0.23683635996E+03 -0.29878693221E+03 -0.82352406456E+03  0.11461051336E+04  0.70000000000E+03 0.  1.
<mgrwt>
<rscale>  0 0.16238547E+04</rscale>
<asrwt>0</asrwt>
<pdfrwt beam="1">  1        3 0.39223314E-01 0.16238547E+04</pdfrwt>
<pdfrwt beam="2">  1       -3 0.34299990E+00 0.16238547E+04</pdfrwt>
<totfact> 0.35816581E-01</totfact>
</mgrwt>
</event>
<event>
 8    1  0.1426346E-011  0.3414913E+04  0.7818608E-02  0.8134256E-01
          3   -1    0    0  501    0  0.00000000000E+00  0.00000000000E+00  0.48055439285E+04  0.48055439296E+04  0.10100000000E+00 0.  1.
         -3   -1    0    0    0  501 -0.00000000000E+00 -0.00000000000E+00 -0.60667600593E+03  0.60667601434E+03  0.10100000000E+00 0. -1.
     200001    2    1    2    0    0 -0.86379102978E+03  0.11478114928E+04  0.30526637947E+04  0.34456518498E+04  0.70011017726E+03 0.  0.
    5000001    2    3    3    0    0 -0.11776712889E+03  0.16956913750E+03  0.64326417182E+03  0.69452184392E+03  0.16108695758E+03 0.  0.
        -11    1    4    4    0    0 -0.82322696827E+01  0.88618012920E+02  0.10103577972E+03  0.13464453670E+03  0.51100000000E-03 0. -1.
     200002    1    4    4    0    0 -0.10953485921E+03  0.80951124579E+02  0.54222839209E+03  0.55987730722E+03  0.30000000000E+02 0. -1.
     200000    1    3    3    0    0 -0.74602390089E+03  0.97824235526E+03  0.24093996229E+04  0.27511300059E+04  0.50000000000E+03 0.  1.
    -200001    1    1    2    0    0  0.86379102978E+03 -0.11478114928E+04  0.11462041278E+04  0.19665680941E+04  0.70000000000E+03 0. -1.
<mgrwt>
<rscale>  0 0.34149133E+04</rscale>
<asrwt>0</asrwt>
<pdfrwt beam="1">  1        3 0.68650633E+00 0.34149133E+04</pdfrwt>
<pdfrwt beam="2">  1       -3 0.86667995E-01 0.34149133E+04</pdfrwt>
<totfact> 0.10406593E-03</totfact>
</mgrwt>
</event>
<event>
 8    1  0.1426346E-011  0.1678207E+04  0.7818608E-02  0.8773892E-01
          3   -1    0    0  501    0  0.00000000000E+00  0.00000000000E+00  0.73067549475E+03  0.73067550173E+03  0.10100000000E+00 0.  1.
         -3   -1    0    0    0  501 -0.00000000000E+00 -0.00000000000E+00 -0.96362158271E+03  0.96362158800E+03  0.10100000000E+00 0. -1.
     200001    2    1    2    0    0 -0.25630202901E+03  0.15784534271E+03 -0.47155859552E+03  0.89583493593E+03  0.69967624023E+03 0.  0.
    5000001    2    3    3    0    0 -0.64110390158E+02 -0.93513661857E+01 -0.38031056973E+02  0.18672387821E+03  0.17094401195E+03 0.  0.
        -11    1    4    4    0    0  0.47159518105E+02  0.24878135436E+02  0.14909021912E+02  0.55364435383E+02  0.51100000000E-03 0. -1.
     200002    1    4    4    0    0 -0.11126990826E+03 -0.34229501622E+02 -0.52940078885E+02  0.13135944282E+03  0.30000000000E+02 0. -1.
     200000    1    3    3    0    0 -0.19219163885E+03  0.16719670889E+03 -0.43352753855E+03  0.70911105772E+03  0.50000000000E+03 0. -1.
    -200001    1    1    2    0    0  0.25630202901E+03 -0.15784534271E+03  0.23861250757E+03  0.79846215380E+03  0.70000000000E+03 0.  1.
<mgrwt>
<rscale>  0 0.16782070E+04</rscale>
<asrwt>0</asrwt>
<pdfrwt beam="1">  1        3 0.10438222E+00 0.16782070E+04</pdfrwt>
<pdfrwt beam="2">  1       -3 0.13766023E+00 0.16782070E+04</pdfrwt>
<totfact> 0.79840749E-01</totfact>
</mgrwt>
</event>
<event>
 8    1  0.1426346E-011  0.1587816E+04  0.7818608E-02  0.8828068E-01
         -3   -1    0    0    0  501 -0.00000000000E+00  0.00000000000E+00  0.56601927173E+03  0.56601928074E+03  0.10100000000E+00 0. -1.
          3   -1    0    0  501    0  0.00000000000E+00 -0.00000000000E+00 -0.11135490504E+04  0.11135490550E+04  0.10100000000E+00 0.  1.
     200001    2    1    2    0    0  0.37375136125E+02  0.33961097247E+03 -0.11170021494E+03  0.78699905434E+03  0.70011289097E+03 0.  0.
    5000001    2    3    3    0    0 -0.24550681580E+02  0.15480250085E+03 -0.74039217527E+02  0.24903313646E+03  0.17879918089E+03 0.  0.
        -11    1    4    4    0    0  0.74873484497E+02  0.49789813985E+02 -0.23549304810E+02  0.92949631601E+02  0.51100000000E-03 0. -1.
     200002    1    4    4    0    0 -0.99424166077E+02  0.10501268686E+03 -0.50489912717E+02  0.15608350486E+03  0.30000000000E+02 0. -1.
     200000    1    3    3    0    0  0.61925817705E+02  0.18480847162E+03 -0.37660997416E+02  0.53796591789E+03  0.50000000000E+03 0. -1.
    -200001    1    1    2    0    0 -0.37375136125E+02 -0.33961097247E+03 -0.43582956370E+03  0.89256928135E+03  0.70000000000E+03 0.  1.
<mgrwt>
<rscale>  0 0.15878164E+04</rscale>
<asrwt>0</asrwt>
<pdfrwt beam="1">  1        3 0.15907844E+00 0.15878164E+04</pdfrwt>
<pdfrwt beam="2">  1       -3 0.80859897E-01 0.15878164E+04</pdfrwt>
<totfact> 0.99591644E-01</totfact>
</mgrwt>
</event>
<event>
 8    1  0.1426346E-011  0.1612324E+04  0.7818608E-02  0.8813012E-01
         -3   -1    0    0    0  501 -0.00000000000E+00  0.00000000000E+00  0.17488851477E+04  0.17488851506E+04  0.10100000000E+00 0. -1.
          3   -1    0    0  501    0  0.00000000000E+00 -0.00000000000E+00 -0.37160676057E+03  0.37160677430E+03  0.10100000000E+00 0.  1.
     200001    2    1    2    0    0 -0.84637530118E+02  0.16143665880E+03  0.11564893868E+04  0.13642029002E+04  0.70025462848E+03 0.  0.
    5000001    2    3    3    0    0 -0.39450715865E+02  0.89117464985E+02  0.47871591896E+03  0.51765178671E+03  0.17116120960E+03 0.  0.
        -11    1    4    4    0    0 -0.10282155263E+03  0.69648674285E+02  0.29977424509E+03  0.32448082769E+03  0.51100000000E-03 0. -1.
     200002    1    4    4    0    0  0.63370836765E+02  0.19468790700E+02  0.17894167386E+03  0.19317095902E+03  0.30000000000E+02 0. -1.
     200000    1    3    3    0    0 -0.45186814253E+02  0.72319193812E+02  0.67777346785E+03  0.84655111346E+03  0.50000000000E+03 0. -1.
    -200001    1    1    2    0    0  0.84637530118E+02 -0.16143665880E+03  0.22078900033E+03  0.75628902476E+03  0.70000000000E+03 0.  1.
<mgrwt>
<rscale>  0 0.16123245E+04</rscale>
<asrwt>0</asrwt>
<pdfrwt beam="1">  1        3 0.53086681E-01 0.16123245E+04</pdfrwt>
<pdfrwt beam="2">  1       -3 0.24984074E+00 0.16123245E+04</pdfrwt>
<totfact> 0.64903472E-01</totfact>
</mgrwt>
</event>
<event>
 8    1  0.1426346E-011  0.2140449E+04  0.7818608E-02  0.8543631E-01
         -3   -1    0    0    0  501 -0.00000000000E+00  0.00000000000E+00  0.16978894343E+04  0.16978894373E+04  0.10100000000E+00 0. -1.
          3   -1    0    0  501    0  0.00000000000E+00 -0.00000000000E+00 -0.67459102889E+03  0.67459103645E+03  0.10100000000E+00 0.  1.
     200001    2    1    2    0    0 -0.34219142028E+03 -0.24553459095E+03  0.12778527678E+04  0.15168052276E+04  0.70029150992E+03 0.  0.
    5000001    2    3    3    0    0 -0.14082980086E+03 -0.10583438602E+03  0.33462977707E+03  0.42148232578E+03  0.18610833718E+03 0.  0.
        -11    1    4    4    0    0 -0.39255328653E+02  0.45033884751E+02  0.33719735115E+02  0.68600671570E+02  0.51100000000E-03 0. -1.
     200002    1    4    4    0    0 -0.10157447221E+03 -0.15086827077E+03  0.30091004195E+03  0.35288165421E+03  0.30000000000E+02 0. -1.
     200000    1    3    3    0    0 -0.20136161942E+03 -0.13970020493E+03  0.94322299072E+03  0.10953229018E+04  0.50000000000E+03 0. -1.
    -200001    1    1    2    0    0  0.34219142028E+03  0.24553459095E+03 -0.25455436238E+03  0.85567524615E+03  0.70000000000E+03 0.  1.
<mgrwt>
<rscale>  0 0.21404495E+04</rscale>
<asrwt>0</asrwt>
<pdfrwt beam="1">  1        3 0.96370148E-01 0.21404495E+04</pdfrwt>
<pdfrwt beam="2">  1       -3 0.24255563E+00 0.21404495E+04</pdfrwt>
<totfact> 0.18621157E-01</totfact>
</mgrwt>
</event>
<event>
 8    1  0.1426346E-011  0.1505272E+04  0.7818608E-02  0.8880954E-01
         -3   -1    0    0    0  501 -0.00000000000E+00  0.00000000000E+00  0.91187070090E+03  0.91187070649E+03  0.10100000000E+00 0.  1.
          3   -1    0    0  501    0  0.00000000000E+00 -0.00000000000E+00 -0.62120772680E+03  0.62120773501E+03  0.10100000000E+00 0. -1.
     200001    2    1    2    0    0 -0.19885375967E+03 -0.17356169663E+03  0.54026399372E+02  0.74843626268E+03  0.69826320768E+03 0.  0.
    5000001    2    3    3    0    0  0.50710487465E+01  0.16814994462E+02 -0.82125972117E+02  0.15990752060E+03  0.13607821381E+03 0.  0.
        -11    1    4    4    0    0  0.38086762393E+02  0.30203793085E+02 -0.99064100836E+02  0.11034748144E+03  0.51100000000E-03 0. -1.
     200002    1    4    4    0    0 -0.33015713647E+02 -0.13388798624E+02  0.16938128719E+02  0.49560039152E+02  0.30000000000E+02 0. -1.
     200000    1    3    3    0    0 -0.20392480842E+03 -0.19037669110E+03  0.13615237149E+03  0.58852874209E+03  0.50000000000E+03 0.  1.
    -200001    1    1    2    0    0  0.19885375967E+03  0.17356169663E+03  0.23663657473E+03  0.78464217882E+03  0.70000000000E+03 0.  1.
<mgrwt>
<rscale>  0 0.15052722E+04</rscale>
<asrwt>0</asrwt>
<pdfrwt beam="1">  1        3 0.88743962E-01 0.15052722E+04</pdfrwt>
<pdfrwt beam="2">  1       -3 0.13026724E+00 0.15052722E+04</pdfrwt>
<totfact> 0.13532146E+00</totfact>
</mgrwt>
</event>
<event>
 8    1  0.1426346E-011  0.1557926E+04  0.7818608E-02  0.8846821E-01
          3   -1    0    0  501    0  0.00000000000E+00  0.00000000000E+00  0.10438012284E+04  0.10438012333E+04  0.10100000000E+00 0.  1.
         -3   -1    0    0    0  501 -0.00000000000E+00 -0.00000000000E+00 -0.58132081586E+03  0.58132082464E+03  0.10100000000E+00 0. -1.
     200001    2    1    2    0    0  0.24301650725E+03 -0.55437539255E+01 -0.19326437717E+02  0.74125238599E+03  0.69999559465E+03 0.  0.
    5000001    2    3    3    0    0  0.15112541685E+03  0.63521108721E+02 -0.46014556679E+02  0.22751492050E+03  0.15090353460E+03 0.  0.
        -11    1    4    4    0    0  0.43528096180E+02 -0.40630690552E+02  0.17570298245E+02  0.62082715408E+02  0.51100000000E-03 0. -1.
     200002    1    4    4    0    0  0.10759732067E+03  0.10415179927E+03 -0.63584854924E+02  0.16543220510E+03  0.30000000000E+02 0. -1.
     200000    1    3    3    0    0  0.91891090400E+02 -0.69064862647E+02  0.26688118962E+02  0.51373746548E+03  0.50000000000E+03 0. -1.
    -200001    1    1    2    0    0 -0.24301650725E+03  0.55437539255E+01  0.48180685024E+03  0.88386967192E+03  0.70000000000E+03 0.  1.
<mgrwt>
<rscale>  0 0.15579260E+04</rscale>
<asrwt>0</asrwt>
<pdfrwt beam="1">  1        3 0.14911446E+00 0.15579260E+04</pdfrwt>
<pdfrwt beam="2">  1       -3 0.83045832E-01 0.15579260E+04</pdfrwt>
<totfact> 0.11135344E+00</totfact>
</mgrwt>
</event>
<event>
 8    1  0.1426346E-011  0.2210787E+04  0.7818608E-02  0.8513952E-01
          3   -1    0    0  501    0  0.00000000000E+00  0.00000000000E+00  0.14204741638E+04  0.14204741674E+04  0.10100000000E+00 0.  1.
         -3   -1    0    0    0  501 -0.00000000000E+00 -0.00000000000E+00 -0.86020174525E+03  0.86020175118E+03  0.10100000000E+00 0. -1.
     200001    2    1    2    0    0 -0.63041723894E+03  0.16818628909E+03  0.84965498753E+03  0.12809485587E+04  0.70228419399E+03 0.  0.
    5000001    2    3    3    0    0 -0.18306886931E+03  0.77629944399E+02  0.28719982114E+03  0.40079128318E+03  0.19649248393E+03 0.  0.
        -11    1    4    4    0    0 -0.11416206872E+03 -0.54009476447E+02  0.15252030107E+03  0.19802132137E+03  0.51100000000E-03 0. -1.
     200002    1    4    4    0    0 -0.68906800592E+02  0.13163942085E+03  0.13467952007E+03  0.20276996181E+03  0.30000000000E+02 0. -1.
     200000    1    3    3    0    0 -0.44734836963E+03  0.90556344688E+02  0.56245516639E+03  0.88015727548E+03  0.50000000000E+03 0. -1.
    -200001    1    1    2    0    0  0.63041723894E+03 -0.16818628909E+03 -0.28938256895E+03  0.99972735993E+03  0.70000000000E+03 0.  1.
<mgrwt>
<rscale>  0 0.22107866E+04</rscale>
<asrwt>0</asrwt>
<pdfrwt beam="1">  1        3 0.20292488E+00 0.22107866E+04</pdfrwt>
<pdfrwt beam="2">  1       -3 0.12288597E+00 0.22107866E+04</pdfrwt>
<totfact> 0.18100655E-01</totfact>
</mgrwt>
</event>
<event>
 8    1  0.1426346E-011  0.1469089E+04  0.7818608E-02  0.8905272E-01
         -3   -1    0    0    0  501 -0.00000000000E+00  0.00000000000E+00  0.10177476143E+04  0.10177476193E+04  0.10100000000E+00 0. -1.
          3   -1    0    0  501    0  0.00000000000E+00 -0.00000000000E+00 -0.53014700313E+03  0.53014701275E+03  0.10100000000E+00 0.  1.
     200001    2    1    2    0    0  0.14700643343E+03  0.72376936722E+02  0.80863559204E+02  0.72188958252E+03  0.69838122949E+03 0.  0.
    5000001    2    3    3    0    0  0.99292650146E+01  0.31918997414E+02 -0.51377214272E+02  0.18531282461E+03  0.17488228075E+03 0.  0.
        -11    1    4    4    0    0  0.28272804156E+02  0.87832895447E+02 -0.70979859443E+02  0.11641352767E+03  0.51100000000E-03 0. -1.
     200002    1    4    4    0    0 -0.18343539141E+02 -0.55913898033E+02  0.19602645170E+02  0.68899296942E+02  0.30000000000E+02 0. -1.
     200000    1    3    3    0    0  0.13707716842E+03  0.40457939307E+02  0.13224077348E+03  0.53657675791E+03  0.50000000000E+03 0.  1.
    -200001    1    1    2    0    0 -0.14700643343E+03 -0.72376936722E+02  0.40673705197E+03  0.82600504955E+03  0.70000000000E+03 0. -1.
<mgrwt>
<rscale>  0 0.14690893E+04</rscale>
<asrwt>0</asrwt>
<pdfrwt beam="1">  1        3 0.75735287E-01 0.14690893E+04</pdfrwt>
<pdfrwt beam="2">  1       -3 0.14539252E+00 0.14690893E+04</pdfrwt>
<totfact> 0.14649414E+00</totfact>
</mgrwt>
</event>
<event>
 8    1  0.1426346E-011  0.1717937E+04  0.7818608E-02  0.8751200E-01
         -3   -1    0    0    0  501 -0.00000000000E+00  0.00000000000E+00  0.83589928366E+03  0.83589928976E+03  0.10100000000E+00 0. -1.
          3   -1    0    0  501    0  0.00000000000E+00 -0.00000000000E+00 -0.88267403331E+03  0.88267403909E+03  0.10100000000E+00 0.  1.
     200001    2    1    2    0    0 -0.27666011002E+03  0.30231053299E+03  0.25750003525E+03  0.85225028312E+03  0.70149255312E+03 0.  0.
    5000001    2    3    3    0    0 -0.52473069148E+02 -0.28815148835E+01  0.10279387050E+03  0.20623479352E+03  0.17089319511E+03 0.  0.
        -11    1    4    4    0    0  0.19525042228E+01  0.70209886133E+02  0.68793658478E+01  0.70573125609E+02  0.51100000000E-03 0. -1.
     200002    1    4    4    0    0 -0.54425573371E+02 -0.73091401016E+02  0.95914504649E+02  0.13566166791E+03  0.30000000000E+02 0. -1.
     200000    1    3    3    0    0 -0.22418704087E+03  0.30519204787E+03  0.15470616476E+03  0.64601548959E+03  0.50000000000E+03 0.  1.
    -200001    1    1    2    0    0  0.27666011002E+03 -0.30231053299E+03 -0.30427478490E+03  0.86632304573E+03  0.70000000000E+03 0.  1.
<mgrwt>
<rscale>  0 0.17179367E+04</rscale>
<asrwt>0</asrwt>
<pdfrwt beam="1">  1        3 0.12609629E+00 0.17179367E+04</pdfrwt>
<pdfrwt beam="2">  1       -3 0.11941418E+00 0.17179367E+04</pdfrwt>
<totfact> 0.71854620E-01</totfact>
</mgrwt>
</event>
<event>
 8    1  0.1426346E-011  0.1648420E+04  0.7818608E-02  0.8791342E-01
          3   -1    0    0  501    0  0.00000000000E+00  0.00000000000E+00  0.16080184433E+04  0.16080184464E+04  0.10100000000E+00 0. -1.
         -3   -1    0    0    0  501 -0.00000000000E+00 -0.00000000000E+00 -0.42245901105E+03  0.42245902313E+03  0.10100000000E+00 0.  1.
     200001    2    1    2    0    0  0.31847848000E+03 -0.19542389858E+02  0.22759532471E+03  0.80185804985E+03  0.69954717715E+03 0.  0.
    5000001    2    3    3    0    0 -0.43732901945E+02 -0.23240031774E+02  0.59127585106E+02  0.16186419281E+03  0.14230699141E+03 0.  0.
        -11    1    4    4    0    0  0.47562070086E+02 -0.13735577998E+02  0.39476688531E+02  0.63318445586E+02  0.51100000000E-03 0. -1.
     200002    1    4    4    0    0 -0.91294972031E+02 -0.95044537764E+01  0.19650896575E+02  0.98545747224E+02  0.30000000000E+02 0. -1.
     200000    1    3    3    0    0  0.36221138195E+03  0.36976419158E+01  0.16846773961E+03  0.63999385704E+03  0.50000000000E+03 0. -1.
    -200001    1    1    2    0    0 -0.31847848000E+03  0.19542389858E+02  0.95796410751E+03  0.12286194197E+04  0.70000000000E+03 0. -1.
<mgrwt>
<rscale>  0 0.16484197E+04</rscale>
<asrwt>0</asrwt>
<pdfrwt beam="1">  1        3 0.22971692E+00 0.16484197E+04</pdfrwt>
<pdfrwt beam="2">  1       -3 0.60351289E-01 0.16484197E+04</pdfrwt>
<totfact> 0.65508451E-01</totfact>
</mgrwt>
</event>
<event>
 8    1  0.1426346E-011  0.1578428E+04  0.7818608E-02  0.8833911E-01
          3   -1    0    0  501    0  0.00000000000E+00  0.00000000000E+00  0.12627479241E+04  0.12627479281E+04  0.10100000000E+00 0.  1.
         -3   -1    0    0    0  501 -0.00000000000E+00 -0.00000000000E+00 -0.49325643099E+03  0.49325644134E+03  0.10100000000E+00 0. -1.
     200001    2    1    2    0    0  0.15572307364E+03 -0.29285843409E+03  0.55029616962E+03  0.95098118475E+03  0.70108744203E+03 0.  0.
    5000001    2    3    3    0    0  0.12207636286E+03 -0.13112441010E+03  0.26502150174E+03  0.35208918131E+03  0.14708550545E+03 0.  0.
        -11    1    4    4    0    0  0.69561377574E+02 -0.27339295046E+02  0.17206711754E+02  0.76696109636E+02  0.51100000000E-03 0. -1.
     200002    1    4    4    0    0  0.52514985286E+02 -0.10378511506E+03  0.24781478999E+03  0.27539307167E+03  0.30000000000E+02 0. -1.
     200000    1    3    3    0    0  0.33646710782E+02 -0.16173402398E+03  0.28527466787E+03  0.59889200345E+03  0.50000000000E+03 0.  1.
    -200001    1    1    2    0    0 -0.15572307364E+03  0.29285843409E+03  0.21919532347E+03  0.80502318470E+03  0.70000000000E+03 0. -1.
<mgrwt>
<rscale>  0 0.15784278E+04</rscale>
<asrwt>0</asrwt>
<pdfrwt beam="1">  1        3 0.18039256E+00 0.15784278E+04</pdfrwt>
<pdfrwt beam="2">  1       -3 0.70465205E-01 0.15784278E+04</pdfrwt>
<totfact> 0.96050208E-01</totfact>
</mgrwt>
</event>
<event>
 8    1  0.1426346E-011  0.1474931E+04  0.7818608E-02  0.8901297E-01
         -3   -1    0    0    0  501 -0.00000000000E+00  0.00000000000E+00  0.12820447819E+04  0.12820447859E+04  0.10100000000E+00 0. -1.
          3   -1    0    0  501    0  0.00000000000E+00 -0.00000000000E+00 -0.42420952144E+03  0.42420953346E+03  0.10100000000E+00 0.  1.
     200001    2    1    2    0    0 -0.14707931285E+03 -0.17960204551E+03  0.44197851680E+03  0.85959851545E+03  0.69976808975E+03 0.  0.
    5000001    2    3    3    0    0 -0.55662028617E+02 -0.12012800111E+03  0.16064825604E+03  0.27561136026E+03  0.18062325889E+03 0.  0.
        -11    1    4    4    0    0 -0.20388388235E+02 -0.14981665168E+03  0.63539595602E+02  0.16400608435E+03  0.51100000000E-03 0. -1.
     200002    1    4    4    0    0 -0.35273640382E+02  0.29688650563E+02  0.97108660437E+02  0.11160527591E+03  0.30000000000E+02 0. -1.
     200000    1    3    3    0    0 -0.91417284237E+02 -0.59474044392E+02  0.28133026076E+03  0.58398715519E+03  0.50000000000E+03 0.  1.
    -200001    1    1    2    0    0  0.14707931285E+03  0.17960204551E+03  0.41585674366E+03  0.84665580390E+03  0.70000000000E+03 0. -1.
<mgrwt>
<rscale>  0 0.14749313E+04</rscale>
<asrwt>0</asrwt>
<pdfrwt beam="1">  1        3 0.60601361E-01 0.14749313E+04</pdfrwt>
<pdfrwt beam="2">  1       -3 0.18314926E+00 0.14749313E+04</pdfrwt>
<totfact> 0.12763231E+00</totfact>
</mgrwt>
</event>
<event>
 8    1  0.1426346E-011  0.1792064E+04  0.7818608E-02  0.8710531E-01
         -3   -1    0    0    0  501 -0.00000000000E+00  0.00000000000E+00  0.90916801403E+03  0.90916801964E+03  0.10100000000E+00 0. -1.
          3   -1    0    0  501    0  0.00000000000E+00 -0.00000000000E+00 -0.88308616462E+03  0.88308617040E+03  0.10100000000E+00 0.  1.
     200001    2    1    2    0    0  0.27416403738E+03  0.40314838739E+03 -0.26234025967E+03  0.89176440406E+03  0.69908997909E+03 0.  0.
    5000001    2    3    3    0    0  0.12794295108E+03  0.23461668143E+03 -0.10629951241E+03  0.32243826133E+03  0.14578223518E+03 0.  0.
        -11    1    4    4    0    0  0.81277139532E+01  0.65200040599E+01 -0.57575296720E+02  0.58510554430E+02  0.51100000000E-03 0. -1.
     200002    1    4    4    0    0  0.11981523712E+03  0.22809667737E+03 -0.48724215692E+02  0.26392770690E+03  0.30000000000E+02 0. -1.
     200000    1    3    3    0    0  0.14622108631E+03  0.16853170596E+03 -0.15604074726E+03  0.56932614273E+03  0.50000000000E+03 0.  1.
    -200001    1    1    2    0    0 -0.27416403738E+03 -0.40314838739E+03  0.28842210908E+03  0.90048978598E+03  0.70000000000E+03 0. -1.
<mgrwt>
<rscale>  0 0.17920644E+04</rscale>
<asrwt>0</asrwt>
<pdfrwt beam="1">  1        3 0.12615517E+00 0.17920644E+04</pdfrwt>
<pdfrwt beam="2">  1       -3 0.12988115E+00 0.17920644E+04</pdfrwt>
<totfact> 0.57993518E-01</totfact>
</mgrwt>
</event>
<event>
 8    1  0.1426346E-011  0.1750418E+04  0.7818608E-02  0.8733120E-01
         -3   -1    0    0    0  501 -0.00000000000E+00  0.00000000000E+00  0.17165874735E+04  0.17165874765E+04  0.10100000000E+00 0. -1.
          3   -1    0    0  501    0  0.00000000000E+00 -0.00000000000E+00 -0.44622904042E+03  0.44622905185E+03  0.10100000000E+00 0.  1.
     200001    2    1    2    0    0  0.17042597548E+03 -0.42682494699E+03  0.95067713506E+03  0.12664791584E+04  0.69925524310E+03 0.  0.
    5000001    2    3    3    0    0  0.77132881848E+02 -0.12029896087E+03  0.22412163284E+03  0.32810573629E+03  0.19235786033E+03 0.  0.
        -11    1    4    4    0    0  0.10298146774E+03 -0.71197418570E+01  0.45126904855E+02  0.11266015695E+03  0.51100000000E-03 0. -1.
     200002    1    4    4    0    0 -0.25848585894E+02 -0.11317921901E+03  0.17899472799E+03  0.21544557934E+03  0.30000000000E+02 0. -1.
     200000    1    3    3    0    0  0.93293093628E+02 -0.30652598612E+03  0.72655550222E+03  0.93837342210E+03  0.50000000000E+03 0.  1.
    -200001    1    1    2    0    0 -0.17042597548E+03  0.42682494699E+03  0.31968129805E+03  0.89633736997E+03  0.70000000000E+03 0.  1.
<mgrwt>
<rscale>  0 0.17504185E+04</rscale>
<asrwt>0</asrwt>
<pdfrwt beam="1">  1        3 0.63747006E-01 0.17504185E+04</pdfrwt>
<pdfrwt beam="2">  1       -3 0.24522679E+00 0.17504185E+04</pdfrwt>
<totfact> 0.46472412E-01</totfact>
</mgrwt>
</event>
<event>
 8    1  0.1426346E-011  0.1688706E+04  0.7818608E-02  0.8767832E-01
         -3   -1    0    0    0  501 -0.00000000000E+00  0.00000000000E+00  0.14190878300E+04  0.14190878336E+04  0.10100000000E+00 0. -1.
          3   -1    0    0  501    0  0.00000000000E+00 -0.00000000000E+00 -0.50238774517E+03  0.50238775532E+03  0.10100000000E+00 0.  1.
     200001    2    1    2    0    0 -0.22738612283E+03 -0.20740068577E+03  0.52617173075E+02  0.76763037760E+03  0.70126195990E+03 0.  0.
    5000001    2    3    3    0    0 -0.12926939160E+03 -0.15836897534E+03  0.17188439506E+02  0.25451616347E+03  0.15063773453E+03 0.  0.
        -11    1    4    4    0    0 -0.71496143766E+02 -0.42676635281E+02  0.72787142445E+02  0.11059367919E+03  0.51100000000E-03 0. -1.
     200002    1    4    4    0    0 -0.57773247830E+02 -0.11569234005E+03 -0.55598702939E+02  0.14392248428E+03  0.30000000000E+02 0. -1.
     200000    1    3    3    0    0 -0.98116731235E+02 -0.49031710431E+02  0.35428733569E+02  0.51311421413E+03  0.50000000000E+03 0.  1.
    -200001    1    1    2    0    0  0.22738612283E+03  0.20740068577E+03  0.86408291179E+03  0.11538452114E+04  0.70000000000E+03 0. -1.
<mgrwt>
<rscale>  0 0.16887064E+04</rscale>
<asrwt>0</asrwt>
<pdfrwt beam="1">  1        3 0.71769678E-01 0.16887064E+04</pdfrwt>
<pdfrwt beam="2">  1       -3 0.20272683E+00 0.16887064E+04</pdfrwt>
<totfact> 0.65247801E-01</totfact>
</mgrwt>
</event>
<event>
 8    1  0.1426346E-011  0.2668416E+04  0.7818608E-02  0.8345326E-01
          3   -1    0    0  501    0  0.00000000000E+00  0.00000000000E+00  0.85211314990E+03  0.85211315589E+03  0.10100000000E+00 0.  1.
         -3   -1    0    0    0  501 -0.00000000000E+00 -0.00000000000E+00 -0.20890551711E+04  0.20890551735E+04  0.10100000000E+00 0. -1.
     200001    2    1    2    0    0 -0.12367043669E+03  0.10351793999E+04 -0.12163935776E+03  0.12616473269E+04  0.70004791063E+03 0.  0.
    5000001    2    3    3    0    0 -0.13417430295E+02  0.39905233976E+03 -0.13062088877E+02  0.43787406598E+03  0.17927711004E+03 0.  0.
        -11    1    4    4    0    0 -0.90419191208E+01  0.53685510437E+02  0.62659114196E+02  0.83006354723E+02  0.51100000000E-03 0. -1.
     200002    1    4    4    0    0 -0.43755111743E+01  0.34536682933E+03 -0.75721203073E+02  0.35486771126E+03  0.30000000000E+02 0. -1.
     200000    1    3    3    0    0 -0.11025300640E+03  0.63612706014E+03 -0.10857726889E+03  0.82377326091E+03  0.50000000000E+03 0. -1.
    -200001    1    1    2    0    0  0.12367043669E+03 -0.10351793999E+04 -0.11153026634E+04  0.16795210025E+04  0.70000000000E+03 0.  1.
<mgrwt>
<rscale>  0 0.26684163E+04</rscale>
<asrwt>0</asrwt>
<pdfrwt beam="1">  1        3 0.12173045E+00 0.26684163E+04</pdfrwt>
<pdfrwt beam="2">  1       -3 0.29843645E+00 0.26684163E+04</pdfrwt>
<totfact> 0.48994871E-02</totfact>
</mgrwt>
</event>
<event>
 8    1  0.1426346E-011  0.1780731E+04  0.7818608E-02  0.8716614E-01
         -3   -1    0    0    0  501 -0.00000000000E+00  0.00000000000E+00  0.16026654709E+04  0.16026654741E+04  0.10100000000E+00 0. -1.
          3   -1    0    0  501    0  0.00000000000E+00 -0.00000000000E+00 -0.49464523562E+03  0.49464524594E+03  0.10100000000E+00 0.  1.
     200001    2    1    2    0    0  0.42719931747E+03 -0.25523989060E+03  0.82979816328E+03  0.11945072088E+04  0.70045401091E+03 0.  0.
    5000001    2    3    3    0    0  0.11503622250E+03 -0.42874654542E+02  0.19215514470E+03  0.30056458729E+03  0.19581599272E+03 0.  0.
        -11    1    4    4    0    0  0.15825683860E+03 -0.66607009318E+02  0.15893449964E+03  0.23396986094E+03  0.51100000000E-03 0. -1.
     200002    1    4    4    0    0 -0.43220616094E+02  0.23732354775E+02  0.33220645062E+02  0.66594726346E+02  0.30000000000E+02 0. -1.
     200000    1    3    3    0    0  0.31216309497E+03 -0.21236523606E+03  0.63764301857E+03  0.89394262147E+03  0.50000000000E+03 0.  1.
    -200001    1    1    2    0    0 -0.42719931747E+03  0.25523989060E+03  0.27822207201E+03  0.90280351127E+03  0.70000000000E+03 0.  1.
<mgrwt>
<rscale>  0 0.17807311E+04</rscale>
<asrwt>0</asrwt>
<pdfrwt beam="1">  1        3 0.70663605E-01 0.17807311E+04</pdfrwt>
<pdfrwt beam="2">  1       -3 0.22895222E+00 0.17807311E+04</pdfrwt>
<totfact> 0.46305716E-01</totfact>
</mgrwt>
</event>
<event>
 8    1  0.1426346E-011  0.1664085E+04  0.7818608E-02  0.8782117E-01
          3   -1    0    0  501    0  0.00000000000E+00  0.00000000000E+00  0.25519380330E+04  0.25519380350E+04  0.10100000000E+00 0. -1.
         -3   -1    0    0    0  501 -0.00000000000E+00 -0.00000000000E+00 -0.27128193284E+03  0.27128195164E+03  0.10100000000E+00 0.  1.
     200001    2    1    2    0    0  0.30342990280E+03  0.20964499312E+03  0.15755539035E+04  0.17634134775E+04  0.70088248715E+03 0.  0.
    5000001    2    3    3    0    0  0.70098516333E+02  0.30137384381E+02  0.38461121983E+03  0.43864519842E+03  0.19662592848E+03 0.  0.
        -11    1    4    4    0    0  0.24819248403E+02 -0.82338833114E+02  0.15480499588E+03  0.17708829797E+03  0.51100000000E-03 0. -1.
     200002    1    4    4    0    0  0.45279267930E+02  0.11247621749E+03  0.22980622395E+03  0.26155690045E+03  0.30000000000E+02 0. -1.
     200000    1    3    3    0    0  0.23333138647E+03  0.17950760874E+03  0.11909426837E+04  0.13247682791E+04  0.50000000000E+03 0. -1.
    -200001    1    1    2    0    0 -0.30342990280E+03 -0.20964499312E+03  0.70510219666E+03  0.10598065091E+04  0.70000000000E+03 0. -1.
<mgrwt>
<rscale>  0 0.16640850E+04</rscale>
<asrwt>0</asrwt>
<pdfrwt beam="1">  1        3 0.36456256E+00 0.16640850E+04</pdfrwt>
<pdfrwt beam="2">  1       -3 0.38754565E-01 0.16640850E+04</pdfrwt>
<totfact> 0.28766257E-01</totfact>
</mgrwt>
</event>
<event>
 8    1  0.1426346E-011  0.2489218E+04  0.7818608E-02  0.8406837E-01
         -3   -1    0    0    0  501 -0.00000000000E+00  0.00000000000E+00  0.33465681940E+04  0.33465681955E+04  0.10100000000E+00 0. -1.
          3   -1    0    0  501    0  0.00000000000E+00 -0.00000000000E+00 -0.46287768426E+03  0.46287769528E+03  0.10100000000E+00 0.  1.
     200001    2    1    2    0    0  0.14983321643E+03 -0.36052097555E+03 -0.14249432856E+02  0.80270658094E+03  0.70121996705E+03 0.  0.
    5000001    2    3    3    0    0  0.33837789733E+01 -0.55602783479E+02 -0.60753738691E+01  0.19897704147E+03  0.19092363231E+03 0.  0.
        -11    1    4    4    0    0  0.75763656184E+02 -0.83041887953E+02  0.14788200489E+02  0.11337891174E+03  0.51100000000E-03 0. -1.
     200002    1    4    4    0    0 -0.72379877210E+02  0.27439104474E+02 -0.20863574358E+02  0.85598129736E+02  0.30000000000E+02 0. -1.
     200000    1    3    3    0    0  0.14644943745E+03 -0.30491819207E+03 -0.81740589871E+01  0.60372953947E+03  0.50000000000E+03 0.  1.
    -200001    1    1    2    0    0 -0.14983321643E+03  0.36052097555E+03  0.28979399426E+04  0.30067393099E+04  0.70000000000E+03 0. -1.
<mgrwt>
<rscale>  0 0.24892182E+04</rscale>
<asrwt>0</asrwt>
<pdfrwt beam="1">  1        3 0.66125384E-01 0.24892182E+04</pdfrwt>
<pdfrwt beam="2">  1       -3 0.47808117E+00 0.24892182E+04</pdfrwt>
<totfact> 0.20571607E-02</totfact>
</mgrwt>
</event>
<event>
 8    1  0.1426346E-011  0.1644186E+04  0.7818608E-02  0.8793854E-01
          3   -1    0    0  501    0  0.00000000000E+00  0.00000000000E+00  0.59600794597E+03  0.59600795453E+03  0.10100000000E+00 0.  1.
         -3   -1    0    0    0  501 -0.00000000000E+00 -0.00000000000E+00 -0.11339391236E+04  0.11339391281E+04  0.10100000000E+00 0. -1.
     200001    2    1    2    0    0 -0.36573628823E+03 -0.21023819799E+03 -0.15993674887E+03  0.82947891518E+03  0.69605486470E+03 0.  0.
    5000001    2    3    3    0    0 -0.11947973219E+03 -0.54578845460E+02  0.13017041307E+02  0.22550446294E+03  0.18283479610E+03 0.  0.
        -11    1    4    4    0    0 -0.88082801406E+02  0.14319163653E+01  0.86465280204E+02  0.12343773722E+03  0.51100000000E-03 0. -1.
     200002    1    4    4    0    0 -0.31396930782E+02 -0.56010761825E+02 -0.73448238896E+02  0.10206672572E+03  0.30000000000E+02 0. -1.
     200000    1    3    3    0    0 -0.24625655604E+03 -0.15565935253E+03 -0.17295379018E+03  0.60397445224E+03  0.50000000000E+03 0. -1.
    -200001    1    1    2    0    0  0.36573628823E+03  0.21023819799E+03 -0.37799442877E+03  0.90046816746E+03  0.70000000000E+03 0.  1.
<mgrwt>
<rscale>  0 0.16441858E+04</rscale>
<asrwt>0</asrwt>
<pdfrwt beam="1">  1        3 0.85143994E-01 0.16441858E+04</pdfrwt>
<pdfrwt beam="2">  1       -3 0.16199130E+00 0.16441858E+04</pdfrwt>
<totfact> 0.83883316E-01</totfact>
</mgrwt>
</event>
<event>
 8    1  0.1426346E-011  0.1697368E+04  0.7818608E-02  0.8762867E-01
         -3   -1    0    0    0  501 -0.00000000000E+00  0.00000000000E+00  0.42348341110E+03  0.42348342314E+03  0.10100000000E+00 0. -1.
          3   -1    0    0  501    0  0.00000000000E+00 -0.00000000000E+00 -0.17008086934E+04  0.17008086964E+04  0.10100000000E+00 0.  1.
     200001    2    1    2    0    0  0.26517301948E+03  0.26816374746E+03 -0.26779704292E+03  0.83923344703E+03  0.70026351947E+03 0.  0.
    5000001    2    3    3    0    0  0.92470494484E+02  0.13582988027E+03 -0.71754604177E+02  0.25977589696E+03  0.18797405325E+03 0.  0.
        -11    1    4    4    0    0 -0.10225082390E+02  0.12962016638E+03 -0.79377099582E+02  0.15233733548E+03  0.51100000000E-03 0. -1.
     200002    1    4    4    0    0  0.10269557687E+03  0.62097138818E+01  0.76224954053E+01  0.10743856148E+03  0.30000000000E+02 0. -1.
     200000    1    3    3    0    0  0.17270252499E+03  0.13233386719E+03 -0.19604243874E+03  0.57945755007E+03  0.50000000000E+03 0. -1.
    -200001    1    1    2    0    0 -0.26517301948E+03 -0.26816374746E+03 -0.10095282394E+04  0.12850586725E+04  0.70000000000E+03 0. -1.
<mgrwt>
<rscale>  0 0.16973677E+04</rscale>
<asrwt>0</asrwt>
<pdfrwt beam="1">  1        3 0.24297267E+00 0.16973677E+04</pdfrwt>
<pdfrwt beam="2">  1       -3 0.60497632E-01 0.16973677E+04</pdfrwt>
<totfact> 0.54289708E-01</totfact>
</mgrwt>
</event>
<event>
 8    1  0.1426346E-011  0.1596214E+04  0.7818608E-02  0.8822877E-01
          3   -1    0    0  501    0  0.00000000000E+00  0.00000000000E+00  0.21887209333E+04  0.21887209356E+04  0.10100000000E+00 0.  1.
         -3   -1    0    0    0  501 -0.00000000000E+00 -0.00000000000E+00 -0.29102598598E+03  0.29102600351E+03  0.10100000000E+00 0. -1.
     200001    2    1    2    0    0 -0.30282213455E+03  0.20467722509E+03  0.76648889403E+03  0.11001741260E+04  0.69948829246E+03 0.  0.
    5000001    2    3    3    0    0 -0.77943611572E+02 -0.61267605155E+02  0.19783444515E+03  0.26670853883E+03  0.14888267518E+03 0.  0.
        -11    1    4    4    0    0 -0.84438545741E+02 -0.74447420474E+02  0.20375402114E+03  0.23278313416E+03  0.51100000000E-03 0. -1.
     200002    1    4    4    0    0  0.64949341686E+01  0.13179815319E+02 -0.59195759874E+01  0.33925404663E+02  0.30000000000E+02 0. -1.
     200000    1    3    3    0    0 -0.22487852298E+03  0.26594483025E+03  0.56865444888E+03  0.83346558721E+03  0.50000000000E+03 0.  1.
    -200001    1    1    2    0    0  0.30282213455E+03 -0.20467722509E+03  0.11312060533E+04  0.13795728131E+04  0.70000000000E+03 0. -1.
<mgrwt>
<rscale>  0 0.15962139E+04</rscale>
<asrwt>0</asrwt>
<pdfrwt beam="1">  1        3 0.31267444E+00 0.15962139E+04</pdfrwt>
<pdfrwt beam="2">  1       -3 0.41575139E-01 0.15962139E+04</pdfrwt>
<totfact> 0.48101462E-01</totfact>
</mgrwt>
</event>
<event>
 8    1  0.1426346E-011  0.2128382E+04  0.7818608E-02  0.8548843E-01
         -3   -1    0    0    0  501 -0.00000000000E+00  0.00000000000E+00  0.11818509446E+04  0.11818509489E+04  0.10100000000E+00 0.  1.
          3   -1    0    0  501    0  0.00000000000E+00 -0.00000000000E+00 -0.95824435064E+03  0.95824435596E+03  0.10100000000E+00 0. -1.
     200001    2    1    2    0    0 -0.23227240886E+03  0.73373923578E+03 -0.11472191201E+03  0.10461163673E+04  0.69919567985E+03 0.  0.
    5000001    2    3    3    0    0 -0.27401374012E+02  0.27249201743E+03 -0.11680078777E+01  0.32666127728E+03  0.17805474150E+03 0.  0.
        -11    1    4    4    0    0 -0.16127283977E+02  0.23704426014E+03 -0.65562498641E+02  0.24647213186E+03  0.51100000000E-03 0. -1.
     200002    1    4    4    0    0 -0.11274090035E+02  0.35447757289E+02  0.64394490763E+02  0.80189145422E+02  0.30000000000E+02 0. -1.
     200000    1    3    3    0    0 -0.20487103485E+03  0.46124721835E+03 -0.11355390413E+03  0.71945508998E+03  0.50000000000E+03 0. -1.
    -200001    1    1    2    0    0  0.23227240886E+03 -0.73373923578E+03  0.33832850600E+03  0.10939789376E+04  0.70000000000E+03 0.  1.
<mgrwt>
<rscale>  0 0.21283815E+04</rscale>
<asrwt>0</asrwt>
<pdfrwt beam="1">  1        3 0.13689205E+00 0.21283815E+04</pdfrwt>
<pdfrwt beam="2">  1       -3 0.16883585E+00 0.21283815E+04</pdfrwt>
<totfact> 0.23318814E-01</totfact>
</mgrwt>
</event>
<event>
 8    1  0.1426346E-011  0.1592996E+04  0.7818608E-02  0.8824862E-01
          3   -1    0    0  501    0  0.00000000000E+00  0.00000000000E+00  0.35208745864E+03  0.35208747313E+03  0.10100000000E+00 0.  1.
         -3   -1    0    0    0  501 -0.00000000000E+00 -0.00000000000E+00 -0.18018516362E+04  0.18018516391E+04  0.10100000000E+00 0. -1.
     200001    2    1    2    0    0  0.17030509472E+03 -0.31858826355E+02 -0.26912847636E+03  0.77049432865E+03  0.70086558168E+03 0.  0.
    5000001    2    3    3    0    0  0.14737666243E+03 -0.61867792982E+01 -0.11055436532E+03  0.24482283836E+03  0.16111423781E+03 0.  0.
        -11    1    4    4    0    0  0.66816939781E+01 -0.28414242897E+02 -0.93871601812E+02  0.98305095804E+02  0.51100000000E-03 0. -1.
     200002    1    4    4    0    0  0.14069496845E+03  0.22227463599E+02 -0.16682763507E+02  0.14651774255E+03  0.30000000000E+02 0. -1.
     200000    1    3    3    0    0  0.22928432292E+02 -0.25672047057E+02 -0.15857411104E+03  0.52567149029E+03  0.50000000000E+03 0.  1.
    -200001    1    1    2    0    0 -0.17030509472E+03  0.31858826355E+02 -0.11806357012E+04  0.13834447835E+04  0.70000000000E+03 0. -1.
<mgrwt>
<rscale>  0 0.15929964E+04</rscale>
<asrwt>0</asrwt>
<pdfrwt beam="1">  1        3 0.50298211E-01 0.15929964E+04</pdfrwt>
<pdfrwt beam="2">  1       -3 0.25740737E+00 0.15929964E+04</pdfrwt>
<totfact> 0.65697570E-01</totfact>
</mgrwt>
</event>
<event>
 8    1  0.1426346E-011  0.1483676E+04  0.7818608E-02  0.8895381E-01
          3   -1    0    0  501    0  0.00000000000E+00  0.00000000000E+00  0.60677829724E+03  0.60677830565E+03  0.10100000000E+00 0.  1.
         -3   -1    0    0    0  501 -0.00000000000E+00 -0.00000000000E+00 -0.90696028166E+03  0.90696028729E+03  0.10100000000E+00 0. -1.
     200001    2    1    2    0    0 -0.10816771669E+02  0.32604968343E+02 -0.39798960176E+03  0.80610421240E+03  0.70016297505E+03 0.  0.
    5000001    2    3    3    0    0  0.13048198811E+02  0.42985307138E+02 -0.11370728886E+03  0.23034929780E+03  0.19522668705E+03 0.  0.
        -11    1    4    4    0    0  0.10494445206E+02 -0.48812304059E+02 -0.12353372490E+03  0.13324171867E+03  0.51100000000E-03 0. -1.
     200002    1    4    4    0    0  0.25537536048E+01  0.91797611197E+02  0.98264360427E+01  0.97107579129E+02  0.30000000000E+02 0. -1.
     200000    1    3    3    0    0 -0.23864970479E+02 -0.10380338795E+02 -0.28428231291E+03  0.57575491460E+03  0.50000000000E+03 0. -1.
    -200001    1    1    2    0    0  0.10816771669E+02 -0.32604968343E+02  0.97807617339E+02  0.70763438054E+03  0.70000000000E+03 0.  1.
<mgrwt>
<rscale>  0 0.14836763E+04</rscale>
<asrwt>0</asrwt>
<pdfrwt beam="1">  1        3 0.86682615E-01 0.14836763E+04</pdfrwt>
<pdfrwt beam="2">  1       -3 0.12956575E+00 0.14836763E+04</pdfrwt>
<totfact> 0.14489305E+00</totfact>
</mgrwt>
</event>
<event>
 8    1  0.1426346E-011  0.1776185E+04  0.7818608E-02  0.8719068E-01
         -3   -1    0    0    0  501 -0.00000000000E+00  0.00000000000E+00  0.13315647855E+04  0.13315647893E+04  0.10100000000E+00 0. -1.
          3   -1    0    0  501    0  0.00000000000E+00 -0.00000000000E+00 -0.59231685575E+03  0.59231686436E+03  0.10100000000E+00 0.  1.
     200001    2    1    2    0    0  0.44580526110E+03  0.31441159599E+03  0.38786260349E+03  0.96938250228E+03  0.70119045488E+03 0.  0.
    5000001    2    3    3    0    0  0.21540085274E+03  0.12415557893E+03  0.18152805947E+03  0.35143631734E+03  0.16953735173E+03 0.  0.
        -11    1    4    4    0    0  0.10449396693E+03  0.65825872106E+01  0.15176118894E+03  0.18437401674E+03  0.51100000000E-03 0. -1.
     200002    1    4    4    0    0  0.11090688581E+03  0.11757299172E+03  0.29766870527E+02  0.16706230060E+03  0.30000000000E+02 0. -1.
     200000    1    3    3    0    0  0.23040440837E+03  0.19025601706E+03  0.20633454402E+03  0.61794618494E+03  0.50000000000E+03 0. -1.
    -200001    1    1    2    0    0 -0.44580526110E+03 -0.31441159599E+03  0.35138532624E+03  0.95449915140E+03  0.70000000000E+03 0. -1.
<mgrwt>
<rscale>  0 0.17761850E+04</rscale>
<asrwt>0</asrwt>
<pdfrwt beam="1">  1        3 0.84616695E-01 0.17761850E+04</pdfrwt>
<pdfrwt beam="2">  1       -3 0.19022354E+00 0.17761850E+04</pdfrwt>
<totfact> 0.54075840E-01</totfact>
</mgrwt>
</event>
<event>
 8    1  0.1426346E-011  0.1611244E+04  0.7818608E-02  0.8813670E-01
          3   -1    0    0  501    0  0.00000000000E+00  0.00000000000E+00  0.40754548106E+03  0.40754549358E+03  0.10100000000E+00 0.  1.
         -3   -1    0    0    0  501 -0.00000000000E+00 -0.00000000000E+00 -0.15925260737E+04  0.15925260769E+04  0.10100000000E+00 0. -1.
     200001    2    1    2    0    0  0.34172346038E+03  0.20172935416E+03 -0.65217451810E+03  0.10350057858E+04  0.69888176316E+03 0.  0.
    5000001    2    3    3    0    0 -0.19278463974E+02 -0.10594422428E+02 -0.20486135958E+03  0.24412473452E+03  0.13093818539E+03 0.  0.
        -11    1    4    4    0    0  0.75944809080E+01  0.16860963781E+02 -0.19309823859E+03  0.19398169498E+03  0.51100000000E-03 0. -1.
     200002    1    4    4    0    0 -0.26872944882E+02 -0.27455386209E+02 -0.11763120990E+02  0.50143039536E+02  0.30000000000E+02 0. -1.
     200000    1    3    3    0    0  0.36100192436E+03  0.21232377658E+03 -0.44731315852E+03  0.79088105128E+03  0.50000000000E+03 0. -1.
    -200001    1    1    2    0    0 -0.34172346038E+03 -0.20172935416E+03 -0.53280607453E+03  0.96506578468E+03  0.70000000000E+03 0.  1.
<mgrwt>
<rscale>  0 0.16112440E+04</rscale>
<asrwt>0</asrwt>
<pdfrwt beam="1">  1        3 0.58220785E-01 0.16112440E+04</pdfrwt>
<pdfrwt beam="2">  1       -3 0.22750372E+00 0.16112440E+04</pdfrwt>
<totfact> 0.72451139E-01</totfact>
</mgrwt>
</event>
<event>
 8    1  0.1426346E-011  0.1468889E+04  0.7818608E-02  0.8905409E-01
          3   -1    0    0  501    0  0.00000000000E+00  0.00000000000E+00  0.11442322402E+04  0.11442322446E+04  0.10100000000E+00 0.  1.
         -3   -1    0    0    0  501 -0.00000000000E+00 -0.00000000000E+00 -0.47141548790E+03  0.47141549872E+03  0.10100000000E+00 0. -1.
     200001    2    1    2    0    0  0.72304266473E+02  0.17616217566E+03  0.21486428412E+03  0.75775411231E+03  0.70125859356E+03 0.  0.
    5000001    2    3    3    0    0  0.56737217655E+02  0.86471196486E+02  0.99131452245E+02  0.23652393942E+03  0.18820241605E+03 0.  0.
        -11    1    4    4    0    0  0.24509415150E+01 -0.35578966919E+01  0.12426968223E+03  0.12434476131E+03  0.51100000000E-03 0. -1.
     200002    1    4    4    0    0  0.54286276140E+02  0.90029093178E+02 -0.25138229984E+02  0.11217917811E+03  0.30000000000E+02 0. -1.
     200000    1    3    3    0    0  0.15567048819E+02  0.89690979173E+02  0.11573283188E+03  0.52123017289E+03  0.50000000000E+03 0. -1.
    -200001    1    1    2    0    0 -0.72304266473E+02 -0.17616217566E+03  0.45795246814E+03  0.85789363103E+03  0.70000000000E+03 0.  1.
<mgrwt>
<rscale>  0 0.14688891E+04</rscale>
<asrwt>0</asrwt>
<pdfrwt beam="1">  1        3 0.16346175E+00 0.14688891E+04</pdfrwt>
<pdfrwt beam="2">  1       -3 0.67345071E-01 0.14688891E+04</pdfrwt>
<totfact> 0.13967179E+00</totfact>
</mgrwt>
</event>
<event>
 8    1  0.1426346E-011  0.1746250E+04  0.7818608E-02  0.8735417E-01
          3   -1    0    0  501    0  0.00000000000E+00  0.00000000000E+00  0.21732012029E+03  0.21732014376E+03  0.10100000000E+00 0.  1.
         -3   -1    0    0    0  501 -0.00000000000E+00 -0.00000000000E+00 -0.35079469416E+04  0.35079469430E+04  0.10100000000E+00 0. -1.
     200001    2    1    2    0    0  0.17634710367E+03 -0.47734328230E+03 -0.14210981393E+04  0.16651475750E+04  0.70302319651E+03 0.  0.
    5000001    2    3    3    0    0  0.14395547246E+03 -0.23990444133E+03 -0.59664114426E+03  0.67159045149E+03  0.12952127428E+03 0.  0.
        -11    1    4    4    0    0  0.11591030328E+03 -0.17566704875E+03 -0.53025877775E+03  0.57049845031E+03  0.51100000000E-03 0. -1.
     200002    1    4    4    0    0  0.28045169187E+02 -0.64237392575E+02 -0.66382366506E+02  0.10109200118E+03  0.30000000000E+02 0. -1.
     200000    1    3    3    0    0  0.32391631204E+02 -0.23743884097E+03 -0.82445699500E+03  0.99355712346E+03  0.50000000000E+03 0.  1.
    -200001    1    1    2    0    0 -0.17634710367E+03  0.47734328230E+03 -0.18695286820E+04  0.20601195118E+04  0.70000000000E+03 0. -1.
<mgrwt>
<rscale>  0 0.17462503E+04</rscale>
<asrwt>0</asrwt>
<pdfrwt beam="1">  1        3 0.31045735E-01 0.17462503E+04</pdfrwt>
<pdfrwt beam="2">  1       -3 0.50113524E+00 0.17462503E+04</pdfrwt>
<totfact> 0.76623049E-02</totfact>
</mgrwt>
</event>
<event>
 8    1  0.1426346E-011  0.1469090E+04  0.7818608E-02  0.8905272E-01
         -3   -1    0    0    0  501 -0.00000000000E+00  0.00000000000E+00  0.11874889994E+04  0.11874890037E+04  0.10100000000E+00 0. -1.
          3   -1    0    0  501    0  0.00000000000E+00 -0.00000000000E+00 -0.45436714401E+03  0.45436715524E+03  0.10100000000E+00 0.  1.
     200001    2    1    2    0    0  0.16416685085E+03 -0.12298158617E+03  0.27265813552E+03  0.77924265177E+03  0.70057221328E+03 0.  0.
    5000001    2    3    3    0    0 -0.33518597725E+02 -0.70855006822E+02  0.16024929666E+03  0.22748866320E+03  0.14116418249E+03 0.  0.
        -11    1    4    4    0    0  0.48852473546E+02 -0.10954756114E+02  0.26267931361E+02  0.56538262012E+02  0.51100000000E-03 0. -1.
     200002    1    4    4    0    0 -0.82371071271E+02 -0.59900250708E+02  0.13398136530E+03  0.17095040118E+03  0.30000000000E+02 0. -1.
     200000    1    3    3    0    0  0.19768544858E+03 -0.52126579350E+02  0.11240883886E+03  0.55175398857E+03  0.50000000000E+03 0. -1.
    -200001    1    1    2    0    0 -0.16416685085E+03  0.12298158617E+03  0.46046371990E+03  0.86261350720E+03  0.70000000000E+03 0. -1.
<mgrwt>
<rscale>  0 0.14690895E+04</rscale>
<asrwt>0</asrwt>
<pdfrwt beam="1">  1        3 0.64909593E-01 0.14690895E+04</pdfrwt>
<pdfrwt beam="2">  1       -3 0.16964129E+00 0.14690895E+04</pdfrwt>
<totfact> 0.13627280E+00</totfact>
</mgrwt>
</event>
<event>
 8    1  0.1426346E-011  0.1678628E+04  0.7818608E-02  0.8773649E-01
          3   -1    0    0  501    0  0.00000000000E+00  0.00000000000E+00  0.14955242157E+04  0.14955242191E+04  0.10100000000E+00 0.  1.
         -3   -1    0    0    0  501 -0.00000000000E+00 -0.00000000000E+00 -0.47103727446E+03  0.47103728529E+03  0.10100000000E+00 0. -1.
     200001    2    1    2    0    0  0.33546331647E+03 -0.30178952232E+03  0.63100656866E+03  0.10454538255E+04  0.70085081089E+03 0.  0.
    5000001    2    3    3    0    0  0.20082051170E+03 -0.62544436180E+02  0.10777856266E+03  0.27141607296E+03  0.13345329399E+03 0.  0.
        -11    1    4    4    0    0  0.11163547331E+03 -0.87838263303E+01 -0.87030248004E+01  0.11231819598E+03  0.51100000000E-03 0. -1.
     200002    1    4    4    0    0  0.89185038385E+02 -0.53760609849E+02  0.11648158746E+03  0.15909787698E+03  0.30000000000E+02 0. -1.
     200000    1    3    3    0    0  0.13464280477E+03 -0.23924508614E+03  0.52322800600E+03  0.77403775256E+03  0.50000000000E+03 0.  1.
    -200001    1    1    2    0    0 -0.33546331647E+03  0.30178952232E+03  0.39348037258E+03  0.92110767888E+03  0.70000000000E+03 0. -1.
<mgrwt>
<rscale>  0 0.16786276E+04</rscale>
<asrwt>0</asrwt>
<pdfrwt beam="1">  1        3 0.21364632E+00 0.16786276E+04</pdfrwt>
<pdfrwt beam="2">  1       -3 0.67291041E-01 0.16786276E+04</pdfrwt>
<totfact> 0.64679842E-01</totfact>
</mgrwt>
</event>
<event>
 8    1  0.1426346E-011  0.1496714E+04  0.7818608E-02  0.8886641E-01
         -3   -1    0    0    0  501 -0.00000000000E+00  0.00000000000E+00  0.10202278534E+04  0.10202278584E+04  0.10100000000E+00 0. -1.
          3   -1    0    0  501    0  0.00000000000E+00 -0.00000000000E+00 -0.54893435004E+03  0.54893435933E+03  0.10100000000E+00 0.  1.
     200001    2    1    2    0    0 -0.24453643742E+03 -0.49399848739E+02  0.32908591326E+03  0.81255041970E+03  0.69978727623E+03 0.  0.
    5000001    2    3    3    0    0 -0.10397435162E+03  0.96957764616E+02  0.10540894740E+03  0.22841889684E+03  0.14440454399E+03 0.  0.
        -11    1    4    4    0    0 -0.64212660640E+02  0.87987807500E+02 -0.27957569977E+01  0.10896300433E+03  0.51100000000E-03 0. -1.
     200002    1    4    4    0    0 -0.39761690978E+02  0.89699571161E+01  0.10820470440E+03  0.11945589251E+03  0.30000000000E+02 0. -1.
     200000    1    3    3    0    0 -0.14056208580E+03 -0.14635761336E+03  0.22367696585E+03  0.58413152287E+03  0.50000000000E+03 0.  1.
    -200001    1    1    2    0    0  0.24453643742E+03  0.49399848739E+02  0.14220759014E+03  0.75661179807E+03  0.70000000000E+03 0.  1.
<mgrwt>
<rscale>  0 0.14967139E+04</rscale>
<asrwt>0</asrwt>
<pdfrwt beam="1">  1        3 0.78419194E-01 0.14967139E+04</pdfrwt>
<pdfrwt beam="2">  1       -3 0.14574684E+00 0.14967139E+04</pdfrwt>
<totfact> 0.13451506E+00</totfact>
</mgrwt>
</event>
<event>
 8    1  0.1426346E-011  0.1775152E+04  0.7818608E-02  0.8719626E-01
          3   -1    0    0  501    0  0.00000000000E+00  0.00000000000E+00  0.18677541837E+03  0.18677544567E+03  0.10100000000E+00 0. -1.
         -3   -1    0    0    0  501 -0.00000000000E+00 -0.00000000000E+00 -0.42178535526E+04  0.42178535538E+04  0.10100000000E+00 0.  1.
     200001    2    1    2    0    0  0.52591489621E+03 -0.11680802862E+03 -0.22305861652E+04  0.23991360616E+04  0.70007757268E+03 0.  0.
    5000001    2    3    3    0    0  0.19645270425E+03 -0.78941802442E+02 -0.76933169954E+03  0.81950198985E+03  0.18678001571E+03 0.  0.
        -11    1    4    4    0    0  0.20959183255E+03 -0.14829453838E+02 -0.55845246624E+03  0.59667227690E+03  0.51100000000E-03 0. -1.
     200002    1    4    4    0    0 -0.13139128296E+02 -0.64112348604E+02 -0.21087923330E+03  0.22282971295E+03  0.30000000000E+02 0. -1.
     200000    1    3    3    0    0  0.32946219196E+03 -0.37866226183E+02 -0.14612544657E+04  0.15796340717E+04  0.50000000000E+03 0. -1.
    -200001    1    1    2    0    0 -0.52591489621E+03  0.11680802862E+03 -0.18004919690E+04  0.20054929379E+04  0.70000000000E+03 0.  1.
<mgrwt>
<rscale>  0 0.17751523E+04</rscale>
<asrwt>0</asrwt>
<pdfrwt beam="1">  1        3 0.26682207E-01 0.17751523E+04</pdfrwt>
<pdfrwt beam="2">  1       -3 0.60255045E+00 0.17751523E+04</pdfrwt>
<totfact> 0.29965314E-02</totfact>
</mgrwt>
</event>
<event>
 8    1  0.1426346E-011  0.1574484E+04  0.7818608E-02  0.8836378E-01
         -3   -1    0    0    0  501 -0.00000000000E+00  0.00000000000E+00  0.45782810189E+03  0.45782811303E+03  0.10100000000E+00 0. -1.
          3   -1    0    0  501    0  0.00000000000E+00 -0.00000000000E+00 -0.13536745940E+04  0.13536745978E+04  0.10100000000E+00 0.  1.
     200001    2    1    2    0    0 -0.21452332103E+01  0.23123722236E+03 -0.12999669395E+03  0.74848757998E+03  0.69989946558E+03 0.  0.
    5000001    2    3    3    0    0 -0.11785093675E+02  0.83264558570E+02  0.55246863130E+02  0.19504019171E+03  0.16708257046E+03 0.  0.
        -11    1    4    4    0    0  0.73757842535E+02  0.19900468375E+02  0.24910826994E+02  0.80354198887E+02  0.51100000000E-03 0. -1.
     200002    1    4    4    0    0 -0.85542936210E+02  0.63364090195E+02  0.30336036136E+02  0.11468599282E+03  0.30000000000E+02 0. -1.
     200000    1    3    3    0    0  0.96398604645E+01  0.14797266380E+03 -0.18524355708E+03  0.55344738827E+03  0.50000000000E+03 0.  1.
    -200001    1    1    2    0    0  0.21452332103E+01 -0.23123722236E+03 -0.76584979820E+03  0.10630151309E+04  0.70000000000E+03 0.  1.
<mgrwt>
<rscale>  0 0.15744844E+04</rscale>
<asrwt>0</asrwt>
<pdfrwt beam="1">  1        3 0.19338208E+00 0.15744844E+04</pdfrwt>
<pdfrwt beam="2">  1       -3 0.65404016E-01 0.15744844E+04</pdfrwt>
<totfact> 0.92817926E-01</totfact>
</mgrwt>
</event>
<event>
 8    1  0.1426346E-011  0.1788296E+04  0.7818608E-02  0.8712548E-01
          3   -1    0    0  501    0  0.00000000000E+00  0.00000000000E+00  0.10544276902E+04  0.10544276951E+04  0.10100000000E+00 0.  1.
         -3   -1    0    0    0  501 -0.00000000000E+00 -0.00000000000E+00 -0.75823178433E+03  0.75823179106E+03  0.10100000000E+00 0. -1.
     200001    2    1    2    0    0  0.40644682000E+03 -0.37874741920E+03  0.12295776779E+03  0.90235180322E+03  0.70033673262E+03 0.  0.
    5000001    2    3    3    0    0  0.14705225267E+03 -0.12934457217E+02  0.97340467731E+02  0.23022018606E+03  0.14742626025E+03 0.  0.
        -11    1    4    4    0    0  0.61471860660E+00 -0.53634031597E+02  0.22424067738E+02  0.58136271281E+02  0.51100000000E-03 0. -1.
     200002    1    4    4    0    0  0.14643753406E+03  0.40699574380E+02  0.74916399993E+02  0.17208391478E+03  0.30000000000E+02 0. -1.
     200000    1    3    3    0    0  0.25939456733E+03 -0.36581296199E+03  0.25617300063E+02  0.67213161716E+03  0.50000000000E+03 0. -1.
    -200001    1    1    2    0    0 -0.40644682000E+03  0.37874741920E+03  0.17323813809E+03  0.91030768289E+03  0.70000000000E+03 0.  1.
<mgrwt>
<rscale>  0 0.17882959E+04</rscale>
<asrwt>0</asrwt>
<pdfrwt beam="1">  1        3 0.15063253E+00 0.17882959E+04</pdfrwt>
<pdfrwt beam="2">  1       -3 0.10831883E+00 0.17882959E+04</pdfrwt>
<totfact> 0.57626163E-01</totfact>
</mgrwt>
</event>
<event>
 8    1  0.1426346E-011  0.1745865E+04  0.7818608E-02  0.8735630E-01
         -3   -1    0    0    0  501 -0.00000000000E+00  0.00000000000E+00  0.99534389535E+03  0.99534390047E+03  0.10100000000E+00 0. -1.
          3   -1    0    0  501    0  0.00000000000E+00 -0.00000000000E+00 -0.76557553089E+03  0.76557553755E+03  0.10100000000E+00 0.  1.
     200001    2    1    2    0    0  0.14143983414E+03 -0.14342492213E+03 -0.37083174324E+03  0.81683447133E+03  0.69937574793E+03 0.  0.
    5000001    2    3    3    0    0  0.60050899758E+02  0.49675543754E+02 -0.17558106659E+02  0.16975316974E+03  0.14978010989E+03 0.  0.
        -11    1    4    4    0    0 -0.43965641557E+02 -0.10037658666E+02 -0.19521541628E+01  0.45139153018E+02  0.51100000000E-03 0. -1.
     200002    1    4    4    0    0  0.10401654131E+03  0.59713202420E+02 -0.15605952496E+02  0.12461401672E+03  0.30000000000E+02 0. -1.
     200000    1    3    3    0    0  0.81388934385E+02 -0.19310046589E+03 -0.35327363658E+03  0.64708130159E+03  0.50000000000E+03 0.  1.
    -200001    1    1    2    0    0 -0.14143983414E+03  0.14342492213E+03  0.60060010770E+03  0.94408496670E+03  0.70000000000E+03 0. -1.
<mgrwt>
<rscale>  0 0.17458648E+04</rscale>
<asrwt>0</asrwt>
<pdfrwt beam="1">  1        3 0.10936793E+00 0.17458648E+04</pdfrwt>
<pdfrwt beam="2">  1       -3 0.14219199E+00 0.17458648E+04</pdfrwt>
<totfact> 0.65459004E-01</totfact>
</mgrwt>
</event>
<event>
 8    1  0.1426346E-011  0.1852194E+04  0.7818608E-02  0.8679025E-01
          3   -1    0    0  501    0  0.00000000000E+00  0.00000000000E+00  0.95301894948E+03  0.95301895483E+03  0.10100000000E+00 0.  1.
         -3   -1    0    0    0  501 -0.00000000000E+00 -0.00000000000E+00 -0.89993562262E+03  0.89993562828E+03  0.10100000000E+00 0. -1.
     200001    2    1    2    0    0  0.55505905337E+03 -0.21754842608E+03 -0.90347458659E+02  0.92236860608E+03  0.69798518020E+03 0.  0.
    5000001    2    3    3    0    0  0.19352638613E+03 -0.66529040895E+02 -0.63630888033E+02  0.28658051298E+03  0.19026540699E+03 0.  0.
        -11    1    4    4    0    0 -0.27225002691E+02  0.76736498814E+01  0.22835749800E+02  0.36353227412E+02  0.51100000000E-03 0. -1.
     200002    1    4    4    0    0  0.22075138882E+03 -0.74202690776E+02 -0.86466637833E+02  0.25022728557E+03  0.30000000000E+02 0. -1.
     200000    1    3    3    0    0  0.36153266724E+03 -0.15101938518E+03 -0.26716570626E+02  0.63578809310E+03  0.50000000000E+03 0. -1.
    -200001    1    1    2    0    0 -0.55505905337E+03  0.21754842608E+03  0.14343078552E+03  0.93058597704E+03  0.70000000000E+03 0.  1.
<mgrwt>
<rscale>  0 0.18521941E+04</rscale>
<asrwt>0</asrwt>
<pdfrwt beam="1">  1        3 0.13614557E+00 0.18521941E+04</pdfrwt>
<pdfrwt beam="2">  1       -3 0.12856223E+00 0.18521941E+04</pdfrwt>
<totfact> 0.48972615E-01</totfact>
</mgrwt>
</event>
<event>
 8    1  0.1426346E-011  0.1810303E+04  0.7818608E-02  0.8700840E-01
          3   -1    0    0  501    0  0.00000000000E+00  0.00000000000E+00  0.11603644137E+04  0.11603644181E+04  0.10100000000E+00 0.  1.
         -3   -1    0    0    0  501 -0.00000000000E+00 -0.00000000000E+00 -0.70607058762E+03  0.70607059484E+03  0.10100000000E+00 0. -1.
     200001    2    1    2    0    0 -0.45352899360E+03  0.31008915430E+03  0.55884296127E+02  0.89146117473E+03  0.69981150308E+03 0.  0.
    5000001    2    3    3    0    0 -0.10989997571E+03  0.47632313568E+02 -0.27612415658E+01  0.22783191507E+03  0.19378574538E+03 0.  0.
        -11    1    4    4    0    0 -0.93551321804E+02  0.24498317104E+02 -0.89508539347E+02  0.13177175710E+03  0.51100000000E-03 0. -1.
     200002    1    4    4    0    0 -0.16348653907E+02  0.23133996464E+02  0.86747297781E+02  0.96060157971E+02  0.30000000000E+02 0. -1.
     200000    1    3    3    0    0 -0.34362901789E+03  0.26245684074E+03  0.58645537693E+02  0.66362925966E+03  0.50000000000E+03 0. -1.
    -200001    1    1    2    0    0  0.45352899360E+03 -0.31008915430E+03  0.39840952996E+03  0.97497383822E+03  0.70000000000E+03 0. -1.
<mgrwt>
<rscale>  0 0.18103030E+04</rscale>
<asrwt>0</asrwt>
<pdfrwt beam="1">  1        3 0.16576635E+00 0.18103030E+04</pdfrwt>
<pdfrwt beam="2">  1       -3 0.10086723E+00 0.18103030E+04</pdfrwt>
<totfact> 0.52890767E-01</totfact>
</mgrwt>
</event>
<event>
 8    1  0.1426346E-011  0.2304141E+04  0.7818608E-02  0.8476290E-01
         -3   -1    0    0    0  501 -0.00000000000E+00  0.00000000000E+00  0.29186773112E+04  0.29186773129E+04  0.10100000000E+00 0.  1.
          3   -1    0    0  501    0  0.00000000000E+00 -0.00000000000E+00 -0.45474939481E+03  0.45474940603E+03  0.10100000000E+00 0. -1.
     200001    2    1    2    0    0  0.33838628643E+03 -0.31399396882E+03  0.74936573251E+02  0.84155446136E+03  0.69964343070E+03 0.  0.
    5000001    2    3    3    0    0  0.97147656055E+02 -0.13968629128E+03  0.50237766916E+02  0.25915487837E+03  0.18891133028E+03 0.  0.
        -11    1    4    4    0    0  0.52747859966E+01  0.44158414894E+02 -0.35164273277E+01  0.44611144736E+02  0.51100000000E-03 0. -1.
     200002    1    4    4    0    0  0.91872870059E+02 -0.18384470618E+03  0.53754194243E+02  0.21454373363E+03  0.30000000000E+02 0. -1.
     200000    1    3    3    0    0  0.24123863038E+03 -0.17430767753E+03  0.24698806336E+02  0.58239958299E+03  0.50000000000E+03 0. -1.
    -200001    1    1    2    0    0 -0.33838628643E+03  0.31399396882E+03  0.23889913431E+04  0.25318722576E+04  0.70000000000E+03 0.  1.
<mgrwt>
<rscale>  0 0.23041413E+04</rscale>
<asrwt>0</asrwt>
<pdfrwt beam="1">  1        3 0.64964201E-01 0.23041413E+04</pdfrwt>
<pdfrwt beam="2">  1       -3 0.41695390E+00 0.23041413E+04</pdfrwt>
<totfact> 0.46664892E-02</totfact>
</mgrwt>
</event>
<event>
 8    1  0.1426346E-011  0.1731212E+04  0.7818608E-02  0.8743761E-01
         -3   -1    0    0    0  501 -0.00000000000E+00  0.00000000000E+00  0.24242235173E+04  0.24242235194E+04  0.10100000000E+00 0.  1.
          3   -1    0    0  501    0  0.00000000000E+00 -0.00000000000E+00 -0.30907780831E+03  0.30907782481E+03  0.10100000000E+00 0. -1.
     200001    2    1    2    0    0  0.36733956666E+02 -0.19415320767E+03  0.17970592724E+04  0.19394349620E+04  0.70209763694E+03 0.  0.
    5000001    2    3    3    0    0 -0.33299109257E+02 -0.89966688034E+02  0.40282852782E+03  0.45294956677E+03  0.18354740961E+03 0.  0.
        -11    1    4    4    0    0 -0.33788165034E+02 -0.41328103762E+02  0.39095245149E+03  0.39458012061E+03  0.51100000000E-03 0. -1.
     200002    1    4    4    0    0  0.48905577681E+00 -0.48638584272E+02  0.11876076335E+02  0.58369446157E+02  0.30000000000E+02 0. -1.
     200000    1    3    3    0    0  0.70033065923E+02 -0.10418651963E+03  0.13942307445E+04  0.14864853952E+04  0.50000000000E+03 0.  1.
    -200001    1    1    2    0    0 -0.36733956666E+02  0.19415320767E+03  0.31808643659E+03  0.79386638218E+03  0.70000000000E+03 0. -1.
<mgrwt>
<rscale>  0 0.17312120E+04</rscale>
<asrwt>0</asrwt>
<pdfrwt beam="1">  1        3 0.44153974E-01 0.17312120E+04</pdfrwt>
<pdfrwt beam="2">  1       -3 0.34631765E+00 0.17312120E+04</pdfrwt>
<totfact> 0.26866437E-01</totfact>
</mgrwt>
</event>
<event>
 8    1  0.1426346E-011  0.1615867E+04  0.7818608E-02  0.8810859E-01
         -3   -1    0    0    0  501 -0.00000000000E+00  0.00000000000E+00  0.78991102055E+03  0.78991102700E+03  0.10100000000E+00 0. -1.
          3   -1    0    0  501    0  0.00000000000E+00 -0.00000000000E+00 -0.82636722053E+03  0.82636722671E+03  0.10100000000E+00 0.  1.
     200001    2    1    2    0    0 -0.38021720956E+02 -0.37648284791E+03 -0.15742280467E+03  0.81140689413E+03  0.70029581062E+03 0.  0.
    5000001    2    3    3    0    0 -0.71110835869E+02 -0.13184311916E+03 -0.16593749967E+03  0.25371882142E+03  0.11999428111E+03 0.  0.
        -11    1    4    4    0    0 -0.38604017707E+02 -0.12184244738E+03 -0.65721553846E+02  0.14371908296E+03  0.51100000000E-03 0. -1.
     200002    1    4    4    0    0 -0.32506818162E+02 -0.10000671774E+02 -0.10021594582E+03  0.10999973846E+03  0.30000000000E+02 0. -1.
     200000    1    3    3    0    0  0.33089114913E+02 -0.24463972875E+03  0.85146949973E+01  0.55768807271E+03  0.50000000000E+03 0.  1.
    -200001    1    1    2    0    0  0.38021720956E+02  0.37648284791E+03  0.12096660469E+03  0.80487135959E+03  0.70000000000E+03 0.  1.
<mgrwt>
<rscale>  0 0.16158671E+04</rscale>
<asrwt>0</asrwt>
<pdfrwt beam="1">  1        3 0.11805246E+00 0.16158671E+04</pdfrwt>
<pdfrwt beam="2">  1       -3 0.11284443E+00 0.16158671E+04</pdfrwt>
<totfact> 0.97581966E-01</totfact>
</mgrwt>
</event>
<event>
 8    1  0.1426346E-011  0.1433521E+04  0.7818608E-02  0.8929905E-01
         -3   -1    0    0    0  501 -0.00000000000E+00  0.00000000000E+00  0.87797323572E+03  0.87797324153E+03  0.10100000000E+00 0. -1.
          3   -1    0    0  501    0  0.00000000000E+00 -0.00000000000E+00 -0.58514979865E+03  0.58514980737E+03  0.10100000000E+00 0.  1.
     200001    2    1    2    0    0 -0.68358604244E+02 -0.16837097326E+02  0.63927007292E+01  0.70351857725E+03  0.69995795252E+03 0.  0.
    5000001    2    3    3    0    0 -0.82310821571E+02 -0.68532894459E+01  0.57452270408E+02  0.20062552655E+03  0.17357361436E+03 0.  0.
        -11    1    4    4    0    0  0.36891068145E+01  0.22153491365E+02  0.95229378389E+02  0.97841817222E+02  0.51100000000E-03 0. -1.
     200002    1    4    4    0    0 -0.85999928386E+02 -0.29006780811E+02 -0.37777107981E+02  0.10278370933E+03  0.30000000000E+02 0. -1.
     200000    1    3    3    0    0  0.13952217327E+02 -0.99838078800E+01 -0.51059569679E+02  0.50289305070E+03  0.50000000000E+03 0.  1.
    -200001    1    1    2    0    0  0.68358604244E+02  0.16837097326E+02  0.28643073634E+03  0.75960447164E+03  0.70000000000E+03 0. -1.
<mgrwt>
<rscale>  0 0.14335214E+04</rscale>
<asrwt>0</asrwt>
<pdfrwt beam="1">  1        3 0.83592830E-01 0.14335214E+04</pdfrwt>
<pdfrwt beam="2">  1       -3 0.12542475E+00 0.14335214E+04</pdfrwt>
<totfact> 0.17105825E+00</totfact>
</mgrwt>
</event>
<event>
 8    1  0.1426346E-011  0.1968129E+04  0.7818608E-02  0.8621668E-01
          3   -1    0    0  501    0  0.00000000000E+00  0.00000000000E+00  0.15167697165E+04  0.15167697199E+04  0.10100000000E+00 0.  1.
         -3   -1    0    0    0  501 -0.00000000000E+00 -0.00000000000E+00 -0.63845098025E+03  0.63845098824E+03  0.10100000000E+00 0. -1.
     200001    2    1    2    0    0 -0.12257944734E+03  0.33110716250E+03  0.10906929652E+04  0.13429642910E+04  0.69948857639E+03 0.  0.
    5000001    2    3    3    0    0  0.35085952002E+02  0.12652046810E+02  0.11333478299E+03  0.18905742506E+03  0.14665210062E+03 0.  0.
        -11    1    4    4    0    0  0.14825016446E+02  0.10525625006E+02 -0.33335132828E+02  0.37971054440E+02  0.51100000000E-03 0. -1.
     200002    1    4    4    0    0  0.20260935557E+02  0.21264218044E+01  0.14666991582E+03  0.15108637062E+03  0.30000000000E+02 0. -1.
     200000    1    3    3    0    0 -0.15766539934E+03  0.31845511569E+03  0.97735818225E+03  0.11539068659E+04  0.50000000000E+03 0. -1.
    -200001    1    1    2    0    0  0.12257944734E+03 -0.33110716250E+03 -0.21237422899E+03  0.81225641709E+03  0.70000000000E+03 0. -1.
<mgrwt>
<rscale>  0 0.19681292E+04</rscale>
<asrwt>0</asrwt>
<pdfrwt beam="1">  1        3 0.21668139E+00 0.19681292E+04</pdfrwt>
<pdfrwt beam="2">  1       -3 0.91207283E-01 0.19681292E+04</pdfrwt>
<totfact> 0.30800236E-01</totfact>
</mgrwt>
</event>
<event>
 8    1  0.1426346E-011  0.1787309E+04  0.7818608E-02  0.8713078E-01
         -3   -1    0    0    0  501 -0.00000000000E+00  0.00000000000E+00  0.36487366319E+03  0.36487367717E+03  0.10100000000E+00 0. -1.
          3   -1    0    0  501    0  0.00000000000E+00 -0.00000000000E+00 -0.21887526392E+04  0.21887526416E+04  0.10100000000E+00 0.  1.
     200001    2    1    2    0    0  0.20460085472E+03 -0.11099600718E+03 -0.16312529871E+04  0.17912049162E+04  0.70231554211E+03 0.  0.
    5000001    2    3    3    0    0  0.10071300327E+03 -0.43010550282E+02 -0.71218506666E+03  0.73759182293E+03  0.15761063291E+03 0.  0.
        -11    1    4    4    0    0  0.21468499449E+02  0.49820003557E+02 -0.35089650238E+03  0.35506518361E+03  0.51100000000E-03 0. -1.
     200002    1    4    4    0    0  0.79244503824E+02 -0.92830553838E+02 -0.36128856428E+03  0.38252663932E+03  0.30000000000E+02 0. -1.
     200000    1    3    3    0    0  0.10388785145E+03 -0.67985456899E+02 -0.91906792042E+03  0.10536130933E+04  0.50000000000E+03 0.  1.
    -200001    1    1    2    0    0 -0.20460085472E+03  0.11099600718E+03 -0.19262598895E+03  0.76242140249E+03  0.70000000000E+03 0. -1.
<mgrwt>
<rscale>  0 0.17873088E+04</rscale>
<asrwt>0</asrwt>
<pdfrwt beam="1">  1        3 0.31267894E+00 0.17873088E+04</pdfrwt>
<pdfrwt beam="2">  1       -3 0.52124811E-01 0.17873088E+04</pdfrwt>
<totfact> 0.29922721E-01</totfact>
</mgrwt>
</event>
<event>
 8    1  0.1426346E-011  0.1856352E+04  0.7818608E-02  0.8676893E-01
          3   -1    0    0  501    0  0.00000000000E+00  0.00000000000E+00  0.59293324174E+03  0.59293325034E+03  0.10100000000E+00 0.  1.
         -3   -1    0    0    0  501 -0.00000000000E+00 -0.00000000000E+00 -0.14529637417E+04  0.14529637453E+04  0.10100000000E+00 0. -1.
     200001    2    1    2    0    0  0.13058719969E+03 -0.24986437890E+02 -0.10855123139E+04  0.12985554491E+04  0.70016564606E+03 0.  0.
    5000001    2    3    3    0    0  0.18874176108E+02 -0.11269275668E+02 -0.41267561252E+03  0.45275571693E+03  0.18494146899E+03 0.  0.
        -11    1    4    4    0    0 -0.32223403170E+00  0.53579458753E+02 -0.26908186192E+02  0.59957591007E+02  0.51100000000E-03 0. -1.
     200002    1    4    4    0    0  0.19196410139E+02 -0.64848734421E+02 -0.38576742632E+03  0.39279812593E+03  0.30000000000E+02 0. -1.
     200000    1    3    3    0    0  0.11171302358E+03 -0.13717162222E+02 -0.67283670135E+03  0.84579973212E+03  0.50000000000E+03 0. -1.
    -200001    1    1    2    0    0 -0.13058719969E+03  0.24986437890E+02  0.22548181386E+03  0.74734154654E+03  0.70000000000E+03 0.  1.
<mgrwt>
<rscale>  0 0.18563518E+04</rscale>
<asrwt>0</asrwt>
<pdfrwt beam="1">  1        3 0.84704750E-01 0.18563518E+04</pdfrwt>
<pdfrwt beam="2">  1       -3 0.20756625E+00 0.18563518E+04</pdfrwt>
<totfact> 0.41579714E-01</totfact>
</mgrwt>
</event>
<event>
 8    1  0.1426346E-011  0.1744312E+04  0.7818608E-02  0.8736488E-01
         -3   -1    0    0    0  501 -0.00000000000E+00  0.00000000000E+00  0.14208679973E+04  0.14208680009E+04  0.10100000000E+00 0. -1.
          3   -1    0    0  501    0  0.00000000000E+00 -0.00000000000E+00 -0.53534586826E+03  0.53534587779E+03  0.10100000000E+00 0.  1.
     200001    2    1    2    0    0 -0.28305841227E+03 -0.42920044569E+03  0.34980162163E+03  0.93575733899E+03  0.69924640552E+03 0.  0.
    5000001    2    3    3    0    0 -0.16209780602E+03 -0.13021899968E+03  0.11307139207E+03  0.29539605431E+03  0.17675124499E+03 0.  0.
        -11    1    4    4    0    0 -0.33631523320E+02 -0.12614404171E+03  0.96563833889E+02  0.16238218078E+03  0.51100000000E-03 0. -1.
     200002    1    4    4    0    0 -0.12846628270E+03 -0.40749579687E+01  0.16507558177E+02  0.13301387353E+03  0.30000000000E+02 0. -1.
     200000    1    3    3    0    0 -0.12096060625E+03 -0.29898144601E+03  0.23673022957E+03  0.64036128468E+03  0.50000000000E+03 0. -1.
    -200001    1    1    2    0    0  0.28305841227E+03  0.42920044569E+03  0.53572050742E+03  0.10204565397E+04  0.70000000000E+03 0.  1.
<mgrwt>
<rscale>  0 0.17443117E+04</rscale>
<asrwt>0</asrwt>
<pdfrwt beam="1">  1        3 0.76477983E-01 0.17443117E+04</pdfrwt>
<pdfrwt beam="2">  1       -3 0.20298114E+00 0.17443117E+04</pdfrwt>
<totfact> 0.56294036E-01</totfact>
</mgrwt>
</event>
<event>
 8    1  0.1426346E-011  0.1436432E+04  0.7818608E-02  0.8927862E-01
          3   -1    0    0  501    0  0.00000000000E+00  0.00000000000E+00  0.24032317644E+03  0.24032319767E+03  0.10100000000E+00 0.  1.
         -3   -1    0    0    0  501 -0.00000000000E+00 -0.00000000000E+00 -0.21464176001E+04  0.21464176025E+04  0.10100000000E+00 0. -1.
     200001    2    1    2    0    0 -0.18281832573E+02 -0.14979308984E+03 -0.86393342715E+03  0.11222757995E+04  0.70024981862E+03 0.  0.
    5000001    2    3    3    0    0 -0.15936410436E+02 -0.32942780564E+01 -0.33486524070E+03  0.37972576836E+03  0.17830341636E+03 0.  0.
        -11    1    4    4    0    0 -0.42123679219E+02  0.65072363115E+01 -0.26750674810E+00  0.42624171963E+02  0.51100000000E-03 0. -1.
     200002    1    4    4    0    0  0.26187268783E+02 -0.98015143679E+01 -0.33459773395E+03  0.33710159640E+03  0.30000000000E+02 0. -1.
     200000    1    3    3    0    0 -0.23454221372E+01 -0.14649881178E+03 -0.52906818646E+03  0.74255003116E+03  0.50000000000E+03 0.  1.
    -200001    1    1    2    0    0  0.18281832573E+02  0.14979308984E+03 -0.10421609965E+04  0.12644650006E+04  0.70000000000E+03 0. -1.
<mgrwt>
<rscale>  0 0.14364316E+04</rscale>
<asrwt>0</asrwt>
<pdfrwt beam="1">  1        3 0.34331885E-01 0.14364316E+04</pdfrwt>
<pdfrwt beam="2">  1       -3 0.30663108E+00 0.14364316E+04</pdfrwt>
<totfact> 0.75128565E-01</totfact>
</mgrwt>
</event>
<event>
 8    1  0.1426346E-011  0.1453052E+04  0.7818608E-02  0.8916288E-01
          3   -1    0    0  501    0  0.00000000000E+00  0.00000000000E+00  0.59188142724E+03  0.59188143586E+03  0.10100000000E+00 0.  1.
         -3   -1    0    0    0  501 -0.00000000000E+00 -0.00000000000E+00 -0.89179972620E+03  0.89179973192E+03  0.10100000000E+00 0. -1.
     200001    2    1    2    0    0 -0.10212314479E+03 -0.15300667318E+03 -0.22009173771E+03  0.75552427630E+03  0.69895377553E+03 0.  0.
    5000001    2    3    3    0    0 -0.68621072637E+02 -0.13763575367E+03 -0.57183130884E+02  0.22836408415E+03  0.15883259166E+03 0.  0.
        -11    1    4    4    0    0 -0.69612794518E+02 -0.87725442120E+02  0.36728574565E+02  0.11785873979E+03  0.51100000000E-03 0. -1.
     200002    1    4    4    0    0  0.99172188120E+00 -0.49910311554E+02 -0.93911705448E+02  0.11050534436E+03  0.30000000000E+02 0. -1.
     200000    1    3    3    0    0 -0.33502072149E+02 -0.15370919501E+02 -0.16290860682E+03  0.52716019214E+03  0.50000000000E+03 0.  1.
    -200001    1    1    2    0    0  0.10212314479E+03  0.15300667318E+03 -0.79826561254E+02  0.72815689149E+03  0.70000000000E+03 0.  1.
<mgrwt>
<rscale>  0 0.14530516E+04</rscale>
<asrwt>0</asrwt>
<pdfrwt beam="1">  1        3 0.84554491E-01 0.14530516E+04</pdfrwt>
<pdfrwt beam="2">  1       -3 0.12739996E+00 0.14530516E+04</pdfrwt>
<totfact> 0.16016383E+00</totfact>
</mgrwt>
</event>
<event>
 8    1  0.1426346E-011  0.1405200E+04  0.7818608E-02  0.8950063E-01
         -3   -1    0    0    0  501 -0.00000000000E+00  0.00000000000E+00  0.10875723425E+04  0.10875723472E+04  0.10100000000E+00 0. -1.
          3   -1    0    0  501    0  0.00000000000E+00 -0.00000000000E+00 -0.45389803532E+03  0.45389804656E+03  0.10100000000E+00 0.  1.
     200001    2    1    2    0    0  0.17756584702E+02  0.46532763793E+02  0.27514103503E+03  0.75341791982E+03  0.69961087638E+03 0.  0.
    5000001    2    3    3    0    0 -0.92290927806E+02  0.13070903895E+02 -0.11517164801E+02  0.16570789387E+03  0.13652105011E+03 0.  0.
        -11    1    4    4    0    0 -0.88444315811E+02  0.38217425969E+02  0.37036157231E+02  0.10322134270E+03  0.51100000000E-03 0. -1.
     200002    1    4    4    0    0 -0.38466119952E+01 -0.25146522074E+02 -0.48553322032E+02  0.62486551166E+02  0.30000000000E+02 0. -1.
     200000    1    3    3    0    0  0.11004751251E+03  0.33461859898E+02  0.28665819983E+03  0.58771002595E+03  0.50000000000E+03 0. -1.
    -200001    1    1    2    0    0 -0.17756584702E+02 -0.46532763793E+02  0.35853327213E+03  0.78805247391E+03  0.70000000000E+03 0.  1.
<mgrwt>
<rscale>  0 0.14052003E+04</rscale>
<asrwt>0</asrwt>
<pdfrwt beam="1">  1        3 0.64842578E-01 0.14052003E+04</pdfrwt>
<pdfrwt beam="2">  1       -3 0.15536748E+00 0.14052003E+04</pdfrwt>
<totfact> 0.17354688E+00</totfact>
</mgrwt>
</event>
<event>
 8    1  0.1426346E-011  0.1960772E+04  0.7818608E-02  0.8625184E-01
         -3   -1    0    0    0  501 -0.00000000000E+00  0.00000000000E+00  0.73388869175E+03  0.73388869870E+03  0.10100000000E+00 0.  1.
          3   -1    0    0  501    0  0.00000000000E+00 -0.00000000000E+00 -0.13096768001E+04  0.13096768040E+04  0.10100000000E+00 0. -1.
     200001    2    1    2    0    0 -0.30045950701E+02 -0.68329021426E+03 -0.34550211774E+03  0.10381701011E+04  0.70045497312E+03 0.  0.
    5000001    2    3    3    0    0  0.11002783221E+01 -0.20211307575E+03 -0.22144519968E+03  0.33255572685E+03  0.14389033672E+03 0.  0.
        -11    1    4    4    0    0  0.92112136866E+01 -0.46314330456E+02 -0.15201182095E+03  0.15917743989E+03  0.51100000000E-03 0. -1.
     200002    1    4    4    0    0 -0.81109353645E+01 -0.15579874530E+03 -0.69433378730E+02  0.17337828696E+03  0.30000000000E+02 0. -1.
     200000    1    3    3    0    0 -0.31146229023E+02 -0.48117713851E+03 -0.12405691807E+03  0.70561437424E+03  0.50000000000E+03 0.  1.
    -200001    1    1    2    0    0  0.30045950701E+02  0.68329021426E+03 -0.23028599058E+03  0.10053954016E+04  0.70000000000E+03 0. -1.
<mgrwt>
<rscale>  0 0.19607723E+04</rscale>
<asrwt>0</asrwt>
<pdfrwt beam="1">  1        3 0.18709669E+00 0.19607723E+04</pdfrwt>
<pdfrwt beam="2">  1       -3 0.10484124E+00 0.19607723E+04</pdfrwt>
<totfact> 0.34195002E-01</totfact>
</mgrwt>
</event>
<event>
 8    1  0.1426346E-011  0.1530435E+04  0.7818608E-02  0.8864463E-01
         -3   -1    0    0    0  501 -0.00000000000E+00  0.00000000000E+00  0.31667168897E+03  0.31667170508E+03  0.10100000000E+00 0. -1.
          3   -1    0    0  501    0  0.00000000000E+00 -0.00000000000E+00 -0.18490998732E+04  0.18490998759E+04  0.10100000000E+00 0.  1.
     200001    2    1    2    0    0  0.11174223515E+03  0.28856445133E+03 -0.76271985036E+03  0.10803192841E+04  0.69970880786E+03 0.  0.
    5000001    2    3    3    0    0  0.73394773290E+02 -0.22422149455E+02 -0.19550518676E+03  0.26183552232E+03  0.15635222150E+03 0.  0.
        -11    1    4    4    0    0  0.11141920599E+03  0.69657010182E+01 -0.95559890542E+02  0.14695051254E+03  0.51100000000E-03 0. -1.
     200002    1    4    4    0    0 -0.38024432701E+02 -0.29387850473E+02 -0.99945296216E+02  0.11488500979E+03  0.30000000000E+02 0. -1.
     200000    1    3    3    0    0  0.38347461857E+02  0.31098660078E+03 -0.56721466360E+03  0.81848376178E+03  0.50000000000E+03 0. -1.
    -200001    1    1    2    0    0 -0.11174223515E+03 -0.28856445133E+03 -0.76970833385E+03  0.10854522969E+04  0.70000000000E+03 0. -1.
<mgrwt>
<rscale>  0 0.15304347E+04</rscale>
<asrwt>0</asrwt>
<pdfrwt beam="1">  1        3 0.26415712E+00 0.15304347E+04</pdfrwt>
<pdfrwt beam="2">  1       -3 0.45238815E-01 0.15304347E+04</pdfrwt>
<totfact> 0.75877469E-01</totfact>
</mgrwt>
</event>
<event>
 8    1  0.1426346E-011  0.2030639E+04  0.7818608E-02  0.8592428E-01
         -3   -1    0    0    0  501 -0.00000000000E+00  0.00000000000E+00  0.15098273681E+04  0.15098273715E+04  0.10100000000E+00 0. -1.
          3   -1    0    0  501    0  0.00000000000E+00 -0.00000000000E+00 -0.68277582212E+03  0.68277582959E+03  0.10100000000E+00 0.  1.
     200001    2    1    2    0    0  0.10104383317E+03 -0.68352149458E+03  0.68468441954E+03  0.11987823478E+04  0.70062463074E+03 0.  0.
    5000001    2    3    3    0    0  0.78703841349E+02 -0.21656185587E+03  0.12098974433E+03  0.31204559638E+03  0.17216446766E+03 0.  0.
        -11    1    4    4    0    0 -0.48468503124E+02 -0.79315789762E+02  0.68335927811E+02  0.11536892706E+03  0.51100000000E-03 0. -1.
     200002    1    4    4    0    0  0.12717234447E+03 -0.13724606611E+03  0.52653816523E+02  0.19667666932E+03  0.30000000000E+02 0. -1.
     200000    1    3    3    0    0  0.22339991817E+02 -0.46695963871E+03  0.56369467521E+03  0.88673675140E+03  0.50000000000E+03 0. -1.
    -200001    1    1    2    0    0 -0.10104383317E+03  0.68352149458E+03  0.14236712645E+03  0.99382085331E+03  0.70000000000E+03 0.  1.
<mgrwt>
<rscale>  0 0.20306389E+04</rscale>
<asrwt>0</asrwt>
<pdfrwt beam="1">  1        3 0.97539404E-01 0.20306389E+04</pdfrwt>
<pdfrwt beam="2">  1       -3 0.21568962E+00 0.20306389E+04</pdfrwt>
<totfact> 0.26450196E-01</totfact>
</mgrwt>
</event>
<event>
 8    1  0.1426346E-011  0.2085318E+04  0.7818608E-02  0.8567738E-01
         -3   -1    0    0    0  501 -0.00000000000E+00  0.00000000000E+00  0.25584778916E+04  0.25584778936E+04  0.10100000000E+00 0. -1.
          3   -1    0    0  501    0  0.00000000000E+00 -0.00000000000E+00 -0.42491601641E+03  0.42491602842E+03  0.10100000000E+00 0.  1.
     200001    2    1    2    0    0 -0.40238189770E+03 -0.39820021755E+03  0.18192098391E+04  0.20298259866E+04  0.70013890937E+03 0.  0.
    5000001    2    3    3    0    0 -0.10733660965E+03 -0.16844984035E+03  0.59564084013E+03  0.65616006906E+03  0.18937140573E+03 0.  0.
        -11    1    4    4    0    0 -0.33148089759E+02 -0.63833352853E+02  0.46540654613E+03  0.47093178484E+03  0.51100000000E-03 0. -1.
     200002    1    4    4    0    0 -0.74188519891E+02 -0.10461648750E+03  0.13023429400E+03  0.18522828422E+03  0.30000000000E+02 0. -1.
     200000    1    3    3    0    0 -0.29504528805E+03 -0.22975037719E+03  0.12235689989E+04  0.13736659175E+04  0.50000000000E+03 0. -1.
    -200001    1    1    2    0    0  0.40238189770E+03  0.39820021755E+03  0.31435203612E+03  0.95356793542E+03  0.70000000000E+03 0.  1.
<mgrwt>
<rscale>  0 0.20853184E+04</rscale>
<asrwt>0</asrwt>
<pdfrwt beam="1">  1        3 0.60702289E-01 0.20853184E+04</pdfrwt>
<pdfrwt beam="2">  1       -3 0.36549684E+00 0.20853184E+04</pdfrwt>
<totfact> 0.10576781E-01</totfact>
</mgrwt>
</event>
<event>
 8    1  0.1426346E-011  0.1830450E+04  0.7818608E-02  0.8690272E-01
          3   -1    0    0  501    0  0.00000000000E+00  0.00000000000E+00  0.10477282121E+04  0.10477282169E+04  0.10100000000E+00 0.  1.
         -3   -1    0    0    0  501 -0.00000000000E+00 -0.00000000000E+00 -0.79947896876E+03  0.79947897514E+03  0.10100000000E+00 0. -1.
     200001    2    1    2    0    0  0.46904547249E+03 -0.16469004626E+03  0.44539901321E+03  0.96630169296E+03  0.69873615496E+03 0.  0.
    5000001    2    3    3    0    0  0.11781026971E+03 -0.11454678367E+02  0.12174232485E+03  0.25806381091E+03  0.19433287817E+03 0.  0.
        -11    1    4    4    0    0  0.54567100668E+02 -0.76186802521E+01 -0.48847059875E+02  0.73631841093E+02  0.51100000000E-03 0. -1.
     200002    1    4    4    0    0  0.63243169045E+02 -0.38359981145E+01  0.17058938472E+03  0.18443196982E+03  0.30000000000E+02 0. -1.
     200000    1    3    3    0    0  0.35123520277E+03 -0.15323536789E+03  0.32365668836E+03  0.70823788204E+03  0.50000000000E+03 0.  1.
    -200001    1    1    2    0    0 -0.46904547249E+03  0.16469004626E+03 -0.19714976990E+03  0.88090549911E+03  0.70000000000E+03 0. -1.
<mgrwt>
<rscale>  0 0.18304499E+04</rscale>
<asrwt>0</asrwt>
<pdfrwt beam="1">  1        3 0.14967546E+00 0.18304499E+04</pdfrwt>
<pdfrwt beam="2">  1       -3 0.11421128E+00 0.18304499E+04</pdfrwt>
<totfact> 0.51438985E-01</totfact>
</mgrwt>
</event>
<event>
 8    1  0.1426346E-011  0.2137661E+04  0.7818608E-02  0.8544832E-01
         -3   -1    0    0    0  501 -0.00000000000E+00  0.00000000000E+00  0.18611221897E+04  0.18611221924E+04  0.10100000000E+00 0. -1.
          3   -1    0    0  501    0  0.00000000000E+00 -0.00000000000E+00 -0.61382269246E+03  0.61382270077E+03  0.10100000000E+00 0.  1.
     200001    2    1    2    0    0  0.32801750207E+03 -0.58529189232E+03  0.10473792394E+03  0.97640926477E+03  0.70160026991E+03 0.  0.
    5000001    2    3    3    0    0  0.89786676383E+02 -0.24349435794E+03  0.24150614063E+02  0.32060914634E+03  0.18669714233E+03 0.  0.
        -11    1    4    4    0    0  0.96096773438E+02 -0.19118496304E+03  0.89074303685E+02  0.23177685720E+03  0.51100000000E-03 0. -1.
     200002    1    4    4    0    0 -0.63100970546E+01 -0.52309394897E+02 -0.64923689622E+02  0.88832289138E+02  0.30000000000E+02 0. -1.
     200000    1    3    3    0    0  0.23823082569E+03 -0.34179753438E+03  0.80587309880E+02  0.65580011843E+03  0.50000000000E+03 0. -1.
    -200001    1    1    2    0    0 -0.32801750207E+03  0.58529189232E+03  0.11425615733E+04  0.14985356284E+04  0.70000000000E+03 0. -1.
<mgrwt>
<rscale>  0 0.21376614E+04</rscale>
<asrwt>0</asrwt>
<pdfrwt beam="1">  1        3 0.87688958E-01 0.21376614E+04</pdfrwt>
<pdfrwt beam="2">  1       -3 0.26587460E+00 0.21376614E+04</pdfrwt>
<totfact> 0.16955547E-01</totfact>
</mgrwt>
</event>
<event>
 8    1  0.1426346E-011  0.2432699E+04  0.7818608E-02  0.8427362E-01
         -3   -1    0    0    0  501 -0.00000000000E+00  0.00000000000E+00  0.49309406962E+03  0.49309407997E+03  0.10100000000E+00 0. -1.
          3   -1    0    0  501    0  0.00000000000E+00 -0.00000000000E+00 -0.30004536377E+04  0.30004536394E+04  0.10100000000E+00 0.  1.
     200001    2    1    2    0    0 -0.57703545964E+02 -0.30583919770E+03 -0.26104626195E+04  0.27205680603E+04  0.70007725950E+03 0.  0.
    5000001    2    3    3    0    0  0.38300831806E+02  0.77133281601E+02 -0.34751498613E+03  0.36964978195E+03  0.91966292001E+02 0.  0.
        -11    1    4    4    0    0  0.28769132389E+02  0.56690091174E+02 -0.31047659481E+03  0.31691819976E+03  0.51100000000E-03 0. -1.
     200002    1    4    4    0    0  0.95316994162E+01  0.20443190427E+02 -0.37038391320E+02  0.52731582190E+02  0.30000000000E+02 0. -1.
     200000    1    3    3    0    0 -0.96004377770E+02 -0.38297247930E+03 -0.22629476333E+04  0.23509182784E+04  0.50000000000E+03 0.  1.
    -200001    1    1    2    0    0  0.57703545964E+02  0.30583919770E+03  0.10310305138E+03  0.77297965903E+03  0.70000000000E+03 0. -1.
<mgrwt>
<rscale>  0 0.24326988E+04</rscale>
<asrwt>0</asrwt>
<pdfrwt beam="1">  1        3 0.42863623E+00 0.24326988E+04</pdfrwt>
<pdfrwt beam="2">  1       -3 0.70442012E-01 0.24326988E+04</pdfrwt>
<totfact> 0.35713104E-02</totfact>
</mgrwt>
</event>
<event>
 8    1  0.1426346E-011  0.1848903E+04  0.7818608E-02  0.8680717E-01
          3   -1    0    0  501    0  0.00000000000E+00  0.00000000000E+00  0.35948898739E+04  0.35948898753E+04  0.10100000000E+00 0.  1.
         -3   -1    0    0    0  501 -0.00000000000E+00 -0.00000000000E+00 -0.23772935954E+03  0.23772938099E+03  0.10100000000E+00 0. -1.
     200001    2    1    2    0    0 -0.23413994450E+03 -0.28805146915E+02  0.52648956769E+03  0.90715360817E+03  0.70006082152E+03 0.  0.
    5000001    2    3    3    0    0 -0.15271341857E+03 -0.45610010830E+02  0.21656903246E+03  0.31304636135E+03  0.16029415844E+03 0.  0.
        -11    1    4    4    0    0 -0.87746901753E+02  0.21699076905E+02  0.18949431494E+02  0.92355019679E+02  0.51100000000E-03 0. -1.
     200002    1    4    4    0    0 -0.64966516818E+02 -0.67309087735E+02  0.19761960097E+03  0.22069134167E+03  0.30000000000E+02 0. -1.
     200000    1    3    3    0    0 -0.81426525930E+02  0.16804863915E+02  0.30992053522E+03  0.59410724682E+03  0.50000000000E+03 0. -1.
    -200001    1    1    2    0    0  0.23413994450E+03  0.28805146915E+02  0.28306709467E+04  0.29254656482E+04  0.70000000000E+03 0.  1.
<mgrwt>
<rscale>  0 0.18489034E+04</rscale>
<asrwt>0</asrwt>
<pdfrwt beam="1">  1        3 0.51355571E+00 0.18489034E+04</pdfrwt>
<pdfrwt beam="2">  1       -3 0.33961338E-01 0.18489034E+04</pdfrwt>
<totfact> 0.62693936E-02</totfact>
</mgrwt>
</event>
<event>
 8    1  0.1426346E-011  0.1602802E+04  0.7818608E-02  0.8818829E-01
          3   -1    0    0  501    0  0.00000000000E+00  0.00000000000E+00  0.10955708956E+04  0.10955709003E+04  0.10100000000E+00 0.  1.
         -3   -1    0    0    0  501 -0.00000000000E+00 -0.00000000000E+00 -0.58621788828E+03  0.58621789698E+03  0.10100000000E+00 0. -1.
     200001    2    1    2    0    0 -0.13914450602E+03  0.24762581656E+03 -0.23363539328E+02  0.75741514030E+03  0.70174931507E+03 0.  0.
    5000001    2    3    3    0    0 -0.37294100867E+02  0.14717934274E+03 -0.29641011384E+02  0.23731668252E+03  0.17996668957E+03 0.  0.
        -11    1    4    4    0    0 -0.41592829376E+02  0.11748061483E+03 -0.96849786600E+02  0.15783389839E+03  0.51100000000E-03 0. -1.
     200002    1    4    4    0    0  0.42987285090E+01  0.29698727914E+02  0.67208775217E+02  0.79482784127E+02  0.30000000000E+02 0.  1.
     200000    1    3    3    0    0 -0.10185040515E+03  0.10044647382E+03  0.62774720551E+01  0.52009845778E+03  0.50000000000E+03 0. -1.
    -200001    1    1    2    0    0  0.13914450602E+03 -0.24762581656E+03  0.53271654665E+03  0.92437365695E+03  0.70000000000E+03 0.  1.
<mgrwt>
<rscale>  0 0.16028016E+04</rscale>
<asrwt>0</asrwt>
<pdfrwt beam="1">  1        3 0.15651013E+00 0.16028016E+04</pdfrwt>
<pdfrwt beam="2">  1       -3 0.83745414E-01 0.16028016E+04</pdfrwt>
<totfact> 0.95994229E-01</totfact>
</mgrwt>
</event>
<event>
 8    1  0.1426346E-011  0.1992036E+04  0.7818608E-02  0.8610353E-01
         -3   -1    0    0    0  501 -0.00000000000E+00  0.00000000000E+00  0.54330603429E+03  0.54330604368E+03  0.10100000000E+00 0.  1.
          3   -1    0    0  501    0  0.00000000000E+00 -0.00000000000E+00 -0.18259542795E+04  0.18259542823E+04  0.10100000000E+00 0. -1.
     200001    2    1    2    0    0 -0.56746096212E+03  0.42341989035E+03 -0.61024306999E+03  0.11678340624E+04  0.70010245382E+03 0.  0.
    5000001    2    3    3    0    0 -0.13991903773E+02  0.20288243002E+02 -0.51561815280E+02  0.15246818355E+03  0.14135253809E+03 0.  0.
        -11    1    4    4    0    0 -0.54311220952E+02  0.33846412450E+02 -0.72195385098E+02  0.96475188451E+02  0.51100000000E-03 0. -1.
     200002    1    4    4    0    0  0.40319317179E+02 -0.13558169448E+02  0.20633569818E+02  0.55992995098E+02  0.30000000000E+02 0. -1.
     200000    1    3    3    0    0 -0.55346905835E+03  0.40313164735E+03 -0.55868125471E+03  0.10153658789E+04  0.50000000000E+03 0. -1.
    -200001    1    1    2    0    0  0.56746096212E+03 -0.42341989035E+03 -0.67240517523E+03  0.12014262635E+04  0.70000000000E+03 0.  1.
<mgrwt>
<rscale>  0 0.19920361E+04</rscale>
<asrwt>0</asrwt>
<pdfrwt beam="1">  1        3 0.26085061E+00 0.19920361E+04</pdfrwt>
<pdfrwt beam="2">  1       -3 0.77615149E-01 0.19920361E+04</pdfrwt>
<totfact> 0.24385646E-01</totfact>
</mgrwt>
</event>
<event>
 8    1  0.1426346E-011  0.1437165E+04  0.7818608E-02  0.8927348E-01
         -3   -1    0    0    0  501 -0.00000000000E+00  0.00000000000E+00  0.10396313323E+04  0.10396313372E+04  0.10100000000E+00 0.  1.
          3   -1    0    0  501    0  0.00000000000E+00 -0.00000000000E+00 -0.49667666125E+03  0.49667667152E+03  0.10100000000E+00 0. -1.
     200001    2    1    2    0    0  0.12234596031E+03  0.40938835830E+01  0.15598203677E+03  0.72715220572E+03  0.69959605531E+03 0.  0.
    5000001    2    3    3    0    0  0.26942520621E+02  0.42538148556E+02  0.16180317139E+03  0.21664886252E+03  0.13498544314E+03 0.  0.
        -11    1    4    4    0    0  0.15138848452E+02  0.71258938511E+02  0.31480730803E+02  0.79360301551E+02  0.51100000000E-03 0. -1.
     200002    1    4    4    0    0  0.11803672170E+02 -0.28720789954E+02  0.13032244059E+03  0.13728856097E+03  0.30000000000E+02 0. -1.
     200000    1    3    3    0    0  0.95403439692E+02 -0.38444264973E+02 -0.58211346210E+01  0.51050334320E+03  0.50000000000E+03 0. -1.
    -200001    1    1    2    0    0 -0.12234596031E+03 -0.40938835830E+01  0.38697263432E+03  0.80915580305E+03  0.70000000000E+03 0.  1.
<mgrwt>
<rscale>  0 0.14371648E+04</rscale>
<asrwt>0</asrwt>
<pdfrwt beam="1">  1        3 0.70953809E-01 0.14371648E+04</pdfrwt>
<pdfrwt beam="2">  1       -3 0.14851876E+00 0.14371648E+04</pdfrwt>
<totfact> 0.16032602E+00</totfact>
</mgrwt>
</event>
<event>
 8    1  0.1426346E-011  0.2021305E+04  0.7818608E-02  0.8596724E-01
         -3   -1    0    0    0  501 -0.00000000000E+00  0.00000000000E+00  0.18521645384E+04  0.18521645411E+04  0.10100000000E+00 0. -1.
          3   -1    0    0  501    0  0.00000000000E+00 -0.00000000000E+00 -0.55147263189E+03  0.55147264114E+03  0.10100000000E+00 0.  1.
     200001    2    1    2    0    0 -0.53909958982E+03  0.81678066994E+02  0.12254683464E+04  0.15131551452E+04  0.70040427676E+03 0.  0.
    5000001    2    3    3    0    0 -0.12431824269E+03  0.60096117714E+02  0.29671094866E+03  0.37953278726E+03  0.19220088637E+03 0.  0.
        -11    1    4    4    0    0  0.17022903106E+02  0.14127743730E+02  0.19659633897E+03  0.19783703614E+03  0.51100000000E-03 0. -1.
     200002    1    4    4    0    0 -0.14134114579E+03  0.45968373983E+02  0.10011460970E+03  0.18169575112E+03  0.30000000000E+02 0. -1.
     200000    1    3    3    0    0 -0.41478134713E+03  0.21581949280E+02  0.92875739779E+03  0.11336223579E+04  0.50000000000E+03 0. -1.
    -200001    1    1    2    0    0  0.53909958982E+03 -0.81678066994E+02  0.75223560051E+02  0.89048203708E+03  0.70000000000E+03 0.  1.
<mgrwt>
<rscale>  0 0.20213046E+04</rscale>
<asrwt>0</asrwt>
<pdfrwt beam="1">  1        3 0.78781804E-01 0.20213046E+04</pdfrwt>
<pdfrwt beam="2">  1       -3 0.26459494E+00 0.20213046E+04</pdfrwt>
<totfact> 0.22149184E-01</totfact>
</mgrwt>
</event>
<event>
 8    1  0.1426346E-011  0.2469007E+04  0.7818608E-02  0.8414111E-01
         -3   -1    0    0    0  501 -0.00000000000E+00  0.00000000000E+00  0.28377099424E+04  0.28377099442E+04  0.10100000000E+00 0. -1.
          3   -1    0    0  501    0  0.00000000000E+00 -0.00000000000E+00 -0.53705254716E+03  0.53705255665E+03  0.10100000000E+00 0.  1.
     200001    2    1    2    0    0  0.92244687670E+03  0.25384649123E+03  0.68126052137E+03  0.13678263991E+04  0.70106125167E+03 0.  0.
    5000001    2    3    3    0    0  0.27125383515E+03  0.57728485354E+02  0.21698923418E+03  0.40446640526E+03  0.19899126645E+03 0.  0.
        -11    1    4    4    0    0  0.35155542956E+02  0.12752971780E+01 -0.37548033285E+02  0.51452826815E+02  0.51100000000E-03 0. -1.
     200002    1    4    4    0    0  0.23609829219E+03  0.56453188176E+02  0.25453726747E+03  0.35301357844E+03  0.30000000000E+02 0. -1.
     200000    1    3    3    0    0  0.65119304155E+03  0.19611800588E+03  0.46427128718E+03  0.96335999382E+03  0.50000000000E+03 0. -1.
    -200001    1    1    2    0    0 -0.92244687670E+03 -0.25384649123E+03  0.16193968738E+04  0.20069361017E+04  0.70000000000E+03 0.  1.
<mgrwt>
<rscale>  0 0.24690074E+04</rscale>
<asrwt>0</asrwt>
<pdfrwt beam="1">  1        3 0.76721791E-01 0.24690074E+04</pdfrwt>
<pdfrwt beam="2">  1       -3 0.40538715E+00 0.24690074E+04</pdfrwt>
<totfact> 0.37070491E-02</totfact>
</mgrwt>
</event>
<event>
 8    1  0.1426346E-011  0.1520677E+04  0.7818608E-02  0.8870819E-01
          3   -1    0    0  501    0  0.00000000000E+00  0.00000000000E+00  0.30087956625E+03  0.30087958320E+03  0.10100000000E+00 0.  1.
         -3   -1    0    0    0  501 -0.00000000000E+00 -0.00000000000E+00 -0.19214142013E+04  0.19214142039E+04  0.10100000000E+00 0. -1.
     200001    2    1    2    0    0  0.17545344092E+03  0.20705247194E+03 -0.98734111583E+03  0.12401590363E+04  0.69964085085E+03 0.  0.
    5000001    2    3    3    0    0  0.28203574354E+02  0.12129664830E+03 -0.36407843875E+03  0.42315661943E+03  0.17606844268E+03 0.  0.
        -11    1    4    4    0    0  0.47294494760E+02  0.91965802730E+02 -0.68586601860E+02  0.12409109582E+03  0.51100000000E-03 0. -1.
     200002    1    4    4    0    0 -0.19090920406E+02  0.29330845565E+02 -0.29549183689E+03  0.29906552361E+03  0.30000000000E+02 0. -1.
     200000    1    3    3    0    0  0.14724986657E+03  0.85755823648E+02 -0.62326267708E+03  0.81700241684E+03  0.50000000000E+03 0.  1.
    -200001    1    1    2    0    0 -0.17545344092E+03 -0.20705247194E+03 -0.63319351917E+03  0.98213475083E+03  0.70000000000E+03 0.  1.
<mgrwt>
<rscale>  0 0.15206766E+04</rscale>
<asrwt>0</asrwt>
<pdfrwt beam="1">  1        3 0.42982798E-01 0.15206766E+04</pdfrwt>
<pdfrwt beam="2">  1       -3 0.27448774E+00 0.15206766E+04</pdfrwt>
<totfact> 0.72606608E-01</totfact>
</mgrwt>
</event>
<event>
 8    1  0.1426346E-011  0.1635498E+04  0.7818608E-02  0.8799032E-01
         -3   -1    0    0    0  501 -0.00000000000E+00  0.00000000000E+00  0.65211542524E+03  0.65211543306E+03  0.10100000000E+00 0. -1.
          3   -1    0    0  501    0  0.00000000000E+00 -0.00000000000E+00 -0.10254525950E+04  0.10254525999E+04  0.10100000000E+00 0.  1.
     200001    2    1    2    0    0 -0.79284208869E+02  0.30832827489E+03  0.81605628361E+02  0.78407754038E+03  0.71187484846E+03 0.  0.
    5000001    2    3    3    0    0 -0.34597034210E+02  0.42727938491E+02  0.14425667517E+03  0.21270582605E+03  0.14632548855E+03 0.  0.
        -11    1    4    4    0    0 -0.77663029928E+02 -0.26691751638E+01  0.39823210695E+02  0.87318719780E+02  0.51100000000E-03 0. -1.
     200002    1    4    4    0    0  0.43065995719E+02  0.45397113655E+02  0.10443346447E+03  0.12538710627E+03  0.30000000000E+02 0. -1.
     200000    1    3    3    0    0 -0.44687174659E+02  0.26560033640E+03 -0.62651046809E+02  0.57137171433E+03  0.50000000000E+03 0. -1.
    -200001    1    1    2    0    0  0.79284208869E+02 -0.30832827489E+03 -0.45494279810E+03  0.89349049263E+03  0.70000000000E+03 0.  1.
<mgrwt>
<rscale>  0 0.16354980E+04</rscale>
<asrwt>0</asrwt>
<pdfrwt beam="1">  1        3 0.14649323E+00 0.16354980E+04</pdfrwt>
<pdfrwt beam="2">  1       -3 0.93159347E-01 0.16354980E+04</pdfrwt>
<totfact> 0.89236131E-01</totfact>
</mgrwt>
</event>
<event>
 8    1  0.1426346E-011  0.1555187E+04  0.7818608E-02  0.8848562E-01
          3   -1    0    0  501    0  0.00000000000E+00  0.00000000000E+00  0.33340654126E+03  0.33340655656E+03  0.10100000000E+00 0.  1.
         -3   -1    0    0    0  501 -0.00000000000E+00 -0.00000000000E+00 -0.18135556719E+04  0.18135556747E+04  0.10100000000E+00 0. -1.
     200001    2    1    2    0    0 -0.14274300190E+03 -0.13615292378E+03 -0.35174280017E+03  0.80449657811E+03  0.69611677431E+03 0.  0.
    5000001    2    3    3    0    0  0.32941563809E+02 -0.65964582877E+02 -0.14957233549E+03  0.23295098359E+03  0.16265855154E+03 0.  0.
        -11    1    4    4    0    0  0.86220546052E+02 -0.82844088022E+01 -0.11009748991E+03  0.14008594246E+03  0.51100000000E-03 0. -1.
     200002    1    4    4    0    0 -0.53278982242E+02 -0.57680174075E+02 -0.39474845580E+02  0.92865041127E+02  0.30000000000E+02 0. -1.
     200000    1    3    3    0    0 -0.17568456571E+03 -0.70188340902E+02 -0.20217046468E+03  0.57154559452E+03  0.50000000000E+03 0.  1.
    -200001    1    1    2    0    0  0.14274300190E+03  0.13615292378E+03 -0.11284063304E+04  0.13424656531E+04  0.70000000000E+03 0. -1.
<mgrwt>
<rscale>  0 0.15551866E+04</rscale>
<asrwt>0</asrwt>
<pdfrwt beam="1">  1        3 0.47629508E-01 0.15551866E+04</pdfrwt>
<pdfrwt beam="2">  1       -3 0.25907938E+00 0.15551866E+04</pdfrwt>
<totfact> 0.72046054E-01</totfact>
</mgrwt>
</event>
<event>
 8    1  0.1426346E-011  0.2606031E+04  0.7818608E-02  0.8366155E-01
         -3   -1    0    0    0  501 -0.00000000000E+00  0.00000000000E+00  0.19081758574E+04  0.19081758601E+04  0.10100000000E+00 0. -1.
          3   -1    0    0  501    0  0.00000000000E+00 -0.00000000000E+00 -0.88977638110E+03  0.88977638683E+03  0.10100000000E+00 0.  1.
     200001    2    1    2    0    0 -0.37727021391E+03  0.10131732050E+04  0.72132612047E+03  0.14761711242E+04  0.69994075348E+03 0.  0.
    5000001    2    3    3    0    0 -0.98267373577E+02  0.34424342962E+03  0.23195131995E+03  0.46879963137E+03  0.19445221520E+03 0.  0.
        -11    1    4    4    0    0 -0.24129054930E+02  0.20024023979E+03  0.23399367034E+02  0.20304160978E+03  0.51100000000E-03 0. -1.
     200002    1    4    4    0    0 -0.74138318647E+02  0.14400318983E+03  0.20855195292E+03  0.26575802159E+03  0.30000000000E+02 0. -1.
     200000    1    3    3    0    0 -0.27900284033E+03  0.66892977535E+03  0.48937480052E+03  0.10073714929E+04  0.50000000000E+03 0.  1.
    -200001    1    1    2    0    0  0.37727021391E+03 -0.10131732050E+04  0.29707335588E+03  0.13217811227E+04  0.70000000000E+03 0. -1.
<mgrwt>
<rscale>  0 0.26060313E+04</rscale>
<asrwt>0</asrwt>
<pdfrwt beam="1">  1        3 0.12711091E+00 0.26060313E+04</pdfrwt>
<pdfrwt beam="2">  1       -3 0.27259655E+00 0.26060313E+04</pdfrwt>
<totfact> 0.61956641E-02</totfact>
</mgrwt>
</event>
<event>
 8    1  0.1426346E-011  0.1451032E+04  0.7818608E-02  0.8917686E-01
          3   -1    0    0  501    0  0.00000000000E+00  0.00000000000E+00  0.23083995191E+04  0.23083995213E+04  0.10100000000E+00 0.  1.
         -3   -1    0    0    0  501 -0.00000000000E+00 -0.00000000000E+00 -0.22802514233E+03  0.22802516470E+03  0.10100000000E+00 0. -1.
     200001    2    1    2    0    0  0.14667664072E+03  0.85151216022E+01  0.12493988268E+04  0.14400183248E+04  0.70076301500E+03 0.  0.
    5000001    2    3    3    0    0 -0.14186526556E+02  0.27772292344E+02  0.46452614479E+03  0.49541633236E+03  0.16935242960E+03 0.  0.
        -11    1    4    4    0    0  0.20037084978E+02  0.71240634405E+02  0.39401244120E+03  0.40090212844E+03  0.51100000000E-03 0. -1.
     200002    1    4    4    0    0 -0.34223611534E+02 -0.43468342061E+02  0.70513703587E+02  0.94514203914E+02  0.30000000000E+02 0. -1.
     200000    1    3    3    0    0  0.16086316727E+03 -0.19257170742E+02  0.78487268198E+03  0.94460199244E+03  0.50000000000E+03 0.  1.
    -200001    1    1    2    0    0 -0.14667664072E+03 -0.85151216022E+01  0.83097555003E+03  0.10964063612E+04  0.70000000000E+03 0. -1.
<mgrwt>
<rscale>  0 0.14510316E+04</rscale>
<asrwt>0</asrwt>
<pdfrwt beam="1">  1        3 0.32977138E+00 0.14510316E+04</pdfrwt>
<pdfrwt beam="2">  1       -3 0.32575020E-01 0.14510316E+04</pdfrwt>
<totfact> 0.63326509E-01</totfact>
</mgrwt>
</event>
<event>
 8    1  0.1426346E-011  0.1784712E+04  0.7818608E-02  0.8714472E-01
         -3   -1    0    0    0  501 -0.00000000000E+00  0.00000000000E+00  0.36792718218E+03  0.36792719604E+03  0.10100000000E+00 0. -1.
          3   -1    0    0  501    0  0.00000000000E+00 -0.00000000000E+00 -0.21642846745E+04  0.21642846769E+04  0.10100000000E+00 0.  1.
     200001    2    1    2    0    0  0.19716871931E+03  0.41945461020E+03 -0.13273540727E+04  0.15705560709E+04  0.69997133061E+03 0.  0.
    5000001    2    3    3    0    0  0.15825281073E+03  0.22182608542E+03 -0.56011507723E+03  0.63288493564E+03  0.11208781266E+03 0.  0.
        -11    1    4    4    0    0  0.28549121229E+02 -0.74607096152E+01 -0.56812403000E+02  0.64018463319E+02  0.51100000000E-03 0. -1.
     200002    1    4    4    0    0  0.12970368951E+03  0.22928679503E+03 -0.50330267423E+03  0.56886647232E+03  0.30000000000E+02 0. -1.
     200000    1    3    3    0    0  0.38915908576E+02  0.19762852478E+03 -0.76723899545E+03  0.93767113526E+03  0.50000000000E+03 0.  1.
    -200001    1    1    2    0    0 -0.19716871931E+03 -0.41945461020E+03 -0.46900341965E+03  0.96165580201E+03  0.70000000000E+03 0. -1.
<mgrwt>
<rscale>  0 0.17847119E+04</rscale>
<asrwt>0</asrwt>
<pdfrwt beam="1">  1        3 0.30918352E+00 0.17847119E+04</pdfrwt>
<pdfrwt beam="2">  1       -3 0.52561029E-01 0.17847119E+04</pdfrwt>
<totfact> 0.30745059E-01</totfact>
</mgrwt>
</event>
<event>
 8    1  0.1426346E-011  0.1656188E+04  0.7818608E-02  0.8786754E-01
          3   -1    0    0  501    0  0.00000000000E+00  0.00000000000E+00  0.12947271331E+04  0.12947271370E+04  0.10100000000E+00 0.  1.
         -3   -1    0    0    0  501 -0.00000000000E+00 -0.00000000000E+00 -0.52964002121E+03  0.52964003084E+03  0.10100000000E+00 0. -1.
     200001    2    1    2    0    0 -0.18835182716E+02  0.43336845671E+03  0.47830586321E+03  0.95235428495E+03  0.70002800080E+03 0.  0.
    5000001    2    3    3    0    0 -0.11770248938E+02  0.13208586746E+03  0.13009467894E+03  0.27259540069E+03  0.19949539305E+03 0.  0.
        -11    1    4    4    0    0  0.64196061548E+02  0.10749987087E+03  0.13871312025E+03  0.18686542292E+03  0.51100000000E-03 0. -1.
     200002    1    4    4    0    0 -0.75966310486E+02  0.24585996582E+02 -0.86184413079E+01  0.85729977764E+02  0.30000000000E+02 0. -1.
     200000    1    3    3    0    0 -0.70649337781E+01  0.30128258925E+03  0.34821118427E+03  0.67975888426E+03  0.50000000000E+03 0.  1.
    -200001    1    1    2    0    0  0.18835182716E+02 -0.43336845671E+03  0.28678124866E+03  0.87201288291E+03  0.70000000000E+03 0. -1.
<mgrwt>
<rscale>  0 0.16561876E+04</rscale>
<asrwt>0</asrwt>
<pdfrwt beam="1">  1        3 0.18496102E+00 0.16561876E+04</pdfrwt>
<pdfrwt beam="2">  1       -3 0.75662862E-01 0.16561876E+04</pdfrwt>
<totfact> 0.76184257E-01</totfact>
</mgrwt>
</event>
<event>
 8    1  0.1426346E-011  0.1594023E+04  0.7818608E-02  0.8824228E-01
          3   -1    0    0  501    0  0.00000000000E+00  0.00000000000E+00  0.11633245965E+04  0.11633246009E+04  0.10100000000E+00 0.  1.
         -3   -1    0    0    0  501 -0.00000000000E+00 -0.00000000000E+00 -0.54604499607E+03  0.54604500541E+03  0.10100000000E+00 0. -1.
     200001    2    1    2    0    0  0.12152415711E+03 -0.14568580931E+03  0.66236544391E+03  0.98271617508E+03  0.70072150223E+03 0.  0.
    5000001    2    3    3    0    0  0.54956384127E+02 -0.21280305486E+02  0.10304602157E+03  0.21933801585E+03  0.18443868108E+03 0.  0.
        -11    1    4    4    0    0  0.80670482285E+02 -0.10126270334E+02 -0.24847825920E+02  0.85015778042E+02  0.51100000000E-03 0. -1.
     200002    1    4    4    0    0 -0.25714098158E+02 -0.11154035153E+02  0.12789384749E+03  0.13432223781E+03  0.30000000000E+02 0. -1.
     200000    1    3    3    0    0  0.66567772978E+02 -0.12440550383E+03  0.55931942235E+03  0.76337815923E+03  0.50000000000E+03 0.  1.
    -200001    1    1    2    0    0 -0.12152415711E+03  0.14568580931E+03 -0.45085843499E+02  0.72665343120E+03  0.70000000000E+03 0. -1.
<mgrwt>
<rscale>  0 0.15940233E+04</rscale>
<asrwt>0</asrwt>
<pdfrwt beam="1">  1        3 0.16618923E+00 0.15940233E+04</pdfrwt>
<pdfrwt beam="2">  1       -3 0.78006429E-01 0.15940233E+04</pdfrwt>
<totfact> 0.95965790E-01</totfact>
</mgrwt>
</event>
<event>
 8    1  0.1426346E-011  0.1617875E+04  0.7818608E-02  0.8809641E-01
         -3   -1    0    0    0  501 -0.00000000000E+00  0.00000000000E+00  0.14146470341E+04  0.14146470377E+04  0.10100000000E+00 0. -1.
          3   -1    0    0  501    0  0.00000000000E+00 -0.00000000000E+00 -0.46257464817E+03  0.46257465920E+03  0.10100000000E+00 0.  1.
     200001    2    1    2    0    0 -0.31536642264E+03  0.12781746676E+03  0.22162119940E+03  0.80981726499E+03  0.70063882373E+03 0.  0.
    5000001    2    3    3    0    0 -0.78539313338E+02 -0.97508232906E+02  0.49356241599E+02  0.18809870622E+03  0.13141082708E+03 0.  0.
        -11    1    4    4    0    0  0.96583707326E+01 -0.20388008760E+02  0.62500064924E+02  0.66447070230E+02  0.51100000000E-03 0. -1.
     200002    1    4    4    0    0 -0.88197684071E+02 -0.77120224146E+02 -0.13143823325E+02  0.12165163599E+03  0.30000000000E+02 0. -1.
     200000    1    3    3    0    0 -0.23682710930E+03  0.22532569967E+03  0.17226495780E+03  0.62171855877E+03  0.50000000000E+03 0. -1.
    -200001    1    1    2    0    0  0.31536642264E+03 -0.12781746676E+03  0.73045118649E+03  0.10674044319E+04  0.70000000000E+03 0.  1.
<mgrwt>
<rscale>  0 0.16178750E+04</rscale>
<asrwt>0</asrwt>
<pdfrwt beam="1">  1        3 0.66082092E-01 0.16178750E+04</pdfrwt>
<pdfrwt beam="2">  1       -3 0.20209244E+00 0.16178750E+04</pdfrwt>
<totfact> 0.79182384E-01</totfact>
</mgrwt>
</event>
<event>
 8    1  0.1426346E-011  0.1485219E+04  0.7818608E-02  0.8894342E-01
          3   -1    0    0  501    0  0.00000000000E+00  0.00000000000E+00  0.13527401371E+04  0.13527401409E+04  0.10100000000E+00 0.  1.
         -3   -1    0    0    0  501 -0.00000000000E+00 -0.00000000000E+00 -0.40766817320E+03  0.40766818571E+03  0.10100000000E+00 0. -1.
     200001    2    1    2    0    0 -0.48771355636E+02 -0.58686225540E+02  0.19299557262E+03  0.73014543948E+03  0.70003025188E+03 0.  0.
    5000001    2    3    3    0    0 -0.20289453048E-01 -0.11466378163E+03  0.71009497949E+02  0.21015432835E+03  0.16116671399E+03 0.  0.
        -11    1    4    4    0    0  0.77306912628E+02 -0.51493539703E+02  0.24984385542E+02  0.96188163993E+02  0.51100000000E-03 0. -1.
     200002    1    4    4    0    0 -0.77327202081E+02 -0.63170241926E+02  0.46025112407E+02  0.11396616436E+03  0.30000000000E+02 0. -1.
     200000    1    3    3    0    0 -0.48751066183E+02  0.55977556090E+02  0.12198607467E+03  0.51999111113E+03  0.50000000000E+03 0. -1.
    -200001    1    1    2    0    0  0.48771355636E+02  0.58686225540E+02  0.75207639129E+03  0.10302628871E+04  0.70000000000E+03 0.  1.
<mgrwt>
<rscale>  0 0.14852193E+04</rscale>
<asrwt>0</asrwt>
<pdfrwt beam="1">  1        3 0.19324859E+00 0.14852193E+04</pdfrwt>
<pdfrwt beam="2">  1       -3 0.58238312E-01 0.14852193E+04</pdfrwt>
<totfact> 0.11980955E+00</totfact>
</mgrwt>
</event>
<event>
 8    1  0.1426346E-011  0.1574238E+04  0.7818608E-02  0.8836533E-01
         -3   -1    0    0    0  501 -0.00000000000E+00  0.00000000000E+00  0.16118303578E+03  0.16118306743E+03  0.10100000000E+00 0. -1.
          3   -1    0    0  501    0  0.00000000000E+00 -0.00000000000E+00 -0.38438057183E+04  0.38438057197E+04  0.10100000000E+00 0.  1.
     200001    2    1    2    0    0 -0.18149035741E+03 -0.29834958163E+03 -0.16179018184E+04  0.17970432557E+04  0.69986209085E+03 0.  0.
    5000001    2    3    3    0    0 -0.96320479254E+02 -0.35803065636E+02 -0.35815716289E+03  0.41387978804E+03  0.18016778676E+03 0.  0.
        -11    1    4    4    0    0 -0.12088323793E+03 -0.75917332246E+02 -0.19656469762E+03  0.24292772361E+03  0.51100000000E-03 0. -1.
     200002    1    4    4    0    0  0.24562758681E+02  0.40114266611E+02 -0.16159246527E+03  0.17095206442E+03  0.30000000000E+02 0. -1.
     200000    1    3    3    0    0 -0.85169878152E+02 -0.26254651599E+03 -0.12597446555E+04  0.13831634677E+04  0.50000000000E+03 0.  1.
    -200001    1    1    2    0    0  0.18149035741E+03  0.29834958163E+03 -0.20647208642E+04  0.22079455314E+04  0.70000000000E+03 0. -1.
<mgrwt>
<rscale>  0 0.15742380E+04</rscale>
<asrwt>0</asrwt>
<pdfrwt beam="1">  1        3 0.54911505E+00 0.15742380E+04</pdfrwt>
<pdfrwt beam="2">  1       -3 0.23026153E-01 0.15742380E+04</pdfrwt>
<totfact> 0.90426454E-02</totfact>
</mgrwt>
</event>
