<event>
 8    1  0.6972317E-052  0.1411103E+04  0.7818608E-02  0.8945821E-01
         -2   -1    0    0    0  501 -0.00000000000E+00  0.00000000000E+00  0.28841692608E+04  0.28841692608E+04  0.25500000000E-02 0. -1.
          2   -1    0    0  501    0  0.00000000000E+00 -0.00000000000E+00 -0.17259831321E+03  0.17259831323E+03  0.25500000000E-02 0.  1.
     200001    2    1    2    0    0 -0.34638068715E+03 -0.18678404935E+00  0.14540859289E+04  0.16155815390E+04  0.61299119509E+03 0.  0.
    5000001    2    3    3    0    0 -0.41322569841E+03 -0.54931104830E+02  0.50981931276E+03  0.66200635135E+03  0.67555706273E+02 0.  0.
        -11    1    4    4    0    0 -0.27161181440E+03 -0.21231765169E+02  0.35357698881E+03  0.44636358789E+03  0.51100000000E-03 0. -1.
     200002    1    4    4    0    0 -0.14161388401E+03 -0.33699339660E+02  0.15624232395E+03  0.21564276346E+03  0.30000000000E+02 0. -1.
     200000    1    3    3    0    0  0.66845011265E+02  0.54744320780E+02  0.94426661611E+03  0.95357518764E+03  0.10100000000E+03 0.  1.
    -200001    1    1    2    0    0  0.34638068715E+03  0.18678404935E+00  0.12574850187E+04  0.14411860350E+04  0.61300000000E+03 0.  1.
<mgrwt>
<rscale>  0 0.14111028E+04</rscale>
<asrwt>0</asrwt>
<pdfrwt beam="1">  1        2 0.24656904E-01 0.14111028E+04</pdfrwt>
<pdfrwt beam="2">  1       -2 0.41202415E+00 0.14111028E+04</pdfrwt>
<totfact> 0.13604769E+00</totfact>
</mgrwt>
</event>
<event>
 8    1  0.6972317E-052  0.1606725E+04  0.7818608E-02  0.8816427E-01
         -2   -1    0    0    0  501 -0.00000000000E+00  0.00000000000E+00  0.23925580646E+03  0.23925580648E+03  0.25500000000E-02 0. -1.
          2   -1    0    0  501    0  0.00000000000E+00 -0.00000000000E+00 -0.26974954696E+04  0.26974954696E+04  0.25500000000E-02 0.  1.
     200001    2    1    2    0    0 -0.14408641464E+03 -0.46042510392E+02 -0.21336056453E+04  0.22267956062E+04  0.61924535875E+03 0.  0.
    5000001    2    3    3    0    0 -0.48870952738E+02  0.48027539476E+02 -0.67928741976E+02  0.15432432110E+03  0.12044362801E+03 0.  0.
        -11    1    4    4    0    0 -0.27941158694E+02  0.25321093509E+02 -0.95855986557E+02  0.10300600121E+03  0.51100000000E-03 0. -1.
     200002    1    4    4    0    0 -0.20929794044E+02  0.22706445967E+02  0.27927244581E+02  0.51318319897E+02  0.30000000000E+02 0. -1.
     200000    1    3    3    0    0 -0.95215461901E+02 -0.94070049869E+02 -0.20656769034E+04  0.20724712851E+04  0.10100000000E+03 0.  1.
    -200001    1    1    2    0    0  0.14408641464E+03  0.46042510392E+02 -0.32463401775E+03  0.70995566983E+03  0.61300000000E+03 0. -1.
<mgrwt>
<rscale>  0 0.16067252E+04</rscale>
<asrwt>0</asrwt>
<pdfrwt beam="1">  1        2 0.38535648E+00 0.16067252E+04</pdfrwt>
<pdfrwt beam="2">  1       -2 0.34179402E-01 0.16067252E+04</pdfrwt>
<totfact> 0.26674753E+01</totfact>
</mgrwt>
</event>
<event>
 8    1  0.6972317E-052  0.1746047E+04  0.7818608E-02  0.8735529E-01
         -2   -1    0    0    0  501 -0.00000000000E+00  0.00000000000E+00  0.11586682389E+04  0.11586682389E+04  0.25500000000E-02 0. -1.
          2   -1    0    0  501    0  0.00000000000E+00 -0.00000000000E+00 -0.65779854353E+03  0.65779854354E+03  0.25500000000E-02 0.  1.
     200001    2    1    2    0    0  0.58630549648E+03 -0.20277077345E+03  0.27137821372E+03  0.91463228436E+03  0.61484628887E+03 0.  0.
    5000001    2    3    3    0    0  0.58772901586E+03  0.21728021122E+02  0.77499826901E+02  0.60127695243E+03  0.98133823812E+02 0.  0.
        -11    1    4    4    0    0  0.76209543854E+02  0.26566040742E+02 -0.10388998434E+02  0.81373093734E+02  0.51100000000E-03 0. -1.
     200002    1    4    4    0    0  0.51151947200E+03 -0.48380196191E+01  0.87888825335E+02  0.51990385870E+03  0.30000000000E+02 0. -1.
     200000    1    3    3    0    0 -0.14235193734E+01 -0.22449879457E+03  0.19387838682E+03  0.31335533193E+03  0.10100000000E+03 0. -1.
    -200001    1    1    2    0    0 -0.58630549648E+03  0.20277077345E+03  0.22949148164E+03  0.90183449808E+03  0.61300000000E+03 0.  1.
<mgrwt>
<rscale>  0 0.17460473E+04</rscale>
<asrwt>0</asrwt>
<pdfrwt beam="1">  1        2 0.93971220E-01 0.17460473E+04</pdfrwt>
<pdfrwt beam="2">  1       -2 0.16552404E+00 0.17460473E+04</pdfrwt>
<totfact> 0.10593271E+01</totfact>
</mgrwt>
</event>
<event>
 8    1  0.6972317E-052  0.2248764E+04  0.7818608E-02  0.8498401E-01
          2   -1    0    0  501    0  0.00000000000E+00  0.00000000000E+00  0.18663076672E+04  0.18663076672E+04  0.25500000000E-02 0.  1.
         -2   -1    0    0    0  501 -0.00000000000E+00 -0.00000000000E+00 -0.67739912050E+03  0.67739912050E+03  0.25500000000E-02 0. -1.
     200001    2    1    2    0    0  0.10474394474E+03  0.13697402988E+03 -0.45371850356E+03  0.78196736172E+03  0.61308995711E+03 0.  0.
    5000001    2    3    3    0    0 -0.62134438481E+02 -0.31372691651E+02 -0.37081522130E+03  0.51129603401E+03  0.34507212553E+03 0.  0.
        -11    1    4    4    0    0  0.14248743235E+03 -0.24009466439E+02 -0.13806466993E+03  0.19985238537E+03  0.51100000000E-03 0. -1.
     200002    1    4    4    0    0 -0.20462187083E+03 -0.73632252125E+01 -0.23275055137E+03  0.31144364863E+03  0.30000000000E+02 0. -1.
     200000    1    3    3    0    0  0.16687838322E+03  0.16834672153E+03 -0.82903282261E+02  0.27067132772E+03  0.10100000000E+03 0. -1.
    -200001    1    1    2    0    0 -0.10474394474E+03 -0.13697402988E+03  0.16426270503E+04  0.17617394260E+04  0.61300000000E+03 0.  1.
<mgrwt>
<rscale>  0 0.22487643E+04</rscale>
<asrwt>0</asrwt>
<pdfrwt beam="1">  1        2 0.26661539E+00 0.22487643E+04</pdfrwt>
<pdfrwt beam="2">  1       -2 0.96771301E-01 0.22487643E+04</pdfrwt>
<totfact> 0.76798253E+00</totfact>
</mgrwt>
</event>
<event>
 8    1  0.6972317E-052  0.1581973E+04  0.7818608E-02  0.8831700E-01
          2   -1    0    0  501    0  0.00000000000E+00  0.00000000000E+00  0.27852051664E+04  0.27852051664E+04  0.25500000000E-02 0.  1.
         -2   -1    0    0    0  501 -0.00000000000E+00 -0.00000000000E+00 -0.22463686314E+03  0.22463686315E+03  0.25500000000E-02 0. -1.
     200001    2    1    2    0    0  0.25413461163E+03  0.12133423125E+02  0.20992730138E+04  0.22015760060E+04  0.61258313957E+03 0.  0.
    5000001    2    3    3    0    0  0.50534756654E+02  0.24794027389E+03  0.48104972683E+03  0.55054439566E+03  0.87533712714E+02 0.  0.
        -11    1    4    4    0    0 -0.51143272742E+01  0.13057207189E+03  0.28419191611E+03  0.31279428940E+03  0.51100000000E-03 0. -1.
     200002    1    4    4    0    0  0.55649083928E+02  0.11736820200E+03  0.19685781072E+03  0.23775010625E+03  0.30000000000E+02 0. -1.
     200000    1    3    3    0    0  0.20359985498E+03 -0.23580685076E+03  0.16182232869E+04  0.16510316103E+04  0.10100000000E+03 0.  1.
    -200001    1    1    2    0    0 -0.25413461163E+03 -0.12133423125E+02  0.46129528948E+03  0.80826602359E+03  0.61300000000E+03 0.  1.
<mgrwt>
<rscale>  0 0.15819731E+04</rscale>
<asrwt>0</asrwt>
<pdfrwt beam="1">  1        2 0.39788645E+00 0.15819731E+04</pdfrwt>
<pdfrwt beam="2">  1       -2 0.32090981E-01 0.15819731E+04</pdfrwt>
<totfact> 0.27014683E+01</totfact>
</mgrwt>
</event>
<event>
 8    1  0.6972317E-052  0.1423432E+04  0.7818608E-02  0.8937030E-01
          2   -1    0    0  501    0  0.00000000000E+00  0.00000000000E+00  0.35753598905E+04  0.35753598905E+04  0.25500000000E-02 0.  1.
         -2   -1    0    0    0  501 -0.00000000000E+00 -0.00000000000E+00 -0.14167510394E+03  0.14167510396E+03  0.25500000000E-02 0. -1.
     200001    2    1    2    0    0 -0.13322771928E+03  0.19446622024E+03  0.24241322625E+04  0.25126546414E+04  0.61761588783E+03 0.  0.
    5000001    2    3    3    0    0  0.12672299323E+03 -0.26367056556E+02  0.22512896101E+03  0.28506441225E+03  0.11757861779E+03 0.  0.
        -11    1    4    4    0    0  0.10401495342E+03  0.27651898664E+02  0.15678640782E+03  0.19017285745E+03  0.51100000000E-03 0. -1.
     200002    1    4    4    0    0  0.22708039806E+02 -0.54018955221E+02  0.68342553193E+02  0.94891554798E+02  0.30000000000E+02 0. -1.
     200000    1    3    3    0    0 -0.25995071251E+03  0.22083327679E+03  0.21990033015E+04  0.22275902292E+04  0.10100000000E+03 0.  1.
    -200001    1    1    2    0    0  0.13322771928E+03 -0.19446622024E+03  0.10095525241E+04  0.12043803531E+04  0.61300000000E+03 0. -1.
<mgrwt>
<rscale>  0 0.14234317E+04</rscale>
<asrwt>0</asrwt>
<pdfrwt beam="1">  1        2 0.51076571E+00 0.14234317E+04</pdfrwt>
<pdfrwt beam="2">  1       -2 0.20239300E-01 0.14234317E+04</pdfrwt>
<totfact> 0.22290719E+01</totfact>
</mgrwt>
</event>
<event>
 8    1  0.6972317E-052  0.1419548E+04  0.7818608E-02  0.8939789E-01
         -2   -1    0    0    0  501 -0.00000000000E+00  0.00000000000E+00  0.72210123573E+03  0.72210123573E+03  0.25500000000E-02 0. -1.
          2   -1    0    0  501    0  0.00000000000E+00 -0.00000000000E+00 -0.69765737587E+03  0.69765737587E+03  0.25500000000E-02 0.  1.
     200001    2    1    2    0    0 -0.19608796484E+03  0.27430148046E+03 -0.10203593387E+03  0.70880296576E+03  0.61505976972E+03 0.  0.
    5000001    2    3    3    0    0  0.13749630843E+01 -0.17981078428E+03 -0.73282952532E+02  0.20260410085E+03  0.57829247652E+02 0.  0.
        -11    1    4    4    0    0  0.30203834967E+01 -0.11810847096E+02 -0.20697652549E+02  0.24021066731E+02  0.51100000000E-03 0. -1.
     200002    1    4    4    0    0 -0.16454204123E+01 -0.16799993718E+03 -0.52585299983E+02  0.17858303412E+03  0.30000000000E+02 0. -1.
     200000    1    3    3    0    0 -0.19746292792E+03  0.45411226474E+03 -0.28752981341E+02  0.50619886490E+03  0.10100000000E+03 0.  1.
    -200001    1    1    2    0    0  0.19608796484E+03 -0.27430148046E+03  0.12647979373E+03  0.71095564585E+03  0.61300000000E+03 0. -1.
<mgrwt>
<rscale>  0 0.14195482E+04</rscale>
<asrwt>0</asrwt>
<pdfrwt beam="1">  1        2 0.99665339E-01 0.14195482E+04</pdfrwt>
<pdfrwt beam="2">  1       -2 0.10315732E+00 0.14195482E+04</pdfrwt>
<totfact> 0.33754669E+01</totfact>
</mgrwt>
</event>
<event>
 8    1  0.6972317E-052  0.1394342E+04  0.7818608E-02  0.8957924E-01
          2   -1    0    0  501    0  0.00000000000E+00  0.00000000000E+00  0.17054543738E+04  0.17054543738E+04  0.25500000000E-02 0.  1.
         -2   -1    0    0    0  501 -0.00000000000E+00 -0.00000000000E+00 -0.28499584455E+03  0.28499584456E+03  0.25500000000E-02 0. -1.
     200001    2    1    2    0    0 -0.16878436297E+03 -0.24319339439E+03  0.92471760975E+03  0.11483342836E+04  0.61313765253E+03 0.  0.
    5000001    2    3    3    0    0 -0.35265916601E+03 -0.17445453725E+03  0.33830453577E+03  0.52174329503E+03  0.54435595408E+02 0.  0.
        -11    1    4    4    0    0  0.45482754993E+00  0.47485134833E+00 -0.76944715811E+00  0.10121270145E+01  0.51100000000E-03 0. -1.
     200002    1    4    4    0    0 -0.35311399356E+03 -0.17492938860E+03  0.33907398293E+03  0.52073116802E+03  0.30000000000E+02 0. -1.
     200000    1    3    3    0    0  0.18387480304E+03 -0.68738857140E+02  0.58641307398E+03  0.62659098861E+03  0.10100000000E+03 0.  1.
    -200001    1    1    2    0    0  0.16878436297E+03  0.24319339439E+03  0.49574091952E+03  0.84211593474E+03  0.61300000000E+03 0. -1.
<mgrwt>
<rscale>  0 0.13943420E+04</rscale>
<asrwt>0</asrwt>
<pdfrwt beam="1">  1        2 0.24363635E+00 0.13943420E+04</pdfrwt>
<pdfrwt beam="2">  1       -2 0.40713690E-01 0.13943420E+04</pdfrwt>
<totfact> 0.63421296E+01</totfact>
</mgrwt>
</event>
<event>
 8    1  0.6972317E-052  0.1636095E+04  0.7818608E-02  0.8798675E-01
         -2   -1    0    0    0  501 -0.00000000000E+00  0.00000000000E+00  0.35650283049E+03  0.35650283050E+03  0.25500000000E-02 0. -1.
          2   -1    0    0  501    0  0.00000000000E+00 -0.00000000000E+00 -0.18771291128E+04  0.18771291128E+04  0.25500000000E-02 0.  1.
     200001    2    1    2    0    0  0.23657784845E+03 -0.11767428669E+03 -0.14073405098E+04  0.15565654899E+04  0.61030524950E+03 0.  0.
    5000001    2    3    3    0    0  0.27635188159E+03 -0.18534611159E+03 -0.13798242635E+04  0.14257236258E+04  0.13434774032E+03 0.  0.
        -11    1    4    4    0    0  0.70431331663E+02  0.12585529377E+02 -0.28946668245E+03  0.29817767904E+03  0.51100000000E-03 0. -1.
     200002    1    4    4    0    0  0.20592054993E+03 -0.19793164097E+03 -0.10903575811E+04  0.11275459467E+04  0.30000000000E+02 0. -1.
     200000    1    3    3    0    0 -0.39774033140E+02  0.67671824906E+02 -0.27516246328E+02  0.13084186414E+03  0.10100000000E+03 0. -1.
    -200001    1    1    2    0    0 -0.23657784845E+03  0.11767428669E+03 -0.11328577250E+03  0.67706645344E+03  0.61300000000E+03 0. -1.
<mgrwt>
<rscale>  0 0.16360952E+04</rscale>
<asrwt>0</asrwt>
<pdfrwt beam="1">  1        2 0.26816130E+00 0.16360952E+04</pdfrwt>
<pdfrwt beam="2">  1       -2 0.50928977E-01 0.16360952E+04</pdfrwt>
<totfact> 0.32418576E+01</totfact>
</mgrwt>
</event>
<event>
 8    1  0.6972317E-052  0.1621533E+04  0.7818608E-02  0.8807428E-01
         -2   -1    0    0    0  501 -0.00000000000E+00  0.00000000000E+00  0.37056074166E+03  0.37056074167E+03  0.25500000000E-02 0.  1.
          2   -1    0    0  501    0  0.00000000000E+00 -0.00000000000E+00 -0.17739116995E+04  0.17739116995E+04  0.25500000000E-02 0. -1.
     200001    2    1    2    0    0 -0.86872929444E+02 -0.21578845645E+03 -0.69025775502E+02  0.65776323759E+03  0.61137251757E+03 0.  0.
    5000001    2    3    3    0    0  0.65956734246E+02  0.10789380921E+03 -0.15936902993E+03  0.27502309228E+03  0.18506174302E+03 0.  0.
        -11    1    4    4    0    0  0.15657481454E+02  0.77524225385E+02  0.21946779448E+02  0.82078154069E+02  0.51100000000E-03 0. -1.
     200002    1    4    4    0    0  0.50299252791E+02  0.30369583829E+02 -0.18131580938E+03  0.19294493822E+03  0.30000000000E+02 0. -1.
     200000    1    3    3    0    0 -0.15282966369E+03 -0.32368226566E+03  0.90343254426E+02  0.38274014531E+03  0.10100000000E+03 0.  1.
    -200001    1    1    2    0    0  0.86872929444E+02  0.21578845645E+03 -0.13343251824E+04  0.14867092036E+04  0.61300000000E+03 0. -1.
<mgrwt>
<rscale>  0 0.16215327E+04</rscale>
<asrwt>0</asrwt>
<pdfrwt beam="1">  1        2 0.25341595E+00 0.16215327E+04</pdfrwt>
<pdfrwt beam="2">  1       -2 0.52937250E-01 0.16215327E+04</pdfrwt>
<totfact> 0.33891911E+01</totfact>
</mgrwt>
</event>
<event>
 8    1  0.6972317E-052  0.1513531E+04  0.7818608E-02  0.8875505E-01
         -2   -1    0    0    0  501 -0.00000000000E+00  0.00000000000E+00  0.75678520259E+03  0.75678520259E+03  0.25500000000E-02 0. -1.
          2   -1    0    0  501    0  0.00000000000E+00 -0.00000000000E+00 -0.75674531707E+03  0.75674531707E+03  0.25500000000E-02 0.  1.
     200001    2    1    2    0    0  0.43426783031E+03  0.61709589804E+02  0.63866203623E+02  0.75706543732E+03  0.61373655790E+03 0.  0.
    5000001    2    3    3    0    0  0.50112883993E+03 -0.10362701420E+03  0.67705401977E+02  0.55207195773E+03  0.19578241181E+03 0.  0.
        -11    1    4    4    0    0  0.28551824180E+03  0.38220799072E+02  0.33553533847E+02  0.29001264716E+03  0.51100000000E-03 0. -1.
     200002    1    4    4    0    0  0.21561059813E+03 -0.14184781328E+03  0.34151868129E+02  0.26205931057E+03  0.30000000000E+02 0. -1.
     200000    1    3    3    0    0 -0.66861009616E+02  0.16533660401E+03 -0.38391983539E+01  0.20499347959E+03  0.10100000000E+03 0.  1.
    -200001    1    1    2    0    0 -0.43426783031E+03 -0.61709589804E+02 -0.63826318107E+02  0.75646508234E+03  0.61300000000E+03 0.  1.
<mgrwt>
<rscale>  0 0.15135305E+04</rscale>
<asrwt>0</asrwt>
<pdfrwt beam="1">  1        2 0.10810647E+00 0.15135305E+04</pdfrwt>
<pdfrwt beam="2">  1       -2 0.10811217E+00 0.15135305E+04</pdfrwt>
<totfact> 0.27051186E+01</totfact>
</mgrwt>
</event>
<event>
 8    1  0.6972317E-052  0.1499244E+04  0.7818608E-02  0.8884956E-01
          2   -1    0    0  501    0  0.00000000000E+00  0.00000000000E+00  0.29449419656E+04  0.29449419656E+04  0.25500000000E-02 0.  1.
         -2   -1    0    0    0  501 -0.00000000000E+00 -0.00000000000E+00 -0.19081306483E+03  0.19081306484E+03  0.25500000000E-02 0. -1.
     200001    2    1    2    0    0 -0.13703359443E+03 -0.17640180823E+02  0.22320555237E+04  0.23187978755E+04  0.61291299918E+03 0.  0.
    5000001    2    3    3    0    0  0.22514110051E+03 -0.50916495520E+01  0.62995268311E+03  0.67311792875E+03  0.74383620652E+02 0.  0.
        -11    1    4    4    0    0  0.15585988579E+03  0.19089277642E+02  0.44499239489E+03  0.47188445199E+03  0.51100000000E-03 0. -1.
     200002    1    4    4    0    0  0.69281214715E+02 -0.24180927194E+02  0.18496028822E+03  0.20123347676E+03  0.30000000000E+02 0.  1.
     200000    1    3    3    0    0 -0.36217469494E+03 -0.12548531271E+02  0.16021028406E+04  0.16456799467E+04  0.10100000000E+03 0.  1.
    -200001    1    1    2    0    0  0.13703359443E+03  0.17640180823E+02  0.52207337711E+03  0.81695715498E+03  0.61300000000E+03 0. -1.
<mgrwt>
<rscale>  0 0.14992443E+04</rscale>
<asrwt>0</asrwt>
<pdfrwt beam="1">  1        2 0.42070598E+00 0.14992443E+04</pdfrwt>
<pdfrwt beam="2">  1       -2 0.27259010E-01 0.14992443E+04</pdfrwt>
<totfact> 0.30141941E+01</totfact>
</mgrwt>
</event>
<event>
 8    1  0.6972317E-052  0.1550184E+04  0.7818608E-02  0.8851750E-01
          2   -1    0    0  501    0  0.00000000000E+00  0.00000000000E+00  0.37273248623E+04  0.37273248623E+04  0.25500000000E-02 0.  1.
         -2   -1    0    0    0  501 -0.00000000000E+00 -0.00000000000E+00 -0.16117934020E+03  0.16117934022E+03  0.25500000000E-02 0. -1.
     200001    2    1    2    0    0  0.36462635746E+03  0.14933763816E+03  0.24482042858E+04  0.25540321277E+04  0.61165494643E+03 0.  0.
    5000001    2    3    3    0    0  0.14648589169E+03  0.28057005366E+03  0.20101883907E+04  0.20374412509E+04  0.10065690746E+03 0.  0.
        -11    1    4    4    0    0  0.81708732451E+02  0.12817701893E+03  0.68834571199E+03  0.70492941800E+03  0.51100000000E-03 0. -1.
     200002    1    4    4    0    0  0.64777159243E+02  0.15239303473E+03  0.13218426787E+04  0.13325118329E+04  0.30000000000E+02 0. -1.
     200000    1    3    3    0    0  0.21814046577E+03 -0.13123241550E+03  0.43801589512E+03  0.51659087687E+03  0.10100000000E+03 0. -1.
    -200001    1    1    2    0    0 -0.36462635746E+03 -0.14933763816E+03  0.11179412363E+04  0.13344720748E+04  0.61300000000E+03 0.  1.
<mgrwt>
<rscale>  0 0.15501842E+04</rscale>
<asrwt>0</asrwt>
<pdfrwt beam="1">  1        2 0.53247499E+00 0.15501842E+04</pdfrwt>
<pdfrwt beam="2">  1       -2 0.23025620E-01 0.15501842E+04</pdfrwt>
<totfact> 0.14055221E+01</totfact>
</mgrwt>
</event>
<event>
 8    1  0.6972317E-052  0.1365236E+04  0.7818608E-02  0.8979374E-01
          2   -1    0    0  501    0  0.00000000000E+00  0.00000000000E+00  0.11787315286E+04  0.11787315286E+04  0.25500000000E-02 0.  1.
         -2   -1    0    0    0  501 -0.00000000000E+00 -0.00000000000E+00 -0.39531230417E+03  0.39531230418E+03  0.25500000000E-02 0. -1.
     200001    2    1    2    0    0  0.11984327789E+03  0.23073370851E+03  0.21785700986E+03  0.70041343379E+03  0.61279429337E+03 0.  0.
    5000001    2    3    3    0    0 -0.81666290699E+02  0.37271319969E+03  0.86421640827E+02  0.40336034361E+03  0.98215856846E+02 0.  0.
        -11    1    4    4    0    0  0.11953251359E+02  0.75671800322E+02  0.41906379499E+02  0.87322655852E+02  0.51100000000E-03 0. -1.
     200002    1    4    4    0    0 -0.93619542059E+02  0.29704139937E+03  0.44515261328E+02  0.31603768776E+03  0.30000000000E+02 0. -1.
     200000    1    3    3    0    0  0.20150956859E+03 -0.14197949119E+03  0.13143536903E+03  0.29705309017E+03  0.10100000000E+03 0.  1.
    -200001    1    1    2    0    0 -0.11984327789E+03 -0.23073370851E+03  0.56556221459E+03  0.87363039901E+03  0.61300000000E+03 0. -1.
<mgrwt>
<rscale>  0 0.13652356E+04</rscale>
<asrwt>0</asrwt>
<pdfrwt beam="1">  1        2 0.16839022E+00 0.13652356E+04</pdfrwt>
<pdfrwt beam="2">  1       -2 0.56473186E-01 0.13652356E+04</pdfrwt>
<totfact> 0.63156229E+01</totfact>
</mgrwt>
</event>
<event>
 8    1  0.6972317E-052  0.1727063E+04  0.7818608E-02  0.8746078E-01
         -2   -1    0    0    0  501 -0.00000000000E+00  0.00000000000E+00  0.40146767387E+03  0.40146767388E+03  0.25500000000E-02 0. -1.
          2   -1    0    0  501    0  0.00000000000E+00 -0.00000000000E+00 -0.18574015269E+04  0.18574015269E+04  0.25500000000E-02 0.  1.
     200001    2    1    2    0    0  0.21931895131E+03 -0.32977312487E+03 -0.12481740412E+03  0.74081415670E+03  0.61349418425E+03 0.  0.
    5000001    2    3    3    0    0  0.36035439154E+03 -0.23126703539E+02 -0.98344699274E+02  0.38750858468E+03  0.10050418603E+03 0.  0.
        -11    1    4    4    0    0  0.20400967429E+03 -0.10671109866E+01 -0.10342101620E+02  0.20427443549E+03  0.51100000000E-03 0. -1.
     200002    1    4    4    0    0  0.15634471725E+03 -0.22059592552E+02 -0.88002597654E+02  0.18323414919E+03  0.30000000000E+02 0. -1.
     200000    1    3    3    0    0 -0.14103544023E+03 -0.30664642133E+03 -0.26472704847E+02  0.35330557202E+03  0.10100000000E+03 0.  1.
    -200001    1    1    2    0    0 -0.21931895131E+03  0.32977312487E+03 -0.13311164489E+04  0.15180550440E+04  0.61300000000E+03 0.  1.
<mgrwt>
<rscale>  0 0.17270630E+04</rscale>
<asrwt>0</asrwt>
<pdfrwt beam="1">  1        2 0.26534307E+00 0.17270630E+04</pdfrwt>
<pdfrwt beam="2">  1       -2 0.57352526E-01 0.17270630E+04</pdfrwt>
<totfact> 0.25768593E+01</totfact>
</mgrwt>
</event>
<event>
 8    1  0.6972317E-052  0.1366199E+04  0.7818608E-02  0.8978655E-01
          2   -1    0    0  501    0  0.00000000000E+00  0.00000000000E+00  0.47874478384E+03  0.47874478385E+03  0.25500000000E-02 0.  1.
         -2   -1    0    0    0  501 -0.00000000000E+00 -0.00000000000E+00 -0.97468417199E+03  0.97468417200E+03  0.25500000000E-02 0. -1.
     200001    2    1    2    0    0 -0.29786868447E+02  0.29376555177E+03 -0.20178047420E+03  0.71215712743E+03  0.61584653725E+03 0.  0.
    5000001    2    3    3    0    0 -0.19484513714E+03  0.34654586870E+03 -0.53884156901E+02  0.46294975477E+03  0.23099849891E+03 0.  0.
        -11    1    4    4    0    0 -0.12157783463E+03  0.13696622595E+03  0.82285724704E+02  0.20077812982E+03  0.51100000000E-03 0. -1.
     200002    1    4    4    0    0 -0.73267302509E+02  0.20957964275E+03 -0.13616988161E+03  0.26217162495E+03  0.30000000000E+02 0. -1.
     200000    1    3    3    0    0  0.16505826869E+03 -0.52780316933E+02 -0.14789631729E+03  0.24920737266E+03  0.10100000000E+03 0.  1.
    -200001    1    1    2    0    0  0.29786868447E+02 -0.29376555177E+03 -0.29415891396E+03  0.74127182841E+03  0.61300000000E+03 0. -1.
<mgrwt>
<rscale>  0 0.13661991E+04</rscale>
<asrwt>0</asrwt>
<pdfrwt beam="1">  1        2 0.68392112E-01 0.13661991E+04</pdfrwt>
<pdfrwt beam="2">  1       -2 0.13924060E+00 0.13661991E+04</pdfrwt>
<totfact> 0.25104028E+01</totfact>
</mgrwt>
</event>
<event>
 8    1  0.6972317E-052  0.1449676E+04  0.7818608E-02  0.8918625E-01
         -2   -1    0    0    0  501 -0.00000000000E+00  0.00000000000E+00  0.16609913332E+04  0.16609913332E+04  0.25500000000E-02 0. -1.
          2   -1    0    0  501    0  0.00000000000E+00 -0.00000000000E+00 -0.31631098705E+03  0.31631098706E+03  0.25500000000E-02 0.  1.
     200001    2    1    2    0    0 -0.14781844131E+03  0.28582544358E+03  0.37950491920E+03  0.78949800955E+03  0.61297361085E+03 0.  0.
    5000001    2    3    3    0    0  0.17562936634E+03  0.70720256527E+02  0.28153959524E+03  0.37635526126E+03  0.16288557328E+03 0.  0.
        -11    1    4    4    0    0  0.96570796026E+00  0.94010551791E+01 -0.19507893753E+02  0.21676493012E+02  0.51100000000E-03 0. -1.
     200002    1    4    4    0    0  0.17466365838E+03  0.61319201348E+02  0.30104748900E+03  0.35467876824E+03  0.30000000000E+02 0. -1.
     200000    1    3    3    0    0 -0.32344780765E+03  0.21510518705E+03  0.97965323961E+02  0.41314274829E+03  0.10100000000E+03 0. -1.
    -200001    1    1    2    0    0  0.14781844131E+03 -0.28582544358E+03  0.96517542699E+03  0.11878043108E+04  0.61300000000E+03 0.  1.
<mgrwt>
<rscale>  0 0.14496756E+04</rscale>
<asrwt>0</asrwt>
<pdfrwt beam="1">  1        2 0.45187284E-01 0.14496756E+04</pdfrwt>
<pdfrwt beam="2">  1       -2 0.23728448E+00 0.14496756E+04</pdfrwt>
<totfact> 0.84137418E+00</totfact>
</mgrwt>
</event>
<event>
 8    1  0.6972317E-052  0.2173109E+04  0.7818608E-02  0.8529705E-01
         -2   -1    0    0    0  501 -0.00000000000E+00  0.00000000000E+00  0.29215218614E+04  0.29215218614E+04  0.25500000000E-02 0. -1.
          2   -1    0    0  501    0  0.00000000000E+00 -0.00000000000E+00 -0.40410453280E+03  0.40410453281E+03  0.25500000000E-02 0.  1.
     200001    2    1    2    0    0 -0.89071292280E+03  0.93062080816E+02  0.13512697422E+04  0.17326106206E+04  0.61153870255E+03 0.  0.
    5000001    2    3    3    0    0 -0.11674643898E+03 -0.10986165379E+03  0.99086929618E+02  0.24319296384E+03  0.15370518551E+03 0.  0.
        -11    1    4    4    0    0 -0.77697573199E+02 -0.66891904813E+02 -0.22672793082E+02  0.10500235882E+03  0.51100000000E-03 0. -1.
     200002    1    4    4    0    0 -0.39048865786E+02 -0.42969748974E+02  0.12175972270E+03  0.13819060503E+03  0.30000000000E+02 0. -1.
     200000    1    3    3    0    0 -0.77396648381E+03  0.20292373460E+03  0.12521828126E+04  0.14894176568E+04  0.10100000000E+03 0. -1.
    -200001    1    1    2    0    0  0.89071292280E+03 -0.93062080816E+02  0.11661475864E+04  0.15930157736E+04  0.61300000000E+03 0.  1.
<mgrwt>
<rscale>  0 0.21731086E+04</rscale>
<asrwt>0</asrwt>
<pdfrwt beam="1">  1        2 0.57729221E-01 0.21731086E+04</pdfrwt>
<pdfrwt beam="2">  1       -2 0.41736025E+00 0.21731086E+04</pdfrwt>
<totfact> 0.44925543E-01</totfact>
</mgrwt>
</event>
<event>
 8    1  0.6972317E-052  0.1805768E+04  0.7818608E-02  0.8703238E-01
          2   -1    0    0  501    0  0.00000000000E+00  0.00000000000E+00  0.48637138016E+04  0.48637138016E+04  0.25500000000E-02 0.  1.
         -2   -1    0    0    0  501 -0.00000000000E+00 -0.00000000000E+00 -0.16760838103E+03  0.16760838105E+03  0.25500000000E-02 0. -1.
     200001    2    1    2    0    0  0.38205494445E+02  0.65691660492E+03  0.21412172283E+04  0.23227761224E+04  0.61439287943E+03 0.  0.
    5000001    2    3    3    0    0 -0.38718659592E+02 -0.97683511061E+02  0.40328386584E+03  0.42384167567E+03  0.77218434719E+02 0.  0.
        -11    1    4    4    0    0  0.59937909492E+01 -0.10534636314E+02  0.15195074225E+03  0.15243336958E+03  0.51100000000E-03 0. -1.
     200002    1    4    4    0    0 -0.44712450542E+02 -0.87148874746E+02  0.25133312359E+03  0.27140830609E+03  0.30000000000E+02 0. -1.
     200000    1    3    3    0    0  0.76924154037E+02  0.75460011598E+03  0.17379333624E+04  0.18989344467E+04  0.10100000000E+03 0. -1.
    -200001    1    1    2    0    0 -0.38205494445E+02 -0.65691660492E+03  0.25548881923E+04  0.27085460603E+04  0.61300000000E+03 0. -1.
<mgrwt>
<rscale>  0 0.18057676E+04</rscale>
<asrwt>0</asrwt>
<pdfrwt beam="1">  1        2 0.69481620E+00 0.18057676E+04</pdfrwt>
<pdfrwt beam="2">  1       -2 0.23944057E-01 0.18057676E+04</pdfrwt>
<totfact> 0.17796644E+00</totfact>
</mgrwt>
</event>
<event>
 8    1  0.6972317E-052  0.1614676E+04  0.7818608E-02  0.8811583E-01
          2   -1    0    0  501    0  0.00000000000E+00  0.00000000000E+00  0.20167734208E+04  0.20167734208E+04  0.25500000000E-02 0.  1.
         -2   -1    0    0    0  501 -0.00000000000E+00 -0.00000000000E+00 -0.32318671276E+03  0.32318671277E+03  0.25500000000E-02 0. -1.
     200001    2    1    2    0    0  0.26362026614E+03  0.45346750015E+03  0.77368821787E+03  0.11163954027E+04  0.61042347459E+03 0.  0.
    5000001    2    3    3    0    0  0.17642033883E+03 -0.88552353529E+02  0.77907619377E+02  0.22437466846E+03  0.72861096758E+02 0.  0.
        -11    1    4    4    0    0  0.14935753806E+03 -0.74110972985E+02  0.69570548177E+02  0.18066591174E+03  0.51100000000E-03 0. -1.
     200002    1    4    4    0    0  0.27062800774E+02 -0.14441380544E+02  0.83370712003E+01  0.43708756719E+02  0.30000000000E+02 0.  1.
     200000    1    3    3    0    0  0.87199927311E+02  0.54201985368E+03  0.69578059849E+03  0.89202073426E+03  0.10100000000E+03 0. -1.
    -200001    1    1    2    0    0 -0.26362026614E+03 -0.45346750015E+03  0.91989849021E+03  0.12235647309E+04  0.61300000000E+03 0.  1.
<mgrwt>
<rscale>  0 0.16146757E+04</rscale>
<asrwt>0</asrwt>
<pdfrwt beam="1">  1        2 0.28811048E+00 0.16146757E+04</pdfrwt>
<pdfrwt beam="2">  1       -2 0.46169531E-01 0.16146757E+04</pdfrwt>
<totfact> 0.33573354E+01</totfact>
</mgrwt>
</event>
<event>
 8    1  0.6972317E-052  0.2030524E+04  0.7818608E-02  0.8592481E-01
          2   -1    0    0  501    0  0.00000000000E+00  0.00000000000E+00  0.23540423929E+04  0.23540423929E+04  0.25500000000E-02 0.  1.
         -2   -1    0    0    0  501 -0.00000000000E+00 -0.00000000000E+00 -0.43786685819E+03  0.43786685820E+03  0.25500000000E-02 0. -1.
     200001    2    1    2    0    0  0.37173376306E+03 -0.42913686695E+03  0.17517827663E+04  0.19403586516E+04  0.61147722407E+03 0.  0.
    5000001    2    3    3    0    0  0.91075262370E+02 -0.19869917791E+03  0.12878421510E+04  0.13426023325E+04  0.31027012528E+03 0.  0.
        -11    1    4    4    0    0  0.10406748292E+03 -0.58392415856E+02  0.13250601256E+03  0.17831869951E+03  0.51100000000E-03 0. -1.
     200002    1    4    4    0    0 -0.12992220546E+02 -0.14030676205E+03  0.11553361385E+04  0.11642836330E+04  0.30000000000E+02 0. -1.
     200000    1    3    3    0    0  0.28065850069E+03 -0.23043768905E+03  0.46394061525E+03  0.59775631910E+03  0.10100000000E+03 0.  1.
    -200001    1    1    2    0    0 -0.37173376306E+03  0.42913686695E+03  0.16439276847E+03  0.85155059950E+03  0.61300000000E+03 0. -1.
<mgrwt>
<rscale>  0 0.20305242E+04</rscale>
<asrwt>0</asrwt>
<pdfrwt beam="1">  1        2 0.33629177E+00 0.20305242E+04</pdfrwt>
<pdfrwt beam="2">  1       -2 0.62552409E-01 0.20305242E+04</pdfrwt>
<totfact> 0.11596623E+01</totfact>
</mgrwt>
</event>
<event>
 8    1  0.6972317E-052  0.1266810E+04  0.7818608E-02  0.9056307E-01
          2   -1    0    0  501    0  0.00000000000E+00  0.00000000000E+00  0.21214843206E+04  0.21214843206E+04  0.25500000000E-02 0. -1.
         -2   -1    0    0    0  501 -0.00000000000E+00 -0.00000000000E+00 -0.18911368644E+03  0.18911368646E+03  0.25500000000E-02 0.  1.
     200001    2    1    2    0    0 -0.12556866013E+03  0.19563595408E+02  0.11347785835E+04  0.12966590040E+04  0.61437115525E+03 0.  0.
    5000001    2    3    3    0    0 -0.12227036914E+03  0.26768402003E+03  0.33810441900E+03  0.45614407360E+03  0.84546081990E+02 0.  0.
        -11    1    4    4    0    0 -0.70204521135E+02  0.18313045454E+03  0.17501224583E+03  0.26285875363E+03  0.51100000000E-03 0. -1.
     200002    1    4    4    0    0 -0.52065848003E+02  0.84553565487E+02  0.16309217317E+03  0.19328531996E+03  0.30000000000E+02 0. -1.
     200000    1    3    3    0    0 -0.32982909938E+01 -0.24812042462E+03  0.79667416453E+03  0.84051493043E+03  0.10100000000E+03 0. -1.
    -200001    1    1    2    0    0  0.12556866013E+03 -0.19563595408E+02  0.79759205067E+03  0.10139390031E+04  0.61300000000E+03 0.  1.
<mgrwt>
<rscale>  0 0.12668097E+04</rscale>
<asrwt>0</asrwt>
<pdfrwt beam="1">  1        2 0.30306916E+00 0.12668097E+04</pdfrwt>
<pdfrwt beam="2">  1       -2 0.27016244E-01 0.12668097E+04</pdfrwt>
<totfact> 0.85044833E+01</totfact>
</mgrwt>
</event>
<event>
 8    1  0.6972317E-052  0.1438374E+04  0.7818608E-02  0.8926500E-01
         -2   -1    0    0    0  501 -0.00000000000E+00  0.00000000000E+00  0.49197128216E+03  0.49197128217E+03  0.25500000000E-02 0. -1.
          2   -1    0    0  501    0  0.00000000000E+00 -0.00000000000E+00 -0.10513416908E+04  0.10513416908E+04  0.25500000000E-02 0.  1.
     200001    2    1    2    0    0 -0.13244199238E+02 -0.24796095950E+03 -0.58371757952E+03  0.88148079564E+03  0.61206383180E+03 0.  0.
    5000001    2    3    3    0    0  0.26686830345E+03 -0.31614548816E+02 -0.34262808020E+03  0.44148769313E+03  0.72795678152E+02 0.  0.
        -11    1    4    4    0    0  0.11785541660E+03 -0.33473111987E+02 -0.11686000991E+03  0.16931216839E+03  0.51100000000E-03 0. -1.
     200002    1    4    4    0    0  0.14901288685E+03  0.18585631708E+01 -0.22576807029E+03  0.27217552474E+03  0.30000000000E+02 0. -1.
     200000    1    3    3    0    0 -0.28011250269E+03 -0.21634641068E+03 -0.24108949932E+03  0.43999310252E+03  0.10100000000E+03 0. -1.
    -200001    1    1    2    0    0  0.13244199238E+02  0.24796095950E+03  0.24347170857E+02  0.66183217735E+03  0.61300000000E+03 0. -1.
<mgrwt>
<rscale>  0 0.14383740E+04</rscale>
<asrwt>0</asrwt>
<pdfrwt beam="1">  1        2 0.15019167E+00 0.14383740E+04</pdfrwt>
<pdfrwt beam="2">  1       -2 0.70281612E-01 0.14383740E+04</pdfrwt>
<totfact> 0.46804269E+01</totfact>
</mgrwt>
</event>
<event>
 8    1  0.6972317E-052  0.1257747E+04  0.7818608E-02  0.9063760E-01
         -2   -1    0    0    0  501 -0.00000000000E+00  0.00000000000E+00  0.70901602486E+03  0.70901602487E+03  0.25500000000E-02 0. -1.
          2   -1    0    0  501    0  0.00000000000E+00 -0.00000000000E+00 -0.55778933722E+03  0.55778933722E+03  0.25500000000E-02 0.  1.
     200001    2    1    2    0    0 -0.13024439291E+03 -0.45358067847E+02  0.10796323444E+03  0.63699453130E+03  0.61244184761E+03 0.  0.
    5000001    2    3    3    0    0  0.10032658024E+03 -0.15774852036E+03 -0.14552463341E+03  0.26249261325E+03  0.11302625670E+03 0.  0.
        -11    1    4    4    0    0  0.20916511741E+02  0.14101549531E+02 -0.27866646644E+02  0.37588617400E+02  0.51100000000E-03 0. -1.
     200002    1    4    4    0    0  0.79410068496E+02 -0.17185006989E+03 -0.11765798676E+03  0.22490399585E+03  0.30000000000E+02 0. -1.
     200000    1    3    3    0    0 -0.23057097315E+03  0.11239045252E+03  0.25348786785E+03  0.37450191805E+03  0.10100000000E+03 0. -1.
    -200001    1    1    2    0    0  0.13024439291E+03  0.45358067847E+02  0.43263453201E+02  0.62981083079E+03  0.61300000000E+03 0.  1.
<mgrwt>
<rscale>  0 0.12577465E+04</rscale>
<asrwt>0</asrwt>
<pdfrwt beam="1">  1        2 0.79684190E-01 0.12577465E+04</pdfrwt>
<pdfrwt beam="2">  1       -2 0.10128800E+00 0.12577465E+04</pdfrwt>
<totfact> 0.46644476E+01</totfact>
</mgrwt>
</event>
<event>
 8    1  0.6972317E-052  0.1641422E+04  0.7818608E-02  0.8795497E-01
          2   -1    0    0  501    0  0.00000000000E+00  0.00000000000E+00  0.17047485833E+04  0.17047485833E+04  0.25500000000E-02 0.  1.
         -2   -1    0    0    0  501 -0.00000000000E+00 -0.00000000000E+00 -0.39511216626E+03  0.39511216627E+03  0.25500000000E-02 0. -1.
     200001    2    1    2    0    0  0.22508947210E+03 -0.14079562408E+02  0.14181499670E+02  0.64905547406E+03  0.60844752358E+03 0.  0.
    5000001    2    3    3    0    0 -0.31618186087E+02 -0.16984777370E+03 -0.18103096933E+03  0.27693793151E+03  0.11863570345E+03 0.  0.
        -11    1    4    4    0    0 -0.40264538456E+02 -0.94465416993E+02 -0.32913612842E+02  0.10783438216E+03  0.51100000000E-03 0. -1.
     200002    1    4    4    0    0  0.86463523690E+01 -0.75382356708E+02 -0.14811735649E+03  0.16910354936E+03  0.30000000000E+02 0. -1.
     200000    1    3    3    0    0  0.25670765818E+03  0.15576821129E+03  0.19521246900E+03  0.37211754255E+03  0.10100000000E+03 0. -1.
    -200001    1    1    2    0    0 -0.22508947210E+03  0.14079562408E+02  0.12954549174E+04  0.14508052755E+04  0.61300000000E+03 0.  1.
<mgrwt>
<rscale>  0 0.16414224E+04</rscale>
<asrwt>0</asrwt>
<pdfrwt beam="1">  1        2 0.24353551E+00 0.16414224E+04</pdfrwt>
<pdfrwt beam="2">  1       -2 0.56444595E-01 0.16414224E+04</pdfrwt>
<totfact> 0.32174960E+01</totfact>
</mgrwt>
</event>
<event>
 8    1  0.6972317E-052  0.1613466E+04  0.7818608E-02  0.8812318E-01
         -2   -1    0    0    0  501 -0.00000000000E+00  0.00000000000E+00  0.21651821398E+03  0.21651821399E+03  0.25500000000E-02 0. -1.
          2   -1    0    0  501    0  0.00000000000E+00 -0.00000000000E+00 -0.30058360308E+04  0.30058360308E+04  0.25500000000E-02 0.  1.
     200001    2    1    2    0    0  0.38633386959E+03  0.95804685072E+02 -0.20773936745E+04  0.22020418510E+04  0.61236544513E+03 0.  0.
    5000001    2    3    3    0    0  0.40519519164E+03 -0.11740314064E+03 -0.95623345143E+03  0.10561733716E+04  0.15216154720E+03 0.  0.
        -11    1    4    4    0    0  0.43574469888E+02 -0.21885922392E+02 -0.31082442543E+02  0.57825999859E+02  0.51100000000E-03 0. -1.
     200002    1    4    4    0    0  0.36162072175E+03 -0.95517218252E+02 -0.92515100888E+03  0.99834737172E+03  0.30000000000E+02 0. -1.
     200000    1    3    3    0    0 -0.18861322046E+02  0.21320782572E+03 -0.11211602230E+04  0.11458684794E+04  0.10100000000E+03 0. -1.
    -200001    1    1    2    0    0 -0.38633386959E+03 -0.95804685072E+02 -0.71192414240E+03  0.10203123938E+04  0.61300000000E+03 0. -1.
<mgrwt>
<rscale>  0 0.16134661E+04</rscale>
<asrwt>0</asrwt>
<pdfrwt beam="1">  1        2 0.42940512E+00 0.16134661E+04</pdfrwt>
<pdfrwt beam="2">  1       -2 0.30931175E-01 0.16134661E+04</pdfrwt>
<totfact> 0.21839291E+01</totfact>
</mgrwt>
</event>
<event>
 8    1  0.6972317E-052  0.1389767E+04  0.7818608E-02  0.8961259E-01
         -2   -1    0    0    0  501 -0.00000000000E+00  0.00000000000E+00  0.13007445040E+04  0.13007445040E+04  0.25500000000E-02 0. -1.
          2   -1    0    0  501    0  0.00000000000E+00 -0.00000000000E+00 -0.37122032258E+03  0.37122032259E+03  0.25500000000E-02 0.  1.
     200001    2    1    2    0    0  0.26728250836E+03 -0.20185278823E+03  0.46123859708E+03  0.83098630375E+03  0.60465916530E+03 0.  0.
    5000001    2    3    3    0    0  0.79728003810E+02 -0.99338571381E+02 -0.10642523786E+03  0.21606428728E+03  0.13832114310E+03 0.  0.
        -11    1    4    4    0    0  0.93323550036E+02 -0.14783117099E+02 -0.72841635216E+02  0.11930519420E+03  0.51100000000E-03 0. -1.
     200002    1    4    4    0    0 -0.13595546226E+02 -0.84555454282E+02 -0.33583602646E+02  0.96759093075E+02  0.30000000000E+02 0. -1.
     200000    1    3    3    0    0  0.18755450455E+03 -0.10251421685E+03  0.56766383494E+03  0.61492201647E+03  0.10100000000E+03 0.  1.
    -200001    1    1    2    0    0 -0.26728250836E+03  0.20185278823E+03  0.46828558434E+03  0.84097852285E+03  0.61300000000E+03 0.  1.
<mgrwt>
<rscale>  0 0.13897666E+04</rscale>
<asrwt>0</asrwt>
<pdfrwt beam="1">  1        2 0.53031473E-01 0.13897666E+04</pdfrwt>
<pdfrwt beam="2">  1       -2 0.18582065E+00 0.13897666E+04</pdfrwt>
<totfact> 0.15158480E+01</totfact>
</mgrwt>
</event>
<event>
 8    1  0.6972317E-052  0.1275398E+04  0.7818608E-02  0.9049306E-01
         -2   -1    0    0    0  501 -0.00000000000E+00  0.00000000000E+00  0.14629109785E+03  0.14629109787E+03  0.25500000000E-02 0. -1.
          2   -1    0    0  501    0  0.00000000000E+00 -0.00000000000E+00 -0.27798002261E+04  0.27798002261E+04  0.25500000000E-02 0.  1.
     200001    2    1    2    0    0 -0.10388365722E+03  0.85449972964E+00 -0.16413013441E+04  0.17551780773E+04  0.61317814399E+03 0.  0.
    5000001    2    3    3    0    0 -0.99702385717E+02 -0.14916097437E+03 -0.15223913314E+04  0.15387000954E+04  0.13316552010E+03 0.  0.
        -11    1    4    4    0    0 -0.10126368321E+03 -0.16154129559E+03 -0.13268043495E+04  0.13404326561E+04  0.51100000000E-03 0. -1.
     200002    1    4    4    0    0  0.15612974895E+01  0.12380321214E+02 -0.19558698188E+03  0.19826743929E+03  0.30000000000E+02 0. -1.
     200000    1    3    3    0    0 -0.41812715039E+01  0.15001547410E+03 -0.11891001277E+03  0.21647798188E+03  0.10100000000E+03 0. -1.
    -200001    1    1    2    0    0  0.10388365722E+03 -0.85449972964E+00 -0.99220778408E+03  0.11709132467E+04  0.61300000000E+03 0. -1.
<mgrwt>
<rscale>  0 0.12753980E+04</rscale>
<asrwt>0</asrwt>
<pdfrwt beam="1">  1        2 0.39711429E+00 0.12753980E+04</pdfrwt>
<pdfrwt beam="2">  1       -2 0.20898730E-01 0.12753980E+04</pdfrwt>
<totfact> 0.61029626E+01</totfact>
</mgrwt>
</event>
<event>
 8    1  0.6972317E-052  0.1614461E+04  0.7818608E-02  0.8811713E-01
         -2   -1    0    0    0  501 -0.00000000000E+00  0.00000000000E+00  0.20126949839E+03  0.20126949841E+03  0.25500000000E-02 0. -1.
          2   -1    0    0  501    0  0.00000000000E+00 -0.00000000000E+00 -0.32375551029E+04  0.32375551029E+04  0.25500000000E-02 0.  1.
     200001    2    1    2    0    0  0.63718339422E+02 -0.66468041423E+02 -0.40970304436E+03  0.74008730906E+03  0.60942153979E+03 0.  0.
    5000001    2    3    3    0    0  0.15617588407E+02  0.23554907721E+03 -0.31321938727E+03  0.40387589004E+03  0.96343516379E+02 0.  0.
        -11    1    4    4    0    0  0.37443649682E+01  0.96989028721E+02 -0.19908315153E+03  0.22148361833E+03  0.51100000000E-03 0. -1.
     200002    1    4    4    0    0  0.11873223439E+02  0.13856004849E+03 -0.11413623574E+03  0.18239227171E+03  0.30000000000E+02 0. -1.
     200000    1    3    3    0    0  0.48100751016E+02 -0.30201711863E+03 -0.96483657085E+02  0.33621141902E+03  0.10100000000E+03 0.  1.
    -200001    1    1    2    0    0 -0.63718339422E+02  0.66468041423E+02 -0.26265825602E+04  0.26987372923E+04  0.61300000000E+03 0.  1.
<mgrwt>
<rscale>  0 0.16144610E+04</rscale>
<asrwt>0</asrwt>
<pdfrwt beam="1">  1        2 0.46250784E+00 0.16144610E+04</pdfrwt>
<pdfrwt beam="2">  1       -2 0.28752787E-01 0.16144610E+04</pdfrwt>
<totfact> 0.18477128E+01</totfact>
</mgrwt>
</event>
<event>
 8    1  0.6972317E-052  0.1704932E+04  0.7818608E-02  0.8758556E-01
         -2   -1    0    0    0  501 -0.00000000000E+00  0.00000000000E+00  0.55886134824E+03  0.55886134825E+03  0.25500000000E-02 0. -1.
          2   -1    0    0  501    0  0.00000000000E+00 -0.00000000000E+00 -0.13003201514E+04  0.13003201514E+04  0.25500000000E-02 0.  1.
     200001    2    1    2    0    0 -0.44543935314E+03  0.28997568149E+03 -0.85544752925E+02  0.81587217138E+03  0.61304761813E+03 0.  0.
    5000001    2    3    3    0    0 -0.50926769575E+03  0.32945032554E+03  0.50191530570E+02  0.63078396673E+03  0.16576525573E+03 0.  0.
        -11    1    4    4    0    0 -0.43213450277E+03  0.33074840403E+03  0.27126294901E+02  0.54485830372E+03  0.51100000000E-03 0. -1.
     200002    1    4    4    0    0 -0.77133192982E+02 -0.12980784959E+01  0.23065235669E+02  0.85925663011E+02  0.30000000000E+02 0. -1.
     200000    1    3    3    0    0  0.63828342619E+02 -0.39474644042E+02 -0.13573628349E+03  0.18508820465E+03  0.10100000000E+03 0.  1.
    -200001    1    1    2    0    0  0.44543935314E+03 -0.28997568149E+03 -0.65591405026E+03  0.10433093283E+04  0.61300000000E+03 0.  1.
<mgrwt>
<rscale>  0 0.17049325E+04</rscale>
<asrwt>0</asrwt>
<pdfrwt beam="1">  1        2 0.18576002E+00 0.17049325E+04</pdfrwt>
<pdfrwt beam="2">  1       -2 0.79837336E-01 0.17049325E+04</pdfrwt>
<totfact> 0.24855241E+01</totfact>
</mgrwt>
</event>
<event>
 8    1  0.6972317E-052  0.1512940E+04  0.7818608E-02  0.8875893E-01
          2   -1    0    0  501    0  0.00000000000E+00  0.00000000000E+00  0.70674796608E+03  0.70674796609E+03  0.25500000000E-02 0.  1.
         -2   -1    0    0    0  501 -0.00000000000E+00 -0.00000000000E+00 -0.80969019205E+03  0.80969019206E+03  0.25500000000E-02 0. -1.
     200001    2    1    2    0    0 -0.83154742176E+02  0.21706555702E+03 -0.43042624773E+03  0.78360328472E+03  0.61215617770E+03 0.  0.
    5000001    2    3    3    0    0 -0.25070120511E+03  0.31481499647E+03 -0.26444701586E+03  0.50905479071E+03  0.16506053283E+03 0.  0.
        -11    1    4    4    0    0 -0.39181008968E+02  0.12006326997E+03 -0.14917513895E+02  0.12717260901E+03  0.51100000000E-03 0. -1.
     200002    1    4    4    0    0 -0.21152019614E+03  0.19475172649E+03 -0.24952950196E+03  0.38188218170E+03  0.30000000000E+02 0. -1.
     200000    1    3    3    0    0  0.16754646293E+03 -0.97749439448E+02 -0.16597923187E+03  0.27454849402E+03  0.10100000000E+03 0.  1.
    -200001    1    1    2    0    0  0.83154742176E+02 -0.21706555702E+03  0.32748402176E+03  0.73283487342E+03  0.61300000000E+03 0.  1.
<mgrwt>
<rscale>  0 0.15129400E+04</rscale>
<asrwt>0</asrwt>
<pdfrwt beam="1">  1        2 0.10096400E+00 0.15129400E+04</pdfrwt>
<pdfrwt beam="2">  1       -2 0.11567003E+00 0.15129400E+04</pdfrwt>
<totfact> 0.25008073E+01</totfact>
</mgrwt>
</event>
<event>
 8    1  0.6972317E-052  0.1875528E+04  0.7818608E-02  0.8667135E-01
          2   -1    0    0  501    0  0.00000000000E+00  0.00000000000E+00  0.69432614614E+03  0.69432614615E+03  0.25500000000E-02 0.  1.
         -2   -1    0    0    0  501 -0.00000000000E+00 -0.00000000000E+00 -0.12665532720E+04  0.12665532720E+04  0.25500000000E-02 0. -1.
     200001    2    1    2    0    0 -0.40376034184E+03 -0.57848133745E+03 -0.20612546063E+03  0.95715510306E+03  0.61318440487E+03 0.  0.
    5000001    2    3    3    0    0 -0.33491645542E+03 -0.65560964688E+03 -0.76098980977E+02  0.76274280349E+03  0.18437051872E+03 0.  0.
        -11    1    4    4    0    0 -0.14040132251E+03 -0.30418038542E+03 -0.12375154121E+03  0.35714518363E+03  0.51100000000E-03 0. -1.
     200002    1    4    4    0    0 -0.19451513291E+03 -0.35142926146E+03  0.47652560228E+02  0.40559761986E+03  0.30000000000E+02 0. -1.
     200000    1    3    3    0    0 -0.68843886418E+02  0.77128309433E+02 -0.13002647965E+03  0.19441229957E+03  0.10100000000E+03 0. -1.
    -200001    1    1    2    0    0  0.40376034184E+03  0.57848133745E+03 -0.36610166521E+03  0.10037243151E+04  0.61300000000E+03 0. -1.
<mgrwt>
<rscale>  0 0.18755277E+04</rscale>
<asrwt>0</asrwt>
<pdfrwt beam="1">  1        2 0.99189449E-01 0.18755277E+04</pdfrwt>
<pdfrwt beam="2">  1       -2 0.18093618E+00 0.18755277E+04</pdfrwt>
<totfact> 0.76414722E+00</totfact>
</mgrwt>
</event>
<event>
 8    1  0.6972317E-052  0.1357487E+04  0.7818608E-02  0.8985180E-01
          2   -1    0    0  501    0  0.00000000000E+00  0.00000000000E+00  0.16639603851E+04  0.16639603851E+04  0.25500000000E-02 0.  1.
         -2   -1    0    0    0  501 -0.00000000000E+00 -0.00000000000E+00 -0.27686505692E+03  0.27686505693E+03  0.25500000000E-02 0. -1.
     200001    2    1    2    0    0 -0.17437875102E+03  0.21447429105E+03  0.82078030476E+03  0.10616844544E+04  0.61407361269E+03 0.  0.
    5000001    2    3    3    0    0 -0.31681012547E+03  0.18237226010E+03  0.21737761905E+03  0.43270668223E+03  0.79710392827E+02 0.  0.
        -11    1    4    4    0    0 -0.19183248764E+02 -0.52991812094E+01  0.19736117198E+02  0.28028426231E+02  0.51100000000E-03 0. -1.
     200002    1    4    4    0    0 -0.29762687671E+03  0.18767144131E+03  0.19764150185E+03  0.40467825600E+03  0.30000000000E+02 0. -1.
     200000    1    3    3    0    0  0.14243137445E+03  0.32102030941E+02  0.60340268571E+03  0.62897777221E+03  0.10100000000E+03 0.  1.
    -200001    1    1    2    0    0  0.17437875102E+03 -0.21447429105E+03  0.56631502345E+03  0.87914098762E+03  0.61300000000E+03 0.  1.
<mgrwt>
<rscale>  0 0.13574866E+04</rscale>
<asrwt>0</asrwt>
<pdfrwt beam="1">  1        2 0.23770862E+00 0.13574866E+04</pdfrwt>
<pdfrwt beam="2">  1       -2 0.39552153E-01 0.13574866E+04</pdfrwt>
<totfact> 0.70726323E+01</totfact>
</mgrwt>
</event>
<event>
 8    1  0.6972317E-052  0.2734696E+04  0.7818608E-02  0.8323834E-01
         -2   -1    0    0    0  501 -0.00000000000E+00  0.00000000000E+00  0.85225926805E+03  0.85225926806E+03  0.25500000000E-02 0. -1.
          2   -1    0    0  501    0  0.00000000000E+00 -0.00000000000E+00 -0.21937464190E+04  0.21937464190E+04  0.25500000000E-02 0.  1.
     200001    2    1    2    0    0 -0.32397616754E+03  0.45658271757E+03  0.53913949904E+03  0.99029317513E+03  0.61366182720E+03 0.  0.
    5000001    2    3    3    0    0 -0.22316378494E+02  0.34652972239E+03  0.41510025705E+03  0.63154950114E+03  0.32552370073E+03 0.  0.
        -11    1    4    4    0    0 -0.11452896929E+03  0.36026031273E+03  0.33084634222E+03  0.50235811917E+03  0.51100000000E-03 0. -1.
     200002    1    4    4    0    0  0.92212590793E+02 -0.13730590337E+02  0.84253914824E+02  0.12919138197E+03  0.30000000000E+02 0.  1.
     200000    1    3    3    0    0 -0.30165978904E+03  0.11005299517E+03  0.12403924199E+03  0.35874367399E+03  0.10100000000E+03 0. -1.
    -200001    1    1    2    0    0  0.32397616754E+03 -0.45658271757E+03 -0.18806266500E+04  0.20557125120E+04  0.61300000000E+03 0.  1.
<mgrwt>
<rscale>  0 0.27346961E+04</rscale>
<asrwt>0</asrwt>
<pdfrwt beam="1">  1        2 0.31339234E+00 0.27346961E+04</pdfrwt>
<pdfrwt beam="2">  1       -2 0.12175132E+00 0.27346961E+04</pdfrwt>
<totfact> 0.28745957E+00</totfact>
</mgrwt>
</event>
<event>
 8    1  0.6972317E-052  0.1907374E+04  0.7818608E-02  0.8651195E-01
         -2   -1    0    0    0  501 -0.00000000000E+00  0.00000000000E+00  0.70677045122E+03  0.70677045122E+03  0.25500000000E-02 0. -1.
          2   -1    0    0  501    0  0.00000000000E+00 -0.00000000000E+00 -0.12868654010E+04  0.12868654010E+04  0.25500000000E-02 0.  1.
     200001    2    1    2    0    0 -0.42223475174E+03  0.56349398886E+03 -0.88533926171E+02  0.93854869894E+03  0.61418868693E+03 0.  0.
    5000001    2    3    3    0    0 -0.10484232507E+03  0.28712768266E+03  0.14551284598E+03  0.44651701372E+03  0.29115156864E+03 0.  0.
        -11    1    4    4    0    0 -0.19980934474E+03  0.20014459707E+03  0.13636792997E+03  0.31397109152E+03  0.51100000000E-03 0. -1.
     200002    1    4    4    0    0  0.94967019674E+02  0.86983085587E+02  0.91449160097E+01  0.13254592220E+03  0.30000000000E+02 0. -1.
     200000    1    3    3    0    0 -0.31739242667E+03  0.27636630620E+03 -0.23404677215E+03  0.49203168522E+03  0.10100000000E+03 0. -1.
    -200001    1    1    2    0    0  0.42223475174E+03 -0.56349398886E+03 -0.49156102358E+03  0.10550871533E+04  0.61300000000E+03 0.  1.
<mgrwt>
<rscale>  0 0.19073735E+04</rscale>
<asrwt>0</asrwt>
<pdfrwt beam="1">  1        2 0.18383791E+00 0.19073735E+04</pdfrwt>
<pdfrwt beam="2">  1       -2 0.10096721E+00 0.19073735E+04</pdfrwt>
<totfact> 0.14481127E+01</totfact>
</mgrwt>
</event>
<event>
 8    1  0.6972317E-052  0.1360638E+04  0.7818608E-02  0.8982814E-01
         -2   -1    0    0    0  501 -0.00000000000E+00  0.00000000000E+00  0.72777657662E+03  0.72777657662E+03  0.25500000000E-02 0. -1.
          2   -1    0    0  501    0  0.00000000000E+00 -0.00000000000E+00 -0.63595588652E+03  0.63595588652E+03  0.25500000000E-02 0.  1.
     200001    2    1    2    0    0 -0.21035241830E+03  0.19267789279E+03 -0.30149462476E+02  0.67669634446E+03  0.61289154201E+03 0.  0.
    5000001    2    3    3    0    0  0.58159824466E+02  0.33461749849E+03 -0.58936140107E+02  0.35533152220E+03  0.86229847404E+02 0.  0.
        -11    1    4    4    0    0 -0.13754837761E+02  0.67944982569E+02 -0.31538410730E+02  0.76160275536E+02  0.51100000000E-03 0. -1.
     200002    1    4    4    0    0  0.71914662228E+02  0.26667251592E+03 -0.27397729378E+02  0.27917124666E+03  0.30000000000E+02 0. -1.
     200000    1    3    3    0    0 -0.26851224276E+03 -0.14193960569E+03  0.28786677631E+02  0.32136482226E+03  0.10100000000E+03 0. -1.
    -200001    1    1    2    0    0  0.21035241830E+03 -0.19267789279E+03  0.12197015258E+03  0.68703611868E+03  0.61300000000E+03 0.  1.
<mgrwt>
<rscale>  0 0.13606378E+04</rscale>
<asrwt>0</asrwt>
<pdfrwt beam="1">  1        2 0.90850841E-01 0.13606378E+04</pdfrwt>
<pdfrwt beam="2">  1       -2 0.10396808E+00 0.13606378E+04</pdfrwt>
<totfact> 0.37243478E+01</totfact>
</mgrwt>
</event>
<event>
 8    1  0.6972317E-052  0.1267013E+04  0.7818608E-02  0.9056141E-01
         -2   -1    0    0    0  501 -0.00000000000E+00  0.00000000000E+00  0.19596933939E+04  0.19596933939E+04  0.25500000000E-02 0. -1.
          2   -1    0    0  501    0  0.00000000000E+00 -0.00000000000E+00 -0.20479254072E+03  0.20479254073E+03  0.25500000000E-02 0.  1.
     200001    2    1    2    0    0 -0.53523664791E+02 -0.12363225744E+03  0.10259657761E+04  0.12025789410E+04  0.61273209307E+03 0.  0.
    5000001    2    3    3    0    0  0.80807673273E+02  0.64205206555E+02 -0.16257003115E+02  0.13031165029E+03  0.77875846334E+02 0.  0.
        -11    1    4    4    0    0  0.33605292490E+02  0.62667566831E+02 -0.21041652348E+02  0.74157202952E+02  0.51100000000E-03 0. -1.
     200002    1    4    4    0    0  0.47202380782E+02  0.15376397244E+01  0.47846492330E+01  0.56154447337E+02  0.30000000000E+02 0. -1.
     200000    1    3    3    0    0 -0.13433133806E+03 -0.18783746400E+03  0.10422227792E+04  0.10722672907E+04  0.10100000000E+03 0. -1.
    -200001    1    1    2    0    0  0.53523664791E+02  0.12363225744E+03  0.72893507714E+03  0.96190699366E+03  0.61300000000E+03 0.  1.
<mgrwt>
<rscale>  0 0.12670132E+04</rscale>
<asrwt>0</asrwt>
<pdfrwt beam="1">  1        2 0.29256079E-01 0.12670132E+04</pdfrwt>
<pdfrwt beam="2">  1       -2 0.27995618E+00 0.12670132E+04</pdfrwt>
<totfact> 0.76326797E+00</totfact>
</mgrwt>
</event>
<event>
 8    1  0.6972317E-052  0.1925776E+04  0.7818608E-02  0.8642132E-01
         -2   -1    0    0    0  501 -0.00000000000E+00  0.00000000000E+00  0.10845997817E+04  0.10845997818E+04  0.25500000000E-02 0. -1.
          2   -1    0    0  501    0  0.00000000000E+00 -0.00000000000E+00 -0.85483417008E+03  0.85483417008E+03  0.25500000000E-02 0.  1.
     200001    2    1    2    0    0  0.52535037428E+03 -0.51584506585E+03  0.21041834588E+03  0.98118948177E+03  0.61348819968E+03 0.  0.
    5000001    2    3    3    0    0  0.34558710386E+03 -0.16726830343E+03 -0.16702177619E+03  0.42758074048E+03  0.86717265983E+02 0.  0.
        -11    1    4    4    0    0  0.30103975883E+03 -0.13293010834E+03 -0.14964023179E+03  0.36150732920E+03  0.51100000000E-03 0. -1.
     200002    1    4    4    0    0  0.44547345033E+02 -0.34338195097E+02 -0.17381544401E+02  0.66073411277E+02  0.30000000000E+02 0.  1.
     200000    1    3    3    0    0  0.17976327042E+03 -0.34857676241E+03  0.37744012207E+03  0.55360874129E+03  0.10100000000E+03 0. -1.
    -200001    1    1    2    0    0 -0.52535037428E+03  0.51584506585E+03  0.19347265795E+02  0.95824447006E+03  0.61300000000E+03 0. -1.
<mgrwt>
<rscale>  0 0.19257756E+04</rscale>
<asrwt>0</asrwt>
<pdfrwt beam="1">  1        2 0.12211917E+00 0.19257756E+04</pdfrwt>
<pdfrwt beam="2">  1       -2 0.15494283E+00 0.19257756E+04</pdfrwt>
<totfact> 0.89785271E+00</totfact>
</mgrwt>
</event>
<event>
 8    1  0.6972317E-052  0.1376089E+04  0.7818608E-02  0.8971310E-01
         -2   -1    0    0    0  501 -0.00000000000E+00  0.00000000000E+00  0.50949617788E+03  0.50949617789E+03  0.25500000000E-02 0. -1.
          2   -1    0    0  501    0  0.00000000000E+00 -0.00000000000E+00 -0.92916396768E+03  0.92916396768E+03  0.25500000000E-02 0.  1.
     200001    2    1    2    0    0 -0.46116890489E+01  0.76414745723E+02 -0.52592913865E+03  0.81182607239E+03  0.61367713978E+03 0.  0.
    5000001    2    3    3    0    0  0.68679587854E+02  0.96575136544E+02  0.10209403715E+03  0.17120749478E+03  0.69607262991E+02 0.  0.
        -11    1    4    4    0    0  0.57222616692E+01  0.51334728281E+02  0.55883702792E+02  0.76098533786E+02  0.51100000000E-03 0. -1.
     200002    1    4    4    0    0  0.62957326185E+02  0.45240408263E+02  0.46210334363E+02  0.95108960998E+02  0.30000000000E+02 0. -1.
     200000    1    3    3    0    0 -0.73291276903E+02 -0.20160390822E+02 -0.62802317580E+03  0.64061857761E+03  0.10100000000E+03 0.  1.
    -200001    1    1    2    0    0  0.46116890489E+01 -0.76414745723E+02  0.10626134885E+03  0.62683407318E+03  0.61300000000E+03 0. -1.
<mgrwt>
<rscale>  0 0.13760894E+04</rscale>
<asrwt>0</asrwt>
<pdfrwt beam="1">  1        2 0.13273771E+00 0.13760894E+04</pdfrwt>
<pdfrwt beam="2">  1       -2 0.72785169E-01 0.13760894E+04</pdfrwt>
<totfact> 0.51871054E+01</totfact>
</mgrwt>
</event>
<event>
 8    1  0.6972317E-052  0.2496499E+04  0.7818608E-02  0.8404234E-01
          2   -1    0    0  501    0  0.00000000000E+00  0.00000000000E+00  0.19620720842E+04  0.19620720842E+04  0.25500000000E-02 0.  1.
         -2   -1    0    0    0  501 -0.00000000000E+00 -0.00000000000E+00 -0.79412303841E+03  0.79412303841E+03  0.25500000000E-02 0. -1.
     200001    2    1    2    0    0  0.22362331035E+03  0.57262213272E+03  0.15738903647E+04  0.17978314932E+04  0.61413655332E+03 0.  0.
    5000001    2    3    3    0    0  0.63605861728E+02 -0.97507556755E+02  0.50887428484E+03  0.52537731529E+03  0.59286224226E+02 0.  0.
        -11    1    4    4    0    0  0.12645788752E+02 -0.12399194623E+02  0.17232719192E+03  0.17323486102E+03  0.51100000000E-03 0. -1.
     200002    1    4    4    0    0  0.50960072976E+02 -0.85108362131E+02  0.33654709292E+03  0.35214245426E+03  0.30000000000E+02 0. -1.
     200000    1    3    3    0    0  0.16001744862E+03  0.67012968948E+03  0.10650160799E+04  0.12724541780E+04  0.10100000000E+03 0. -1.
    -200001    1    1    2    0    0 -0.22362331035E+03 -0.57262213272E+03 -0.40594131888E+03  0.95836362942E+03  0.61300000000E+03 0. -1.
<mgrwt>
<rscale>  0 0.24964989E+04</rscale>
<asrwt>0</asrwt>
<pdfrwt beam="1">  1        2 0.28029600E+00 0.24964989E+04</pdfrwt>
<pdfrwt beam="2">  1       -2 0.11344615E+00 0.24964989E+04</pdfrwt>
<totfact> 0.45917167E+00</totfact>
</mgrwt>
</event>
<event>
 8    1  0.6972317E-052  0.1295430E+04  0.7818608E-02  0.9033197E-01
         -2   -1    0    0    0  501 -0.00000000000E+00  0.00000000000E+00  0.24771645773E+03  0.24771645774E+03  0.25500000000E-02 0. -1.
          2   -1    0    0  501    0  0.00000000000E+00 -0.00000000000E+00 -0.16936084001E+04  0.16936084001E+04  0.25500000000E-02 0.  1.
     200001    2    1    2    0    0  0.72328511081E+02 -0.16619235336E+03 -0.56670916153E+03  0.85431856809E+03  0.61306576334E+03 0.  0.
    5000001    2    3    3    0    0  0.49798582567E+02 -0.11278732126E+02 -0.64538554652E+03  0.65208899241E+03  0.78041282314E+02 0.  0.
        -11    1    4    4    0    0  0.34972884221E+02  0.20070203268E+02 -0.18058018364E+03  0.18502734504E+03  0.51100000000E-03 0. -1.
     200002    1    4    4    0    0  0.14825698346E+02 -0.31348935394E+02 -0.46480536289E+03  0.46706164737E+03  0.30000000000E+02 0. -1.
     200000    1    3    3    0    0  0.22529928514E+02 -0.15491362123E+03  0.78676384990E+02  0.20222957567E+03  0.10100000000E+03 0. -1.
    -200001    1    1    2    0    0 -0.72328511081E+02  0.16619235336E+03 -0.87918278079E+03  0.10870062897E+04  0.61300000000E+03 0. -1.
<mgrwt>
<rscale>  0 0.12954299E+04</rscale>
<asrwt>0</asrwt>
<pdfrwt beam="1">  1        2 0.24194405E+00 0.12954299E+04</pdfrwt>
<pdfrwt beam="2">  1       -2 0.35388066E-01 0.12954299E+04</pdfrwt>
<totfact> 0.84998779E+01</totfact>
</mgrwt>
</event>
<event>
 8    1  0.6972317E-052  0.1594213E+04  0.7818608E-02  0.8824111E-01
          2   -1    0    0  501    0  0.00000000000E+00  0.00000000000E+00  0.74889688309E+03  0.74889688310E+03  0.25500000000E-02 0.  1.
         -2   -1    0    0    0  501 -0.00000000000E+00 -0.00000000000E+00 -0.84841923228E+03  0.84841923228E+03  0.25500000000E-02 0. -1.
     200001    2    1    2    0    0  0.30458059514E+03  0.98231951672E+02  0.34616756959E+03  0.77462093552E+03  0.61464359774E+03 0.  0.
    5000001    2    3    3    0    0 -0.34615741295E+02 -0.15625657007E+03 -0.53369696002E+02  0.18330918276E+03  0.71690772050E+02 0.  0.
        -11    1    4    4    0    0  0.12073778163E+02 -0.79956763445E+02 -0.20773324460E+02  0.83488868414E+02  0.51100000000E-03 0. -1.
     200002    1    4    4    0    0 -0.46689519459E+02 -0.76299806627E+02 -0.32596371542E+02  0.99820314347E+02  0.30000000000E+02 0. -1.
     200000    1    3    3    0    0  0.33919633644E+03  0.25448852174E+03  0.39953726559E+03  0.59131175276E+03  0.10100000000E+03 0.  1.
    -200001    1    1    2    0    0 -0.30458059514E+03 -0.98231951672E+02 -0.44568991877E+03  0.82269517986E+03  0.61300000000E+03 0. -1.
<mgrwt>
<rscale>  0 0.15942127E+04</rscale>
<asrwt>0</asrwt>
<pdfrwt beam="1">  1        2 0.10698527E+00 0.15942127E+04</pdfrwt>
<pdfrwt beam="2">  1       -2 0.12120275E+00 0.15942127E+04</pdfrwt>
<totfact> 0.20599633E+01</totfact>
</mgrwt>
</event>
<event>
 8    1  0.6972317E-052  0.1503321E+04  0.7818608E-02  0.8882247E-01
         -2   -1    0    0    0  501 -0.00000000000E+00  0.00000000000E+00  0.25217269858E+03  0.25217269859E+03  0.25500000000E-02 0. -1.
          2   -1    0    0  501    0  0.00000000000E+00 -0.00000000000E+00 -0.22405033316E+04  0.22405033316E+04  0.25500000000E-02 0.  1.
     200001    2    1    2    0    0  0.31477716118E+03  0.23408445087E+03 -0.13063423363E+04  0.14953008609E+04  0.61279211307E+03 0.  0.
    5000001    2    3    3    0    0  0.20083204672E+03 -0.15628672918E+03 -0.26107555554E+03  0.36917618302E+03  0.58065098805E+02 0.  0.
        -11    1    4    4    0    0  0.31133291629E+02 -0.46669525481E+02 -0.67594533915E+02  0.87842742852E+02  0.51100000000E-03 0. -1.
     200002    1    4    4    0    0  0.16969875509E+03 -0.10961720369E+03 -0.19348102163E+03  0.28133344017E+03  0.30000000000E+02 0. -1.
     200000    1    3    3    0    0  0.11394511446E+03  0.39037118005E+03 -0.10452667807E+04  0.11261246779E+04  0.10100000000E+03 0. -1.
    -200001    1    1    2    0    0 -0.31477716118E+03 -0.23408445087E+03 -0.68198829674E+03  0.99737516925E+03  0.61300000000E+03 0. -1.
<mgrwt>
<rscale>  0 0.15033214E+04</rscale>
<asrwt>0</asrwt>
<pdfrwt beam="1">  1        2 0.32007189E+00 0.15033214E+04</pdfrwt>
<pdfrwt beam="2">  1       -2 0.36024673E-01 0.15033214E+04</pdfrwt>
<totfact> 0.42270843E+01</totfact>
</mgrwt>
</event>
<event>
 8    1  0.6972317E-052  0.1474937E+04  0.7818608E-02  0.8901293E-01
          2   -1    0    0  501    0  0.00000000000E+00  0.00000000000E+00  0.16884994417E+04  0.16884994417E+04  0.25500000000E-02 0.  1.
         -2   -1    0    0    0  501 -0.00000000000E+00 -0.00000000000E+00 -0.32209648964E+03  0.32209648965E+03  0.25500000000E-02 0. -1.
     200001    2    1    2    0    0 -0.32767328130E+03 -0.22982120492E+03  0.80373482110E+03  0.10872585114E+04  0.61315075019E+03 0.  0.
    5000001    2    3    3    0    0 -0.34242605155E+03 -0.22838167863E+03  0.86737348298E+03  0.96696472207E+03  0.11519645322E+03 0.  0.
        -11    1    4    4    0    0 -0.14672791576E+03 -0.12561596566E+03  0.51379338924E+03  0.54890080973E+03  0.51100000000E-03 0. -1.
     200002    1    4    4    0    0 -0.19569813578E+03 -0.10276571297E+03  0.35358009374E+03  0.41806391234E+03  0.30000000000E+02 0. -1.
     200000    1    3    3    0    0  0.14752770248E+02 -0.14395262879E+01 -0.63638661882E+02  0.12029378933E+03  0.10100000000E+03 0. -1.
    -200001    1    1    2    0    0  0.32767328130E+03  0.22982120492E+03  0.56266813099E+03  0.92333741999E+03  0.61300000000E+03 0.  1.
<mgrwt>
<rscale>  0 0.14749369E+04</rscale>
<asrwt>0</asrwt>
<pdfrwt beam="1">  1        2 0.24121421E+00 0.14749369E+04</pdfrwt>
<pdfrwt beam="2">  1       -2 0.46013784E-01 0.14749369E+04</pdfrwt>
<totfact> 0.50471039E+01</totfact>
</mgrwt>
</event>
<event>
 8    1  0.6972317E-052  0.1483827E+04  0.7818608E-02  0.8895280E-01
          2   -1    0    0  501    0  0.00000000000E+00  0.00000000000E+00  0.18356407415E+04  0.18356407415E+04  0.25500000000E-02 0.  1.
         -2   -1    0    0    0  501 -0.00000000000E+00 -0.00000000000E+00 -0.29986014532E+03  0.29986014534E+03  0.25500000000E-02 0. -1.
     200001    2    1    2    0    0  0.18014124947E+03  0.44505789613E+02  0.22958772527E+03  0.68073614604E+03  0.61339998521E+03 0.  0.
    5000001    2    3    3    0    0  0.38119228756E+03  0.12590577689E+02  0.23035817213E+03  0.45348805637E+03  0.84382741512E+02 0.  0.
        -11    1    4    4    0    0  0.18822864502E+03  0.29348279013E+02  0.14642110947E+03  0.24027169119E+03  0.51100000000E-03 0. -1.
     200002    1    4    4    0    0  0.19296364254E+03 -0.16757701323E+02  0.83937062661E+02  0.21321636518E+03  0.30000000000E+02 0.  1.
     200000    1    3    3    0    0 -0.20105103809E+03  0.31915211923E+02 -0.77044686104E+00  0.22724808967E+03  0.10100000000E+03 0.  1.
    -200001    1    1    2    0    0 -0.18014124947E+03 -0.44505789613E+02  0.13061928709E+04  0.14547647408E+04  0.61300000000E+03 0.  1.
<mgrwt>
<rscale>  0 0.14838268E+04</rscale>
<asrwt>0</asrwt>
<pdfrwt beam="1">  1        2 0.26223440E+00 0.14838268E+04</pdfrwt>
<pdfrwt beam="2">  1       -2 0.42837163E-01 0.14838268E+04</pdfrwt>
<totfact> 0.48804917E+01</totfact>
</mgrwt>
</event>
<event>
 8    1  0.6972317E-052  0.1587048E+04  0.7818608E-02  0.8828545E-01
          2   -1    0    0  501    0  0.00000000000E+00  0.00000000000E+00  0.10610980040E+04  0.10610980040E+04  0.25500000000E-02 0. -1.
         -2   -1    0    0    0  501 -0.00000000000E+00 -0.00000000000E+00 -0.59342348222E+03  0.59342348222E+03  0.25500000000E-02 0.  1.
     200001    2    1    2    0    0 -0.14266030856E+03  0.37331702181E+03 -0.85132104501E+02  0.73741640582E+03  0.61385496491E+03 0.  0.
    5000001    2    3    3    0    0 -0.36636974886E+03  0.19261544817E+03 -0.91894637778E+02  0.43254642656E+03  0.85582024527E+02 0.  0.
        -11    1    4    4    0    0 -0.29098147067E+03  0.12976151641E+03 -0.54047858372E+02  0.32315544001E+03  0.51100000000E-03 0. -1.
     200002    1    4    4    0    0 -0.75388278191E+02  0.62853931760E+02 -0.37846779405E+02  0.10939098655E+03  0.30000000000E+02 0.  1.
     200000    1    3    3    0    0  0.22370944030E+03  0.18070157364E+03  0.67625332763E+01  0.30486997926E+03  0.10100000000E+03 0. -1.
    -200001    1    1    2    0    0  0.14266030856E+03 -0.37331702181E+03  0.55280662624E+03  0.91710508037E+03  0.61300000000E+03 0.  1.
<mgrwt>
<rscale>  0 0.15870482E+04</rscale>
<asrwt>0</asrwt>
<pdfrwt beam="1">  1        2 0.15158543E+00 0.15870482E+04</pdfrwt>
<pdfrwt beam="2">  1       -2 0.84774783E-01 0.15870482E+04</pdfrwt>
<totfact> 0.30062470E+01</totfact>
</mgrwt>
</event>
<event>
 8    1  0.6972317E-052  0.1282366E+04  0.7818608E-02  0.9043667E-01
         -2   -1    0    0    0  501 -0.00000000000E+00  0.00000000000E+00  0.15611128343E+03  0.15611128345E+03  0.25500000000E-02 0. -1.
          2   -1    0    0  501    0  0.00000000000E+00 -0.00000000000E+00 -0.26334767156E+04  0.26334767156E+04  0.25500000000E-02 0.  1.
     200001    2    1    2    0    0  0.31537280416E+02  0.12988170834E+03 -0.95215119458E+03  0.11403726314E+04  0.61318348232E+03 0.  0.
    5000001    2    3    3    0    0 -0.24289967232E+02  0.11943584171E+03  0.36021628164E+02  0.14542925350E+03  0.70690786422E+02 0.  0.
        -11    1    4    4    0    0  0.20349735948E+02  0.41283739487E+02  0.11836696897E+02  0.47524375776E+02  0.51100000000E-03 0. -1.
     200002    1    4    4    0    0 -0.44639703180E+02  0.78152102223E+02  0.24184931266E+02  0.97904877725E+02  0.30000000000E+02 0. -1.
     200000    1    3    3    0    0  0.55827247647E+02  0.10445866635E+02 -0.98817282274E+03  0.99494337794E+03  0.10100000000E+03 0.  1.
    -200001    1    1    2    0    0 -0.31537280416E+02 -0.12988170834E+03 -0.15252142376E+04  0.16492153676E+04  0.61300000000E+03 0.  1.
<mgrwt>
<rscale>  0 0.12823657E+04</rscale>
<asrwt>0</asrwt>
<pdfrwt beam="1">  1        2 0.37621093E+00 0.12823657E+04</pdfrwt>
<pdfrwt beam="2">  1       -2 0.22301614E-01 0.12823657E+04</pdfrwt>
<totfact> 0.65072408E+01</totfact>
</mgrwt>
</event>
<event>
 8    1  0.6972317E-052  0.1770181E+04  0.7818608E-02  0.8722319E-01
          2   -1    0    0  501    0  0.00000000000E+00  0.00000000000E+00  0.17130659713E+04  0.17130659713E+04  0.25500000000E-02 0.  1.
         -2   -1    0    0    0  501 -0.00000000000E+00 -0.00000000000E+00 -0.45730027300E+03  0.45730027300E+03  0.25500000000E-02 0. -1.
     200001    2    1    2    0    0 -0.40963922022E+03 -0.46799927624E+03  0.45116599100E+03  0.98294159311E+03  0.61302186806E+03 0.  0.
    5000001    2    3    3    0    0 -0.10091360823E+03 -0.41052752382E+03  0.48679718857E+03  0.65115086378E+03  0.91156680850E+02 0.  0.
        -11    1    4    4    0    0 -0.77135663339E+02 -0.33392654184E+03  0.42273060916E+03  0.54420401857E+03  0.51100000000E-03 0. -1.
     200002    1    4    4    0    0 -0.23777944894E+02 -0.76600981987E+02  0.64066579405E+02  0.10694684521E+03  0.30000000000E+02 0.  1.
     200000    1    3    3    0    0 -0.30872561199E+03 -0.57471752417E+02 -0.35631197569E+02  0.33179072933E+03  0.10100000000E+03 0. -1.
    -200001    1    1    2    0    0  0.40963922022E+03  0.46799927624E+03  0.80459970734E+03  0.11874246512E+04  0.61300000000E+03 0.  1.
<mgrwt>
<rscale>  0 0.17701814E+04</rscale>
<asrwt>0</asrwt>
<pdfrwt beam="1">  1        2 0.24472371E+00 0.17701814E+04</pdfrwt>
<pdfrwt beam="2">  1       -2 0.65328611E-01 0.17701814E+04</pdfrwt>
<totfact> 0.23139755E+01</totfact>
</mgrwt>
</event>
<event>
 8    1  0.6972317E-052  0.1483919E+04  0.7818608E-02  0.8895218E-01
          2   -1    0    0  501    0  0.00000000000E+00  0.00000000000E+00  0.33317161302E+04  0.33317161302E+04  0.25500000000E-02 0.  1.
         -2   -1    0    0    0  501 -0.00000000000E+00 -0.00000000000E+00 -0.16523122727E+03  0.16523122729E+03  0.25500000000E-02 0. -1.
     200001    2    1    2    0    0  0.32176052767E+03 -0.15290419400E+03  0.10693385730E+04  0.12831946028E+04  0.61334645612E+03 0.  0.
    5000001    2    3    3    0    0  0.42755761521E+03 -0.21890265246E+03  0.56896650754E+03  0.75772145968E+03  0.14033901159E+03 0.  0.
        -11    1    4    4    0    0  0.32810328195E+03 -0.10986618857E+03  0.43768548841E+03  0.55793452105E+03  0.51100000000E-03 0. -1.
     200002    1    4    4    0    0  0.99454333263E+02 -0.10903646389E+03  0.13128101913E+03  0.19978693863E+03  0.30000000000E+02 0. -1.
     200000    1    3    3    0    0 -0.10579708754E+03  0.65998458459E+02  0.50037206543E+03  0.52547314310E+03  0.10100000000E+03 0.  1.
    -200001    1    1    2    0    0 -0.32176052767E+03  0.15290419400E+03  0.20971463299E+04  0.22137527547E+04  0.61300000000E+03 0.  1.
<mgrwt>
<rscale>  0 0.14839185E+04</rscale>
<asrwt>0</asrwt>
<pdfrwt beam="1">  1        2 0.47595943E+00 0.14839185E+04</pdfrwt>
<pdfrwt beam="2">  1       -2 0.23604462E-01 0.14839185E+04</pdfrwt>
<totfact> 0.23617591E+01</totfact>
</mgrwt>
</event>
<event>
 8    1  0.6972317E-052  0.1503172E+04  0.7818608E-02  0.8882346E-01
         -2   -1    0    0    0  501 -0.00000000000E+00  0.00000000000E+00  0.51721357707E+03  0.51721357707E+03  0.25500000000E-02 0. -1.
          2   -1    0    0  501    0  0.00000000000E+00 -0.00000000000E+00 -0.10921633930E+04  0.10921633930E+04  0.25500000000E-02 0.  1.
     200001    2    1    2    0    0 -0.22520104863E+03 -0.19687796937E+03  0.49623022153E+02  0.68453283335E+03  0.61371516885E+03 0.  0.
    5000001    2    3    3    0    0 -0.83114401935E+02  0.20540520557E+03 -0.16245187042E+02  0.24118196892E+03  0.93837805515E+02 0.  0.
        -11    1    4    4    0    0 -0.36827594020E+02  0.58835563673E+02 -0.43935756447E+02  0.82147707995E+02  0.51100000000E-03 0. -1.
     200002    1    4    4    0    0 -0.46286807916E+02  0.14656964190E+03  0.27690569405E+02  0.15903426092E+03  0.30000000000E+02 0. -1.
     200000    1    3    3    0    0 -0.14208664670E+03 -0.40228317494E+03  0.65868209195E+02  0.44335086443E+03  0.10100000000E+03 0. -1.
    -200001    1    1    2    0    0  0.22520104863E+03  0.19687796937E+03 -0.62457283804E+03  0.92484413668E+03  0.61300000000E+03 0.  1.
<mgrwt>
<rscale>  0 0.15031723E+04</rscale>
<asrwt>0</asrwt>
<pdfrwt beam="1">  1        2 0.15602334E+00 0.15031723E+04</pdfrwt>
<pdfrwt beam="2">  1       -2 0.73887654E-01 0.15031723E+04</pdfrwt>
<totfact> 0.39450375E+01</totfact>
</mgrwt>
</event>
<event>
 8    1  0.6972317E-052  0.1916559E+04  0.7818608E-02  0.8646658E-01
         -2   -1    0    0    0  501 -0.00000000000E+00  0.00000000000E+00  0.13638596987E+04  0.13638596987E+04  0.25500000000E-02 0. -1.
          2   -1    0    0  501    0  0.00000000000E+00 -0.00000000000E+00 -0.67330931850E+03  0.67330931851E+03  0.25500000000E-02 0.  1.
     200001    2    1    2    0    0  0.41723036110E+02 -0.51836143225E+03 -0.20927231563E+03  0.83056665101E+03  0.61286758234E+03 0.  0.
    5000001    2    3    3    0    0 -0.21102286695E+03 -0.59296574313E+02 -0.17678352057E+03  0.29589146258E+03  0.90843879152E+02 0.  0.
        -11    1    4    4    0    0 -0.26781962591E+02 -0.18720637475E+01  0.69680118089E+01  0.27736822668E+02  0.51100000000E-03 0. -1.
     200002    1    4    4    0    0 -0.18424090436E+03 -0.57424510566E+02 -0.18375153238E+03  0.26815463991E+03  0.30000000000E+02 0. -1.
     200000    1    3    3    0    0  0.25274590306E+03 -0.45906485794E+03 -0.32488795062E+02  0.53467518842E+03  0.10100000000E+03 0. -1.
    -200001    1    1    2    0    0 -0.41723036110E+02  0.51836143225E+03  0.89982269580E+03  0.12066023662E+04  0.61300000000E+03 0. -1.
<mgrwt>
<rscale>  0 0.19165588E+04</rscale>
<asrwt>0</asrwt>
<pdfrwt beam="1">  1        2 0.96187047E-01 0.19165588E+04</pdfrwt>
<pdfrwt beam="2">  1       -2 0.19483710E+00 0.19165588E+04</pdfrwt>
<totfact> 0.63707908E+00</totfact>
</mgrwt>
</event>
<event>
 8    1  0.6972317E-052  0.1636191E+04  0.7818608E-02  0.8798618E-01
          2   -1    0    0  501    0  0.00000000000E+00  0.00000000000E+00  0.24256892309E+04  0.24256892309E+04  0.25500000000E-02 0.  1.
         -2   -1    0    0    0  501 -0.00000000000E+00 -0.00000000000E+00 -0.27591336754E+03  0.27591336755E+03  0.25500000000E-02 0. -1.
     200001    2    1    2    0    0  0.19779221687E+03 -0.36150204004E+03  0.16552802932E+04  0.18127267044E+04  0.61336756521E+03 0.  0.
    5000001    2    3    3    0    0  0.11383314907E+03  0.14276816993E+02  0.11983279272E+04  0.12067024976E+04  0.83542105613E+02 0.  0.
        -11    1    4    4    0    0  0.71098517257E+02 -0.12939524325E+02  0.88093129075E+03  0.88389047368E+03  0.51100000000E-03 0. -1.
     200002    1    4    4    0    0  0.42734631815E+02  0.27216341318E+02  0.31739663642E+03  0.32281202395E+03  0.30000000000E+02 0. -1.
     200000    1    3    3    0    0  0.83959067801E+02 -0.37577885704E+03  0.45695236599E+03  0.60602420682E+03  0.10100000000E+03 0. -1.
    -200001    1    1    2    0    0 -0.19779221687E+03  0.36150204004E+03  0.49449557021E+03  0.88887589402E+03  0.61300000000E+03 0. -1.
<mgrwt>
<rscale>  0 0.16361908E+04</rscale>
<asrwt>0</asrwt>
<pdfrwt beam="1">  1        2 0.34652704E+00 0.16361908E+04</pdfrwt>
<pdfrwt beam="2">  1       -2 0.39416195E-01 0.16361908E+04</pdfrwt>
<totfact> 0.28156733E+01</totfact>
</mgrwt>
</event>
<event>
 8    1  0.6972317E-052  0.3418293E+04  0.7818608E-02  0.8133431E-01
          2   -1    0    0  501    0  0.00000000000E+00  0.00000000000E+00  0.20817524233E+04  0.20817524233E+04  0.25500000000E-02 0.  1.
         -2   -1    0    0    0  501 -0.00000000000E+00 -0.00000000000E+00 -0.14032316762E+04  0.14032316762E+04  0.25500000000E-02 0. -1.
     200001    2    1    2    0    0 -0.47567535729E+02  0.14379356996E+04  0.10443222455E+04  0.18789014481E+04  0.60806245761E+03 0.  0.
    5000001    2    3    3    0    0  0.23098787600E+02  0.81669221780E+03  0.91898390912E+03  0.12332638628E+04  0.94279358463E+02 0.  0.
        -11    1    4    4    0    0 -0.29113274386E+02  0.39895343122E+03  0.42870553675E+03  0.58634448942E+03  0.51100000000E-03 0. -1.
     200002    1    4    4    0    0  0.52212061986E+02  0.41773878658E+03  0.49027837236E+03  0.64691937336E+03  0.30000000000E+02 0.  1.
     200000    1    3    3    0    0 -0.70666323329E+02  0.62124348185E+03  0.12533833642E+03  0.64563758531E+03  0.10100000000E+03 0. -1.
    -200001    1    1    2    0    0  0.47567535729E+02 -0.14379356996E+04 -0.36580149849E+03  0.16060826514E+04  0.61300000000E+03 0.  1.
<mgrwt>
<rscale>  0 0.34182925E+04</rscale>
<asrwt>0</asrwt>
<pdfrwt beam="1">  1        2 0.29739320E+00 0.34182925E+04</pdfrwt>
<pdfrwt beam="2">  1       -2 0.20046167E+00 0.34182925E+04</pdfrwt>
<totfact> 0.80301406E-01</totfact>
</mgrwt>
</event>
<event>
 8    1  0.6972317E-052  0.1410997E+04  0.7818608E-02  0.8945896E-01
         -2   -1    0    0    0  501 -0.00000000000E+00  0.00000000000E+00  0.42819421489E+03  0.42819421489E+03  0.25500000000E-02 0. -1.
          2   -1    0    0  501    0  0.00000000000E+00 -0.00000000000E+00 -0.11623892262E+04  0.11623892262E+04  0.25500000000E-02 0.  1.
     200001    2    1    2    0    0 -0.54432280240E+02  0.36180019544E+02  0.19933540552E+02  0.61654507446E+03  0.61274677955E+03 0.  0.
    5000001    2    3    3    0    0  0.47905552890E+02 -0.81587557092E+02  0.27504145469E+03  0.30091351385E+03  0.77134101051E+02 0.  0.
        -11    1    4    4    0    0  0.36796969218E+02 -0.30398653745E+02  0.19445202472E+03  0.20022408699E+03  0.51100000000E-03 0. -1.
     200002    1    4    4    0    0  0.11108583672E+02 -0.51188903347E+02  0.80589429978E+02  0.10068942686E+03  0.30000000000E+02 0.  1.
     200000    1    3    3    0    0 -0.10233783313E+03  0.11776757664E+03 -0.25510791414E+03  0.31563156061E+03  0.10100000000E+03 0.  1.
    -200001    1    1    2    0    0  0.54432280240E+02 -0.36180019544E+02 -0.75412855187E+03  0.97403836664E+03  0.61300000000E+03 0.  1.
<mgrwt>
<rscale>  0 0.14109973E+04</rscale>
<asrwt>0</asrwt>
<pdfrwt beam="1">  1        2 0.16605560E+00 0.14109973E+04</pdfrwt>
<pdfrwt beam="2">  1       -2 0.61170602E-01 0.14109973E+04</pdfrwt>
<totfact> 0.54375565E+01</totfact>
</mgrwt>
</event>
<event>
 8    1  0.6972317E-052  0.1424815E+04  0.7818608E-02  0.8936050E-01
         -2   -1    0    0    0  501 -0.00000000000E+00  0.00000000000E+00  0.12541874566E+03  0.12541874569E+03  0.25500000000E-02 0.  1.
          2   -1    0    0  501    0  0.00000000000E+00 -0.00000000000E+00 -0.40466385426E+04  0.40466385426E+04  0.25500000000E-02 0. -1.
     200001    2    1    2    0    0 -0.25297616441E+03  0.21510053792E+03 -0.23868025940E+04  0.24866877935E+04  0.61361582332E+03 0.  0.
    5000001    2    3    3    0    0 -0.25328187785E+03  0.40056530143E+03 -0.17474376370E+04  0.18133484882E+04  0.10044985741E+03 0.  0.
        -11    1    4    4    0    0 -0.23898189541E+03  0.34786421210E+03 -0.15098549387E+04  0.15677320537E+04  0.51100000000E-03 0. -1.
     200002    1    4    4    0    0 -0.14299982437E+02  0.52701089332E+02 -0.23758269837E+03  0.24561643446E+03  0.30000000000E+02 0. -1.
     200000    1    3    3    0    0  0.30571343608E+00 -0.18546476351E+03 -0.63936495695E+03  0.67333930536E+03  0.10100000000E+03 0.  1.
    -200001    1    1    2    0    0  0.25297616441E+03 -0.21510053792E+03 -0.15344172030E+04  0.16853694948E+04  0.61300000000E+03 0. -1.
<mgrwt>
<rscale>  0 0.14248148E+04</rscale>
<asrwt>0</asrwt>
<pdfrwt beam="1">  1        2 0.57809114E+00 0.14248148E+04</pdfrwt>
<pdfrwt beam="2">  1       -2 0.17916966E-01 0.14248148E+04</pdfrwt>
<totfact> 0.13615361E+01</totfact>
</mgrwt>
</event>
<event>
 8    1  0.6972317E-052  0.2043531E+04  0.7818608E-02  0.8586535E-01
          2   -1    0    0  501    0  0.00000000000E+00  0.00000000000E+00  0.24502000302E+04  0.24502000302E+04  0.25500000000E-02 0.  1.
         -2   -1    0    0    0  501 -0.00000000000E+00 -0.00000000000E+00 -0.42608938749E+03  0.42608938750E+03  0.25500000000E-02 0. -1.
     200001    2    1    2    0    0 -0.19497548616E+03 -0.42438189657E+03  0.67982341778E+02  0.77383314846E+03  0.61325419568E+03 0.  0.
    5000001    2    3    3    0    0 -0.65226519222E+02  0.28644284639E+02  0.23689677840E+03  0.26314674549E+03  0.89728101477E+02 0.  0.
        -11    1    4    4    0    0 -0.94873244591E+01  0.41380173924E+02  0.14317257724E+03  0.14933423919E+03  0.51100000000E-03 0. -1.
     200002    1    4    4    0    0 -0.55739194763E+02 -0.12735889284E+02  0.93724201155E+02  0.11381250630E+03  0.30000000000E+02 0. -1.
     200000    1    3    3    0    0 -0.12974896694E+03 -0.45302618121E+03 -0.16891443662E+03  0.51068640297E+03  0.10100000000E+03 0. -1.
    -200001    1    1    2    0    0  0.19497548616E+03  0.42438189657E+03  0.19561283009E+04  0.21024562692E+04  0.61300000000E+03 0.  1.
<mgrwt>
<rscale>  0 0.20435305E+04</rscale>
<asrwt>0</asrwt>
<pdfrwt beam="1">  1        2 0.35002857E+00 0.20435305E+04</pdfrwt>
<pdfrwt beam="2">  1       -2 0.60869914E-01 0.20435305E+04</pdfrwt>
<totfact> 0.10932367E+01</totfact>
</mgrwt>
</event>
<event>
 8    1  0.6972317E-052  0.2023938E+04  0.7818608E-02  0.8595510E-01
          2   -1    0    0  501    0  0.00000000000E+00  0.00000000000E+00  0.26752822787E+04  0.26752822787E+04  0.25500000000E-02 0.  1.
         -2   -1    0    0    0  501 -0.00000000000E+00 -0.00000000000E+00 -0.38279373212E+03  0.38279373213E+03  0.25500000000E-02 0. -1.
     200001    2    1    2    0    0  0.20717397718E+02 -0.69279378497E+03  0.17654583045E+04  0.19932181259E+04  0.61292987645E+03 0.  0.
    5000001    2    3    3    0    0  0.13919702246E+02 -0.78201226346E+03  0.14284844074E+04  0.16302325161E+04  0.73167042988E+02 0.  0.
        -11    1    4    4    0    0  0.39070532524E+01 -0.64163569003E+03  0.11696836361E+04  0.13341182228E+04  0.51100000000E-03 0. -1.
     200002    1    4    4    0    0  0.10012648994E+02 -0.14037657344E+03  0.25880077130E+03  0.29611429336E+03  0.30000000000E+02 0.  1.
     200000    1    3    3    0    0  0.67976954720E+01  0.89218478494E+02  0.33697389710E+03  0.36298560977E+03  0.10100000000E+03 0. -1.
    -200001    1    1    2    0    0 -0.20717397718E+02  0.69279378497E+03  0.52703024212E+03  0.10648578850E+04  0.61300000000E+03 0. -1.
<mgrwt>
<rscale>  0 0.20239380E+04</rscale>
<asrwt>0</asrwt>
<pdfrwt beam="1">  1        2 0.38218319E+00 0.20239380E+04</pdfrwt>
<pdfrwt beam="2">  1       -2 0.54684818E-01 0.20239380E+04</pdfrwt>
<totfact> 0.10413347E+01</totfact>
</mgrwt>
</event>
<event>
 8    1  0.6972317E-052  0.1668340E+04  0.7818608E-02  0.8779630E-01
          2   -1    0    0  501    0  0.00000000000E+00  0.00000000000E+00  0.11915120907E+04  0.11915120907E+04  0.25500000000E-02 0.  1.
         -2   -1    0    0    0  501 -0.00000000000E+00 -0.00000000000E+00 -0.58399678255E+03  0.58399678255E+03  0.25500000000E-02 0. -1.
     200001    2    1    2    0    0  0.27263323406E+03 -0.14221520274E+03  0.80955597369E+03  0.10605658862E+04  0.61226226419E+03 0.  0.
    5000001    2    3    3    0    0  0.35395793469E+02 -0.11231034981E+03 -0.59944034536E+02  0.15314802886E+03  0.77424509029E+02 0.  0.
        -11    1    4    4    0    0  0.11071266655E+02  0.81134668463E+01 -0.14261426628E+01  0.13799825099E+02  0.51100000000E-03 0. -1.
     200002    1    4    4    0    0  0.24324526814E+02 -0.12042381666E+03 -0.58517891874E+02  0.13934820376E+03  0.30000000000E+02 0. -1.
     200000    1    3    3    0    0  0.23723744060E+03 -0.29904852926E+02  0.86950000822E+03  0.90741785730E+03  0.10100000000E+03 0.  1.
    -200001    1    1    2    0    0 -0.27263323406E+03  0.14221520274E+03 -0.20204066557E+03  0.71494298706E+03  0.61300000000E+03 0. -1.
<mgrwt>
<rscale>  0 0.16683396E+04</rscale>
<asrwt>0</asrwt>
<pdfrwt beam="1">  1        2 0.17021601E+00 0.16683396E+04</pdfrwt>
<pdfrwt beam="2">  1       -2 0.83428113E-01 0.16683396E+04</pdfrwt>
<totfact> 0.25986185E+01</totfact>
</mgrwt>
</event>
<event>
 8    1  0.6972317E-052  0.1913561E+04  0.7818608E-02  0.8648135E-01
          2   -1    0    0  501    0  0.00000000000E+00  0.00000000000E+00  0.10127654574E+04  0.10127654574E+04  0.25500000000E-02 0.  1.
         -2   -1    0    0    0  501 -0.00000000000E+00 -0.00000000000E+00 -0.90389068158E+03  0.90389068159E+03  0.25500000000E-02 0. -1.
     200001    2    1    2    0    0  0.50544505361E+03 -0.39200213623E+03 -0.30721304643E+03  0.93786175155E+03  0.61324092499E+03 0.  0.
    5000001    2    3    3    0    0  0.37245104884E+02  0.65947978580E+01  0.12317870525E+03  0.18054493028E+03  0.12646260010E+03 0.  0.
        -11    1    4    4    0    0  0.74722699313E+02  0.10614176744E+02  0.42604341125E+02  0.86667597310E+02  0.51100000000E-03 0. -1.
     200002    1    4    4    0    0 -0.37477594429E+02 -0.40193788863E+01  0.80574364126E+02  0.93877332968E+02  0.30000000000E+02 0. -1.
     200000    1    3    3    0    0  0.46819994873E+03 -0.39859693409E+03 -0.43039175168E+03  0.75731682127E+03  0.10100000000E+03 0.  1.
    -200001    1    1    2    0    0 -0.50544505361E+03  0.39200213623E+03  0.41608782222E+03  0.97879438742E+03  0.61300000000E+03 0. -1.
<mgrwt>
<rscale>  0 0.19135613E+04</rscale>
<asrwt>0</asrwt>
<pdfrwt beam="1">  1        2 0.14468078E+00 0.19135613E+04</pdfrwt>
<pdfrwt beam="2">  1       -2 0.12912724E+00 0.19135613E+04</pdfrwt>
<totfact> 0.11439951E+01</totfact>
</mgrwt>
</event>
<event>
 8    1  0.6972317E-052  0.2922184E+04  0.7818608E-02  0.8266308E-01
         -2   -1    0    0    0  501 -0.00000000000E+00  0.00000000000E+00  0.89183724654E+03  0.89183724654E+03  0.25500000000E-02 0. -1.
          2   -1    0    0  501    0  0.00000000000E+00 -0.00000000000E+00 -0.23936987365E+04  0.23936987365E+04  0.25500000000E-02 0.  1.
     200001    2    1    2    0    0 -0.10990566769E+04  0.65703849133E+03 -0.11393827402E+04  0.18203448685E+04  0.61305566924E+03 0.  0.
    5000001    2    3    3    0    0 -0.74770695214E+03  0.11336227568E+03 -0.52736910847E+03  0.92380031191E+03  0.58070198019E+02 0.  0.
        -11    1    4    4    0    0 -0.46115317237E+03  0.85474537962E+02 -0.32755222234E+03  0.57206520904E+03  0.51100000000E-03 0. -1.
     200002    1    4    4    0    0 -0.28655377977E+03  0.27887737721E+02 -0.19981688613E+03  0.35173510288E+03  0.30000000000E+02 0.  1.
     200000    1    3    3    0    0 -0.35134972471E+03  0.54367621564E+03 -0.61201363178E+03  0.89654455661E+03  0.10100000000E+03 0.  1.
    -200001    1    1    2    0    0  0.10990566769E+04 -0.65703849133E+03 -0.36247874969E+03  0.14651911145E+04  0.61300000000E+03 0. -1.
<mgrwt>
<rscale>  0 0.29221839E+04</rscale>
<asrwt>0</asrwt>
<pdfrwt beam="1">  1        2 0.34195696E+00 0.29221839E+04</pdfrwt>
<pdfrwt beam="2">  1       -2 0.12740532E+00 0.29221839E+04</pdfrwt>
<totfact> 0.19887080E+00</totfact>
</mgrwt>
</event>
<event>
 8    1  0.6972317E-052  0.1563600E+04  0.7818608E-02  0.8843227E-01
         -2   -1    0    0    0  501 -0.00000000000E+00  0.00000000000E+00  0.20570945829E+03  0.20570945831E+03  0.25500000000E-02 0. -1.
          2   -1    0    0  501    0  0.00000000000E+00 -0.00000000000E+00 -0.29712367342E+04  0.29712367342E+04  0.25500000000E-02 0.  1.
     200001    2    1    2    0    0  0.28809149916E+03 -0.63363983883E+02 -0.21654851890E+04  0.22698457502E+04  0.61307578627E+03 0.  0.
    5000001    2    3    3    0    0  0.40404981806E+03 -0.11250152405E+03 -0.93832841591E+03  0.10321157412E+04  0.94285941070E+02 0.  0.
        -11    1    4    4    0    0  0.28971759184E+03 -0.48080419538E+02 -0.60093459674E+03  0.66885753290E+03  0.51100000000E-03 0. -1.
     200002    1    4    4    0    0  0.11433222622E+03 -0.64421104510E+02 -0.33739381918E+03  0.36325820827E+03  0.30000000000E+02 0. -1.
     200000    1    3    3    0    0 -0.11595831890E+03  0.49137540165E+02 -0.12271567731E+04  0.12377300090E+04  0.10100000000E+03 0.  1.
    -200001    1    1    2    0    0 -0.28809149916E+03  0.63363983883E+02 -0.60004208693E+03  0.90710044230E+03  0.61300000000E+03 0. -1.
<mgrwt>
<rscale>  0 0.15636003E+04</rscale>
<asrwt>0</asrwt>
<pdfrwt beam="1">  1        2 0.42446236E+00 0.15636003E+04</pdfrwt>
<pdfrwt beam="2">  1       -2 0.29387067E-01 0.15636003E+04</pdfrwt>
<totfact> 0.25226852E+01</totfact>
</mgrwt>
</event>
<event>
 8    1  0.6972317E-052  0.1271662E+04  0.7818608E-02  0.9052344E-01
         -2   -1    0    0    0  501 -0.00000000000E+00  0.00000000000E+00  0.13530698863E+03  0.13530698865E+03  0.25500000000E-02 0. -1.
          2   -1    0    0  501    0  0.00000000000E+00 -0.00000000000E+00 -0.29878789755E+04  0.29878789755E+04  0.25500000000E-02 0.  1.
     200001    2    1    2    0    0  0.61606566868E+02 -0.14672807883E+03 -0.12866587072E+04  0.14340507127E+04  0.61293255715E+03 0.  0.
    5000001    2    3    3    0    0 -0.18499653979E+03 -0.28304696375E+02 -0.10212906013E+04  0.10397685531E+04  0.55310724187E+02 0.  0.
        -11    1    4    4    0    0 -0.43544432025E+02  0.11482880178E+02 -0.21930342132E+03  0.22387935300E+03  0.51100000000E-03 0. -1.
     200002    1    4    4    0    0 -0.14145210777E+03 -0.39787576553E+02 -0.80198717996E+03  0.81588920012E+03  0.30000000000E+02 0. -1.
     200000    1    3    3    0    0  0.24660310666E+03 -0.11842338246E+03 -0.26536810587E+03  0.39428215955E+03  0.10100000000E+03 0. -1.
    -200001    1    1    2    0    0 -0.61606566868E+02  0.14672807883E+03 -0.15659132797E+04  0.16891352514E+04  0.61300000000E+03 0. -1.
<mgrwt>
<rscale>  0 0.12716618E+04</rscale>
<asrwt>0</asrwt>
<pdfrwt beam="1">  1        2 0.42683981E+00 0.12716618E+04</pdfrwt>
<pdfrwt beam="2">  1       -2 0.19329572E-01 0.12716618E+04</pdfrwt>
<totfact> 0.53910773E+01</totfact>
</mgrwt>
</event>
<event>
 8    1  0.6972317E-052  0.1519893E+04  0.7818608E-02  0.8871331E-01
          2   -1    0    0  501    0  0.00000000000E+00  0.00000000000E+00  0.16079037814E+04  0.16079037814E+04  0.25500000000E-02 0.  1.
         -2   -1    0    0    0  501 -0.00000000000E+00 -0.00000000000E+00 -0.35917486766E+03  0.35917486767E+03  0.25500000000E-02 0. -1.
     200001    2    1    2    0    0 -0.39821440234E+03  0.19437105651E+03  0.72217072766E+03  0.10454565242E+04  0.61244915395E+03 0.  0.
    5000001    2    3    3    0    0  0.14217509488E+03  0.37835679514E+02  0.26666478339E+03  0.31455926856E+03  0.78690091445E+02 0.  0.
        -11    1    4    4    0    0  0.10763193598E+03  0.26145998955E+01  0.19258015639E+03  0.22063224245E+03  0.51100000000E-03 0. -1.
     200002    1    4    4    0    0  0.34543158907E+02  0.35221079618E+02  0.74084626998E+02  0.93927026111E+02  0.30000000000E+02 0. -1.
     200000    1    3    3    0    0 -0.54038949723E+03  0.15653537699E+03  0.45550594427E+03  0.73089725559E+03  0.10100000000E+03 0.  1.
    -200001    1    1    2    0    0  0.39821440234E+03 -0.19437105651E+03  0.52655818611E+03  0.92162212495E+03  0.61300000000E+03 0.  1.
<mgrwt>
<rscale>  0 0.15198929E+04</rscale>
<asrwt>0</asrwt>
<pdfrwt beam="1">  1        2 0.22970054E+00 0.15198929E+04</pdfrwt>
<pdfrwt beam="2">  1       -2 0.51310694E-01 0.15198929E+04</pdfrwt>
<totfact> 0.44438973E+01</totfact>
</mgrwt>
</event>
<event>
 8    1  0.6972317E-052  0.1739936E+04  0.7818608E-02  0.8738910E-01
          2   -1    0    0  501    0  0.00000000000E+00  0.00000000000E+00  0.58765480110E+03  0.58765480110E+03  0.25500000000E-02 0.  1.
         -2   -1    0    0    0  501 -0.00000000000E+00 -0.00000000000E+00 -0.12879057928E+04  0.12879057928E+04  0.25500000000E-02 0. -1.
     200001    2    1    2    0    0  0.51808104066E+03 -0.23992484406E+03 -0.60265309571E+03  0.10321945733E+04  0.61340279410E+03 0.  0.
    5000001    2    3    3    0    0  0.37624918452E+03 -0.33034048177E+03 -0.64989282191E+03  0.83039305025E+03  0.12846655278E+03 0.  0.
        -11    1    4    4    0    0  0.22400724721E+03 -0.13644615801E+03 -0.26913600674E+03  0.37580711936E+03  0.51100000000E-03 0. -1.
     200002    1    4    4    0    0  0.15224193731E+03 -0.19389432376E+03 -0.38075681517E+03  0.45458593089E+03  0.30000000000E+02 0. -1.
     200000    1    3    3    0    0  0.14183185614E+03  0.90415637714E+02  0.47239726195E+02  0.20180152301E+03  0.10100000000E+03 0.  1.
    -200001    1    1    2    0    0 -0.51808104066E+03  0.23992484406E+03 -0.97597895992E+02  0.84336602065E+03  0.61300000000E+03 0. -1.
<mgrwt>
<rscale>  0 0.17399357E+04</rscale>
<asrwt>0</asrwt>
<pdfrwt beam="1">  1        2 0.83950686E-01 0.17399357E+04</pdfrwt>
<pdfrwt beam="2">  1       -2 0.18398654E+00 0.17399357E+04</pdfrwt>
<totfact> 0.89985494E+00</totfact>
</mgrwt>
</event>
<event>
 8    1  0.6972317E-052  0.1461998E+04  0.7818608E-02  0.8910125E-01
          2   -1    0    0  501    0  0.00000000000E+00  0.00000000000E+00  0.18046160798E+04  0.18046160798E+04  0.25500000000E-02 0.  1.
         -2   -1    0    0    0  501 -0.00000000000E+00 -0.00000000000E+00 -0.29610708400E+03  0.29610708402E+03  0.25500000000E-02 0. -1.
     200001    2    1    2    0    0  0.10239633054E+03 -0.38510597543E+03  0.74211470668E+03  0.10415155226E+04  0.61255916050E+03 0.  0.
    5000001    2    3    3    0    0  0.11994637546E+03 -0.22504738778E+03  0.80027865105E+03  0.84274228501E+03  0.68812643358E+02 0.  0.
        -11    1    4    4    0    0 -0.24418160542E+01 -0.86413023514E+01  0.73162225843E+02  0.73711232947E+02  0.51100000000E-03 0. -1.
     200002    1    4    4    0    0  0.12238819151E+03 -0.21640608543E+03  0.72711642520E+03  0.76903105206E+03  0.30000000000E+02 0. -1.
     200000    1    3    3    0    0 -0.17550044912E+02 -0.16005858765E+03 -0.58163944364E+02  0.19877323759E+03  0.10100000000E+03 0. -1.
    -200001    1    1    2    0    0 -0.10239633054E+03  0.38510597543E+03  0.76639428910E+03  0.10592076412E+04  0.61300000000E+03 0. -1.
<mgrwt>
<rscale>  0 0.14619981E+04</rscale>
<asrwt>0</asrwt>
<pdfrwt beam="1">  1        2 0.25780231E+00 0.14619981E+04</pdfrwt>
<pdfrwt beam="2">  1       -2 0.42301009E-01 0.14619981E+04</pdfrwt>
<totfact> 0.52000666E+01</totfact>
</mgrwt>
</event>
<event>
 8    1  0.6972317E-052  0.1403282E+04  0.7818608E-02  0.8951446E-01
         -2   -1    0    0    0  501 -0.00000000000E+00  0.00000000000E+00  0.14518763594E+03  0.14518763596E+03  0.25500000000E-02 0. -1.
          2   -1    0    0  501    0  0.00000000000E+00 -0.00000000000E+00 -0.33907840531E+04  0.33907840531E+04  0.25500000000E-02 0.  1.
     200001    2    1    2    0    0 -0.26716521122E+03 -0.18759139443E+03 -0.13602717724E+04  0.15267962867E+04  0.61171874656E+03 0.  0.
    5000001    2    3    3    0    0 -0.27552635878E+03 -0.27590105067E+03 -0.13211717449E+04  0.13868023000E+04  0.16027999063E+03 0.  0.
        -11    1    4    4    0    0 -0.23423378402E+03 -0.15673892648E+03 -0.10340934891E+04  0.10718124374E+04  0.51100000000E-03 0. -1.
     200002    1    4    4    0    0 -0.41292574768E+02 -0.11916212419E+03 -0.28707825583E+03  0.31498986260E+03  0.30000000000E+02 0.  1.
     200000    1    3    3    0    0  0.83611475619E+01  0.88309656237E+02 -0.39100027462E+02  0.13999398673E+03  0.10100000000E+03 0. -1.
    -200001    1    1    2    0    0  0.26716521122E+03  0.18759139443E+03 -0.18853246448E+04  0.20091754024E+04  0.61300000000E+03 0.  1.
<mgrwt>
<rscale>  0 0.14032818E+04</rscale>
<asrwt>0</asrwt>
<pdfrwt beam="1">  1        2 0.48439768E+00 0.14032818E+04</pdfrwt>
<pdfrwt beam="2">  1       -2 0.20741093E-01 0.14032818E+04</pdfrwt>
<totfact> 0.27656613E+01</totfact>
</mgrwt>
</event>
<event>
 8    1  0.6972317E-052  0.1410519E+04  0.7818608E-02  0.8946239E-01
         -2   -1    0    0    0  501 -0.00000000000E+00  0.00000000000E+00  0.81889314157E+03  0.81889314157E+03  0.25500000000E-02 0. -1.
          2   -1    0    0  501    0  0.00000000000E+00 -0.00000000000E+00 -0.60739431563E+03  0.60739431563E+03  0.25500000000E-02 0.  1.
     200001    2    1    2    0    0 -0.15875387142E+03 -0.27524430591E+03 -0.39477204055E+02  0.69163094749E+03  0.61305195397E+03 0.  0.
    5000001    2    3    3    0    0 -0.15222117477E+03 -0.35115252151E+03  0.12542087991E+03  0.48379179955E+03  0.26803867031E+03 0.  0.
        -11    1    4    4    0    0  0.39908888949E+02 -0.23574194977E+03  0.86948481104E+02  0.25441506376E+03  0.51100000000E-03 0. -1.
     200002    1    4    4    0    0 -0.19213006372E+03 -0.11541057174E+03  0.38472398809E+02  0.22937673580E+03  0.30000000000E+02 0. -1.
     200000    1    3    3    0    0 -0.65326966484E+01  0.75908215599E+02 -0.16489808397E+03  0.20783914794E+03  0.10100000000E+03 0.  1.
    -200001    1    1    2    0    0  0.15875387142E+03  0.27524430591E+03  0.25097603000E+03  0.73465650971E+03  0.61300000000E+03 0. -1.
<mgrwt>
<rscale>  0 0.14105191E+04</rscale>
<asrwt>0</asrwt>
<pdfrwt beam="1">  1        2 0.86770617E-01 0.14105191E+04</pdfrwt>
<pdfrwt beam="2">  1       -2 0.11698473E+00 0.14105191E+04</pdfrwt>
<totfact> 0.29456260E+01</totfact>
</mgrwt>
</event>
<event>
 8    1  0.6972317E-052  0.1382766E+04  0.7818608E-02  0.8966389E-01
         -2   -1    0    0    0  501 -0.00000000000E+00  0.00000000000E+00  0.26944618291E+03  0.26944618292E+03  0.25500000000E-02 0. -1.
          2   -1    0    0  501    0  0.00000000000E+00 -0.00000000000E+00 -0.17740485290E+04  0.17740485290E+04  0.25500000000E-02 0.  1.
     200001    2    1    2    0    0 -0.30361447759E+03 -0.10292470578E+03 -0.74747404754E+03  0.10179277924E+04  0.61211460744E+03 0.  0.
    5000001    2    3    3    0    0  0.84685913304E+02  0.14711928104E+03 -0.36155225226E+03  0.40765259133E+03  0.81515749026E+02 0.  0.
        -11    1    4    4    0    0  0.20386597754E+02  0.46870825391E+02 -0.44961572203E+02  0.68073714575E+02  0.51100000000E-03 0. -1.
     200002    1    4    4    0    0  0.64299315549E+02  0.10024845565E+03 -0.31659068006E+03  0.33957887676E+03  0.30000000000E+02 0. -1.
     200000    1    3    3    0    0 -0.38830039089E+03 -0.25004398682E+03 -0.38592179528E+03  0.61027520102E+03  0.10100000000E+03 0.  1.
    -200001    1    1    2    0    0  0.30361447759E+03  0.10292470578E+03 -0.75712829859E+03  0.10255669196E+04  0.61300000000E+03 0.  1.
<mgrwt>
<rscale>  0 0.13827662E+04</rscale>
<asrwt>0</asrwt>
<pdfrwt beam="1">  1        2 0.25343550E+00 0.13827662E+04</pdfrwt>
<pdfrwt beam="2">  1       -2 0.38492313E-01 0.13827662E+04</pdfrwt>
<totfact> 0.65254226E+01</totfact>
</mgrwt>
</event>
<event>
 8    1  0.6972317E-052  0.1519982E+04  0.7818608E-02  0.8871273E-01
          2   -1    0    0  501    0  0.00000000000E+00  0.00000000000E+00  0.20010953158E+04  0.20010953158E+04  0.25500000000E-02 0.  1.
         -2   -1    0    0    0  501 -0.00000000000E+00 -0.00000000000E+00 -0.28863513542E+03  0.28863513543E+03  0.25500000000E-02 0. -1.
     200001    2    1    2    0    0  0.21640811707E+03 -0.17772783057E+03  0.13849632389E+04  0.15404355149E+04  0.61351344536E+03 0.  0.
    5000001    2    3    3    0    0 -0.23733999376E+02 -0.46173436818E+02 -0.22928741909E+02  0.10261229066E+03  0.85488396841E+02 0.  0.
        -11    1    4    4    0    0 -0.33584586046E+01 -0.13097106799E+01  0.26439294007E+02  0.26683906275E+02  0.51100000000E-03 0. -1.
     200002    1    4    4    0    0 -0.20375540771E+02 -0.44863726138E+02 -0.49368035916E+02  0.75928384382E+02  0.30000000000E+02 0. -1.
     200000    1    3    3    0    0  0.24014211644E+03 -0.13155439375E+03  0.14078919808E+04  0.14378232243E+04  0.10100000000E+03 0.  1.
    -200001    1    1    2    0    0 -0.21640811707E+03  0.17772783057E+03  0.32749694147E+03  0.74929493630E+03  0.61300000000E+03 0. -1.
<mgrwt>
<rscale>  0 0.15199821E+04</rscale>
<asrwt>0</asrwt>
<pdfrwt beam="1">  1        2 0.28587076E+00 0.15199821E+04</pdfrwt>
<pdfrwt beam="2">  1       -2 0.41233591E-01 0.15199821E+04</pdfrwt>
<totfact> 0.43131988E+01</totfact>
</mgrwt>
</event>
<event>
 8    1  0.6972317E-052  0.1916992E+04  0.7818608E-02  0.8646444E-01
          2   -1    0    0  501    0  0.00000000000E+00  0.00000000000E+00  0.14974367247E+04  0.14974367247E+04  0.25500000000E-02 0.  1.
         -2   -1    0    0    0  501 -0.00000000000E+00 -0.00000000000E+00 -0.61352487876E+03  0.61352487877E+03  0.25500000000E-02 0. -1.
     200001    2    1    2    0    0 -0.12845925493E+03 -0.56425835890E+03 -0.61245361783E+02  0.84447811637E+03  0.61196651781E+03 0.  0.
    5000001    2    3    3    0    0  0.13638272553E+03 -0.44679466990E+03 -0.19021524740E+03  0.51165199924E+03  0.85908108503E+02 0.  0.
        -11    1    4    4    0    0  0.12780615256E+03 -0.36656034254E+03 -0.16615038224E+03  0.42226395403E+03  0.51100000000E-03 0. -1.
     200002    1    4    4    0    0  0.85765729701E+01 -0.80234327361E+02 -0.24064865166E+02  0.89388045209E+02  0.30000000000E+02 0. -1.
     200000    1    3    3    0    0 -0.26484198046E+03 -0.11746368900E+03  0.12896988562E+03  0.33282611713E+03  0.10100000000E+03 0. -1.
    -200001    1    1    2    0    0  0.12845925493E+03  0.56425835890E+03  0.94515720769E+03  0.12664834871E+04  0.61300000000E+03 0.  1.
<mgrwt>
<rscale>  0 0.19169921E+04</rscale>
<asrwt>0</asrwt>
<pdfrwt beam="1">  1        2 0.21391953E+00 0.19169921E+04</pdfrwt>
<pdfrwt beam="2">  1       -2 0.87646412E-01 0.19169921E+04</pdfrwt>
<totfact> 0.15463838E+01</totfact>
</mgrwt>
</event>
<event>
 8    1  0.6972317E-052  0.1427461E+04  0.7818608E-02  0.8934178E-01
          2   -1    0    0  501    0  0.00000000000E+00  0.00000000000E+00  0.76621747434E+03  0.76621747434E+03  0.25500000000E-02 0.  1.
         -2   -1    0    0    0  501 -0.00000000000E+00 -0.00000000000E+00 -0.66483855869E+03  0.66483855869E+03  0.25500000000E-02 0. -1.
     200001    2    1    2    0    0 -0.12392690771E+03 -0.32969361775E+03 -0.51386945069E+02  0.70775653197E+03  0.61173763198E+03 0.  0.
    5000001    2    3    3    0    0 -0.12891688384E+03 -0.45517872133E+03 -0.80794563736E+02  0.54393584000E+03  0.25599063502E+03 0.  0.
        -11    1    4    4    0    0 -0.10850706434E+03 -0.44822267764E+03 -0.13301372701E+03  0.47996875246E+03  0.51100000000E-03 0. -1.
     200002    1    4    4    0    0 -0.20409819495E+02 -0.69560436915E+01  0.52219163276E+02  0.63967087545E+02  0.30000000000E+02 0. -1.
     200000    1    3    3    0    0  0.49899761288E+01  0.12548510358E+03  0.29407618667E+02  0.16382069197E+03  0.10100000000E+03 0.  1.
    -200001    1    1    2    0    0  0.12392690771E+03  0.32969361775E+03  0.15276586072E+03  0.72329950107E+03  0.61300000000E+03 0.  1.
<mgrwt>
<rscale>  0 0.14274606E+04</rscale>
<asrwt>0</asrwt>
<pdfrwt beam="1">  1        2 0.10945964E+00 0.14274606E+04</pdfrwt>
<pdfrwt beam="2">  1       -2 0.94976937E-01 0.14274606E+04</pdfrwt>
<totfact> 0.36465974E+01</totfact>
</mgrwt>
</event>
<event>
 8    1  0.6972317E-052  0.1332555E+04  0.7818608E-02  0.9004140E-01
         -2   -1    0    0    0  501 -0.00000000000E+00  0.00000000000E+00  0.54126831368E+03  0.54126831368E+03  0.25500000000E-02 0. -1.
          2   -1    0    0  501    0  0.00000000000E+00 -0.00000000000E+00 -0.82015836664E+03  0.82015836664E+03  0.25500000000E-02 0.  1.
     200001    2    1    2    0    0  0.26057038709E+03 -0.13219921142E+02 -0.15340225968E+03  0.68349756957E+03  0.61283356745E+03 0.  0.
    5000001    2    3    3    0    0  0.94210624278E+02 -0.39404737415E+02  0.82503158102E+02  0.37655525996E+03  0.35292877136E+03 0.  0.
        -11    1    4    4    0    0  0.16177283924E+03  0.11073400953E+03  0.16770840953E+02  0.19675805826E+03  0.51100000000E-03 0. -1.
     200002    1    4    4    0    0 -0.67562214966E+02 -0.15013874694E+03  0.65732317149E+02  0.17979720171E+03  0.30000000000E+02 0. -1.
     200000    1    3    3    0    0  0.16635976281E+03  0.26184816273E+02 -0.23590541779E+03  0.30694230961E+03  0.10100000000E+03 0.  1.
    -200001    1    1    2    0    0 -0.26057038709E+03  0.13219921142E+02 -0.12548779328E+03  0.67792911075E+03  0.61300000000E+03 0.  1.
<mgrwt>
<rscale>  0 0.13325550E+04</rscale>
<asrwt>0</asrwt>
<pdfrwt beam="1">  1        2 0.11716548E+00 0.13325550E+04</pdfrwt>
<pdfrwt beam="2">  1       -2 0.77324045E-01 0.13325550E+04</pdfrwt>
<totfact> 0.53778765E+01</totfact>
</mgrwt>
</event>
<event>
 8    1  0.6972317E-052  0.1263386E+04  0.7818608E-02  0.9059115E-01
          2   -1    0    0  501    0  0.00000000000E+00  0.00000000000E+00  0.57021303427E+03  0.57021303428E+03  0.25500000000E-02 0.  1.
         -2   -1    0    0    0  501 -0.00000000000E+00 -0.00000000000E+00 -0.69980132355E+03  0.69980132355E+03  0.25500000000E-02 0. -1.
     200001    2    1    2    0    0 -0.75949480901E+02  0.56356773044E+02  0.54787061216E+02  0.62293810314E+03  0.61327469274E+03 0.  0.
    5000001    2    3    3    0    0 -0.26650204766E+03  0.24392650850E+02 -0.15592751290E+03  0.31973253335E+03  0.79354651879E+02 0.  0.
        -11    1    4    4    0    0 -0.63885559542E+02  0.31789027613E+02 -0.60915970884E+02  0.93822505315E+02  0.51100000000E-03 0. -1.
     200002    1    4    4    0    0 -0.20261648812E+03 -0.73963767623E+01 -0.95011542021E+02  0.22591002803E+03  0.30000000000E+02 0. -1.
     200000    1    3    3    0    0  0.19055256676E+03  0.31964122194E+02  0.21071457412E+03  0.30320556979E+03  0.10100000000E+03 0.  1.
    -200001    1    1    2    0    0  0.75949480901E+02 -0.56356773044E+02 -0.18437535049E+03  0.64707625469E+03  0.61300000000E+03 0.  1.
<mgrwt>
<rscale>  0 0.12633857E+04</rscale>
<asrwt>0</asrwt>
<pdfrwt beam="1">  1        2 0.81459005E-01 0.12633857E+04</pdfrwt>
<pdfrwt beam="2">  1       -2 0.99971618E-01 0.12633857E+04</pdfrwt>
<totfact> 0.46875349E+01</totfact>
</mgrwt>
</event>
<event>
 8    1  0.6972317E-052  0.1449333E+04  0.7818608E-02  0.8918863E-01
         -2   -1    0    0    0  501 -0.00000000000E+00  0.00000000000E+00  0.27835778453E+03  0.27835778454E+03  0.25500000000E-02 0. -1.
          2   -1    0    0  501    0  0.00000000000E+00 -0.00000000000E+00 -0.18865694627E+04  0.18865694627E+04  0.25500000000E-02 0.  1.
     200001    2    1    2    0    0 -0.29004537655E+03  0.88876915850E+02 -0.44533292084E+03  0.81582331096E+03  0.61255272238E+03 0.  0.
    5000001    2    3    3    0    0 -0.77099487766E+02 -0.49425107005E+02  0.85601847452E+02  0.21869172642E+03  0.17919604544E+03 0.  0.
        -11    1    4    4    0    0  0.28710065158E+02  0.17742678957E+02 -0.30310544709E+02  0.45362976300E+02  0.51100000000E-03 0. -1.
     200002    1    4    4    0    0 -0.10580955292E+03 -0.67167785962E+02  0.11591239216E+03  0.17332875012E+03  0.30000000000E+02 0. -1.
     200000    1    3    3    0    0 -0.21294588878E+03  0.13830202286E+03 -0.53093476829E+03  0.59713158454E+03  0.10100000000E+03 0. -1.
    -200001    1    1    2    0    0  0.29004537655E+03 -0.88876915850E+02 -0.11628787573E+04  0.13491039362E+04  0.61300000000E+03 0.  1.
<mgrwt>
<rscale>  0 0.14493327E+04</rscale>
<asrwt>0</asrwt>
<pdfrwt beam="1">  1        2 0.26950992E+00 0.14493327E+04</pdfrwt>
<pdfrwt beam="2">  1       -2 0.39765399E-01 0.14493327E+04</pdfrwt>
<totfact> 0.53322058E+01</totfact>
</mgrwt>
</event>
<event>
 8    1  0.6972317E-052  0.2047038E+04  0.7818608E-02  0.8584939E-01
          2   -1    0    0  501    0  0.00000000000E+00  0.00000000000E+00  0.16909581816E+04  0.16909581816E+04  0.25500000000E-02 0.  1.
         -2   -1    0    0    0  501 -0.00000000000E+00 -0.00000000000E+00 -0.61952536775E+03  0.61952536776E+03  0.25500000000E-02 0. -1.
     200001    2    1    2    0    0 -0.65520350515E+03  0.33759160480E+03  0.13018193278E+03  0.96698738417E+03  0.61225610714E+03 0.  0.
    5000001    2    3    3    0    0 -0.71522190719E+03  0.36293421221E+03  0.19684015117E+03  0.82955094646E+03  0.78390743994E+02 0.  0.
        -11    1    4    4    0    0 -0.37020295188E+03  0.20243206366E+03  0.72600096446E+02  0.42813518891E+03  0.51100000000E-03 0. -1.
     200002    1    4    4    0    0 -0.34501895530E+03  0.16050214855E+03  0.12424005472E+03  0.40141575754E+03  0.30000000000E+02 0. -1.
     200000    1    3    3    0    0  0.60018402041E+02 -0.25342607405E+02 -0.66658218386E+02  0.13743643772E+03  0.10100000000E+03 0. -1.
    -200001    1    1    2    0    0  0.65520350515E+03 -0.33759160480E+03  0.94125088109E+03  0.13434961652E+04  0.61300000000E+03 0.  1.
<mgrwt>
<rscale>  0 0.20470383E+04</rscale>
<asrwt>0</asrwt>
<pdfrwt beam="1">  1        2 0.24156545E+00 0.20470383E+04</pdfrwt>
<pdfrwt beam="2">  1       -2 0.88503624E-01 0.20470383E+04</pdfrwt>
<totfact> 0.11838331E+01</totfact>
</mgrwt>
</event>
<event>
 8    1  0.6972317E-052  0.1599149E+04  0.7818608E-02  0.8821071E-01
         -2   -1    0    0    0  501 -0.00000000000E+00  0.00000000000E+00  0.18064805069E+03  0.18064805071E+03  0.25500000000E-02 0.  1.
          2   -1    0    0  501    0  0.00000000000E+00 -0.00000000000E+00 -0.35390331257E+04  0.35390331257E+04  0.25500000000E-02 0. -1.
     200001    2    1    2    0    0  0.18991419687E+03  0.27722522785E+02 -0.27870742600E+04  0.28600295099E+04  0.61249483757E+03 0.  0.
    5000001    2    3    3    0    0  0.17789995179E+03  0.26667359107E+03 -0.11367374225E+04  0.11893845349E+04  0.14035813883E+03 0.  0.
        -11    1    4    4    0    0  0.64585363918E+02  0.69732003210E+01 -0.21961363607E+03  0.22901974566E+03  0.51100000000E-03 0. -1.
     200002    1    4    4    0    0  0.11331458787E+03  0.25970039075E+03 -0.91712378643E+03  0.96036478924E+03  0.30000000000E+02 0. -1.
     200000    1    3    3    0    0  0.12014245080E+02 -0.23895106829E+03 -0.16503368375E+04  0.16706449750E+04  0.10100000000E+03 0. -1.
    -200001    1    1    2    0    0 -0.18991419687E+03 -0.27722522785E+02 -0.57131081499E+03  0.85965166653E+03  0.61300000000E+03 0.  1.
<mgrwt>
<rscale>  0 0.15991491E+04</rscale>
<asrwt>0</asrwt>
<pdfrwt beam="1">  1        2 0.50557612E+00 0.15991491E+04</pdfrwt>
<pdfrwt beam="2">  1       -2 0.25806866E-01 0.15991491E+04</pdfrwt>
<totfact> 0.14928558E+01</totfact>
</mgrwt>
</event>
<event>
 8    1  0.6972317E-052  0.2809053E+04  0.7818608E-02  0.8300463E-01
          2   -1    0    0  501    0  0.00000000000E+00  0.00000000000E+00  0.61894986934E+03  0.61894986934E+03  0.25500000000E-02 0.  1.
         -2   -1    0    0    0  501 -0.00000000000E+00 -0.00000000000E+00 -0.31871637433E+04  0.31871637433E+04  0.25500000000E-02 0. -1.
     200001    2    1    2    0    0  0.39882025490E+03 -0.11288241686E+04 -0.18317085456E+04  0.22726499848E+04  0.61357978940E+03 0.  0.
    5000001    2    3    3    0    0  0.46442781145E+03 -0.90744305479E+03 -0.17092250450E+04  0.19924408540E+04  0.96042765021E+02 0.  0.
        -11    1    4    4    0    0  0.61419911087E+02 -0.19547281902E+03 -0.36293076884E+03  0.41677424516E+03  0.51100000000E-03 0. -1.
     200002    1    4    4    0    0  0.40300790036E+03 -0.71197023577E+03 -0.13462942761E+04  0.15756666089E+04  0.30000000000E+02 0. -1.
     200000    1    3    3    0    0 -0.65607556545E+02 -0.22138111380E+03 -0.12248350061E+03  0.28020913073E+03  0.10100000000E+03 0.  1.
    -200001    1    1    2    0    0 -0.39882025490E+03  0.11288241686E+04 -0.73650532837E+03  0.15334636279E+04  0.61300000000E+03 0. -1.
<mgrwt>
<rscale>  0 0.28090529E+04</rscale>
<asrwt>0</asrwt>
<pdfrwt beam="1">  1        2 0.88421412E-01 0.28090529E+04</pdfrwt>
<pdfrwt beam="2">  1       -2 0.45530910E+00 0.28090529E+04</pdfrwt>
<totfact> 0.14606631E-01</totfact>
</mgrwt>
</event>
<event>
 8    1  0.6972317E-052  0.2028565E+04  0.7818608E-02  0.8593381E-01
         -2   -1    0    0    0  501 -0.00000000000E+00  0.00000000000E+00  0.66655038428E+03  0.66655038429E+03  0.25500000000E-02 0. -1.
          2   -1    0    0  501    0  0.00000000000E+00 -0.00000000000E+00 -0.15434227910E+04  0.15434227910E+04  0.25500000000E-02 0.  1.
     200001    2    1    2    0    0 -0.27734206110E+03  0.75648888219E+03 -0.37091654996E+03  0.10781806251E+04  0.61294398238E+03 0.  0.
    5000001    2    3    3    0    0 -0.39745159634E+03  0.66417990125E+03 -0.15129827880E+03  0.79290806516E+03  0.81910426492E+02 0.  0.
        -11    1    4    4    0    0 -0.17438321535E+03  0.29529569993E+03 -0.10307538980E+03  0.35809718258E+03  0.51100000000E-03 0. -1.
     200002    1    4    4    0    0 -0.22306838100E+03  0.36888420132E+03 -0.48222889004E+02  0.43481088258E+03  0.30000000000E+02 0. -1.
     200000    1    3    3    0    0  0.12010953524E+03  0.92308980942E+02 -0.21961827116E+03  0.28527255992E+03  0.10100000000E+03 0.  1.
    -200001    1    1    2    0    0  0.27734206110E+03 -0.75648888219E+03 -0.50595585677E+03  0.11317925502E+04  0.61300000000E+03 0.  1.
<mgrwt>
<rscale>  0 0.20285651E+04</rscale>
<asrwt>0</asrwt>
<pdfrwt beam="1">  1        2 0.22048897E+00 0.20285651E+04</pdfrwt>
<pdfrwt beam="2">  1       -2 0.95221484E-01 0.20285651E+04</pdfrwt>
<totfact> 0.11960471E+01</totfact>
</mgrwt>
</event>
<event>
 8    1  0.6972317E-052  0.1931218E+04  0.7818608E-02  0.8639472E-01
         -2   -1    0    0    0  501 -0.00000000000E+00  0.00000000000E+00  0.99613013983E+03  0.99613013983E+03  0.25500000000E-02 0.  1.
          2   -1    0    0  501    0  0.00000000000E+00 -0.00000000000E+00 -0.93602268909E+03  0.93602268909E+03  0.25500000000E-02 0. -1.
     200001    2    1    2    0    0  0.60832058888E+03 -0.42788093464E+02 -0.40001649055E+03  0.95267960257E+03  0.61294410239E+03 0.  0.
    5000001    2    3    3    0    0  0.45324551712E+03 -0.16078750479E+03  0.32680561892E+01  0.49353739737E+03  0.11083484078E+03 0.  0.
        -11    1    4    4    0    0  0.35869322712E+03 -0.16302140493E+03  0.95428956005E+01  0.39411657730E+03  0.51100000000E-03 0. -1.
     200002    1    4    4    0    0  0.94552289999E+02  0.22339001432E+01 -0.62748394112E+01  0.99420820071E+02  0.30000000000E+02 0.  1.
     200000    1    3    3    0    0  0.15507507176E+03  0.11799941133E+03 -0.40328454674E+03  0.45914220520E+03  0.10100000000E+03 0.  1.
    -200001    1    1    2    0    0 -0.60832058888E+03  0.42788093464E+02  0.46012394129E+03  0.97947322635E+03  0.61300000000E+03 0.  1.
<mgrwt>
<rscale>  0 0.19312177E+04</rscale>
<asrwt>0</asrwt>
<pdfrwt beam="1">  1        2 0.13371753E+00 0.19312177E+04</pdfrwt>
<pdfrwt beam="2">  1       -2 0.14230431E+00 0.19312177E+04</pdfrwt>
<totfact> 0.99435827E+00</totfact>
</mgrwt>
</event>
<event>
 8    1  0.6972317E-052  0.1959759E+04  0.7818608E-02  0.8625669E-01
         -2   -1    0    0    0  501 -0.00000000000E+00  0.00000000000E+00  0.45540778852E+03  0.45540778853E+03  0.25500000000E-02 0. -1.
          2   -1    0    0  501    0  0.00000000000E+00 -0.00000000000E+00 -0.21083611339E+04  0.21083611339E+04  0.25500000000E-02 0.  1.
     200001    2    1    2    0    0  0.62132092378E+02  0.65647796561E+03 -0.32049941275E+03  0.95565630236E+03  0.61297257560E+03 0.  0.
    5000001    2    3    3    0    0  0.87904383058E+02  0.67880940106E+03 -0.80668275011E+02  0.69320082308E+03  0.74233597514E+02 0.  0.
        -11    1    4    4    0    0  0.14737383970E+02  0.32517307239E+02 -0.15212217361E+02  0.38806923528E+02  0.51100000000E-03 0. -1.
     200002    1    4    4    0    0  0.73166999088E+02  0.64629209382E+03 -0.65456057650E+02  0.65439389955E+03  0.30000000000E+02 0. -1.
     200000    1    3    3    0    0 -0.25772290680E+02 -0.22331435451E+02 -0.23983113774E+03  0.26245547928E+03  0.10100000000E+03 0.  1.
    -200001    1    1    2    0    0 -0.62132092378E+02 -0.65647796561E+03 -0.13324539326E+04  0.16081126201E+04  0.61300000000E+03 0.  1.
<mgrwt>
<rscale>  0 0.19597593E+04</rscale>
<asrwt>0</asrwt>
<pdfrwt beam="1">  1        2 0.30119444E+00 0.19597593E+04</pdfrwt>
<pdfrwt beam="2">  1       -2 0.65058256E-01 0.19597593E+04</pdfrwt>
<totfact> 0.14375554E+01</totfact>
</mgrwt>
</event>
<event>
 8    1  0.6972317E-052  0.1422320E+04  0.7818608E-02  0.8937819E-01
         -2   -1    0    0    0  501 -0.00000000000E+00  0.00000000000E+00  0.33346998424E+03  0.33346998425E+03  0.25500000000E-02 0. -1.
          2   -1    0    0  501    0  0.00000000000E+00 -0.00000000000E+00 -0.15166232180E+04  0.15166232180E+04  0.25500000000E-02 0.  1.
     200001    2    1    2    0    0  0.17774258546E+03 -0.28104983675E+03 -0.41355605343E+03  0.81152194452E+03  0.61396890775E+03 0.  0.
    5000001    2    3    3    0    0 -0.44482722492E+02 -0.28802689407E+03 -0.46672635761E+03  0.56160026065E+03  0.11235281738E+03 0.  0.
        -11    1    4    4    0    0 -0.46746056852E+02 -0.54495821347E+02 -0.15607513957E+03  0.17179766462E+03  0.51100000000E-03 0. -1.
     200002    1    4    4    0    0  0.22633343592E+01 -0.23353107272E+03 -0.31065121803E+03  0.38980259603E+03  0.30000000000E+02 0. -1.
     200000    1    3    3    0    0  0.22222530795E+03  0.69770573167E+01  0.53170304174E+02  0.24992168387E+03  0.10100000000E+03 0. -1.
    -200001    1    1    2    0    0 -0.17774258546E+03  0.28104983675E+03 -0.76959718034E+03  0.10385712577E+04  0.61300000000E+03 0. -1.
<mgrwt>
<rscale>  0 0.14223197E+04</rscale>
<asrwt>0</asrwt>
<pdfrwt beam="1">  1        2 0.21666046E+00 0.14223197E+04</pdfrwt>
<pdfrwt beam="2">  1       -2 0.47638570E-01 0.14223197E+04</pdfrwt>
<totfact> 0.58165444E+01</totfact>
</mgrwt>
</event>
<event>
 8    1  0.6972317E-052  0.2027803E+04  0.7818608E-02  0.8593731E-01
         -2   -1    0    0    0  501 -0.00000000000E+00  0.00000000000E+00  0.10909766372E+04  0.10909766372E+04  0.25500000000E-02 0.  1.
          2   -1    0    0  501    0  0.00000000000E+00 -0.00000000000E+00 -0.94227132564E+03  0.94227132565E+03  0.25500000000E-02 0. -1.
     200001    2    1    2    0    0 -0.67952312340E+03  0.53159423568E+02 -0.36063947570E+03  0.98454461496E+03  0.61211899812E+03 0.  0.
    5000001    2    3    3    0    0 -0.30022708641E+03 -0.26343301522E+03 -0.21199979818E+03  0.45881558808E+03  0.77682510942E+02 0.  0.
        -11    1    4    4    0    0 -0.16178687936E+03 -0.17333067652E+03 -0.10204407683E+03  0.25813080283E+03  0.51100000000E-03 0. -1.
     200002    1    4    4    0    0 -0.13844020706E+03 -0.90102338702E+02 -0.10995572135E+03  0.20068478524E+03  0.30000000000E+02 0. -1.
     200000    1    3    3    0    0 -0.37929603699E+03  0.31659243879E+03 -0.14863967751E+03  0.52572902688E+03  0.10100000000E+03 0. -1.
    -200001    1    1    2    0    0  0.67952312340E+03 -0.53159423568E+02  0.50934478725E+03  0.10487033479E+04  0.61300000000E+03 0.  1.
<mgrwt>
<rscale>  0 0.20278028E+04</rscale>
<asrwt>0</asrwt>
<pdfrwt beam="1">  1        2 0.13461019E+00 0.20278028E+04</pdfrwt>
<pdfrwt beam="2">  1       -2 0.15585381E+00 0.20278028E+04</pdfrwt>
<totfact> 0.76845156E+00</totfact>
</mgrwt>
</event>
<event>
 8    1  0.6972317E-052  0.1568548E+04  0.7818608E-02  0.8840107E-01
         -2   -1    0    0    0  501 -0.00000000000E+00  0.00000000000E+00  0.73096491035E+03  0.73096491036E+03  0.25500000000E-02 0. -1.
          2   -1    0    0  501    0  0.00000000000E+00 -0.00000000000E+00 -0.84147073651E+03  0.84147073652E+03  0.25500000000E-02 0.  1.
     200001    2    1    2    0    0  0.12595649876E+03 -0.44396798000E+03 -0.21818249610E+03  0.79762220346E+03  0.61288250996E+03 0.  0.
    5000001    2    3    3    0    0  0.33485444746E+03 -0.36450073897E+03 -0.58842778798E+02  0.50514392926E+03  0.81973330820E+02 0.  0.
        -11    1    4    4    0    0  0.24793730408E+03 -0.27445446241E+03 -0.18712864784E+02  0.37033542904E+03  0.51100000000E-03 0. -1.
     200002    1    4    4    0    0  0.86917143375E+02 -0.90046276558E+02 -0.40129914013E+02  0.13480850023E+03  0.30000000000E+02 0.  1.
     200000    1    3    3    0    0 -0.20889794870E+03 -0.79467241030E+02 -0.15933971730E+03  0.29247827420E+03  0.10100000000E+03 0.  1.
    -200001    1    1    2    0    0 -0.12595649876E+03  0.44396798000E+03  0.10767666994E+03  0.77481344341E+03  0.61300000000E+03 0. -1.
<mgrwt>
<rscale>  0 0.15685478E+04</rscale>
<asrwt>0</asrwt>
<pdfrwt beam="1">  1        2 0.12021011E+00 0.15685478E+04</pdfrwt>
<pdfrwt beam="2">  1       -2 0.10442356E+00 0.15685478E+04</pdfrwt>
<totfact> 0.25536369E+01</totfact>
</mgrwt>
</event>
<event>
 8    1  0.6972317E-052  0.1363576E+04  0.7818608E-02  0.8980614E-01
          2   -1    0    0  501    0  0.00000000000E+00  0.00000000000E+00  0.94564286566E+03  0.94564286566E+03  0.25500000000E-02 0.  1.
         -2   -1    0    0    0  501 -0.00000000000E+00 -0.00000000000E+00 -0.49155435501E+03  0.49155435501E+03  0.25500000000E-02 0. -1.
     200001    2    1    2    0    0  0.29704890697E+03 -0.40204163680E+01  0.30131505685E+03  0.73908337246E+03  0.60596967836E+03 0.  0.
    5000001    2    3    3    0    0  0.11157494358E+03  0.12168932107E+03 -0.30810121427E+02  0.32591069279E+03  0.27930495376E+03 0.  0.
        -11    1    4    4    0    0  0.76912594127E+02  0.31002009527E+02  0.11890631686E+03  0.14496683731E+03  0.51100000000E-03 0. -1.
     200002    1    4    4    0    0  0.34662349456E+02  0.90687311541E+02 -0.14971643828E+03  0.18094385548E+03  0.30000000000E+02 0. -1.
     200000    1    3    3    0    0  0.18547396339E+03 -0.12570973744E+03  0.33212517828E+03  0.41317267967E+03  0.10100000000E+03 0.  1.
    -200001    1    1    2    0    0 -0.29704890697E+03  0.40204163680E+01  0.15277345380E+03  0.69811384821E+03  0.61300000000E+03 0. -1.
<mgrwt>
<rscale>  0 0.13635760E+04</rscale>
<asrwt>0</asrwt>
<pdfrwt beam="1">  1        2 0.13509184E+00 0.13635760E+04</pdfrwt>
<pdfrwt beam="2">  1       -2 0.70222051E-01 0.13635760E+04</pdfrwt>
<totfact> 0.54816311E+01</totfact>
</mgrwt>
</event>
<event>
 8    1  0.6972317E-052  0.1415087E+04  0.7818608E-02  0.8942970E-01
          2   -1    0    0  501    0  0.00000000000E+00  0.00000000000E+00  0.71397725374E+03  0.71397725374E+03  0.25500000000E-02 0.  1.
         -2   -1    0    0    0  501 -0.00000000000E+00 -0.00000000000E+00 -0.70116775020E+03  0.70116775021E+03  0.25500000000E-02 0. -1.
     200001    2    1    2    0    0 -0.11645654997E+03 -0.10633779033E+03  0.32218013436E+03  0.71062457067E+03  0.61344713528E+03 0.  0.
    5000001    2    3    3    0    0 -0.98441693499E+02  0.24246580279E+03  0.14432068805E+03  0.30587345669E+03  0.65189554150E+02 0.  0.
        -11    1    4    4    0    0 -0.41145080009E+01  0.25313703718E+02  0.34969595889E+02  0.43365716977E+02  0.51100000000E-03 0. -1.
     200002    1    4    4    0    0 -0.94327185498E+02  0.21715209907E+03  0.10935109216E+03  0.26250773972E+03  0.30000000000E+02 0. -1.
     200000    1    3    3    0    0 -0.18014856468E+02 -0.34880359312E+03  0.17785944632E+03  0.40475111398E+03  0.10100000000E+03 0.  1.
    -200001    1    1    2    0    0  0.11645654997E+03  0.10633779033E+03 -0.30937063083E+03  0.70452043327E+03  0.61300000000E+03 0. -1.
<mgrwt>
<rscale>  0 0.14150870E+04</rscale>
<asrwt>0</asrwt>
<pdfrwt beam="1">  1        2 0.10199675E+00 0.14150870E+04</pdfrwt>
<pdfrwt beam="2">  1       -2 0.10016682E+00 0.14150870E+04</pdfrwt>
<totfact> 0.35196445E+01</totfact>
</mgrwt>
</event>
<event>
 8    1  0.6972317E-052  0.1503466E+04  0.7818608E-02  0.8882151E-01
         -2   -1    0    0    0  501 -0.00000000000E+00  0.00000000000E+00  0.15710503087E+03  0.15710503089E+03  0.25500000000E-02 0. -1.
          2   -1    0    0  501    0  0.00000000000E+00 -0.00000000000E+00 -0.35969738730E+04  0.35969738730E+04  0.25500000000E-02 0.  1.
     200001    2    1    2    0    0  0.37341966165E+03  0.17706109466E+03 -0.20617394781E+04  0.21901727625E+04  0.61261258497E+03 0.  0.
    5000001    2    3    3    0    0 -0.86154316436E+02 -0.61134130933E+02 -0.11435342562E+03  0.17263499481E+03  0.74606884915E+02 0.  0.
        -11    1    4    4    0    0  0.29624172731E+01  0.10521880825E+02 -0.72884007753E+01  0.13137986083E+02  0.51100000000E-03 0. -1.
     200002    1    4    4    0    0 -0.89116733709E+02 -0.71656011758E+02 -0.10706502485E+03  0.15949700873E+03  0.30000000000E+02 0. -1.
     200000    1    3    3    0    0  0.45957397808E+03  0.23819522559E+03 -0.19473860524E+04  0.20175377677E+04  0.10100000000E+03 0.  1.
    -200001    1    1    2    0    0 -0.37341966165E+03 -0.17706109466E+03 -0.13781293641E+04  0.15639061414E+04  0.61300000000E+03 0. -1.
<mgrwt>
<rscale>  0 0.15034663E+04</rscale>
<asrwt>0</asrwt>
<pdfrwt beam="1">  1        2 0.51385336E+00 0.15034663E+04</pdfrwt>
<pdfrwt beam="2">  1       -2 0.22443578E-01 0.15034663E+04</pdfrwt>
<totfact> 0.17851620E+01</totfact>
</mgrwt>
</event>
<event>
 8    1  0.6972317E-052  0.2337167E+04  0.7818608E-02  0.8463409E-01
         -2   -1    0    0    0  501 -0.00000000000E+00  0.00000000000E+00  0.78008630292E+03  0.78008630292E+03  0.25500000000E-02 0. -1.
          2   -1    0    0  501    0  0.00000000000E+00 -0.00000000000E+00 -0.17505600394E+04  0.17505600394E+04  0.25500000000E-02 0.  1.
     200001    2    1    2    0    0  0.14371514028E+03  0.35017743312E+03 -0.14817345532E+04  0.16472240769E+04  0.61198986672E+03 0.  0.
    5000001    2    3    3    0    0  0.32308306163E+03  0.29630156228E+03 -0.12714420535E+04  0.13480595801E+04  0.92317147099E+02 0.  0.
        -11    1    4    4    0    0  0.16375365958E+03  0.96417306148E+02 -0.50597643427E+03  0.54048469912E+03  0.51100000000E-03 0. -1.
     200002    1    4    4    0    0  0.15932940205E+03  0.19988425613E+03 -0.76546561922E+03  0.80757488100E+03  0.30000000000E+02 0. -1.
     200000    1    3    3    0    0 -0.17936792135E+03  0.53875870833E+02 -0.21029249975E+03  0.29916449675E+03  0.10100000000E+03 0. -1.
    -200001    1    1    2    0    0 -0.14371514028E+03 -0.35017743312E+03  0.51126081680E+03  0.88342226540E+03  0.61300000000E+03 0. -1.
<mgrwt>
<rscale>  0 0.23371674E+04</rscale>
<asrwt>0</asrwt>
<pdfrwt beam="1">  1        2 0.25008000E+00 0.23371674E+04</pdfrwt>
<pdfrwt beam="2">  1       -2 0.11144090E+00 0.23371674E+04</pdfrwt>
<totfact> 0.62465360E+00</totfact>
</mgrwt>
</event>
<event>
 8    1  0.6972317E-052  0.1893408E+04  0.7818608E-02  0.8658145E-01
          2   -1    0    0  501    0  0.00000000000E+00  0.00000000000E+00  0.12029422665E+04  0.12029422665E+04  0.25500000000E-02 0.  1.
         -2   -1    0    0    0  501 -0.00000000000E+00 -0.00000000000E+00 -0.74504696168E+03  0.74504696168E+03  0.25500000000E-02 0. -1.
     200001    2    1    2    0    0  0.11628960230E+03 -0.63858146620E+03  0.55106110942E+03  0.10503487502E+04  0.61502405659E+03 0.  0.
    5000001    2    3    3    0    0 -0.21244111033E+03 -0.44349827652E+03  0.29435695578E+03  0.57894727077E+03  0.81926664082E+02 0.  0.
        -11    1    4    4    0    0 -0.30778684797E+02 -0.26092226724E+02  0.10712806432E+02  0.41748005403E+02  0.51100000000E-03 0. -1.
     200002    1    4    4    0    0 -0.18166242553E+03 -0.41740604979E+03  0.28364414935E+03  0.53719926537E+03  0.30000000000E+02 0. -1.
     200000    1    3    3    0    0  0.32873071263E+03 -0.19508318968E+03  0.25670415365E+03  0.47140147944E+03  0.10100000000E+03 0. -1.
    -200001    1    1    2    0    0 -0.11628960230E+03  0.63858146620E+03 -0.93165804585E+02  0.89764047799E+03  0.61300000000E+03 0. -1.
<mgrwt>
<rscale>  0 0.18934080E+04</rscale>
<asrwt>0</asrwt>
<pdfrwt beam="1">  1        2 0.17184890E+00 0.18934080E+04</pdfrwt>
<pdfrwt beam="2">  1       -2 0.10643528E+00 0.18934080E+04</pdfrwt>
<totfact> 0.14245413E+01</totfact>
</mgrwt>
</event>
<event>
 8    1  0.6972317E-052  0.1374001E+04  0.7818608E-02  0.8972856E-01
         -2   -1    0    0    0  501 -0.00000000000E+00  0.00000000000E+00  0.13712778176E+03  0.13712778178E+03  0.25500000000E-02 0. -1.
          2   -1    0    0  501    0  0.00000000000E+00 -0.00000000000E+00 -0.34418230076E+04  0.34418230076E+04  0.25500000000E-02 0.  1.
     200001    2    1    2    0    0 -0.19273309092E+03 -0.19300871984E+03 -0.20319838357E+04  0.21402146451E+04  0.61413517102E+03 0.  0.
    5000001    2    3    3    0    0  0.17431173381E+03  0.60540018183E+02 -0.43538629303E+03  0.47939148197E+03  0.78773691568E+02 0.  0.
        -11    1    4    4    0    0  0.14118176609E+02  0.21121793894E+02 -0.23200899707E+02  0.34405447760E+02  0.51100000000E-03 0. -1.
     200002    1    4    4    0    0  0.16019355720E+03  0.39418224289E+02 -0.41218539332E+03  0.44498603421E+03  0.30000000000E+02 0. -1.
     200000    1    3    3    0    0 -0.36704482473E+03 -0.25354873803E+03 -0.15965975427E+04  0.16608231631E+04  0.10100000000E+03 0.  1.
    -200001    1    1    2    0    0  0.19273309092E+03  0.19300871984E+03 -0.12727113902E+04  0.14387361443E+04  0.61300000000E+03 0. -1.
<mgrwt>
<rscale>  0 0.13740008E+04</rscale>
<asrwt>0</asrwt>
<pdfrwt beam="1">  1        2 0.49168895E+00 0.13740008E+04</pdfrwt>
<pdfrwt beam="2">  1       -2 0.19589685E-01 0.13740008E+04</pdfrwt>
<totfact> 0.28593428E+01</totfact>
</mgrwt>
</event>
<event>
 8    1  0.6972317E-052  0.1498096E+04  0.7818608E-02  0.8885720E-01
         -2   -1    0    0    0  501 -0.00000000000E+00  0.00000000000E+00  0.61568268860E+03  0.61568268861E+03  0.25500000000E-02 0. -1.
          2   -1    0    0  501    0  0.00000000000E+00 -0.00000000000E+00 -0.91130261132E+03  0.91130261132E+03  0.25500000000E-02 0.  1.
     200001    2    1    2    0    0 -0.11052881453E+03 -0.11633219639E+03 -0.55531844686E+03  0.84217720842E+03  0.61248189704E+03 0.  0.
    5000001    2    3    3    0    0 -0.23256289900E+03  0.73499438707E+02 -0.41065910700E+03  0.55572356110E+03  0.28407763854E+03 0.  0.
        -11    1    4    4    0    0 -0.23715859551E+03  0.62274532500E+02 -0.44528449787E+03  0.50833119211E+03  0.51100000000E-03 0. -1.
     200002    1    4    4    0    0  0.45956965038E+01  0.11224906208E+02  0.34625390873E+02  0.47392368994E+02  0.30000000000E+02 0. -1.
     200000    1    3    3    0    0  0.12203408447E+03 -0.18983163509E+03 -0.14465933986E+03  0.28645364732E+03  0.10100000000E+03 0. -1.
    -200001    1    1    2    0    0  0.11052881453E+03  0.11633219639E+03  0.25969852414E+03  0.68480809151E+03  0.61300000000E+03 0. -1.
<mgrwt>
<rscale>  0 0.14980964E+04</rscale>
<asrwt>0</asrwt>
<pdfrwt beam="1">  1        2 0.13018609E+00 0.14980964E+04</pdfrwt>
<pdfrwt beam="2">  1       -2 0.87954670E-01 0.14980964E+04</pdfrwt>
<totfact> 0.34498793E+01</totfact>
</mgrwt>
</event>
<event>
 8    1  0.6972317E-052  0.1361311E+04  0.7818608E-02  0.8982310E-01
          2   -1    0    0  501    0  0.00000000000E+00  0.00000000000E+00  0.52092133236E+03  0.52092133236E+03  0.25500000000E-02 0.  1.
         -2   -1    0    0    0  501 -0.00000000000E+00 -0.00000000000E+00 -0.88937018220E+03  0.88937018220E+03  0.25500000000E-02 0. -1.
     200001    2    1    2    0    0 -0.85630021995E+02 -0.29574879070E+02 -0.47540958000E+03  0.78146978153E+03  0.61357442625E+03 0.  0.
    5000001    2    3    3    0    0  0.10683827448E+03  0.50656216884E+02 -0.52140806307E+03  0.54525391765E+03  0.10702802098E+03 0.  0.
        -11    1    4    4    0    0 -0.14030660227E+02 -0.10064197703E+02 -0.10475293183E+03  0.10616649297E+03  0.51100000000E-03 0. -1.
     200002    1    4    4    0    0  0.12086893470E+03  0.60720414587E+02 -0.41665513123E+03  0.43908742467E+03  0.30000000000E+02 0. -1.
     200000    1    3    3    0    0 -0.19246829647E+03 -0.80231095954E+02  0.45998483071E+02  0.23621586388E+03  0.10100000000E+03 0.  1.
    -200001    1    1    2    0    0  0.85630021995E+02  0.29574879070E+02  0.10696073016E+03  0.62882173303E+03  0.61300000000E+03 0.  1.
<mgrwt>
<rscale>  0 0.13613110E+04</rscale>
<asrwt>0</asrwt>
<pdfrwt beam="1">  1        2 0.74417333E-01 0.13613110E+04</pdfrwt>
<pdfrwt beam="2">  1       -2 0.12705288E+00 0.13613110E+04</pdfrwt>
<totfact> 0.28800265E+01</totfact>
</mgrwt>
</event>
<event>
 8    1  0.6972317E-052  0.1450822E+04  0.7818608E-02  0.8917831E-01
         -2   -1    0    0    0  501 -0.00000000000E+00  0.00000000000E+00  0.80078679254E+03  0.80078679254E+03  0.25500000000E-02 0. -1.
          2   -1    0    0  501    0  0.00000000000E+00 -0.00000000000E+00 -0.65712985906E+03  0.65712985907E+03  0.25500000000E-02 0.  1.
     200001    2    1    2    0    0 -0.27348207450E+03  0.96100501555E+02 -0.18749119322E+03  0.70329367734E+03  0.61273264772E+03 0.  0.
    5000001    2    3    3    0    0 -0.39091129129E+03 -0.41894697553E+02 -0.26729348020E+03  0.48102874322E+03  0.73321510535E+02 0.  0.
        -11    1    4    4    0    0 -0.31018157283E+03 -0.44405974732E+02 -0.20037115717E+03  0.37193157884E+03  0.51100000000E-03 0. -1.
     200002    1    4    4    0    0 -0.80729718465E+02  0.25112771793E+01 -0.66922323032E+02  0.10909716438E+03  0.30000000000E+02 0.  1.
     200000    1    3    3    0    0  0.11742921679E+03  0.13799519911E+03  0.79802286983E+02  0.22226493412E+03  0.10100000000E+03 0. -1.
    -200001    1    1    2    0    0  0.27348207450E+03 -0.96100501555E+02  0.33114812669E+03  0.75462297426E+03  0.61300000000E+03 0. -1.
<mgrwt>
<rscale>  0 0.14508217E+04</rscale>
<asrwt>0</asrwt>
<pdfrwt beam="1">  1        2 0.93875694E-01 0.14508217E+04</pdfrwt>
<pdfrwt beam="2">  1       -2 0.11439811E+00 0.14508217E+04</pdfrwt>
<totfact> 0.28221665E+01</totfact>
</mgrwt>
</event>
<event>
 8    1  0.6972317E-052  0.1297291E+04  0.7818608E-02  0.9031716E-01
         -2   -1    0    0    0  501 -0.00000000000E+00  0.00000000000E+00  0.57802269946E+03  0.57802269947E+03  0.25500000000E-02 0. -1.
          2   -1    0    0  501    0  0.00000000000E+00 -0.00000000000E+00 -0.72789698976E+03  0.72789698976E+03  0.25500000000E-02 0.  1.
     200001    2    1    2    0    0 -0.12739774477E+03  0.16600396785E+03 -0.10770034022E+03  0.65681635017E+03  0.61320539124E+03 0.  0.
    5000001    2    3    3    0    0 -0.20780427953E+03 -0.16200165078E+03 -0.10156364985E+03  0.30426627478E+03  0.11329447273E+03 0.  0.
        -11    1    4    4    0    0 -0.10808985460E+03 -0.83407919769E+02 -0.10734809036E+03  0.17367760435E+03  0.51100000000E-03 0. -1.
     200002    1    4    4    0    0 -0.99714424924E+02 -0.78593731016E+02  0.57844405085E+01  0.13058867043E+03  0.30000000000E+02 0. -1.
     200000    1    3    3    0    0  0.80406534757E+02  0.32800561864E+03 -0.61366903706E+01  0.35255007539E+03  0.10100000000E+03 0. -1.
    -200001    1    1    2    0    0  0.12739774477E+03 -0.16600396785E+03 -0.42173950074E+02  0.64910333906E+03  0.61300000000E+03 0.  1.
<mgrwt>
<rscale>  0 0.12972910E+04</rscale>
<asrwt>0</asrwt>
<pdfrwt beam="1">  1        2 0.10398528E+00 0.12972910E+04</pdfrwt>
<pdfrwt beam="2">  1       -2 0.82574672E-01 0.12972910E+04</pdfrwt>
<totfact> 0.54168885E+01</totfact>
</mgrwt>
</event>
<event>
 8    1  0.6972317E-052  0.2115453E+04  0.7818608E-02  0.8554466E-01
         -2   -1    0    0    0  501 -0.00000000000E+00  0.00000000000E+00  0.30734559445E+03  0.30734559446E+03  0.25500000000E-02 0. -1.
          2   -1    0    0  501    0  0.00000000000E+00 -0.00000000000E+00 -0.36401554747E+04  0.36401554747E+04  0.25500000000E-02 0.  1.
     200001    2    1    2    0    0  0.16086091231E+03  0.65553664595E+03 -0.26663893024E+04  0.28181251734E+04  0.61367178034E+03 0.  0.
    5000001    2    3    3    0    0  0.87450108920E+02  0.69402776995E+03 -0.16556548423E+04  0.17989805020E+04  0.76261539727E+02 0.  0.
        -11    1    4    4    0    0 -0.43008585606E+01  0.20848150960E+03 -0.50359894378E+03  0.54506415531E+03  0.51100000000E-03 0. -1.
     200002    1    4    4    0    0  0.91750967481E+02  0.48554626036E+03 -0.11520558986E+04  0.12539163466E+04  0.30000000000E+02 0.  1.
     200000    1    3    3    0    0  0.73410803386E+02 -0.38491124003E+02 -0.10107344601E+04  0.10191446715E+04  0.10100000000E+03 0. -1.
    -200001    1    1    2    0    0 -0.16086091231E+03 -0.65553664595E+03 -0.66642057790E+03  0.11293758958E+04  0.61300000000E+03 0. -1.
<mgrwt>
<rscale>  0 0.21154534E+04</rscale>
<asrwt>0</asrwt>
<pdfrwt beam="1">  1        2 0.52002218E+00 0.21154534E+04</pdfrwt>
<pdfrwt beam="2">  1       -2 0.43906516E-01 0.21154534E+04</pdfrwt>
<totfact> 0.44834553E+00</totfact>
</mgrwt>
</event>
<event>
 8    1  0.6972317E-052  0.1233724E+04  0.7818608E-02  0.9083839E-01
         -2   -1    0    0    0  501 -0.00000000000E+00  0.00000000000E+00  0.97654799429E+03  0.97654799429E+03  0.25500000000E-02 0. -1.
          2   -1    0    0  501    0  0.00000000000E+00 -0.00000000000E+00 -0.38965700488E+03  0.38965700489E+03  0.25500000000E-02 0.  1.
     200001    2    1    2    0    0  0.28068226466E+01  0.64758857742E+02  0.26041822734E+03  0.66867001635E+03  0.61245436542E+03 0.  0.
    5000001    2    3    3    0    0  0.24239562085E+03 -0.11047823523E+03  0.18292285836E+03  0.34568803048E+03  0.12279399351E+03 0.  0.
        -11    1    4    4    0    0 -0.13093093970E+02 -0.12228941573E+02  0.98080188981E+01  0.20424822072E+02  0.51100000000E-03 0. -1.
     200002    1    4    4    0    0  0.25548871482E+03 -0.98249293661E+02  0.17311483946E+03  0.32526320841E+03  0.30000000000E+02 0. -1.
     200000    1    3    3    0    0 -0.23958879820E+03  0.17523709298E+03  0.77495368984E+02  0.32298198587E+03  0.10100000000E+03 0. -1.
    -200001    1    1    2    0    0 -0.28068226466E+01 -0.64758857742E+02  0.32647276207E+03  0.69753498284E+03  0.61300000000E+03 0. -1.
<mgrwt>
<rscale>  0 0.12337241E+04</rscale>
<asrwt>0</asrwt>
<pdfrwt beam="1">  1        2 0.55665287E-01 0.12337241E+04</pdfrwt>
<pdfrwt beam="2">  1       -2 0.13950685E+00 0.12337241E+04</pdfrwt>
<totfact> 0.31795834E+01</totfact>
</mgrwt>
</event>
<event>
 8    1  0.6972317E-052  0.1325008E+04  0.7818608E-02  0.9009965E-01
         -2   -1    0    0    0  501 -0.00000000000E+00  0.00000000000E+00  0.31659514766E+03  0.31659514767E+03  0.25500000000E-02 0. -1.
          2   -1    0    0  501    0  0.00000000000E+00 -0.00000000000E+00 -0.13863494450E+04  0.13863494450E+04  0.25500000000E-02 0.  1.
     200001    2    1    2    0    0  0.11131355715E+03  0.15723977822E+03 -0.32829467062E+03  0.72179912237E+03  0.61327116876E+03 0.  0.
    5000001    2    3    3    0    0 -0.16741257985E+03 -0.13125690216E+03 -0.92002970336E+02  0.24540289898E+03  0.80639258569E+02 0.  0.
        -11    1    4    4    0    0 -0.10965770755E+03 -0.50262770613E+02 -0.29619415575E+02  0.12421138722E+03  0.51100000000E-03 0. -1.
     200002    1    4    4    0    0 -0.57754872292E+02 -0.80994131547E+02 -0.62383554762E+02  0.12119151176E+03  0.30000000000E+02 0. -1.
     200000    1    3    3    0    0  0.27872613699E+03  0.28849668038E+03 -0.23629170029E+03  0.47639622339E+03  0.10100000000E+03 0.  1.
    -200001    1    1    2    0    0 -0.11131355715E+03 -0.15723977822E+03 -0.74145962673E+03  0.98114547032E+03  0.61300000000E+03 0. -1.
<mgrwt>
<rscale>  0 0.13250079E+04</rscale>
<asrwt>0</asrwt>
<pdfrwt beam="1">  1        2 0.19804992E+00 0.13250079E+04</pdfrwt>
<pdfrwt beam="2">  1       -2 0.45227879E-01 0.13250079E+04</pdfrwt>
<totfact> 0.76365169E+01</totfact>
</mgrwt>
</event>
<event>
 8    1  0.6972317E-052  0.1569745E+04  0.7818608E-02  0.8839353E-01
          2   -1    0    0  501    0  0.00000000000E+00  0.00000000000E+00  0.17866243438E+04  0.17866243438E+04  0.25500000000E-02 0.  1.
         -2   -1    0    0    0  501 -0.00000000000E+00 -0.00000000000E+00 -0.34479829476E+03  0.34479829477E+03  0.25500000000E-02 0. -1.
     200001    2    1    2    0    0  0.40200017396E+03  0.28158491708E+03  0.70642950025E+03  0.10555642421E+04  0.61178347877E+03 0.  0.
    5000001    2    3    3    0    0  0.18771855138E+03  0.44111238468E+03  0.46719569056E+03  0.68300627020E+03  0.13567373144E+03 0.  0.
        -11    1    4    4    0    0  0.14668177552E+03  0.18045957113E+03  0.21110979172E+03  0.31408365803E+03  0.51100000000E-03 0. -1.
     200002    1    4    4    0    0  0.41036775863E+02  0.26065281355E+03  0.25608589884E+03  0.36892261217E+03  0.30000000000E+02 0. -1.
     200000    1    3    3    0    0  0.21428162257E+03 -0.15952746760E+03  0.23923380969E+03  0.37255797185E+03  0.10100000000E+03 0. -1.
    -200001    1    1    2    0    0 -0.40200017396E+03 -0.28158491708E+03  0.73539654881E+03  0.10758583965E+04  0.61300000000E+03 0.  1.
<mgrwt>
<rscale>  0 0.15697452E+04</rscale>
<asrwt>0</asrwt>
<pdfrwt beam="1">  1        2 0.25523204E+00 0.15697452E+04</pdfrwt>
<pdfrwt beam="2">  1       -2 0.49256901E-01 0.15697452E+04</pdfrwt>
<totfact> 0.38841508E+01</totfact>
</mgrwt>
</event>
<event>
 8    1  0.6972317E-052  0.1370745E+04  0.7818608E-02  0.8975271E-01
         -2   -1    0    0    0  501 -0.00000000000E+00  0.00000000000E+00  0.16983648859E+03  0.16983648861E+03  0.25500000000E-02 0. -1.
          2   -1    0    0  501    0  0.00000000000E+00 -0.00000000000E+00 -0.27658094388E+04  0.27658094388E+04  0.25500000000E-02 0.  1.
     200001    2    1    2    0    0 -0.26153304817E+03  0.14188616873E+03 -0.11354780780E+04  0.13240177160E+04  0.61252038859E+03 0.  0.
    5000001    2    3    3    0    0 -0.22019267480E+03  0.15975580296E+03 -0.11734566843E+04  0.12070915648E+04  0.77863504078E+02 0.  0.
        -11    1    4    4    0    0 -0.17749670371E+03  0.11114657455E+03 -0.80489952524E+03  0.83169819441E+03  0.51100000000E-03 0. -1.
     200002    1    4    4    0    0 -0.42695971086E+02  0.48609228406E+02 -0.36855715904E+03  0.37539337036E+03  0.30000000000E+02 0.  1.
     200000    1    3    3    0    0 -0.41340373371E+02 -0.17869634227E+02  0.37978606282E+02  0.11692615119E+03  0.10100000000E+03 0. -1.
    -200001    1    1    2    0    0  0.26153304817E+03 -0.14188616873E+03 -0.14604948722E+04  0.16116282115E+04  0.61300000000E+03 0. -1.
<mgrwt>
<rscale>  0 0.13707449E+04</rscale>
<asrwt>0</asrwt>
<pdfrwt beam="1">  1        2 0.39511561E+00 0.13707449E+04</pdfrwt>
<pdfrwt beam="2">  1       -2 0.24262357E-01 0.13707449E+04</pdfrwt>
<totfact> 0.47182340E+01</totfact>
</mgrwt>
</event>
<event>
 8    1  0.6972317E-052  0.1389853E+04  0.7818608E-02  0.8961196E-01
          2   -1    0    0  501    0  0.00000000000E+00  0.00000000000E+00  0.86656273718E+03  0.86656273719E+03  0.25500000000E-02 0.  1.
         -2   -1    0    0    0  501 -0.00000000000E+00 -0.00000000000E+00 -0.55728553765E+03  0.55728553765E+03  0.25500000000E-02 0. -1.
     200001    2    1    2    0    0  0.19842385281E+03  0.23838100974E+03  0.26165004684E+03  0.73520113962E+03  0.61307620858E+03 0.  0.
    5000001    2    3    3    0    0  0.22877647948E+03  0.26356867074E+03 -0.79789156744E+02  0.37695900090E+03  0.11800278415E+03 0.  0.
        -11    1    4    4    0    0  0.18739448391E+03  0.20295330973E+03 -0.10224486224E+03  0.29455177878E+03  0.51100000000E-03 0. -1.
     200002    1    4    4    0    0  0.41381995569E+02  0.60615361017E+02  0.22455705494E+02  0.82407222122E+02  0.30000000000E+02 0. -1.
     200000    1    3    3    0    0 -0.30352626673E+02 -0.25187661001E+02  0.34143920358E+03  0.35824213872E+03  0.10100000000E+03 0.  1.
    -200001    1    1    2    0    0 -0.19842385281E+03 -0.23838100974E+03  0.47627152697E+02  0.68864713522E+03  0.61300000000E+03 0. -1.
<mgrwt>
<rscale>  0 0.13898531E+04</rscale>
<asrwt>0</asrwt>
<pdfrwt beam="1">  1        2 0.12379467E+00 0.13898531E+04</pdfrwt>
<pdfrwt beam="2">  1       -2 0.79612221E-01 0.13898531E+04</pdfrwt>
<totfact> 0.46660865E+01</totfact>
</mgrwt>
</event>
<event>
 8    1  0.6972317E-052  0.2188647E+04  0.7818608E-02  0.8523168E-01
          2   -1    0    0  501    0  0.00000000000E+00  0.00000000000E+00  0.75577365571E+03  0.75577365571E+03  0.25500000000E-02 0.  1.
         -2   -1    0    0    0  501 -0.00000000000E+00 -0.00000000000E+00 -0.15845276324E+04  0.15845276324E+04  0.25500000000E-02 0. -1.
     200001    2    1    2    0    0  0.31236487117E+03  0.85061199905E+03 -0.36972442391E+03  0.11538824261E+04  0.61125765275E+03 0.  0.
    5000001    2    3    3    0    0 -0.99808031169E+02  0.37395239460E+03 -0.33509176832E+03  0.51474918435E+03  0.53648793806E+02 0.  0.
        -11    1    4    4    0    0 -0.56411548760E+02  0.23822269960E+03 -0.21996164604E+03  0.32911311607E+03  0.51100000000E-03 0. -1.
     200002    1    4    4    0    0 -0.43396482409E+02  0.13572969500E+03 -0.11513012228E+03  0.18563606828E+03  0.30000000000E+02 0.  1.
     200000    1    3    3    0    0  0.41217290233E+03  0.47665960445E+03 -0.34632655592E+02  0.63913324180E+03  0.10100000000E+03 0. -1.
    -200001    1    1    2    0    0 -0.31236487117E+03 -0.85061199905E+03 -0.45902955276E+03  0.11864188619E+04  0.61300000000E+03 0.  1.
<mgrwt>
<rscale>  0 0.21886473E+04</rscale>
<asrwt>0</asrwt>
<pdfrwt beam="1">  1        2 0.10796767E+00 0.21886473E+04</pdfrwt>
<pdfrwt beam="2">  1       -2 0.22636109E+00 0.21886473E+04</pdfrwt>
<totfact> 0.33832412E+00</totfact>
</mgrwt>
</event>
<event>
 8    1  0.6972317E-052  0.1339531E+04  0.7818608E-02  0.8998791E-01
         -2   -1    0    0    0  501 -0.00000000000E+00  0.00000000000E+00  0.53502767097E+03  0.53502767098E+03  0.25500000000E-02 0. -1.
          2   -1    0    0  501    0  0.00000000000E+00 -0.00000000000E+00 -0.83843455957E+03  0.83843455958E+03  0.25500000000E-02 0.  1.
     200001    2    1    2    0    0  0.19773957786E+03 -0.72081868526E+02  0.22473009475E+02  0.64802205770E+03  0.61247923613E+03 0.  0.
    5000001    2    3    3    0    0  0.98354902284E+02 -0.28548410679E+03  0.16274565300E+03  0.35596856336E+03  0.95145196927E+02 0.  0.
        -11    1    4    4    0    0  0.77763365740E+02 -0.12593302761E+03  0.46159849839E+02  0.15503870560E+03  0.51100000000E-03 0. -1.
     200002    1    4    4    0    0  0.20591536544E+02 -0.15955107917E+03  0.11658580316E+03  0.20092985776E+03  0.30000000000E+02 0.  1.
     200000    1    3    3    0    0  0.99384675580E+02  0.21340223826E+03 -0.14027264352E+03  0.29205349434E+03  0.10100000000E+03 0.  1.
    -200001    1    1    2    0    0 -0.19773957786E+03  0.72081868526E+02 -0.32587989808E+03  0.72544017286E+03  0.61300000000E+03 0. -1.
<mgrwt>
<rscale>  0 0.13395308E+04</rscale>
<asrwt>0</asrwt>
<pdfrwt beam="1">  1        2 0.11977637E+00 0.13395308E+04</pdfrwt>
<pdfrwt beam="2">  1       -2 0.76432524E-01 0.13395308E+04</pdfrwt>
<totfact> 0.53588784E+01</totfact>
</mgrwt>
</event>
<event>
 8    1  0.6972317E-052  0.2427107E+04  0.7818608E-02  0.8429424E-01
          2   -1    0    0  501    0  0.00000000000E+00  0.00000000000E+00  0.20641946373E+04  0.20641946373E+04  0.25500000000E-02 0.  1.
         -2   -1    0    0    0  501 -0.00000000000E+00 -0.00000000000E+00 -0.71345619622E+03  0.71345619622E+03  0.25500000000E-02 0. -1.
     200001    2    1    2    0    0 -0.42142147620E+03  0.86421732092E+03  0.20005213141E+03  0.11576768764E+04  0.61296595057E+03 0.  0.
    5000001    2    3    3    0    0 -0.20879721738E+03  0.87423522875E+03  0.19055956964E+03  0.92187920332E+03  0.75264883972E+02 0.  0.
        -11    1    4    4    0    0 -0.13429368507E+03  0.44027703574E+03  0.84664006365E+02  0.46802420453E+03  0.51100000000E-03 0. -1.
     200002    1    4    4    0    0 -0.74503532306E+02  0.43395819301E+03  0.10589556328E+03  0.45385499879E+03  0.30000000000E+02 0. -1.
     200000    1    3    3    0    0 -0.21262425882E+03 -0.10017907825E+02  0.94925617735E+01  0.23579767312E+03  0.10100000000E+03 0.  1.
    -200001    1    1    2    0    0  0.42142147620E+03 -0.86421732092E+03  0.11506863096E+04  0.16199739571E+04  0.61300000000E+03 0.  1.
<mgrwt>
<rscale>  0 0.24271073E+04</rscale>
<asrwt>0</asrwt>
<pdfrwt beam="1">  1        2 0.29488495E+00 0.24271073E+04</pdfrwt>
<pdfrwt beam="2">  1       -2 0.10192231E+00 0.24271073E+04</pdfrwt>
<totfact> 0.52949390E+00</totfact>
</mgrwt>
</event>
<event>
 8    1  0.6972317E-052  0.1448934E+04  0.7818608E-02  0.8919140E-01
         -2   -1    0    0    0  501 -0.00000000000E+00  0.00000000000E+00  0.69432537518E+03  0.69432537518E+03  0.25500000000E-02 0. -1.
          2   -1    0    0  501    0  0.00000000000E+00 -0.00000000000E+00 -0.75591741121E+03  0.75591741121E+03  0.25500000000E-02 0.  1.
     200001    2    1    2    0    0 -0.23672156829E+03  0.27117291516E+03  0.10966128037E+03  0.71903245469E+03  0.61270729037E+03 0.  0.
    5000001    2    3    3    0    0 -0.20855330920E+03  0.11622492184E+03 -0.22116192207E+03  0.33897019304E+03  0.94791775804E+02 0.  0.
        -11    1    4    4    0    0 -0.10326893547E+03  0.75723226679E+02 -0.16657855355E+03  0.21011162413E+03  0.51100000000E-03 0. -1.
     200002    1    4    4    0    0 -0.10528437373E+03  0.40501695160E+02 -0.54583368525E+02  0.12885856891E+03  0.30000000000E+02 0.  1.
     200000    1    3    3    0    0 -0.28168259086E+02  0.15494799333E+03  0.33082320244E+03  0.38006226165E+03  0.10100000000E+03 0. -1.
    -200001    1    1    2    0    0  0.23672156829E+03 -0.27117291516E+03 -0.17125331640E+03  0.73121033170E+03  0.61300000000E+03 0.  1.
<mgrwt>
<rscale>  0 0.14489343E+04</rscale>
<asrwt>0</asrwt>
<pdfrwt beam="1">  1        2 0.10798820E+00 0.14489343E+04</pdfrwt>
<pdfrwt beam="2">  1       -2 0.99189339E-01 0.14489343E+04</pdfrwt>
<totfact> 0.33449562E+01</totfact>
</mgrwt>
</event>
<event>
 8    1  0.6972317E-052  0.1364907E+04  0.7818608E-02  0.8979620E-01
         -2   -1    0    0    0  501 -0.00000000000E+00  0.00000000000E+00  0.21539973950E+03  0.21539973952E+03  0.25500000000E-02 0. -1.
          2   -1    0    0  501    0  0.00000000000E+00 -0.00000000000E+00 -0.21622249857E+04  0.21622249857E+04  0.25500000000E-02 0.  1.
     200001    2    1    2    0    0  0.17223912110E+03 -0.24414760217E+03 -0.92874999991E+03  0.11522592395E+04  0.61306641255E+03 0.  0.
    5000001    2    3    3    0    0 -0.20518200656E+03 -0.39885314226E+02 -0.25166661238E+03  0.34429098298E+03  0.10728328420E+03 0.  0.
        -11    1    4    4    0    0 -0.86648689852E+01 -0.12218875938E+02  0.72896505935E+01  0.16658928229E+02  0.51100000000E-03 0. -1.
     200002    1    4    4    0    0 -0.19651713757E+03 -0.27666438289E+02 -0.25895626297E+03  0.32763205475E+03  0.30000000000E+02 0. -1.
     200000    1    3    3    0    0  0.37742112766E+03 -0.20426228794E+03 -0.67708338753E+03  0.80796825652E+03  0.10100000000E+03 0. -1.
    -200001    1    1    2    0    0 -0.17223912110E+03  0.24414760217E+03 -0.10180752463E+04  0.12253654857E+04  0.61300000000E+03 0. -1.
<mgrwt>
<rscale>  0 0.13649069E+04</rscale>
<asrwt>0</asrwt>
<pdfrwt beam="1">  1        2 0.30888927E+00 0.13649069E+04</pdfrwt>
<pdfrwt beam="2">  1       -2 0.30771393E-01 0.13649069E+04</pdfrwt>
<totfact> 0.63215595E+01</totfact>
</mgrwt>
</event>
<event>
 8    1  0.6972317E-052  0.1331888E+04  0.7818608E-02  0.9004653E-01
         -2   -1    0    0    0  501 -0.00000000000E+00  0.00000000000E+00  0.10266890605E+04  0.10266890605E+04  0.25500000000E-02 0. -1.
          2   -1    0    0  501    0  0.00000000000E+00 -0.00000000000E+00 -0.43195319018E+03  0.43195319019E+03  0.25500000000E-02 0.  1.
     200001    2    1    2    0    0  0.31215119117E+02  0.25812241936E+03  0.30492291988E+03  0.73244522969E+03  0.61310395561E+03 0.  0.
    5000001    2    3    3    0    0  0.14552760692E+03  0.34665504286E+03  0.38080473596E+03  0.54044413515E+03  0.75628124161E+02 0.  0.
        -11    1    4    4    0    0 -0.75595694494E+01  0.21909960735E+02  0.25047065235E+02  0.34125488228E+02  0.51100000000E-03 0. -1.
     200002    1    4    4    0    0  0.15308717637E+03  0.32474508213E+03  0.35575767073E+03  0.50631864692E+03  0.30000000000E+02 0. -1.
     200000    1    3    3    0    0 -0.11431248781E+03 -0.88532623504E+02 -0.75881816086E+02  0.19200109454E+03  0.10100000000E+03 0. -1.
    -200001    1    1    2    0    0 -0.31215119117E+02 -0.25812241936E+03  0.28981295042E+03  0.72619702097E+03  0.61300000000E+03 0.  1.
<mgrwt>
<rscale>  0 0.13318883E+04</rscale>
<asrwt>0</asrwt>
<pdfrwt beam="1">  1        2 0.61707599E-01 0.13318883E+04</pdfrwt>
<pdfrwt beam="2">  1       -2 0.14666986E+00 0.13318883E+04</pdfrwt>
<totfact> 0.24678486E+01</totfact>
</mgrwt>
</event>
<event>
 8    1  0.6972317E-052  0.1910354E+04  0.7818608E-02  0.8649720E-01
          2   -1    0    0  501    0  0.00000000000E+00  0.00000000000E+00  0.65556478481E+03  0.65556478482E+03  0.25500000000E-02 0.  1.
         -2   -1    0    0    0  501 -0.00000000000E+00 -0.00000000000E+00 -0.13917201320E+04  0.13917201320E+04  0.25500000000E-02 0. -1.
     200001    2    1    2    0    0 -0.64125730003E+03  0.29577417461E+02  0.10350110373E+02  0.88748961305E+03  0.61273562000E+03 0.  0.
    5000001    2    3    3    0    0 -0.71244157654E+03  0.42482327897E+02 -0.91089540542E+02  0.72710027203E+03  0.10487970741E+03 0.  0.
        -11    1    4    4    0    0 -0.36766129600E+03  0.13272508508E+01 -0.90247351160E+02  0.37857783158E+03  0.51100000000E-03 0. -1.
     200002    1    4    4    0    0 -0.34478028054E+03  0.41155077046E+02 -0.84218938136E+00  0.34852244045E+03  0.30000000000E+02 0. -1.
     200000    1    3    3    0    0  0.71184276506E+02 -0.12904910435E+02  0.10143965091E+03  0.16038934102E+03  0.10100000000E+03 0. -1.
    -200001    1    1    2    0    0  0.64125730003E+03 -0.29577417461E+02 -0.74650545755E+03  0.11597953038E+04  0.61300000000E+03 0. -1.
<mgrwt>
<rscale>  0 0.19103536E+04</rscale>
<asrwt>0</asrwt>
<pdfrwt beam="1">  1        2 0.93652113E-01 0.19103536E+04</pdfrwt>
<pdfrwt beam="2">  1       -2 0.19881716E+00 0.19103536E+04</pdfrwt>
<totfact> 0.61970802E+00</totfact>
</mgrwt>
</event>
<event>
 8    1  0.6972317E-052  0.2125601E+04  0.7818608E-02  0.8550049E-01
         -2   -1    0    0    0  501 -0.00000000000E+00  0.00000000000E+00  0.73635327631E+03  0.73635327632E+03  0.25500000000E-02 0. -1.
          2   -1    0    0  501    0  0.00000000000E+00 -0.00000000000E+00 -0.15339711941E+04  0.15339711941E+04  0.25500000000E-02 0.  1.
     200001    2    1    2    0    0  0.84603127190E+02  0.79803729899E+03 -0.44837873115E+02  0.10107737508E+04  0.61288817957E+03 0.  0.
    5000001    2    3    3    0    0  0.32644484577E+02 -0.68683810393E+02 -0.76683542238E+02  0.13606218194E+03  0.82761244074E+02 0.  0.
        -11    1    4    4    0    0  0.50545950217E+02 -0.51089711988E+02 -0.59653995485E+02  0.93400486787E+02  0.51100000000E-03 0. -1.
     200002    1    4    4    0    0 -0.17901465640E+02 -0.17594098405E+02 -0.17029546753E+02  0.42661695153E+02  0.30000000000E+02 0. -1.
     200000    1    3    3    0    0  0.51958642613E+02  0.86672110939E+03  0.31845669124E+02  0.87471156883E+03  0.10100000000E+03 0. -1.
    -200001    1    1    2    0    0 -0.84603127190E+02 -0.79803729899E+03 -0.75278004466E+03  0.12595507196E+04  0.61300000000E+03 0.  1.
<mgrwt>
<rscale>  0 0.21256008E+04</rscale>
<asrwt>0</asrwt>
<pdfrwt beam="1">  1        2 0.21913874E+00 0.21256008E+04</pdfrwt>
<pdfrwt beam="2">  1       -2 0.10519333E+00 0.21256008E+04</pdfrwt>
<totfact> 0.94819435E+00</totfact>
</mgrwt>
</event>
<event>
 8    1  0.6972317E-052  0.1435221E+04  0.7818608E-02  0.8928711E-01
          2   -1    0    0  501    0  0.00000000000E+00  0.00000000000E+00  0.30714188352E+04  0.30714188352E+04  0.25500000000E-02 0.  1.
         -2   -1    0    0    0  501 -0.00000000000E+00 -0.00000000000E+00 -0.16766346174E+03  0.16766346176E+03  0.25500000000E-02 0. -1.
     200001    2    1    2    0    0 -0.19613343528E+03 -0.13186022289E+03  0.79957280821E+03  0.10347210038E+04  0.61276050566E+03 0.  0.
    5000001    2    3    3    0    0 -0.28702575906E+02 -0.90333068875E+02 -0.56373525493E+02  0.15574277691E+03  0.10997243740E+03 0.  0.
        -11    1    4    4    0    0 -0.17173535486E+02 -0.10327058648E+03 -0.60401789117E+02  0.12086405786E+03  0.51100000000E-03 0. -1.
     200002    1    4    4    0    0 -0.11529040419E+02  0.12937517609E+02  0.40282636239E+01  0.34878719052E+02  0.30000000000E+02 0. -1.
     200000    1    3    3    0    0 -0.16743085938E+03 -0.41527154010E+02  0.85594633370E+03  0.87897822690E+03  0.10100000000E+03 0.  1.
    -200001    1    1    2    0    0  0.19613343528E+03  0.13186022289E+03  0.21041825652E+04  0.22043612931E+04  0.61300000000E+03 0.  1.
<mgrwt>
<rscale>  0 0.14352208E+04</rscale>
<asrwt>0</asrwt>
<pdfrwt beam="1">  1        2 0.43877410E+00 0.14352208E+04</pdfrwt>
<pdfrwt beam="2">  1       -2 0.23951924E-01 0.14352208E+04</pdfrwt>
<totfact> 0.32608142E+01</totfact>
</mgrwt>
</event>
<event>
 8    1  0.6972317E-052  0.2192694E+04  0.7818608E-02  0.8521475E-01
          2   -1    0    0  501    0  0.00000000000E+00  0.00000000000E+00  0.53237600754E+03  0.53237600755E+03  0.25500000000E-02 0.  1.
         -2   -1    0    0    0  501 -0.00000000000E+00 -0.00000000000E+00 -0.22577582333E+04  0.22577582333E+04  0.25500000000E-02 0. -1.
     200001    2    1    2    0    0 -0.74038489998E+02 -0.53159600227E+03 -0.17962776711E+04  0.19722887959E+04  0.61256315187E+03 0.  0.
    5000001    2    3    3    0    0 -0.22450605225E+03 -0.26742260899E+03 -0.49653800386E+03  0.63365058053E+03  0.18178352407E+03 0.  0.
        -11    1    4    4    0    0 -0.20693706666E+03 -0.14574454964E+03 -0.24596394724E+03  0.35293439425E+03  0.51100000000E-03 0. -1.
     200002    1    4    4    0    0 -0.17568985597E+02 -0.12167805935E+03 -0.25057405662E+03  0.28071618627E+03  0.30000000000E+02 0. -1.
     200000    1    3    3    0    0  0.15046756226E+03 -0.26417339328E+03 -0.12997396673E+04  0.13386382154E+04  0.10100000000E+03 0. -1.
    -200001    1    1    2    0    0  0.74038489998E+02  0.53159600227E+03  0.70895445378E+02  0.81784544494E+03  0.61300000000E+03 0.  1.
<mgrwt>
<rscale>  0 0.21926936E+04</rscale>
<asrwt>0</asrwt>
<pdfrwt beam="1">  1        2 0.76053717E-01 0.21926936E+04</pdfrwt>
<pdfrwt beam="2">  1       -2 0.32253688E+00 0.21926936E+04</pdfrwt>
<totfact> 0.13253193E+00</totfact>
</mgrwt>
</event>
<event>
 8    1  0.6972317E-052  0.1581262E+04  0.7818608E-02  0.8832143E-01
          2   -1    0    0  501    0  0.00000000000E+00  0.00000000000E+00  0.15987064929E+04  0.15987064929E+04  0.25500000000E-02 0.  1.
         -2   -1    0    0    0  501 -0.00000000000E+00 -0.00000000000E+00 -0.39100190259E+03  0.39100190260E+03  0.25500000000E-02 0. -1.
     200001    2    1    2    0    0  0.43279807307E+03 -0.21637540071E+03  0.75704796815E+03  0.10880472190E+04  0.61367144192E+03 0.  0.
    5000001    2    3    3    0    0  0.43397526798E+02 -0.23844195755E+03  0.60172083344E+03  0.65625185411E+03  0.99300665564E+02 0.  0.
        -11    1    4    4    0    0 -0.72071097559E+00 -0.18184907927E+03  0.37966843066E+03  0.42097235574E+03  0.51100000000E-03 0. -1.
     200002    1    4    4    0    0  0.44118237773E+02 -0.56592878279E+02  0.22205240278E+03  0.23527949838E+03  0.30000000000E+02 0. -1.
     200000    1    3    3    0    0  0.38940054627E+03  0.22066556833E+02  0.15532713471E+03  0.43179536489E+03  0.10100000000E+03 0. -1.
    -200001    1    1    2    0    0 -0.43279807307E+03  0.21637540071E+03  0.45065662215E+03  0.90166117648E+03  0.61300000000E+03 0.  1.
<mgrwt>
<rscale>  0 0.15812619E+04</rscale>
<asrwt>0</asrwt>
<pdfrwt beam="1">  1        2 0.22838664E+00 0.15812619E+04</pdfrwt>
<pdfrwt beam="2">  1       -2 0.55857415E-01 0.15812619E+04</pdfrwt>
<totfact> 0.37532543E+01</totfact>
</mgrwt>
</event>
<event>
 8    1  0.6972317E-052  0.1602094E+04  0.7818608E-02  0.8819263E-01
         -2   -1    0    0    0  501 -0.00000000000E+00  0.00000000000E+00  0.18641615909E+03  0.18641615911E+03  0.25500000000E-02 0. -1.
          2   -1    0    0  501    0  0.00000000000E+00 -0.00000000000E+00 -0.34421701781E+04  0.34421701781E+04  0.25500000000E-02 0.  1.
     200001    2    1    2    0    0 -0.24349504773E+03  0.44588949106E+03 -0.14027514318E+04  0.16117832073E+04  0.60993954740E+03 0.  0.
    5000001    2    3    3    0    0 -0.54180799619E+02 -0.81393714289E+02 -0.85529443547E+02  0.17681204750E+03  0.11994464830E+03 0.  0.
        -11    1    4    4    0    0 -0.72950215838E+02 -0.62238175806E+02 -0.17066393090E+02  0.97399108270E+02  0.51100000000E-03 0. -1.
     200002    1    4    4    0    0  0.18769416218E+02 -0.19155538483E+02 -0.68463050457E+02  0.79412939233E+02  0.30000000000E+02 0. -1.
     200000    1    3    3    0    0 -0.18931424811E+03  0.52728320535E+03 -0.13172219883E+04  0.14349711598E+04  0.10100000000E+03 0.  1.
    -200001    1    1    2    0    0  0.24349504773E+03 -0.44588949106E+03 -0.18530025872E+04  0.20168031299E+04  0.61300000000E+03 0. -1.
<mgrwt>
<rscale>  0 0.16020938E+04</rscale>
<asrwt>0</asrwt>
<pdfrwt beam="1">  1        2 0.49173856E+00 0.16020938E+04</pdfrwt>
<pdfrwt beam="2">  1       -2 0.26630882E-01 0.16020938E+04</pdfrwt>
<totfact> 0.16134675E+01</totfact>
</mgrwt>
</event>
<event>
 8    1  0.6972317E-052  0.1378882E+04  0.7818608E-02  0.8969248E-01
         -2   -1    0    0    0  501 -0.00000000000E+00  0.00000000000E+00  0.73048248636E+03  0.73048248637E+03  0.25500000000E-02 0. -1.
          2   -1    0    0  501    0  0.00000000000E+00 -0.00000000000E+00 -0.65070534728E+03  0.65070534729E+03  0.25500000000E-02 0.  1.
     200001    2    1    2    0    0 -0.23836638598E+03 -0.19190853500E+03 -0.37357751942E+02  0.68610726101E+03  0.61294384099E+03 0.  0.
    5000001    2    3    3    0    0 -0.32396755654E+02 -0.37544985709E+03  0.13193469831E+02  0.38800101895E+03  0.91425259638E+02 0.  0.
        -11    1    4    4    0    0 -0.25865378118E+02 -0.14327557839E+03 -0.33020758480E+02  0.14928924824E+03  0.51100000000E-03 0. -1.
     200002    1    4    4    0    0 -0.65313775370E+01 -0.23217427870E+03  0.46214228311E+02  0.23871177072E+03  0.30000000000E+02 0. -1.
     200000    1    3    3    0    0 -0.20596963033E+03  0.18354132208E+03 -0.50551221773E+02  0.29810624205E+03  0.10100000000E+03 0.  1.
    -200001    1    1    2    0    0  0.23836638598E+03  0.19190853500E+03  0.11713489102E+03  0.69508057265E+03  0.61300000000E+03 0.  1.
<mgrwt>
<rscale>  0 0.13788820E+04</rscale>
<asrwt>0</asrwt>
<pdfrwt beam="1">  1        2 0.92957907E-01 0.13788820E+04</pdfrwt>
<pdfrwt beam="2">  1       -2 0.10435464E+00 0.13788820E+04</pdfrwt>
<totfact> 0.35858962E+01</totfact>
</mgrwt>
</event>
<event>
 8    1  0.6972317E-052  0.2044402E+04  0.7818608E-02  0.8586138E-01
          2   -1    0    0  501    0  0.00000000000E+00  0.00000000000E+00  0.16500411123E+04  0.16500411123E+04  0.25500000000E-02 0.  1.
         -2   -1    0    0    0  501 -0.00000000000E+00 -0.00000000000E+00 -0.63325392572E+03  0.63325392573E+03  0.25500000000E-02 0. -1.
     200001    2    1    2    0    0 -0.19495476853E+03  0.75829081062E+03  0.77049233693E+03  0.12588720452E+04  0.61488866450E+03 0.  0.
    5000001    2    3    3    0    0 -0.17187398724E+03  0.80476636249E+00  0.11946885093E+03  0.25470552067E+03  0.14512332955E+03 0.  0.
        -11    1    4    4    0    0 -0.10618838079E+03 -0.67001907998E+02  0.59891591746E+02  0.13911229512E+03  0.51100000000E-03 0. -1.
     200002    1    4    4    0    0 -0.65685606444E+02  0.67806674361E+02  0.59577259185E+02  0.11559322555E+03  0.30000000000E+02 0. -1.
     200000    1    3    3    0    0 -0.23080781293E+02  0.75748604426E+03  0.65102348600E+03  0.10041665246E+04  0.10100000000E+03 0.  1.
    -200001    1    1    2    0    0  0.19495476853E+03 -0.75829081062E+03  0.24629484966E+03  0.10244229928E+04  0.61300000000E+03 0. -1.
<mgrwt>
<rscale>  0 0.20444021E+04</rscale>
<asrwt>0</asrwt>
<pdfrwt beam="1">  1        2 0.23572016E+00 0.20444021E+04</pdfrwt>
<pdfrwt beam="2">  1       -2 0.90464846E-01 0.20444021E+04</pdfrwt>
<totfact> 0.11825536E+01</totfact>
</mgrwt>
</event>
<event>
 8    1  0.6972317E-052  0.1373198E+04  0.7818608E-02  0.8973451E-01
         -2   -1    0    0    0  501 -0.00000000000E+00  0.00000000000E+00  0.29038482984E+03  0.29038482985E+03  0.25500000000E-02 0. -1.
          2   -1    0    0  501    0  0.00000000000E+00 -0.00000000000E+00 -0.16234259884E+04  0.16234259884E+04  0.25500000000E-02 0.  1.
     200001    2    1    2    0    0  0.12560775065E+03  0.85581626532E+02 -0.10405636326E+04  0.12178125244E+04  0.61416052411E+03 0.  0.
    5000001    2    3    3    0    0 -0.21228917656E+03 -0.67408670641E+02 -0.27453777801E+03  0.36073786355E+03  0.71764833177E+02 0.  0.
        -11    1    4    4    0    0 -0.14111967704E+03 -0.22041440445E+02 -0.14774777346E+03  0.20549937447E+03  0.51100000000E-03 0. -1.
     200002    1    4    4    0    0 -0.71169499520E+02 -0.45367230197E+02 -0.12679000456E+03  0.15523848908E+03  0.30000000000E+02 0. -1.
     200000    1    3    3    0    0  0.33789692721E+03  0.15299029717E+03 -0.76602585455E+03  0.85707466086E+03  0.10100000000E+03 0.  1.
    -200001    1    1    2    0    0 -0.12560775065E+03 -0.85581626532E+02 -0.29247752601E+03  0.69599829385E+03  0.61300000000E+03 0. -1.
<mgrwt>
<rscale>  0 0.13731981E+04</rscale>
<asrwt>0</asrwt>
<pdfrwt beam="1">  1        2 0.23191799E+00 0.13731981E+04</pdfrwt>
<pdfrwt beam="2">  1       -2 0.41483548E-01 0.13731981E+04</pdfrwt>
<totfact> 0.67560036E+01</totfact>
</mgrwt>
</event>
<event>
 8    1  0.6972317E-052  0.2939623E+04  0.7818608E-02  0.8261185E-01
          2   -1    0    0  501    0  0.00000000000E+00  0.00000000000E+00  0.14398739895E+04  0.14398739895E+04  0.25500000000E-02 0.  1.
         -2   -1    0    0    0  501 -0.00000000000E+00 -0.00000000000E+00 -0.15003710784E+04  0.15003710784E+04  0.25500000000E-02 0. -1.
     200001    2    1    2    0    0 -0.13335963958E+04  0.72725860494E+02 -0.59009177503E+02  0.14707078578E+04  0.61296910381E+03 0.  0.
    5000001    2    3    3    0    0 -0.11022672611E+04  0.26031619499E+03 -0.13995487783E+03  0.11459671788E+04  0.10438280936E+03 0.  0.
        -11    1    4    4    0    0 -0.19233539421E+03  0.56168921739E+02  0.11599991170E+02  0.20070478676E+03  0.51100000000E-03 0. -1.
     200002    1    4    4    0    0 -0.90993186688E+03  0.20414727325E+03 -0.15155486900E+03  0.94526239207E+03  0.30000000000E+02 0. -1.
     200000    1    3    3    0    0 -0.23132913474E+03 -0.18759033450E+03  0.80945700332E+02  0.32474067897E+03  0.10100000000E+03 0.  1.
    -200001    1    1    2    0    0  0.13335963958E+04 -0.72725860494E+02 -0.14879113876E+01  0.14695372100E+04  0.61300000000E+03 0.  1.
<mgrwt>
<rscale>  0 0.29396226E+04</rscale>
<asrwt>0</asrwt>
<pdfrwt beam="1">  1        2 0.20569628E+00 0.29396226E+04</pdfrwt>
<pdfrwt beam="2">  1       -2 0.21433873E+00 0.29396226E+04</pdfrwt>
<totfact> 0.14652841E+00</totfact>
</mgrwt>
</event>
<event>
 8    1  0.6972317E-052  0.1430242E+04  0.7818608E-02  0.8932214E-01
         -2   -1    0    0    0  501 -0.00000000000E+00  0.00000000000E+00  0.52408904872E+03  0.52408904872E+03  0.25500000000E-02 0. -1.
          2   -1    0    0  501    0  0.00000000000E+00 -0.00000000000E+00 -0.97578417966E+03  0.97578417966E+03  0.25500000000E-02 0.  1.
     200001    2    1    2    0    0  0.18499175482E+03  0.69434135645E+02  0.99124622023E+02  0.65239789022E+03  0.61380311821E+03 0.  0.
    5000001    2    3    3    0    0 -0.17669417507E+03 -0.99633726118E+02 -0.38547355173E+02  0.21816842661E+03  0.70454615827E+02 0.  0.
        -11    1    4    4    0    0 -0.75783332729E+01 -0.86904786282E+00 -0.17296952257E+02  0.18904257114E+02  0.51100000000E-03 0. -1.
     200002    1    4    4    0    0 -0.16911584180E+03 -0.98764678255E+02 -0.21250402916E+02  0.19926416949E+03  0.30000000000E+02 0. -1.
     200000    1    3    3    0    0  0.36168592989E+03  0.16906786176E+03  0.13767197720E+03  0.43422946361E+03  0.10100000000E+03 0. -1.
    -200001    1    1    2    0    0 -0.18499175482E+03 -0.69434135645E+02 -0.55081975297E+03  0.84747533817E+03  0.61300000000E+03 0.  1.
<mgrwt>
<rscale>  0 0.14302417E+04</rscale>
<asrwt>0</asrwt>
<pdfrwt beam="1">  1        2 0.13939774E+00 0.14302417E+04</pdfrwt>
<pdfrwt beam="2">  1       -2 0.74869864E-01 0.14302417E+04</pdfrwt>
<totfact> 0.45349193E+01</totfact>
</mgrwt>
</event>
<event>
 8    1  0.6972317E-052  0.1260300E+04  0.7818608E-02  0.9061654E-01
          2   -1    0    0  501    0  0.00000000000E+00  0.00000000000E+00  0.23279397098E+04  0.23279397098E+04  0.25500000000E-02 0.  1.
         -2   -1    0    0    0  501 -0.00000000000E+00 -0.00000000000E+00 -0.17057542975E+03  0.17057542977E+03  0.25500000000E-02 0. -1.
     200001    2    1    2    0    0  0.85202277439E+02 -0.11974304731E+03  0.10224862226E+04  0.12003183014E+04  0.61130035477E+03 0.  0.
    5000001    2    3    3    0    0 -0.23827210690E+03  0.40723506324E+01  0.29381971850E+03  0.38722433123E+03  0.82598273295E+02 0.  0.
        -11    1    4    4    0    0 -0.20513757073E+03  0.12111487568E+02  0.25487415267E+03  0.32739722778E+03  0.51100000000E-03 0. -1.
     200002    1    4    4    0    0 -0.33134536169E+02 -0.80391369360E+01  0.38945565829E+02  0.59827103453E+02  0.30000000000E+02 0.  1.
     200000    1    3    3    0    0  0.32347438433E+03 -0.12381539794E+03  0.72866650412E+03  0.81309397016E+03  0.10100000000E+03 0. -1.
    -200001    1    1    2    0    0 -0.85202277439E+02  0.11974304731E+03  0.11348780575E+04  0.12981968382E+04  0.61300000000E+03 0. -1.
<mgrwt>
<rscale>  0 0.12603005E+04</rscale>
<asrwt>0</asrwt>
<pdfrwt beam="1">  1        2 0.33256280E+00 0.12603005E+04</pdfrwt>
<pdfrwt beam="2">  1       -2 0.24367920E-01 0.12603005E+04</pdfrwt>
<totfact> 0.80355411E+01</totfact>
</mgrwt>
</event>
<event>
 8    1  0.6972317E-052  0.1296693E+04  0.7818608E-02  0.9032192E-01
         -2   -1    0    0    0  501 -0.00000000000E+00  0.00000000000E+00  0.50098338118E+03  0.50098338118E+03  0.25500000000E-02 0. -1.
          2   -1    0    0  501    0  0.00000000000E+00 -0.00000000000E+00 -0.83905600705E+03  0.83905600705E+03  0.25500000000E-02 0.  1.
     200001    2    1    2    0    0 -0.17595115404E+03  0.93986059322E+02 -0.88899686240E+02  0.64891831216E+03  0.61106434496E+03 0.  0.
    5000001    2    3    3    0    0 -0.30295635331E+03  0.14832136296E+03 -0.23809682319E+03  0.42188652686E+03  0.86696975786E+02 0.  0.
        -11    1    4    4    0    0 -0.20198423588E+03  0.12994086861E+03 -0.14840102960E+03  0.28232096356E+03  0.51100000000E-03 0. -1.
     200002    1    4    4    0    0 -0.10097211743E+03  0.18380494348E+02 -0.89695793590E+02  0.13956556330E+03  0.30000000000E+02 0. -1.
     200000    1    3    3    0    0  0.12700519927E+03 -0.54335303634E+02  0.14919713695E+03  0.22703178530E+03  0.10100000000E+03 0. -1.
    -200001    1    1    2    0    0  0.17595115404E+03 -0.93986059322E+02 -0.24917293963E+03  0.69112107608E+03  0.61300000000E+03 0. -1.
<mgrwt>
<rscale>  0 0.12966929E+04</rscale>
<asrwt>0</asrwt>
<pdfrwt beam="1">  1        2 0.11986514E+00 0.12966929E+04</pdfrwt>
<pdfrwt beam="2">  1       -2 0.71569055E-01 0.12966929E+04</pdfrwt>
<totfact> 0.62091425E+01</totfact>
</mgrwt>
</event>
<event>
 8    1  0.6972317E-052  0.1517645E+04  0.7818608E-02  0.8872803E-01
         -2   -1    0    0    0  501 -0.00000000000E+00  0.00000000000E+00  0.16700385151E+03  0.16700385153E+03  0.25500000000E-02 0. -1.
          2   -1    0    0  501    0  0.00000000000E+00 -0.00000000000E+00 -0.34478947336E+04  0.34478947336E+04  0.25500000000E-02 0.  1.
     200001    2    1    2    0    0  0.32669754360E+03  0.30447868029E+03 -0.16926749568E+04  0.18548879666E+04  0.61320657838E+03 0.  0.
    5000001    2    3    3    0    0  0.18264317246E+03  0.45858309708E+03 -0.13367605737E+04  0.14290054932E+04  0.10710220721E+03 0.  0.
        -11    1    4    4    0    0  0.24120290887E+02  0.16130111069E+02 -0.13874163451E+03  0.14174346568E+03  0.51100000000E-03 0. -1.
     200002    1    4    4    0    0  0.15852288157E+03  0.44245298601E+03 -0.11980189392E+04  0.12872620275E+04  0.30000000000E+02 0. -1.
     200000    1    3    3    0    0  0.14405437114E+03 -0.15410441679E+03 -0.35591438306E+03  0.42588247345E+03  0.10100000000E+03 0.  1.
    -200001    1    1    2    0    0 -0.32669754360E+03 -0.30447868029E+03 -0.15882159254E+04  0.17600106185E+04  0.61300000000E+03 0.  1.
<mgrwt>
<rscale>  0 0.15176451E+04</rscale>
<asrwt>0</asrwt>
<pdfrwt beam="1">  1        2 0.49255635E+00 0.15176451E+04</pdfrwt>
<pdfrwt beam="2">  1       -2 0.23857695E-01 0.15176451E+04</pdfrwt>
<totfact> 0.19699018E+01</totfact>
</mgrwt>
</event>
<event>
 8    1  0.6972317E-052  0.1534163E+04  0.7818608E-02  0.8862048E-01
          2   -1    0    0  501    0  0.00000000000E+00  0.00000000000E+00  0.44811686097E+03  0.44811686098E+03  0.25500000000E-02 0.  1.
         -2   -1    0    0    0  501 -0.00000000000E+00 -0.00000000000E+00 -0.13130811537E+04  0.13130811537E+04  0.25500000000E-02 0. -1.
     200001    2    1    2    0    0 -0.24571847630E+03 -0.19807675113E+03 -0.47141966286E+02  0.69151847081E+03  0.61348468730E+03 0.  0.
    5000001    2    3    3    0    0  0.10845501387E+03 -0.19935187303E+03 -0.17394519539E+03  0.30200525410E+03  0.97193534731E+02 0.  0.
        -11    1    4    4    0    0  0.77427832695E+02 -0.18518192524E+03 -0.15058776403E+03  0.25092646211E+03  0.51100000000E-03 0. -1.
     200002    1    4    4    0    0  0.31027181177E+02 -0.14169947796E+02 -0.23357431359E+02  0.51078791999E+02  0.30000000000E+02 0. -1.
     200000    1    3    3    0    0 -0.35417349018E+03  0.12751218998E+01  0.12680322910E+03  0.38951321671E+03  0.10100000000E+03 0.  1.
    -200001    1    1    2    0    0  0.24571847630E+03  0.19807675113E+03 -0.81782232642E+03  0.10696795438E+04  0.61300000000E+03 0. -1.
<mgrwt>
<rscale>  0 0.15341627E+04</rscale>
<asrwt>0</asrwt>
<pdfrwt beam="1">  1        2 0.64016695E-01 0.15341627E+04</pdfrwt>
<pdfrwt beam="2">  1       -2 0.18758302E+00 0.15341627E+04</pdfrwt>
<totfact> 0.11811816E+01</totfact>
</mgrwt>
</event>
<event>
 8    1  0.6972317E-052  0.1370014E+04  0.7818608E-02  0.8975815E-01
         -2   -1    0    0    0  501 -0.00000000000E+00  0.00000000000E+00  0.12545140006E+04  0.12545140006E+04  0.25500000000E-02 0. -1.
          2   -1    0    0  501    0  0.00000000000E+00 -0.00000000000E+00 -0.37403684222E+03  0.37403684223E+03  0.25500000000E-02 0.  1.
     200001    2    1    2    0    0 -0.27137003395E+03 -0.62515627329E+02  0.29585731776E+03  0.73686745899E+03  0.61472937189E+03 0.  0.
    5000001    2    3    3    0    0 -0.19948424287E+03  0.76167562616E+02 -0.13533888547E+03  0.26725936727E+03  0.86691953075E+02 0.  0.
        -11    1    4    4    0    0 -0.20008074535E+02  0.18022389467E+02 -0.52577010693E+02  0.59071749782E+02  0.51100000000E-03 0. -1.
     200002    1    4    4    0    0 -0.17947616833E+03  0.58145173150E+02 -0.82761874775E+02  0.20818761749E+03  0.30000000000E+02 0. -1.
     200000    1    3    3    0    0 -0.71885791080E+02 -0.13868318995E+03  0.43119620323E+03  0.46960809172E+03  0.10100000000E+03 0. -1.
    -200001    1    1    2    0    0  0.27137003395E+03  0.62515627329E+02  0.58461984065E+03  0.89168338387E+03  0.61300000000E+03 0.  1.
<mgrwt>
<rscale>  0 0.13700138E+04</rscale>
<asrwt>0</asrwt>
<pdfrwt beam="1">  1        2 0.53433835E-01 0.13700138E+04</pdfrwt>
<pdfrwt beam="2">  1       -2 0.17921629E+00 0.13700138E+04</pdfrwt>
<totfact> 0.16706181E+01</totfact>
</mgrwt>
</event>
<event>
 8    1  0.6972317E-052  0.1603252E+04  0.7818608E-02  0.8818553E-01
         -2   -1    0    0    0  501 -0.00000000000E+00  0.00000000000E+00  0.44325477194E+03  0.44325477195E+03  0.25500000000E-02 0. -1.
          2   -1    0    0  501    0  0.00000000000E+00 -0.00000000000E+00 -0.14497404148E+04  0.14497404148E+04  0.25500000000E-02 0.  1.
     200001    2    1    2    0    0 -0.41380940817E+03  0.25854937538E+03 -0.70339122081E+03  0.10529230265E+04  0.61302665873E+03 0.  0.
    5000001    2    3    3    0    0 -0.27970136427E+03 -0.16244816542E+03 -0.28662176929E+03  0.43719445595E+03  0.66065831295E+02 0.  0.
        -11    1    4    4    0    0 -0.16672087897E+03 -0.70636277004E+02 -0.14634795553E+03  0.23281550464E+03  0.51100000000E-03 0. -1.
     200002    1    4    4    0    0 -0.11298048529E+03 -0.91811888416E+02 -0.14027381376E+03  0.20437895131E+03  0.30000000000E+02 0. -1.
     200000    1    3    3    0    0 -0.13410804390E+03  0.42099754080E+03 -0.41676945153E+03  0.61572857050E+03  0.10100000000E+03 0.  1.
    -200001    1    1    2    0    0  0.41380940817E+03 -0.25854937538E+03 -0.30309442201E+03  0.84007216026E+03  0.61300000000E+03 0. -1.
<mgrwt>
<rscale>  0 0.16032521E+04</rscale>
<asrwt>0</asrwt>
<pdfrwt beam="1">  1        2 0.20710577E+00 0.16032521E+04</pdfrwt>
<pdfrwt beam="2">  1       -2 0.63322111E-01 0.16032521E+04</pdfrwt>
<totfact> 0.34501567E+01</totfact>
</mgrwt>
</event>
<event>
 8    1  0.6972317E-052  0.1321082E+04  0.7818608E-02  0.9013012E-01
          2   -1    0    0  501    0  0.00000000000E+00  0.00000000000E+00  0.12558496017E+04  0.12558496017E+04  0.25500000000E-02 0. -1.
         -2   -1    0    0    0  501 -0.00000000000E+00 -0.00000000000E+00 -0.34742565106E+03  0.34742565107E+03  0.25500000000E-02 0.  1.
     200001    2    1    2    0    0  0.22171485463E+03 -0.98366544117E+02  0.44353303766E+03  0.79659934838E+03  0.61564235769E+03 0.  0.
    5000001    2    3    3    0    0  0.81790716752E+02  0.13808394359E+03  0.40939600667E+03  0.50188943273E+03  0.24193184078E+03 0.  0.
        -11    1    4    4    0    0  0.81915735849E+01  0.17668339032E+03  0.35891350405E+03  0.40012876138E+03  0.51100000000E-03 0. -1.
     200002    1    4    4    0    0  0.73599143167E+02 -0.38599446729E+02  0.50482502621E+02  0.10176067135E+03  0.30000000000E+02 0. -1.
     200000    1    3    3    0    0  0.13992413788E+03 -0.23645048771E+03  0.34137030987E+02  0.29470991565E+03  0.10100000000E+03 0.  1.
    -200001    1    1    2    0    0 -0.22171485463E+03  0.98366544117E+02  0.46489091301E+03  0.80667590441E+03  0.61300000000E+03 0. -1.
<mgrwt>
<rscale>  0 0.13210819E+04</rscale>
<asrwt>0</asrwt>
<pdfrwt beam="1">  1        2 0.17940709E+00 0.13210819E+04</pdfrwt>
<pdfrwt beam="2">  1       -2 0.49632235E-01 0.13210819E+04</pdfrwt>
<totfact> 0.74744836E+01</totfact>
</mgrwt>
</event>
<event>
 8    1  0.6972317E-052  0.1703567E+04  0.7818608E-02  0.8759333E-01
          2   -1    0    0  501    0  0.00000000000E+00  0.00000000000E+00  0.15566002476E+04  0.15566002476E+04  0.25500000000E-02 0.  1.
         -2   -1    0    0    0  501 -0.00000000000E+00 -0.00000000000E+00 -0.46610222808E+03  0.46610222808E+03  0.25500000000E-02 0. -1.
     200001    2    1    2    0    0  0.31959366609E+03 -0.37645039754E+03  0.93142369373E+03  0.12196279746E+04  0.61325955834E+03 0.  0.
    5000001    2    3    3    0    0 -0.68671673376E+02 -0.29981263427E+03  0.60499942463E+03  0.69677319163E+03  0.15768691250E+03 0.  0.
        -11    1    4    4    0    0 -0.77979256112E+02 -0.29980850206E+03  0.50996813982E+03  0.59668534918E+03  0.51100000000E-03 0. -1.
     200002    1    4    4    0    0  0.93075827359E+01 -0.41322124673E-02  0.95031284810E+02  0.10008784245E+03  0.30000000000E+02 0. -1.
     200000    1    3    3    0    0  0.38826533946E+03 -0.76637763268E+02  0.32642426910E+03  0.52285478294E+03  0.10100000000E+03 0.  1.
    -200001    1    1    2    0    0 -0.31959366609E+03  0.37645039754E+03  0.15907432578E+03  0.80307450111E+03  0.61300000000E+03 0. -1.
<mgrwt>
<rscale>  0 0.17035667E+04</rscale>
<asrwt>0</asrwt>
<pdfrwt beam="1">  1        2 0.22237146E+00 0.17035667E+04</pdfrwt>
<pdfrwt beam="2">  1       -2 0.66586033E-01 0.17035667E+04</pdfrwt>
<totfact> 0.26960462E+01</totfact>
</mgrwt>
</event>
<event>
 8    1  0.6972317E-052  0.1493738E+04  0.7818608E-02  0.8888627E-01
         -2   -1    0    0    0  501 -0.00000000000E+00  0.00000000000E+00  0.41055518702E+03  0.41055518703E+03  0.25500000000E-02 0. -1.
          2   -1    0    0  501    0  0.00000000000E+00 -0.00000000000E+00 -0.13586813322E+04  0.13586813322E+04  0.25500000000E-02 0.  1.
     200001    2    1    2    0    0  0.33634305063E+03  0.21811571754E+03 -0.64696014133E+03  0.97729518565E+03  0.61306389673E+03 0.  0.
    5000001    2    3    3    0    0  0.34035154604E+03 -0.99573787628E+02 -0.48455548238E+03  0.60645969249E+03  0.85118911217E+02 0.  0.
        -11    1    4    4    0    0  0.37839676618E+02  0.13561424346E+02 -0.48510105063E+02  0.62999870240E+02  0.51100000000E-03 0. -1.
     200002    1    4    4    0    0  0.30251186942E+03 -0.11313521197E+03 -0.43604537731E+03  0.54345982225E+03  0.30000000000E+02 0. -1.
     200000    1    3    3    0    0 -0.40084954036E+01  0.31768950517E+03 -0.16240465895E+03  0.37083549315E+03  0.10100000000E+03 0. -1.
    -200001    1    1    2    0    0 -0.33634305063E+03 -0.21811571754E+03 -0.30116600383E+03  0.79194133357E+03  0.61300000000E+03 0. -1.
<mgrwt>
<rscale>  0 0.14937385E+04</rscale>
<asrwt>0</asrwt>
<pdfrwt beam="1">  1        2 0.19409733E+00 0.14937385E+04</pdfrwt>
<pdfrwt beam="2">  1       -2 0.58650742E-01 0.14937385E+04</pdfrwt>
<totfact> 0.45841901E+01</totfact>
</mgrwt>
</event>
<event>
 8    1  0.6972317E-052  0.1366593E+04  0.7818608E-02  0.8978362E-01
          2   -1    0    0  501    0  0.00000000000E+00  0.00000000000E+00  0.20074974369E+04  0.20074974369E+04  0.25500000000E-02 0.  1.
         -2   -1    0    0    0  501 -0.00000000000E+00 -0.00000000000E+00 -0.23257506338E+03  0.23257506339E+03  0.25500000000E-02 0. -1.
     200001    2    1    2    0    0 -0.52293230964E+02 -0.10092655925E+03  0.13449745243E+04  0.14827450246E+04  0.61372272620E+03 0.  0.
    5000001    2    3    3    0    0 -0.30523417547E+03 -0.63702502515E+02  0.93993455564E+03  0.99323187054E+03  0.76201503038E+02 0.  0.
        -11    1    4    4    0    0 -0.19948060309E+03 -0.48803663191E+02  0.52535415759E+03  0.56406675088E+03  0.51100000000E-03 0. -1.
     200002    1    4    4    0    0 -0.10575357238E+03 -0.14898839324E+02  0.41458039805E+03  0.42916511966E+03  0.30000000000E+02 0. -1.
     200000    1    3    3    0    0  0.25294094451E+03 -0.37224056740E+02  0.40503996865E+03  0.48951315408E+03  0.10100000000E+03 0. -1.
    -200001    1    1    2    0    0  0.52293230964E+02  0.10092655925E+03  0.42994784923E+03  0.75732747568E+03  0.61300000000E+03 0. -1.
<mgrwt>
<rscale>  0 0.13665926E+04</rscale>
<asrwt>0</asrwt>
<pdfrwt beam="1">  1        2 0.28678533E+00 0.13665926E+04</pdfrwt>
<pdfrwt beam="2">  1       -2 0.33225011E-01 0.13665926E+04</pdfrwt>
<totfact> 0.65696139E+01</totfact>
</mgrwt>
</event>
<event>
 8    1  0.6972317E-052  0.1703493E+04  0.7818608E-02  0.8759375E-01
          2   -1    0    0  501    0  0.00000000000E+00  0.00000000000E+00  0.13332720603E+04  0.13332720603E+04  0.25500000000E-02 0.  1.
         -2   -1    0    0    0  501 -0.00000000000E+00 -0.00000000000E+00 -0.54412888342E+03  0.54412888342E+03  0.25500000000E-02 0. -1.
     200001    2    1    2    0    0  0.52344498135E+03  0.19963716047E+03  0.60049250650E+03  0.10258096569E+04  0.61469061934E+03 0.  0.
    5000001    2    3    3    0    0  0.82842982065E+01  0.16363210836E+02  0.43223409194E+03  0.44486924332E+03  0.10366267001E+03 0.  0.
        -11    1    4    4    0    0 -0.24033249974E+02 -0.13869118537E+02  0.38143533671E+02  0.47168620019E+02  0.51100000000E-03 0. -1.
     200002    1    4    4    0    0  0.32317548181E+02  0.30232329372E+02  0.39409055827E+03  0.39770062330E+03  0.30000000000E+02 0. -1.
     200000    1    3    3    0    0  0.51516068314E+03  0.18327394964E+03  0.16825841457E+03  0.58094041359E+03  0.10100000000E+03 0. -1.
    -200001    1    1    2    0    0 -0.52344498135E+03 -0.19963716047E+03  0.18865067037E+03  0.85159128681E+03  0.61300000000E+03 0. -1.
<mgrwt>
<rscale>  0 0.17034927E+04</rscale>
<asrwt>0</asrwt>
<pdfrwt beam="1">  1        2 0.19046744E+00 0.17034927E+04</pdfrwt>
<pdfrwt beam="2">  1       -2 0.77732698E-01 0.17034927E+04</pdfrwt>
<totfact> 0.25308263E+01</totfact>
</mgrwt>
</event>
<event>
 8    1  0.6972317E-052  0.1390457E+04  0.7818608E-02  0.8960755E-01
         -2   -1    0    0    0  501 -0.00000000000E+00  0.00000000000E+00  0.20369515385E+03  0.20369515387E+03  0.25500000000E-02 0. -1.
          2   -1    0    0  501    0  0.00000000000E+00 -0.00000000000E+00 -0.23728733130E+04  0.23728733130E+04  0.25500000000E-02 0.  1.
     200001    2    1    2    0    0  0.10919973736E+02  0.50243298793E+02 -0.48972313033E+03  0.78799869503E+03  0.61519880046E+03 0.  0.
    5000001    2    3    3    0    0 -0.14573083708E+03 -0.84846347514E+02  0.45686289328E+02  0.20520118669E+03  0.10762857626E+03 0.  0.
        -11    1    4    4    0    0 -0.37909992235E+02 -0.71933744627E+02 -0.54195522236E+01  0.81492347333E+02  0.51100000000E-03 0. -1.
     200002    1    4    4    0    0 -0.10782084484E+03 -0.12912602888E+02  0.51105841551E+02  0.12370883936E+03  0.30000000000E+02 0. -1.
     200000    1    3    3    0    0  0.15665081081E+03  0.13508964631E+03 -0.53540941966E+03  0.58279750834E+03  0.10100000000E+03 0. -1.
    -200001    1    1    2    0    0 -0.10919973736E+02 -0.50243298793E+02 -0.16794550289E+04  0.17885697719E+04  0.61300000000E+03 0.  1.
<mgrwt>
<rscale>  0 0.13904572E+04</rscale>
<asrwt>0</asrwt>
<pdfrwt beam="1">  1        2 0.33898188E+00 0.13904572E+04</pdfrwt>
<pdfrwt beam="2">  1       -2 0.29099309E-01 0.13904572E+04</pdfrwt>
<totfact> 0.54486273E+01</totfact>
</mgrwt>
</event>
<event>
 8    1  0.6972317E-052  0.1465812E+04  0.7818608E-02  0.8907511E-01
         -2   -1    0    0    0  501 -0.00000000000E+00  0.00000000000E+00  0.37669661111E+03  0.37669661112E+03  0.25500000000E-02 0. -1.
          2   -1    0    0  501    0  0.00000000000E+00 -0.00000000000E+00 -0.14259525214E+04  0.14259525214E+04  0.25500000000E-02 0.  1.
     200001    2    1    2    0    0  0.12323433844E+03 -0.93385264286E+02 -0.69018589993E+02  0.63622651877E+03  0.61328061087E+03 0.  0.
    5000001    2    3    3    0    0 -0.20679318354E+03 -0.16471649023E+03 -0.23767050023E+02  0.28090270740E+03  0.91904926127E+02 0.  0.
        -11    1    4    4    0    0 -0.76059580272E+02 -0.12675701065E+02 -0.45208167216E+01  0.77240992567E+02  0.51100000000E-03 0. -1.
     200002    1    4    4    0    0 -0.13073360327E+03 -0.15204078916E+03 -0.19246233301E+02  0.20366171483E+03  0.30000000000E+02 0. -1.
     200000    1    3    3    0    0  0.33002752198E+03  0.71331225939E+02 -0.45251539970E+02  0.35532381137E+03  0.10100000000E+03 0. -1.
    -200001    1    1    2    0    0 -0.12323433844E+03  0.93385264286E+02 -0.98023732030E+03  0.11664226138E+04  0.61300000000E+03 0.  1.
<mgrwt>
<rscale>  0 0.14658124E+04</rscale>
<asrwt>0</asrwt>
<pdfrwt beam="1">  1        2 0.20370750E+00 0.14658124E+04</pdfrwt>
<pdfrwt beam="2">  1       -2 0.53813802E-01 0.14658124E+04</pdfrwt>
<totfact> 0.50536756E+01</totfact>
</mgrwt>
</event>
<event>
 8    1  0.6972317E-052  0.1254354E+04  0.7818608E-02  0.9066567E-01
          2   -1    0    0  501    0  0.00000000000E+00  0.00000000000E+00  0.16303883799E+04  0.16303883799E+04  0.25500000000E-02 0.  1.
         -2   -1    0    0    0  501 -0.00000000000E+00 -0.00000000000E+00 -0.24126221689E+03  0.24126221690E+03  0.25500000000E-02 0. -1.
     200001    2    1    2    0    0 -0.26877970733E+02  0.73820595880E+02  0.53539054444E+03  0.81770305915E+03  0.61304433134E+03 0.  0.
    5000001    2    3    3    0    0 -0.20177936151E+03 -0.25176724209E+02  0.55265210187E+03  0.59211510015E+03  0.61864108715E+02 0.  0.
        -11    1    4    4    0    0 -0.10887235678E+02 -0.16851706171E+01  0.77018472392E+01  0.13442103700E+02  0.51100000000E-03 0. -1.
     200002    1    4    4    0    0 -0.19089212584E+03 -0.23491553592E+02  0.54495025463E+03  0.57867299645E+03  0.30000000000E+02 0. -1.
     200000    1    3    3    0    0  0.17490139078E+03  0.98997320088E+02 -0.17261557432E+02  0.22558795900E+03  0.10100000000E+03 0.  1.
    -200001    1    1    2    0    0  0.26877970733E+02 -0.73820595880E+02  0.85373561856E+03  0.10539475376E+04  0.61300000000E+03 0.  1.
<mgrwt>
<rscale>  0 0.12543542E+04</rscale>
<asrwt>0</asrwt>
<pdfrwt beam="1">  1        2 0.23291263E+00 0.12543542E+04</pdfrwt>
<pdfrwt beam="2">  1       -2 0.34466031E-01 0.12543542E+04</pdfrwt>
<totfact> 0.96714219E+01</totfact>
</mgrwt>
</event>
<event>
 8    1  0.6972317E-052  0.1604161E+04  0.7818608E-02  0.8817996E-01
          2   -1    0    0  501    0  0.00000000000E+00  0.00000000000E+00  0.11154935728E+04  0.11154935728E+04  0.25500000000E-02 0.  1.
         -2   -1    0    0    0  501 -0.00000000000E+00 -0.00000000000E+00 -0.57672502840E+03  0.57672502841E+03  0.25500000000E-02 0. -1.
     200001    2    1    2    0    0 -0.28855110369E+03  0.11351631696E+03 -0.16673227646E+03  0.70751148643E+03  0.61369793691E+03 0.  0.
    5000001    2    3    3    0    0 -0.29513610746E+03  0.45406398697E+02  0.14220576643E+03  0.37535785092E+03  0.17749358655E+03 0.  0.
        -11    1    4    4    0    0 -0.22727498899E+03 -0.31533440038E+02  0.13930957473E+03  0.26843143644E+03  0.51100000000E-03 0. -1.
     200002    1    4    4    0    0 -0.67861118478E+02  0.76939838734E+02  0.28961917020E+01  0.10692641447E+03  0.30000000000E+02 0. -1.
     200000    1    3    3    0    0  0.65850037775E+01  0.68109918261E+02 -0.30893804289E+03  0.33215363552E+03  0.10100000000E+03 0. -1.
    -200001    1    1    2    0    0  0.28855110369E+03 -0.11351631696E+03  0.70550082081E+03  0.98470711474E+03  0.61300000000E+03 0.  1.
<mgrwt>
<rscale>  0 0.16041609E+04</rscale>
<asrwt>0</asrwt>
<pdfrwt beam="1">  1        2 0.15935622E+00 0.16041609E+04</pdfrwt>
<pdfrwt beam="2">  1       -2 0.82389291E-01 0.16041609E+04</pdfrwt>
<totfact> 0.29734088E+01</totfact>
</mgrwt>
</event>
<event>
 8    1  0.6972317E-052  0.1504855E+04  0.7818608E-02  0.8881231E-01
         -2   -1    0    0    0  501 -0.00000000000E+00  0.00000000000E+00  0.87552733755E+03  0.87552733755E+03  0.25500000000E-02 0. -1.
          2   -1    0    0  501    0  0.00000000000E+00 -0.00000000000E+00 -0.64663556740E+03  0.64663556741E+03  0.25500000000E-02 0.  1.
     200001    2    1    2    0    0 -0.41770031862E+03  0.12492204807E+03  0.12913861900E+03  0.76334885302E+03  0.61314404035E+03 0.  0.
    5000001    2    3    3    0    0 -0.49647613112E+03 -0.63052450558E+02  0.15340581057E+03  0.53459147640E+03  0.10858426973E+03 0.  0.
        -11    1    4    4    0    0 -0.12493779954E+03 -0.39162663787E+02  0.81486794741E+02  0.15421824051E+03  0.51100000000E-03 0. -1.
     200002    1    4    4    0    0 -0.37153833157E+03 -0.23889786771E+02  0.71919015826E+02  0.38037323589E+03  0.30000000000E+02 0. -1.
     200000    1    3    3    0    0  0.78775812502E+02  0.18797449863E+03 -0.24267191565E+02  0.22875737662E+03  0.10100000000E+03 0. -1.
    -200001    1    1    2    0    0  0.41770031862E+03 -0.12492204807E+03  0.99753151147E+02  0.75881405195E+03  0.61300000000E+03 0.  1.
<mgrwt>
<rscale>  0 0.15048550E+04</rscale>
<asrwt>0</asrwt>
<pdfrwt beam="1">  1        2 0.92376510E-01 0.15048550E+04</pdfrwt>
<pdfrwt beam="2">  1       -2 0.12507533E+00 0.15048550E+04</pdfrwt>
<totfact> 0.22976608E+01</totfact>
</mgrwt>
</event>
<event>
 8    1  0.6972317E-052  0.1281189E+04  0.7818608E-02  0.9044617E-01
         -2   -1    0    0    0  501 -0.00000000000E+00  0.00000000000E+00  0.55807939094E+03  0.55807939095E+03  0.25500000000E-02 0. -1.
          2   -1    0    0  501    0  0.00000000000E+00 -0.00000000000E+00 -0.73531000236E+03  0.73531000236E+03  0.25500000000E-02 0.  1.
     200001    2    1    2    0    0  0.37988674879E+02  0.17709211201E+03 -0.45216679624E+02  0.64070154009E+03  0.61290224327E+03 0.  0.
    5000001    2    3    3    0    0  0.24647215451E+03  0.20564605599E+03 -0.17108514540E+03  0.37551375818E+03  0.93282540260E+02 0.  0.
        -11    1    4    4    0    0  0.21975714156E+03  0.16363076819E+03 -0.12414814406E+03  0.30080058384E+03  0.51100000000E-03 0. -1.
     200002    1    4    4    0    0  0.26715012947E+02  0.42015287801E+02 -0.46937001339E+02  0.74713174343E+02  0.30000000000E+02 0. -1.
     200000    1    3    3    0    0 -0.20848347963E+03 -0.28553943975E+02  0.12586846578E+03  0.26518778191E+03  0.10100000000E+03 0.  1.
    -200001    1    1    2    0    0 -0.37988674879E+02 -0.17709211201E+03 -0.13201393179E+03  0.65268785322E+03  0.61300000000E+03 0. -1.
<mgrwt>
<rscale>  0 0.12811891E+04</rscale>
<asrwt>0</asrwt>
<pdfrwt beam="1">  1        2 0.10504429E+00 0.12811891E+04</pdfrwt>
<pdfrwt beam="2">  1       -2 0.79725627E-01 0.12811891E+04</pdfrwt>
<totfact> 0.57957290E+01</totfact>
</mgrwt>
</event>
<event>
 8    1  0.6972317E-052  0.1258613E+04  0.7818608E-02  0.9063045E-01
         -2   -1    0    0    0  501 -0.00000000000E+00  0.00000000000E+00  0.18170137940E+03  0.18170137942E+03  0.25500000000E-02 0. -1.
          2   -1    0    0  501    0  0.00000000000E+00 -0.00000000000E+00 -0.21795474244E+04  0.21795474244E+04  0.25500000000E-02 0.  1.
     200001    2    1    2    0    0 -0.10519303148E+03 -0.92479104729E+02 -0.86567130209E+03  0.10661786871E+04  0.60640929323E+03 0.  0.
    5000001    2    3    3    0    0  0.73891995157E+02  0.15318952500E+02  0.51986431879E+02  0.11961195169E+03  0.76874785419E+02 0.  0.
        -11    1    4    4    0    0  0.58568013761E+02  0.28048270063E+02  0.12427169313E+02  0.66116202453E+02  0.51100000000E-03 0. -1.
     200002    1    4    4    0    0  0.15323981396E+02 -0.12729317563E+02  0.39559262566E+02  0.53495749235E+02  0.30000000000E+02 0. -1.
     200000    1    3    3    0    0 -0.17908502664E+03 -0.10779805723E+03 -0.91765773397E+03  0.94656673543E+03  0.10100000000E+03 0.  1.
    -200001    1    1    2    0    0  0.10519303148E+03  0.92479104729E+02 -0.11321747429E+04  0.12950701167E+04  0.61300000000E+03 0.  1.
<mgrwt>
<rscale>  0 0.12586132E+04</rscale>
<asrwt>0</asrwt>
<pdfrwt beam="1">  1        2 0.31136390E+00 0.12586132E+04</pdfrwt>
<pdfrwt beam="2">  1       -2 0.25957341E-01 0.12586132E+04</pdfrwt>
<totfact> 0.85471066E+01</totfact>
</mgrwt>
</event>
<event>
 8    1  0.6972317E-052  0.1692904E+04  0.7818608E-02  0.8765422E-01
          2   -1    0    0  501    0  0.00000000000E+00  0.00000000000E+00  0.54131863499E+03  0.54131863500E+03  0.25500000000E-02 0.  1.
         -2   -1    0    0    0  501 -0.00000000000E+00 -0.00000000000E+00 -0.13235851976E+04  0.13235851976E+04  0.25500000000E-02 0. -1.
     200001    2    1    2    0    0 -0.25129848235E+03 -0.24078190551E+03  0.12392938707E+03  0.71682415224E+03  0.61428944237E+03 0.  0.
    5000001    2    3    3    0    0 -0.19289697556E+03 -0.12781597080E+03  0.35330769652E+03  0.43577709703E+03  0.10737403926E+03 0.  0.
        -11    1    4    4    0    0  0.49317870597E-01  0.11006402719E+02  0.30553313363E+01  0.11422713464E+02  0.51100000000E-03 0. -1.
     200002    1    4    4    0    0 -0.19294629343E+03 -0.13882237352E+03  0.35025236518E+03  0.42435438357E+03  0.30000000000E+02 0. -1.
     200000    1    3    3    0    0 -0.58401506788E+02 -0.11296593471E+03 -0.22937830945E+03  0.28104705521E+03  0.10100000000E+03 0.  1.
    -200001    1    1    2    0    0  0.25129848235E+03  0.24078190551E+03 -0.90619594969E+03  0.11480796804E+04  0.61300000000E+03 0. -1.
<mgrwt>
<rscale>  0 0.16929044E+04</rscale>
<asrwt>0</asrwt>
<pdfrwt beam="1">  1        2 0.77331234E-01 0.16929044E+04</pdfrwt>
<pdfrwt beam="2">  1       -2 0.18908360E+00 0.16929044E+04</pdfrwt>
<totfact> 0.91831255E+00</totfact>
</mgrwt>
</event>
<event>
 8    1  0.6972317E-052  0.1317520E+04  0.7818608E-02  0.9015786E-01
         -2   -1    0    0    0  501 -0.00000000000E+00  0.00000000000E+00  0.35245861980E+03  0.35245861981E+03  0.25500000000E-02 0.  1.
          2   -1    0    0  501    0  0.00000000000E+00 -0.00000000000E+00 -0.12312503914E+04  0.12312503915E+04  0.25500000000E-02 0. -1.
     200001    2    1    2    0    0 -0.59634510934E+02 -0.22699947956E+03 -0.50668038136E+03  0.82917542990E+03  0.61296153719E+03 0.  0.
    5000001    2    3    3    0    0 -0.17385391685E+03 -0.31935953764E+03 -0.10196541199E+03  0.38694058341E+03  0.84323016773E+02 0.  0.
        -11    1    4    4    0    0 -0.70624748645E+02 -0.76011572459E+02 -0.52732128852E+02  0.11638853759E+03  0.51100000000E-03 0. -1.
     200002    1    4    4    0    0 -0.10322916821E+03 -0.24334796518E+03 -0.49233283136E+02  0.27055204582E+03  0.30000000000E+02 0. -1.
     200000    1    3    3    0    0  0.11421940592E+03  0.92360058077E+02 -0.40471496937E+03  0.44223484649E+03  0.10100000000E+03 0. -1.
    -200001    1    1    2    0    0  0.59634510934E+02  0.22699947956E+03 -0.37211139029E+03  0.75453358136E+03  0.61300000000E+03 0.  1.
<mgrwt>
<rscale>  0 0.13175201E+04</rscale>
<asrwt>0</asrwt>
<pdfrwt beam="1">  1        2 0.17589291E+00 0.13175201E+04</pdfrwt>
<pdfrwt beam="2">  1       -2 0.50351232E-01 0.13175201E+04</pdfrwt>
<totfact> 0.74955775E+01</totfact>
</mgrwt>
</event>
<event>
 8    1  0.6972317E-052  0.1415108E+04  0.7818608E-02  0.8942955E-01
          2   -1    0    0  501    0  0.00000000000E+00  0.00000000000E+00  0.12863409470E+04  0.12863409470E+04  0.25500000000E-02 0.  1.
         -2   -1    0    0    0  501 -0.00000000000E+00 -0.00000000000E+00 -0.38919107695E+03  0.38919107696E+03  0.25500000000E-02 0. -1.
     200001    2    1    2    0    0  0.22467357813E+02 -0.13359109561E+03  0.63853954085E+02  0.63221881761E+03  0.61422466810E+03 0.  0.
    5000001    2    3    3    0    0 -0.71276121765E+02  0.38218795012E+02  0.27826676945E+03  0.32484228326E+03  0.14679629488E+03 0.  0.
        -11    1    4    4    0    0  0.27593000023E+02  0.33461497004E+01  0.20396919673E+01  0.27869888978E+02  0.51100000000E-03 0. -1.
     200002    1    4    4    0    0 -0.98869121788E+02  0.34872645311E+02  0.27622707748E+03  0.29697239428E+03  0.30000000000E+02 0. -1.
     200000    1    3    3    0    0  0.93743479578E+02 -0.17180989062E+03 -0.21441281536E+03  0.30737653435E+03  0.10100000000E+03 0. -1.
    -200001    1    1    2    0    0 -0.22467357813E+02  0.13359109561E+03  0.83329591597E+03  0.10433132064E+04  0.61300000000E+03 0.  1.
<mgrwt>
<rscale>  0 0.14151077E+04</rscale>
<asrwt>0</asrwt>
<pdfrwt beam="1">  1        2 0.18376299E+00 0.14151077E+04</pdfrwt>
<pdfrwt beam="2">  1       -2 0.55598725E-01 0.14151077E+04</pdfrwt>
<totfact> 0.56519853E+01</totfact>
</mgrwt>
</event>
<event>
 8    1  0.6972317E-052  0.1380670E+04  0.7818608E-02  0.8967931E-01
         -2   -1    0    0    0  501 -0.00000000000E+00  0.00000000000E+00  0.22910619959E+03  0.22910619960E+03  0.25500000000E-02 0. -1.
          2   -1    0    0  501    0  0.00000000000E+00 -0.00000000000E+00 -0.20800940324E+04  0.20800940324E+04  0.25500000000E-02 0.  1.
     200001    2    1    2    0    0  0.58648937708E+02  0.24007715880E+03 -0.59239131225E+03  0.88761275962E+03  0.61306786259E+03 0.  0.
    5000001    2    3    3    0    0  0.11397464071E+03  0.95131720935E+02 -0.66798847984E+03  0.68764764987E+03  0.67900059754E+02 0.  0.
        -11    1    4    4    0    0  0.19349878850E+02  0.47852940990E+02 -0.16989165983E+03  0.17755984302E+03  0.51100000000E-03 0. -1.
     200002    1    4    4    0    0  0.94624761855E+02  0.47278779945E+02 -0.49809682002E+03  0.51008780685E+03  0.30000000000E+02 0. -1.
     200000    1    3    3    0    0 -0.55325702997E+02  0.14494543786E+03  0.75597167591E+02  0.19996510975E+03  0.10100000000E+03 0. -1.
    -200001    1    1    2    0    0 -0.58648937708E+02 -0.24007715880E+03 -0.12585965206E+04  0.14215874724E+04  0.61300000000E+03 0.  1.
<mgrwt>
<rscale>  0 0.13806700E+04</rscale>
<asrwt>0</asrwt>
<pdfrwt beam="1">  1        2 0.29715628E+00 0.13806700E+04</pdfrwt>
<pdfrwt beam="2">  1       -2 0.32729458E-01 0.13806700E+04</pdfrwt>
<totfact> 0.61965200E+01</totfact>
</mgrwt>
</event>
<event>
 8    1  0.6972317E-052  0.1405511E+04  0.7818608E-02  0.8949839E-01
          2   -1    0    0  501    0  0.00000000000E+00  0.00000000000E+00  0.70750160384E+03  0.70750160384E+03  0.25500000000E-02 0.  1.
         -2   -1    0    0    0  501 -0.00000000000E+00 -0.00000000000E+00 -0.69804110138E+03  0.69804110138E+03  0.25500000000E-02 0. -1.
     200001    2    1    2    0    0  0.13506763254E+03 -0.26572633621E+02  0.31789873753E+03  0.70564805953E+03  0.61476028367E+03 0.  0.
    5000001    2    3    3    0    0  0.75685037132E+02 -0.11073395920E+03 -0.14500001261E+03  0.22079171561E+03  0.98659735756E+02 0.  0.
        -11    1    4    4    0    0  0.68072849114E+02 -0.95260262141E+02 -0.14476686268E+03  0.18618774090E+03  0.51100000000E-03 0. -1.
     200002    1    4    4    0    0  0.76121880176E+01 -0.15473697054E+02 -0.23314993033E+00  0.34603974712E+02  0.30000000000E+02 0. -1.
     200000    1    3    3    0    0  0.59382595404E+02  0.84161325575E+02  0.46289875014E+03  0.48485634392E+03  0.10100000000E+03 0.  1.
    -200001    1    1    2    0    0 -0.13506763254E+03  0.26572633621E+02 -0.30843823507E+03  0.69989464569E+03  0.61300000000E+03 0. -1.
<mgrwt>
<rscale>  0 0.14055109E+04</rscale>
<asrwt>0</asrwt>
<pdfrwt beam="1">  1        2 0.10107166E+00 0.14055109E+04</pdfrwt>
<pdfrwt beam="2">  1       -2 0.99720157E-01 0.14055109E+04</pdfrwt>
<totfact> 0.36001015E+01</totfact>
</mgrwt>
</event>
<event>
 8    1  0.6972317E-052  0.1276584E+04  0.7818608E-02  0.9048343E-01
         -2   -1    0    0    0  501 -0.00000000000E+00  0.00000000000E+00  0.32708034497E+03  0.32708034498E+03  0.25500000000E-02 0. -1.
          2   -1    0    0  501    0  0.00000000000E+00 -0.00000000000E+00 -0.12456168604E+04  0.12456168604E+04  0.25500000000E-02 0.  1.
     200001    2    1    2    0    0  0.95718994548E+02 -0.10532538806E+03 -0.32678171370E+03  0.70886949765E+03  0.61274310522E+03 0.  0.
    5000001    2    3    3    0    0  0.11246289546E+03  0.23556778204E+03 -0.14828513016E+03  0.31068544225E+03  0.79980506418E+02 0.  0.
        -11    1    4    4    0    0  0.47668686200E+02  0.16825915437E+03 -0.96069229102E+02  0.19953130946E+03  0.51100000000E-03 0. -1.
     200002    1    4    4    0    0  0.64794209262E+02  0.67308627666E+02 -0.52215901056E+02  0.11115413279E+03  0.30000000000E+02 0.  1.
     200000    1    3    3    0    0 -0.16743900914E+02 -0.34089317010E+03 -0.17849658354E+03  0.39818405540E+03  0.10100000000E+03 0. -1.
    -200001    1    1    2    0    0 -0.95718994548E+02  0.10532538806E+03 -0.59175480172E+03  0.86382770773E+03  0.61300000000E+03 0.  1.
<mgrwt>
<rscale>  0 0.12765842E+04</rscale>
<asrwt>0</asrwt>
<pdfrwt beam="1">  1        2 0.17794526E+00 0.12765842E+04</pdfrwt>
<pdfrwt beam="2">  1       -2 0.46725764E-01 0.12765842E+04</pdfrwt>
<totfact> 0.85836698E+01</totfact>
</mgrwt>
</event>
<event>
 8    1  0.6972317E-052  0.1521260E+04  0.7818608E-02  0.8870437E-01
         -2   -1    0    0    0  501 -0.00000000000E+00  0.00000000000E+00  0.12982987463E+04  0.12982987463E+04  0.25500000000E-02 0. -1.
          2   -1    0    0  501    0  0.00000000000E+00 -0.00000000000E+00 -0.44562794747E+03  0.44562794748E+03  0.25500000000E-02 0.  1.
     200001    2    1    2    0    0 -0.43159064941E+03 -0.12728335615E+03  0.42561936789E+03  0.87179512914E+03  0.61351720387E+03 0.  0.
    5000001    2    3    3    0    0 -0.17346826686E+03 -0.35394495330E+03  0.21450315274E+03  0.45613457016E+03  0.81724378152E+02 0.  0.
        -11    1    4    4    0    0 -0.14265808415E+03 -0.25048282042E+03  0.17558387405E+03  0.33752432376E+03  0.51100000000E-03 0. -1.
     200002    1    4    4    0    0 -0.30810182707E+02 -0.10346213287E+03  0.38919278695E+02  0.11861024640E+03  0.30000000000E+02 0.  1.
     200000    1    3    3    0    0 -0.25812238255E+03  0.22666159714E+03  0.21111621515E+03  0.41566055898E+03  0.10100000000E+03 0. -1.
    -200001    1    1    2    0    0  0.43159064941E+03  0.12728335615E+03  0.42705143098E+03  0.87213156468E+03  0.61300000000E+03 0.  1.
<mgrwt>
<rscale>  0 0.15212603E+04</rscale>
<asrwt>0</asrwt>
<pdfrwt beam="1">  1        2 0.63661134E-01 0.15212603E+04</pdfrwt>
<pdfrwt beam="2">  1       -2 0.18547125E+00 0.15212603E+04</pdfrwt>
<totfact> 0.12296417E+01</totfact>
</mgrwt>
</event>
<event>
 8    1  0.6972317E-052  0.1242343E+04  0.7818608E-02  0.9076580E-01
          2   -1    0    0  501    0  0.00000000000E+00  0.00000000000E+00  0.14191855837E+04  0.14191855837E+04  0.25500000000E-02 0.  1.
         -2   -1    0    0    0  501 -0.00000000000E+00 -0.00000000000E+00 -0.27188405101E+03  0.27188405103E+03  0.25500000000E-02 0. -1.
     200001    2    1    2    0    0 -0.95393114598E+02  0.21064270299E+02  0.55554119461E+03  0.83346083843E+03  0.61358569123E+03 0.  0.
    5000001    2    3    3    0    0 -0.25636572255E+03  0.93842274509E+02  0.45106568328E+03  0.60471436113E+03  0.29612404789E+03 0.  0.
        -11    1    4    4    0    0 -0.24102237328E+03  0.15508343783E+03  0.21435136545E+03  0.35789546656E+03  0.51100000000E-03 0. -1.
     200002    1    4    4    0    0 -0.15343349267E+02 -0.61241163324E+02  0.23671431782E+03  0.24681889457E+03  0.30000000000E+02 0. -1.
     200000    1    3    3    0    0  0.16097260795E+03 -0.72778004210E+02  0.10447551133E+03  0.22874647730E+03  0.10100000000E+03 0. -1.
    -200001    1    1    2    0    0  0.95393114598E+02 -0.21064270299E+02  0.59176033812E+03  0.85760879634E+03  0.61300000000E+03 0.  1.
<mgrwt>
<rscale>  0 0.12423428E+04</rscale>
<asrwt>0</asrwt>
<pdfrwt beam="1">  1        2 0.20274080E+00 0.12423428E+04</pdfrwt>
<pdfrwt beam="2">  1       -2 0.38840579E-01 0.12423428E+04</pdfrwt>
<totfact> 0.99525891E+01</totfact>
</mgrwt>
</event>
<event>
 8    1  0.6972317E-052  0.1628156E+04  0.7818608E-02  0.8803435E-01
         -2   -1    0    0    0  501 -0.00000000000E+00  0.00000000000E+00  0.58119359093E+03  0.58119359094E+03  0.25500000000E-02 0. -1.
          2   -1    0    0  501    0  0.00000000000E+00 -0.00000000000E+00 -0.11402794301E+04  0.11402794301E+04  0.25500000000E-02 0.  1.
     200001    2    1    2    0    0  0.45496601531E+03  0.27114460912E+03 -0.19163781975E+03  0.83192227988E+03  0.61225497274E+03 0.  0.
    5000001    2    3    3    0    0  0.55811698205E+03  0.87879592777E+02 -0.18108215475E+03  0.59838724992E+03  0.77840642422E+02 0.  0.
        -11    1    4    4    0    0  0.42485532517E+03  0.55434985092E+02 -0.15472215598E+03  0.45553707912E+03  0.51100000000E-03 0. -1.
     200002    1    4    4    0    0  0.13326165688E+03  0.32444607685E+02 -0.26359998767E+02  0.14285017080E+03  0.30000000000E+02 0.  1.
     200000    1    3    3    0    0 -0.10315096674E+03  0.18326501634E+03 -0.10555665000E+02  0.23353502996E+03  0.10100000000E+03 0.  1.
    -200001    1    1    2    0    0 -0.45496601531E+03 -0.27114460912E+03 -0.36744801943E+03  0.88955074118E+03  0.61300000000E+03 0. -1.
<mgrwt>
<rscale>  0 0.16281561E+04</rscale>
<asrwt>0</asrwt>
<pdfrwt beam="1">  1        2 0.16289706E+00 0.16281561E+04</pdfrwt>
<pdfrwt beam="2">  1       -2 0.83027657E-01 0.16281561E+04</pdfrwt>
<totfact> 0.28208079E+01</totfact>
</mgrwt>
</event>
<event>
 8    1  0.6972317E-052  0.2513001E+04  0.7818608E-02  0.8398369E-01
         -2   -1    0    0    0  501 -0.00000000000E+00  0.00000000000E+00  0.76739874732E+03  0.76739874733E+03  0.25500000000E-02 0. -1.
          2   -1    0    0  501    0  0.00000000000E+00 -0.00000000000E+00 -0.20573307720E+04  0.20573307720E+04  0.25500000000E-02 0.  1.
     200001    2    1    2    0    0 -0.10273009656E+04 -0.18281655116E+03 -0.26581408174E+03  0.12393728634E+04  0.61369275969E+03 0.  0.
    5000001    2    3    3    0    0 -0.10544114072E+04 -0.19524726240E+03 -0.31765753017E+03  0.11219921079E+04  0.89750066869E+02 0.  0.
        -11    1    4    4    0    0 -0.69380114655E+03 -0.11425894110E+03 -0.17422529725E+03  0.72440982239E+03  0.51100000000E-03 0. -1.
     200002    1    4    4    0    0 -0.36061026069E+03 -0.80988321301E+02 -0.14343223292E+03  0.39758228550E+03  0.30000000000E+02 0. -1.
     200000    1    3    3    0    0  0.27110441643E+02  0.12430711241E+02  0.51843448435E+02  0.11738075555E+03  0.10100000000E+03 0. -1.
    -200001    1    1    2    0    0  0.10273009656E+04  0.18281655116E+03 -0.10241179429E+04  0.15853566559E+04  0.61300000000E+03 0.  1.
<mgrwt>
<rscale>  0 0.25130006E+04</rscale>
<asrwt>0</asrwt>
<pdfrwt beam="1">  1        2 0.29390439E+00 0.25130006E+04</pdfrwt>
<pdfrwt beam="2">  1       -2 0.10962839E+00 0.25130006E+04</pdfrwt>
<totfact> 0.44500397E+00</totfact>
</mgrwt>
</event>
<event>
 8    1  0.6972317E-052  0.1771306E+04  0.7818608E-02  0.8721709E-01
          2   -1    0    0  501    0  0.00000000000E+00  0.00000000000E+00  0.10953600419E+04  0.10953600419E+04  0.25500000000E-02 0.  1.
         -2   -1    0    0    0  501 -0.00000000000E+00 -0.00000000000E+00 -0.71609465648E+03  0.71609465649E+03  0.25500000000E-02 0. -1.
     200001    2    1    2    0    0 -0.31360047436E+03 -0.22348313801E+03  0.71072416942E+03  0.10152613199E+04  0.61427740661E+03 0.  0.
    5000001    2    3    3    0    0 -0.30477161400E+03 -0.36856689311E+03  0.68128849996E+03  0.83583249448E+03  0.75727453806E+02 0.  0.
        -11    1    4    4    0    0 -0.13991551905E+03 -0.19282135390E+03  0.38503827161E+03  0.45278129112E+03  0.51100000000E-03 0. -1.
     200002    1    4    4    0    0 -0.16485609496E+03 -0.17574553921E+03  0.29625022835E+03  0.38305120336E+03  0.30000000000E+02 0. -1.
     200000    1    3    3    0    0 -0.88288603532E+01  0.14508375510E+03  0.29435669460E+02  0.17942882546E+03  0.10100000000E+03 0. -1.
    -200001    1    1    2    0    0  0.31360047436E+03  0.22348313801E+03 -0.33145878396E+03  0.79619337849E+03  0.61300000000E+03 0. -1.
<mgrwt>
<rscale>  0 0.17713063E+04</rscale>
<asrwt>0</asrwt>
<pdfrwt beam="1">  1        2 0.15648000E+00 0.17713063E+04</pdfrwt>
<pdfrwt beam="2">  1       -2 0.10229924E+00 0.17713063E+04</pdfrwt>
<totfact> 0.18261728E+01</totfact>
</mgrwt>
</event>
<event>
 8    1  0.6972317E-052  0.1374228E+04  0.7818608E-02  0.8972688E-01
          2   -1    0    0  501    0  0.00000000000E+00  0.00000000000E+00  0.24196865488E+04  0.24196865488E+04  0.25500000000E-02 0.  1.
         -2   -1    0    0    0  501 -0.00000000000E+00 -0.00000000000E+00 -0.19511860895E+03  0.19511860897E+03  0.25500000000E-02 0. -1.
     200001    2    1    2    0    0  0.98731551879E+02  0.12966994371E+03  0.16145910445E+04  0.17348034382E+04  0.61325077618E+03 0.  0.
    5000001    2    3    3    0    0 -0.12691714971E+03  0.34445777076E+02  0.13531403912E+04  0.13625905656E+04  0.91485827102E+02 0.  0.
        -11    1    4    4    0    0  0.55030331322E+01  0.23319483765E+02  0.20766296353E+03  0.20904063749E+03  0.51100000000E-03 0. -1.
     200002    1    4    4    0    0 -0.13242018284E+03  0.11126293311E+02  0.11454774277E+04  0.11535499281E+04  0.30000000000E+02 0. -1.
     200000    1    3    3    0    0  0.22564870159E+03  0.95224166633E+02  0.26145065328E+03  0.37221287262E+03  0.10100000000E+03 0.  1.
    -200001    1    1    2    0    0 -0.98731551879E+02 -0.12966994371E+03  0.60997689534E+03  0.88000171959E+03  0.61300000000E+03 0. -1.
<mgrwt>
<rscale>  0 0.13742283E+04</rscale>
<asrwt>0</asrwt>
<pdfrwt beam="1">  1        2 0.34566951E+00 0.13742283E+04</pdfrwt>
<pdfrwt beam="2">  1       -2 0.27874086E-01 0.13742283E+04</pdfrwt>
<totfact> 0.55849039E+01</totfact>
</mgrwt>
</event>
<event>
 8    1  0.6972317E-052  0.1611591E+04  0.7818608E-02  0.8813459E-01
         -2   -1    0    0    0  501 -0.00000000000E+00  0.00000000000E+00  0.35112561042E+03  0.35112561043E+03  0.25500000000E-02 0. -1.
          2   -1    0    0  501    0  0.00000000000E+00 -0.00000000000E+00 -0.18492142361E+04  0.18492142361E+04  0.25500000000E-02 0.  1.
     200001    2    1    2    0    0  0.50392302797E+03 -0.13978632051E+03 -0.75852390578E+03  0.11066289120E+04  0.61301745458E+03 0.  0.
    5000001    2    3    3    0    0 -0.74785026746E+02  0.12297244321E+03 -0.10471772924E+03  0.18923657659E+03  0.64262408044E+02 0.  0.
        -11    1    4    4    0    0  0.65674743890E+00  0.59163528907E+00  0.55286851803E+01  0.55989025351E+01  0.51100000000E-03 0. -1.
     200002    1    4    4    0    0 -0.75441774185E+02  0.12238080793E+03 -0.11024641442E+03  0.18363767406E+03  0.30000000000E+02 0. -1.
     200000    1    3    3    0    0  0.57870805472E+03 -0.26275876372E+03 -0.65380617655E+03  0.91739233537E+03  0.10100000000E+03 0.  1.
    -200001    1    1    2    0    0 -0.50392302797E+03  0.13978632051E+03 -0.73956471994E+03  0.10937109346E+04  0.61300000000E+03 0.  1.
<mgrwt>
<rscale>  0 0.16115911E+04</rscale>
<asrwt>0</asrwt>
<pdfrwt beam="1">  1        2 0.26417346E+00 0.16115911E+04</pdfrwt>
<pdfrwt beam="2">  1       -2 0.50160803E-01 0.16115911E+04</pdfrwt>
<totfact> 0.34633318E+01</totfact>
</mgrwt>
</event>
<event>
 8    1  0.6972317E-052  0.1566634E+04  0.7818608E-02  0.8841312E-01
          2   -1    0    0  501    0  0.00000000000E+00  0.00000000000E+00  0.19253844533E+04  0.19253844533E+04  0.25500000000E-02 0.  1.
         -2   -1    0    0    0  501 -0.00000000000E+00 -0.00000000000E+00 -0.31868208486E+03  0.31868208487E+03  0.25500000000E-02 0. -1.
     200001    2    1    2    0    0 -0.48846678445E+03 -0.17101018056E+02  0.80539264258E+03  0.11230141214E+04  0.61123740388E+03 0.  0.
    5000001    2    3    3    0    0 -0.47081949355E+03  0.14162846845E+03  0.33366825060E+03  0.61484940528E+03  0.15803692963E+03 0.  0.
        -11    1    4    4    0    0 -0.45042081160E+03  0.10351205222E+03  0.31368205678E+03  0.55856072654E+03  0.51100000000E-03 0. -1.
     200002    1    4    4    0    0 -0.20398681952E+02  0.38116416227E+02  0.19986193814E+02  0.56288678742E+02  0.30000000000E+02 0.  1.
     200000    1    3    3    0    0 -0.17647290896E+02 -0.15872948651E+03  0.47172439198E+03  0.50816471616E+03  0.10100000000E+03 0.  1.
    -200001    1    1    2    0    0  0.48846678445E+03  0.17101018056E+02  0.80130972591E+03  0.11210524168E+04  0.61300000000E+03 0. -1.
<mgrwt>
<rscale>  0 0.15666340E+04</rscale>
<asrwt>0</asrwt>
<pdfrwt beam="1">  1        2 0.27505492E+00 0.15666340E+04</pdfrwt>
<pdfrwt beam="2">  1       -2 0.45526013E-01 0.15666340E+04</pdfrwt>
<totfact> 0.38623025E+01</totfact>
</mgrwt>
</event>
<event>
 8    1  0.6972317E-052  0.2244625E+04  0.7818608E-02  0.8500081E-01
         -2   -1    0    0    0  501 -0.00000000000E+00  0.00000000000E+00  0.11145388078E+04  0.11145388078E+04  0.25500000000E-02 0. -1.
          2   -1    0    0  501    0  0.00000000000E+00 -0.00000000000E+00 -0.11301401642E+04  0.11301401642E+04  0.25500000000E-02 0.  1.
     200001    2    1    2    0    0  0.53142701086E+03  0.76918042526E+03  0.91640226495E+02  0.11215926211E+04  0.61279595466E+03 0.  0.
    5000001    2    3    3    0    0  0.30794811406E+02  0.26844218716E+02 -0.14500742877E+03  0.18998178203E+03  0.11574536974E+03 0.  0.
        -11    1    4    4    0    0  0.56255625129E+02  0.25917143799E+01 -0.25446906948E+02  0.61797713676E+02  0.51100000000E-03 0. -1.
     200002    1    4    4    0    0 -0.25460813723E+02  0.24252504336E+02 -0.11956052182E+03  0.12818406835E+03  0.30000000000E+02 0. -1.
     200000    1    3    3    0    0  0.50063219945E+03  0.74233620655E+03  0.23664765526E+03  0.93161083904E+03  0.10100000000E+03 0. -1.
    -200001    1    1    2    0    0 -0.53142701086E+03 -0.76918042526E+03 -0.10724158290E+03  0.11230863509E+04  0.61300000000E+03 0.  1.
<mgrwt>
<rscale>  0 0.22446248E+04</rscale>
<asrwt>0</asrwt>
<pdfrwt beam="1">  1        2 0.16144859E+00 0.22446248E+04</pdfrwt>
<pdfrwt beam="2">  1       -2 0.15921983E+00 0.22446248E+04</pdfrwt>
<totfact> 0.54786074E+00</totfact>
</mgrwt>
</event>
<event>
 8    1  0.6972317E-052  0.1948650E+04  0.7818608E-02  0.8631012E-01
         -2   -1    0    0    0  501 -0.00000000000E+00  0.00000000000E+00  0.11662808336E+04  0.11662808336E+04  0.25500000000E-02 0. -1.
          2   -1    0    0  501    0  0.00000000000E+00 -0.00000000000E+00 -0.81396263304E+03  0.81396263305E+03  0.25500000000E-02 0.  1.
     200001    2    1    2    0    0  0.69004021864E+03  0.23392039220E+03  0.39092566448E+03  0.10272829273E+04  0.60960075817E+03 0.  0.
    5000001    2    3    3    0    0  0.51934657063E+03  0.39752067933E+03  0.39802534030E+03  0.77008109836E+03  0.82808064827E+02 0.  0.
        -11    1    4    4    0    0  0.56152235743E+02  0.68087864310E+02  0.73667153019E+02  0.11496034220E+03  0.51100000000E-03 0. -1.
     200002    1    4    4    0    0  0.46319433489E+03  0.32943281502E+03  0.32435818729E+03  0.65512075615E+03  0.30000000000E+02 0. -1.
     200000    1    3    3    0    0  0.17069364801E+03 -0.16360028713E+03 -0.70996758230E+01  0.25720182895E+03  0.10100000000E+03 0.  1.
    -200001    1    1    2    0    0 -0.69004021864E+03 -0.23392039220E+03 -0.38607463949E+02  0.95296053932E+03  0.61300000000E+03 0.  1.
<mgrwt>
<rscale>  0 0.19486498E+04</rscale>
<asrwt>0</asrwt>
<pdfrwt beam="1">  1        2 0.11628038E+00 0.19486498E+04</pdfrwt>
<pdfrwt beam="2">  1       -2 0.16661155E+00 0.19486498E+04</pdfrwt>
<totfact> 0.78394706E+00</totfact>
</mgrwt>
</event>
<event>
 8    1  0.6972317E-052  0.1683270E+04  0.7818608E-02  0.8770964E-01
         -2   -1    0    0    0  501 -0.00000000000E+00  0.00000000000E+00  0.65498960536E+03  0.65498960537E+03  0.25500000000E-02 0. -1.
          2   -1    0    0  501    0  0.00000000000E+00 -0.00000000000E+00 -0.10814665788E+04  0.10814665788E+04  0.25500000000E-02 0.  1.
     200001    2    1    2    0    0 -0.21667636461E+03 -0.52034285262E+03 -0.89162852783E+02  0.83798239642E+03  0.61364415677E+03 0.  0.
    5000001    2    3    3    0    0 -0.56965553735E+02  0.64729763369E+02 -0.17710246576E+03  0.21689312375E+03  0.90787263267E+02 0.  0.
        -11    1    4    4    0    0 -0.62008477676E+02  0.55124090733E+02 -0.82284017558E+02  0.11685194148E+03  0.51100000000E-03 0. -1.
     200002    1    4    4    0    0  0.50429239407E+01  0.96056726353E+01 -0.94818448207E+02  0.10004118226E+03  0.30000000000E+02 0. -1.
     200000    1    3    3    0    0 -0.15971081088E+03 -0.58507261599E+03  0.87939612982E+02  0.62108927267E+03  0.10100000000E+03 0.  1.
    -200001    1    1    2    0    0  0.21667636461E+03  0.52034285262E+03 -0.33731412064E+03  0.89847378773E+03  0.61300000000E+03 0.  1.
<mgrwt>
<rscale>  0 0.16832699E+04</rscale>
<asrwt>0</asrwt>
<pdfrwt beam="1">  1        2 0.15449522E+00 0.16832699E+04</pdfrwt>
<pdfrwt beam="2">  1       -2 0.93569944E-01 0.16832699E+04</pdfrwt>
<totfact> 0.23120599E+01</totfact>
</mgrwt>
</event>
<event>
 8    1  0.6972317E-052  0.1479796E+04  0.7818608E-02  0.8898000E-01
         -2   -1    0    0    0  501 -0.00000000000E+00  0.00000000000E+00  0.59525656629E+03  0.59525656630E+03  0.25500000000E-02 0. -1.
          2   -1    0    0  501    0  0.00000000000E+00 -0.00000000000E+00 -0.91968641075E+03  0.91968641076E+03  0.25500000000E-02 0.  1.
     200001    2    1    2    0    0 -0.36945163125E+02  0.63566263795E+02  0.25517315435E+03  0.66811699068E+03  0.61307532943E+03 0.  0.
    5000001    2    3    3    0    0  0.13650217422E+03  0.22554725197E+03  0.49251443903E+02  0.33807673526E+03  0.20582946281E+03 0.  0.
        -11    1    4    4    0    0  0.35937020909E+02  0.22363725295E+03  0.12442688141E+02  0.22684777025E+03  0.51100000000E-03 0. -1.
     200002    1    4    4    0    0  0.10056515331E+03  0.19099990227E+01  0.36808755762E+02  0.11122896501E+03  0.30000000000E+02 0. -1.
     200000    1    3    3    0    0 -0.17344733735E+03 -0.16198098817E+03  0.20592171045E+03  0.33004025542E+03  0.10100000000E+03 0. -1.
    -200001    1    1    2    0    0  0.36945163125E+02 -0.63566263795E+02 -0.57960299881E+03  0.84682598638E+03  0.61300000000E+03 0.  1.
<mgrwt>
<rscale>  0 0.14797964E+04</rscale>
<asrwt>0</asrwt>
<pdfrwt beam="1">  1        2 0.13138377E+00 0.14797964E+04</pdfrwt>
<pdfrwt beam="2">  1       -2 0.85036652E-01 0.14797964E+04</pdfrwt>
<totfact> 0.36851290E+01</totfact>
</mgrwt>
</event>
<event>
 8    1  0.6972317E-052  0.1395134E+04  0.7818608E-02  0.8957349E-01
          2   -1    0    0  501    0  0.00000000000E+00  0.00000000000E+00  0.17664598514E+04  0.17664598514E+04  0.25500000000E-02 0.  1.
         -2   -1    0    0    0  501 -0.00000000000E+00 -0.00000000000E+00 -0.27546596267E+03  0.27546596268E+03  0.25500000000E-02 0. -1.
     200001    2    1    2    0    0 -0.10801887420E+03 -0.31423850763E+03  0.71870953961E+03  0.10014422569E+04  0.61313071586E+03 0.  0.
    5000001    2    3    3    0    0 -0.29604998982E+01  0.14891289441E+03  0.35549540259E+03  0.39508263379E+03  0.86772643046E+02 0.  0.
        -11    1    4    4    0    0  0.13726784696E+02  0.30629236686E+02  0.23488879717E+02  0.40967087139E+02  0.51100000000E-03 0. -1.
     200002    1    4    4    0    0 -0.16687284594E+02  0.11828365772E+03  0.33200652287E+03  0.35411554665E+03  0.30000000000E+02 0. -1.
     200000    1    3    3    0    0 -0.10505837430E+03 -0.46315140203E+03  0.36321413702E+03  0.60635962312E+03  0.10100000000E+03 0. -1.
    -200001    1    1    2    0    0  0.10801887420E+03  0.31423850763E+03  0.77228434910E+03  0.10404835572E+04  0.61300000000E+03 0. -1.
<mgrwt>
<rscale>  0 0.13951338E+04</rscale>
<asrwt>0</asrwt>
<pdfrwt beam="1">  1        2 0.25235140E+00 0.13951338E+04</pdfrwt>
<pdfrwt beam="2">  1       -2 0.39352281E-01 0.13951338E+04</pdfrwt>
<totfact> 0.63018733E+01</totfact>
</mgrwt>
</event>
<event>
 8    1  0.6972317E-052  0.1333174E+04  0.7818608E-02  0.9003664E-01
          2   -1    0    0  501    0  0.00000000000E+00  0.00000000000E+00  0.88658332814E+03  0.88658332815E+03  0.25500000000E-02 0.  1.
         -2   -1    0    0    0  501 -0.00000000000E+00 -0.00000000000E+00 -0.50118023986E+03  0.50118023987E+03  0.25500000000E-02 0. -1.
     200001    2    1    2    0    0  0.17615510353E+03  0.31560784978E+02  0.39193101329E+03  0.74914136557E+03  0.61284269008E+03 0.  0.
    5000001    2    3    3    0    0  0.29284450196E+03  0.15786155153E+03  0.38702170011E+02  0.34350616608E+03  0.76291915653E+02 0.  0.
        -11    1    4    4    0    0  0.20809895222E+03  0.10146881898E+03  0.49769994069E+02  0.23680825039E+03  0.51100000000E-03 0. -1.
     200002    1    4    4    0    0  0.84745549738E+02  0.56392732542E+02 -0.11067824058E+02  0.10669791569E+03  0.30000000000E+02 0. -1.
     200000    1    3    3    0    0 -0.11668939843E+03 -0.12630076655E+03  0.35322884328E+03  0.40563519949E+03  0.10100000000E+03 0.  1.
    -200001    1    1    2    0    0 -0.17615510353E+03 -0.31560784978E+02 -0.65279250087E+01  0.63862220244E+03  0.61300000000E+03 0. -1.
<mgrwt>
<rscale>  0 0.13331737E+04</rscale>
<asrwt>0</asrwt>
<pdfrwt beam="1">  1        2 0.12665476E+00 0.13331737E+04</pdfrwt>
<pdfrwt beam="2">  1       -2 0.71597178E-01 0.13331737E+04</pdfrwt>
<totfact> 0.57501694E+01</totfact>
</mgrwt>
</event>
<event>
 8    1  0.6972317E-052  0.1526034E+04  0.7818608E-02  0.8867323E-01
          2   -1    0    0  501    0  0.00000000000E+00  0.00000000000E+00  0.24551356205E+04  0.24551356205E+04  0.25500000000E-02 0.  1.
         -2   -1    0    0    0  501 -0.00000000000E+00 -0.00000000000E+00 -0.23713363466E+03  0.23713363468E+03  0.25500000000E-02 0. -1.
     200001    2    1    2    0    0 -0.35878930897E+03  0.89800362173E+02  0.15749257144E+04  0.17299231822E+04  0.61273920813E+03 0.  0.
    5000001    2    3    3    0    0 -0.46983597337E+03 -0.78343797580E+02  0.11743292776E+04  0.12702686105E+04  0.87461408876E+02 0.  0.
        -11    1    4    4    0    0 -0.15178692217E+03 -0.47581874565E+02  0.31325768804E+03  0.35133130183E+03  0.51100000000E-03 0. -1.
     200002    1    4    4    0    0 -0.31804905120E+03 -0.30761923015E+02  0.86107158955E+03  0.91893730864E+03  0.30000000000E+02 0. -1.
     200000    1    3    3    0    0  0.11104666441E+03  0.16814415975E+03  0.40059643685E+03  0.45965457177E+03  0.10100000000E+03 0. -1.
    -200001    1    1    2    0    0  0.35878930897E+03 -0.89800362173E+02  0.64307627141E+03  0.96234607295E+03  0.61300000000E+03 0.  1.
<mgrwt>
<rscale>  0 0.15260344E+04</rscale>
<asrwt>0</asrwt>
<pdfrwt beam="1">  1        2 0.35073366E+00 0.15260344E+04</pdfrwt>
<pdfrwt beam="2">  1       -2 0.33876233E-01 0.15260344E+04</pdfrwt>
<totfact> 0.36701145E+01</totfact>
</mgrwt>
</event>
<event>
 8    1  0.6972317E-052  0.1441283E+04  0.7818608E-02  0.8924466E-01
          2   -1    0    0  501    0  0.00000000000E+00  0.00000000000E+00  0.14925665041E+04  0.14925665041E+04  0.25500000000E-02 0.  1.
         -2   -1    0    0    0  501 -0.00000000000E+00 -0.00000000000E+00 -0.34794028676E+03  0.34794028676E+03  0.25500000000E-02 0. -1.
     200001    2    1    2    0    0  0.12893878545E+03  0.24171679741E+03  0.23785021123E+03  0.71220543670E+03  0.61287163463E+03 0.  0.
    5000001    2    3    3    0    0 -0.37545125444E+02  0.36347116717E+03  0.29695836290E+03  0.47506456563E+03  0.63096326414E+02 0.  0.
        -11    1    4    4    0    0 -0.10268338084E+02  0.13500848411E+02  0.23984716068E+02  0.29376491961E+02  0.51100000000E-03 0. -1.
     200002    1    4    4    0    0 -0.27276787360E+02  0.34997031876E+03  0.27297364684E+03  0.44568807366E+03  0.30000000000E+02 0. -1.
     200000    1    3    3    0    0  0.16648391089E+03 -0.12175436976E+03 -0.59108151670E+02  0.23714087107E+03  0.10100000000E+03 0. -1.
    -200001    1    1    2    0    0 -0.12893878545E+03 -0.24171679741E+03  0.90677600607E+03  0.11283013541E+04  0.61300000000E+03 0.  1.
<mgrwt>
<rscale>  0 0.14412828E+04</rscale>
<asrwt>0</asrwt>
<pdfrwt beam="1">  1        2 0.21322378E+00 0.14412828E+04</pdfrwt>
<pdfrwt beam="2">  1       -2 0.49705756E-01 0.14412828E+04</pdfrwt>
<totfact> 0.54884918E+01</totfact>
</mgrwt>
</event>
<event>
 8    1  0.6972317E-052  0.1931177E+04  0.7818608E-02  0.8639491E-01
          2   -1    0    0  501    0  0.00000000000E+00  0.00000000000E+00  0.69539168436E+03  0.69539168436E+03  0.25500000000E-02 0.  1.
         -2   -1    0    0    0  501 -0.00000000000E+00 -0.00000000000E+00 -0.13407712983E+04  0.13407712983E+04  0.25500000000E-02 0. -1.
     200001    2    1    2    0    0 -0.42318825665E+03  0.56093418204E+02  0.32314099319E+03  0.81303750318E+03  0.61186200075E+03 0.  0.
    5000001    2    3    3    0    0 -0.18913957975E+03 -0.19468993049E+03  0.17656637425E+03  0.42657121738E+03  0.27768573842E+03 0.  0.
        -11    1    4    4    0    0  0.25514622329E+01 -0.11548097297E+03  0.18356614521E+03  0.21688451938E+03  0.51100000000E-03 0. -1.
     200002    1    4    4    0    0 -0.19169104198E+03 -0.79208957521E+02 -0.69997709563E+01  0.20968669801E+03  0.30000000000E+02 0. -1.
     200000    1    3    3    0    0 -0.23404867690E+03  0.25078334869E+03  0.14657461893E+03  0.38646628579E+03  0.10100000000E+03 0.  1.
    -200001    1    1    2    0    0  0.42318825665E+03 -0.56093418204E+02 -0.96852060709E+03  0.12231254795E+04  0.61300000000E+03 0. -1.
<mgrwt>
<rscale>  0 0.19311771E+04</rscale>
<asrwt>0</asrwt>
<pdfrwt beam="1">  1        2 0.99341670E-01 0.19311771E+04</pdfrwt>
<pdfrwt beam="2">  1       -2 0.19153876E+00 0.19311771E+04</pdfrwt>
<totfact> 0.64344185E+00</totfact>
</mgrwt>
</event>
<event>
 8    1  0.6972317E-052  0.1607452E+04  0.7818608E-02  0.8815983E-01
          2   -1    0    0  501    0  0.00000000000E+00  0.00000000000E+00  0.24874883262E+04  0.24874883262E+04  0.25500000000E-02 0.  1.
         -2   -1    0    0    0  501 -0.00000000000E+00 -0.00000000000E+00 -0.25968999968E+03  0.25968999969E+03  0.25500000000E-02 0. -1.
     200001    2    1    2    0    0 -0.15519170213E+03  0.12042117702E+03  0.28524821366E+03  0.70075323192E+03  0.60918209458E+03 0.  0.
    5000001    2    3    3    0    0 -0.17776898430E+03  0.67199745065E+02  0.45169391695E+03  0.49765860709E+03  0.86712612048E+02 0.  0.
        -11    1    4    4    0    0 -0.12779355662E+03  0.77332070449E+02  0.33640056106E+03  0.36807170459E+03  0.51100000000E-03 0. -1.
     200002    1    4    4    0    0 -0.49975427678E+02 -0.10132325385E+02  0.11529335589E+03  0.12958690251E+03  0.30000000000E+02 0. -1.
     200000    1    3    3    0    0  0.22577282163E+02  0.53221431960E+02 -0.16644570329E+03  0.20309462483E+03  0.10100000000E+03 0. -1.
    -200001    1    1    2    0    0  0.15519170213E+03 -0.12042117702E+03  0.19425501129E+04  0.20464250940E+04  0.61300000000E+03 0.  1.
<mgrwt>
<rscale>  0 0.16074524E+04</rscale>
<asrwt>0</asrwt>
<pdfrwt beam="1">  1        2 0.35535549E+00 0.16074524E+04</pdfrwt>
<pdfrwt beam="2">  1       -2 0.37098570E-01 0.16074524E+04</pdfrwt>
<totfact> 0.29462228E+01</totfact>
</mgrwt>
</event>
<event>
 8    1  0.6972317E-052  0.1552006E+04  0.7818608E-02  0.8850587E-01
          2   -1    0    0  501    0  0.00000000000E+00  0.00000000000E+00  0.17749535983E+04  0.17749535983E+04  0.25500000000E-02 0.  1.
         -2   -1    0    0    0  501 -0.00000000000E+00 -0.00000000000E+00 -0.33926572608E+03  0.33926572609E+03  0.25500000000E-02 0. -1.
     200001    2    1    2    0    0  0.10400972576E+03 -0.24238413500E+03  0.17560381551E+03  0.68833401275E+03  0.61106376193E+03 0.  0.
    5000001    2    3    3    0    0  0.49877503224E+02 -0.28141461408E+03  0.36257176843E+03  0.46559719219E+03  0.60336620478E+02 0.  0.
        -11    1    4    4    0    0  0.46316560739E+02 -0.19850874233E+03  0.25046804847E+03  0.32293217226E+03  0.51100000000E-03 0. -1.
     200002    1    4    4    0    0  0.35609424842E+01 -0.82905871755E+02  0.11210371996E+03  0.14266501993E+03  0.30000000000E+02 0.  1.
     200000    1    3    3    0    0  0.54132222533E+02  0.39030479083E+02 -0.18696795292E+03  0.22273682056E+03  0.10100000000E+03 0. -1.
    -200001    1    1    2    0    0 -0.10400972576E+03  0.24238413500E+03  0.12600840567E+04  0.14258853116E+04  0.61300000000E+03 0.  1.
<mgrwt>
<rscale>  0 0.15520063E+04</rscale>
<asrwt>0</asrwt>
<pdfrwt beam="1">  1        2 0.25356481E+00 0.15520063E+04</pdfrwt>
<pdfrwt beam="2">  1       -2 0.48466531E-01 0.15520063E+04</pdfrwt>
<totfact> 0.40754607E+01</totfact>
</mgrwt>
</event>
<event>
 8    1  0.6972317E-052  0.1610187E+04  0.7818608E-02  0.8814314E-01
          2   -1    0    0  501    0  0.00000000000E+00  0.00000000000E+00  0.17827064961E+04  0.17827064961E+04  0.25500000000E-02 0.  1.
         -2   -1    0    0    0  501 -0.00000000000E+00 -0.00000000000E+00 -0.36359077321E+03  0.36359077322E+03  0.25500000000E-02 0. -1.
     200001    2    1    2    0    0  0.64280011285E+02  0.17298088938E+03  0.13605104813E+04  0.15034459006E+04  0.61262263946E+03 0.  0.
    5000001    2    3    3    0    0 -0.10993736320E+03  0.31487001463E+03  0.49982748806E+03  0.60820267539E+03  0.94093711755E+02 0.  0.
        -11    1    4    4    0    0 -0.11146066391E+03  0.21518578994E+03  0.34363748572E+03  0.42049390648E+03  0.51100000000E-03 0. -1.
     200002    1    4    4    0    0  0.15233007034E+01  0.99684224688E+02  0.15619000234E+03  0.18770876891E+03  0.30000000000E+02 0. -1.
     200000    1    3    3    0    0  0.17421737449E+03 -0.14188912525E+03  0.86068299326E+03  0.89524322523E+03  0.10100000000E+03 0.  1.
    -200001    1    1    2    0    0 -0.64280011285E+02 -0.17298088938E+03  0.58605241602E+02  0.64285136873E+03  0.61300000000E+03 0. -1.
<mgrwt>
<rscale>  0 0.16101871E+04</rscale>
<asrwt>0</asrwt>
<pdfrwt beam="1">  1        2 0.25467235E+00 0.16101871E+04</pdfrwt>
<pdfrwt beam="2">  1       -2 0.51941540E-01 0.16101871E+04</pdfrwt>
<totfact> 0.34905243E+01</totfact>
</mgrwt>
</event>
<event>
 8    1  0.6972317E-052  0.1709285E+04  0.7818608E-02  0.8756086E-01
         -2   -1    0    0    0  501 -0.00000000000E+00  0.00000000000E+00  0.15187780918E+04  0.15187780918E+04  0.25500000000E-02 0. -1.
          2   -1    0    0  501    0  0.00000000000E+00 -0.00000000000E+00 -0.48092201323E+03  0.48092201323E+03  0.25500000000E-02 0.  1.
     200001    2    1    2    0    0 -0.26712102457E+03 -0.72643293394E+02 -0.97624590722E+02  0.67995920616E+03  0.61333781188E+03 0.  0.
    5000001    2    3    3    0    0 -0.11691287792E+03  0.24697362517E+02  0.24283980235E+03  0.28227252853E+03  0.80174996230E+02 0.  0.
        -11    1    4    4    0    0 -0.13022786728E+02  0.13386322785E+02  0.29676367243E+01  0.18910142249E+02  0.51100000000E-03 0. -1.
     200002    1    4    4    0    0 -0.10389009119E+03  0.11311039732E+02  0.23987216562E+03  0.26336238628E+03  0.30000000000E+02 0. -1.
     200000    1    3    3    0    0 -0.15020814665E+03 -0.97340655911E+02 -0.34046439307E+03  0.39768667762E+03  0.10100000000E+03 0.  1.
    -200001    1    1    2    0    0  0.26712102457E+03  0.72643293394E+02  0.11354806693E+04  0.13197408989E+04  0.61300000000E+03 0. -1.
<mgrwt>
<rscale>  0 0.17092850E+04</rscale>
<asrwt>0</asrwt>
<pdfrwt beam="1">  1        2 0.68703145E-01 0.17092850E+04</pdfrwt>
<pdfrwt beam="2">  1       -2 0.21696830E+00 0.17092850E+04</pdfrwt>
<totfact> 0.69098961E+00</totfact>
</mgrwt>
</event>
<event>
 8    1  0.6972317E-052  0.1519399E+04  0.7818608E-02  0.8871654E-01
         -2   -1    0    0    0  501 -0.00000000000E+00  0.00000000000E+00  0.33953095993E+03  0.33953095994E+03  0.25500000000E-02 0. -1.
          2   -1    0    0  501    0  0.00000000000E+00 -0.00000000000E+00 -0.16998247782E+04  0.16998247782E+04  0.25500000000E-02 0.  1.
     200001    2    1    2    0    0 -0.20476505206E+02  0.16848757041E+03 -0.12376887266E+04  0.13915838978E+04  0.61304568504E+03 0.  0.
    5000001    2    3    3    0    0  0.68621171723E+02  0.26793836440E+02 -0.11838719679E+04  0.11888210960E+04  0.79473183886E+02 0.  0.
        -11    1    4    4    0    0  0.30303758829E+01  0.14028057245E+01 -0.10078822300E+01  0.34881038893E+01  0.51100000000E-03 0. -1.
     200002    1    4    4    0    0  0.65590795841E+02  0.25391030715E+02 -0.11828640857E+04  0.11853329921E+04  0.30000000000E+02 0. -1.
     200000    1    3    3    0    0 -0.89097676930E+02  0.14169373397E+03 -0.53816758700E+02  0.20276280181E+03  0.10100000000E+03 0. -1.
    -200001    1    1    2    0    0  0.20476505206E+02 -0.16848757041E+03 -0.12260509165E+03  0.64777184035E+03  0.61300000000E+03 0. -1.
<mgrwt>
<rscale>  0 0.15193987E+04</rscale>
<asrwt>0</asrwt>
<pdfrwt beam="1">  1        2 0.24283211E+00 0.15193987E+04</pdfrwt>
<pdfrwt beam="2">  1       -2 0.48504424E-01 0.15193987E+04</pdfrwt>
<totfact> 0.44620524E+01</totfact>
</mgrwt>
</event>
<event>
 8    1  0.6972317E-052  0.1443543E+04  0.7818608E-02  0.8922889E-01
         -2   -1    0    0    0  501 -0.00000000000E+00  0.00000000000E+00  0.87693305592E+03  0.87693305592E+03  0.25500000000E-02 0. -1.
          2   -1    0    0  501    0  0.00000000000E+00 -0.00000000000E+00 -0.59406352715E+03  0.59406352716E+03  0.25500000000E-02 0.  1.
     200001    2    1    2    0    0  0.63638837498E+02  0.22800627346E+03  0.44628521460E+03  0.79386258693E+03  0.61238105112E+03 0.  0.
    5000001    2    3    3    0    0 -0.20735226237E+03  0.95596889863E+02 -0.27352456604E+01  0.24360010883E+03  0.84851666968E+02 0.  0.
        -11    1    4    4    0    0 -0.17209904938E+03  0.60945023912E+02 -0.18933685312E+02  0.18355071010E+03  0.51100000000E-03 0. -1.
     200002    1    4    4    0    0 -0.35253212991E+02  0.34651865951E+02  0.16198439652E+02  0.60049398725E+02  0.30000000000E+02 0. -1.
     200000    1    3    3    0    0  0.27099109987E+03  0.13240938360E+03  0.44902046026E+03  0.55026247810E+03  0.10100000000E+03 0. -1.
    -200001    1    1    2    0    0 -0.63638837498E+02 -0.22800627346E+03 -0.16341568583E+03  0.67713399616E+03  0.61300000000E+03 0.  1.
<mgrwt>
<rscale>  0 0.14435428E+04</rscale>
<asrwt>0</asrwt>
<pdfrwt beam="1">  1        2 0.84866219E-01 0.14435428E+04</pdfrwt>
<pdfrwt beam="2">  1       -2 0.12527615E+00 0.14435428E+04</pdfrwt>
<totfact> 0.25441617E+01</totfact>
</mgrwt>
</event>
<event>
 8    1  0.6972317E-052  0.1305683E+04  0.7818608E-02  0.9025070E-01
          2   -1    0    0  501    0  0.00000000000E+00  0.00000000000E+00  0.97479843841E+03  0.97479843842E+03  0.25500000000E-02 0.  1.
         -2   -1    0    0    0  501 -0.00000000000E+00 -0.00000000000E+00 -0.43722093404E+03  0.43722093404E+03  0.25500000000E-02 0. -1.
     200001    2    1    2    0    0 -0.11956210524E+03 -0.28538275914E+02  0.65397297009E+02  0.62854462594E+03  0.61292904169E+03 0.  0.
    5000001    2    3    3    0    0 -0.31970118465E+03 -0.26746306853E+02  0.18177140030E+03  0.37595247606E+03  0.73315822939E+02 0.  0.
        -11    1    4    4    0    0 -0.14002965869E+03 -0.41218964928E+02  0.71704109310E+02  0.16263083248E+03  0.51100000000E-03 0. -1.
     200002    1    4    4    0    0 -0.17967152597E+03  0.14472658075E+02  0.11006729099E+03  0.21332164358E+03  0.30000000000E+02 0. -1.
     200000    1    3    3    0    0  0.20013907942E+03 -0.17919690607E+01 -0.11637410329E+03  0.25259214988E+03  0.10100000000E+03 0. -1.
    -200001    1    1    2    0    0  0.11956210524E+03  0.28538275914E+02  0.47218020737E+03  0.78347474652E+03  0.61300000000E+03 0.  1.
<mgrwt>
<rscale>  0 0.13056834E+04</rscale>
<asrwt>0</asrwt>
<pdfrwt beam="1">  1        2 0.13925692E+00 0.13056834E+04</pdfrwt>
<pdfrwt beam="2">  1       -2 0.62460134E-01 0.13056834E+04</pdfrwt>
<totfact> 0.67917162E+01</totfact>
</mgrwt>
</event>
<event>
 8    1  0.6972317E-052  0.1600071E+04  0.7818608E-02  0.8820504E-01
         -2   -1    0    0    0  501 -0.00000000000E+00  0.00000000000E+00  0.28849145223E+03  0.28849145224E+03  0.25500000000E-02 0. -1.
          2   -1    0    0  501    0  0.00000000000E+00 -0.00000000000E+00 -0.22186340284E+04  0.22186340284E+04  0.25500000000E-02 0.  1.
     200001    2    1    2    0    0  0.20784363831E+03 -0.27628756345E+03 -0.36812338576E+03  0.79388097185E+03  0.61253438648E+03 0.  0.
    5000001    2    3    3    0    0  0.17696992068E+03  0.11818435290E+03  0.18632439863E+02  0.23143777660E+03  0.89052695208E+02 0.  0.
        -11    1    4    4    0    0  0.69804142189E+02  0.62956490617E+02  0.45338895284E+02  0.10436356358E+03  0.51100000000E-03 0. -1.
     200002    1    4    4    0    0  0.10716577849E+03  0.55227862286E+02 -0.26706455420E+02  0.12707421302E+03  0.30000000000E+02 0. -1.
     200000    1    3    3    0    0  0.30873717628E+02 -0.39447191635E+03 -0.38675582562E+03  0.56244319525E+03  0.10100000000E+03 0.  1.
    -200001    1    1    2    0    0 -0.20784363831E+03  0.27628756345E+03 -0.15620191904E+04  0.17132445088E+04  0.61300000000E+03 0.  1.
<mgrwt>
<rscale>  0 0.16000712E+04</rscale>
<asrwt>0</asrwt>
<pdfrwt beam="1">  1        2 0.31694771E+00 0.16000712E+04</pdfrwt>
<pdfrwt beam="2">  1       -2 0.41213066E-01 0.16000712E+04</pdfrwt>
<totfact> 0.33150447E+01</totfact>
</mgrwt>
</event>
<event>
 8    1  0.6972317E-052  0.1693774E+04  0.7818608E-02  0.8764923E-01
          2   -1    0    0  501    0  0.00000000000E+00  0.00000000000E+00  0.36702609264E+03  0.36702609265E+03  0.25500000000E-02 0.  1.
         -2   -1    0    0    0  501 -0.00000000000E+00 -0.00000000000E+00 -0.19541327688E+04  0.19541327688E+04  0.25500000000E-02 0. -1.
     200001    2    1    2    0    0  0.46676880758E+03 -0.35100718864E+03 -0.81012746554E+03  0.11720092368E+04  0.61336773180E+03 0.  0.
    5000001    2    3    3    0    0  0.11337317467E+03  0.73138503983E+02 -0.51103910820E+03  0.53605099330E+03  0.89369904351E+02 0.  0.
        -11    1    4    4    0    0  0.72384384639E+02  0.60823490669E+02 -0.42492930221E+03  0.43532046590E+03  0.51100000000E-03 0. -1.
     200002    1    4    4    0    0  0.40988790035E+02  0.12315013314E+02 -0.86109805992E+02  0.10073052740E+03  0.30000000000E+02 0. -1.
     200000    1    3    3    0    0  0.35339563291E+03 -0.42414569262E+03 -0.29908835734E+03  0.63595824346E+03  0.10100000000E+03 0. -1.
    -200001    1    1    2    0    0 -0.46676880758E+03  0.35100718864E+03 -0.77697921066E+03  0.11491496247E+04  0.61300000000E+03 0.  1.
<mgrwt>
<rscale>  0 0.16937741E+04</rscale>
<asrwt>0</asrwt>
<pdfrwt beam="1">  1        2 0.52432300E-01 0.16937741E+04</pdfrwt>
<pdfrwt beam="2">  1       -2 0.27916182E+00 0.16937741E+04</pdfrwt>
<totfact> 0.38779127E+00</totfact>
</mgrwt>
</event>
<event>
 8    1  0.6972317E-052  0.1363187E+04  0.7818608E-02  0.8980906E-01
         -2   -1    0    0    0  501 -0.00000000000E+00  0.00000000000E+00  0.21767769958E+03  0.21767769960E+03  0.25500000000E-02 0. -1.
          2   -1    0    0  501    0  0.00000000000E+00 -0.00000000000E+00 -0.21342076317E+04  0.21342076317E+04  0.25500000000E-02 0.  1.
     200001    2    1    2    0    0  0.25879436698E+03  0.76670125082E+01 -0.12129868032E+04  0.13834973710E+04  0.61293937977E+03 0.  0.
    5000001    2    3    3    0    0 -0.11623497950E+03 -0.18198037086E+03 -0.50372420845E+03  0.55291470257E+03  0.73137981242E+02 0.  0.
        -11    1    4    4    0    0 -0.33054310691E+02 -0.45806238601E+02 -0.20817870488E+03  0.21570621715E+03  0.51100000000E-03 0. -1.
     200002    1    4    4    0    0 -0.83180668804E+02 -0.13617413226E+03 -0.29554550357E+03  0.33720848542E+03  0.30000000000E+02 0. -1.
     200000    1    3    3    0    0  0.37502934648E+03  0.18964738337E+03 -0.70926259477E+03  0.83058266842E+03  0.10100000000E+03 0.  1.
    -200001    1    1    2    0    0 -0.25879436698E+03 -0.76670125082E+01 -0.70354312889E+03  0.96838796031E+03  0.61300000000E+03 0. -1.
<mgrwt>
<rscale>  0 0.13631866E+04</rscale>
<asrwt>0</asrwt>
<pdfrwt beam="1">  1        2 0.30488679E+00 0.13631866E+04</pdfrwt>
<pdfrwt beam="2">  1       -2 0.31096816E-01 0.13631866E+04</pdfrwt>
<totfact> 0.64081885E+01</totfact>
</mgrwt>
</event>
<event>
 8    1  0.6972317E-052  0.1336642E+04  0.7818608E-02  0.9001002E-01
          2   -1    0    0  501    0  0.00000000000E+00  0.00000000000E+00  0.29694869877E+04  0.29694869877E+04  0.25500000000E-02 0.  1.
         -2   -1    0    0    0  501 -0.00000000000E+00 -0.00000000000E+00 -0.15041413183E+03  0.15041413185E+03  0.25500000000E-02 0. -1.
     200001    2    1    2    0    0  0.20451084946E+03  0.10969428319E+03  0.17099631750E+04  0.18315879560E+04  0.61390785730E+03 0.  0.
    5000001    2    3    3    0    0 -0.26911182503E+02 -0.12625643837E+03  0.12320076292E+04  0.12417817135E+04  0.86684056160E+02 0.  0.
        -11    1    4    4    0    0 -0.50127745053E+01 -0.56420455802E+02  0.83803893192E+03  0.83995097902E+03  0.51100000000E-03 0. -1.
     200002    1    4    4    0    0 -0.21898407998E+02 -0.69835982567E+02  0.39396869731E+03  0.40183073451E+03  0.30000000000E+02 0.  1.
     200000    1    3    3    0    0  0.23142203196E+03  0.23595072156E+03  0.47795554577E+03  0.58980624244E+03  0.10100000000E+03 0. -1.
    -200001    1    1    2    0    0 -0.20451084946E+03 -0.10969428319E+03  0.11091096809E+04  0.12883131636E+04  0.61300000000E+03 0. -1.
<mgrwt>
<rscale>  0 0.13366418E+04</rscale>
<asrwt>0</asrwt>
<pdfrwt beam="1">  1        2 0.42421242E+00 0.13366418E+04</pdfrwt>
<pdfrwt beam="2">  1       -2 0.21487734E-01 0.13366418E+04</pdfrwt>
<totfact> 0.45531499E+01</totfact>
</mgrwt>
</event>
<event>
 8    1  0.6972317E-052  0.1654396E+04  0.7818608E-02  0.8787810E-01
         -2   -1    0    0    0  501 -0.00000000000E+00  0.00000000000E+00  0.27851243148E+03  0.27851243149E+03  0.25500000000E-02 0. -1.
          2   -1    0    0  501    0  0.00000000000E+00 -0.00000000000E+00 -0.24568255942E+04  0.24568255942E+04  0.25500000000E-02 0.  1.
     200001    2    1    2    0    0 -0.18763788569E+03 -0.19018592176E+03 -0.18940511782E+04  0.20087346010E+04  0.61335647911E+03 0.  0.
    5000001    2    3    3    0    0 -0.18101671682E+03 -0.26992230833E+02 -0.14730223059E+03  0.25146145582E+03  0.89662056260E+02 0.  0.
        -11    1    4    4    0    0 -0.95577386027E+02 -0.26594876211E+02 -0.30747752780E+02  0.10386408649E+03  0.51100000000E-03 0. -1.
     200002    1    4    4    0    0 -0.85439330796E+02 -0.39735462197E+00 -0.11655447781E+03  0.14759736933E+03  0.30000000000E+02 0. -1.
     200000    1    3    3    0    0 -0.66211688698E+01 -0.16319369093E+03 -0.17467489476E+04  0.17572731452E+04  0.10100000000E+03 0.  1.
    -200001    1    1    2    0    0  0.18763788569E+03  0.19018592176E+03 -0.28426198450E+03  0.72660342472E+03  0.61300000000E+03 0.  1.
<mgrwt>
<rscale>  0 0.16543959E+04</rscale>
<asrwt>0</asrwt>
<pdfrwt beam="1">  1        2 0.35097507E+00 0.16543959E+04</pdfrwt>
<pdfrwt beam="2">  1       -2 0.39787492E-01 0.16543959E+04</pdfrwt>
<totfact> 0.26587907E+01</totfact>
</mgrwt>
</event>
<event>
 8    1  0.6972317E-052  0.2211655E+04  0.7818608E-02  0.8513593E-01
          2   -1    0    0  501    0  0.00000000000E+00  0.00000000000E+00  0.67801574817E+03  0.67801574817E+03  0.25500000000E-02 0.  1.
         -2   -1    0    0    0  501 -0.00000000000E+00 -0.00000000000E+00 -0.18035779962E+04  0.18035779962E+04  0.25500000000E-02 0. -1.
     200001    2    1    2    0    0 -0.47417877508E+02  0.64574225804E+03  0.17115038800E+03  0.90791519417E+03  0.61301388693E+03 0.  0.
    5000001    2    3    3    0    0  0.15405860484E+03  0.40656784876E+03  0.31935354809E+03  0.54741228482E+03  0.92962635065E+02 0.  0.
        -11    1    4    4    0    0  0.78740305939E+02  0.28663651555E+03  0.24181826555E+03  0.38319264265E+03  0.51100000000E-03 0. -1.
     200002    1    4    4    0    0  0.75318298899E+02  0.11993133321E+03  0.77535282539E+02  0.16421964217E+03  0.30000000000E+02 0.  1.
     200000    1    3    3    0    0 -0.20147648235E+03  0.23917440928E+03 -0.14820316010E+03  0.36050290936E+03  0.10100000000E+03 0. -1.
    -200001    1    1    2    0    0  0.47417877508E+02 -0.64574225804E+03 -0.12967126360E+04  0.15736785502E+04  0.61300000000E+03 0. -1.
<mgrwt>
<rscale>  0 0.22116548E+04</rscale>
<asrwt>0</asrwt>
<pdfrwt beam="1">  1        2 0.96859394E-01 0.22116548E+04</pdfrwt>
<pdfrwt beam="2">  1       -2 0.25765400E+00 0.22116548E+04</pdfrwt>
<totfact> 0.24750564E+00</totfact>
</mgrwt>
</event>
<event>
 8    1  0.6972317E-052  0.1414149E+04  0.7818608E-02  0.8943640E-01
          2   -1    0    0  501    0  0.00000000000E+00  0.00000000000E+00  0.15145139948E+04  0.15145139948E+04  0.25500000000E-02 0.  1.
         -2   -1    0    0    0  501 -0.00000000000E+00 -0.00000000000E+00 -0.33010895980E+03  0.33010895981E+03  0.25500000000E-02 0. -1.
     200001    2    1    2    0    0 -0.30212268516E+03  0.55808574895E+02  0.36821153940E+03  0.77863349117E+03  0.61343105718E+03 0.  0.
    5000001    2    3    3    0    0 -0.37793725717E+03 -0.13470320474E+03  0.36132612287E+03  0.54996124435E+03  0.10449535632E+03 0.  0.
        -11    1    4    4    0    0 -0.13742805101E+03 -0.18140407304E+02  0.76926064484E+02  0.15853442206E+03  0.51100000000E-03 0. -1.
     200002    1    4    4    0    0 -0.24050920616E+03 -0.11656279743E+03  0.28440005839E+03  0.39142682228E+03  0.30000000000E+02 0. -1.
     200000    1    3    3    0    0  0.75814572009E+02  0.19051177963E+03  0.68854165335E+01  0.22867224683E+03  0.10100000000E+03 0. -1.
    -200001    1    1    2    0    0  0.30212268516E+03 -0.55808574895E+02  0.81619349562E+03  0.10659894635E+04  0.61300000000E+03 0. -1.
<mgrwt>
<rscale>  0 0.14141494E+04</rscale>
<asrwt>0</asrwt>
<pdfrwt beam="1">  1        2 0.21635915E+00 0.14141494E+04</pdfrwt>
<pdfrwt beam="2">  1       -2 0.47158422E-01 0.14141494E+04</pdfrwt>
<totfact> 0.59554985E+01</totfact>
</mgrwt>
</event>
<event>
 8    1  0.6972317E-052  0.1614205E+04  0.7818608E-02  0.8811869E-01
          2   -1    0    0  501    0  0.00000000000E+00  0.00000000000E+00  0.10775637738E+04  0.10775637738E+04  0.25500000000E-02 0.  1.
         -2   -1    0    0    0  501 -0.00000000000E+00 -0.00000000000E+00 -0.60452484408E+03  0.60452484408E+03  0.25500000000E-02 0. -1.
     200001    2    1    2    0    0  0.45804980124E+03  0.24094475784E+03  0.32662893650E+03  0.86657106269E+03  0.61351034856E+03 0.  0.
    5000001    2    3    3    0    0  0.11043478183E+03  0.24512548099E+03 -0.10979120555E+03  0.29954617739E+03  0.73426569497E+02 0.  0.
        -11    1    4    4    0    0  0.62718327899E+01 -0.80981511049E+00 -0.11962589533E+02  0.13531268812E+02  0.51100000000E-03 0. -1.
     200002    1    4    4    0    0  0.10416294904E+03  0.24593529610E+03 -0.97828616014E+02  0.28601490858E+03  0.30000000000E+02 0. -1.
     200000    1    3    3    0    0  0.34761501941E+03 -0.41807231407E+01  0.43642014204E+03  0.56702488530E+03  0.10100000000E+03 0.  1.
    -200001    1    1    2    0    0 -0.45804980124E+03 -0.24094475784E+03  0.14640999325E+03  0.81551755522E+03  0.61300000000E+03 0. -1.
<mgrwt>
<rscale>  0 0.16142045E+04</rscale>
<asrwt>0</asrwt>
<pdfrwt beam="1">  1        2 0.15393768E+00 0.16142045E+04</pdfrwt>
<pdfrwt beam="2">  1       -2 0.86360693E-01 0.16142045E+04</pdfrwt>
<totfact> 0.28113741E+01</totfact>
</mgrwt>
</event>
<event>
 8    1  0.6972317E-052  0.1343843E+04  0.7818608E-02  0.8995502E-01
         -2   -1    0    0    0  501 -0.00000000000E+00  0.00000000000E+00  0.31931577800E+03  0.31931577801E+03  0.25500000000E-02 0. -1.
          2   -1    0    0  501    0  0.00000000000E+00 -0.00000000000E+00 -0.14138928654E+04  0.14138928654E+04  0.25500000000E-02 0.  1.
     200001    2    1    2    0    0  0.60916306520E+02 -0.25311699418E+03 -0.43254057898E+03  0.79414509517E+03  0.61302208000E+03 0.  0.
    5000001    2    3    3    0    0  0.82795226328E+02  0.77770780794E+02  0.93195843068E+02  0.16441087168E+03  0.73770764634E+02 0.  0.
        -11    1    4    4    0    0  0.52839190504E+01  0.28444881220E+02  0.51670113726E+02  0.59218508263E+02  0.51100000000E-03 0. -1.
     200002    1    4    4    0    0  0.77511307278E+02  0.49325899574E+02  0.41525729342E+02  0.10519236342E+03  0.30000000000E+02 0.  1.
     200000    1    3    3    0    0 -0.21878919809E+02 -0.33088777497E+03 -0.52573642205E+03  0.62973422348E+03  0.10100000000E+03 0.  1.
    -200001    1    1    2    0    0 -0.60916306520E+02  0.25311699418E+03 -0.66203650839E+03  0.93906354821E+03  0.61300000000E+03 0.  1.
<mgrwt>
<rscale>  0 0.13438427E+04</rscale>
<asrwt>0</asrwt>
<pdfrwt beam="1">  1        2 0.20198469E+00 0.13438427E+04</pdfrwt>
<pdfrwt beam="2">  1       -2 0.45616540E-01 0.13438427E+04</pdfrwt>
<totfact> 0.72438613E+01</totfact>
</mgrwt>
</event>
<event>
 8    1  0.6972317E-052  0.1251845E+04  0.7818608E-02  0.9068649E-01
         -2   -1    0    0    0  501 -0.00000000000E+00  0.00000000000E+00  0.79837990208E+02  0.79837990248E+02  0.25500000000E-02 0. -1.
          2   -1    0    0  501    0  0.00000000000E+00 -0.00000000000E+00 -0.49071768510E+04  0.49071768510E+04  0.25500000000E-02 0.  1.
     200001    2    1    2    0    0  0.89482069830E+02  0.31585435875E+02 -0.27487578329E+04  0.28178507695E+04  0.61286919873E+03 0.  0.
    5000001    2    3    3    0    0  0.15285531353E+03  0.20616307616E+03 -0.23617435748E+04  0.23768580751E+04  0.75852722308E+02 0.  0.
        -11    1    4    4    0    0  0.13147464422E+03  0.14249401706E+03 -0.17505405298E+04  0.17612445240E+04  0.51100000000E-03 0. -1.
     200002    1    4    4    0    0  0.21380669308E+02  0.63669059108E+02 -0.61120304496E+03  0.61561355108E+03  0.30000000000E+02 0.  1.
     200000    1    3    3    0    0 -0.63373243696E+02 -0.17457764029E+03 -0.38701425809E+03  0.44099269435E+03  0.10100000000E+03 0.  1.
    -200001    1    1    2    0    0 -0.89482069830E+02 -0.31585435875E+02 -0.20785810279E+04  0.21691640717E+04  0.61300000000E+03 0. -1.
<mgrwt>
<rscale>  0 0.12518453E+04</rscale>
<asrwt>0</asrwt>
<pdfrwt beam="1">  1        2 0.70102507E+00 0.12518453E+04</pdfrwt>
<pdfrwt beam="2">  1       -2 0.11405430E-01 0.12518453E+04</pdfrwt>
<totfact> 0.62465326E+00</totfact>
</mgrwt>
</event>
<event>
 8    1  0.6972317E-052  0.1395162E+04  0.7818608E-02  0.8957328E-01
          2   -1    0    0  501    0  0.00000000000E+00  0.00000000000E+00  0.77552869869E+03  0.77552869869E+03  0.25500000000E-02 0.  1.
         -2   -1    0    0    0  501 -0.00000000000E+00 -0.00000000000E+00 -0.62746741520E+03  0.62746741521E+03  0.25500000000E-02 0. -1.
     200001    2    1    2    0    0  0.32692717480E+03 -0.27923822448E+02  0.16139483446E+02  0.69530021960E+03  0.61279751547E+03 0.  0.
    5000001    2    3    3    0    0 -0.42006441067E+02 -0.23548984025E+03 -0.54790838495E+02  0.25436056927E+03  0.66912310253E+02 0.  0.
        -11    1    4    4    0    0 -0.39500734329E+02 -0.90983101207E+02 -0.36190703839E+02  0.10558408859E+03  0.51100000000E-03 0. -1.
     200002    1    4    4    0    0 -0.25057067378E+01 -0.14450673904E+03 -0.18600134655E+02  0.14877648068E+03  0.30000000000E+02 0.  1.
     200000    1    3    3    0    0  0.36893361587E+03  0.20756601780E+03  0.70930321941E+02  0.44093965033E+03  0.10100000000E+03 0.  1.
    -200001    1    1    2    0    0 -0.32692717480E+03  0.27923822448E+02  0.13192180004E+03  0.70769589430E+03  0.61300000000E+03 0.  1.
<mgrwt>
<rscale>  0 0.13951616E+04</rscale>
<asrwt>0</asrwt>
<pdfrwt beam="1">  1        2 0.11078981E+00 0.13951616E+04</pdfrwt>
<pdfrwt beam="2">  1       -2 0.89638202E-01 0.13951616E+04</pdfrwt>
<totfact> 0.41165044E+01</totfact>
</mgrwt>
</event>
<event>
 8    1  0.6972317E-052  0.1311204E+04  0.7818608E-02  0.9020727E-01
          2   -1    0    0  501    0  0.00000000000E+00  0.00000000000E+00  0.11234695783E+04  0.11234695783E+04  0.25500000000E-02 0.  1.
         -2   -1    0    0    0  501 -0.00000000000E+00 -0.00000000000E+00 -0.38257723266E+03  0.38257723267E+03  0.25500000000E-02 0. -1.
     200001    2    1    2    0    0 -0.16669295683E+03 -0.12588281563E+03  0.25958164086E+03  0.69916266834E+03  0.61466477319E+03 0.  0.
    5000001    2    3    3    0    0 -0.91844174917E+02  0.10609212989E+03 -0.14604943365E+03  0.21526982472E+03  0.72936738846E+02 0.  0.
        -11    1    4    4    0    0 -0.31827218134E+02  0.51341645577E+01 -0.11650663689E+02  0.34279285648E+02  0.51100000000E-03 0. -1.
     200002    1    4    4    0    0 -0.60016956782E+02  0.10095796533E+03 -0.13439876996E+03  0.18099053907E+03  0.30000000000E+02 0. -1.
     200000    1    3    3    0    0 -0.74848781914E+02 -0.23197494552E+03  0.40563107451E+03  0.48389284363E+03  0.10100000000E+03 0.  1.
    -200001    1    1    2    0    0  0.16669295683E+03  0.12588281563E+03  0.48131070481E+03  0.80688414267E+03  0.61300000000E+03 0.  1.
<mgrwt>
<rscale>  0 0.13112038E+04</rscale>
<asrwt>0</asrwt>
<pdfrwt beam="1">  1        2 0.16049566E+00 0.13112038E+04</pdfrwt>
<pdfrwt beam="2">  1       -2 0.54653889E-01 0.13112038E+04</pdfrwt>
<totfact> 0.73064932E+01</totfact>
</mgrwt>
</event>
<event>
 8    1  0.6972317E-052  0.1489113E+04  0.7818608E-02  0.8891725E-01
          2   -1    0    0  501    0  0.00000000000E+00  0.00000000000E+00  0.40420782293E+03  0.40420782294E+03  0.25500000000E-02 0.  1.
         -2   -1    0    0    0  501 -0.00000000000E+00 -0.00000000000E+00 -0.13714842818E+04  0.13714842818E+04  0.25500000000E-02 0. -1.
     200001    2    1    2    0    0  0.68071603947E+02  0.41098597107E+03 -0.39492297799E+03  0.83926233227E+03  0.61225312751E+03 0.  0.
    5000001    2    3    3    0    0 -0.15890955657E+03  0.17575020464E+03 -0.42178407076E+03  0.49607312594E+03  0.10975592165E+03 0.  0.
        -11    1    4    4    0    0 -0.75562092248E+02  0.15079961179E+03 -0.28621592316E+03  0.33221936634E+03  0.51100000000E-03 0. -1.
     200002    1    4    4    0    0 -0.83347464319E+02  0.24950592847E+02 -0.13556814760E+03  0.16385375960E+03  0.30000000000E+02 0. -1.
     200000    1    3    3    0    0  0.22698116051E+03  0.23523576643E+03  0.26861092772E+02  0.34318920633E+03  0.10100000000E+03 0.  1.
    -200001    1    1    2    0    0 -0.68071603947E+02 -0.41098597107E+03 -0.57235348085E+03  0.93642977244E+03  0.61300000000E+03 0.  1.
<mgrwt>
<rscale>  0 0.14891134E+04</rscale>
<asrwt>0</asrwt>
<pdfrwt beam="1">  1        2 0.57743975E-01 0.14891134E+04</pdfrwt>
<pdfrwt beam="2">  1       -2 0.19592632E+00 0.14891134E+04</pdfrwt>
<totfact> 0.11705411E+01</totfact>
</mgrwt>
</event>
<event>
 8    1  0.6972317E-052  0.1368785E+04  0.7818608E-02  0.8976729E-01
          2   -1    0    0  501    0  0.00000000000E+00  0.00000000000E+00  0.28895146453E+04  0.28895146453E+04  0.25500000000E-02 0.  1.
         -2   -1    0    0    0  501 -0.00000000000E+00 -0.00000000000E+00 -0.16210090328E+03  0.16210090330E+03  0.25500000000E-02 0. -1.
     200001    2    1    2    0    0 -0.18792210766E+02  0.25553550496E+03  0.17293712070E+04  0.18526537297E+04  0.61314723282E+03 0.  0.
    5000001    2    3    3    0    0 -0.14573807836E+03  0.36500970149E+03  0.72336949502E+03  0.82779261838E+03  0.86634421858E+02 0.  0.
        -11    1    4    4    0    0  0.64441679867E+01  0.59097734941E+02  0.10350675511E+03  0.11936380494E+03  0.51100000000E-03 0. -1.
     200002    1    4    4    0    0 -0.15218224634E+03  0.30591196655E+03  0.61986273990E+03  0.70842881343E+03  0.30000000000E+02 0. -1.
     200000    1    3    3    0    0  0.12694586759E+03 -0.10947419653E+03  0.10060017120E+04  0.10248611113E+04  0.10100000000E+03 0.  1.
    -200001    1    1    2    0    0  0.18792210766E+02 -0.25553550496E+03  0.99804253505E+03  0.11989618189E+04  0.61300000000E+03 0. -1.
<mgrwt>
<rscale>  0 0.13687848E+04</rscale>
<asrwt>0</asrwt>
<pdfrwt beam="1">  1        2 0.41278780E+00 0.13687848E+04</pdfrwt>
<pdfrwt beam="2">  1       -2 0.23157272E-01 0.13687848E+04</pdfrwt>
<totfact> 0.43964539E+01</totfact>
</mgrwt>
</event>
<event>
 8    1  0.6972317E-052  0.1846100E+04  0.7818608E-02  0.8682161E-01
         -2   -1    0    0    0  501 -0.00000000000E+00  0.00000000000E+00  0.79570736338E+03  0.79570736339E+03  0.25500000000E-02 0. -1.
          2   -1    0    0  501    0  0.00000000000E+00 -0.00000000000E+00 -0.10707723848E+04  0.10707723848E+04  0.25500000000E-02 0.  1.
     200001    2    1    2    0    0 -0.44583849466E+03 -0.50611441248E+03 -0.28616999926E+03  0.95498861693E+03  0.61252447147E+03 0.  0.
    5000001    2    3    3    0    0 -0.39883159561E+03 -0.58751403945E+03 -0.10843630967E+03  0.72998681196E+03  0.12993430710E+03 0.  0.
        -11    1    4    4    0    0 -0.37033772286E+02 -0.13081427757E+03  0.31743539355E+01  0.13599247049E+03  0.51100000000E-03 0. -1.
     200002    1    4    4    0    0 -0.36179782332E+03 -0.45669976188E+03 -0.11161066361E+03  0.59399434147E+03  0.30000000000E+02 0. -1.
     200000    1    3    3    0    0 -0.47006899048E+02  0.81399626970E+02 -0.17773368959E+03  0.22500180498E+03  0.10100000000E+03 0.  1.
    -200001    1    1    2    0    0  0.44583849466E+03  0.50611441248E+03  0.11104977834E+02  0.91149113126E+03  0.61300000000E+03 0. -1.
<mgrwt>
<rscale>  0 0.18461002E+04</rscale>
<asrwt>0</asrwt>
<pdfrwt beam="1">  1        2 0.15296748E+00 0.18461002E+04</pdfrwt>
<pdfrwt beam="2">  1       -2 0.11367248E+00 0.18461002E+04</pdfrwt>
<totfact> 0.14560664E+01</totfact>
</mgrwt>
</event>
<event>
 8    1  0.6972317E-052  0.2079403E+04  0.7818608E-02  0.8570371E-01
         -2   -1    0    0    0  501 -0.00000000000E+00  0.00000000000E+00  0.77547918703E+03  0.77547918703E+03  0.25500000000E-02 0.  1.
          2   -1    0    0  501    0  0.00000000000E+00 -0.00000000000E+00 -0.13939495357E+04  0.13939495357E+04  0.25500000000E-02 0. -1.
     200001    2    1    2    0    0 -0.13980397390E+03 -0.24102869200E+03 -0.11357861729E+04  0.13202970229E+04  0.61280830340E+03 0.  0.
    5000001    2    3    3    0    0 -0.28586965608E+03 -0.29301307785E+03 -0.49320994471E+03  0.65160967527E+03  0.11730726867E+03 0.  0.
        -11    1    4    4    0    0 -0.12687661477E+03 -0.16065749829E+03 -0.32123906556E+03  0.38092393515E+03  0.51100000000E-03 0. -1.
     200002    1    4    4    0    0 -0.15899304131E+03 -0.13235557956E+03 -0.17197087916E+03  0.27068574012E+03  0.30000000000E+02 0. -1.
     200000    1    3    3    0    0  0.14606568218E+03  0.51984385847E+02 -0.64257622820E+03  0.66868734767E+03  0.10100000000E+03 0. -1.
    -200001    1    1    2    0    0  0.13980397390E+03  0.24102869200E+03  0.51731582428E+03  0.84913169976E+03  0.61300000000E+03 0.  1.
<mgrwt>
<rscale>  0 0.20794027E+04</rscale>
<asrwt>0</asrwt>
<pdfrwt beam="1">  1        2 0.19913565E+00 0.20794027E+04</pdfrwt>
<pdfrwt beam="2">  1       -2 0.11078274E+00 0.20794027E+04</pdfrwt>
<totfact> 0.99834329E+00</totfact>
</mgrwt>
</event>
<event>
 8    1  0.6972317E-052  0.1519023E+04  0.7818608E-02  0.8871901E-01
          2   -1    0    0  501    0  0.00000000000E+00  0.00000000000E+00  0.87781473991E+03  0.87781473991E+03  0.25500000000E-02 0.  1.
         -2   -1    0    0    0  501 -0.00000000000E+00 -0.00000000000E+00 -0.65715179278E+03  0.65715179278E+03  0.25500000000E-02 0. -1.
     200001    2    1    2    0    0 -0.44189208916E+03  0.60180098321E+02  0.16105784864E+03  0.77456398768E+03  0.61246998107E+03 0.  0.
    5000001    2    3    3    0    0 -0.36600306019E+03 -0.15185346839E+03  0.29068655030E+03  0.49577736959E+03  0.65412642078E+02 0.  0.
        -11    1    4    4    0    0 -0.20714453518E+03 -0.10875300645E+03  0.15928336592E+03  0.28303226941E+03  0.51100000000E-03 0. -1.
     200002    1    4    4    0    0 -0.15885852500E+03 -0.43100461948E+02  0.13140318438E+03  0.21274510019E+03  0.30000000000E+02 0. -1.
     200000    1    3    3    0    0 -0.75889028970E+02  0.21203356671E+03 -0.12962870166E+03  0.27878661809E+03  0.10100000000E+03 0.  1.
    -200001    1    1    2    0    0  0.44189208916E+03 -0.60180098321E+02  0.59605098484E+02  0.76040254501E+03  0.61300000000E+03 0.  1.
<mgrwt>
<rscale>  0 0.15190228E+04</rscale>
<asrwt>0</asrwt>
<pdfrwt beam="1">  1        2 0.12540211E+00 0.15190228E+04</pdfrwt>
<pdfrwt beam="2">  1       -2 0.93878827E-01 0.15190228E+04</pdfrwt>
<totfact> 0.31163798E+01</totfact>
</mgrwt>
</event>
<event>
 8    1  0.6972317E-052  0.1975593E+04  0.7818608E-02  0.8618117E-01
         -2   -1    0    0    0  501 -0.00000000000E+00  0.00000000000E+00  0.56970333282E+03  0.56970333282E+03  0.25500000000E-02 0. -1.
          2   -1    0    0  501    0  0.00000000000E+00 -0.00000000000E+00 -0.17127197981E+04  0.17127197981E+04  0.25500000000E-02 0.  1.
     200001    2    1    2    0    0 -0.28803632648E+03  0.95523979968E+02  0.25206575361E+03  0.72868146849E+03  0.61265796515E+03 0.  0.
    5000001    2    3    3    0    0 -0.58521924834E+01 -0.11487253729E+03  0.31021732428E+03  0.35790230899E+03  0.13648929085E+03 0.  0.
        -11    1    4    4    0    0 -0.74014943371E+01  0.87604204996E+01  0.16267466136E+03  0.16307842449E+03  0.51100000000E-03 0. -1.
     200002    1    4    4    0    0  0.15493018536E+01 -0.12363295779E+03  0.14754266291E+03  0.19482388449E+03  0.30000000000E+02 0.  1.
     200000    1    3    3    0    0 -0.28218413399E+03  0.21039651726E+03 -0.58151570667E+02  0.37077915951E+03  0.10100000000E+03 0.  1.
    -200001    1    1    2    0    0  0.28803632648E+03 -0.95523979968E+02 -0.13950822189E+04  0.15537416625E+04  0.61300000000E+03 0.  1.
<mgrwt>
<rscale>  0 0.19755933E+04</rscale>
<asrwt>0</asrwt>
<pdfrwt beam="1">  1        2 0.24467425E+00 0.19755933E+04</pdfrwt>
<pdfrwt beam="2">  1       -2 0.81386191E-01 0.19755933E+04</pdfrwt>
<totfact> 0.14037312E+01</totfact>
</mgrwt>
</event>
<event>
 8    1  0.6972317E-052  0.1533145E+04  0.7818608E-02  0.8862706E-01
         -2   -1    0    0    0  501 -0.00000000000E+00  0.00000000000E+00  0.16206589919E+03  0.16206589921E+03  0.25500000000E-02 0. -1.
          2   -1    0    0  501    0  0.00000000000E+00 -0.00000000000E+00 -0.36258939292E+04  0.36258939292E+04  0.25500000000E-02 0.  1.
     200001    2    1    2    0    0 -0.29375001129E+03 -0.36911325682E+02 -0.26020338305E+04  0.26897295441E+04  0.61352542754E+03 0.  0.
    5000001    2    3    3    0    0 -0.33904876728E+03 -0.16292041548E+03 -0.23848224673E+04  0.24152991443E+04  0.69243250831E+02 0.  0.
        -11    1    4    4    0    0 -0.13746379710E+03 -0.93806045249E+02 -0.11207086993E+04  0.11329977309E+04  0.51100000000E-03 0. -1.
     200002    1    4    4    0    0 -0.20158497019E+03 -0.69114370235E+02 -0.12641137680E+04  0.12823014134E+04  0.30000000000E+02 0. -1.
     200000    1    3    3    0    0  0.45298755994E+02  0.12600908980E+03 -0.21721136324E+03  0.27443039979E+03  0.10100000000E+03 0. -1.
    -200001    1    1    2    0    0  0.29375001129E+03  0.36911325682E+02 -0.86179419955E+03  0.10982302844E+04  0.61300000000E+03 0.  1.
<mgrwt>
<rscale>  0 0.15331455E+04</rscale>
<asrwt>0</asrwt>
<pdfrwt beam="1">  1        2 0.51798480E+00 0.15331455E+04</pdfrwt>
<pdfrwt beam="2">  1       -2 0.23152274E-01 0.15331455E+04</pdfrwt>
<totfact> 0.16153337E+01</totfact>
</mgrwt>
</event>
<event>
 8    1  0.6972317E-052  0.1311201E+04  0.7818608E-02  0.9020730E-01
         -2   -1    0    0    0  501 -0.00000000000E+00  0.00000000000E+00  0.24112242495E+03  0.24112242496E+03  0.25500000000E-02 0.  1.
          2   -1    0    0  501    0  0.00000000000E+00 -0.00000000000E+00 -0.17825458767E+04  0.17825458767E+04  0.25500000000E-02 0. -1.
     200001    2    1    2    0    0  0.16276690313E+03 -0.28500750525E+02 -0.51154006522E+03  0.81381948987E+03  0.61100210002E+03 0.  0.
    5000001    2    3    3    0    0 -0.28396322575E+02  0.12456587200E+03 -0.52483559448E+03  0.54858272603E+03  0.95747576784E+02 0.  0.
        -11    1    4    4    0    0 -0.44220334051E+02  0.78065967742E+02 -0.41492352428E+03  0.42451297302E+03  0.51100000000E-03 0. -1.
     200002    1    4    4    0    0  0.15824011476E+02  0.46499904259E+02 -0.10991207020E+03  0.12406975301E+03  0.30000000000E+02 0. -1.
     200000    1    3    3    0    0  0.19116322571E+03 -0.15306662253E+03  0.13295529260E+02  0.26523676384E+03  0.10100000000E+03 0.  1.
    -200001    1    1    2    0    0 -0.16276690313E+03  0.28500750525E+02 -0.10298833865E+04  0.12098488118E+04  0.61300000000E+03 0. -1.
<mgrwt>
<rscale>  0 0.13112006E+04</rscale>
<asrwt>0</asrwt>
<pdfrwt beam="1">  1        2 0.25464940E+00 0.13112006E+04</pdfrwt>
<pdfrwt beam="2">  1       -2 0.34446062E-01 0.13112006E+04</pdfrwt>
<totfact> 0.80396071E+01</totfact>
</mgrwt>
</event>
<event>
 8    1  0.6972317E-052  0.1347256E+04  0.7818608E-02  0.8992908E-01
          2   -1    0    0  501    0  0.00000000000E+00  0.00000000000E+00  0.19362714245E+04  0.19362714245E+04  0.25500000000E-02 0.  1.
         -2   -1    0    0    0  501 -0.00000000000E+00 -0.00000000000E+00 -0.23435477352E+03  0.23435477354E+03  0.25500000000E-02 0. -1.
     200001    2    1    2    0    0 -0.70671354550E+02 -0.22206216050E+03  0.60985211644E+03  0.89678162704E+03  0.61481024649E+03 0.  0.
    5000001    2    3    3    0    0  0.24015263370E+03 -0.13110629824E+03  0.30291540292E+03  0.43929319368E+03  0.16235337932E+03 0.  0.
        -11    1    4    4    0    0  0.13848834734E+03 -0.14450071648E+03  0.24945347419E+03  0.31982263084E+03  0.51100000000E-03 0. -1.
     200002    1    4    4    0    0  0.10166428636E+03  0.13394418244E+02  0.53461928735E+02  0.11947056284E+03  0.30000000000E+02 0. -1.
     200000    1    3    3    0    0 -0.31082398825E+03 -0.90955862258E+02  0.30693671352E+03  0.45748843336E+03  0.10100000000E+03 0. -1.
    -200001    1    1    2    0    0  0.70671354550E+02  0.22206216050E+03  0.10920645345E+04  0.12738445710E+04  0.61300000000E+03 0.  1.
<mgrwt>
<rscale>  0 0.13472557E+04</rscale>
<asrwt>0</asrwt>
<pdfrwt beam="1">  1        2 0.27661020E+00 0.13472557E+04</pdfrwt>
<pdfrwt beam="2">  1       -2 0.33479254E-01 0.13472557E+04</pdfrwt>
<totfact> 0.70544415E+01</totfact>
</mgrwt>
</event>
<event>
 8    1  0.6972317E-052  0.1655084E+04  0.7818608E-02  0.8787405E-01
         -2   -1    0    0    0  501 -0.00000000000E+00  0.00000000000E+00  0.84923529754E+03  0.84923529754E+03  0.25500000000E-02 0. -1.
          2   -1    0    0  501    0  0.00000000000E+00 -0.00000000000E+00 -0.80640269939E+03  0.80640269939E+03  0.25500000000E-02 0.  1.
     200001    2    1    2    0    0 -0.16280284115E+03  0.53125520404E+03  0.35639082887E+02  0.82825803370E+03  0.61319195139E+03 0.  0.
    5000001    2    3    3    0    0 -0.25025250600E+03  0.59546182084E+03  0.11156698475E+03  0.66171680816E+03  0.90668877097E+02 0.  0.
        -11    1    4    4    0    0 -0.14021079736E+03  0.41395265479E+03  0.59220173155E+02  0.44104749972E+03  0.51100000000E-03 0. -1.
     200002    1    4    4    0    0 -0.11004170863E+03  0.18150916605E+03  0.52346811600E+02  0.22066930843E+03  0.30000000000E+02 0.  1.
     200000    1    3    3    0    0  0.87449664850E+02 -0.64206616799E+02 -0.75927901868E+02  0.16654122554E+03  0.10100000000E+03 0. -1.
    -200001    1    1    2    0    0  0.16280284115E+03 -0.53125520404E+03  0.71935152589E+01  0.82737996324E+03  0.61300000000E+03 0. -1.
<mgrwt>
<rscale>  0 0.16550838E+04</rscale>
<asrwt>0</asrwt>
<pdfrwt beam="1">  1        2 0.11520039E+00 0.16550838E+04</pdfrwt>
<pdfrwt beam="2">  1       -2 0.12131933E+00 0.16550838E+04</pdfrwt>
<totfact> 0.18609096E+01</totfact>
</mgrwt>
</event>
<event>
 8    1  0.6972317E-052  0.1422979E+04  0.7818608E-02  0.8937351E-01
         -2   -1    0    0    0  501 -0.00000000000E+00  0.00000000000E+00  0.19014572097E+03  0.19014572098E+03  0.25500000000E-02 0.  1.
          2   -1    0    0  501    0  0.00000000000E+00 -0.00000000000E+00 -0.26622581137E+04  0.26622581137E+04  0.25500000000E-02 0. -1.
     200001    2    1    2    0    0  0.89224848958E+02 -0.25645605899E+03 -0.17144132516E+04  0.18406688040E+04  0.61246882765E+03 0.  0.
    5000001    2    3    3    0    0 -0.25974050338E+02  0.17027584999E+03 -0.74413323373E+03  0.76968083878E+03  0.94898933941E+02 0.  0.
        -11    1    4    4    0    0  0.12370316119E+02  0.73379696484E+02 -0.45171157811E+03  0.45780012492E+03  0.51100000000E-03 0. -1.
     200002    1    4    4    0    0 -0.38344366457E+02  0.96896153503E+02 -0.29242165562E+03  0.31188071386E+03  0.30000000000E+02 0. -1.
     200000    1    3    3    0    0  0.11519889930E+03 -0.42673190898E+03 -0.97028001783E+03  0.10709879652E+04  0.10100000000E+03 0. -1.
    -200001    1    1    2    0    0 -0.89224848958E+02  0.25645605899E+03 -0.75769914115E+03  0.10117350307E+04  0.61300000000E+03 0. -1.
<mgrwt>
<rscale>  0 0.14229786E+04</rscale>
<asrwt>0</asrwt>
<pdfrwt beam="1">  1        2 0.38032256E+00 0.14229786E+04</pdfrwt>
<pdfrwt beam="2">  1       -2 0.27163676E-01 0.14229786E+04</pdfrwt>
<totfact> 0.43461112E+01</totfact>
</mgrwt>
</event>
<event>
 8    1  0.6972317E-052  0.1315976E+04  0.7818608E-02  0.9016991E-01
         -2   -1    0    0    0  501 -0.00000000000E+00  0.00000000000E+00  0.38439326146E+03  0.38439326147E+03  0.25500000000E-02 0. -1.
          2   -1    0    0  501    0  0.00000000000E+00 -0.00000000000E+00 -0.11263165535E+04  0.11263165535E+04  0.25500000000E-02 0.  1.
     200001    2    1    2    0    0  0.68437136783E+02  0.18630362149E+03 -0.24357672110E+03  0.69614797824E+03  0.62120826417E+03 0.  0.
    5000001    2    3    3    0    0 -0.14517319268E+03  0.20017656793E+03 -0.34992951906E+03  0.43666050431E+03  0.84117854798E+02 0.  0.
        -11    1    4    4    0    0 -0.11179774327E+03  0.16698332653E+03 -0.30379741012E+03  0.36424584162E+03  0.51100000000E-03 0. -1.
     200002    1    4    4    0    0 -0.33375449408E+02  0.33193241401E+02 -0.46132108934E+02  0.72414662691E+02  0.30000000000E+02 0.  1.
     200000    1    3    3    0    0  0.21361032946E+03 -0.13872946439E+02  0.10635279795E+03  0.25948747393E+03  0.10100000000E+03 0. -1.
    -200001    1    1    2    0    0 -0.68437136783E+02 -0.18630362149E+03 -0.49834657089E+03  0.81456183669E+03  0.61300000000E+03 0.  1.
<mgrwt>
<rscale>  0 0.13159764E+04</rscale>
<asrwt>0</asrwt>
<pdfrwt beam="1">  1        2 0.16090236E+00 0.13159764E+04</pdfrwt>
<pdfrwt beam="2">  1       -2 0.54913324E-01 0.13159764E+04</pdfrwt>
<totfact> 0.72049460E+01</totfact>
</mgrwt>
</event>
<event>
 8    1  0.6972317E-052  0.1350078E+04  0.7818608E-02  0.8990769E-01
         -2   -1    0    0    0  501 -0.00000000000E+00  0.00000000000E+00  0.22859461305E+03  0.22859461306E+03  0.25500000000E-02 0. -1.
          2   -1    0    0  501    0  0.00000000000E+00 -0.00000000000E+00 -0.19933868290E+04  0.19933868290E+04  0.25500000000E-02 0.  1.
     200001    2    1    2    0    0 -0.18380600351E+03  0.21205060679E+03 -0.91769991287E+03  0.11393529385E+04  0.61416763316E+03 0.  0.
    5000001    2    3    3    0    0 -0.14547492045E+03  0.34385597895E+03 -0.26144426507E+03  0.46133051754E+03  0.71223984276E+02 0.  0.
        -11    1    4    4    0    0 -0.92571555985E+02  0.18875910043E+03 -0.11563690316E+03  0.23994037665E+03  0.51100000000E-03 0. -1.
     200002    1    4    4    0    0 -0.52903364470E+02  0.15509687852E+03 -0.14580736190E+03  0.22139014089E+03  0.30000000000E+02 0.  1.
     200000    1    3    3    0    0 -0.38331083058E+02 -0.13180537216E+03 -0.65625564780E+03  0.67802242097E+03  0.10100000000E+03 0.  1.
    -200001    1    1    2    0    0  0.18380600351E+03 -0.21205060679E+03 -0.84709230306E+03  0.10826285035E+04  0.61300000000E+03 0. -1.
<mgrwt>
<rscale>  0 0.13500778E+04</rscale>
<asrwt>0</asrwt>
<pdfrwt beam="1">  1        2 0.28476954E+00 0.13500778E+04</pdfrwt>
<pdfrwt beam="2">  1       -2 0.32656375E-01 0.13500778E+04</pdfrwt>
<totfact> 0.69103337E+01</totfact>
</mgrwt>
</event>
<event>
 8    1  0.6972317E-052  0.1697000E+04  0.7818608E-02  0.8763077E-01
         -2   -1    0    0    0  501 -0.00000000000E+00  0.00000000000E+00  0.27900322219E+03  0.27900322220E+03  0.25500000000E-02 0. -1.
          2   -1    0    0  501    0  0.00000000000E+00 -0.00000000000E+00 -0.25804431713E+04  0.25804431713E+04  0.25500000000E-02 0.  1.
     200001    2    1    2    0    0 -0.82411961751E+02  0.56351228605E+03 -0.13847216326E+04  0.16182859285E+04  0.61405009465E+03 0.  0.
    5000001    2    3    3    0    0  0.81159964467E+02  0.58215075801E+03 -0.12492768294E+04  0.13823845458E+04  0.69339677964E+02 0.  0.
        -11    1    4    4    0    0  0.60930723027E+02  0.26192341170E+03 -0.53554332085E+03  0.59926878369E+03  0.51100000000E-03 0. -1.
     200002    1    4    4    0    0  0.20229241440E+02  0.32022734631E+03 -0.71373350857E+03  0.78311576206E+03  0.30000000000E+02 0. -1.
     200000    1    3    3    0    0 -0.16357192622E+03 -0.18638471964E+02 -0.13544480315E+03  0.23590138275E+03  0.10100000000E+03 0. -1.
    -200001    1    1    2    0    0  0.82411961751E+02 -0.56351228605E+03 -0.91671831655E+03  0.12411604650E+04  0.61300000000E+03 0. -1.
<mgrwt>
<rscale>  0 0.16969997E+04</rscale>
<asrwt>0</asrwt>
<pdfrwt beam="1">  1        2 0.36863472E+00 0.16969997E+04</pdfrwt>
<pdfrwt beam="2">  1       -2 0.39857605E-01 0.16969997E+04</pdfrwt>
<totfact> 0.22724960E+01</totfact>
</mgrwt>
</event>
<event>
 8    1  0.6972317E-052  0.1461724E+04  0.7818608E-02  0.8910312E-01
         -2   -1    0    0    0  501 -0.00000000000E+00  0.00000000000E+00  0.53635386482E+03  0.53635386482E+03  0.25500000000E-02 0.  1.
          2   -1    0    0  501    0  0.00000000000E+00 -0.00000000000E+00 -0.99590873317E+03  0.99590873318E+03  0.25500000000E-02 0. -1.
     200001    2    1    2    0    0 -0.10892410893E+03  0.24128997195E+03 -0.54134486716E+03  0.85954875395E+03  0.61293105905E+03 0.  0.
    5000001    2    3    3    0    0 -0.18574890091E+03  0.33439338699E+02 -0.14198722854E+03  0.39179726231E+03  0.31260818627E+03 0.  0.
        -11    1    4    4    0    0 -0.19033024742E+03  0.52163271554E+02  0.44189931571E+02  0.20223590195E+03  0.51100000000E-03 0. -1.
     200002    1    4    4    0    0  0.45813465095E+01 -0.18723932855E+02 -0.18617716011E+03  0.18956136037E+03  0.30000000000E+02 0. -1.
     200000    1    3    3    0    0  0.76824791987E+02  0.20785063325E+03 -0.39935763862E+03  0.46775149164E+03  0.10100000000E+03 0. -1.
    -200001    1    1    2    0    0  0.10892410893E+03 -0.24128997195E+03  0.81789998804E+02  0.67271384405E+03  0.61300000000E+03 0.  1.
<mgrwt>
<rscale>  0 0.14617243E+04</rscale>
<asrwt>0</asrwt>
<pdfrwt beam="1">  1        2 0.14227268E+00 0.14617243E+04</pdfrwt>
<pdfrwt beam="2">  1       -2 0.76621981E-01 0.14617243E+04</pdfrwt>
<totfact> 0.41756027E+01</totfact>
</mgrwt>
</event>
<event>
 8    1  0.6972317E-052  0.1373921E+04  0.7818608E-02  0.8972916E-01
         -2   -1    0    0    0  501 -0.00000000000E+00  0.00000000000E+00  0.31427656071E+03  0.31427656072E+03  0.25500000000E-02 0. -1.
          2   -1    0    0  501    0  0.00000000000E+00 -0.00000000000E+00 -0.15015896022E+04  0.15015896022E+04  0.25500000000E-02 0.  1.
     200001    2    1    2    0    0  0.24312118269E+03 -0.15069521838E+03 -0.75286500099E+03  0.10119189891E+04  0.61266415967E+03 0.  0.
    5000001    2    3    3    0    0 -0.83173679004E+02 -0.18544226966E+03 -0.17639674593E+03  0.34095524688E+03  0.20935131273E+03 0.  0.
        -11    1    4    4    0    0 -0.11498604478E+03 -0.12127806660E+03 -0.19920784035E+03  0.26002677476E+03  0.51100000000E-03 0. -1.
     200002    1    4    4    0    0  0.31812365780E+02 -0.64164203060E+02  0.22811094418E+02  0.80928472118E+02  0.30000000000E+02 0. -1.
     200000    1    3    3    0    0  0.32629486169E+03  0.34747051273E+02 -0.57646825506E+03  0.67096374226E+03  0.10100000000E+03 0.  1.
    -200001    1    1    2    0    0 -0.24312118269E+03  0.15069521838E+03 -0.43444804046E+03  0.80394717375E+03  0.61300000000E+03 0. -1.
<mgrwt>
<rscale>  0 0.13739205E+04</rscale>
<asrwt>0</asrwt>
<pdfrwt beam="1">  1        2 0.21451280E+00 0.13739205E+04</pdfrwt>
<pdfrwt beam="2">  1       -2 0.44896652E-01 0.13739205E+04</pdfrwt>
<totfact> 0.66967633E+01</totfact>
</mgrwt>
</event>
<event>
 8    1  0.6972317E-052  0.1566698E+04  0.7818608E-02  0.8841272E-01
         -2   -1    0    0    0  501 -0.00000000000E+00  0.00000000000E+00  0.20562459540E+03  0.20562459542E+03  0.25500000000E-02 0. -1.
          2   -1    0    0  501    0  0.00000000000E+00 -0.00000000000E+00 -0.29842528368E+04  0.29842528368E+04  0.25500000000E-02 0.  1.
     200001    2    1    2    0    0 -0.45836993399E+03  0.49516156793E+02 -0.10632905839E+04  0.13108598364E+04  0.61254534420E+03 0.  0.
    5000001    2    3    3    0    0 -0.15876790939E+03 -0.13770495562E+03 -0.43866018870E+02  0.22723602627E+03  0.74445148725E+02 0.  0.
        -11    1    4    4    0    0 -0.68960476990E+02 -0.20193776480E+02 -0.97313321447E+01  0.72512308065E+02  0.51100000000E-03 0. -1.
     200002    1    4    4    0    0 -0.89807432402E+02 -0.11751117914E+03 -0.34134686725E+02  0.15472371821E+03  0.30000000000E+02 0. -1.
     200000    1    3    3    0    0 -0.29960202460E+03  0.18722111242E+03 -0.10194245650E+04  0.10836238101E+04  0.10100000000E+03 0.  1.
    -200001    1    1    2    0    0  0.45836993399E+03 -0.49516156793E+02 -0.17153376575E+04  0.18790175958E+04  0.61300000000E+03 0.  1.
<mgrwt>
<rscale>  0 0.15666982E+04</rscale>
<asrwt>0</asrwt>
<pdfrwt beam="1">  1        2 0.42632181E+00 0.15666982E+04</pdfrwt>
<pdfrwt beam="2">  1       -2 0.29374944E-01 0.15666982E+04</pdfrwt>
<totfact> 0.24822770E+01</totfact>
</mgrwt>
</event>
<event>
 8    1  0.6972317E-052  0.1290523E+04  0.7818608E-02  0.9037114E-01
         -2   -1    0    0    0  501 -0.00000000000E+00  0.00000000000E+00  0.76127476420E+03  0.76127476420E+03  0.25500000000E-02 0.  1.
          2   -1    0    0  501    0  0.00000000000E+00 -0.00000000000E+00 -0.54692818004E+03  0.54692818004E+03  0.25500000000E-02 0. -1.
     200001    2    1    2    0    0  0.17280572712E+03 -0.37372076069E+02  0.20648726088E+03  0.67016747473E+03  0.61255935540E+03 0.  0.
    5000001    2    3    3    0    0  0.19427375297E+03  0.72552979588E+02  0.34028762709E+03  0.46855415177E+03  0.24645709171E+03 0.  0.
        -11    1    4    4    0    0  0.12239057492E+03  0.15715828474E+03  0.26331244224E+03  0.33016908022E+03  0.51100000000E-03 0. -1.
     200002    1    4    4    0    0  0.71883178047E+02 -0.84605305156E+02  0.76975184849E+02  0.13838507155E+03  0.30000000000E+02 0. -1.
     200000    1    3    3    0    0 -0.21468025846E+02 -0.10992505566E+03 -0.13380036621E+03  0.20161332295E+03  0.10100000000E+03 0. -1.
    -200001    1    1    2    0    0 -0.17280572712E+03  0.37372076069E+02  0.78593232772E+01  0.63803546951E+03  0.61300000000E+03 0. -1.
<mgrwt>
<rscale>  0 0.12905233E+04</rscale>
<asrwt>0</asrwt>
<pdfrwt beam="1">  1        2 0.78132598E-01 0.12905233E+04</pdfrwt>
<pdfrwt beam="2">  1       -2 0.10875354E+00 0.12905233E+04</pdfrwt>
<totfact> 0.40143697E+01</totfact>
</mgrwt>
</event>
<event>
 8    1  0.6972317E-052  0.1423687E+04  0.7818608E-02  0.8936849E-01
          2   -1    0    0  501    0  0.00000000000E+00  0.00000000000E+00  0.46354513650E+03  0.46354513651E+03  0.25500000000E-02 0.  1.
         -2   -1    0    0    0  501 -0.00000000000E+00 -0.00000000000E+00 -0.10931425205E+04  0.10931425205E+04  0.25500000000E-02 0. -1.
     200001    2    1    2    0    0  0.59849919312E+02  0.11343848555E+03  0.55445721944E+02  0.62851560408E+03  0.61278653187E+03 0.  0.
    5000001    2    3    3    0    0  0.15689590086E+03 -0.18869289032E+03 -0.11877021362E+02  0.28875886376E+03  0.15172108357E+03 0.  0.
        -11    1    4    4    0    0  0.16058823660E+03 -0.18811994480E+03 -0.36175283585E+02  0.24997269152E+03  0.51100000000E-03 0. -1.
     200002    1    4    4    0    0 -0.36923357412E+01 -0.57294552825E+00  0.24298262222E+02  0.38786172237E+02  0.30000000000E+02 0. -1.
     200000    1    3    3    0    0 -0.97045981549E+02  0.30213137588E+03  0.67322743306E+02  0.33975674032E+03  0.10100000000E+03 0.  1.
    -200001    1    1    2    0    0 -0.59849919312E+02 -0.11343848555E+03 -0.68504310593E+03  0.92817205293E+03  0.61300000000E+03 0. -1.
<mgrwt>
<rscale>  0 0.14236866E+04</rscale>
<asrwt>0</asrwt>
<pdfrwt beam="1">  1        2 0.66220734E-01 0.14236866E+04</pdfrwt>
<pdfrwt beam="2">  1       -2 0.15616322E+00 0.14236866E+04</pdfrwt>
<totfact> 0.19155211E+01</totfact>
</mgrwt>
</event>
<event>
 8    1  0.6972317E-052  0.1342560E+04  0.7818608E-02  0.8996479E-01
          2   -1    0    0  501    0  0.00000000000E+00  0.00000000000E+00  0.22214017630E+04  0.22214017630E+04  0.25500000000E-02 0.  1.
         -2   -1    0    0    0  501 -0.00000000000E+00 -0.00000000000E+00 -0.20285260055E+03  0.20285260057E+03  0.25500000000E-02 0. -1.
     200001    2    1    2    0    0  0.50731715062E+01  0.20096023958E+03  0.67322838450E+03  0.93225310669E+03  0.61273864108E+03 0.  0.
    5000001    2    3    3    0    0 -0.26683340933E+03  0.21216389480E+03  0.44451457672E+03  0.56269970532E+03  0.53142853299E+02 0.  0.
        -11    1    4    4    0    0 -0.17719427192E+03  0.13870389447E+03  0.30080215335E+03  0.37565744476E+03  0.51100000000E-03 0. -1.
     200002    1    4    4    0    0 -0.89639137410E+02  0.73460000332E+02  0.14371242337E+03  0.18704226056E+03  0.30000000000E+02 0.  1.
     200000    1    3    3    0    0  0.27190658084E+03 -0.11203655222E+02  0.22871380778E+03  0.36955340137E+03  0.10100000000E+03 0. -1.
    -200001    1    1    2    0    0 -0.50731715062E+01 -0.20096023958E+03  0.13453207780E+04  0.14920012569E+04  0.61300000000E+03 0.  1.
<mgrwt>
<rscale>  0 0.13425604E+04</rscale>
<asrwt>0</asrwt>
<pdfrwt beam="1">  1        2 0.31734310E+00 0.13425604E+04</pdfrwt>
<pdfrwt beam="2">  1       -2 0.28978944E-01 0.13425604E+04</pdfrwt>
<totfact> 0.66013345E+01</totfact>
</mgrwt>
</event>
<event>
 8    1  0.6972317E-052  0.1338977E+04  0.7818608E-02  0.8999215E-01
          2   -1    0    0  501    0  0.00000000000E+00  0.00000000000E+00  0.19572583475E+04  0.19572583475E+04  0.25500000000E-02 0.  1.
         -2   -1    0    0    0  501 -0.00000000000E+00 -0.00000000000E+00 -0.22900127840E+03  0.22900127841E+03  0.25500000000E-02 0. -1.
     200001    2    1    2    0    0  0.25223609968E+03  0.35824806857E+02  0.72693322420E+03  0.98487504588E+03  0.61371041769E+03 0.  0.
    5000001    2    3    3    0    0  0.81659157105E+02  0.26028952277E+02 -0.80360258188E+02  0.15354104633E+03  0.98850177113E+02 0.  0.
        -11    1    4    4    0    0 -0.12617884555E+01  0.40715967598E+02 -0.32683485925E+02  0.52226357139E+02  0.51100000000E-03 0. -1.
     200002    1    4    4    0    0  0.82920945561E+02 -0.14687015321E+02 -0.47676772263E+02  0.10131468919E+03  0.30000000000E+02 0. -1.
     200000    1    3    3    0    0  0.17057694258E+03  0.97958545808E+01  0.80729348239E+03  0.83133399955E+03  0.10100000000E+03 0.  1.
    -200001    1    1    2    0    0 -0.25223609968E+03 -0.35824806857E+02  0.10013238449E+04  0.12013845800E+04  0.61300000000E+03 0.  1.
<mgrwt>
<rscale>  0 0.13389767E+04</rscale>
<asrwt>0</asrwt>
<pdfrwt beam="1">  1        2 0.27960835E+00 0.13389767E+04</pdfrwt>
<pdfrwt beam="2">  1       -2 0.32714467E-01 0.13389767E+04</pdfrwt>
<totfact> 0.71935942E+01</totfact>
</mgrwt>
</event>
<event>
 8    1  0.6972317E-052  0.2992316E+04  0.7818608E-02  0.8245929E-01
          2   -1    0    0  501    0  0.00000000000E+00  0.00000000000E+00  0.92642707019E+03  0.92642707020E+03  0.25500000000E-02 0.  1.
         -2   -1    0    0    0  501 -0.00000000000E+00 -0.00000000000E+00 -0.24162598652E+04  0.24162598652E+04  0.25500000000E-02 0. -1.
     200001    2    1    2    0    0 -0.61893383108E+03  0.35695974082E+03 -0.20438635460E+04  0.22503415610E+04  0.61331851651E+03 0.  0.
    5000001    2    3    3    0    0 -0.42909864454E+03  0.16153369905E+03 -0.18233222881E+04  0.18855564431E+04  0.14352752666E+03 0.  0.
        -11    1    4    4    0    0 -0.36937121299E+03  0.91564069815E+02 -0.15332525281E+04  0.15797728909E+04  0.51100000000E-03 0. -1.
     200002    1    4    4    0    0 -0.59727431554E+02  0.69969629239E+02 -0.29006976002E+03  0.30578355216E+03  0.30000000000E+02 0. -1.
     200000    1    3    3    0    0 -0.18983518654E+03  0.19542604176E+03 -0.22054125786E+03  0.36478511793E+03  0.10100000000E+03 0. -1.
    -200001    1    1    2    0    0  0.61893383108E+03 -0.35695974082E+03  0.55403075102E+03  0.10923453744E+04  0.61300000000E+03 0.  1.
<mgrwt>
<rscale>  0 0.29923159E+04</rscale>
<asrwt>0</asrwt>
<pdfrwt beam="1">  1        2 0.13234673E+00 0.29923159E+04</pdfrwt>
<pdfrwt beam="2">  1       -2 0.34517998E+00 0.29923159E+04</pdfrwt>
<totfact> 0.44938715E-01</totfact>
</mgrwt>
</event>
<event>
 8    1  0.6972317E-052  0.1897285E+04  0.7818608E-02  0.8656209E-01
         -2   -1    0    0    0  501 -0.00000000000E+00  0.00000000000E+00  0.99306639837E+03  0.99306639837E+03  0.25500000000E-02 0. -1.
          2   -1    0    0  501    0  0.00000000000E+00 -0.00000000000E+00 -0.90620564213E+03  0.90620564213E+03  0.25500000000E-02 0.  1.
     200001    2    1    2    0    0 -0.10100903638E+02 -0.52924073430E+03 -0.44804170428E+03  0.92866015857E+03  0.61763301259E+03 0.  0.
    5000001    2    3    3    0    0  0.23206897223E+03 -0.32460119438E+03 -0.40217264083E+03  0.59276052913E+03  0.17435672799E+03 0.  0.
        -11    1    4    4    0    0  0.83762258653E+02 -0.19753803829E+02 -0.37278614644E+02  0.93787119854E+02  0.51100000000E-03 0. -1.
     200002    1    4    4    0    0  0.14830671357E+03 -0.30484739055E+03 -0.36489402619E+03  0.49897340928E+03  0.30000000000E+02 0. -1.
     200000    1    3    3    0    0 -0.24216987586E+03 -0.20463953992E+03 -0.45869063445E+02  0.33589962943E+03  0.10100000000E+03 0. -1.
    -200001    1    1    2    0    0  0.10100903638E+02  0.52924073430E+03  0.53490246052E+03  0.97061188194E+03  0.61300000000E+03 0. -1.
<mgrwt>
<rscale>  0 0.18972848E+04</rscale>
<asrwt>0</asrwt>
<pdfrwt beam="1">  1        2 0.12945795E+00 0.18972848E+04</pdfrwt>
<pdfrwt beam="2">  1       -2 0.14186663E+00 0.18972848E+04</pdfrwt>
<totfact> 0.10505919E+01</totfact>
</mgrwt>
</event>
<event>
 8    1  0.6972317E-052  0.1461330E+04  0.7818608E-02  0.8910583E-01
         -2   -1    0    0    0  501 -0.00000000000E+00  0.00000000000E+00  0.18270149803E+03  0.18270149805E+03  0.25500000000E-02 0. -1.
          2   -1    0    0  501    0  0.00000000000E+00 -0.00000000000E+00 -0.29220975616E+04  0.29220975616E+04  0.25500000000E-02 0.  1.
     200001    2    1    2    0    0  0.38667128871E+03 -0.73216128009E+02 -0.14859973221E+04  0.16550912642E+04  0.61340342745E+03 0.  0.
    5000001    2    3    3    0    0  0.40406190570E+03 -0.27377008601E+03 -0.89001518908E+03  0.10179727301E+04  0.76976352834E+02 0.  0.
        -11    1    4    4    0    0  0.26892884067E+03 -0.21162588163E+03 -0.60443552767E+03  0.69458659808E+03  0.51100000000E-03 0. -1.
     200002    1    4    4    0    0  0.13513306503E+03 -0.62144204378E+02 -0.28557966142E+03  0.32338613207E+03  0.30000000000E+02 0. -1.
     200000    1    3    3    0    0 -0.17390616985E+02  0.20055395800E+03 -0.59598213297E+03  0.63711853406E+03  0.10100000000E+03 0. -1.
    -200001    1    1    2    0    0 -0.38667128871E+03  0.73216128009E+02 -0.12533987416E+04  0.14497077955E+04  0.61300000000E+03 0. -1.
<mgrwt>
<rscale>  0 0.14613304E+04</rscale>
<asrwt>0</asrwt>
<pdfrwt beam="1">  1        2 0.41744248E+00 0.14613304E+04</pdfrwt>
<pdfrwt beam="2">  1       -2 0.26100216E-01 0.14613304E+04</pdfrwt>
<totfact> 0.33708729E+01</totfact>
</mgrwt>
</event>
<event>
 8    1  0.6972317E-052  0.1643484E+04  0.7818608E-02  0.8794270E-01
          2   -1    0    0  501    0  0.00000000000E+00  0.00000000000E+00  0.21876667150E+04  0.21876667150E+04  0.25500000000E-02 0. -1.
         -2   -1    0    0    0  501 -0.00000000000E+00 -0.00000000000E+00 -0.30866686371E+03  0.30866686372E+03  0.25500000000E-02 0.  1.
     200001    2    1    2    0    0  0.11008480120E+03 -0.97545027360E+02  0.13793060475E+03  0.64465196001E+03  0.61230515432E+03 0.  0.
    5000001    2    3    3    0    0  0.31970315002E+03 -0.17033949167E+03  0.12053454581E+02  0.37027094185E+03  0.75694372704E+02 0.  0.
        -11    1    4    4    0    0  0.10324159019E+03 -0.84058561277E+02  0.22829110474E+02  0.13507714815E+03  0.51100000000E-03 0. -1.
     200002    1    4    4    0    0  0.21646155983E+03 -0.86280930390E+02 -0.10775655892E+02  0.23519379369E+03  0.30000000000E+02 0. -1.
     200000    1    3    3    0    0 -0.20961834882E+03  0.72794464306E+02  0.12587715017E+03  0.27438101816E+03  0.10100000000E+03 0.  1.
    -200001    1    1    2    0    0 -0.11008480120E+03  0.97545027360E+02  0.17410692465E+04  0.18516816187E+04  0.61300000000E+03 0. -1.
<mgrwt>
<rscale>  0 0.16434844E+04</rscale>
<asrwt>0</asrwt>
<pdfrwt beam="1">  1        2 0.31252381E+00 0.16434844E+04</pdfrwt>
<pdfrwt beam="2">  1       -2 0.44095267E-01 0.16434844E+04</pdfrwt>
<totfact> 0.29985095E+01</totfact>
</mgrwt>
</event>
<event>
 8    1  0.6972317E-052  0.2384112E+04  0.7818608E-02  0.8445476E-01
         -2   -1    0    0    0  501 -0.00000000000E+00  0.00000000000E+00  0.13786532506E+04  0.13786532506E+04  0.25500000000E-02 0. -1.
          2   -1    0    0  501    0  0.00000000000E+00 -0.00000000000E+00 -0.10307138697E+04  0.10307138697E+04  0.25500000000E-02 0.  1.
     200001    2    1    2    0    0  0.57555705459E+03  0.65006397282E+03  0.71952976208E+03  0.12834463845E+04  0.61291308651E+03 0.  0.
    5000001    2    3    3    0    0  0.15384533372E+03  0.59503163196E+03  0.35317807315E+03  0.71310973480E+03  0.77844156927E+02 0.  0.
        -11    1    4    4    0    0  0.68090496792E+02  0.35923636487E+03  0.23038449361E+03  0.43216211830E+03  0.51100000000E-03 0. -1.
     200002    1    4    4    0    0  0.85754836928E+02  0.23579526709E+03  0.12279357955E+03  0.28094761650E+03  0.30000000000E+02 0. -1.
     200000    1    3    3    0    0  0.42171172087E+03  0.55032340863E+02  0.36635168893E+03  0.57033664974E+03  0.10100000000E+03 0. -1.
    -200001    1    1    2    0    0 -0.57555705459E+03 -0.65006397282E+03 -0.37159038121E+03  0.11259207358E+04  0.61300000000E+03 0.  1.
<mgrwt>
<rscale>  0 0.23841116E+04</rscale>
<asrwt>0</asrwt>
<pdfrwt beam="1">  1        2 0.14724484E+00 0.23841116E+04</pdfrwt>
<pdfrwt beam="2">  1       -2 0.19695046E+00 0.23841116E+04</pdfrwt>
<totfact> 0.33893852E+00</totfact>
</mgrwt>
</event>
<event>
 8    1  0.6972317E-052  0.1418716E+04  0.7818608E-02  0.8940381E-01
          2   -1    0    0  501    0  0.00000000000E+00  0.00000000000E+00  0.89312005510E+03  0.89312005511E+03  0.25500000000E-02 0. -1.
         -2   -1    0    0    0  501 -0.00000000000E+00 -0.00000000000E+00 -0.56340539121E+03  0.56340539122E+03  0.25500000000E-02 0.  1.
     200001    2    1    2    0    0  0.65433737224E+02 -0.34913180071E+03  0.11865928267E+03  0.71727720508E+03  0.61174502476E+03 0.  0.
    5000001    2    3    3    0    0 -0.15775469167E+03 -0.32689393963E+03  0.23465935379E+03  0.44531284389E+03  0.10720226725E+03 0.  0.
        -11    1    4    4    0    0 -0.55992673188E+02 -0.53113335317E+02  0.14994625626E+02  0.78619619925E+02  0.51100000000E-03 0. -1.
     200002    1    4    4    0    0 -0.10176201848E+03 -0.27378060432E+03  0.21966472816E+03  0.36669322397E+03  0.30000000000E+02 0. -1.
     200000    1    3    3    0    0  0.22318842889E+03 -0.22237861082E+02 -0.11600007112E+03  0.27196436119E+03  0.10100000000E+03 0.  1.
    -200001    1    1    2    0    0 -0.65433737224E+02  0.34913180071E+03  0.21105538122E+03  0.73924824124E+03  0.61300000000E+03 0. -1.
<mgrwt>
<rscale>  0 0.14187158E+04</rscale>
<asrwt>0</asrwt>
<pdfrwt beam="1">  1        2 0.12758858E+00 0.14187158E+04</pdfrwt>
<pdfrwt beam="2">  1       -2 0.80486484E-01 0.14187158E+04</pdfrwt>
<totfact> 0.43629499E+01</totfact>
</mgrwt>
</event>
<event>
 8    1  0.6972317E-052  0.1942192E+04  0.7818608E-02  0.8634135E-01
         -2   -1    0    0    0  501 -0.00000000000E+00  0.00000000000E+00  0.18466787336E+03  0.18466787337E+03  0.25500000000E-02 0. -1.
          2   -1    0    0  501    0  0.00000000000E+00 -0.00000000000E+00 -0.51066113670E+04  0.51066113670E+04  0.25500000000E-02 0.  1.
     200001    2    1    2    0    0 -0.19576960929E+03  0.41102106912E+03 -0.82682170257E+03  0.11255793541E+04  0.61321341738E+03 0.  0.
    5000001    2    3    3    0    0 -0.39016507369E+03  0.35568830166E+03 -0.61917690554E+03  0.81871020691E+03  0.90351590390E+02 0.  0.
        -11    1    4    4    0    0 -0.37819124453E+02  0.73705538557E+02 -0.10918067288E+03  0.13705185850E+03  0.51100000000E-03 0. -1.
     200002    1    4    4    0    0 -0.35234594924E+03  0.28198276310E+03 -0.50999623266E+03  0.68165834841E+03  0.30000000000E+02 0. -1.
     200000    1    3    3    0    0  0.19439546440E+03  0.55332767458E+02 -0.20764479704E+03  0.30686914714E+03  0.10100000000E+03 0.  1.
    -200001    1    1    2    0    0  0.19576960929E+03 -0.41102106912E+03 -0.40951217910E+04  0.41656998863E+04  0.61300000000E+03 0.  1.
<mgrwt>
<rscale>  0 0.19421916E+04</rscale>
<asrwt>0</asrwt>
<pdfrwt beam="1">  1        2 0.72951582E+00 0.19421916E+04</pdfrwt>
<pdfrwt beam="2">  1       -2 0.26381128E-01 0.19421916E+04</pdfrwt>
<totfact> 0.85982174E-01</totfact>
</mgrwt>
</event>
<event>
 8    1  0.6972317E-052  0.2095682E+04  0.7818608E-02  0.8563148E-01
          2   -1    0    0  501    0  0.00000000000E+00  0.00000000000E+00  0.27361087408E+04  0.27361087408E+04  0.25500000000E-02 0.  1.
         -2   -1    0    0    0  501 -0.00000000000E+00 -0.00000000000E+00 -0.40128934463E+03  0.40128934463E+03  0.25500000000E-02 0. -1.
     200001    2    1    2    0    0  0.32935225924E+03 -0.54386055620E+03  0.20116720897E+04  0.21969458554E+04  0.61277180094E+03 0.  0.
    5000001    2    3    3    0    0 -0.80273189538E+02 -0.39475909675E+03  0.74713014016E+03  0.85556910164E+03  0.10731501259E+03 0.  0.
        -11    1    4    4    0    0 -0.26921519340E+02 -0.29181048396E+02  0.12744878145E+03  0.13348967631E+03  0.51100000000E-03 0. -1.
     200002    1    4    4    0    0 -0.53351670197E+02 -0.36557804836E+03  0.61968135871E+03  0.72207942533E+03  0.30000000000E+02 0. -1.
     200000    1    3    3    0    0  0.40962544878E+03 -0.14910145945E+03  0.12645419495E+04  0.13413767538E+04  0.10100000000E+03 0. -1.
    -200001    1    1    2    0    0 -0.32935225924E+03  0.54386055620E+03  0.32314730652E+03  0.94045223003E+03  0.61300000000E+03 0. -1.
<mgrwt>
<rscale>  0 0.20956825E+04</rscale>
<asrwt>0</asrwt>
<pdfrwt beam="1">  1        2 0.39087267E+00 0.20956825E+04</pdfrwt>
<pdfrwt beam="2">  1       -2 0.57327050E-01 0.20956825E+04</pdfrwt>
<totfact> 0.86999088E+00</totfact>
</mgrwt>
</event>
<event>
 8    1  0.6972317E-052  0.1422897E+04  0.7818608E-02  0.8937409E-01
          2   -1    0    0  501    0  0.00000000000E+00  0.00000000000E+00  0.17860683981E+04  0.17860683981E+04  0.25500000000E-02 0.  1.
         -2   -1    0    0    0  501 -0.00000000000E+00 -0.00000000000E+00 -0.28339281405E+03  0.28339281406E+03  0.25500000000E-02 0. -1.
     200001    2    1    2    0    0  0.82929509385E+02  0.31777621935E+03  0.96926254101E+03  0.11930152620E+04  0.61315292773E+03 0.  0.
    5000001    2    3    3    0    0 -0.10767004251E+02 -0.94798902811E+02 -0.96701918030E+01  0.12179746737E+03  0.75088947883E+02 0.  0.
        -11    1    4    4    0    0 -0.95408436568E+01 -0.33708607937E+02  0.27228412083E+02  0.44369858819E+02  0.51100000000E-03 0. -1.
     200002    1    4    4    0    0 -0.12261605937E+01 -0.61090294874E+02 -0.36898603886E+02  0.77427608554E+02  0.30000000000E+02 0. -1.
     200000    1    3    3    0    0  0.93696513635E+02  0.41257512216E+03  0.97893273281E+03  0.10712177946E+04  0.10100000000E+03 0.  1.
    -200001    1    1    2    0    0 -0.82929509385E+02 -0.31777621935E+03  0.53341304303E+03  0.87644595018E+03  0.61300000000E+03 0. -1.
<mgrwt>
<rscale>  0 0.14228970E+04</rscale>
<asrwt>0</asrwt>
<pdfrwt beam="1">  1        2 0.25515262E+00 0.14228970E+04</pdfrwt>
<pdfrwt beam="2">  1       -2 0.40484689E-01 0.14228970E+04</pdfrwt>
<totfact> 0.58124380E+01</totfact>
</mgrwt>
</event>
<event>
 8    1  0.6972317E-052  0.2295040E+04  0.7818608E-02  0.8479879E-01
         -2   -1    0    0    0  501 -0.00000000000E+00  0.00000000000E+00  0.11802883360E+04  0.11802883360E+04  0.25500000000E-02 0. -1.
          2   -1    0    0  501    0  0.00000000000E+00 -0.00000000000E+00 -0.11156614104E+04  0.11156614104E+04  0.25500000000E-02 0.  1.
     200001    2    1    2    0    0 -0.63414828985E+03  0.61830096273E+03 -0.36413755140E+03  0.11366188571E+04  0.61226312636E+03 0.  0.
    5000001    2    3    3    0    0  0.61687459045E+02  0.13211082516E+03 -0.19396138472E+03  0.26499441558E+03  0.10650074555E+03 0.  0.
        -11    1    4    4    0    0  0.22255722583E+02  0.79294815683E+02 -0.16968422777E+03  0.18861527545E+03  0.51100000000E-03 0. -1.
     200002    1    4    4    0    0  0.39431736463E+02  0.52816009473E+02 -0.24277156951E+02  0.76379140128E+02  0.30000000000E+02 0.  1.
     200000    1    3    3    0    0 -0.69583574889E+03  0.48619013758E+03 -0.17017616668E+03  0.87162444150E+03  0.10100000000E+03 0. -1.
    -200001    1    1    2    0    0  0.63414828985E+03 -0.61830096273E+03  0.42876447701E+03  0.11593308893E+04  0.61300000000E+03 0.  1.
<mgrwt>
<rscale>  0 0.22950400E+04</rscale>
<asrwt>0</asrwt>
<pdfrwt beam="1">  1        2 0.15938020E+00 0.22950400E+04</pdfrwt>
<pdfrwt beam="2">  1       -2 0.16861262E+00 0.22950400E+04</pdfrwt>
<totfact> 0.47532099E+00</totfact>
</mgrwt>
</event>
<event>
 8    1  0.6972317E-052  0.1267133E+04  0.7818608E-02  0.9056043E-01
         -2   -1    0    0    0  501 -0.00000000000E+00  0.00000000000E+00  0.17908382731E+03  0.17908382733E+03  0.25500000000E-02 0. -1.
          2   -1    0    0  501    0  0.00000000000E+00 -0.00000000000E+00 -0.22414445490E+04  0.22414445490E+04  0.25500000000E-02 0.  1.
     200001    2    1    2    0    0 -0.11247929170E+03 -0.11184574081E+03 -0.99886586967E+03  0.11828081490E+04  0.61330337601E+03 0.  0.
    5000001    2    3    3    0    0 -0.51722760201E+02 -0.34663251066E+03 -0.63300147983E+03  0.73239285714E+03  0.11348604473E+03 0.  0.
        -11    1    4    4    0    0 -0.42467324812E+01 -0.47741544623E+02 -0.28663234360E+02  0.55846851514E+02  0.51100000000E-03 0. -1.
     200002    1    4    4    0    0 -0.47476027720E+02 -0.29889096604E+03 -0.60433824547E+03  0.67654600563E+03  0.30000000000E+02 0. -1.
     200000    1    3    3    0    0 -0.60756531495E+02  0.23478676986E+03 -0.36586438984E+03  0.45041529189E+03  0.10100000000E+03 0. -1.
    -200001    1    1    2    0    0  0.11247929170E+03  0.11184574081E+03 -0.10634948520E+04  0.12377202273E+04  0.61300000000E+03 0.  1.
<mgrwt>
<rscale>  0 0.12671329E+04</rscale>
<asrwt>0</asrwt>
<pdfrwt beam="1">  1        2 0.32020635E+00 0.12671329E+04</pdfrwt>
<pdfrwt beam="2">  1       -2 0.25583405E-01 0.12671329E+04</pdfrwt>
<totfact> 0.81498155E+01</totfact>
</mgrwt>
</event>
<event>
 8    1  0.6972317E-052  0.1369388E+04  0.7818608E-02  0.8976280E-01
         -2   -1    0    0    0  501 -0.00000000000E+00  0.00000000000E+00  0.13398012287E+04  0.13398012287E+04  0.25500000000E-02 0. -1.
          2   -1    0    0  501    0  0.00000000000E+00 -0.00000000000E+00 -0.34990701540E+03  0.34990701541E+03  0.25500000000E-02 0.  1.
     200001    2    1    2    0    0 -0.63550462676E+01  0.25203047235E+03  0.70749209765E+03  0.96923638447E+03  0.61262905183E+03 0.  0.
    5000001    2    3    3    0    0  0.16504558680E+03  0.36654792539E+03  0.57096794587E+03  0.70215537038E+03  0.73622969362E+02 0.  0.
        -11    1    4    4    0    0  0.14023477012E+03  0.26507284184E+03  0.42618136546E+03  0.52111415112E+03  0.51100000000E-03 0. -1.
     200002    1    4    4    0    0  0.24810816686E+02  0.10147508356E+03  0.14478658040E+03  0.18104121926E+03  0.30000000000E+02 0.  1.
     200000    1    3    3    0    0 -0.17140063307E+03 -0.11451745304E+03  0.13652415178E+03  0.26708101409E+03  0.10100000000E+03 0.  1.
    -200001    1    1    2    0    0  0.63550462676E+01 -0.25203047235E+03  0.28240211564E+03  0.72047185964E+03  0.61300000000E+03 0.  1.
<mgrwt>
<rscale>  0 0.13693880E+04</rscale>
<asrwt>0</asrwt>
<pdfrwt beam="1">  1        2 0.49986717E-01 0.13693880E+04</pdfrwt>
<pdfrwt beam="2">  1       -2 0.19140017E+00 0.13693880E+04</pdfrwt>
<totfact> 0.14872086E+01</totfact>
</mgrwt>
</event>
<event>
 8    1  0.6972317E-052  0.1435081E+04  0.7818608E-02  0.8928809E-01
          2   -1    0    0  501    0  0.00000000000E+00  0.00000000000E+00  0.18543593571E+04  0.18543593571E+04  0.25500000000E-02 0.  1.
         -2   -1    0    0    0  501 -0.00000000000E+00 -0.00000000000E+00 -0.27765086600E+03  0.27765086601E+03  0.25500000000E-02 0. -1.
     200001    2    1    2    0    0 -0.12196646760E+03 -0.34171097644E+03  0.66134558107E+03  0.97213933903E+03  0.61321668785E+03 0.  0.
    5000001    2    3    3    0    0  0.13958560920E+03 -0.27223899758E+03  0.80677509978E+02  0.32359307738E+03  0.67863134406E+02 0.  0.
        -11    1    4    4    0    0  0.39759257337E+02 -0.46656211350E+02 -0.30245421918E+01  0.61373841800E+02  0.51100000000E-03 0. -1.
     200002    1    4    4    0    0  0.99826351860E+02 -0.22558278623E+03  0.83702052170E+02  0.26221923558E+03  0.30000000000E+02 0. -1.
     200000    1    3    3    0    0 -0.26155207679E+03 -0.69471978859E+02  0.58066807109E+03  0.64854626165E+03  0.10100000000E+03 0.  1.
    -200001    1    1    2    0    0  0.12196646760E+03  0.34171097644E+03  0.91536290999E+03  0.11598708840E+04  0.61300000000E+03 0. -1.
<mgrwt>
<rscale>  0 0.14350812E+04</rscale>
<asrwt>0</asrwt>
<pdfrwt beam="1">  1        2 0.26490847E+00 0.14350812E+04</pdfrwt>
<pdfrwt beam="2">  1       -2 0.39664411E-01 0.14350812E+04</pdfrwt>
<totfact> 0.55733424E+01</totfact>
</mgrwt>
</event>
<event>
 8    1  0.6972317E-052  0.1386364E+04  0.7818608E-02  0.8963749E-01
         -2   -1    0    0    0  501 -0.00000000000E+00  0.00000000000E+00  0.27056321177E+03  0.27056321178E+03  0.25500000000E-02 0. -1.
          2   -1    0    0  501    0  0.00000000000E+00 -0.00000000000E+00 -0.17759290788E+04  0.17759290788E+04  0.25500000000E-02 0.  1.
     200001    2    1    2    0    0 -0.21397688872E+03 -0.96595299153E+02 -0.42752252452E+03  0.78449703238E+03  0.61444554202E+03 0.  0.
    5000001    2    3    3    0    0 -0.25206342446E+03  0.28657956854E+01 -0.15872972142E+03  0.47823951885E+03  0.37413063253E+03 0.  0.
        -11    1    4    4    0    0 -0.44766635762E+02  0.15004935798E+03  0.30967089162E+02  0.15961773749E+03  0.51100000000E-03 0. -1.
     200002    1    4    4    0    0 -0.20729678870E+03 -0.14718356230E+03 -0.18969681058E+03  0.31862178137E+03  0.30000000000E+02 0. -1.
     200000    1    3    3    0    0  0.38086535741E+02 -0.99461094838E+02 -0.26879280310E+03  0.30625751353E+03  0.10100000000E+03 0.  1.
    -200001    1    1    2    0    0  0.21397688872E+03  0.96595299153E+02 -0.10778433425E+04  0.12619952582E+04  0.61300000000E+03 0. -1.
<mgrwt>
<rscale>  0 0.13863637E+04</rscale>
<asrwt>0</asrwt>
<pdfrwt beam="1">  1        2 0.25370415E+00 0.13863637E+04</pdfrwt>
<pdfrwt beam="2">  1       -2 0.38651888E-01 0.13863637E+04</pdfrwt>
<totfact> 0.64570152E+01</totfact>
</mgrwt>
</event>
<event>
 8    1  0.6972317E-052  0.1364607E+04  0.7818608E-02  0.8979844E-01
          2   -1    0    0  501    0  0.00000000000E+00  0.00000000000E+00  0.10831374115E+04  0.10831374115E+04  0.25500000000E-02 0.  1.
         -2   -1    0    0    0  501 -0.00000000000E+00 -0.00000000000E+00 -0.42980496157E+03  0.42980496157E+03  0.25500000000E-02 0. -1.
     200001    2    1    2    0    0  0.26399113394E+03 -0.85541884460E+02  0.44644801775E+03  0.80896872226E+03  0.61490310477E+03 0.  0.
    5000001    2    3    3    0    0  0.43533914754E+03 -0.48227608500E+02  0.40100366884E+03  0.60155925815E+03  0.96039174505E+02 0.  0.
        -11    1    4    4    0    0  0.34074803174E+03 -0.65050900731E+02  0.29487955879E+03  0.45529638151E+03  0.51100000000E-03 0. -1.
     200002    1    4    4    0    0  0.94591115797E+02  0.16823292231E+02  0.10612411005E+03  0.14626287664E+03  0.30000000000E+02 0. -1.
     200000    1    3    3    0    0 -0.17134801360E+03 -0.37314275960E+02  0.45444348908E+02  0.20740946411E+03  0.10100000000E+03 0. -1.
    -200001    1    1    2    0    0 -0.26399113394E+03  0.85541884460E+02  0.20688443222E+03  0.70397365085E+03  0.61300000000E+03 0.  1.
<mgrwt>
<rscale>  0 0.13646067E+04</rscale>
<asrwt>0</asrwt>
<pdfrwt beam="1">  1        2 0.15473391E+00 0.13646067E+04</pdfrwt>
<pdfrwt beam="2">  1       -2 0.61400710E-01 0.13646067E+04</pdfrwt>
<totfact> 0.60235671E+01</totfact>
</mgrwt>
</event>
<event>
 8    1  0.6972317E-052  0.2026309E+04  0.7818608E-02  0.8594418E-01
          2   -1    0    0  501    0  0.00000000000E+00  0.00000000000E+00  0.15774698971E+04  0.15774698971E+04  0.25500000000E-02 0.  1.
         -2   -1    0    0    0  501 -0.00000000000E+00 -0.00000000000E+00 -0.65071391121E+03  0.65071391122E+03  0.25500000000E-02 0. -1.
     200001    2    1    2    0    0 -0.22896019854E+03 -0.22209932375E+02 -0.38704694199E+03  0.76027264381E+03  0.61261170737E+03 0.  0.
    5000001    2    3    3    0    0 -0.19915829913E+03  0.48353017994E+02  0.11033867763E+03  0.24698837775E+03  0.82623195907E+02 0.  0.
        -11    1    4    4    0    0 -0.10085393155E+03  0.51786860663E+02  0.32272901299E+02  0.11787677721E+03  0.51100000000E-03 0. -1.
     200002    1    4    4    0    0 -0.98304367577E+02 -0.34338426694E+01  0.78065776331E+02  0.12911160054E+03  0.30000000000E+02 0. -1.
     200000    1    3    3    0    0 -0.29801899410E+02 -0.70562950368E+02 -0.49738561962E+03  0.51328426605E+03  0.10100000000E+03 0. -1.
    -200001    1    1    2    0    0  0.22896019854E+03  0.22209932375E+02  0.13138029279E+04  0.14679111645E+04  0.61300000000E+03 0.  1.
<mgrwt>
<rscale>  0 0.20263086E+04</rscale>
<asrwt>0</asrwt>
<pdfrwt beam="1">  1        2 0.22535284E+00 0.20263086E+04</pdfrwt>
<pdfrwt beam="2">  1       -2 0.92959130E-01 0.20263086E+04</pdfrwt>
<totfact> 0.12138914E+01</totfact>
</mgrwt>
</event>
<event>
 8    1  0.6972317E-052  0.1331265E+04  0.7818608E-02  0.9005132E-01
         -2   -1    0    0    0  501 -0.00000000000E+00  0.00000000000E+00  0.11590427127E+03  0.11590427130E+03  0.25500000000E-02 0. -1.
          2   -1    0    0  501    0  0.00000000000E+00 -0.00000000000E+00 -0.38226961157E+04  0.38226961157E+04  0.25500000000E-02 0.  1.
     200001    2    1    2    0    0  0.36016462625E+02  0.22100205342E+03 -0.14639234792E+04  0.16027137038E+04  0.61276436750E+03 0.  0.
    5000001    2    3    3    0    0  0.96141513967E+02 -0.93908350282E+02 -0.10843260725E+04  0.10956843404E+04  0.81848477630E+02 0.  0.
        -11    1    4    4    0    0  0.31467380779E+02 -0.36990389723E+02 -0.16947279359E+03  0.17629382505E+03  0.51100000000E-03 0. -1.
     200002    1    4    4    0    0  0.64674133189E+02 -0.56917960558E+02 -0.91485327890E+03  0.91939051532E+03  0.30000000000E+02 0. -1.
     200000    1    3    3    0    0 -0.60125051342E+02  0.31491040370E+03 -0.37959740671E+03  0.50702936339E+03  0.10100000000E+03 0.  1.
    -200001    1    1    2    0    0 -0.36016462625E+02 -0.22100205342E+03 -0.22428683652E+04  0.23358866832E+04  0.61300000000E+03 0.  1.
<mgrwt>
<rscale>  0 0.13312653E+04</rscale>
<asrwt>0</asrwt>
<pdfrwt beam="1">  1        2 0.54609937E+00 0.13312653E+04</pdfrwt>
<pdfrwt beam="2">  1       -2 0.16557755E-01 0.13312653E+04</pdfrwt>
<totfact> 0.22254896E+01</totfact>
</mgrwt>
</event>
<event>
 8    1  0.6972317E-052  0.1355636E+04  0.7818608E-02  0.8986573E-01
          2   -1    0    0  501    0  0.00000000000E+00  0.00000000000E+00  0.12360927532E+04  0.12360927532E+04  0.25500000000E-02 0.  1.
         -2   -1    0    0    0  501 -0.00000000000E+00 -0.00000000000E+00 -0.37168497120E+03  0.37168497121E+03  0.25500000000E-02 0. -1.
     200001    2    1    2    0    0 -0.20188736545E+03 -0.17113458185E+03  0.29116048567E+03  0.72776237443E+03  0.61222389025E+03 0.  0.
    5000001    2    3    3    0    0 -0.37806147366E+03 -0.21935039376E+03  0.12515716338E+03  0.46107869677E+03  0.76708382660E+02 0.  0.
        -11    1    4    4    0    0 -0.16218567471E+03 -0.10329993418E+03  0.22250962346E+02  0.19357214368E+03  0.51100000000E-03 0. -1.
     200002    1    4    4    0    0 -0.21587579894E+03 -0.11605045958E+03  0.10290620103E+03  0.26750655310E+03  0.30000000000E+02 0. -1.
     200000    1    3    3    0    0  0.17617410821E+03  0.48215811906E+02  0.16600332229E+03  0.26668367766E+03  0.10100000000E+03 0.  1.
    -200001    1    1    2    0    0  0.20188736545E+03  0.17113458185E+03  0.57324729632E+03  0.88001534997E+03  0.61300000000E+03 0.  1.
<mgrwt>
<rscale>  0 0.13556358E+04</rscale>
<asrwt>0</asrwt>
<pdfrwt beam="1">  1        2 0.17658468E+00 0.13556358E+04</pdfrwt>
<pdfrwt beam="2">  1       -2 0.53097853E-01 0.13556358E+04</pdfrwt>
<totfact> 0.66618887E+01</totfact>
</mgrwt>
</event>
<event>
 8    1  0.6972317E-052  0.1448063E+04  0.7818608E-02  0.8919745E-01
         -2   -1    0    0    0  501 -0.00000000000E+00  0.00000000000E+00  0.27242073074E+03  0.27242073075E+03  0.25500000000E-02 0. -1.
          2   -1    0    0  501    0  0.00000000000E+00 -0.00000000000E+00 -0.19243082767E+04  0.19243082767E+04  0.25500000000E-02 0.  1.
     200001    2    1    2    0    0 -0.37983773239E+03  0.20959928097E+02 -0.72726990888E+03  0.10239533271E+04  0.61224412961E+03 0.  0.
    5000001    2    3    3    0    0 -0.33329538217E+03 -0.24471765182E+03 -0.32924861319E+03  0.53265635109E+03  0.65921151286E+02 0.  0.
        -11    1    4    4    0    0 -0.18425882374E+03 -0.15977525629E+03 -0.20695021352E+03  0.31985596371E+03  0.51100000000E-03 0. -1.
     200002    1    4    4    0    0 -0.14903655843E+03 -0.84942395528E+02 -0.12229839967E+03  0.21280038738E+03  0.30000000000E+02 0.  1.
     200000    1    3    3    0    0 -0.46542350222E+02  0.26567757992E+03 -0.39802129569E+03  0.49129697603E+03  0.10100000000E+03 0.  1.
    -200001    1    1    2    0    0  0.37983773239E+03 -0.20959928097E+02 -0.92461763705E+03  0.11727756803E+04  0.61300000000E+03 0.  1.
<mgrwt>
<rscale>  0 0.14480628E+04</rscale>
<asrwt>0</asrwt>
<pdfrwt beam="1">  1        2 0.27490117E+00 0.14480628E+04</pdfrwt>
<pdfrwt beam="2">  1       -2 0.38917248E-01 0.14480628E+04</pdfrwt>
<totfact> 0.53184812E+01</totfact>
</mgrwt>
</event>
<event>
 8    1  0.6972317E-052  0.1453982E+04  0.7818608E-02  0.8915645E-01
          2   -1    0    0  501    0  0.00000000000E+00  0.00000000000E+00  0.30999455948E+04  0.30999455948E+04  0.25500000000E-02 0.  1.
         -2   -1    0    0    0  501 -0.00000000000E+00 -0.00000000000E+00 -0.17049195592E+03  0.17049195594E+03  0.25500000000E-02 0. -1.
     200001    2    1    2    0    0 -0.22818934108E+03  0.45360572403E+01  0.74995106994E+03  0.99489554954E+03  0.61261700596E+03 0.  0.
    5000001    2    3    3    0    0 -0.41836800167E+03 -0.18060415134E+02  0.56782615333E+03  0.71196621427E+03  0.95453582668E+02 0.  0.
        -11    1    4    4    0    0 -0.10637818944E+03  0.22417985742E+02  0.19463610656E+03  0.22293967626E+03  0.51100000000E-03 0. -1.
     200002    1    4    4    0    0 -0.31198981223E+03 -0.40478400875E+02  0.37319004676E+03  0.48902653801E+03  0.30000000000E+02 0. -1.
     200000    1    3    3    0    0  0.19017866059E+03  0.22596472374E+02  0.18212491661E+03  0.28292933527E+03  0.10100000000E+03 0. -1.
    -200001    1    1    2    0    0  0.22818934108E+03 -0.45360572403E+01  0.21795025690E+04  0.22755420012E+04  0.61300000000E+03 0.  1.
<mgrwt>
<rscale>  0 0.14539818E+04</rscale>
<asrwt>0</asrwt>
<pdfrwt beam="1">  1        2 0.44284936E+00 0.14539818E+04</pdfrwt>
<pdfrwt beam="2">  1       -2 0.24355994E-01 0.14539818E+04</pdfrwt>
<totfact> 0.30437238E+01</totfact>
</mgrwt>
</event>
<event>
 8    1  0.6972317E-052  0.1403030E+04  0.7818608E-02  0.8951628E-01
          2   -1    0    0  501    0  0.00000000000E+00  0.00000000000E+00  0.22117607228E+04  0.22117607228E+04  0.25500000000E-02 0.  1.
         -2   -1    0    0    0  501 -0.00000000000E+00 -0.00000000000E+00 -0.22250299456E+03  0.22250299457E+03  0.25500000000E-02 0. -1.
     200001    2    1    2    0    0 -0.59528260880E+02  0.30514714845E+03  0.12360338755E+04  0.14145708380E+04  0.61365504812E+03 0.  0.
    5000001    2    3    3    0    0 -0.18739384392E+03  0.11650165437E+03  0.11130397550E+04  0.11366045028E+04  0.65751133332E+02 0.  0.
        -11    1    4    4    0    0 -0.25431343474E+02  0.11982457591E+01  0.73118418486E+02  0.77424105716E+02  0.51100000000E-03 0. -1.
     200002    1    4    4    0    0 -0.16196250045E+03  0.11530340861E+03  0.10399213365E+04  0.10591803971E+04  0.30000000000E+02 0. -1.
     200000    1    3    3    0    0  0.12786558304E+03  0.18864549408E+03  0.12299412056E+03  0.27796633511E+03  0.10100000000E+03 0.  1.
    -200001    1    1    2    0    0  0.59528260880E+02 -0.30514714845E+03  0.75322385273E+03  0.10196928794E+04  0.61300000000E+03 0. -1.
<mgrwt>
<rscale>  0 0.14030301E+04</rscale>
<asrwt>0</asrwt>
<pdfrwt beam="1">  1        2 0.31596583E+00 0.14030301E+04</pdfrwt>
<pdfrwt beam="2">  1       -2 0.31786141E-01 0.14030301E+04</pdfrwt>
<totfact> 0.55924643E+01</totfact>
</mgrwt>
</event>
<event>
 8    1  0.6972317E-052  0.1894291E+04  0.7818608E-02  0.8657703E-01
          2   -1    0    0  501    0  0.00000000000E+00  0.00000000000E+00  0.30766448223E+04  0.30766448223E+04  0.25500000000E-02 0.  1.
         -2   -1    0    0    0  501 -0.00000000000E+00 -0.00000000000E+00 -0.29157885432E+03  0.29157885433E+03  0.25500000000E-02 0. -1.
     200001    2    1    2    0    0  0.31407690215E+03  0.36573063815E+03  0.23499386537E+04  0.24751906538E+04  0.60988023142E+03 0.  0.
    5000001    2    3    3    0    0  0.23904767185E+03  0.50709378532E+03  0.19839075493E+04  0.20631315632E+04  0.79591372351E+02 0.  0.
        -11    1    4    4    0    0  0.17442424618E+03  0.35022772138E+03  0.14663344655E+04  0.15176363330E+04  0.51100000000E-03 0. -1.
     200002    1    4    4    0    0  0.64623425670E+02  0.15686606393E+03  0.51757308377E+03  0.54549523023E+03  0.30000000000E+02 0.  1.
     200000    1    3    3    0    0  0.75029230300E+02 -0.14136314717E+03  0.36603110442E+03  0.41205909064E+03  0.10100000000E+03 0.  1.
    -200001    1    1    2    0    0 -0.31407690215E+03 -0.36573063815E+03  0.43512731430E+03  0.89303302279E+03  0.61300000000E+03 0. -1.
<mgrwt>
<rscale>  0 0.18942910E+04</rscale>
<asrwt>0</asrwt>
<pdfrwt beam="1">  1        2 0.43952067E+00 0.18942910E+04</pdfrwt>
<pdfrwt beam="2">  1       -2 0.41654124E-01 0.18942910E+04</pdfrwt>
<totfact> 0.10979888E+01</totfact>
</mgrwt>
</event>
<event>
 8    1  0.6972317E-052  0.1537166E+04  0.7818608E-02  0.8860107E-01
         -2   -1    0    0    0  501 -0.00000000000E+00  0.00000000000E+00  0.47329977115E+03  0.47329977115E+03  0.25500000000E-02 0. -1.
          2   -1    0    0  501    0  0.00000000000E+00 -0.00000000000E+00 -0.12480881574E+04  0.12480881574E+04  0.25500000000E-02 0.  1.
     200001    2    1    2    0    0  0.91019610638E+02 -0.20293942667E+03  0.68000109310E+02  0.65577522750E+03  0.61314611123E+03 0.  0.
    5000001    2    3    3    0    0  0.31545002649E+03 -0.32232552924E+01  0.86987010125E+02  0.33825819949E+03  0.85631542101E+02 0.  0.
        -11    1    4    4    0    0  0.57186850420E+02  0.12665017893E+02 -0.11656681534E+02  0.59721158426E+02  0.51100000000E-03 0. -1.
     200002    1    4    4    0    0  0.25826317607E+03 -0.15888273185E+02  0.98643691659E+02  0.27853704106E+03  0.30000000000E+02 0. -1.
     200000    1    3    3    0    0 -0.22443041586E+03 -0.19971617138E+03 -0.18986900815E+02  0.31751702801E+03  0.10100000000E+03 0. -1.
    -200001    1    1    2    0    0 -0.91019610638E+02  0.20293942667E+03 -0.84278849560E+03  0.10656127011E+04  0.61300000000E+03 0.  1.
<mgrwt>
<rscale>  0 0.15371660E+04</rscale>
<asrwt>0</asrwt>
<pdfrwt beam="1">  1        2 0.17829831E+00 0.15371660E+04</pdfrwt>
<pdfrwt beam="2">  1       -2 0.67614254E-01 0.15371660E+04</pdfrwt>
<totfact> 0.38842799E+01</totfact>
</mgrwt>
</event>
<event>
 8    1  0.6972317E-052  0.2274980E+04  0.7818608E-02  0.8487852E-01
         -2   -1    0    0    0  501 -0.00000000000E+00  0.00000000000E+00  0.25548541643E+03  0.25548541644E+03  0.25500000000E-02 0. -1.
          2   -1    0    0  501    0  0.00000000000E+00 -0.00000000000E+00 -0.50644138884E+04  0.50644138884E+04  0.25500000000E-02 0.  1.
     200001    2    1    2    0    0  0.27874706271E+03 -0.84568034260E+03 -0.15769711463E+04  0.19119391640E+04  0.61302381981E+03 0.  0.
    5000001    2    3    3    0    0  0.20535800681E+03 -0.88768646175E+03 -0.15077036074E+04  0.17631122191E+04  0.72355816553E+02 0.  0.
        -11    1    4    4    0    0  0.12753503319E+03 -0.52985493632E+03 -0.95100989026E+03  0.10960981934E+04  0.51100000000E-03 0. -1.
     200002    1    4    4    0    0  0.77822973618E+02 -0.35783152543E+03 -0.55669371711E+03  0.66701402570E+03  0.30000000000E+02 0. -1.
     200000    1    3    3    0    0  0.73389055902E+02  0.42006119147E+02 -0.69267538979E+02  0.14882694490E+03  0.10100000000E+03 0. -1.
    -200001    1    1    2    0    0 -0.27874706271E+03  0.84568034260E+03 -0.32319573257E+04  0.34079601409E+04  0.61300000000E+03 0.  1.
<mgrwt>
<rscale>  0 0.22749803E+04</rscale>
<asrwt>0</asrwt>
<pdfrwt beam="1">  1        2 0.72348764E+00 0.22749803E+04</pdfrwt>
<pdfrwt beam="2">  1       -2 0.36497920E-01 0.22749803E+04</pdfrwt>
<totfact> 0.49698906E-01</totfact>
</mgrwt>
</event>
<event>
 8    1  0.6972317E-052  0.1383257E+04  0.7818608E-02  0.8966028E-01
         -2   -1    0    0    0  501 -0.00000000000E+00  0.00000000000E+00  0.39325114560E+03  0.39325114561E+03  0.25500000000E-02 0. -1.
          2   -1    0    0  501    0  0.00000000000E+00 -0.00000000000E+00 -0.12163977155E+04  0.12163977156E+04  0.25500000000E-02 0.  1.
     200001    2    1    2    0    0  0.27761272939E+03  0.95173208203E+02 -0.26160126989E+03  0.72804300190E+03  0.61276799943E+03 0.  0.
    5000001    2    3    3    0    0  0.42944936492E+03  0.17615719173E+03 -0.13147605930E+03  0.48982809911E+03  0.84779120575E+02 0.  0.
        -11    1    4    4    0    0  0.93658131581E+02  0.57530522118E+01 -0.32835565340E+02  0.99413870121E+02  0.51100000000E-03 0. -1.
     200002    1    4    4    0    0  0.33579123334E+03  0.17040413952E+03 -0.98640493959E+02  0.39041422899E+03  0.30000000000E+02 0. -1.
     200000    1    3    3    0    0 -0.15183663553E+03 -0.80983983529E+02 -0.13012521059E+03  0.23821490278E+03  0.10100000000E+03 0.  1.
    -200001    1    1    2    0    0 -0.27761272939E+03 -0.95173208203E+02 -0.56154530005E+03  0.88160585927E+03  0.61300000000E+03 0.  1.
<mgrwt>
<rscale>  0 0.13832567E+04</rscale>
<asrwt>0</asrwt>
<pdfrwt beam="1">  1        2 0.17377110E+00 0.13832567E+04</pdfrwt>
<pdfrwt beam="2">  1       -2 0.56178736E-01 0.13832567E+04</pdfrwt>
<totfact> 0.60686393E+01</totfact>
</mgrwt>
</event>
<event>
 8    1  0.6972317E-052  0.1372385E+04  0.7818608E-02  0.8974054E-01
         -2   -1    0    0    0  501 -0.00000000000E+00  0.00000000000E+00  0.20931317017E+03  0.20931317018E+03  0.25500000000E-02 0. -1.
          2   -1    0    0  501    0  0.00000000000E+00 -0.00000000000E+00 -0.22495475947E+04  0.22495475947E+04  0.25500000000E-02 0.  1.
     200001    2    1    2    0    0 -0.13535653416E+03 -0.22774488977E+03 -0.71082067855E+03  0.97114471867E+03  0.60635542497E+03 0.  0.
    5000001    2    3    3    0    0 -0.24968673064E+03  0.89231180496E+02 -0.44950895125E+03  0.53293239368E+03  0.10794893214E+03 0.  0.
        -11    1    4    4    0    0 -0.23512890304E+03  0.65843964536E+02 -0.36531471777E+03  0.43940399603E+03  0.51100000000E-03 0. -1.
     200002    1    4    4    0    0 -0.14557827596E+02  0.23387215960E+02 -0.84194233485E+02  0.93528397649E+02  0.30000000000E+02 0. -1.
     200000    1    3    3    0    0  0.11433019648E+03 -0.31697607026E+03 -0.26131172730E+03  0.43821232499E+03  0.10100000000E+03 0. -1.
    -200001    1    1    2    0    0  0.13535653416E+03  0.22774488977E+03 -0.13294137459E+04  0.14877160462E+04  0.61300000000E+03 0. -1.
<mgrwt>
<rscale>  0 0.13723847E+04</rscale>
<asrwt>0</asrwt>
<pdfrwt beam="1">  1        2 0.32136393E+00 0.13723847E+04</pdfrwt>
<pdfrwt beam="2">  1       -2 0.29901883E-01 0.13723847E+04</pdfrwt>
<totfact> 0.60091673E+01</totfact>
</mgrwt>
</event>
<event>
 8    1  0.6972317E-052  0.2305810E+04  0.7818608E-02  0.8475634E-01
         -2   -1    0    0    0  501 -0.00000000000E+00  0.00000000000E+00  0.83913913055E+03  0.83913913056E+03  0.25500000000E-02 0. -1.
          2   -1    0    0  501    0  0.00000000000E+00 -0.00000000000E+00 -0.15839918341E+04  0.15839918341E+04  0.25500000000E-02 0.  1.
     200001    2    1    2    0    0  0.80571908123E+03  0.26424303329E+03 -0.88078882138E+03  0.13680218487E+04  0.61374849264E+03 0.  0.
    5000001    2    3    3    0    0  0.33396002333E+02 -0.63319347258E+01 -0.36795614418E+03  0.39699553275E+03  0.14511492898E+03 0.  0.
        -11    1    4    4    0    0  0.79723625720E+02 -0.33795300640E+02 -0.19430471834E+03  0.21272588562E+03  0.51100000000E-03 0. -1.
     200002    1    4    4    0    0 -0.46327623387E+02  0.27463365915E+02 -0.17365142584E+03  0.18426964713E+03  0.30000000000E+02 0. -1.
     200000    1    3    3    0    0  0.77232307890E+03  0.27057496801E+03 -0.51283267720E+03  0.97102631598E+03  0.10100000000E+03 0. -1.
    -200001    1    1    2    0    0 -0.80571908123E+03 -0.26424303329E+03  0.13593611779E+03  0.10551091160E+04  0.61300000000E+03 0. -1.
<mgrwt>
<rscale>  0 0.23058096E+04</rscale>
<asrwt>0</asrwt>
<pdfrwt beam="1">  1        2 0.22628454E+00 0.23058096E+04</pdfrwt>
<pdfrwt beam="2">  1       -2 0.11987702E+00 0.23058096E+04</pdfrwt>
<totfact> 0.63998637E+00</totfact>
</mgrwt>
</event>
<event>
 8    1  0.6972317E-052  0.2149396E+04  0.7818608E-02  0.8539791E-01
         -2   -1    0    0    0  501 -0.00000000000E+00  0.00000000000E+00  0.68174836707E+03  0.68174836707E+03  0.25500000000E-02 0. -1.
          2   -1    0    0  501    0  0.00000000000E+00 -0.00000000000E+00 -0.16941381958E+04  0.16941381958E+04  0.25500000000E-02 0.  1.
     200001    2    1    2    0    0  0.76466857574E+03  0.13551112900E+03 -0.41435394831E+02  0.98966767341E+03  0.61208162449E+03 0.  0.
    5000001    2    3    3    0    0  0.45698403040E+03  0.26342006235E+03 -0.24476182897E+03  0.58646411007E+03  0.76205420983E+02 0.  0.
        -11    1    4    4    0    0  0.31674035209E+03  0.18589670733E+03 -0.19604901817E+03  0.41631388874E+03  0.51100000000E-03 0. -1.
     200002    1    4    4    0    0  0.14024367832E+03  0.77523355013E+02 -0.48712810807E+02  0.17015022132E+03  0.30000000000E+02 0.  1.
     200000    1    3    3    0    0  0.30768454534E+03 -0.12790893335E+03  0.20332643414E+03  0.40320356334E+03  0.10100000000E+03 0. -1.
    -200001    1    1    2    0    0 -0.76466857574E+03 -0.13551112900E+03 -0.97095443393E+03  0.13862188895E+04  0.61300000000E+03 0.  1.
<mgrwt>
<rscale>  0 0.21493961E+04</rscale>
<asrwt>0</asrwt>
<pdfrwt beam="1">  1        2 0.24201974E+00 0.21493961E+04</pdfrwt>
<pdfrwt beam="2">  1       -2 0.97392625E-01 0.21493961E+04</pdfrwt>
<totfact> 0.93653074E+00</totfact>
</mgrwt>
</event>
<event>
 8    1  0.6972317E-052  0.1674991E+04  0.7818608E-02  0.8775758E-01
          2   -1    0    0  501    0  0.00000000000E+00  0.00000000000E+00  0.17855145391E+04  0.17855145391E+04  0.25500000000E-02 0.  1.
         -2   -1    0    0    0  501 -0.00000000000E+00 -0.00000000000E+00 -0.39282716922E+03  0.39282716922E+03  0.25500000000E-02 0. -1.
     200001    2    1    2    0    0 -0.25728774025E+02  0.53325417925E+02 -0.40937824676E+02  0.61803540234E+03  0.61382919697E+03 0.  0.
    5000001    2    3    3    0    0 -0.19670464706E+02  0.68487542359E+02  0.26947573071E+03  0.29119573447E+03  0.84263370965E+02 0.  0.
        -11    1    4    4    0    0 -0.17614759489E+02 -0.11201194532E+02  0.92021640562E+02  0.94359572078E+02  0.51100000000E-03 0. -1.
     200002    1    4    4    0    0 -0.20557052167E+01  0.79688736892E+02  0.17745409015E+03  0.19683616239E+03  0.30000000000E+02 0. -1.
     200000    1    3    3    0    0 -0.60583093190E+01 -0.15162124435E+02 -0.31041355539E+03  0.32683966788E+03  0.10100000000E+03 0. -1.
    -200001    1    1    2    0    0  0.25728774025E+02 -0.53325417925E+02  0.14336251946E+04  0.15603063060E+04  0.61300000000E+03 0.  1.
<mgrwt>
<rscale>  0 0.16749909E+04</rscale>
<asrwt>0</asrwt>
<pdfrwt beam="1">  1        2 0.25507351E+00 0.16749909E+04</pdfrwt>
<pdfrwt beam="2">  1       -2 0.56118167E-01 0.16749909E+04</pdfrwt>
<totfact> 0.29495058E+01</totfact>
</mgrwt>
</event>
<event>
 8    1  0.6972317E-052  0.1928335E+04  0.7818608E-02  0.8640879E-01
          2   -1    0    0  501    0  0.00000000000E+00  0.00000000000E+00  0.18811365142E+04  0.18811365142E+04  0.25500000000E-02 0.  1.
         -2   -1    0    0    0  501 -0.00000000000E+00 -0.00000000000E+00 -0.49417968266E+03  0.49417968266E+03  0.25500000000E-02 0. -1.
     200001    2    1    2    0    0  0.38030593770E+03 -0.18882306958E+03 -0.59225533588E+02  0.74820243591E+03  0.61319855139E+03 0.  0.
    5000001    2    3    3    0    0  0.28433795574E+02 -0.29892559229E+03 -0.16323338278E+03  0.35202671404E+03  0.84336704279E+02 0.  0.
        -11    1    4    4    0    0 -0.11291157928E+02 -0.15651007041E+02 -0.28495191040E+02  0.34415406164E+02  0.51100000000E-03 0. -1.
     200002    1    4    4    0    0  0.39724953503E+02 -0.28327458525E+03 -0.13473819174E+03  0.31761130788E+03  0.30000000000E+02 0. -1.
     200000    1    3    3    0    0  0.35187214213E+03  0.11010252270E+03  0.10400784919E+03  0.39617572188E+03  0.10100000000E+03 0. -1.
    -200001    1    1    2    0    0 -0.38030593770E+03  0.18882306958E+03  0.14461823651E+04  0.16271137610E+04  0.61300000000E+03 0.  1.
<mgrwt>
<rscale>  0 0.19283355E+04</rscale>
<asrwt>0</asrwt>
<pdfrwt beam="1">  1        2 0.26873379E+00 0.19283355E+04</pdfrwt>
<pdfrwt beam="2">  1       -2 0.70597098E-01 0.19283355E+04</pdfrwt>
<totfact> 0.15808580E+01</totfact>
</mgrwt>
</event>
<event>
 8    1  0.6972317E-052  0.1305228E+04  0.7818608E-02  0.9025429E-01
          2   -1    0    0  501    0  0.00000000000E+00  0.00000000000E+00  0.56074023846E+03  0.56074023847E+03  0.25500000000E-02 0.  1.
         -2   -1    0    0    0  501 -0.00000000000E+00 -0.00000000000E+00 -0.75954106737E+03  0.75954106737E+03  0.25500000000E-02 0. -1.
     200001    2    1    2    0    0 -0.20808658654E+03 -0.79917942471E+02 -0.88249025873E+02  0.65870923404E+03  0.61353325861E+03 0.  0.
    5000001    2    3    3    0    0  0.19460892394E+03 -0.76612136867E+02  0.29641647652E+02  0.22711473290E+03  0.83429142577E+02 0.  0.
        -11    1    4    4    0    0  0.16010834134E+03 -0.55659614773E+02  0.43399365950E+02  0.17497479432E+03  0.51100000000E-03 0. -1.
     200002    1    4    4    0    0  0.34500582603E+02 -0.20952522093E+02 -0.13757718298E+02  0.52139938577E+02  0.30000000000E+02 0. -1.
     200000    1    3    3    0    0 -0.40269551048E+03 -0.33058056037E+01 -0.11789067353E+03  0.43159450114E+03  0.10100000000E+03 0.  1.
    -200001    1    1    2    0    0  0.20808658654E+03  0.79917942471E+02 -0.11055180304E+03  0.66157207180E+03  0.61300000000E+03 0. -1.
<mgrwt>
<rscale>  0 0.13052283E+04</rscale>
<asrwt>0</asrwt>
<pdfrwt beam="1">  1        2 0.80105749E-01 0.13052283E+04</pdfrwt>
<pdfrwt beam="2">  1       -2 0.10850587E+00 0.13052283E+04</pdfrwt>
<totfact> 0.39167427E+01</totfact>
</mgrwt>
</event>
<event>
 8    1  0.6972317E-052  0.1260132E+04  0.7818608E-02  0.9061793E-01
          2   -1    0    0  501    0  0.00000000000E+00  0.00000000000E+00  0.29398516097E+04  0.29398516097E+04  0.25500000000E-02 0.  1.
         -2   -1    0    0    0  501 -0.00000000000E+00 -0.00000000000E+00 -0.13503501176E+03  0.13503501179E+03  0.25500000000E-02 0. -1.
     200001    2    1    2    0    0 -0.13189081774E+03 -0.61463011952E+02  0.14908213523E+04  0.16176545208E+04  0.61080680630E+03 0.  0.
    5000001    2    3    3    0    0  0.42839844937E+02 -0.22178249470E+03  0.12221812682E+04  0.12453621145E+04  0.78593998462E+02 0.  0.
        -11    1    4    4    0    0  0.12533985080E+02 -0.85707445671E+02  0.64675991274E+03  0.65253448319E+03  0.51100000000E-03 0. -1.
     200002    1    4    4    0    0  0.30305859857E+02 -0.13607504903E+03  0.57542135545E+03  0.59282763129E+03  0.30000000000E+02 0. -1.
     200000    1    3    3    0    0 -0.17473066268E+03  0.16031948275E+03  0.26864008410E+03  0.37229240633E+03  0.10100000000E+03 0. -1.
    -200001    1    1    2    0    0  0.13189081774E+03  0.61463011952E+02  0.13139952456E+04  0.14572321007E+04  0.61300000000E+03 0.  1.
<mgrwt>
<rscale>  0 0.12601316E+04</rscale>
<asrwt>0</asrwt>
<pdfrwt beam="1">  1        2 0.41997877E+00 0.12601316E+04</pdfrwt>
<pdfrwt beam="2">  1       -2 0.19290717E-01 0.12601316E+04</pdfrwt>
<totfact> 0.57565871E+01</totfact>
</mgrwt>
</event>
<event>
 8    1  0.6972317E-052  0.1421232E+04  0.7818608E-02  0.8938591E-01
          2   -1    0    0  501    0  0.00000000000E+00  0.00000000000E+00  0.32907552993E+04  0.32907552993E+04  0.25500000000E-02 0.  1.
         -2   -1    0    0    0  501 -0.00000000000E+00 -0.00000000000E+00 -0.15345272629E+03  0.15345272631E+03  0.25500000000E-02 0. -1.
     200001    2    1    2    0    0  0.35818773771E+01 -0.29966914061E+03  0.20499605293E+04  0.21605039539E+04  0.61288232114E+03 0.  0.
    5000001    2    3    3    0    0 -0.16080038243E+03 -0.35175689959E+03  0.10756123924E+04  0.11658733924E+04  0.22962811044E+03 0.  0.
        -11    1    4    4    0    0 -0.71673816367E+02 -0.34813332153E+03  0.83414969873E+03  0.90671917670E+03  0.51100000000E-03 0. -1.
     200002    1    4    4    0    0 -0.89126566066E+02 -0.36235780597E+01  0.24146269368E+03  0.25915421574E+03  0.30000000000E+02 0. -1.
     200000    1    3    3    0    0  0.16438225981E+03  0.52087758978E+02  0.97434813686E+03  0.99463056145E+03  0.10100000000E+03 0.  1.
    -200001    1    1    2    0    0 -0.35818773771E+01  0.29966914061E+03  0.10873420438E+04  0.12837040717E+04  0.61300000000E+03 0.  1.
<mgrwt>
<rscale>  0 0.14212324E+04</rscale>
<asrwt>0</asrwt>
<pdfrwt beam="1">  1        2 0.47010786E+00 0.14212324E+04</pdfrwt>
<pdfrwt beam="2">  1       -2 0.21921820E-01 0.14212324E+04</pdfrwt>
<totfact> 0.28658040E+01</totfact>
</mgrwt>
</event>
<event>
 8    1  0.6972317E-052  0.1583802E+04  0.7818608E-02  0.8830561E-01
          2   -1    0    0  501    0  0.00000000000E+00  0.00000000000E+00  0.24560854639E+04  0.24560854639E+04  0.25500000000E-02 0.  1.
         -2   -1    0    0    0  501 -0.00000000000E+00 -0.00000000000E+00 -0.25532790152E+03  0.25532790154E+03  0.25500000000E-02 0. -1.
     200001    2    1    2    0    0  0.39740479737E+03  0.21269788388E+03  0.72855629247E+03  0.10542119468E+04  0.61432694449E+03 0.  0.
    5000001    2    3    3    0    0  0.52916073113E+03  0.14560500048E+03  0.65865394527E+03  0.86199223079E+03  0.89407442533E+02 0.  0.
        -11    1    4    4    0    0  0.44247171223E+03  0.13772774878E+03  0.56367590022E+03  0.72971273074E+03  0.51100000000E-03 0. -1.
     200002    1    4    4    0    0  0.86689018895E+02  0.78772516995E+01  0.94978045052E+02  0.13227950005E+03  0.30000000000E+02 0.  1.
     200000    1    3    3    0    0 -0.13175593376E+03  0.67092883407E+02  0.69902347193E+02  0.19221971602E+03  0.10100000000E+03 0. -1.
    -200001    1    1    2    0    0 -0.39740479737E+03 -0.21269788388E+03  0.14722012699E+04  0.16572014186E+04  0.61300000000E+03 0.  1.
<mgrwt>
<rscale>  0 0.15838019E+04</rscale>
<asrwt>0</asrwt>
<pdfrwt beam="1">  1        2 0.35086936E+00 0.15838019E+04</pdfrwt>
<pdfrwt beam="2">  1       -2 0.36475414E-01 0.15838019E+04</pdfrwt>
<totfact> 0.31677885E+01</totfact>
</mgrwt>
</event>
<event>
 8    1  0.6972317E-052  0.1283104E+04  0.7818608E-02  0.9043072E-01
          2   -1    0    0  501    0  0.00000000000E+00  0.00000000000E+00  0.29872183237E+04  0.29872183237E+04  0.25500000000E-02 0.  1.
         -2   -1    0    0    0  501 -0.00000000000E+00 -0.00000000000E+00 -0.13778335833E+03  0.13778335836E+03  0.25500000000E-02 0. -1.
     200001    2    1    2    0    0  0.90569874749E+02 -0.13576787249E+03  0.11916761848E+04  0.13500174591E+04  0.61304093901E+03 0.  0.
    5000001    2    3    3    0    0  0.24383121128E+03 -0.10624921706E+02  0.10614652336E+04  0.10925185518E+04  0.85567490415E+02 0.  0.
        -11    1    4    4    0    0  0.11681748073E+03 -0.22434694531E+02  0.36693938713E+03  0.38573845173E+03  0.51100000000E-03 0. -1.
     200002    1    4    4    0    0  0.12701373055E+03  0.11809772826E+02  0.69452584648E+03  0.70678010012E+03  0.30000000000E+02 0. -1.
     200000    1    3    3    0    0 -0.15326133653E+03 -0.12514295078E+03  0.13021095123E+03  0.25749890723E+03  0.10100000000E+03 0. -1.
    -200001    1    1    2    0    0 -0.90569874749E+02  0.13576787249E+03  0.16577587806E+04  0.17749842230E+04  0.61300000000E+03 0.  1.
<mgrwt>
<rscale>  0 0.12831040E+04</rscale>
<asrwt>0</asrwt>
<pdfrwt beam="1">  1        2 0.42674543E+00 0.12831040E+04</pdfrwt>
<pdfrwt beam="2">  1       -2 0.19683339E-01 0.12831040E+04</pdfrwt>
<totfact> 0.52214642E+01</totfact>
</mgrwt>
</event>
<event>
 8    1  0.6972317E-052  0.1535726E+04  0.7818608E-02  0.8861037E-01
          2   -1    0    0  501    0  0.00000000000E+00  0.00000000000E+00  0.20174081285E+04  0.20174081285E+04  0.25500000000E-02 0.  1.
         -2   -1    0    0    0  501 -0.00000000000E+00 -0.00000000000E+00 -0.29226289881E+03  0.29226289882E+03  0.25500000000E-02 0. -1.
     200001    2    1    2    0    0  0.44122762723E+03 -0.12974929237E+03  0.93315482557E+03  0.12076118192E+04  0.61321421999E+03 0.  0.
    5000001    2    3    3    0    0  0.10696477890E+03  0.45206531948E+02  0.74544717031E+03  0.77428012634E+03  0.17416410612E+03 0.  0.
        -11    1    4    4    0    0  0.14668719201E+03  0.29326743693E+02  0.63069620555E+03  0.64819356206E+03  0.51100000000E-03 0. -1.
     200002    1    4    4    0    0 -0.39722413112E+02  0.15879788255E+02  0.11475096476E+03  0.12608656428E+03  0.30000000000E+02 0. -1.
     200000    1    3    3    0    0  0.33426284833E+03 -0.17495582432E+03  0.18770765526E+03  0.43333169291E+03  0.10100000000E+03 0. -1.
    -200001    1    1    2    0    0 -0.44122762723E+03  0.12974929237E+03  0.79199040416E+03  0.11020592081E+04  0.61300000000E+03 0. -1.
<mgrwt>
<rscale>  0 0.15357259E+04</rscale>
<asrwt>0</asrwt>
<pdfrwt beam="1">  1        2 0.28820116E+00 0.15357259E+04</pdfrwt>
<pdfrwt beam="2">  1       -2 0.41751843E-01 0.15357259E+04</pdfrwt>
<totfact> 0.41229418E+01</totfact>
</mgrwt>
</event>
<event>
 8    1  0.6972317E-052  0.1475670E+04  0.7818608E-02  0.8900795E-01
          2   -1    0    0  501    0  0.00000000000E+00  0.00000000000E+00  0.18841616019E+04  0.18841616019E+04  0.25500000000E-02 0.  1.
         -2   -1    0    0    0  501 -0.00000000000E+00 -0.00000000000E+00 -0.28893519590E+03  0.28893519591E+03  0.25500000000E-02 0. -1.
     200001    2    1    2    0    0  0.31950528788E+03  0.14662279848E+03  0.48558751419E+03  0.85755533353E+03  0.61320799254E+03 0.  0.
    5000001    2    3    3    0    0  0.25684660634E+03 -0.27842662419E+02 -0.51696413196E+02  0.28028648278E+03  0.95616945439E+02 0.  0.
        -11    1    4    4    0    0  0.13284234278E+02 -0.23500622474E+02 -0.18229321874E+02  0.32573890054E+02  0.51100000000E-03 0. -1.
     200002    1    4    4    0    0  0.24356237206E+03 -0.43420399450E+01 -0.33467091322E+02  0.24771259273E+03  0.30000000000E+02 0. -1.
     200000    1    3    3    0    0  0.62658681543E+02  0.17446546090E+03  0.53728392739E+03  0.57726885075E+03  0.10100000000E+03 0.  1.
    -200001    1    1    2    0    0 -0.31950528788E+03 -0.14662279848E+03  0.11096388918E+04  0.13155414642E+04  0.61300000000E+03 0.  1.
<mgrwt>
<rscale>  0 0.14756702E+04</rscale>
<asrwt>0</asrwt>
<pdfrwt beam="1">  1        2 0.26916594E+00 0.14756702E+04</pdfrwt>
<pdfrwt beam="2">  1       -2 0.41276457E-01 0.14756702E+04</pdfrwt>
<totfact> 0.49605994E+01</totfact>
</mgrwt>
</event>
<event>
 8    1  0.6972317E-052  0.1381461E+04  0.7818608E-02  0.8967348E-01
          2   -1    0    0  501    0  0.00000000000E+00  0.00000000000E+00  0.52038641722E+03  0.52038641723E+03  0.25500000000E-02 0.  1.
         -2   -1    0    0    0  501 -0.00000000000E+00 -0.00000000000E+00 -0.91683520946E+03  0.91683520946E+03  0.25500000000E-02 0. -1.
     200001    2    1    2    0    0  0.24773077996E+03 -0.12591394162E+03 -0.36672056276E+02  0.67404854031E+03  0.61300223079E+03 0.  0.
    5000001    2    3    3    0    0  0.15057815448E+03  0.18757971843E+03  0.13925885439E+03  0.28821231488E+03  0.76245514930E+02 0.  0.
        -11    1    4    4    0    0  0.51500525879E+01  0.78534016070E+01 -0.81088998499E+01  0.12407788501E+02  0.51100000000E-03 0. -1.
     200002    1    4    4    0    0  0.14542810190E+03  0.17972631683E+03  0.14736775424E+03  0.27580452638E+03  0.30000000000E+02 0. -1.
     200000    1    3    3    0    0  0.97152625479E+02 -0.31349366005E+03 -0.17593091067E+03  0.38583622543E+03  0.10100000000E+03 0.  1.
    -200001    1    1    2    0    0 -0.24773077996E+03  0.12591394162E+03 -0.35977673596E+03  0.76317308638E+03  0.61300000000E+03 0. -1.
<mgrwt>
<rscale>  0 0.13814610E+04</rscale>
<asrwt>0</asrwt>
<pdfrwt beam="1">  1        2 0.74340917E-01 0.13814610E+04</pdfrwt>
<pdfrwt beam="2">  1       -2 0.13097646E+00 0.13814610E+04</pdfrwt>
<totfact> 0.26660305E+01</totfact>
</mgrwt>
</event>
<event>
 8    1  0.6972317E-052  0.2339466E+04  0.7818608E-02  0.8462521E-01
         -2   -1    0    0    0  501 -0.00000000000E+00  0.00000000000E+00  0.99906356332E+03  0.99906356333E+03  0.25500000000E-02 0. -1.
          2   -1    0    0  501    0  0.00000000000E+00 -0.00000000000E+00 -0.13695577708E+04  0.13695577708E+04  0.25500000000E-02 0.  1.
     200001    2    1    2    0    0  0.93712146180E+03 -0.28806063504E+03 -0.44104624577E+01  0.11557891644E+04  0.61208951695E+03 0.  0.
    5000001    2    3    3    0    0  0.29783791919E+03  0.82361212635E+02 -0.41099327199E+01  0.41007012657E+03  0.26953630868E+03 0.  0.
        -11    1    4    4    0    0  0.11328846359E+02 -0.55140567275E+02 -0.64061767602E+02  0.85280331775E+02  0.51100000000E-03 0. -1.
     200002    1    4    4    0    0  0.28650907283E+03  0.13750177991E+03  0.59951834882E+02  0.32478979479E+03  0.30000000000E+02 0. -1.
     200000    1    3    3    0    0  0.63928354260E+03 -0.37042184768E+03 -0.30052973782E+00  0.74571903784E+03  0.10100000000E+03 0. -1.
    -200001    1    1    2    0    0 -0.93712146180E+03  0.28806063504E+03 -0.36608374506E+03  0.12128321698E+04  0.61300000000E+03 0.  1.
<mgrwt>
<rscale>  0 0.23394660E+04</rscale>
<asrwt>0</asrwt>
<pdfrwt beam="1">  1        2 0.19565111E+00 0.23394660E+04</pdfrwt>
<pdfrwt beam="2">  1       -2 0.14272337E+00 0.23394660E+04</pdfrwt>
<totfact> 0.53348421E+00</totfact>
</mgrwt>
</event>
<event>
 8    1  0.6972317E-052  0.1620662E+04  0.7818608E-02  0.8807954E-01
         -2   -1    0    0    0  501 -0.00000000000E+00  0.00000000000E+00  0.16318873734E+04  0.16318873734E+04  0.25500000000E-02 0. -1.
          2   -1    0    0  501    0  0.00000000000E+00 -0.00000000000E+00 -0.40237863389E+03  0.40237863390E+03  0.25500000000E-02 0.  1.
     200001    2    1    2    0    0 -0.23843561410E+03 -0.24664548228E+03  0.11217924778E+04  0.13235921517E+04  0.61301899221E+03 0.  0.
    5000001    2    3    3    0    0 -0.71025081430E+02  0.17245524534E+03  0.55656778661E+03  0.59328286253E+03  0.86206032496E+02 0.  0.
        -11    1    4    4    0    0 -0.53038742821E+02  0.13167065838E+03  0.31038569676E+03  0.34130565666E+03  0.51100000000E-03 0. -1.
     200002    1    4    4    0    0 -0.17986338610E+02  0.40784586953E+02  0.24618208986E+03  0.25197720587E+03  0.30000000000E+02 0.  1.
     200000    1    3    3    0    0 -0.16741053267E+03 -0.41910072761E+03  0.56522469121E+03  0.73030928920E+03  0.10100000000E+03 0. -1.
    -200001    1    1    2    0    0  0.23843561410E+03  0.24664548228E+03  0.10771626171E+03  0.71067385560E+03  0.61300000000E+03 0.  1.
<mgrwt>
<rscale>  0 0.16206623E+04</rscale>
<asrwt>0</asrwt>
<pdfrwt beam="1">  1        2 0.57482663E-01 0.16206623E+04</pdfrwt>
<pdfrwt beam="2">  1       -2 0.23312677E+00 0.16206623E+04</pdfrwt>
<totfact> 0.67359420E+00</totfact>
</mgrwt>
</event>
<event>
 8    1  0.6972317E-052  0.1821734E+04  0.7818608E-02  0.8694826E-01
          2   -1    0    0  501    0  0.00000000000E+00  0.00000000000E+00  0.17333117644E+04  0.17333117644E+04  0.25500000000E-02 0.  1.
         -2   -1    0    0    0  501 -0.00000000000E+00 -0.00000000000E+00 -0.47866652297E+03  0.47866652297E+03  0.25500000000E-02 0. -1.
     200001    2    1    2    0    0 -0.15678668677E+03 -0.60042828137E+03  0.94565800300E+03  0.12865928002E+04  0.61315233735E+03 0.  0.
    5000001    2    3    3    0    0 -0.36548553274E+03 -0.23726547745E+03  0.51447190237E+03  0.67703157787E+03  0.61772466942E+02 0.  0.
        -11    1    4    4    0    0 -0.65752065783E+02 -0.20209092782E+02  0.77634968649E+02  0.10372526184E+03  0.51100000000E-03 0. -1.
     200002    1    4    4    0    0 -0.29973346695E+03 -0.21705638467E+03  0.43683693372E+03  0.57330631603E+03  0.30000000000E+02 0. -1.
     200000    1    3    3    0    0  0.20869884597E+03 -0.36316280391E+03  0.43118610063E+03  0.60956122238E+03  0.10100000000E+03 0.  1.
    -200001    1    1    2    0    0  0.15678668677E+03  0.60042828137E+03  0.30898723839E+03  0.92538548708E+03  0.61300000000E+03 0. -1.
<mgrwt>
<rscale>  0 0.18217336E+04</rscale>
<asrwt>0</asrwt>
<pdfrwt beam="1">  1        2 0.24761597E+00 0.18217336E+04</pdfrwt>
<pdfrwt beam="2">  1       -2 0.68380932E-01 0.18217336E+04</pdfrwt>
<totfact> 0.20380386E+01</totfact>
</mgrwt>
</event>
<event>
 8    1  0.6972317E-052  0.1781231E+04  0.7818608E-02  0.8716345E-01
         -2   -1    0    0    0  501 -0.00000000000E+00  0.00000000000E+00  0.68086566314E+03  0.68086566314E+03  0.25500000000E-02 0. -1.
          2   -1    0    0  501    0  0.00000000000E+00 -0.00000000000E+00 -0.11649811165E+04  0.11649811165E+04  0.25500000000E-02 0.  1.
     200001    2    1    2    0    0  0.62480173302E+03  0.15410554584E+03 -0.19622948416E+03  0.91162354286E+03  0.61516318859E+03 0.  0.
    5000001    2    3    3    0    0  0.29777025355E+03  0.59743279523E+02  0.20358628495E+03  0.37692037745E+03  0.91570804116E+02 0.  0.
        -11    1    4    4    0    0  0.18703917465E+03  0.35279372375E+02  0.16923017142E+03  0.25469027835E+03  0.51100000000E-03 0. -1.
     200002    1    4    4    0    0  0.11073107890E+03  0.24463907147E+02  0.34356113536E+02  0.12223009910E+03  0.30000000000E+02 0. -1.
     200000    1    3    3    0    0  0.32703147947E+03  0.94362266314E+02 -0.39981576911E+03  0.53470316541E+03  0.10100000000E+03 0.  1.
    -200001    1    1    2    0    0 -0.62480173302E+03 -0.15410554584E+03 -0.28788596917E+03  0.93422323675E+03  0.61300000000E+03 0.  1.
<mgrwt>
<rscale>  0 0.17812306E+04</rscale>
<asrwt>0</asrwt>
<pdfrwt beam="1">  1        2 0.16642587E+00 0.17812306E+04</pdfrwt>
<pdfrwt beam="2">  1       -2 0.97266523E-01 0.17812306E+04</pdfrwt>
<totfact> 0.18724147E+01</totfact>
</mgrwt>
</event>
<event>
 8    1  0.6972317E-052  0.1521774E+04  0.7818608E-02  0.8870101E-01
          2   -1    0    0  501    0  0.00000000000E+00  0.00000000000E+00  0.30235215581E+04  0.30235215581E+04  0.25500000000E-02 0.  1.
         -2   -1    0    0    0  501 -0.00000000000E+00 -0.00000000000E+00 -0.19148180192E+03  0.19148180193E+03  0.25500000000E-02 0. -1.
     200001    2    1    2    0    0  0.16725231239E+03  0.41306187460E+03  0.15498333276E+04  0.17255686439E+04  0.61401168808E+03 0.  0.
    5000001    2    3    3    0    0  0.26403350309E+02  0.15546038339E+03  0.13379291049E+04  0.13496679150E+04  0.81756487800E+02 0.  0.
        -11    1    4    4    0    0 -0.11108535955E+02 -0.13851074719E+01  0.15729589634E+03  0.15769374465E+03  0.51100000000E-03 0. -1.
     200002    1    4    4    0    0  0.37511886265E+02  0.15684549086E+03  0.11806332085E+04  0.11919741703E+04  0.30000000000E+02 0. -1.
     200000    1    3    3    0    0  0.14084896208E+03  0.25760149122E+03  0.21190422278E+03  0.37590072895E+03  0.10100000000E+03 0. -1.
    -200001    1    1    2    0    0 -0.16725231239E+03 -0.41306187460E+03  0.12822064286E+04  0.14894347162E+04  0.61300000000E+03 0. -1.
<mgrwt>
<rscale>  0 0.15217744E+04</rscale>
<asrwt>0</asrwt>
<pdfrwt beam="1">  1        2 0.43193166E+00 0.15217744E+04</pdfrwt>
<pdfrwt beam="2">  1       -2 0.27354542E-01 0.15217744E+04</pdfrwt>
<totfact> 0.27030348E+01</totfact>
</mgrwt>
</event>
<event>
 8    1  0.6972317E-052  0.1468487E+04  0.7818608E-02  0.8905683E-01
          2   -1    0    0  501    0  0.00000000000E+00  0.00000000000E+00  0.15987110725E+04  0.15987110725E+04  0.25500000000E-02 0.  1.
         -2   -1    0    0    0  501 -0.00000000000E+00 -0.00000000000E+00 -0.33721776488E+03  0.33721776489E+03  0.25500000000E-02 0. -1.
     200001    2    1    2    0    0 -0.35229125799E+03  0.52828312638E+02  0.88397150667E+03  0.11326905967E+04  0.61211306325E+03 0.  0.
    5000001    2    3    3    0    0  0.16738332954E+02  0.55930041917E+02 -0.58508553242E+02  0.11550717026E+03  0.80686518082E+02 0.  0.
        -11    1    4    4    0    0  0.40407101545E+02  0.17740594824E+02 -0.16659730726E+02  0.47170003054E+02  0.51100000000E-03 0. -1.
     200002    1    4    4    0    0 -0.23668768591E+02  0.38189447093E+02 -0.41848822516E+02  0.68337167207E+02  0.30000000000E+02 0. -1.
     200000    1    3    3    0    0 -0.36902959095E+03 -0.31017292794E+01  0.94248005991E+03  0.10171834265E+04  0.10100000000E+03 0.  1.
    -200001    1    1    2    0    0  0.35229125799E+03 -0.52828312638E+02  0.37752180091E+03  0.80323824065E+03  0.61300000000E+03 0. -1.
<mgrwt>
<rscale>  0 0.14684874E+04</rscale>
<asrwt>0</asrwt>
<pdfrwt beam="1">  1        2 0.22838730E+00 0.14684874E+04</pdfrwt>
<pdfrwt beam="2">  1       -2 0.48173966E-01 0.14684874E+04</pdfrwt>
<totfact> 0.51291105E+01</totfact>
</mgrwt>
</event>
<event>
 8    1  0.6972317E-052  0.1797509E+04  0.7818608E-02  0.8707625E-01
          2   -1    0    0  501    0  0.00000000000E+00  0.00000000000E+00  0.18279758061E+04  0.18279758061E+04  0.25500000000E-02 0.  1.
         -2   -1    0    0    0  501 -0.00000000000E+00 -0.00000000000E+00 -0.44188771914E+03  0.44188771915E+03  0.25500000000E-02 0. -1.
     200001    2    1    2    0    0 -0.14045247081E+03 -0.12056667572E+03  0.14898822157E+04  0.16211683418E+04  0.61169809221E+03 0.  0.
    5000001    2    3    3    0    0  0.19781856443E+03  0.81202589557E+02  0.61753112806E+03  0.65870506990E+03  0.82593159572E+02 0.  0.
        -11    1    4    4    0    0  0.11292233541E+03  0.15216007414E+02  0.25322608897E+03  0.27768045097E+03  0.51100000000E-03 0. -1.
     200002    1    4    4    0    0  0.84896229013E+02  0.65986582143E+02  0.36430503909E+03  0.38102461893E+03  0.30000000000E+02 0.  1.
     200000    1    3    3    0    0 -0.33827103523E+03 -0.20176926528E+03  0.87235108763E+03  0.96246327191E+03  0.10100000000E+03 0. -1.
    -200001    1    1    2    0    0  0.14045247081E+03  0.12056667572E+03 -0.10379412873E+03  0.64869518343E+03  0.61300000000E+03 0. -1.
<mgrwt>
<rscale>  0 0.17975095E+04</rscale>
<asrwt>0</asrwt>
<pdfrwt beam="1">  1        2 0.26113940E+00 0.17975095E+04</pdfrwt>
<pdfrwt beam="2">  1       -2 0.63126817E-01 0.17975095E+04</pdfrwt>
<totfact> 0.21666369E+01</totfact>
</mgrwt>
</event>
<event>
 8    1  0.6972317E-052  0.1974218E+04  0.7818608E-02  0.8618770E-01
          2   -1    0    0  501    0  0.00000000000E+00  0.00000000000E+00  0.14715985945E+04  0.14715985945E+04  0.25500000000E-02 0.  1.
         -2   -1    0    0    0  501 -0.00000000000E+00 -0.00000000000E+00 -0.66212659200E+03  0.66212659200E+03  0.25500000000E-02 0. -1.
     200001    2    1    2    0    0  0.59700439439E+03  0.61778175659E+02 -0.12171568355E+03  0.86758526668E+03  0.61453941894E+03 0.  0.
    5000001    2    3    3    0    0  0.27307894809E+03 -0.26217972241E+03 -0.10079921851E+03  0.39799511240E+03  0.70209032975E+02 0.  0.
        -11    1    4    4    0    0  0.54901899153E+02 -0.37317102727E+02 -0.39778957922E+02  0.77389599949E+02  0.51100000000E-03 0. -1.
     200002    1    4    4    0    0  0.21817704893E+03 -0.22486261969E+03 -0.61020260585E+02  0.32060551245E+03  0.30000000000E+02 0. -1.
     200000    1    3    3    0    0  0.32392544631E+03  0.32395789807E+03 -0.20916465047E+02  0.46959015428E+03  0.10100000000E+03 0. -1.
    -200001    1    1    2    0    0 -0.59700439439E+03 -0.61778175659E+02  0.93118768608E+03  0.12661399198E+04  0.61300000000E+03 0. -1.
<mgrwt>
<rscale>  0 0.19742184E+04</rscale>
<asrwt>0</asrwt>
<pdfrwt beam="1">  1        2 0.21022837E+00 0.19742184E+04</pdfrwt>
<pdfrwt beam="2">  1       -2 0.94589512E-01 0.19742184E+04</pdfrwt>
<totfact> 0.13322464E+01</totfact>
</mgrwt>
</event>
<event>
 8    1  0.6972317E-052  0.1576713E+04  0.7818608E-02  0.8834983E-01
         -2   -1    0    0    0  501 -0.00000000000E+00  0.00000000000E+00  0.81020238268E+03  0.81020238269E+03  0.25500000000E-02 0. -1.
          2   -1    0    0  501    0  0.00000000000E+00 -0.00000000000E+00 -0.76709945744E+03  0.76709945744E+03  0.25500000000E-02 0.  1.
     200001    2    1    2    0    0 -0.15134049924E+03  0.27389176237E+02 -0.45030302478E+03  0.77550850940E+03  0.61236142950E+03 0.  0.
    5000001    2    3    3    0    0  0.39256460397E+02  0.10252076349E+02  0.12864164259E+03  0.15744798721E+03  0.81209739032E+02 0.  0.
        -11    1    4    4    0    0  0.18582846196E+02  0.36759479192E+02  0.37168396915E+02  0.55480367813E+02  0.51100000000E-03 0. -1.
     200002    1    4    4    0    0  0.20673614201E+02 -0.26507402843E+02  0.91473245679E+02  0.10196761939E+03  0.30000000000E+02 0. -1.
     200000    1    3    3    0    0 -0.19059695964E+03  0.17137099888E+02 -0.57894466737E+03  0.61806052219E+03  0.10100000000E+03 0.  1.
    -200001    1    1    2    0    0  0.15134049924E+03 -0.27389176237E+02  0.49340595002E+03  0.80179333073E+03  0.61300000000E+03 0. -1.
<mgrwt>
<rscale>  0 0.15767128E+04</rscale>
<asrwt>0</asrwt>
<pdfrwt beam="1">  1        2 0.10958564E+00 0.15767128E+04</pdfrwt>
<pdfrwt beam="2">  1       -2 0.11574320E+00 0.15767128E+04</pdfrwt>
<totfact> 0.22420395E+01</totfact>
</mgrwt>
</event>
<event>
 8    1  0.6972317E-052  0.1524263E+04  0.7818608E-02  0.8868477E-01
          2   -1    0    0  501    0  0.00000000000E+00  0.00000000000E+00  0.10532468173E+04  0.10532468173E+04  0.25500000000E-02 0.  1.
         -2   -1    0    0    0  501 -0.00000000000E+00 -0.00000000000E+00 -0.55147979040E+03  0.55147979041E+03  0.25500000000E-02 0. -1.
     200001    2    1    2    0    0 -0.16054263769E+02  0.44530088594E+03  0.15654457791E+03  0.77196123999E+03  0.61062863736E+03 0.  0.
    5000001    2    3    3    0    0  0.12289972206E+03  0.47784719369E+03  0.15855361161E+03  0.59711127990E+03  0.29658110296E+03 0.  0.
        -11    1    4    4    0    0  0.12079834409E+03  0.12311670375E+03 -0.56131604105E+02  0.18138555526E+03  0.51100000000E-03 0. -1.
     200002    1    4    4    0    0  0.21013779676E+01  0.35473048994E+03  0.21468521572E+03  0.41572572464E+03  0.30000000000E+02 0. -1.
     200000    1    3    3    0    0 -0.13895398583E+03 -0.32546307745E+02 -0.20090337027E+01  0.17484996009E+03  0.10100000000E+03 0. -1.
    -200001    1    1    2    0    0  0.16054263769E+02 -0.44530088594E+03  0.34522244899E+03  0.83276536773E+03  0.61300000000E+03 0.  1.
<mgrwt>
<rscale>  0 0.15242629E+04</rscale>
<asrwt>0</asrwt>
<pdfrwt beam="1">  1        2 0.15046383E+00 0.15242629E+04</pdfrwt>
<pdfrwt beam="2">  1       -2 0.78782827E-01 0.15242629E+04</pdfrwt>
<totfact> 0.36031131E+01</totfact>
</mgrwt>
</event>
<event>
 8    1  0.6972317E-052  0.1619441E+04  0.7818608E-02  0.8808693E-01
          2   -1    0    0  501    0  0.00000000000E+00  0.00000000000E+00  0.77974607100E+03  0.77974607100E+03  0.25500000000E-02 0.  1.
         -2   -1    0    0    0  501 -0.00000000000E+00 -0.00000000000E+00 -0.84084735679E+03  0.84084735679E+03  0.25500000000E-02 0. -1.
     200001    2    1    2    0    0  0.21842758758E+03  0.23995529015E+03  0.38757466116E+03  0.79453758364E+03  0.61301443829E+03 0.  0.
    5000001    2    3    3    0    0  0.48651829837E+02  0.40742629189E+03  0.29090308433E+03  0.51810180790E+03  0.12426461688E+03 0.  0.
        -11    1    4    4    0    0  0.21225259321E+02  0.37623857203E+03  0.24644243863E+03  0.45026642144E+03  0.51100000000E-03 0. -1.
     200002    1    4    4    0    0  0.27426570516E+02  0.31187719857E+02  0.44460645700E+02  0.67835386461E+02  0.30000000000E+02 0.  1.
     200000    1    3    3    0    0  0.16977575774E+03 -0.16747100174E+03  0.96671576834E+02  0.27643577574E+03  0.10100000000E+03 0.  1.
    -200001    1    1    2    0    0 -0.21842758758E+03 -0.23995529015E+03 -0.44867594695E+03  0.82605584415E+03  0.61300000000E+03 0. -1.
<mgrwt>
<rscale>  0 0.16194412E+04</rscale>
<asrwt>0</asrwt>
<pdfrwt beam="1">  1        2 0.11139230E+00 0.16194412E+04</pdfrwt>
<pdfrwt beam="2">  1       -2 0.12012105E+00 0.16194412E+04</pdfrwt>
<totfact> 0.19972909E+01</totfact>
</mgrwt>
</event>
<event>
 8    1  0.6972317E-052  0.1678819E+04  0.7818608E-02  0.8773538E-01
          2   -1    0    0  501    0  0.00000000000E+00  0.00000000000E+00  0.59458192372E+03  0.59458192373E+03  0.25500000000E-02 0.  1.
         -2   -1    0    0    0  501 -0.00000000000E+00 -0.00000000000E+00 -0.11850476162E+04  0.11850476162E+04  0.25500000000E-02 0. -1.
     200001    2    1    2    0    0 -0.53149213672E+03 -0.13808451118E+03 -0.12039875131E+03  0.83185153176E+03  0.61313121593E+03 0.  0.
    5000001    2    3    3    0    0 -0.56062353401E+03 -0.14743008643E+03 -0.27322047953E+03  0.64613276937E+03  0.82484834669E+02 0.  0.
        -11    1    4    4    0    0 -0.14396917969E+03 -0.66944396774E+02 -0.55126548345E+02  0.16807026297E+03  0.51100000000E-03 0. -1.
     200002    1    4    4    0    0 -0.41665435431E+03 -0.80485689660E+02 -0.21809393119E+03  0.47806250640E+03  0.30000000000E+02 0.  1.
     200000    1    3    3    0    0  0.29131397286E+02  0.93455752542E+01  0.15282172822E+03  0.18571876238E+03  0.10100000000E+03 0.  1.
    -200001    1    1    2    0    0  0.53149213672E+03  0.13808451118E+03 -0.47006694120E+03  0.94777800820E+03  0.61300000000E+03 0.  1.
<mgrwt>
<rscale>  0 0.16788185E+04</rscale>
<asrwt>0</asrwt>
<pdfrwt beam="1">  1        2 0.84940275E-01 0.16788185E+04</pdfrwt>
<pdfrwt beam="2">  1       -2 0.16929252E+00 0.16788185E+04</pdfrwt>
<totfact> 0.11292526E+01</totfact>
</mgrwt>
</event>
<event>
 8    1  0.6972317E-052  0.2359943E+04  0.7818608E-02  0.8454654E-01
         -2   -1    0    0    0  501 -0.00000000000E+00  0.00000000000E+00  0.59685209762E+03  0.59685209763E+03  0.25500000000E-02 0. -1.
          2   -1    0    0  501    0  0.00000000000E+00 -0.00000000000E+00 -0.23327938595E+04  0.23327938595E+04  0.25500000000E-02 0.  1.
     200001    2    1    2    0    0 -0.92051006334E+03  0.60063059986E+02 -0.13731241907E+04  0.17641623932E+04  0.61306815155E+03 0.  0.
    5000001    2    3    3    0    0 -0.18429673253E+03  0.23515148788E+03 -0.21455329057E+03  0.37666336372E+03  0.81121311616E+02 0.  0.
        -11    1    4    4    0    0 -0.46323753104E+02  0.77010516239E+02 -0.10439533184E+03  0.13774939210E+03  0.51100000000E-03 0. -1.
     200002    1    4    4    0    0 -0.13797297943E+03  0.15814097165E+03 -0.11015795873E+03  0.23891397162E+03  0.30000000000E+02 0. -1.
     200000    1    3    3    0    0 -0.73621333081E+03 -0.17508842790E+03 -0.11585709002E+04  0.13874990295E+04  0.10100000000E+03 0.  1.
    -200001    1    1    2    0    0  0.92051006334E+03 -0.60063059986E+02 -0.36281757113E+03  0.11654835639E+04  0.61300000000E+03 0. -1.
<mgrwt>
<rscale>  0 0.23599431E+04</rscale>
<asrwt>0</asrwt>
<pdfrwt beam="1">  1        2 0.33325626E+00 0.23599431E+04</pdfrwt>
<pdfrwt beam="2">  1       -2 0.85264586E-01 0.23599431E+04</pdfrwt>
<totfact> 0.58528449E+00</totfact>
</mgrwt>
</event>
<event>
 8    1  0.6972317E-052  0.1302114E+04  0.7818608E-02  0.9027890E-01
         -2   -1    0    0    0  501 -0.00000000000E+00  0.00000000000E+00  0.84249012638E+03  0.84249012638E+03  0.25500000000E-02 0. -1.
          2   -1    0    0  501    0  0.00000000000E+00 -0.00000000000E+00 -0.50312189296E+03  0.50312189297E+03  0.25500000000E-02 0.  1.
     200001    2    1    2    0    0  0.74796110010E+02  0.65326395313E+02  0.37077011201E+03  0.72382662713E+03  0.61367134052E+03 0.  0.
    5000001    2    3    3    0    0  0.28145893262E+03  0.17228868656E+03  0.31809359726E+03  0.46473924958E+03  0.76788744072E+02 0.  0.
        -11    1    4    4    0    0  0.29888863212E+02  0.93897377434E+01  0.77742922857E+01  0.32279264858E+02  0.51100000000E-03 0. -1.
     200002    1    4    4    0    0  0.25157006941E+03  0.16289894881E+03  0.31031930498E+03  0.43245998472E+03  0.30000000000E+02 0. -1.
     200000    1    3    3    0    0 -0.20666282261E+03 -0.10696229124E+03  0.52676514752E+02  0.25908737755E+03  0.10100000000E+03 0.  1.
    -200001    1    1    2    0    0 -0.74796110010E+02 -0.65326395313E+02 -0.31401878600E+02  0.62178539222E+03  0.61300000000E+03 0.  1.
<mgrwt>
<rscale>  0 0.13021140E+04</rscale>
<asrwt>0</asrwt>
<pdfrwt beam="1">  1        2 0.71874557E-01 0.13021140E+04</pdfrwt>
<pdfrwt beam="2">  1       -2 0.12035573E+00 0.13021140E+04</pdfrwt>
<totfact> 0.34475585E+01</totfact>
</mgrwt>
</event>
<event>
 8    1  0.6972317E-052  0.1300784E+04  0.7818608E-02  0.9028944E-01
         -2   -1    0    0    0  501 -0.00000000000E+00  0.00000000000E+00  0.35561297167E+03  0.35561297168E+03  0.25500000000E-02 0. -1.
          2   -1    0    0  501    0  0.00000000000E+00 -0.00000000000E+00 -0.11895224204E+04  0.11895224204E+04  0.25500000000E-02 0.  1.
     200001    2    1    2    0    0 -0.20842296135E+03  0.10089839904E+02 -0.48835488003E+03  0.81116066799E+03  0.61314696833E+03 0.  0.
    5000001    2    3    3    0    0  0.72663850780E+02  0.85635145720E+02 -0.43198250950E+03  0.49795828400E+03  0.22077171624E+03 0.  0.
        -11    1    4    4    0    0 -0.72939298724E+02 -0.39890009602E+01 -0.14972778197E+03  0.16659670501E+03  0.51100000000E-03 0. -1.
     200002    1    4    4    0    0  0.14560314950E+03  0.89624146680E+02 -0.28225472753E+03  0.33136157898E+03  0.30000000000E+02 0. -1.
     200000    1    3    3    0    0 -0.28108681213E+03 -0.75545305817E+02 -0.56372370526E+02  0.31320238400E+03  0.10100000000E+03 0. -1.
    -200001    1    1    2    0    0  0.20842296135E+03 -0.10089839904E+02 -0.34555456874E+03  0.73397472413E+03  0.61300000000E+03 0. -1.
<mgrwt>
<rscale>  0 0.13007838E+04</rscale>
<asrwt>0</asrwt>
<pdfrwt beam="1">  1        2 0.16993177E+00 0.13007838E+04</pdfrwt>
<pdfrwt beam="2">  1       -2 0.50801854E-01 0.13007838E+04</pdfrwt>
<totfact> 0.77826707E+01</totfact>
</mgrwt>
</event>
<event>
 8    1  0.6972317E-052  0.1432689E+04  0.7818608E-02  0.8930490E-01
          2   -1    0    0  501    0  0.00000000000E+00  0.00000000000E+00  0.23192998492E+04  0.23192998492E+04  0.25500000000E-02 0.  1.
         -2   -1    0    0    0  501 -0.00000000000E+00 -0.00000000000E+00 -0.22125199732E+03  0.22125199733E+03  0.25500000000E-02 0. -1.
     200001    2    1    2    0    0  0.35901453716E+03 -0.41425101670E+02  0.90242800473E+03  0.11491916143E+04  0.61290911701E+03 0.  0.
    5000001    2    3    3    0    0  0.44988491245E+03 -0.15639179415E+03  0.78097835880E+03  0.93372518540E+03  0.18724501918E+03 0.  0.
        -11    1    4    4    0    0  0.37323385273E+03 -0.51296228592E+02  0.54367760981E+03  0.66145306356E+03  0.51100000000E-03 0. -1.
     200002    1    4    4    0    0  0.76651059720E+02 -0.10509556556E+03  0.23730074899E+03  0.27227212183E+03  0.30000000000E+02 0. -1.
     200000    1    3    3    0    0 -0.90870375295E+02  0.11496669248E+03  0.12144964593E+03  0.21546642890E+03  0.10100000000E+03 0. -1.
    -200001    1    1    2    0    0 -0.35901453716E+03  0.41425101670E+02  0.11956198472E+04  0.13913602323E+04  0.61300000000E+03 0.  1.
<mgrwt>
<rscale>  0 0.14326894E+04</rscale>
<asrwt>0</asrwt>
<pdfrwt beam="1">  1        2 0.33132856E+00 0.14326894E+04</pdfrwt>
<pdfrwt beam="2">  1       -2 0.31607427E-01 0.14326894E+04</pdfrwt>
<totfact> 0.49614355E+01</totfact>
</mgrwt>
</event>
<event>
 8    1  0.6972317E-052  0.1477932E+04  0.7818608E-02  0.8899262E-01
         -2   -1    0    0    0  501 -0.00000000000E+00  0.00000000000E+00  0.12965755921E+04  0.12965755921E+04  0.25500000000E-02 0. -1.
          2   -1    0    0  501    0  0.00000000000E+00 -0.00000000000E+00 -0.42116370217E+03  0.42116370217E+03  0.25500000000E-02 0.  1.
     200001    2    1    2    0    0 -0.29013202617E+03 -0.14157593992E+03  0.13785505769E+03  0.70582061168E+03  0.61233845181E+03 0.  0.
    5000001    2    3    3    0    0 -0.39866792060E+03 -0.19828878044E+02  0.25156029880E+03  0.48281328152E+03  0.10245382159E+03 0.  0.
        -11    1    4    4    0    0 -0.42205258874E+02 -0.28737850769E+02  0.52941873729E+02  0.73552633791E+02  0.51100000000E-03 0. -1.
     200002    1    4    4    0    0 -0.35646266172E+03  0.89089727249E+01  0.19861842507E+03  0.40926064772E+03  0.30000000000E+02 0. -1.
     200000    1    3    3    0    0  0.10853589442E+03 -0.12174706187E+03 -0.11370524110E+03  0.22300733017E+03  0.10100000000E+03 0.  1.
    -200001    1    1    2    0    0  0.29013202617E+03  0.14157593992E+03  0.73755683220E+03  0.10119186826E+04  0.61300000000E+03 0. -1.
<mgrwt>
<rscale>  0 0.14779318E+04</rscale>
<asrwt>0</asrwt>
<pdfrwt beam="1">  1        2 0.60166244E-01 0.14779318E+04</pdfrwt>
<pdfrwt beam="2">  1       -2 0.18522508E+00 0.14779318E+04</pdfrwt>
<totfact> 0.13197574E+01</totfact>
</mgrwt>
</event>
<event>
 8    1  0.6972317E-052  0.1358128E+04  0.7818608E-02  0.8984698E-01
         -2   -1    0    0    0  501 -0.00000000000E+00  0.00000000000E+00  0.25144121618E+03  0.25144121619E+03  0.25500000000E-02 0. -1.
          2   -1    0    0  501    0  0.00000000000E+00 -0.00000000000E+00 -0.18339396203E+04  0.18339396203E+04  0.25500000000E-02 0.  1.
     200001    2    1    2    0    0  0.52217137860E+02  0.14692777046E+03 -0.11707700972E+04  0.13306599623E+04  0.61289388602E+03 0.  0.
    5000001    2    3    3    0    0  0.24717508891E+03  0.12640118964E+03 -0.10225757991E+04  0.10649674837E+04  0.10687231204E+03 0.  0.
        -11    1    4    4    0    0  0.55001890967E+02  0.69965437411E+02 -0.41811117369E+03  0.42747786376E+03  0.51100000000E-03 0. -1.
     200002    1    4    4    0    0  0.19217319794E+03  0.56435752226E+02 -0.60446462545E+03  0.63748961996E+03  0.30000000000E+02 0. -1.
     200000    1    3    3    0    0 -0.19495795105E+03  0.20526580825E+02 -0.14819429810E+03  0.26569247860E+03  0.10100000000E+03 0. -1.
    -200001    1    1    2    0    0 -0.52217137860E+02 -0.14692777046E+03 -0.41172830688E+03  0.75472087417E+03  0.61300000000E+03 0. -1.
<mgrwt>
<rscale>  0 0.13581281E+04</rscale>
<asrwt>0</asrwt>
<pdfrwt beam="1">  1        2 0.26199137E+00 0.13581281E+04</pdfrwt>
<pdfrwt beam="2">  1       -2 0.35920175E-01 0.13581281E+04</pdfrwt>
<totfact> 0.69575160E+01</totfact>
</mgrwt>
</event>
<event>
 8    1  0.6972317E-052  0.1351349E+04  0.7818608E-02  0.8989808E-01
         -2   -1    0    0    0  501 -0.00000000000E+00  0.00000000000E+00  0.26401037813E+03  0.26401037815E+03  0.25500000000E-02 0. -1.
          2   -1    0    0  501    0  0.00000000000E+00 -0.00000000000E+00 -0.17292341069E+04  0.17292341069E+04  0.25500000000E-02 0.  1.
     200001    2    1    2    0    0 -0.10073539872E+03  0.21948766897E+03 -0.95141614663E+03  0.11577268677E+04  0.61385369496E+03 0.  0.
    5000001    2    3    3    0    0 -0.15654789164E+03 -0.61302267893E+02 -0.77202543064E+03  0.80510801969E+03  0.15463003392E+03 0.  0.
        -11    1    4    4    0    0 -0.15569253918E+03 -0.37323108216E+02 -0.73324896530E+03  0.75052463403E+03  0.51100000000E-03 0. -1.
     200002    1    4    4    0    0 -0.85535246467E+00 -0.23979159676E+02 -0.38776465335E+02  0.54583385663E+02  0.30000000000E+02 0. -1.
     200000    1    3    3    0    0  0.55812492921E+02  0.28078993686E+03 -0.17939071599E+03  0.35261884804E+03  0.10100000000E+03 0. -1.
    -200001    1    1    2    0    0  0.10073539872E+03 -0.21948766897E+03 -0.51380758213E+03  0.83551761731E+03  0.61300000000E+03 0. -1.
<mgrwt>
<rscale>  0 0.13513486E+04</rscale>
<asrwt>0</asrwt>
<pdfrwt beam="1">  1        2 0.24703344E+00 0.13513486E+04</pdfrwt>
<pdfrwt beam="2">  1       -2 0.37715769E-01 0.13513486E+04</pdfrwt>
<totfact> 0.71772210E+01</totfact>
</mgrwt>
</event>
<event>
 8    1  0.6972317E-052  0.1727333E+04  0.7818608E-02  0.8745927E-01
          2   -1    0    0  501    0  0.00000000000E+00  0.00000000000E+00  0.28542434586E+04  0.28542434586E+04  0.25500000000E-02 0.  1.
         -2   -1    0    0    0  501 -0.00000000000E+00 -0.00000000000E+00 -0.26133719671E+03  0.26133719673E+03  0.25500000000E-02 0. -1.
     200001    2    1    2    0    0 -0.19325367963E+03 -0.56178457797E+03  0.15345344528E+04  0.17558495117E+04  0.61258682982E+03 0.  0.
    5000001    2    3    3    0    0 -0.86381133545E+02 -0.44646341598E+03  0.14931833234E+04  0.15644556053E+04  0.10551597717E+03 0.  0.
        -11    1    4    4    0    0  0.54869833723E+01 -0.13932469097E+03  0.56727783831E+03  0.58416232533E+03  0.51100000000E-03 0. -1.
     200002    1    4    4    0    0 -0.91868116917E+02 -0.30713872501E+03  0.92590548513E+03  0.98029327995E+03  0.30000000000E+02 0. -1.
     200000    1    3    3    0    0 -0.10687254609E+03 -0.11532116199E+03  0.41351129377E+02  0.19139390641E+03  0.10100000000E+03 0. -1.
    -200001    1    1    2    0    0  0.19325367963E+03  0.56178457797E+03  0.10583718090E+04  0.13597311436E+04  0.61300000000E+03 0.  1.
<mgrwt>
<rscale>  0 0.17273332E+04</rscale>
<asrwt>0</asrwt>
<pdfrwt beam="1">  1        2 0.40774904E+00 0.17273332E+04</pdfrwt>
<pdfrwt beam="2">  1       -2 0.37333887E-01 0.17273332E+04</pdfrwt>
<totfact> 0.18334476E+01</totfact>
</mgrwt>
</event>
<event>
 8    1  0.6972317E-052  0.1862844E+04  0.7818608E-02  0.8673576E-01
          2   -1    0    0  501    0  0.00000000000E+00  0.00000000000E+00  0.19026379708E+04  0.19026379708E+04  0.25500000000E-02 0.  1.
         -2   -1    0    0    0  501 -0.00000000000E+00 -0.00000000000E+00 -0.45597050778E+03  0.45597050778E+03  0.25500000000E-02 0. -1.
     200001    2    1    2    0    0  0.28623855913E+03 -0.20420609625E+03  0.14921796784E+04  0.16504608921E+04  0.61138230375E+03 0.  0.
    5000001    2    3    3    0    0  0.39615414125E+03 -0.58538574490E+01  0.10406962316E+04  0.11352295377E+04  0.22073759437E+03 0.  0.
        -11    1    4    4    0    0  0.95908934733E+01  0.54854563181E+02  0.80071280525E+02  0.97531627202E+02  0.51100000000E-03 0. -1.
     200002    1    4    4    0    0  0.38656324777E+03 -0.60708420630E+02  0.96062495110E+03  0.10376979105E+04  0.30000000000E+02 0. -1.
     200000    1    3    3    0    0 -0.10991558212E+03 -0.19835223880E+03  0.45148344679E+03  0.51523135440E+03  0.10100000000E+03 0.  1.
    -200001    1    1    2    0    0 -0.28623855913E+03  0.20420609625E+03 -0.45512215362E+02  0.70814758647E+03  0.61300000000E+03 0. -1.
<mgrwt>
<rscale>  0 0.18628438E+04</rscale>
<asrwt>0</asrwt>
<pdfrwt beam="1">  1        2 0.27180542E+00 0.18628438E+04</pdfrwt>
<pdfrwt beam="2">  1       -2 0.65138644E-01 0.18628438E+04</pdfrwt>
<totfact> 0.18442542E+01</totfact>
</mgrwt>
</event>
<event>
 8    1  0.6972317E-052  0.1790115E+04  0.7818608E-02  0.8711574E-01
         -2   -1    0    0    0  501 -0.00000000000E+00  0.00000000000E+00  0.82594138575E+03  0.82594138576E+03  0.25500000000E-02 0. -1.
          2   -1    0    0  501    0  0.00000000000E+00 -0.00000000000E+00 -0.96995741700E+03  0.96995741701E+03  0.25500000000E-02 0.  1.
     200001    2    1    2    0    0  0.23013539849E+03 -0.27631378770E+02 -0.68331621030E+03  0.94717064967E+03  0.61358406239E+03 0.  0.
    5000001    2    3    3    0    0  0.37555304701E+03  0.14202770923E+03 -0.45407666948E+03  0.61148885732E+03  0.80752953871E+02 0.  0.
        -11    1    4    4    0    0  0.27883237350E+03  0.77236258534E+02 -0.32119420803E+03  0.43229463496E+03  0.51100000000E-03 0. -1.
     200002    1    4    4    0    0  0.96720673508E+02  0.64791450695E+02 -0.13288246145E+03  0.17919422236E+03  0.30000000000E+02 0.  1.
     200000    1    3    3    0    0 -0.14541764852E+03 -0.16965908800E+03 -0.22923954082E+03  0.33568179235E+03  0.10100000000E+03 0. -1.
    -200001    1    1    2    0    0 -0.23013539849E+03  0.27631378770E+02  0.53930017904E+03  0.84872815309E+03  0.61300000000E+03 0. -1.
<mgrwt>
<rscale>  0 0.17901151E+04</rscale>
<asrwt>0</asrwt>
<pdfrwt beam="1">  1        2 0.13856535E+00 0.17901151E+04</pdfrwt>
<pdfrwt beam="2">  1       -2 0.11799163E+00 0.17901151E+04</pdfrwt>
<totfact> 0.15389145E+01</totfact>
</mgrwt>
</event>
<event>
 8    1  0.6972317E-052  0.1303406E+04  0.7818608E-02  0.9026868E-01
         -2   -1    0    0    0  501 -0.00000000000E+00  0.00000000000E+00  0.34337452200E+03  0.34337452201E+03  0.25500000000E-02 0. -1.
          2   -1    0    0  501    0  0.00000000000E+00 -0.00000000000E+00 -0.12368910764E+04  0.12368910764E+04  0.25500000000E-02 0.  1.
     200001    2    1    2    0    0 -0.13625949863E+03 -0.17382804369E+03 -0.43469657349E+03  0.78335430182E+03  0.61310685156E+03 0.  0.
    5000001    2    3    3    0    0 -0.33869840428E+02  0.18873306401E+03 -0.10832281158E+02  0.20733682184E+03  0.78127356503E+02 0.  0.
        -11    1    4    4    0    0 -0.50724505353E+02  0.11053265280E+03 -0.67194631209E+01  0.12180145304E+03  0.51100000000E-03 0. -1.
     200002    1    4    4    0    0  0.16854664924E+02  0.78200411208E+02 -0.41128180366E+01  0.85535368796E+02  0.30000000000E+02 0. -1.
     200000    1    3    3    0    0 -0.10238965820E+03 -0.36256110770E+03 -0.42386429233E+03  0.57601747998E+03  0.10100000000E+03 0. -1.
    -200001    1    1    2    0    0  0.13625949863E+03  0.17382804369E+03 -0.45881998087E+03  0.79691129656E+03  0.61300000000E+03 0. -1.
<mgrwt>
<rscale>  0 0.13034061E+04</rscale>
<asrwt>0</asrwt>
<pdfrwt beam="1">  1        2 0.17669872E+00 0.13034061E+04</pdfrwt>
<pdfrwt beam="2">  1       -2 0.49053504E-01 0.13034061E+04</pdfrwt>
<totfact> 0.78546388E+01</totfact>
</mgrwt>
</event>
<event>
 8    1  0.6972317E-052  0.1717233E+04  0.7818608E-02  0.8751597E-01
          2   -1    0    0  501    0  0.00000000000E+00  0.00000000000E+00  0.43959050828E+03  0.43959050828E+03  0.25500000000E-02 0. -1.
         -2   -1    0    0    0  501 -0.00000000000E+00 -0.00000000000E+00 -0.16770652242E+04  0.16770652242E+04  0.25500000000E-02 0.  1.
     200001    2    1    2    0    0  0.40957860356E+03  0.40849004048E+03 -0.82058072627E+03  0.11763428355E+04  0.61303425072E+03 0.  0.
    5000001    2    3    3    0    0  0.28887423672E+03  0.18967367248E+03 -0.83437420801E+03  0.90645136243E+03  0.77777418262E+02 0.  0.
        -11    1    4    4    0    0  0.23324479537E+03  0.16184646600E+03 -0.63884519383E+03  0.69908554184E+03  0.51100000000E-03 0. -1.
     200002    1    4    4    0    0  0.55629441344E+02  0.27827206476E+02 -0.19552901418E+03  0.20736582059E+03  0.30000000000E+02 0.  1.
     200000    1    3    3    0    0  0.12070436684E+03  0.21881636800E+03  0.13793481734E+02  0.26989147303E+03  0.10100000000E+03 0. -1.
    -200001    1    1    2    0    0 -0.40957860356E+03 -0.40849004048E+03 -0.41689398961E+03  0.94031289698E+03  0.61300000000E+03 0.  1.
<mgrwt>
<rscale>  0 0.17172326E+04</rscale>
<asrwt>0</asrwt>
<pdfrwt beam="1">  1        2 0.62798645E-01 0.17172326E+04</pdfrwt>
<pdfrwt beam="2">  1       -2 0.23958074E+00 0.17172326E+04</pdfrwt>
<totfact> 0.55191385E+00</totfact>
</mgrwt>
</event>
<event>
 8    1  0.6972317E-052  0.1701724E+04  0.7818608E-02  0.8760382E-01
          2   -1    0    0  501    0  0.00000000000E+00  0.00000000000E+00  0.20845892001E+04  0.20845892001E+04  0.25500000000E-02 0.  1.
         -2   -1    0    0    0  501 -0.00000000000E+00 -0.00000000000E+00 -0.34729430871E+03  0.34729430872E+03  0.25500000000E-02 0. -1.
     200001    2    1    2    0    0 -0.50259258960E+03 -0.86747984687E+02  0.12926170171E+04  0.15188490430E+04  0.61312244989E+03 0.  0.
    5000001    2    3    3    0    0 -0.53435055003E+03 -0.16340106528E+03  0.63863762478E+03  0.85193502426E+03  0.75530466227E+02 0.  0.
        -11    1    4    4    0    0 -0.10346722623E+03 -0.25739161307E+02  0.16378855049E+03  0.19543454300E+03  0.51100000000E-03 0. -1.
     200002    1    4    4    0    0 -0.43088332380E+03 -0.13766190397E+03  0.47484907429E+03  0.65650048126E+03  0.30000000000E+02 0. -1.
     200000    1    3    3    0    0  0.31757960431E+02  0.76653080589E+02  0.65397939229E+03  0.66691401871E+03  0.10100000000E+03 0.  1.
    -200001    1    1    2    0    0  0.50259258960E+03  0.86747984687E+02  0.44467787437E+03  0.91303446590E+03  0.61300000000E+03 0.  1.
<mgrwt>
<rscale>  0 0.17017238E+04</rscale>
<asrwt>0</asrwt>
<pdfrwt beam="1">  1        2 0.29779845E+00 0.17017238E+04</pdfrwt>
<pdfrwt beam="2">  1       -2 0.49613474E-01 0.17017238E+04</pdfrwt>
<totfact> 0.26604510E+01</totfact>
</mgrwt>
</event>
<event>
 8    1  0.6972317E-052  0.1388600E+04  0.7818608E-02  0.8962112E-01
          2   -1    0    0  501    0  0.00000000000E+00  0.00000000000E+00  0.64364451190E+04  0.64364451190E+04  0.25500000000E-02 0.  1.
         -2   -1    0    0    0  501 -0.00000000000E+00 -0.00000000000E+00 -0.74894231376E+02  0.74894231419E+02  0.25500000000E-02 0. -1.
     200001    2    1    2    0    0  0.11982682293E+03  0.26434333065E+03  0.23511762101E+04  0.24440171456E+04  0.60079478438E+03 0.  0.
    5000001    2    3    3    0    0  0.18115585655E+03  0.30271645490E+03  0.22623815784E+04  0.22913107814E+04  0.85322883528E+02 0.  0.
        -11    1    4    4    0    0  0.14153686132E+02  0.84503714571E+02  0.47128628169E+03  0.47901144445E+03  0.51100000000E-03 0. -1.
     200002    1    4    4    0    0  0.16700217042E+03  0.21821274033E+03  0.17910952967E+04  0.18122993370E+04  0.30000000000E+02 0. -1.
     200000    1    3    3    0    0 -0.61329033618E+02 -0.38373124258E+02  0.88794631742E+02  0.15270636416E+03  0.10100000000E+03 0. -1.
    -200001    1    1    2    0    0 -0.11982682293E+03 -0.26434333065E+03  0.40103746775E+04  0.40673222049E+04  0.61300000000E+03 0.  1.
<mgrwt>
<rscale>  0 0.13886002E+04</rscale>
<asrwt>0</asrwt>
<pdfrwt beam="1">  1        2 0.91949233E+00 0.13886002E+04</pdfrwt>
<pdfrwt beam="2">  1       -2 0.10699174E-01 0.13886002E+04</pdfrwt>
<totfact> 0.27377209E-02</totfact>
</mgrwt>
</event>
<event>
 8    1  0.6972317E-052  0.1528640E+04  0.7818608E-02  0.8865628E-01
          2   -1    0    0  501    0  0.00000000000E+00  0.00000000000E+00  0.11126765177E+04  0.11126765177E+04  0.25500000000E-02 0.  1.
         -2   -1    0    0    0  501 -0.00000000000E+00 -0.00000000000E+00 -0.52502703031E+03  0.52502703032E+03  0.25500000000E-02 0. -1.
     200001    2    1    2    0    0 -0.13324537028E+02 -0.42583240319E+03  0.47270668137E+03  0.88239458637E+03  0.61127556843E+03 0.  0.
    5000001    2    3    3    0    0 -0.98623111680E+02 -0.35633230557E+03  0.95833449670E+02  0.47700521407E+03  0.28574585565E+03 0.  0.
        -11    1    4    4    0    0  0.93095551313E+02 -0.10442223349E+03  0.74023422329E+02  0.15827271267E+03  0.51100000000E-03 0. -1.
     200002    1    4    4    0    0 -0.19171866299E+03 -0.25191007208E+03  0.21810027341E+02  0.31873250140E+03  0.30000000000E+02 0. -1.
     200000    1    3    3    0    0  0.85298574652E+02 -0.69500097622E+02  0.37687323170E+03  0.40538937231E+03  0.10100000000E+03 0.  1.
    -200001    1    1    2    0    0  0.13324537028E+02  0.42583240319E+03  0.11494280602E+03  0.75530896165E+03  0.61300000000E+03 0. -1.
<mgrwt>
<rscale>  0 0.15286402E+04</rscale>
<asrwt>0</asrwt>
<pdfrwt beam="1">  1        2 0.15895378E+00 0.15286402E+04</pdfrwt>
<pdfrwt beam="2">  1       -2 0.75003863E-01 0.15286402E+04</pdfrwt>
<totfact> 0.37042485E+01</totfact>
</mgrwt>
</event>
<event>
 8    1  0.6972317E-052  0.1546881E+04  0.7818608E-02  0.8853862E-01
         -2   -1    0    0    0  501 -0.00000000000E+00  0.00000000000E+00  0.93524502472E+03  0.93524502473E+03  0.25500000000E-02 0. -1.
          2   -1    0    0  501    0  0.00000000000E+00 -0.00000000000E+00 -0.63962946609E+03  0.63962946609E+03  0.25500000000E-02 0.  1.
     200001    2    1    2    0    0  0.44369999371E+02 -0.43701685689E+03  0.32097629215E+03  0.82031197065E+03  0.61394911761E+03 0.  0.
    5000001    2    3    3    0    0 -0.20902260659E+03 -0.94062238485E+02  0.23172363737E+03  0.37310651515E+03  0.18158874623E+03 0.  0.
        -11    1    4    4    0    0 -0.10998464707E+03 -0.14741810436E+02  0.44126795446E+01  0.11105591073E+03  0.51100000000E-03 0. -1.
     200002    1    4    4    0    0 -0.99037959520E+02 -0.79320428049E+02  0.22731095782E+03  0.26205060442E+03  0.30000000000E+02 0. -1.
     200000    1    3    3    0    0  0.25339260596E+03 -0.34295461840E+03  0.89252654781E+02  0.44720545549E+03  0.10100000000E+03 0.  1.
    -200001    1    1    2    0    0 -0.44369999371E+02  0.43701685689E+03 -0.25360733510E+02  0.75456252017E+03  0.61300000000E+03 0.  1.
<mgrwt>
<rscale>  0 0.15468811E+04</rscale>
<asrwt>0</asrwt>
<pdfrwt beam="1">  1        2 0.91375638E-01 0.15468811E+04</pdfrwt>
<pdfrwt beam="2">  1       -2 0.13360643E+00 0.15468811E+04</pdfrwt>
<totfact> 0.19637997E+01</totfact>
</mgrwt>
</event>
<event>
 8    1  0.6972317E-052  0.1291635E+04  0.7818608E-02  0.9036225E-01
          2   -1    0    0  501    0  0.00000000000E+00  0.00000000000E+00  0.24919139518E+03  0.24919139520E+03  0.25500000000E-02 0.  1.
         -2   -1    0    0    0  501 -0.00000000000E+00 -0.00000000000E+00 -0.16737344606E+04  0.16737344606E+04  0.25500000000E-02 0. -1.
     200001    2    1    2    0    0 -0.61363560679E+02 -0.41915322343E+02 -0.43121551889E+03  0.75331438376E+03  0.61319927938E+03 0.  0.
    5000001    2    3    3    0    0  0.14969086661E+03 -0.18835735037E+03 -0.39349086784E+03  0.47472258893E+03  0.11243054026E+03 0.  0.
        -11    1    4    4    0    0  0.13066282465E+03 -0.13882670380E+03 -0.35406690654E+03  0.40213057797E+03  0.51100000000E-03 0. -1.
     200002    1    4    4    0    0  0.19028041959E+02 -0.49530646570E+02 -0.39423961303E+02  0.72592010960E+02  0.30000000000E+02 0. -1.
     200000    1    3    3    0    0 -0.21105442729E+03  0.14644202803E+03 -0.37724651042E+02  0.27859179483E+03  0.10100000000E+03 0.  1.
    -200001    1    1    2    0    0  0.61363560679E+02  0.41915322343E+02 -0.99332754654E+03  0.11696114720E+04  0.61300000000E+03 0. -1.
<mgrwt>
<rscale>  0 0.12916350E+04</rscale>
<asrwt>0</asrwt>
<pdfrwt beam="1">  1        2 0.35598772E-01 0.12916350E+04</pdfrwt>
<pdfrwt beam="2">  1       -2 0.23910492E+00 0.12916350E+04</pdfrwt>
<totfact> 0.10828767E+01</totfact>
</mgrwt>
</event>
<event>
 8    1  0.6972317E-052  0.1527042E+04  0.7818608E-02  0.8866667E-01
         -2   -1    0    0    0  501 -0.00000000000E+00  0.00000000000E+00  0.19335757397E+03  0.19335757398E+03  0.25500000000E-02 0. -1.
          2   -1    0    0  501    0  0.00000000000E+00 -0.00000000000E+00 -0.30149554815E+04  0.30149554815E+04  0.25500000000E-02 0.  1.
     200001    2    1    2    0    0  0.38299607815E+03 -0.23927129170E+03 -0.15113772749E+04  0.16929306440E+04  0.61466751282E+03 0.  0.
    5000001    2    3    3    0    0  0.14808270750E+03 -0.75370718779E+02 -0.48018637774E+02  0.19838482990E+03  0.97167472187E+02 0.  0.
        -11    1    4    4    0    0  0.98015111523E+02 -0.15737762837E+01 -0.18362734179E+02  0.99732787314E+02  0.51100000000E-03 0. -1.
     200002    1    4    4    0    0  0.50067595980E+02 -0.73796942495E+02 -0.29655903596E+02  0.98652042589E+02  0.30000000000E+02 0. -1.
     200000    1    3    3    0    0  0.23491337065E+03 -0.16390057293E+03 -0.14633586371E+04  0.14945458141E+04  0.10100000000E+03 0.  1.
    -200001    1    1    2    0    0 -0.38299607815E+03  0.23927129170E+03 -0.13102206326E+04  0.15153824115E+04  0.61300000000E+03 0.  1.
<mgrwt>
<rscale>  0 0.15270422E+04</rscale>
<asrwt>0</asrwt>
<pdfrwt beam="1">  1        2 0.43070790E+00 0.15270422E+04</pdfrwt>
<pdfrwt beam="2">  1       -2 0.27622512E-01 0.15270422E+04</pdfrwt>
<totfact> 0.26831511E+01</totfact>
</mgrwt>
</event>
<event>
 8    1  0.6972317E-052  0.2631273E+04  0.7818608E-02  0.8357655E-01
         -2   -1    0    0    0  501 -0.00000000000E+00  0.00000000000E+00  0.12078766665E+04  0.12078766665E+04  0.25500000000E-02 0.  1.
          2   -1    0    0  501    0  0.00000000000E+00 -0.00000000000E+00 -0.14330100761E+04  0.14330100761E+04  0.25500000000E-02 0. -1.
     200001    2    1    2    0    0 -0.84182805405E+03 -0.32074279517E+03 -0.85368366327E+03  0.13829539802E+04  0.61011105650E+03 0.  0.
    5000001    2    3    3    0    0 -0.16672182227E+03  0.10631159717E+03 -0.21916089103E+02  0.22529160473E+03  0.10572450277E+03 0.  0.
        -11    1    4    4    0    0 -0.78676591341E+02  0.52965811839E+02  0.38332215445E+02  0.10229732152E+03  0.51100000000E-03 0. -1.
     200002    1    4    4    0    0 -0.88045230934E+02  0.53345785333E+02 -0.60248304548E+02  0.12299428322E+03  0.30000000000E+02 0. -1.
     200000    1    3    3    0    0 -0.67510623178E+03 -0.42705439234E+03 -0.83176757417E+03  0.11576623755E+04  0.10100000000E+03 0.  1.
    -200001    1    1    2    0    0  0.84182805405E+03  0.32074279517E+03  0.62855025366E+03  0.12579327624E+04  0.61300000000E+03 0.  1.
<mgrwt>
<rscale>  0 0.26312730E+04</rscale>
<asrwt>0</asrwt>
<pdfrwt beam="1">  1        2 0.20471572E+00 0.26312730E+04</pdfrwt>
<pdfrwt beam="2">  1       -2 0.17255381E+00 0.26312730E+04</pdfrwt>
<totfact> 0.28827341E+00</totfact>
</mgrwt>
</event>
<event>
 8    1  0.6972317E-052  0.1540835E+04  0.7818608E-02  0.8857743E-01
          2   -1    0    0  501    0  0.00000000000E+00  0.00000000000E+00  0.69001997428E+03  0.69001997428E+03  0.25500000000E-02 0.  1.
         -2   -1    0    0    0  501 -0.00000000000E+00 -0.00000000000E+00 -0.86018262851E+03  0.86018262851E+03  0.25500000000E-02 0. -1.
     200001    2    1    2    0    0  0.37820747085E+03 -0.26835745714E+03 -0.29197091306E+02  0.76873161438E+03  0.61240444886E+03 0.  0.
    5000001    2    3    3    0    0  0.85117483525E+02  0.16719350833E+03 -0.87495121957E+02  0.23095280802E+03  0.10239701136E+03 0.  0.
        -11    1    4    4    0    0  0.49663469955E+02  0.12988366899E+03 -0.98453246809E+02  0.17037978027E+03  0.51100000000E-03 0. -1.
     200002    1    4    4    0    0  0.35454013570E+02  0.37309839338E+02  0.10958124853E+02  0.60573027743E+02  0.30000000000E+02 0.  1.
     200000    1    3    3    0    0  0.29308998733E+03 -0.43555096547E+03  0.58298030651E+02  0.53777880636E+03  0.10100000000E+03 0.  1.
    -200001    1    1    2    0    0 -0.37820747085E+03  0.26835745714E+03 -0.14096556293E+03  0.78147098842E+03  0.61300000000E+03 0. -1.
<mgrwt>
<rscale>  0 0.15408351E+04</rscale>
<asrwt>0</asrwt>
<pdfrwt beam="1">  1        2 0.98574282E-01 0.15408351E+04</pdfrwt>
<pdfrwt beam="2">  1       -2 0.12288323E+00 0.15408351E+04</pdfrwt>
<totfact> 0.22130004E+01</totfact>
</mgrwt>
</event>
<event>
 8    1  0.6972317E-052  0.1283251E+04  0.7818608E-02  0.9042954E-01
          2   -1    0    0  501    0  0.00000000000E+00  0.00000000000E+00  0.14091483594E+04  0.14091483594E+04  0.25500000000E-02 0.  1.
         -2   -1    0    0    0  501 -0.00000000000E+00 -0.00000000000E+00 -0.29215037197E+03  0.29215037199E+03  0.25500000000E-02 0. -1.
     200001    2    1    2    0    0 -0.84328120758E+02  0.16172900506E+03  0.62731470613E+03  0.89580123356E+03  0.61291810749E+03 0.  0.
    5000001    2    3    3    0    0 -0.23634748494E+03 -0.87916721425E+02  0.87451165611E+02  0.27363845886E+03  0.60339176799E+02 0.  0.
        -11    1    4    4    0    0 -0.78110992254E+02 -0.44390446214E+02  0.12377277369E+02  0.90691983225E+02  0.51100000000E-03 0. -1.
     200002    1    4    4    0    0 -0.15823649269E+03 -0.43526275210E+02  0.75073888242E+02  0.18294647564E+03  0.30000000000E+02 0.  1.
     200000    1    3    3    0    0  0.15201936418E+03  0.24964572649E+03  0.53986354052E+03  0.62216277470E+03  0.10100000000E+03 0. -1.
    -200001    1    1    2    0    0  0.84328120758E+02 -0.16172900506E+03  0.48968328130E+03  0.80549749783E+03  0.61300000000E+03 0.  1.
<mgrwt>
<rscale>  0 0.12832509E+04</rscale>
<asrwt>0</asrwt>
<pdfrwt beam="1">  1        2 0.20130691E+00 0.12832509E+04</pdfrwt>
<pdfrwt beam="2">  1       -2 0.41735767E-01 0.12832509E+04</pdfrwt>
<totfact> 0.87306461E+01</totfact>
</mgrwt>
</event>
<event>
 8    1  0.6972317E-052  0.1386321E+04  0.7818608E-02  0.8963780E-01
         -2   -1    0    0    0  501 -0.00000000000E+00  0.00000000000E+00  0.28545166133E+03  0.28545166134E+03  0.25500000000E-02 0. -1.
          2   -1    0    0  501    0  0.00000000000E+00 -0.00000000000E+00 -0.16831971643E+04  0.16831971644E+04  0.25500000000E-02 0.  1.
     200001    2    1    2    0    0  0.11274914726E+03  0.13163734182E+03 -0.30865009208E+03  0.70692834393E+03  0.61191669706E+03 0.  0.
    5000001    2    3    3    0    0 -0.93916842778E+02  0.25429491390E+03 -0.23796374374E+03  0.43682971145E+03  0.24638826448E+03 0.  0.
        -11    1    4    4    0    0  0.56295924258E+02  0.28005921130E+02 -0.12735919843E+03  0.14203495391E+03  0.51100000000E-03 0. -1.
     200002    1    4    4    0    0 -0.15021276704E+03  0.22628899277E+03 -0.11060454531E+03  0.29479475754E+03  0.30000000000E+02 0. -1.
     200000    1    3    3    0    0  0.20666599004E+03 -0.12265757208E+03 -0.70686348334E+02  0.27009863248E+03  0.10100000000E+03 0. -1.
    -200001    1    1    2    0    0 -0.11274914726E+03 -0.13163734182E+03 -0.10890954109E+04  0.12617204818E+04  0.61300000000E+03 0.  1.
<mgrwt>
<rscale>  0 0.13863209E+04</rscale>
<asrwt>0</asrwt>
<pdfrwt beam="1">  1        2 0.24045673E+00 0.13863209E+04</pdfrwt>
<pdfrwt beam="2">  1       -2 0.40778810E-01 0.13863209E+04</pdfrwt>
<totfact> 0.64968389E+01</totfact>
</mgrwt>
</event>
<event>
 8    1  0.6972317E-052  0.1590288E+04  0.7818608E-02  0.8826537E-01
         -2   -1    0    0    0  501 -0.00000000000E+00  0.00000000000E+00  0.23385272781E+03  0.23385272782E+03  0.25500000000E-02 0. -1.
          2   -1    0    0  501    0  0.00000000000E+00 -0.00000000000E+00 -0.27036402621E+04  0.27036402621E+04  0.25500000000E-02 0.  1.
     200001    2    1    2    0    0  0.29096235232E+03 -0.39269111050E+03 -0.98818392644E+03  0.12612520617E+04  0.61268580192E+03 0.  0.
    5000001    2    3    3    0    0 -0.10804046454E+03  0.24737658332E+02 -0.50062321768E+02  0.15503184397E+03  0.96145425620E+02 0.  0.
        -11    1    4    4    0    0 -0.75407794491E+02  0.29517733760E+01 -0.68883148077E+02  0.10217600758E+03  0.51100000000E-03 0. -1.
     200002    1    4    4    0    0 -0.32632670047E+02  0.21785884956E+02  0.18820826309E+02  0.52855836391E+02  0.30000000000E+02 0. -1.
     200000    1    3    3    0    0  0.39900281686E+03 -0.41742876883E+03 -0.93812160468E+03  0.11062202177E+04  0.10100000000E+03 0.  1.
    -200001    1    1    2    0    0 -0.29096235232E+03  0.39269111050E+03 -0.14816036078E+04  0.16762409282E+04  0.61300000000E+03 0. -1.
<mgrwt>
<rscale>  0 0.15902876E+04</rscale>
<asrwt>0</asrwt>
<pdfrwt beam="1">  1        2 0.38623431E+00 0.15902876E+04</pdfrwt>
<pdfrwt beam="2">  1       -2 0.33407534E-01 0.15902876E+04</pdfrwt>
<totfact> 0.27685346E+01</totfact>
</mgrwt>
</event>
<event>
 8    1  0.6972317E-052  0.1343818E+04  0.7818608E-02  0.8995521E-01
          2   -1    0    0  501    0  0.00000000000E+00  0.00000000000E+00  0.63110771301E+03  0.63110771301E+03  0.25500000000E-02 0.  1.
         -2   -1    0    0    0  501 -0.00000000000E+00 -0.00000000000E+00 -0.71534777961E+03  0.71534777962E+03  0.25500000000E-02 0. -1.
     200001    2    1    2    0    0  0.26546516007E+02 -0.20456866527E+03  0.14044750227E+03  0.66176099146E+03  0.61290215582E+03 0.  0.
    5000001    2    3    3    0    0 -0.83461140216E+02 -0.38870880598E+03  0.47029037134E+02  0.40693303876E+03  0.72955259824E+02 0.  0.
        -11    1    4    4    0    0 -0.96250694727E+01 -0.18805782136E+03  0.21140762479E+02  0.18948698629E+03  0.51100000000E-03 0. -1.
     200002    1    4    4    0    0 -0.73836070743E+02 -0.20065098462E+03  0.25888274655E+02  0.21744605247E+03  0.30000000000E+02 0. -1.
     200000    1    3    3    0    0  0.11000765622E+03  0.18414014071E+03  0.93418465138E+02  0.25482795270E+03  0.10100000000E+03 0.  1.
    -200001    1    1    2    0    0 -0.26546516007E+02  0.20456866527E+03 -0.22468756888E+03  0.68469450117E+03  0.61300000000E+03 0. -1.
<mgrwt>
<rscale>  0 0.13438177E+04</rscale>
<asrwt>0</asrwt>
<pdfrwt beam="1">  1        2 0.90158244E-01 0.13438177E+04</pdfrwt>
<pdfrwt beam="2">  1       -2 0.10219254E+00 0.13438177E+04</pdfrwt>
<totfact> 0.39215979E+01</totfact>
</mgrwt>
</event>
<event>
 8    1  0.6972317E-052  0.2847098E+04  0.7818608E-02  0.8288794E-01
         -2   -1    0    0    0  501 -0.00000000000E+00  0.00000000000E+00  0.72130980733E+03  0.72130980734E+03  0.25500000000E-02 0. -1.
          2   -1    0    0  501    0  0.00000000000E+00 -0.00000000000E+00 -0.28094611458E+04  0.28094611458E+04  0.25500000000E-02 0.  1.
     200001    2    1    2    0    0  0.13988140900E+03  0.97939554999E+03 -0.20611182133E+04  0.23666050536E+04  0.61141535665E+03 0.  0.
    5000001    2    3    3    0    0  0.76185644977E+02  0.49652109311E+03 -0.16340788850E+04  0.17110225039E+04  0.71040538577E+02 0.  0.
        -11    1    4    4    0    0  0.57521017014E+02  0.29198349573E+03 -0.88365202127E+03  0.93241832021E+03  0.51100000000E-03 0. -1.
     200002    1    4    4    0    0  0.18664627963E+02  0.20453759738E+03 -0.75042686373E+03  0.77860418371E+03  0.30000000000E+02 0. -1.
     200000    1    3    3    0    0  0.63695764020E+02  0.48287445688E+03 -0.42703932832E+03  0.65558254964E+03  0.10100000000E+03 0.  1.
    -200001    1    1    2    0    0 -0.13988140900E+03 -0.97939554999E+03 -0.27033125170E+02  0.11641658996E+04  0.61300000000E+03 0. -1.
<mgrwt>
<rscale>  0 0.28470981E+04</rscale>
<asrwt>0</asrwt>
<pdfrwt beam="1">  1        2 0.40135159E+00 0.28470981E+04</pdfrwt>
<pdfrwt beam="2">  1       -2 0.10304426E+00 0.28470981E+04</pdfrwt>
<totfact> 0.20172637E+00</totfact>
</mgrwt>
</event>
<event>
 8    1  0.6972317E-052  0.1278195E+04  0.7818608E-02  0.9047037E-01
         -2   -1    0    0    0  501 -0.00000000000E+00  0.00000000000E+00  0.11291892422E+04  0.11291892422E+04  0.25500000000E-02 0. -1.
          2   -1    0    0  501    0  0.00000000000E+00 -0.00000000000E+00 -0.36171601512E+03  0.36171601513E+03  0.25500000000E-02 0.  1.
     200001    2    1    2    0    0  0.17577962037E+03  0.21974664463E+01  0.43173621652E+03  0.77021694463E+03  0.61313512160E+03 0.  0.
    5000001    2    3    3    0    0  0.18164114861E+03  0.18818420312E+03 -0.20056775030E+02  0.27127473260E+03  0.69144089795E+02 0.  0.
        -11    1    4    4    0    0  0.10568829308E+03  0.82283744029E+02  0.96327207836E+01  0.13428856666E+03  0.51100000000E-03 0. -1.
     200002    1    4    4    0    0  0.75952855528E+02  0.10590045909E+03 -0.29689495813E+02  0.13698616594E+03  0.30000000000E+02 0.  1.
     200000    1    3    3    0    0 -0.58615282425E+01 -0.18598673667E+03  0.45179299155E+03  0.49894221203E+03  0.10100000000E+03 0. -1.
    -200001    1    1    2    0    0 -0.17577962037E+03 -0.21974664463E+01  0.33573701055E+03  0.72068831269E+03  0.61300000000E+03 0. -1.
<mgrwt>
<rscale>  0 0.12781953E+04</rscale>
<asrwt>0</asrwt>
<pdfrwt beam="1">  1        2 0.51673716E-01 0.12781953E+04</pdfrwt>
<pdfrwt beam="2">  1       -2 0.16131275E+00 0.12781953E+04</pdfrwt>
<totfact> 0.23412312E+01</totfact>
</mgrwt>
</event>
<event>
 8    1  0.6972317E-052  0.2355541E+04  0.7818608E-02  0.8456338E-01
         -2   -1    0    0    0  501 -0.00000000000E+00  0.00000000000E+00  0.79768308832E+03  0.79768308833E+03  0.25500000000E-02 0. -1.
          2   -1    0    0  501    0  0.00000000000E+00 -0.00000000000E+00 -0.17389653664E+04  0.17389653664E+04  0.25500000000E-02 0.  1.
     200001    2    1    2    0    0 -0.11471898709E+03  0.67689035398E+03  0.32272053204E+03  0.97305864238E+03  0.60938787516E+03 0.  0.
    5000001    2    3    3    0    0  0.19961314422E+02  0.21161711844E+03 -0.16259349349E+03  0.27998673363E+03  0.82314445824E+02 0.  0.
        -11    1    4    4    0    0 -0.61562040768E+01  0.75698385087E+02 -0.98916794550E+02  0.12471037085E+03  0.51100000000E-03 0. -1.
     200002    1    4    4    0    0  0.26117518499E+02  0.13591873335E+03 -0.63676698937E+02  0.15527636278E+03  0.30000000000E+02 0. -1.
     200000    1    3    3    0    0 -0.13468030151E+03  0.46527323554E+03  0.48531402553E+03  0.69307190875E+03  0.10100000000E+03 0. -1.
    -200001    1    1    2    0    0  0.11471898709E+03 -0.67689035398E+03 -0.12640028101E+04  0.15635898124E+04  0.61300000000E+03 0.  1.
<mgrwt>
<rscale>  0 0.23555409E+04</rscale>
<asrwt>0</asrwt>
<pdfrwt beam="1">  1        2 0.24842362E+00 0.23555409E+04</pdfrwt>
<pdfrwt beam="2">  1       -2 0.11395473E+00 0.23555409E+04</pdfrwt>
<totfact> 0.59905318E+00</totfact>
</mgrwt>
</event>
<event>
 8    1  0.6972317E-052  0.2578886E+04  0.7818608E-02  0.8375409E-01
         -2   -1    0    0    0  501 -0.00000000000E+00  0.00000000000E+00  0.28198401077E+04  0.28198401077E+04  0.25500000000E-02 0. -1.
          2   -1    0    0  501    0  0.00000000000E+00 -0.00000000000E+00 -0.58963049894E+03  0.58963049895E+03  0.25500000000E-02 0.  1.
     200001    2    1    2    0    0 -0.50540682291E+03  0.37423468107E+03  0.23635274085E+04  0.25211968375E+04  0.61211439234E+03 0.  0.
    5000001    2    3    3    0    0 -0.53771690545E+03  0.93945200281E+02  0.18067850071E+04  0.18889237667E+04  0.74804836152E+02 0.  0.
        -11    1    4    4    0    0 -0.81098807750E+02  0.14533701317E+02  0.19847957323E+03  0.21490087501E+03  0.51100000000E-03 0. -1.
     200002    1    4    4    0    0 -0.45661809770E+03  0.79411498964E+02  0.16083054338E+04  0.16740228917E+04  0.30000000000E+02 0. -1.
     200000    1    3    3    0    0  0.32310082546E+02  0.28028948079E+03  0.55674240148E+03  0.63227307082E+03  0.10100000000E+03 0.  1.
    -200001    1    1    2    0    0  0.50540682291E+03 -0.37423468107E+03 -0.13331779982E+03  0.88827376912E+03  0.61300000000E+03 0.  1.
<mgrwt>
<rscale>  0 0.25788864E+04</rscale>
<asrwt>0</asrwt>
<pdfrwt beam="1">  1        2 0.84232931E-01 0.25788864E+04</pdfrwt>
<pdfrwt beam="2">  1       -2 0.40283429E+00 0.25788864E+04</pdfrwt>
<totfact> 0.35074189E-01</totfact>
</mgrwt>
</event>
<event>
 8    1  0.6972317E-052  0.1381272E+04  0.7818608E-02  0.8967487E-01
          2   -1    0    0  501    0  0.00000000000E+00  0.00000000000E+00  0.29641877004E+04  0.29641877004E+04  0.25500000000E-02 0.  1.
         -2   -1    0    0    0  501 -0.00000000000E+00 -0.00000000000E+00 -0.16091369518E+03  0.16091369520E+03  0.25500000000E-02 0. -1.
     200001    2    1    2    0    0 -0.49116826335E+02  0.28568848841E+03  0.16973954166E+04  0.18278863680E+04  0.61317778743E+03 0.  0.
    5000001    2    3    3    0    0 -0.17538201302E+03 -0.11866654069E+03  0.40071219883E+03  0.46002882638E+03  0.78839434540E+02 0.  0.
        -11    1    4    4    0    0 -0.96989532044E+02 -0.40014719477E+02  0.13899373154E+03  0.17414765146E+03  0.51100000000E-03 0. -1.
     200002    1    4    4    0    0 -0.78392480978E+02 -0.78651821213E+02  0.26171846729E+03  0.28588117492E+03  0.30000000000E+02 0.  1.
     200000    1    3    3    0    0  0.12626518669E+03  0.40435502910E+03  0.12966832178E+04  0.13678575416E+04  0.10100000000E+03 0. -1.
    -200001    1    1    2    0    0  0.49116826335E+02 -0.28568848841E+03  0.11058785886E+04  0.12972150275E+04  0.61300000000E+03 0. -1.
<mgrwt>
<rscale>  0 0.13812725E+04</rscale>
<asrwt>0</asrwt>
<pdfrwt beam="1">  1        2 0.42345534E+00 0.13812725E+04</pdfrwt>
<pdfrwt beam="2">  1       -2 0.22987673E-01 0.13812725E+04</pdfrwt>
<totfact> 0.40482732E+01</totfact>
</mgrwt>
</event>
<event>
 8    1  0.6972317E-052  0.2316870E+04  0.7818608E-02  0.8471299E-01
          2   -1    0    0  501    0  0.00000000000E+00  0.00000000000E+00  0.37607219485E+04  0.37607219485E+04  0.25500000000E-02 0.  1.
         -2   -1    0    0    0  501 -0.00000000000E+00 -0.00000000000E+00 -0.35683882491E+03  0.35683882492E+03  0.25500000000E-02 0. -1.
     200001    2    1    2    0    0 -0.27048757540E+02  0.44278219494E+02 -0.42779986787E+02  0.61642555860E+03  0.61274639617E+03 0.  0.
    5000001    2    3    3    0    0  0.14966644971E+03  0.13904390953E+03 -0.23461824105E+03  0.32110925989E+03  0.79575013732E+02 0.  0.
        -11    1    4    4    0    0  0.13194190951E+03  0.12056127586E+03 -0.17925573321E+03  0.25313298207E+03  0.51100000000E-03 0. -1.
     200002    1    4    4    0    0  0.17724540199E+02  0.18482633667E+02 -0.55362507832E+02  0.67976277818E+02  0.30000000000E+02 0.  1.
     200000    1    3    3    0    0 -0.17671520725E+03 -0.94765690035E+02  0.19183825426E+03  0.29531629870E+03  0.10100000000E+03 0. -1.
    -200001    1    1    2    0    0  0.27048757540E+02 -0.44278219494E+02  0.34466631104E+04  0.35011352148E+04  0.61300000000E+03 0.  1.
<mgrwt>
<rscale>  0 0.23168700E+04</rscale>
<asrwt>0</asrwt>
<pdfrwt beam="1">  1        2 0.53724598E+00 0.23168700E+04</pdfrwt>
<pdfrwt beam="2">  1       -2 0.50976977E-01 0.23168700E+04</pdfrwt>
<totfact> 0.27288079E+00</totfact>
</mgrwt>
</event>
<event>
 8    1  0.6972317E-052  0.1760340E+04  0.7818608E-02  0.8727679E-01
         -2   -1    0    0    0  501 -0.00000000000E+00  0.00000000000E+00  0.45953461914E+03  0.45953461914E+03  0.25500000000E-02 0. -1.
          2   -1    0    0  501    0  0.00000000000E+00 -0.00000000000E+00 -0.16858343558E+04  0.16858343558E+04  0.25500000000E-02 0.  1.
     200001    2    1    2    0    0  0.16229566941E+03 -0.32566726526E+03  0.14563557894E+02  0.71431699555E+03  0.61452227050E+03 0.  0.
    5000001    2    3    3    0    0 -0.16054726365E+03  0.73141284946E+02  0.17719498171E+02  0.19135736125E+03  0.71962404495E+02 0.  0.
        -11    1    4    4    0    0 -0.79019209127E+02  0.24515104364E+02 -0.19620840492E+02  0.85029425112E+02  0.51100000000E-03 0. -1.
     200002    1    4    4    0    0 -0.81528054524E+02  0.48626180582E+02  0.37340338662E+02  0.10632793614E+03  0.30000000000E+02 0. -1.
     200000    1    3    3    0    0  0.32284293306E+03 -0.39880855021E+03 -0.31559402766E+01  0.52295963430E+03  0.10100000000E+03 0. -1.
    -200001    1    1    2    0    0 -0.16229566941E+03  0.32566726526E+03 -0.12408632946E+04  0.14310519794E+04  0.61300000000E+03 0. -1.
<mgrwt>
<rscale>  0 0.17603400E+04</rscale>
<asrwt>0</asrwt>
<pdfrwt beam="1">  1        2 0.24083348E+00 0.17603400E+04</pdfrwt>
<pdfrwt beam="2">  1       -2 0.65647804E-01 0.17603400E+04</pdfrwt>
<totfact> 0.23676445E+01</totfact>
</mgrwt>
</event>
<event>
 8    1  0.6972317E-052  0.1312365E+04  0.7818608E-02  0.9019816E-01
         -2   -1    0    0    0  501 -0.00000000000E+00  0.00000000000E+00  0.15632489291E+04  0.15632489291E+04  0.25500000000E-02 0. -1.
          2   -1    0    0  501    0  0.00000000000E+00 -0.00000000000E+00 -0.27543646065E+03  0.27543646066E+03  0.25500000000E-02 0.  1.
     200001    2    1    2    0    0 -0.20389564780E+03 -0.54344648294E+02  0.78427056726E+03  0.10178015842E+04  0.61344353130E+03 0.  0.
    5000001    2    3    3    0    0 -0.35644519594E+03 -0.18392068717E+03  0.59997982084E+03  0.72758546866E+03  0.92330016319E+02 0.  0.
        -11    1    4    4    0    0 -0.23414144108E+03 -0.80707607369E+02  0.33559396459E+03  0.41708421378E+03  0.51100000000E-03 0. -1.
     200002    1    4    4    0    0 -0.12230375486E+03 -0.10321307980E+03  0.26438585625E+03  0.31050125488E+03  0.30000000000E+02 0. -1.
     200000    1    3    3    0    0  0.15254954814E+03  0.12957603888E+03  0.18429074642E+03  0.29021611551E+03  0.10100000000E+03 0.  1.
    -200001    1    1    2    0    0  0.20389564780E+03  0.54344648294E+02  0.50354190117E+03  0.82088380555E+03  0.61300000000E+03 0.  1.
<mgrwt>
<rscale>  0 0.13123654E+04</rscale>
<asrwt>0</asrwt>
<pdfrwt beam="1">  1        2 0.39348064E-01 0.13123654E+04</pdfrwt>
<pdfrwt beam="2">  1       -2 0.22332129E+00 0.13123654E+04</pdfrwt>
<totfact> 0.12118768E+01</totfact>
</mgrwt>
</event>
<event>
 8    1  0.6972317E-052  0.1830122E+04  0.7818608E-02  0.8690443E-01
         -2   -1    0    0    0  501 -0.00000000000E+00  0.00000000000E+00  0.20931818364E+03  0.20931818366E+03  0.25500000000E-02 0. -1.
          2   -1    0    0  501    0  0.00000000000E+00 -0.00000000000E+00 -0.40003069403E+04  0.40003069403E+04  0.25500000000E-02 0.  1.
     200001    2    1    2    0    0  0.26636821794E+03  0.53958326538E+03 -0.11692985938E+04  0.14507973951E+04  0.61274117880E+03 0.  0.
    5000001    2    3    3    0    0  0.34418950811E+03  0.36510146685E+03 -0.10840147932E+04  0.12184735309E+04  0.24046657779E+03 0.  0.
        -11    1    4    4    0    0  0.34696423538E+03  0.28005371490E+03 -0.75043771285E+03  0.87290951692E+03  0.51100000000E-03 0. -1.
     200002    1    4    4    0    0 -0.27747272705E+01  0.85047751950E+02 -0.33357708033E+03  0.34556401396E+03  0.30000000000E+02 0. -1.
     200000    1    3    3    0    0 -0.77821290170E+02  0.17448179853E+03 -0.85283800670E+02  0.23232386420E+03  0.10100000000E+03 0. -1.
    -200001    1    1    2    0    0 -0.26636821794E+03 -0.53958326538E+03 -0.26216901628E+04  0.27588277289E+04  0.61300000000E+03 0.  1.
<mgrwt>
<rscale>  0 0.18301224E+04</rscale>
<asrwt>0</asrwt>
<pdfrwt beam="1">  1        2 0.57147237E+00 0.18301224E+04</pdfrwt>
<pdfrwt beam="2">  1       -2 0.29902600E-01 0.18301224E+04</pdfrwt>
<totfact> 0.56001213E+00</totfact>
</mgrwt>
</event>
<event>
 8    1  0.6972317E-052  0.1656738E+04  0.7818608E-02  0.8786430E-01
         -2   -1    0    0    0  501 -0.00000000000E+00  0.00000000000E+00  0.86471062865E+03  0.86471062866E+03  0.25500000000E-02 0. -1.
          2   -1    0    0  501    0  0.00000000000E+00 -0.00000000000E+00 -0.79355490135E+03  0.79355490135E+03  0.25500000000E-02 0.  1.
     200001    2    1    2    0    0  0.25630829735E+03 -0.41492224028E+03 -0.23408349954E+03  0.81755488158E+03  0.61298163992E+03 0.  0.
    5000001    2    3    3    0    0  0.17308175548E+03 -0.38907357640E+03  0.11161674166E+03  0.44700870705E+03  0.77607636398E+02 0.  0.
        -11    1    4    4    0    0  0.72356743997E+02 -0.18728387916E+03  0.20117209763E+02  0.20178070256E+03  0.51100000000E-03 0. -1.
     200002    1    4    4    0    0  0.10072501148E+03 -0.20178969723E+03  0.91499531900E+02  0.24522800449E+03  0.30000000000E+02 0. -1.
     200000    1    3    3    0    0  0.83226541874E+02 -0.25848663878E+02 -0.34570024120E+03  0.37054617453E+03  0.10100000000E+03 0.  1.
    -200001    1    1    2    0    0 -0.25630829735E+03  0.41492224028E+03  0.30523922684E+03  0.84071064842E+03  0.61300000000E+03 0.  1.
<mgrwt>
<rscale>  0 0.16567382E+04</rscale>
<asrwt>0</asrwt>
<pdfrwt beam="1">  1        2 0.11336499E+00 0.16567382E+04</pdfrwt>
<pdfrwt beam="2">  1       -2 0.12353009E+00 0.16567382E+04</pdfrwt>
<totfact> 0.18158543E+01</totfact>
</mgrwt>
</event>
<event>
 8    1  0.6972317E-052  0.1271200E+04  0.7818608E-02  0.9052721E-01
          2   -1    0    0  501    0  0.00000000000E+00  0.00000000000E+00  0.18480448331E+04  0.18480448331E+04  0.25500000000E-02 0.  1.
         -2   -1    0    0    0  501 -0.00000000000E+00 -0.00000000000E+00 -0.21860248985E+03  0.21860248986E+03  0.25500000000E-02 0. -1.
     200001    2    1    2    0    0  0.10303776602E+03  0.66697882419E+02  0.99540410587E+03  0.11762323213E+04  0.61451423982E+03 0.  0.
    5000001    2    3    3    0    0  0.28870883195E+03  0.15618597602E+03  0.33260683865E+03  0.47481726511E+03  0.84126555735E+02 0.  0.
        -11    1    4    4    0    0  0.23866921926E+03  0.14062523419E+03  0.28907668084E+03  0.40037954508E+03  0.51100000000E-03 0. -1.
     200002    1    4    4    0    0  0.50039612691E+02  0.15560741829E+02  0.43530157815E+02  0.74437720034E+02  0.30000000000E+02 0. -1.
     200000    1    3    3    0    0 -0.18567106593E+03 -0.89488093599E+02  0.66279726721E+03  0.70141505619E+03  0.10100000000E+03 0. -1.
    -200001    1    1    2    0    0 -0.10303776602E+03 -0.66697882419E+02  0.63403823743E+03  0.89041500171E+03  0.61300000000E+03 0. -1.
<mgrwt>
<rscale>  0 0.12711998E+04</rscale>
<asrwt>0</asrwt>
<pdfrwt beam="1">  1        2 0.26400639E+00 0.12711998E+04</pdfrwt>
<pdfrwt beam="2">  1       -2 0.31228928E-01 0.12711998E+04</pdfrwt>
<totfact> 0.89781032E+01</totfact>
</mgrwt>
</event>
<event>
 8    1  0.6972317E-052  0.1865457E+04  0.7818608E-02  0.8672244E-01
         -2   -1    0    0    0  501 -0.00000000000E+00  0.00000000000E+00  0.41908095466E+03  0.41908095467E+03  0.25500000000E-02 0. -1.
          2   -1    0    0  501    0  0.00000000000E+00 -0.00000000000E+00 -0.20759296617E+04  0.20759296617E+04  0.25500000000E-02 0.  1.
     200001    2    1    2    0    0  0.13183292816E+03 -0.91807340388E+02 -0.17443457448E+04  0.18552972116E+04  0.61120958540E+03 0.  0.
    5000001    2    3    3    0    0  0.18700036607E+02  0.11391740450E+03 -0.14670115784E+04  0.14781540536E+04  0.13960504444E+03 0.  0.
        -11    1    4    4    0    0  0.38856739372E+02  0.12446632509E+03 -0.84469527129E+03  0.85469983832E+03  0.51100000000E-03 0. -1.
     200002    1    4    4    0    0 -0.20156702764E+02 -0.10548920586E+02 -0.62231630713E+03  0.62345421525E+03  0.30000000000E+02 0. -1.
     200000    1    3    3    0    0  0.11313289156E+03 -0.20572474489E+03 -0.27733416637E+03  0.37714315803E+03  0.10100000000E+03 0.  1.
    -200001    1    1    2    0    0 -0.13183292816E+03  0.91807340388E+02  0.87497037708E+02  0.63971340482E+03  0.61300000000E+03 0. -1.
<mgrwt>
<rscale>  0 0.18654571E+04</rscale>
<asrwt>0</asrwt>
<pdfrwt beam="1">  1        2 0.29656138E+00 0.18654571E+04</pdfrwt>
<pdfrwt beam="2">  1       -2 0.59868709E-01 0.18654571E+04</pdfrwt>
<totfact> 0.17969171E+01</totfact>
</mgrwt>
</event>
<event>
 8    1  0.6972317E-052  0.1357987E+04  0.7818608E-02  0.8984804E-01
          2   -1    0    0  501    0  0.00000000000E+00  0.00000000000E+00  0.22535465328E+04  0.22535465328E+04  0.25500000000E-02 0.  1.
         -2   -1    0    0    0  501 -0.00000000000E+00 -0.00000000000E+00 -0.20458078811E+03  0.20458078813E+03  0.25500000000E-02 0. -1.
     200001    2    1    2    0    0 -0.15612631274E+03  0.25233790443E+03  0.10815261315E+04  0.12750135273E+04  0.60655657452E+03 0.  0.
    5000001    2    3    3    0    0  0.56899564975E+00  0.30720654030E+03  0.20796149447E+03  0.38009444606E+03  0.82750363027E+02 0.  0.
        -11    1    4    4    0    0  0.25969829211E+02  0.40213781311E+02  0.24565850506E+02  0.53805773370E+02  0.51100000000E-03 0. -1.
     200002    1    4    4    0    0 -0.25400833561E+02  0.26699275899E+03  0.18339564397E+03  0.32628867269E+03  0.30000000000E+02 0. -1.
     200000    1    3    3    0    0 -0.15669530839E+03 -0.54868635868E+02  0.87356463705E+03  0.89491908125E+03  0.10100000000E+03 0.  1.
    -200001    1    1    2    0    0  0.15612631274E+03 -0.25233790443E+03  0.96743961313E+03  0.11831137936E+04  0.61300000000E+03 0. -1.
<mgrwt>
<rscale>  0 0.13579872E+04</rscale>
<asrwt>0</asrwt>
<pdfrwt beam="1">  1        2 0.32193519E+00 0.13579872E+04</pdfrwt>
<pdfrwt beam="2">  1       -2 0.29225829E-01 0.13579872E+04</pdfrwt>
<totfact> 0.62474201E+01</totfact>
</mgrwt>
</event>
<event>
 8    1  0.6972317E-052  0.2327737E+04  0.7818608E-02  0.8467065E-01
         -2   -1    0    0    0  501 -0.00000000000E+00  0.00000000000E+00  0.33218664523E+04  0.33218664523E+04  0.25500000000E-02 0. -1.
          2   -1    0    0  501    0  0.00000000000E+00 -0.00000000000E+00 -0.40777966282E+03  0.40777966282E+03  0.25500000000E-02 0.  1.
     200001    2    1    2    0    0  0.28020857079E+03  0.27625941700E+03  0.20619305785E+01  0.72789764340E+03  0.61236804218E+03 0.  0.
    5000001    2    3    3    0    0 -0.13771901018E+03 -0.51135119313E+01 -0.57059794082E+02  0.21066407295E+03  0.14876443715E+03 0.  0.
        -11    1    4    4    0    0 -0.67582242624E+02  0.48442453362E+02 -0.79233733963E+02  0.11485649918E+03  0.51100000000E-03 0. -1.
     200002    1    4    4    0    0 -0.70136767557E+02 -0.53555965294E+02  0.22173939880E+02  0.95807573770E+02  0.30000000000E+02 0. -1.
     200000    1    3    3    0    0  0.41792758097E+03  0.28137292893E+03  0.59121724661E+02  0.51723357045E+03  0.10100000000E+03 0.  1.
    -200001    1    1    2    0    0 -0.28020857079E+03 -0.27625941700E+03  0.29120248589E+04  0.30017484718E+04  0.61300000000E+03 0. -1.
<mgrwt>
<rscale>  0 0.23277367E+04</rscale>
<asrwt>0</asrwt>
<pdfrwt beam="1">  1        2 0.58254237E-01 0.23277367E+04</pdfrwt>
<pdfrwt beam="2">  1       -2 0.47455235E+00 0.23277367E+04</pdfrwt>
<totfact> 0.18370755E-01</totfact>
</mgrwt>
</event>
<event>
 8    1  0.6972317E-052  0.1268812E+04  0.7818608E-02  0.9054670E-01
         -2   -1    0    0    0  501 -0.00000000000E+00  0.00000000000E+00  0.20434271849E+03  0.20434271850E+03  0.25500000000E-02 0. -1.
          2   -1    0    0  501    0  0.00000000000E+00 -0.00000000000E+00 -0.19695889936E+04  0.19695889936E+04  0.25500000000E-02 0.  1.
     200001    2    1    2    0    0 -0.59185549285E+02 -0.82274778873E+02 -0.66401593995E+03  0.90951511953E+03  0.61321164019E+03 0.  0.
    5000001    2    3    3    0    0 -0.29060451925E+03  0.80823516869E+02 -0.38692516902E+03  0.50069231064E+03  0.99991379779E+02 0.  0.
        -11    1    4    4    0    0 -0.56573569231E+02  0.12812609767E+02 -0.14416673249E+03  0.15539877239E+03  0.51100000000E-03 0. -1.
     200002    1    4    4    0    0 -0.23403095002E+03  0.68010907102E+02 -0.24275843653E+03  0.34529353825E+03  0.30000000000E+02 0. -1.
     200000    1    3    3    0    0  0.23141896996E+03 -0.16309829574E+03 -0.27709077093E+03  0.40882280889E+03  0.10100000000E+03 0. -1.
    -200001    1    1    2    0    0  0.59185549285E+02  0.82274778873E+02 -0.11012303351E+04  0.12644165925E+04  0.61300000000E+03 0.  1.
<mgrwt>
<rscale>  0 0.12688123E+04</rscale>
<asrwt>0</asrwt>
<pdfrwt beam="1">  1        2 0.28136985E+00 0.12688123E+04</pdfrwt>
<pdfrwt beam="2">  1       -2 0.29191818E-01 0.12688123E+04</pdfrwt>
<totfact> 0.88199948E+01</totfact>
</mgrwt>
</event>
<event>
 8    1  0.6972317E-052  0.1258152E+04  0.7818608E-02  0.9063425E-01
         -2   -1    0    0    0  501 -0.00000000000E+00  0.00000000000E+00  0.12388984049E+03  0.12388984052E+03  0.25500000000E-02 0. -1.
          2   -1    0    0  501    0  0.00000000000E+00 -0.00000000000E+00 -0.31942629668E+04  0.31942629668E+04  0.25500000000E-02 0.  1.
     200001    2    1    2    0    0 -0.36024007311E+02 -0.47688800658E+02 -0.18714076855E+04  0.19702436564E+04  0.61328736292E+03 0.  0.
    5000001    2    3    3    0    0 -0.31885393756E+02  0.66109726936E+02 -0.17983447855E+04  0.18014052119E+04  0.75030630365E+02 0.  0.
        -11    1    4    4    0    0 -0.31145873468E+02  0.70754019900E+01 -0.92586495148E+03  0.92641569240E+03  0.51100000000E-03 0. -1.
     200002    1    4    4    0    0 -0.73952028771E+00  0.59034324946E+02 -0.87247983403E+03  0.87498951948E+03  0.30000000000E+02 0.  1.
     200000    1    3    3    0    0 -0.41386135545E+01 -0.11379852759E+03 -0.73062900012E+02  0.16883844456E+03  0.10100000000E+03 0. -1.
    -200001    1    1    2    0    0  0.36024007311E+02  0.47688800658E+02 -0.11989654408E+04  0.13479091509E+04  0.61300000000E+03 0. -1.
<mgrwt>
<rscale>  0 0.12581522E+04</rscale>
<asrwt>0</asrwt>
<pdfrwt beam="1">  1        2 0.45632323E+00 0.12581522E+04</pdfrwt>
<pdfrwt beam="2">  1       -2 0.17698551E-01 0.12581522E+04</pdfrwt>
<totfact> 0.48166676E+01</totfact>
</mgrwt>
</event>
<event>
 8    1  0.6972317E-052  0.2427299E+04  0.7818608E-02  0.8429353E-01
         -2   -1    0    0    0  501 -0.00000000000E+00  0.00000000000E+00  0.86950572397E+03  0.86950572397E+03  0.25500000000E-02 0. -1.
          2   -1    0    0  501    0  0.00000000000E+00 -0.00000000000E+00 -0.16940028466E+04  0.16940028466E+04  0.25500000000E-02 0.  1.
     200001    2    1    2    0    0 -0.72202803547E+03 -0.49467072746E+03 -0.10198785493E+04  0.14772459345E+04  0.61325335979E+03 0.  0.
    5000001    2    3    3    0    0  0.51086268891E+02 -0.19150805872E+03 -0.16293212461E+03  0.27967693610E+03  0.11129765467E+03 0.  0.
        -11    1    4    4    0    0 -0.42707925747E+01  0.96555134677E+01  0.34809315711E+01  0.11116901295E+02  0.51100000000E-03 0. -1.
     200002    1    4    4    0    0  0.55357061466E+02 -0.20116357218E+03 -0.16641305618E+03  0.26856003481E+03  0.30000000000E+02 0. -1.
     200000    1    3    3    0    0 -0.77311430436E+03 -0.30316266875E+03 -0.85694642465E+03  0.11975689984E+04  0.10100000000E+03 0.  1.
    -200001    1    1    2    0    0  0.72202803547E+03  0.49467072746E+03  0.19538142660E+03  0.10862626360E+04  0.61300000000E+03 0. -1.
<mgrwt>
<rscale>  0 0.24272991E+04</rscale>
<asrwt>0</asrwt>
<pdfrwt beam="1">  1        2 0.24200041E+00 0.24272991E+04</pdfrwt>
<pdfrwt beam="2">  1       -2 0.12421510E+00 0.24272991E+04</pdfrwt>
<totfact> 0.50795990E+00</totfact>
</mgrwt>
</event>
<event>
 8    1  0.6972317E-052  0.1315174E+04  0.7818608E-02  0.9017618E-01
          2   -1    0    0  501    0  0.00000000000E+00  0.00000000000E+00  0.15318839190E+04  0.15318839190E+04  0.25500000000E-02 0.  1.
         -2   -1    0    0    0  501 -0.00000000000E+00 -0.00000000000E+00 -0.28228047448E+03  0.28228047450E+03  0.25500000000E-02 0. -1.
     200001    2    1    2    0    0  0.15488528540E+03 -0.88097527893E+02  0.40734377707E+03  0.75731957355E+03  0.61306880340E+03 0.  0.
    5000001    2    3    3    0    0  0.37187541255E+03 -0.64285844450E+02  0.18767034237E+03  0.43157561050E+03  0.92808178065E+02 0.  0.
        -11    1    4    4    0    0  0.80564763854E+02 -0.56115761052E+01  0.81122208415E+02  0.11446826486E+03  0.51100000000E-03 0. -1.
     200002    1    4    4    0    0  0.29131064870E+03 -0.58674268345E+02  0.10654813395E+03  0.31710734564E+03  0.30000000000E+02 0. -1.
     200000    1    3    3    0    0 -0.21699012715E+03 -0.23811683443E+02  0.21967343470E+03  0.32574396305E+03  0.10100000000E+03 0.  1.
    -200001    1    1    2    0    0 -0.15488528540E+03  0.88097527893E+02  0.84225966746E+03  0.10568448200E+04  0.61300000000E+03 0.  1.
<mgrwt>
<rscale>  0 0.13151744E+04</rscale>
<asrwt>0</asrwt>
<pdfrwt beam="1">  1        2 0.21884056E+00 0.13151744E+04</pdfrwt>
<pdfrwt beam="2">  1       -2 0.40325782E-01 0.13151744E+04</pdfrwt>
<totfact> 0.80128325E+01</totfact>
</mgrwt>
</event>
<event>
 8    1  0.6972317E-052  0.1976957E+04  0.7818608E-02  0.8617471E-01
          2   -1    0    0  501    0  0.00000000000E+00  0.00000000000E+00  0.12012323594E+04  0.12012323594E+04  0.25500000000E-02 0.  1.
         -2   -1    0    0    0  501 -0.00000000000E+00 -0.00000000000E+00 -0.81340575982E+03  0.81340575983E+03  0.25500000000E-02 0. -1.
     200001    2    1    2    0    0  0.69939165734E+03  0.30752039868E+03  0.32832384824E+03  0.10332986961E+04  0.61334505791E+03 0.  0.
    5000001    2    3    3    0    0  0.21212164656E+03  0.54434739650E+01 -0.15707929692E+03  0.27534108172E+03  0.78189394537E+02 0.  0.
        -11    1    4    4    0    0  0.13105548371E+03 -0.10167683979E+02 -0.60225860059E+02  0.14458933511E+03  0.51100000000E-03 0. -1.
     200002    1    4    4    0    0  0.81066162848E+02  0.15611157944E+02 -0.96853436857E+02  0.13075174661E+03  0.30000000000E+02 0. -1.
     200000    1    3    3    0    0  0.48727001079E+03  0.30207692472E+03  0.48540314515E+03  0.75795761437E+03  0.10100000000E+03 0. -1.
    -200001    1    1    2    0    0 -0.69939165734E+03 -0.30752039868E+03  0.59502751329E+02  0.98133942313E+03  0.61300000000E+03 0.  1.
<mgrwt>
<rscale>  0 0.19769566E+04</rscale>
<asrwt>0</asrwt>
<pdfrwt beam="1">  1        2 0.17160462E+00 0.19769566E+04</pdfrwt>
<pdfrwt beam="2">  1       -2 0.11620082E+00 0.19769566E+04</pdfrwt>
<totfact> 0.11462644E+01</totfact>
</mgrwt>
</event>
<event>
 8    1  0.6972317E-052  0.1614983E+04  0.7818608E-02  0.8811396E-01
         -2   -1    0    0    0  501 -0.00000000000E+00  0.00000000000E+00  0.61601326446E+03  0.61601326447E+03  0.25500000000E-02 0. -1.
          2   -1    0    0  501    0  0.00000000000E+00 -0.00000000000E+00 -0.10584878891E+04  0.10584878891E+04  0.25500000000E-02 0.  1.
     200001    2    1    2    0    0  0.17714429627E+03  0.18991328758E+03 -0.69585593497E+03  0.96216819282E+03  0.61164122698E+03 0.  0.
    5000001    2    3    3    0    0  0.32358096651E+03  0.23731968111E+03 -0.49914045268E+03  0.69274464984E+03  0.26406189702E+03 0.  0.
        -11    1    4    4    0    0  0.10287336347E+03 -0.26331691096E+01 -0.89791816156E+01  0.10329805513E+03  0.51100000000E-03 0. -1.
     200002    1    4    4    0    0  0.22070760304E+03  0.23995285022E+03 -0.49016127106E+03  0.58944659471E+03  0.30000000000E+02 0. -1.
     200000    1    3    3    0    0 -0.14643667024E+03 -0.47406393524E+02 -0.19671548229E+03  0.26942354298E+03  0.10100000000E+03 0.  1.
    -200001    1    1    2    0    0 -0.17714429627E+03 -0.18991328758E+03  0.25338131035E+03  0.71233296073E+03  0.61300000000E+03 0. -1.
<mgrwt>
<rscale>  0 0.16149831E+04</rscale>
<asrwt>0</asrwt>
<pdfrwt beam="1">  1        2 0.15121256E+00 0.16149831E+04</pdfrwt>
<pdfrwt beam="2">  1       -2 0.88001895E-01 0.16149831E+04</pdfrwt>
<totfact> 0.27644205E+01</totfact>
</mgrwt>
</event>
<event>
 8    1  0.6972317E-052  0.2308854E+04  0.7818608E-02  0.8474438E-01
          2   -1    0    0  501    0  0.00000000000E+00  0.00000000000E+00  0.11922558296E+04  0.11922558296E+04  0.25500000000E-02 0.  1.
         -2   -1    0    0    0  501 -0.00000000000E+00 -0.00000000000E+00 -0.11177988877E+04  0.11177988877E+04  0.25500000000E-02 0. -1.
     200001    2    1    2    0    0 -0.54171968435E+03  0.98115076716E+02  0.84603704912E+03  0.11812537399E+04  0.61359182266E+03 0.  0.
    5000001    2    3    3    0    0 -0.52858943341E+03  0.49819193345E+02  0.90652643125E+03  0.10533285227E+04  0.76302457713E+02 0.  0.
        -11    1    4    4    0    0 -0.27900614931E+03  0.42749918394E+02  0.42699234167E+03  0.51185393104E+03  0.51100000000E-03 0. -1.
     200002    1    4    4    0    0 -0.24958328410E+03  0.70692749516E+01  0.47953408959E+03  0.54147459167E+03  0.30000000000E+02 0. -1.
     200000    1    3    3    0    0 -0.13130250935E+02  0.48295883371E+02 -0.60489382134E+02  0.12792521718E+03  0.10100000000E+03 0. -1.
    -200001    1    1    2    0    0  0.54171968435E+03 -0.98115076716E+02 -0.77158010726E+03  0.11288009774E+04  0.61300000000E+03 0. -1.
<mgrwt>
<rscale>  0 0.23088545E+04</rscale>
<asrwt>0</asrwt>
<pdfrwt beam="1">  1        2 0.17032226E+00 0.23088545E+04</pdfrwt>
<pdfrwt beam="2">  1       -2 0.15968556E+00 0.23088545E+04</pdfrwt>
<totfact> 0.49787887E+00</totfact>
</mgrwt>
</event>
<event>
 8    1  0.6972317E-052  0.1270851E+04  0.7818608E-02  0.9053006E-01
          2   -1    0    0  501    0  0.00000000000E+00  0.00000000000E+00  0.24082645758E+04  0.24082645758E+04  0.25500000000E-02 0.  1.
         -2   -1    0    0    0  501 -0.00000000000E+00 -0.00000000000E+00 -0.16765826670E+03  0.16765826672E+03  0.25500000000E-02 0. -1.
     200001    2    1    2    0    0  0.53804888289E+02  0.66864005417E+02  0.14106972963E+04  0.15406046640E+04  0.61321293838E+03 0.  0.
    5000001    2    3    3    0    0  0.10569723938E+03  0.16300395438E+03  0.13579957187E+04  0.13827624574E+04  0.17360140028E+03 0.  0.
        -11    1    4    4    0    0 -0.36191385741E+02  0.68744706759E+02  0.61565599427E+03  0.62053843909E+03  0.51100000000E-03 0. -1.
     200002    1    4    4    0    0  0.14188862512E+03  0.94259247624E+02  0.74233972443E+03  0.76222401836E+03  0.30000000000E+02 0. -1.
     200000    1    3    3    0    0 -0.51892351094E+02 -0.96139948966E+02  0.52701577582E+02  0.15784220655E+03  0.10100000000E+03 0. -1.
    -200001    1    1    2    0    0 -0.53804888289E+02 -0.66864005417E+02  0.82990901286E+03  0.10353181786E+04  0.61300000000E+03 0. -1.
<mgrwt>
<rscale>  0 0.12708508E+04</rscale>
<asrwt>0</asrwt>
<pdfrwt beam="1">  1        2 0.34403778E+00 0.12708508E+04</pdfrwt>
<pdfrwt beam="2">  1       -2 0.23951182E-01 0.12708508E+04</pdfrwt>
<totfact> 0.75247276E+01</totfact>
</mgrwt>
</event>
<event>
 8    1  0.6972317E-052  0.1248137E+04  0.7818608E-02  0.9071735E-01
         -2   -1    0    0    0  501 -0.00000000000E+00  0.00000000000E+00  0.22468281133E+03  0.22468281135E+03  0.25500000000E-02 0. -1.
          2   -1    0    0  501    0  0.00000000000E+00 -0.00000000000E+00 -0.17333842852E+04  0.17333842852E+04  0.25500000000E-02 0.  1.
     200001    2    1    2    0    0 -0.63702422321E+02  0.71897219721E+02 -0.81013870811E+03  0.10237298199E+04  0.61844224384E+03 0.  0.
    5000001    2    3    3    0    0 -0.83401523042E+02 -0.19685767640E+03 -0.94636641176E+02  0.25252202913E+03  0.95407140947E+02 0.  0.
        -11    1    4    4    0    0  0.67886976196E+01  0.33472930283E+01 -0.15402791586E+02  0.17162073735E+02  0.51100000000E-03 0. -1.
     200002    1    4    4    0    0 -0.90190220662E+02 -0.20020496942E+03 -0.79233849590E+02  0.23535995540E+03  0.30000000000E+02 0. -1.
     200000    1    3    3    0    0  0.19699100721E+02  0.26875489612E+03 -0.71550206694E+03  0.77120779077E+03  0.10100000000E+03 0.  1.
    -200001    1    1    2    0    0  0.63702422321E+02 -0.71897219721E+02 -0.69856276572E+03  0.93433727661E+03  0.61300000000E+03 0.  1.
<mgrwt>
<rscale>  0 0.12481373E+04</rscale>
<asrwt>0</asrwt>
<pdfrwt beam="1">  1        2 0.24762632E+00 0.12481373E+04</pdfrwt>
<pdfrwt beam="2">  1       -2 0.32097545E-01 0.12481373E+04</pdfrwt>
<totfact> 0.97875389E+01</totfact>
</mgrwt>
</event>
<event>
 8    1  0.6972317E-052  0.1391180E+04  0.7818608E-02  0.8960227E-01
          2   -1    0    0  501    0  0.00000000000E+00  0.00000000000E+00  0.31569792175E+03  0.31569792176E+03  0.25500000000E-02 0.  1.
         -2   -1    0    0    0  501 -0.00000000000E+00 -0.00000000000E+00 -0.15326225796E+04  0.15326225796E+04  0.25500000000E-02 0. -1.
     200001    2    1    2    0    0  0.19808490030E+03  0.99910699287E+02 -0.28654839187E+03  0.71227966942E+03  0.61319863912E+03 0.  0.
    5000001    2    3    3    0    0  0.32640186707E+03 -0.13439282394E+03 -0.19515354376E+03  0.41241736231E+03  0.86043972153E+02 0.  0.
        -11    1    4    4    0    0  0.49003184590E+02  0.84201387859E+01 -0.22577555738E+02  0.54607296770E+02  0.51100000000E-03 0. -1.
     200002    1    4    4    0    0  0.27739868248E+03 -0.14281296272E+03 -0.17257598802E+03  0.35781006554E+03  0.30000000000E+02 0. -1.
     200000    1    3    3    0    0 -0.12831696678E+03  0.23430352323E+03 -0.91394848115E+02  0.29986230710E+03  0.10100000000E+03 0. -1.
    -200001    1    1    2    0    0 -0.19808490030E+03 -0.99910699287E+02 -0.93037626600E+03  0.11360408320E+04  0.61300000000E+03 0. -1.
<mgrwt>
<rscale>  0 0.13911805E+04</rscale>
<asrwt>0</asrwt>
<pdfrwt beam="1">  1        2 0.45099704E-01 0.13911805E+04</pdfrwt>
<pdfrwt beam="2">  1       -2 0.21894608E+00 0.13911805E+04</pdfrwt>
<totfact> 0.11028534E+01</totfact>
</mgrwt>
</event>
<event>
 8    1  0.6972317E-052  0.1494383E+04  0.7818608E-02  0.8888197E-01
         -2   -1    0    0    0  501 -0.00000000000E+00  0.00000000000E+00  0.25843111373E+03  0.25843111374E+03  0.25500000000E-02 0. -1.
          2   -1    0    0  501    0  0.00000000000E+00 -0.00000000000E+00 -0.21603253072E+04  0.21603253072E+04  0.25500000000E-02 0.  1.
     200001    2    1    2    0    0 -0.26352710179E+03  0.18093390195E+03 -0.14101728415E+04  0.15703800315E+04  0.61263560948E+03 0.  0.
    5000001    2    3    3    0    0 -0.26455140240E+03  0.28583916107E+03 -0.47962400690E+03  0.62850514795E+03  0.11527385866E+03 0.  0.
        -11    1    4    4    0    0 -0.16936912695E+03  0.11152075785E+03 -0.27592315593E+03  0.34242717266E+03  0.51100000000E-03 0. -1.
     200002    1    4    4    0    0 -0.95182275447E+02  0.17431840322E+03 -0.20370085098E+03  0.28607797529E+03  0.30000000000E+02 0. -1.
     200000    1    3    3    0    0  0.10243006058E+01 -0.10490525912E+03 -0.93054883461E+03  0.94187488351E+03  0.10100000000E+03 0.  1.
    -200001    1    1    2    0    0  0.26352710179E+03 -0.18093390195E+03 -0.49172135194E+03  0.84837638947E+03  0.61300000000E+03 0. -1.
<mgrwt>
<rscale>  0 0.14943832E+04</rscale>
<asrwt>0</asrwt>
<pdfrwt beam="1">  1        2 0.30861789E+00 0.14943832E+04</pdfrwt>
<pdfrwt beam="2">  1       -2 0.36918732E-01 0.14943832E+04</pdfrwt>
<totfact> 0.44383796E+01</totfact>
</mgrwt>
</event>
<event>
 8    1  0.6972317E-052  0.2134291E+04  0.7818608E-02  0.8546286E-01
         -2   -1    0    0    0  501 -0.00000000000E+00  0.00000000000E+00  0.35996691139E+03  0.35996691140E+03  0.25500000000E-02 0. -1.
          2   -1    0    0  501    0  0.00000000000E+00 -0.00000000000E+00 -0.31636240455E+04  0.31636240455E+04  0.25500000000E-02 0.  1.
     200001    2    1    2    0    0 -0.15572381026E+03 -0.41776828697E+03 -0.26419110995E+04  0.27485354580E+04  0.61316609455E+03 0.  0.
    5000001    2    3    3    0    0  0.50287670998E+02 -0.79813877486E+02 -0.30087866590E+03  0.37213318387E+03  0.19762598526E+03 0.  0.
        -11    1    4    4    0    0  0.20017585045E+01 -0.48916663239E+02  0.13805189927E+02  0.50866789251E+02  0.51100000000E-03 0. -1.
     200002    1    4    4    0    0  0.48285912493E+02 -0.30897214247E+02 -0.31468385583E+03  0.32126639462E+03  0.30000000000E+02 0. -1.
     200000    1    3    3    0    0 -0.20601148126E+03 -0.33795440949E+03 -0.23410324335E+04  0.23764022741E+04  0.10100000000E+03 0.  1.
    -200001    1    1    2    0    0  0.15572381026E+03  0.41776828697E+03 -0.16174603461E+03  0.77505549891E+03  0.61300000000E+03 0. -1.
<mgrwt>
<rscale>  0 0.21342914E+04</rscale>
<asrwt>0</asrwt>
<pdfrwt beam="1">  1        2 0.45194628E+00 0.21342914E+04</pdfrwt>
<pdfrwt beam="2">  1       -2 0.51423846E-01 0.21342914E+04</pdfrwt>
<totfact> 0.62826883E+00</totfact>
</mgrwt>
</event>
<event>
 8    1  0.6972317E-052  0.1880124E+04  0.7818608E-02  0.8664813E-01
          2   -1    0    0  501    0  0.00000000000E+00  0.00000000000E+00  0.11446087761E+04  0.11446087761E+04  0.25500000000E-02 0.  1.
         -2   -1    0    0    0  501 -0.00000000000E+00 -0.00000000000E+00 -0.77206898709E+03  0.77206898709E+03  0.25500000000E-02 0. -1.
     200001    2    1    2    0    0 -0.50273814840E+01  0.41238055823E+03 -0.40591902435E+03  0.84343495586E+03  0.61361980986E+03 0.  0.
    5000001    2    3    3    0    0  0.22187557258E+03  0.36376604098E+02 -0.29449053419E+03  0.37923539478E+03  0.80887470539E+02 0.  0.
        -11    1    4    4    0    0  0.15871911791E+03  0.10046645579E+02 -0.16128172125E+03  0.22650493833E+03  0.51100000000E-03 0. -1.
     200002    1    4    4    0    0  0.63156454673E+02  0.26329958519E+02 -0.13320881294E+03  0.15273045645E+03  0.30000000000E+02 0. -1.
     200000    1    3    3    0    0 -0.22690295406E+03  0.37600395413E+03 -0.11142849016E+03  0.46419956108E+03  0.10100000000E+03 0. -1.
    -200001    1    1    2    0    0  0.50273814840E+01 -0.41238055823E+03  0.77845881334E+03  0.10732428073E+04  0.61300000000E+03 0.  1.
<mgrwt>
<rscale>  0 0.18801244E+04</rscale>
<asrwt>0</asrwt>
<pdfrwt beam="1">  1        2 0.16351554E+00 0.18801244E+04</pdfrwt>
<pdfrwt beam="2">  1       -2 0.11029557E+00 0.18801244E+04</pdfrwt>
<totfact> 0.14135972E+01</totfact>
</mgrwt>
</event>
<event>
 8    1  0.6972317E-052  0.1263034E+04  0.7818608E-02  0.9059404E-01
         -2   -1    0    0    0  501 -0.00000000000E+00  0.00000000000E+00  0.10629682243E+03  0.10629682246E+03  0.25500000000E-02 0. -1.
          2   -1    0    0  501    0  0.00000000000E+00 -0.00000000000E+00 -0.37518893573E+04  0.37518893573E+04  0.25500000000E-02 0.  1.
     200001    2    1    2    0    0  0.27654755287E+02 -0.74553992280E+02 -0.14309695752E+04  0.15589152221E+04  0.61336747656E+03 0.  0.
    5000001    2    3    3    0    0  0.15995154663E+03 -0.28907737019E+03 -0.89227283863E+03  0.95565914492E+03  0.89349647398E+02 0.  0.
        -11    1    4    4    0    0  0.11248892257E+03 -0.12977068039E+03 -0.49590801637E+03  0.52480372321E+03  0.51100000000E-03 0. -1.
     200002    1    4    4    0    0  0.47462624065E+02 -0.15930668980E+03 -0.39636482226E+03  0.43085542171E+03  0.30000000000E+02 0. -1.
     200000    1    3    3    0    0 -0.13229679134E+03  0.21452337791E+03 -0.53869673656E+03  0.60325607717E+03  0.10100000000E+03 0. -1.
    -200001    1    1    2    0    0 -0.27654755287E+02  0.74553992280E+02 -0.22146229597E+04  0.22992709577E+04  0.61300000000E+03 0.  1.
<mgrwt>
<rscale>  0 0.12630343E+04</rscale>
<asrwt>0</asrwt>
<pdfrwt beam="1">  1        2 0.53598411E+00 0.12630343E+04</pdfrwt>
<pdfrwt beam="2">  1       -2 0.15185263E-01 0.12630343E+04</pdfrwt>
<totfact> 0.28870663E+01</totfact>
</mgrwt>
</event>
<event>
 8    1  0.6972317E-052  0.1280270E+04  0.7818608E-02  0.9045359E-01
         -2   -1    0    0    0  501 -0.00000000000E+00  0.00000000000E+00  0.69137521383E+03  0.69137521384E+03  0.25500000000E-02 0. -1.
          2   -1    0    0  501    0  0.00000000000E+00 -0.00000000000E+00 -0.59269276427E+03  0.59269276428E+03  0.25500000000E-02 0.  1.
     200001    2    1    2    0    0  0.14821115903E+03 -0.25079843010E+02 -0.58380669144E+02  0.63365782333E+03  0.61279555184E+03 0.  0.
    5000001    2    3    3    0    0 -0.15688041960E+03  0.15776570628E+03 -0.41293029165E+02  0.26351413003E+03  0.13502999052E+03 0.  0.
        -11    1    4    4    0    0 -0.41371403627E+02  0.13090153159E+03 -0.31103158540E+02  0.14076295849E+03  0.51100000000E-03 0. -1.
     200002    1    4    4    0    0 -0.11550901597E+03  0.26864174688E+02 -0.10189870626E+02  0.12275117155E+03  0.30000000000E+02 0. -1.
     200000    1    3    3    0    0  0.30509157863E+03 -0.18284554929E+03 -0.17087639978E+02  0.37014369330E+03  0.10100000000E+03 0.  1.
    -200001    1    1    2    0    0 -0.14821115903E+03  0.25079843010E+02  0.15706311870E+03  0.65041015478E+03  0.61300000000E+03 0. -1.
<mgrwt>
<rscale>  0 0.12802704E+04</rscale>
<asrwt>0</asrwt>
<pdfrwt beam="1">  1        2 0.84670395E-01 0.12802704E+04</pdfrwt>
<pdfrwt beam="2">  1       -2 0.98767888E-01 0.12802704E+04</pdfrwt>
<totfact> 0.46033942E+01</totfact>
</mgrwt>
</event>
<event>
 8    1  0.6972317E-052  0.1695101E+04  0.7818608E-02  0.8764163E-01
         -2   -1    0    0    0  501 -0.00000000000E+00  0.00000000000E+00  0.27256315172E+03  0.27256315173E+03  0.25500000000E-02 0. -1.
          2   -1    0    0  501    0  0.00000000000E+00 -0.00000000000E+00 -0.26355072233E+04  0.26355072233E+04  0.25500000000E-02 0.  1.
     200001    2    1    2    0    0 -0.58285532452E+03 -0.51591988046E+02 -0.11801715963E+04  0.14530439867E+04  0.61331049878E+03 0.  0.
    5000001    2    3    3    0    0 -0.11578820272E+03  0.12094816279E+03 -0.23247744070E+02  0.18947934654E+03  0.85595555886E+02 0.  0.
        -11    1    4    4    0    0 -0.48752556888E+02  0.95742295586E+02 -0.29968919313E+02  0.11154162941E+03  0.51100000000E-03 0. -1.
     200002    1    4    4    0    0 -0.67035645832E+02  0.25205867209E+02  0.67211752428E+01  0.77937717124E+02  0.30000000000E+02 0. -1.
     200000    1    3    3    0    0 -0.46706712180E+03 -0.17254015084E+03 -0.11569238522E+04  0.12635646401E+04  0.10100000000E+03 0. -1.
    -200001    1    1    2    0    0  0.58285532452E+03  0.51591988046E+02 -0.11827724753E+04  0.14550263884E+04  0.61300000000E+03 0.  1.
<mgrwt>
<rscale>  0 0.16951014E+04</rscale>
<asrwt>0</asrwt>
<pdfrwt beam="1">  1        2 0.37650102E+00 0.16951014E+04</pdfrwt>
<pdfrwt beam="2">  1       -2 0.38937595E-01 0.16951014E+04</pdfrwt>
<totfact> 0.22237314E+01</totfact>
</mgrwt>
</event>
<event>
 8    1  0.6972317E-052  0.1860521E+04  0.7818608E-02  0.8674761E-01
          2   -1    0    0  501    0  0.00000000000E+00  0.00000000000E+00  0.13262801288E+04  0.13262801288E+04  0.25500000000E-02 0.  1.
         -2   -1    0    0    0  501 -0.00000000000E+00 -0.00000000000E+00 -0.65249011013E+03  0.65249011013E+03  0.25500000000E-02 0. -1.
     200001    2    1    2    0    0 -0.67722837708E+02  0.49166111519E+03  0.86139575457E+03  0.11680409703E+04  0.61318841092E+03 0.  0.
    5000001    2    3    3    0    0 -0.69261451697E+02  0.87140337878E+02 -0.67513834459E+02  0.14984970572E+03  0.74203970804E+02 0.  0.
        -11    1    4    4    0    0 -0.27453764756E+00  0.30779283958E+02  0.49318186283E+01  0.31173105830E+02  0.51100000000E-03 0. -1.
     200002    1    4    4    0    0 -0.68986914049E+02  0.56361053920E+02 -0.72445653088E+02  0.11867659989E+03  0.30000000000E+02 0. -1.
     200000    1    3    3    0    0  0.15386139894E+01  0.40452077732E+03  0.92890958903E+03  0.10181912646E+04  0.10100000000E+03 0.  1.
    -200001    1    1    2    0    0  0.67722837708E+02 -0.49166111519E+03 -0.18760573589E+03  0.81072926867E+03  0.61300000000E+03 0.  1.
<mgrwt>
<rscale>  0 0.18605211E+04</rscale>
<asrwt>0</asrwt>
<pdfrwt beam="1">  1        2 0.18946859E+00 0.18605211E+04</pdfrwt>
<pdfrwt beam="2">  1       -2 0.93212874E-01 0.18605211E+04</pdfrwt>
<totfact> 0.16676708E+01</totfact>
</mgrwt>
</event>
<event>
 8    1  0.6972317E-052  0.1690655E+04  0.7818608E-02  0.8766712E-01
          2   -1    0    0  501    0  0.00000000000E+00  0.00000000000E+00  0.14760962362E+04  0.14760962362E+04  0.25500000000E-02 0.  1.
         -2   -1    0    0    0  501 -0.00000000000E+00 -0.00000000000E+00 -0.48410037474E+03  0.48410037474E+03  0.25500000000E-02 0. -1.
     200001    2    1    2    0    0 -0.42945812360E+03  0.30839655951E+03  0.21337677229E+03  0.83700499600E+03  0.61278462654E+03 0.  0.
    5000001    2    3    3    0    0 -0.40587441185E+03  0.45413023179E+03  0.91923342398E+02  0.62079576787E+03  0.77260461485E+02 0.  0.
        -11    1    4    4    0    0 -0.12121796998E+00  0.45255281910E+01 -0.49856478961E+01  0.67343733493E+01  0.51100000000E-03 0. -1.
     200002    1    4    4    0    0 -0.40575319388E+03  0.44960470360E+03  0.96908990294E+02  0.61406139452E+03  0.30000000000E+02 0. -1.
     200000    1    3    3    0    0 -0.23583711749E+02 -0.14573367227E+03  0.12145342989E+03  0.21620922813E+03  0.10100000000E+03 0.  1.
    -200001    1    1    2    0    0  0.42945812360E+03 -0.30839655951E+03  0.77861908914E+03  0.11231916149E+04  0.61300000000E+03 0.  1.
<mgrwt>
<rscale>  0 0.16906552E+04</rscale>
<asrwt>0</asrwt>
<pdfrwt beam="1">  1        2 0.21087089E+00 0.16906552E+04</pdfrwt>
<pdfrwt beam="2">  1       -2 0.69157197E-01 0.16906552E+04</pdfrwt>
<totfact> 0.27431913E+01</totfact>
</mgrwt>
</event>
<event>
 8    1  0.6972317E-052  0.1556709E+04  0.7818608E-02  0.8847594E-01
          2   -1    0    0  501    0  0.00000000000E+00  0.00000000000E+00  0.61447960677E+03  0.61447960677E+03  0.25500000000E-02 0.  1.
         -2   -1    0    0    0  501 -0.00000000000E+00 -0.00000000000E+00 -0.98593274718E+03  0.98593274718E+03  0.25500000000E-02 0. -1.
     200001    2    1    2    0    0 -0.19214273827E+03  0.37669363790E+03 -0.41960489286E+03  0.85415199726E+03  0.61211962851E+03 0.  0.
    5000001    2    3    3    0    0  0.24065317391E+02  0.35198332942E+03  0.10832997777E+00  0.37070943386E+03  0.11381594321E+03 0.  0.
        -11    1    4    4    0    0  0.33854801347E+02  0.33095562558E+03  0.27822914391E+01  0.33269432641E+03  0.51100000000E-03 0. -1.
     200002    1    4    4    0    0 -0.97894839565E+01  0.21027703834E+02 -0.26739614613E+01  0.38015107452E+02  0.30000000000E+02 0.  1.
     200000    1    3    3    0    0 -0.21620805566E+03  0.24710308484E+02 -0.41971322284E+03  0.48344256340E+03  0.10100000000E+03 0.  1.
    -200001    1    1    2    0    0  0.19214273827E+03 -0.37669363790E+03  0.48151752448E+02  0.74626035669E+03  0.61300000000E+03 0. -1.
<mgrwt>
<rscale>  0 0.15567088E+04</rscale>
<asrwt>0</asrwt>
<pdfrwt beam="1">  1        2 0.87782801E-01 0.15567088E+04</pdfrwt>
<pdfrwt beam="2">  1       -2 0.14084754E+00 0.15567088E+04</pdfrwt>
<totfact> 0.17970509E+01</totfact>
</mgrwt>
</event>
<event>
 8    1  0.6972317E-052  0.1595482E+04  0.7818608E-02  0.8823329E-01
         -2   -1    0    0    0  501 -0.00000000000E+00  0.00000000000E+00  0.41397210186E+03  0.41397210187E+03  0.25500000000E-02 0. -1.
          2   -1    0    0  501    0  0.00000000000E+00 -0.00000000000E+00 -0.15372785004E+04  0.15372785004E+04  0.25500000000E-02 0.  1.
     200001    2    1    2    0    0 -0.12311961307E+02 -0.24399622414E+03 -0.11083655670E+04  0.12911915365E+04  0.61564243850E+03 0.  0.
    5000001    2    3    3    0    0 -0.25146023800E+03 -0.16347217969E+03 -0.88484659785E+03  0.93928565486E+03  0.96688338865E+02 0.  0.
        -11    1    4    4    0    0 -0.20390592663E+03 -0.15101254432E+03 -0.77138305988E+03  0.81204325040E+03  0.51100000000E-03 0. -1.
     200002    1    4    4    0    0 -0.47554311368E+02 -0.12459635379E+02 -0.11346353797E+03  0.12724240446E+03  0.30000000000E+02 0. -1.
     200000    1    3    3    0    0  0.23914827669E+03 -0.80524044447E+02 -0.22351896917E+03  0.35190588167E+03  0.10100000000E+03 0. -1.
    -200001    1    1    2    0    0  0.12311961307E+02  0.24399622414E+03 -0.14940831504E+02  0.66005906572E+03  0.61300000000E+03 0. -1.
<mgrwt>
<rscale>  0 0.15954816E+04</rscale>
<asrwt>0</asrwt>
<pdfrwt beam="1">  1        2 0.21961121E+00 0.15954816E+04</pdfrwt>
<pdfrwt beam="2">  1       -2 0.59138873E-01 0.15954816E+04</pdfrwt>
<totfact> 0.35842792E+01</totfact>
</mgrwt>
</event>
<event>
 8    1  0.6972317E-052  0.1380009E+04  0.7818608E-02  0.8968417E-01
          2   -1    0    0  501    0  0.00000000000E+00  0.00000000000E+00  0.43346090589E+04  0.43346090589E+04  0.25500000000E-02 0.  1.
         -2   -1    0    0    0  501 -0.00000000000E+00 -0.00000000000E+00 -0.10983834439E+03  0.10983834442E+03  0.25500000000E-02 0. -1.
     200001    2    1    2    0    0 -0.11525918586E+03  0.25212755708E+03  0.16203637037E+04  0.17545481742E+04  0.61319473111E+03 0.  0.
    5000001    2    3    3    0    0  0.13909754819E+03  0.33725731490E+03  0.10275755849E+04  0.10961082167E+04  0.11158411914E+03 0.  0.
        -11    1    4    4    0    0  0.62645053428E+02  0.20061924635E+03  0.44536259983E+03  0.49246353170E+03  0.51100000000E-03 0. -1.
     200002    1    4    4    0    0  0.76452494766E+02  0.13663806855E+03  0.58221298510E+03  0.60364468502E+03  0.30000000000E+02 0. -1.
     200000    1    3    3    0    0 -0.25435673405E+03 -0.85129757813E+02  0.59278811879E+03  0.65843995747E+03  0.10100000000E+03 0.  1.
    -200001    1    1    2    0    0  0.11525918586E+03 -0.25212755708E+03  0.26044070108E+04  0.26898992291E+04  0.61300000000E+03 0. -1.
<mgrwt>
<rscale>  0 0.13800091E+04</rscale>
<asrwt>0</asrwt>
<pdfrwt beam="1">  1        2 0.61922983E+00 0.13800091E+04</pdfrwt>
<pdfrwt beam="2">  1       -2 0.15691193E-01 0.13800091E+04</pdfrwt>
<totfact> 0.10683293E+01</totfact>
</mgrwt>
</event>
<event>
 8    1  0.6972317E-052  0.1637804E+04  0.7818608E-02  0.8797654E-01
         -2   -1    0    0    0  501 -0.00000000000E+00  0.00000000000E+00  0.29954710918E+03  0.29954710919E+03  0.25500000000E-02 0. -1.
          2   -1    0    0  501    0  0.00000000000E+00 -0.00000000000E+00 -0.22387148605E+04  0.22387148605E+04  0.25500000000E-02 0.  1.
     200001    2    1    2    0    0 -0.41374429016E+03 -0.18827541053E+03 -0.51070705026E+03  0.91872470791E+03  0.61367860472E+03 0.  0.
    5000001    2    3    3    0    0 -0.29242166029E+03  0.18453321524E+03 -0.27333225480E+03  0.44941324897E+03  0.87742873827E+02 0.  0.
        -11    1    4    4    0    0 -0.63585387441E+02  0.41843415813E+02 -0.10643405291E+03  0.13085175032E+03  0.51100000000E-03 0. -1.
     200002    1    4    4    0    0 -0.22883627284E+03  0.14268979943E+03 -0.16689820189E+03  0.31856149865E+03  0.30000000000E+02 0. -1.
     200000    1    3    3    0    0 -0.12132262987E+03 -0.37280862577E+03 -0.23737479547E+03  0.46931145894E+03  0.10100000000E+03 0. -1.
    -200001    1    1    2    0    0  0.41374429016E+03  0.18827541053E+03 -0.14284607010E+04  0.16195372618E+04  0.61300000000E+03 0.  1.
<mgrwt>
<rscale>  0 0.16378041E+04</rscale>
<asrwt>0</asrwt>
<pdfrwt beam="1">  1        2 0.31981640E+00 0.16378041E+04</pdfrwt>
<pdfrwt beam="2">  1       -2 0.42792445E-01 0.16378041E+04</pdfrwt>
<totfact> 0.29962860E+01</totfact>
</mgrwt>
</event>
<event>
 8    1  0.6972317E-052  0.1769734E+04  0.7818608E-02  0.8722562E-01
          2   -1    0    0  501    0  0.00000000000E+00  0.00000000000E+00  0.57332218701E+03  0.57332218702E+03  0.25500000000E-02 0.  1.
         -2   -1    0    0    0  501 -0.00000000000E+00 -0.00000000000E+00 -0.13657054028E+04  0.13657054028E+04  0.25500000000E-02 0. -1.
     200001    2    1    2    0    0 -0.40913388609E+03  0.46841306426E+02  0.13304662585E+03  0.75506220326E+03  0.61873490398E+03 0.  0.
    5000001    2    3    3    0    0 -0.92516283735E+02 -0.21844123491E+03 -0.71737412896E+01  0.30730748891E+03  0.19521934923E+03 0.  0.
        -11    1    4    4    0    0  0.42025489985E+02 -0.60374250280E+02 -0.55418681772E+02  0.92100066205E+02  0.51100000000E-03 0. -1.
     200002    1    4    4    0    0 -0.13454177372E+03 -0.15806698463E+03  0.48244940482E+02  0.21520742271E+03  0.30000000000E+02 0. -1.
     200000    1    3    3    0    0 -0.31661760236E+03  0.26528254133E+03  0.14022036714E+03  0.44775471435E+03  0.10100000000E+03 0.  1.
    -200001    1    1    2    0    0  0.40913388609E+03 -0.46841306426E+02 -0.92542984159E+03  0.11839653865E+04  0.61300000000E+03 0. -1.
<mgrwt>
<rscale>  0 0.17697335E+04</rscale>
<asrwt>0</asrwt>
<pdfrwt beam="1">  1        2 0.81903170E-01 0.17697335E+04</pdfrwt>
<pdfrwt beam="2">  1       -2 0.19510077E+00 0.17697335E+04</pdfrwt>
<totfact> 0.77807587E+00</totfact>
</mgrwt>
</event>
<event>
 8    1  0.6972317E-052  0.1869278E+04  0.7818608E-02  0.8670302E-01
         -2   -1    0    0    0  501 -0.00000000000E+00  0.00000000000E+00  0.20258168667E+03  0.20258168669E+03  0.25500000000E-02 0. -1.
          2   -1    0    0  501    0  0.00000000000E+00 -0.00000000000E+00 -0.43120862866E+04  0.43120862866E+04  0.25500000000E-02 0.  1.
     200001    2    1    2    0    0 -0.18318064693E+03  0.46936321020E+03 -0.32463370340E+04  0.33421986904E+04  0.61459822244E+03 0.  0.
    5000001    2    3    3    0    0  0.19082239661E+03  0.64448183870E+02 -0.65947929437E+03  0.69533858446E+03  0.89532406868E+02 0.  0.
        -11    1    4    4    0    0  0.15558913299E+03  0.68740076290E+02 -0.56497579714E+03  0.59002612463E+03  0.51100000000E-03 0. -1.
     200002    1    4    4    0    0  0.35233263621E+02 -0.42918924199E+01 -0.94503497231E+02  0.10531245983E+03  0.30000000000E+02 0.  1.
     200000    1    3    3    0    0 -0.37400304354E+03  0.40491502633E+03 -0.25868577397E+04  0.26468601059E+04  0.10100000000E+03 0.  1.
    -200001    1    1    2    0    0  0.18318064693E+03 -0.46936321020E+03 -0.86316756585E+03  0.11724692829E+04  0.61300000000E+03 0. -1.
<mgrwt>
<rscale>  0 0.18692776E+04</rscale>
<asrwt>0</asrwt>
<pdfrwt beam="1">  1        2 0.61601227E+00 0.18692776E+04</pdfrwt>
<pdfrwt beam="2">  1       -2 0.28940244E-01 0.18692776E+04</pdfrwt>
<totfact> 0.35488975E+00</totfact>
</mgrwt>
</event>
<event>
 8    1  0.6972317E-052  0.1383923E+04  0.7818608E-02  0.8965539E-01
         -2   -1    0    0    0  501 -0.00000000000E+00  0.00000000000E+00  0.89783479017E+03  0.89783479018E+03  0.25500000000E-02 0. -1.
          2   -1    0    0  501    0  0.00000000000E+00 -0.00000000000E+00 -0.53329461051E+03  0.53329461052E+03  0.25500000000E-02 0.  1.
     200001    2    1    2    0    0 -0.18740651562E+03 -0.25091747121E+03  0.24985647811E+03  0.73327402108E+03  0.61415124431E+03 0.  0.
    5000001    2    3    3    0    0 -0.88908293617E+02  0.99687305200E+02  0.31620590643E+03  0.34956989598E+03  0.66111220096E+02 0.  0.
        -11    1    4    4    0    0 -0.38268814737E+02  0.68683501891E+01  0.91815842256E+02  0.99708702253E+02  0.51100000000E-03 0. -1.
     200002    1    4    4    0    0 -0.50639478880E+02  0.92818955011E+02  0.22439006418E+03  0.24986119373E+03  0.30000000000E+02 0. -1.
     200000    1    3    3    0    0 -0.98498222005E+02 -0.35060477641E+03 -0.66349428326E+02  0.38370412510E+03  0.10100000000E+03 0.  1.
    -200001    1    1    2    0    0  0.18740651562E+03  0.25091747121E+03  0.11468370156E+03  0.69785537962E+03  0.61300000000E+03 0. -1.
<mgrwt>
<rscale>  0 0.13839226E+04</rscale>
<asrwt>0</asrwt>
<pdfrwt beam="1">  1        2 0.76184945E-01 0.13839226E+04</pdfrwt>
<pdfrwt beam="2">  1       -2 0.12826211E+00 0.13839226E+04</pdfrwt>
<totfact> 0.27322469E+01</totfact>
</mgrwt>
</event>
<event>
 8    1  0.6972317E-052  0.2266141E+04  0.7818608E-02  0.8491392E-01
          2   -1    0    0  501    0  0.00000000000E+00  0.00000000000E+00  0.10998872514E+04  0.10998872514E+04  0.25500000000E-02 0.  1.
         -2   -1    0    0    0  501 -0.00000000000E+00 -0.00000000000E+00 -0.11672547171E+04  0.11672547171E+04  0.25500000000E-02 0. -1.
     200001    2    1    2    0    0 -0.61883766663E+03 -0.18615435929E+03  0.66635438155E+03  0.11131357933E+04  0.61435301694E+03 0.  0.
    5000001    2    3    3    0    0 -0.32736481383E+03 -0.11196600918E+03  0.70962363853E+03  0.79292716787E+03  0.73916687203E+02 0.  0.
        -11    1    4    4    0    0 -0.25972840465E+03 -0.96592791826E+02  0.58209907519E+03  0.64469244214E+03  0.51100000000E-03 0. -1.
     200002    1    4    4    0    0 -0.67636409180E+02 -0.15373217355E+02  0.12752456334E+03  0.14823472573E+03  0.30000000000E+02 0.  1.
     200000    1    3    3    0    0 -0.29147285279E+03 -0.74188350104E+02 -0.43269256973E+02  0.32020862544E+03  0.10100000000E+03 0. -1.
    -200001    1    1    2    0    0  0.61883766663E+03  0.18615435929E+03 -0.73372184727E+03  0.11540061751E+04  0.61300000000E+03 0. -1.
<mgrwt>
<rscale>  0 0.22661408E+04</rscale>
<asrwt>0</asrwt>
<pdfrwt beam="1">  1        2 0.15712675E+00 0.22661408E+04</pdfrwt>
<pdfrwt beam="2">  1       -2 0.16675067E+00 0.22661408E+04</pdfrwt>
<totfact> 0.50193142E+00</totfact>
</mgrwt>
</event>
<event>
 8    1  0.6972317E-052  0.1585299E+04  0.7818608E-02  0.8829630E-01
         -2   -1    0    0    0  501 -0.00000000000E+00  0.00000000000E+00  0.20815078385E+03  0.20815078387E+03  0.25500000000E-02 0. -1.
          2   -1    0    0  501    0  0.00000000000E+00 -0.00000000000E+00 -0.30184531689E+04  0.30184531689E+04  0.25500000000E-02 0.  1.
     200001    2    1    2    0    0  0.41121849908E+03 -0.28031996733E+03 -0.15505704246E+04  0.17398714448E+04  0.61253903116E+03 0.  0.
    5000001    2    3    3    0    0 -0.14475672503E+03 -0.11611658144E+03 -0.37500187815E+03  0.42524845353E+03  0.75975447929E+02 0.  0.
        -11    1    4    4    0    0 -0.84933238202E+02 -0.85479006108E+02 -0.17805705925E+03  0.21499914368E+03  0.51100000000E-03 0. -1.
     200002    1    4    4    0    0 -0.59823486826E+02 -0.30637575329E+02 -0.19694481891E+03  0.21024930985E+03  0.30000000000E+02 0. -1.
     200000    1    3    3    0    0  0.55597522411E+03 -0.16420338590E+03 -0.11755685465E+04  0.13146229913E+04  0.10100000000E+03 0.  1.
    -200001    1    1    2    0    0 -0.41121849908E+03  0.28031996733E+03 -0.12597319604E+04  0.14867325079E+04  0.61300000000E+03 0. -1.
<mgrwt>
<rscale>  0 0.15852992E+04</rscale>
<asrwt>0</asrwt>
<pdfrwt beam="1">  1        2 0.43120757E+00 0.15852992E+04</pdfrwt>
<pdfrwt beam="2">  1       -2 0.29735828E-01 0.15852992E+04</pdfrwt>
<totfact> 0.23185824E+01</totfact>
</mgrwt>
</event>
<event>
 8    1  0.6972317E-052  0.1317921E+04  0.7818608E-02  0.9015473E-01
         -2   -1    0    0    0  501 -0.00000000000E+00  0.00000000000E+00  0.65515051557E+03  0.65515051557E+03  0.25500000000E-02 0. -1.
          2   -1    0    0  501    0  0.00000000000E+00 -0.00000000000E+00 -0.66279280837E+03  0.66279280837E+03  0.25500000000E-02 0.  1.
     200001    2    1    2    0    0 -0.94176294371E+02  0.13835591683E+03  0.14898143392E+03  0.66348818727E+03  0.62450746421E+03 0.  0.
    5000001    2    3    3    0    0 -0.28068164283E+03  0.56218672214E+02 -0.11295035598E+03  0.31658757540E+03  0.74345048595E+02 0.  0.
        -11    1    4    4    0    0 -0.20960630157E+02 -0.13572706068E+02 -0.12666963921E+02  0.28000327531E+02  0.51100000000E-03 0. -1.
     200002    1    4    4    0    0 -0.25972101268E+03  0.69791378282E+02 -0.10028339206E+03  0.28858724787E+03  0.30000000000E+02 0. -1.
     200000    1    3    3    0    0  0.18650534846E+03  0.82137244615E+02  0.26193178990E+03  0.34690061188E+03  0.10100000000E+03 0. -1.
    -200001    1    1    2    0    0  0.94176294371E+02 -0.13835591683E+03 -0.15662372672E+03  0.65445513667E+03  0.61300000000E+03 0.  1.
<mgrwt>
<rscale>  0 0.13179212E+04</rscale>
<asrwt>0</asrwt>
<pdfrwt beam="1">  1        2 0.94684687E-01 0.13179212E+04</pdfrwt>
<pdfrwt beam="2">  1       -2 0.93592930E-01 0.13179212E+04</pdfrwt>
<totfact> 0.45549881E+01</totfact>
</mgrwt>
</event>
<event>
 8    1  0.6972317E-052  0.1574699E+04  0.7818608E-02  0.8836244E-01
         -2   -1    0    0    0  501 -0.00000000000E+00  0.00000000000E+00  0.13949185199E+04  0.13949185199E+04  0.25500000000E-02 0. -1.
          2   -1    0    0  501    0  0.00000000000E+00 -0.00000000000E+00 -0.44441267309E+03  0.44441267310E+03  0.25500000000E-02 0.  1.
     200001    2    1    2    0    0  0.30407581354E+03  0.93312087956E+02  0.91649436472E+03  0.11478870325E+04  0.61360693667E+03 0.  0.
    5000001    2    3    3    0    0  0.18042079678E+03  0.21182108711E+03  0.28697574534E+03  0.48771308711E+03  0.27944434164E+03 0.  0.
        -11    1    4    4    0    0  0.84919941559E+02 -0.38420020493E+02 -0.11025356042E+01  0.93213250314E+02  0.51100000000E-03 0. -1.
     200002    1    4    4    0    0  0.95500855219E+02  0.25024110761E+03  0.28807828094E+03  0.39449983680E+03  0.30000000000E+02 0. -1.
     200000    1    3    3    0    0  0.12365501677E+03 -0.11850899916E+03  0.62951861938E+03  0.66017394541E+03  0.10100000000E+03 0. -1.
    -200001    1    1    2    0    0 -0.30407581354E+03 -0.93312087956E+02  0.34011482095E+02  0.69144416048E+03  0.61300000000E+03 0.  1.
<mgrwt>
<rscale>  0 0.15746993E+04</rscale>
<asrwt>0</asrwt>
<pdfrwt beam="1">  1        2 0.63487524E-01 0.15746993E+04</pdfrwt>
<pdfrwt beam="2">  1       -2 0.19927408E+00 0.15746993E+04</pdfrwt>
<totfact> 0.99348979E+00</totfact>
</mgrwt>
</event>
<event>
 8    1  0.6972317E-052  0.2503872E+04  0.7818608E-02  0.8401608E-01
          2   -1    0    0  501    0  0.00000000000E+00  0.00000000000E+00  0.15174869928E+04  0.15174869928E+04  0.25500000000E-02 0.  1.
         -2   -1    0    0    0  501 -0.00000000000E+00 -0.00000000000E+00 -0.10328545990E+04  0.10328545990E+04  0.25500000000E-02 0. -1.
     200001    2    1    2    0    0  0.16784445208E+03 -0.45799130079E+03 -0.75240674378E+03  0.10861139389E+04  0.61286196524E+03 0.  0.
    5000001    2    3    3    0    0  0.23510523653E+03  0.43043524507E+02 -0.34977494320E+03  0.43199370824E+03  0.84550788405E+02 0.  0.
        -11    1    4    4    0    0  0.45166963388E+02 -0.21865612756E+02 -0.60067681413E+02  0.78270594437E+02  0.51100000000E-03 0. -1.
     200002    1    4    4    0    0  0.18993827314E+03  0.64909137263E+02 -0.28970726179E+03  0.35372311381E+03  0.30000000000E+02 0. -1.
     200000    1    3    3    0    0 -0.67260784450E+02 -0.50103482530E+03 -0.40263180058E+03  0.65412023063E+03  0.10100000000E+03 0. -1.
    -200001    1    1    2    0    0 -0.16784445208E+03  0.45799130079E+03  0.12370391376E+04  0.14642276529E+04  0.61300000000E+03 0.  1.
<mgrwt>
<rscale>  0 0.25038717E+04</rscale>
<asrwt>0</asrwt>
<pdfrwt beam="1">  1        2 0.21678386E+00 0.25038717E+04</pdfrwt>
<pdfrwt beam="2">  1       -2 0.14755066E+00 0.25038717E+04</pdfrwt>
<totfact> 0.40174093E+00</totfact>
</mgrwt>
</event>
<event>
 8    1  0.6972317E-052  0.1600397E+04  0.7818608E-02  0.8820304E-01
         -2   -1    0    0    0  501 -0.00000000000E+00  0.00000000000E+00  0.44275574305E+03  0.44275574305E+03  0.25500000000E-02 0.  1.
          2   -1    0    0  501    0  0.00000000000E+00 -0.00000000000E+00 -0.14462099066E+04  0.14462099066E+04  0.25500000000E-02 0. -1.
     200001    2    1    2    0    0 -0.40645537379E+03  0.28434030891E+03 -0.34699392428E+03  0.86292255703E+03  0.61495948955E+03 0.  0.
    5000001    2    3    3    0    0 -0.28563426284E+02  0.28894123801E+03  0.44267096103E+02  0.30965076251E+03  0.98087260053E+02 0.  0.
        -11    1    4    4    0    0  0.21877042714E+02  0.29546792914E+02 -0.10257378602E+02  0.38168465852E+02  0.51100000000E-03 0. -1.
     200002    1    4    4    0    0 -0.50440468998E+02  0.25939444509E+03  0.54524474705E+02  0.27148229666E+03  0.30000000000E+02 0. -1.
     200000    1    3    3    0    0 -0.37789194751E+03 -0.46009291015E+01 -0.39126102038E+03  0.55327179452E+03  0.10100000000E+03 0. -1.
    -200001    1    1    2    0    0  0.40645537379E+03 -0.28434030891E+03 -0.65646023925E+03  0.10260430926E+04  0.61300000000E+03 0. -1.
<mgrwt>
<rscale>  0 0.16003971E+04</rscale>
<asrwt>0</asrwt>
<pdfrwt beam="1">  1        2 0.20660141E+00 0.16003971E+04</pdfrwt>
<pdfrwt beam="2">  1       -2 0.63250821E-01 0.16003971E+04</pdfrwt>
<totfact> 0.34743539E+01</totfact>
</mgrwt>
</event>
<event>
 8    1  0.6972317E-052  0.1456293E+04  0.7818608E-02  0.8914049E-01
          2   -1    0    0  501    0  0.00000000000E+00  0.00000000000E+00  0.27492702930E+03  0.27492702931E+03  0.25500000000E-02 0.  1.
         -2   -1    0    0    0  501 -0.00000000000E+00 -0.00000000000E+00 -0.19285020474E+04  0.19285020474E+04  0.25500000000E-02 0. -1.
     200001    2    1    2    0    0  0.26135762171E+03  0.25378968312E+03 -0.10505339190E+04  0.12695422651E+04  0.61269816243E+03 0.  0.
    5000001    2    3    3    0    0  0.29920101052E+03  0.39074258866E+03 -0.55932574033E+03  0.74831803773E+03  0.70239493889E+02 0.  0.
        -11    1    4    4    0    0  0.24768586336E+03  0.31718003163E+03 -0.45098270979E+03  0.60443102494E+03  0.51100000000E-03 0. -1.
     200002    1    4    4    0    0  0.51515147167E+02  0.73562557026E+02 -0.10834303054E+03  0.14388701279E+03  0.30000000000E+02 0. -1.
     200000    1    3    3    0    0 -0.37843388817E+02 -0.13695290554E+03 -0.49120817871E+03  0.52122422742E+03  0.10100000000E+03 0. -1.
    -200001    1    1    2    0    0 -0.26135762171E+03 -0.25378968312E+03 -0.60304109908E+03  0.93388681159E+03  0.61300000000E+03 0.  1.
<mgrwt>
<rscale>  0 0.14562930E+04</rscale>
<asrwt>0</asrwt>
<pdfrwt beam="1">  1        2 0.39275291E-01 0.14562930E+04</pdfrwt>
<pdfrwt beam="2">  1       -2 0.27550029E+00 0.14562930E+04</pdfrwt>
<totfact> 0.57417068E+00</totfact>
</mgrwt>
</event>
<event>
 8    1  0.6972317E-052  0.1811524E+04  0.7818608E-02  0.8700195E-01
          2   -1    0    0  501    0  0.00000000000E+00  0.00000000000E+00  0.12052214326E+04  0.12052214326E+04  0.25500000000E-02 0.  1.
         -2   -1    0    0    0  501 -0.00000000000E+00 -0.00000000000E+00 -0.68070889833E+03  0.68070889834E+03  0.25500000000E-02 0. -1.
     200001    2    1    2    0    0 -0.60517079624E+03  0.13899471394E+03  0.51482767756E+03  0.10133399233E+04  0.61339957563E+03 0.  0.
    5000001    2    3    3    0    0 -0.10962294242E+02  0.15698195319E+03 -0.59872284506E+02  0.18034032482E+03  0.64609881436E+02 0.  0.
        -11    1    4    4    0    0  0.62583150543E+01  0.10965152467E+03 -0.50835917558E+02  0.12102443507E+03  0.51100000000E-03 0. -1.
     200002    1    4    4    0    0 -0.17220609296E+02  0.47330428526E+02 -0.90363669484E+01  0.59315889748E+02  0.30000000000E+02 0. -1.
     200000    1    3    3    0    0 -0.59420850200E+03 -0.17987239251E+02  0.57469996206E+03  0.83299959845E+03  0.10100000000E+03 0.  1.
    -200001    1    1    2    0    0  0.60517079624E+03 -0.13899471394E+03  0.96848567174E+01  0.87259040768E+03  0.61300000000E+03 0. -1.
<mgrwt>
<rscale>  0 0.18115242E+04</rscale>
<asrwt>0</asrwt>
<pdfrwt beam="1">  1        2 0.17217449E+00 0.18115242E+04</pdfrwt>
<pdfrwt beam="2">  1       -2 0.97244128E-01 0.18115242E+04</pdfrwt>
<totfact> 0.17723219E+01</totfact>
</mgrwt>
</event>
<event>
 8    1  0.6972317E-052  0.1453712E+04  0.7818608E-02  0.8915831E-01
         -2   -1    0    0    0  501 -0.00000000000E+00  0.00000000000E+00  0.46658121338E+03  0.46658121339E+03  0.25500000000E-02 0. -1.
          2   -1    0    0  501    0  0.00000000000E+00 -0.00000000000E+00 -0.11323213048E+04  0.11323213048E+04  0.25500000000E-02 0.  1.
     200001    2    1    2    0    0 -0.24816631831E+03  0.70008602186E+02 -0.11204306010E+02  0.66580347719E+03  0.61374343813E+03 0.  0.
    5000001    2    3    3    0    0 -0.13279996867E+02  0.47906699914E+02 -0.27640442273E+03  0.29676123030E+03  0.95897928493E+02 0.  0.
        -11    1    4    4    0    0 -0.12020266327E+02 -0.24422732977E+02 -0.46464861859E+02  0.53851091692E+02  0.51100000000E-03 0. -1.
     200002    1    4    4    0    0 -0.12597305403E+01  0.72329432891E+02 -0.22993956087E+03  0.24291013861E+03  0.30000000000E+02 0. -1.
     200000    1    3    3    0    0 -0.23488632144E+03  0.22101902272E+02  0.26520011672E+03  0.36904224690E+03  0.10100000000E+03 0. -1.
    -200001    1    1    2    0    0  0.24816631831E+03 -0.70008602186E+02 -0.65453578541E+03  0.93309904099E+03  0.61300000000E+03 0.  1.
<mgrwt>
<rscale>  0 0.14537123E+04</rscale>
<asrwt>0</asrwt>
<pdfrwt beam="1">  1        2 0.16176019E+00 0.14537123E+04</pdfrwt>
<pdfrwt beam="2">  1       -2 0.66654460E-01 0.14537123E+04</pdfrwt>
<totfact> 0.46958861E+01</totfact>
</mgrwt>
</event>
<event>
 8    1  0.6972317E-052  0.1465806E+04  0.7818608E-02  0.8907515E-01
         -2   -1    0    0    0  501 -0.00000000000E+00  0.00000000000E+00  0.45090784841E+03  0.45090784842E+03  0.25500000000E-02 0. -1.
          2   -1    0    0  501    0  0.00000000000E+00 -0.00000000000E+00 -0.11912569100E+04  0.11912569100E+04  0.25500000000E-02 0.  1.
     200001    2    1    2    0    0 -0.10307628875E+03  0.35154242155E+03 -0.18694122242E+03  0.73870693875E+03  0.61362376524E+03 0.  0.
    5000001    2    3    3    0    0 -0.31905034473E+03  0.13421901572E+03  0.17751262221E+02  0.35664114749E+03  0.84082900280E+02 0.  0.
        -11    1    4    4    0    0 -0.25570166017E+03  0.83033674192E+02  0.48081289551E+01  0.26888854228E+03  0.51100000000E-03 0. -1.
     200002    1    4    4    0    0 -0.63348684559E+02  0.51185341531E+02  0.12943133266E+02  0.87752605213E+02  0.30000000000E+02 0.  1.
     200000    1    3    3    0    0  0.21597405599E+03  0.21732340583E+03 -0.20469248464E+03  0.38206579125E+03  0.10100000000E+03 0. -1.
    -200001    1    1    2    0    0  0.10307628875E+03 -0.35154242155E+03 -0.55340783915E+03  0.90345781965E+03  0.61300000000E+03 0.  1.
<mgrwt>
<rscale>  0 0.14658064E+04</rscale>
<asrwt>0</asrwt>
<pdfrwt beam="1">  1        2 0.17017956E+00 0.14658064E+04</pdfrwt>
<pdfrwt beam="2">  1       -2 0.64415407E-01 0.14658064E+04</pdfrwt>
<totfact> 0.46687796E+01</totfact>
</mgrwt>
</event>
<event>
 8    1  0.6972317E-052  0.1284672E+04  0.7818608E-02  0.9041809E-01
         -2   -1    0    0    0  501 -0.00000000000E+00  0.00000000000E+00  0.13446068382E+04  0.13446068382E+04  0.25500000000E-02 0. -1.
          2   -1    0    0  501    0  0.00000000000E+00 -0.00000000000E+00 -0.30685233031E+03  0.30685233032E+03  0.25500000000E-02 0.  1.
     200001    2    1    2    0    0 -0.33371681324E+02  0.18838695641E+03  0.46626795075E+03  0.79182599126E+03  0.61072029938E+03 0.  0.
    5000001    2    3    3    0    0 -0.12862407107E+02 -0.18208760685E+03  0.32131753007E+03  0.38087142344E+03  0.92177806330E+02 0.  0.
        -11    1    4    4    0    0 -0.21120062364E+02 -0.15688102920E+02  0.92956636716E+02  0.96608022013E+02  0.51100000000E-03 0. -1.
     200002    1    4    4    0    0  0.82576552578E+01 -0.16639950393E+03  0.22836089335E+03  0.28426340143E+03  0.30000000000E+02 0. -1.
     200000    1    3    3    0    0 -0.20509274218E+02  0.37047456326E+03  0.14495042068E+03  0.41095456782E+03  0.10100000000E+03 0.  1.
    -200001    1    1    2    0    0  0.33371681324E+02 -0.18838695641E+03  0.57148655716E+03  0.85963317728E+03  0.61300000000E+03 0. -1.
<mgrwt>
<rscale>  0 0.12846723E+04</rscale>
<asrwt>0</asrwt>
<pdfrwt beam="1">  1        2 0.43836046E-01 0.12846723E+04</pdfrwt>
<pdfrwt beam="2">  1       -2 0.19208670E+00 0.12846723E+04</pdfrwt>
<totfact> 0.17134728E+01</totfact>
</mgrwt>
</event>
<event>
 8    1  0.6972317E-052  0.1336501E+04  0.7818608E-02  0.9001110E-01
         -2   -1    0    0    0  501 -0.00000000000E+00  0.00000000000E+00  0.21164267789E+03  0.21164267790E+03  0.25500000000E-02 0.  1.
          2   -1    0    0  501    0  0.00000000000E+00 -0.00000000000E+00 -0.21099642888E+04  0.21099642888E+04  0.25500000000E-02 0. -1.
     200001    2    1    2    0    0  0.13422221031E+03  0.33853059101E+02 -0.55156715741E+03  0.83544473149E+03  0.61202936113E+03 0.  0.
    5000001    2    3    3    0    0  0.21544849652E+03 -0.12144396328E+03 -0.38409556229E+03  0.57283740124E+03  0.34561046919E+03 0.  0.
        -11    1    4    4    0    0 -0.52789533156E+02 -0.14460307994E+03 -0.13198248312E+03  0.20277120454E+03  0.51100000000E-03 0. -1.
     200002    1    4    4    0    0  0.26823802968E+03  0.23159116663E+02 -0.25211307917E+03  0.37006619670E+03  0.30000000000E+02 0. -1.
     200000    1    3    3    0    0 -0.81226286211E+02  0.15529702238E+03 -0.16747159512E+03  0.26260733025E+03  0.10100000000E+03 0.  1.
    -200001    1    1    2    0    0 -0.13422221031E+03 -0.33853059101E+02 -0.13467544535E+04  0.14861622352E+04  0.61300000000E+03 0. -1.
<mgrwt>
<rscale>  0 0.13365006E+04</rscale>
<asrwt>0</asrwt>
<pdfrwt beam="1">  1        2 0.30142346E+00 0.13365006E+04</pdfrwt>
<pdfrwt beam="2">  1       -2 0.30234670E-01 0.13365006E+04</pdfrwt>
<totfact> 0.69647213E+01</totfact>
</mgrwt>
</event>
<event>
 8    1  0.6972317E-052  0.1270666E+04  0.7818608E-02  0.9053157E-01
         -2   -1    0    0    0  501 -0.00000000000E+00  0.00000000000E+00  0.38346008101E+03  0.38346008102E+03  0.25500000000E-02 0. -1.
          2   -1    0    0  501    0  0.00000000000E+00 -0.00000000000E+00 -0.10526462739E+04  0.10526462739E+04  0.25500000000E-02 0.  1.
     200001    2    1    2    0    0 -0.16467869654E+03  0.24326404078E+02 -0.33972563958E+03  0.72054775966E+03  0.61324115708E+03 0.  0.
    5000001    2    3    3    0    0  0.13176768334E+03  0.98060393069E+02  0.34639812918E+02  0.22692072505E+03  0.15269098126E+03 0.  0.
        -11    1    4    4    0    0  0.14322123151E+03  0.84440592833E+02  0.67083378783E+02  0.17928389382E+03  0.51100000000E-03 0. -1.
     200002    1    4    4    0    0 -0.11453548171E+02  0.13619800236E+02 -0.32443565864E+02  0.47636831236E+02  0.30000000000E+02 0. -1.
     200000    1    3    3    0    0 -0.29644637988E+03 -0.73733988991E+02 -0.37436545250E+03  0.49362703461E+03  0.10100000000E+03 0. -1.
    -200001    1    1    2    0    0  0.16467869654E+03 -0.24326404078E+02 -0.32946055326E+03  0.71555859522E+03  0.61300000000E+03 0. -1.
<mgrwt>
<rscale>  0 0.12706657E+04</rscale>
<asrwt>0</asrwt>
<pdfrwt beam="1">  1        2 0.15037804E+00 0.12706657E+04</pdfrwt>
<pdfrwt beam="2">  1       -2 0.54780012E-01 0.12706657E+04</pdfrwt>
<totfact> 0.80341253E+01</totfact>
</mgrwt>
</event>
<event>
 8    1  0.6972317E-052  0.1342772E+04  0.7818608E-02  0.8996317E-01
          2   -1    0    0  501    0  0.00000000000E+00  0.00000000000E+00  0.21520951393E+04  0.21520951393E+04  0.25500000000E-02 0.  1.
         -2   -1    0    0    0  501 -0.00000000000E+00 -0.00000000000E+00 -0.20945142839E+03  0.20945142841E+03  0.25500000000E-02 0. -1.
     200001    2    1    2    0    0 -0.15510410366E+03  0.24010003735E+02  0.59489849129E+03  0.87264766576E+03  0.61885052343E+03 0.  0.
    5000001    2    3    3    0    0  0.42213364531E+02 -0.25157816919E+03  0.36023518169E+03  0.44820580497E+03  0.77752904337E+02 0.  0.
        -11    1    4    4    0    0 -0.19047448134E+02 -0.53953963318E+02  0.67638425438E+02  0.88593408525E+02  0.51100000000E-03 0. -1.
     200002    1    4    4    0    0  0.61260812665E+02 -0.19762420587E+03  0.29259675625E+03  0.35961239645E+03  0.30000000000E+02 0. -1.
     200000    1    3    3    0    0 -0.19731746820E+03  0.27558817292E+03  0.23466330961E+03  0.42444186078E+03  0.10100000000E+03 0.  1.
    -200001    1    1    2    0    0  0.15510410366E+03 -0.24010003735E+02  0.13477452196E+04  0.14888989020E+04  0.61300000000E+03 0.  1.
<mgrwt>
<rscale>  0 0.13427724E+04</rscale>
<asrwt>0</asrwt>
<pdfrwt beam="1">  1        2 0.30744217E+00 0.13427724E+04</pdfrwt>
<pdfrwt beam="2">  1       -2 0.29921632E-01 0.13427724E+04</pdfrwt>
<totfact> 0.67526015E+01</totfact>
</mgrwt>
</event>
<event>
 8    1  0.6972317E-052  0.1401057E+04  0.7818608E-02  0.8953054E-01
         -2   -1    0    0    0  501 -0.00000000000E+00  0.00000000000E+00  0.10497471285E+04  0.10497471285E+04  0.25500000000E-02 0. -1.
          2   -1    0    0  501    0  0.00000000000E+00 -0.00000000000E+00 -0.46748416486E+03  0.46748416486E+03  0.25500000000E-02 0.  1.
     200001    2    1    2    0    0 -0.28635312756E+03  0.17311588169E+03  0.23012060457E+03  0.73509290202E+03  0.61273065844E+03 0.  0.
    5000001    2    3    3    0    0 -0.39124266253E+03  0.63345902339E+02  0.15764461334E+03  0.53886591046E+03  0.32930399484E+03 0.  0.
        -11    1    4    4    0    0 -0.28231485230E+03  0.10761514392E+03  0.24529942234E+03  0.38917155809E+03  0.51100000000E-03 0. -1.
     200002    1    4    4    0    0 -0.10892781023E+03 -0.44269241577E+02 -0.87654808995E+02  0.14969435237E+03  0.30000000000E+02 0. -1.
     200000    1    3    3    0    0  0.10488953496E+03  0.10976997935E+03  0.72475991229E+02  0.19622699156E+03  0.10100000000E+03 0. -1.
    -200001    1    1    2    0    0  0.28635312756E+03 -0.17311588169E+03  0.35214235906E+03  0.78213839134E+03  0.61300000000E+03 0. -1.
<mgrwt>
<rscale>  0 0.14010570E+04</rscale>
<asrwt>0</asrwt>
<pdfrwt beam="1">  1        2 0.66783452E-01 0.14010570E+04</pdfrwt>
<pdfrwt beam="2">  1       -2 0.14996388E+00 0.14010570E+04</pdfrwt>
<totfact> 0.21175942E+01</totfact>
</mgrwt>
</event>
<event>
 8    1  0.6972317E-052  0.1462918E+04  0.7818608E-02  0.8909493E-01
         -2   -1    0    0    0  501 -0.00000000000E+00  0.00000000000E+00  0.64872719393E+03  0.64872719394E+03  0.25500000000E-02 0. -1.
          2   -1    0    0  501    0  0.00000000000E+00 -0.00000000000E+00 -0.82474150003E+03  0.82474150004E+03  0.25500000000E-02 0.  1.
     200001    2    1    2    0    0 -0.97069860864E+02  0.33522271640E+03 -0.28278245685E+03  0.76005067801E+03  0.61311849407E+03 0.  0.
    5000001    2    3    3    0    0 -0.64431566739E+02 -0.81139326496E+02 -0.30541447441E+03  0.32977655931E+03  0.68844468127E+02 0.  0.
        -11    1    4    4    0    0 -0.43849022552E+02 -0.11746802304E+02 -0.12869610474E+03  0.13646762077E+03  0.51100000000E-03 0. -1.
     200002    1    4    4    0    0 -0.20582544187E+02 -0.69392524192E+02 -0.17671836968E+03  0.19330893854E+03  0.30000000000E+02 0. -1.
     200000    1    3    3    0    0 -0.32638294125E+02  0.41636204290E+03  0.22632017560E+02  0.43027411871E+03  0.10100000000E+03 0. -1.
    -200001    1    1    2    0    0  0.97069860864E+02 -0.33522271640E+03  0.10676815075E+03  0.71341801596E+03  0.61300000000E+03 0.  1.
<mgrwt>
<rscale>  0 0.14629180E+04</rscale>
<asrwt>0</asrwt>
<pdfrwt beam="1">  1        2 0.11782021E+00 0.14629180E+04</pdfrwt>
<pdfrwt beam="2">  1       -2 0.92675313E-01 0.14629180E+04</pdfrwt>
<totfact> 0.35023619E+01</totfact>
</mgrwt>
</event>
<event>
 8    1  0.6972317E-052  0.1247162E+04  0.7818608E-02  0.9072548E-01
          2   -1    0    0  501    0  0.00000000000E+00  0.00000000000E+00  0.89823208341E+03  0.89823208342E+03  0.25500000000E-02 0.  1.
         -2   -1    0    0    0  501 -0.00000000000E+00 -0.00000000000E+00 -0.43290971969E+03  0.43290971970E+03  0.25500000000E-02 0. -1.
     200001    2    1    2    0    0 -0.67451608370E+02  0.53472351705E+02  0.31109206894E+03  0.69320372172E+03  0.61346891737E+03 0.  0.
    5000001    2    3    3    0    0  0.25812979537E+03  0.11614218799E+02  0.18870607002E+03  0.32860162835E+03  0.74854311543E+02 0.  0.
        -11    1    4    4    0    0  0.40706554538E+02  0.27088327942E+02  0.37651210455E+02  0.61712354857E+02  0.51100000000E-03 0. -1.
     200002    1    4    4    0    0  0.21742324084E+03 -0.15474109144E+02  0.15105485957E+03  0.26688927350E+03  0.30000000000E+02 0. -1.
     200000    1    3    3    0    0 -0.32558140374E+03  0.41858132906E+02  0.12238599892E+03  0.36460209336E+03  0.10100000000E+03 0. -1.
    -200001    1    1    2    0    0  0.67451608370E+02 -0.53472351705E+02  0.15423029478E+03  0.63793808140E+03  0.61300000000E+03 0. -1.
<mgrwt>
<rscale>  0 0.12471622E+04</rscale>
<asrwt>0</asrwt>
<pdfrwt beam="1">  1        2 0.12831887E+00 0.12471622E+04</pdfrwt>
<pdfrwt beam="2">  1       -2 0.61844246E-01 0.12471622E+04</pdfrwt>
<totfact> 0.77966708E+01</totfact>
</mgrwt>
</event>
<event>
 8    1  0.6972317E-052  0.1499012E+04  0.7818608E-02  0.8885110E-01
         -2   -1    0    0    0  501 -0.00000000000E+00  0.00000000000E+00  0.25883965047E+03  0.25883965048E+03  0.25500000000E-02 0. -1.
          2   -1    0    0  501    0  0.00000000000E+00 -0.00000000000E+00 -0.21702973766E+04  0.21702973766E+04  0.25500000000E-02 0.  1.
     200001    2    1    2    0    0  0.14841573136E+02 -0.66052563547E+02 -0.26565913669E+03  0.67158042474E+03  0.61307607729E+03 0.  0.
    5000001    2    3    3    0    0  0.24744833452E+03 -0.16011576997E+03 -0.24921548131E+03  0.40060960334E+03  0.10729380277E+03 0.  0.
        -11    1    4    4    0    0  0.69796903910E+02 -0.57055955893E+02 -0.13880284911E+03  0.16550897504E+03  0.51100000000E-03 0. -1.
     200002    1    4    4    0    0  0.17765143061E+03 -0.10305981408E+03 -0.11041263220E+03  0.23510062830E+03  0.30000000000E+02 0. -1.
     200000    1    3    3    0    0 -0.23260676139E+03  0.94063206426E+02 -0.16443655381E+02  0.27097082140E+03  0.10100000000E+03 0.  1.
    -200001    1    1    2    0    0 -0.14841573136E+02  0.66052563547E+02 -0.16457985894E+04  0.17575566023E+04  0.61300000000E+03 0.  1.
<mgrwt>
<rscale>  0 0.14990117E+04</rscale>
<asrwt>0</asrwt>
<pdfrwt beam="1">  1        2 0.31004247E+00 0.14990117E+04</pdfrwt>
<pdfrwt beam="2">  1       -2 0.36977094E-01 0.14990117E+04</pdfrwt>
<totfact> 0.43712477E+01</totfact>
</mgrwt>
</event>
<event>
 8    1  0.6972317E-052  0.1519438E+04  0.7818608E-02  0.8871629E-01
         -2   -1    0    0    0  501 -0.00000000000E+00  0.00000000000E+00  0.33281687915E+03  0.33281687916E+03  0.25500000000E-02 0. -1.
          2   -1    0    0  501    0  0.00000000000E+00 -0.00000000000E+00 -0.17342054673E+04  0.17342054673E+04  0.25500000000E-02 0.  1.
     200001    2    1    2    0    0  0.24174694243E+03 -0.27476563668E+03 -0.34492149117E+03  0.79194216613E+03  0.61177105207E+03 0.  0.
    5000001    2    3    3    0    0 -0.10829831613E+02 -0.39735795470E+03 -0.25982163253E+03  0.48167310682E+03  0.80567187435E+02 0.  0.
        -11    1    4    4    0    0  0.24664341622E+02 -0.59147272282E+02 -0.36919948008E+02  0.73958178231E+02  0.51100000000E-03 0. -1.
     200002    1    4    4    0    0 -0.35494173236E+02 -0.33821068242E+03 -0.22290168452E+03  0.40771492859E+03  0.30000000000E+02 0. -1.
     200000    1    3    3    0    0  0.25257677404E+03  0.12259231802E+03 -0.85099858642E+02  0.31026905931E+03  0.10100000000E+03 0. -1.
    -200001    1    1    2    0    0 -0.24174694243E+03  0.27476563668E+03 -0.10564670970E+04  0.12750801803E+04  0.61300000000E+03 0.  1.
<mgrwt>
<rscale>  0 0.15194379E+04</rscale>
<asrwt>0</asrwt>
<pdfrwt beam="1">  1        2 0.24774363E+00 0.15194379E+04</pdfrwt>
<pdfrwt beam="2">  1       -2 0.47545269E-01 0.15194379E+04</pdfrwt>
<totfact> 0.44587900E+01</totfact>
</mgrwt>
</event>
<event>
 8    1  0.6972317E-052  0.2549098E+04  0.7818608E-02  0.8385700E-01
         -2   -1    0    0    0  501 -0.00000000000E+00  0.00000000000E+00  0.96730007296E+03  0.96730007296E+03  0.25500000000E-02 0. -1.
          2   -1    0    0  501    0  0.00000000000E+00 -0.00000000000E+00 -0.16793904954E+04  0.16793904954E+04  0.25500000000E-02 0.  1.
     200001    2    1    2    0    0 -0.80507667724E+03  0.77412031599E+03 -0.31735731628E+03  0.13129012503E+04  0.61284851874E+03 0.  0.
    5000001    2    3    3    0    0 -0.28276214357E+02  0.39352904756E+03 -0.11985866206E+03  0.41988647371E+03  0.79207931223E+02 0.  0.
        -11    1    4    4    0    0 -0.35915936250E+02  0.85071015052E+02 -0.24312710075E+02  0.95488951980E+02  0.51100000000E-03 0. -1.
     200002    1    4    4    0    0  0.76397218931E+01  0.30845803251E+03 -0.95545951980E+02  0.32439752173E+03  0.30000000000E+02 0. -1.
     200000    1    3    3    0    0 -0.77680046289E+03  0.38059126843E+03 -0.19749865423E+03  0.89301477657E+03  0.10100000000E+03 0.  1.
    -200001    1    1    2    0    0  0.80507667724E+03 -0.77412031599E+03 -0.39473310612E+03  0.13337893180E+04  0.61300000000E+03 0. -1.
<mgrwt>
<rscale>  0 0.25490975E+04</rscale>
<asrwt>0</asrwt>
<pdfrwt beam="1">  1        2 0.23991293E+00 0.25490975E+04</pdfrwt>
<pdfrwt beam="2">  1       -2 0.13818573E+00 0.25490975E+04</pdfrwt>
<totfact> 0.39055093E+00</totfact>
</mgrwt>
</event>
<event>
 8    1  0.6972317E-052  0.1250076E+04  0.7818608E-02  0.9070120E-01
          2   -1    0    0  501    0  0.00000000000E+00  0.00000000000E+00  0.68678535447E+03  0.68678535448E+03  0.25500000000E-02 0.  1.
         -2   -1    0    0    0  501 -0.00000000000E+00 -0.00000000000E+00 -0.56884228498E+03  0.56884228499E+03  0.25500000000E-02 0. -1.
     200001    2    1    2    0    0 -0.42041107116E+02 -0.90785028869E+02  0.12804803956E+03  0.63443484607E+03  0.61327147114E+03 0.  0.
    5000001    2    3    3    0    0  0.57890943639E+02 -0.17054849814E+03  0.31569263831E+03  0.38591900907E+03  0.12974393282E+03 0.  0.
        -11    1    4    4    0    0  0.91687277974E+02 -0.13572310667E+03  0.21631968589E+03  0.27133286777E+03  0.51100000000E-03 0. -1.
     200002    1    4    4    0    0 -0.33796334335E+02 -0.34825391464E+02  0.99372952424E+02  0.11458614130E+03  0.30000000000E+02 0. -1.
     200000    1    3    3    0    0 -0.99932050755E+02  0.79763469266E+02 -0.18764459875E+03  0.24851583700E+03  0.10100000000E+03 0. -1.
    -200001    1    1    2    0    0  0.42041107116E+02  0.90785028869E+02 -0.10104970070E+02  0.62119279340E+03  0.61300000000E+03 0. -1.
<mgrwt>
<rscale>  0 0.12500761E+04</rscale>
<asrwt>0</asrwt>
<pdfrwt beam="1">  1        2 0.98112193E-01 0.12500761E+04</pdfrwt>
<pdfrwt beam="2">  1       -2 0.81263184E-01 0.12500761E+04</pdfrwt>
<totfact> 0.60561298E+01</totfact>
</mgrwt>
</event>
<event>
 8    1  0.6972317E-052  0.1258012E+04  0.7818608E-02  0.9063542E-01
         -2   -1    0    0    0  501 -0.00000000000E+00  0.00000000000E+00  0.41755884207E+03  0.41755884208E+03  0.25500000000E-02 0. -1.
          2   -1    0    0  501    0  0.00000000000E+00 -0.00000000000E+00 -0.94752696284E+03  0.94752696284E+03  0.25500000000E-02 0.  1.
     200001    2    1    2    0    0  0.55663045132E+02 -0.10609601168E+03 -0.34679348287E+03  0.71418129099E+03  0.61272706677E+03 0.  0.
    5000001    2    3    3    0    0 -0.12360949355E+03  0.12454578846E+03 -0.35387623181E+03  0.40501232678E+03  0.89530090404E+02 0.  0.
        -11    1    4    4    0    0 -0.68757574355E+02  0.71999662250E+02 -0.11266010548E+03  0.15034578399E+03  0.51100000000E-03 0. -1.
     200002    1    4    4    0    0 -0.54851919196E+02  0.52546126213E+02 -0.24121612633E+03  0.25466654280E+03  0.30000000000E+02 0. -1.
     200000    1    3    3    0    0  0.17927253868E+03 -0.23064180014E+03  0.70827489318E+01  0.30916896421E+03  0.10100000000E+03 0. -1.
    -200001    1    1    2    0    0 -0.55663045132E+02  0.10609601168E+03 -0.18317463790E+03  0.65090451393E+03  0.61300000000E+03 0.  1.
<mgrwt>
<rscale>  0 0.12580115E+04</rscale>
<asrwt>0</asrwt>
<pdfrwt beam="1">  1        2 0.13536099E+00 0.12580115E+04</pdfrwt>
<pdfrwt beam="2">  1       -2 0.59651264E-01 0.12580115E+04</pdfrwt>
<totfact> 0.78159048E+01</totfact>
</mgrwt>
</event>
<event>
 8    1  0.6972317E-052  0.1533836E+04  0.7818608E-02  0.8862259E-01
         -2   -1    0    0    0  501 -0.00000000000E+00  0.00000000000E+00  0.52324759071E+03  0.52324759072E+03  0.25500000000E-02 0. -1.
          2   -1    0    0  501    0  0.00000000000E+00 -0.00000000000E+00 -0.11240623684E+04  0.11240623684E+04  0.25500000000E-02 0.  1.
     200001    2    1    2    0    0 -0.30482697880E+03 -0.21108246608E+03 -0.61686028085E+01  0.71626303881E+03  0.61279637288E+03 0.  0.
    5000001    2    3    3    0    0 -0.73051884554E+02  0.15306084079E+03 -0.14977854795E+03  0.25027499326E+03  0.10695681374E+03 0.  0.
        -11    1    4    4    0    0 -0.26002372657E+02  0.12820910972E+03 -0.13382084332E+03  0.18714090228E+03  0.51100000000E-03 0. -1.
     200002    1    4    4    0    0 -0.47049511896E+02  0.24851731077E+02 -0.15957704625E+02  0.63134090982E+02  0.30000000000E+02 0. -1.
     200000    1    3    3    0    0 -0.23177509425E+03 -0.36414330687E+03  0.14360994514E+03  0.46598804555E+03  0.10100000000E+03 0. -1.
    -200001    1    1    2    0    0  0.30482697880E+03  0.21108246608E+03 -0.59464617483E+03  0.93104692026E+03  0.61300000000E+03 0.  1.
<mgrwt>
<rscale>  0 0.15338356E+04</rscale>
<asrwt>0</asrwt>
<pdfrwt beam="1">  1        2 0.16058034E+00 0.15338356E+04</pdfrwt>
<pdfrwt beam="2">  1       -2 0.74749656E-01 0.15338356E+04</pdfrwt>
<totfact> 0.36737758E+01</totfact>
</mgrwt>
</event>
<event>
 8    1  0.6972317E-052  0.2653137E+04  0.7818608E-02  0.8350372E-01
          2   -1    0    0  501    0  0.00000000000E+00  0.00000000000E+00  0.85502318961E+03  0.85502318962E+03  0.25500000000E-02 0.  1.
         -2   -1    0    0    0  501 -0.00000000000E+00 -0.00000000000E+00 -0.20581712445E+04  0.20581712445E+04  0.25500000000E-02 0. -1.
     200001    2    1    2    0    0 -0.64680098803E+03  0.12456270955E+03 -0.16719953515E+04  0.18985742223E+04  0.61249345738E+03 0.  0.
    5000001    2    3    3    0    0 -0.53061911003E+03  0.13935523440E+03 -0.60516135259E+03  0.82058868027E+03  0.78542970584E+02 0.  0.
        -11    1    4    4    0    0 -0.32655862912E+03  0.11460076310E+03 -0.39295276196E+03  0.52362748809E+03  0.51100000000E-03 0. -1.
     200002    1    4    4    0    0 -0.20406048091E+03  0.24754471297E+02 -0.21220859063E+03  0.29696119217E+03  0.30000000000E+02 0. -1.
     200000    1    3    3    0    0 -0.11618187800E+03 -0.14792524842E+02 -0.10668339989E+04  0.10779855420E+04  0.10100000000E+03 0.  1.
    -200001    1    1    2    0    0  0.64680098803E+03 -0.12456270955E+03  0.46884729661E+03  0.10146202118E+04  0.61300000000E+03 0.  1.
<mgrwt>
<rscale>  0 0.26531371E+04</rscale>
<asrwt>0</asrwt>
<pdfrwt beam="1">  1        2 0.12214617E+00 0.26531371E+04</pdfrwt>
<pdfrwt beam="2">  1       -2 0.29402446E+00 0.26531371E+04</pdfrwt>
<totfact> 0.10664731E+00</totfact>
</mgrwt>
</event>
<event>
 8    1  0.6972317E-052  0.1550910E+04  0.7818608E-02  0.8851287E-01
          2   -1    0    0  501    0  0.00000000000E+00  0.00000000000E+00  0.99654193109E+03  0.99654193109E+03  0.25500000000E-02 0.  1.
         -2   -1    0    0    0  501 -0.00000000000E+00 -0.00000000000E+00 -0.60341687161E+03  0.60341687161E+03  0.25500000000E-02 0. -1.
     200001    2    1    2    0    0  0.26359717353E+03  0.36347654197E+03  0.35990653935E+02  0.76036803925E+03  0.61258922737E+03 0.  0.
    5000001    2    3    3    0    0  0.40423220409E+03  0.82349945698E+02 -0.33760306854E+01  0.42786072984E+03  0.11343816897E+03 0.  0.
        -11    1    4    4    0    0  0.12711622946E+03 -0.54412961218E+01 -0.39926360407E+02  0.13335013217E+03  0.51100000000E-03 0. -1.
     200002    1    4    4    0    0  0.27711597463E+03  0.87791241819E+02  0.36550329722E+02  0.29451059767E+03  0.30000000000E+02 0. -1.
     200000    1    3    3    0    0 -0.14063503056E+03  0.28112659627E+03  0.39366684621E+02  0.33250730941E+03  0.10100000000E+03 0. -1.
    -200001    1    1    2    0    0 -0.26359717353E+03 -0.36347654197E+03  0.35713440555E+03  0.83959076345E+03  0.61300000000E+03 0.  1.
<mgrwt>
<rscale>  0 0.15509097E+04</rscale>
<asrwt>0</asrwt>
<pdfrwt beam="1">  1        2 0.14236313E+00 0.15509097E+04</pdfrwt>
<pdfrwt beam="2">  1       -2 0.86202411E-01 0.15509097E+04</pdfrwt>
<totfact> 0.31772852E+01</totfact>
</mgrwt>
</event>
<event>
 8    1  0.6972317E-052  0.1645233E+04  0.7818608E-02  0.8793232E-01
          2   -1    0    0  501    0  0.00000000000E+00  0.00000000000E+00  0.13331776619E+04  0.13331776619E+04  0.25500000000E-02 0.  1.
         -2   -1    0    0    0  501 -0.00000000000E+00 -0.00000000000E+00 -0.50758243110E+03  0.50758243111E+03  0.25500000000E-02 0. -1.
     200001    2    1    2    0    0 -0.35706032336E+03 -0.40884122448E+03  0.49991836380E+03  0.95958040470E+03  0.61337831822E+03 0.  0.
    5000001    2    3    3    0    0 -0.11578521169E+03 -0.48468359022E+03  0.46381622366E+03  0.68486217000E+03  0.74741586085E+02 0.  0.
        -11    1    4    4    0    0 -0.83177679050E+02 -0.21377250971E+03  0.21065160163E+03  0.31143427793E+03  0.51100000000E-03 0. -1.
     200002    1    4    4    0    0 -0.32607532644E+02 -0.27091108051E+03  0.25316462203E+03  0.37342789207E+03  0.30000000000E+02 0. -1.
     200000    1    3    3    0    0 -0.24127511167E+03  0.75842365738E+02  0.36102140136E+02  0.27471823469E+03  0.10100000000E+03 0.  1.
    -200001    1    1    2    0    0  0.35706032336E+03  0.40884122448E+03  0.32567686696E+03  0.88117968827E+03  0.61300000000E+03 0.  1.
<mgrwt>
<rscale>  0 0.16452326E+04</rscale>
<asrwt>0</asrwt>
<pdfrwt beam="1">  1        2 0.19045395E+00 0.16452326E+04</pdfrwt>
<pdfrwt beam="2">  1       -2 0.72511776E-01 0.16452326E+04</pdfrwt>
<totfact> 0.29660474E+01</totfact>
</mgrwt>
</event>
<event>
 8    1  0.6972317E-052  0.1294915E+04  0.7818608E-02  0.9033607E-01
          2   -1    0    0  501    0  0.00000000000E+00  0.00000000000E+00  0.27360075347E+04  0.27360075347E+04  0.25500000000E-02 0.  1.
         -2   -1    0    0    0  501 -0.00000000000E+00 -0.00000000000E+00 -0.15321638123E+03  0.15321638125E+03  0.25500000000E-02 0. -1.
     200001    2    1    2    0    0  0.92818870579E+02  0.13275607553E+03  0.15833189258E+04  0.17056052053E+04  0.61314825056E+03 0.  0.
    5000001    2    3    3    0    0  0.76557357027E+02  0.22957155819E+03  0.60065095237E+03  0.71289426019E+03  0.29811496168E+03 0.  0.
        -11    1    4    4    0    0  0.14818993350E+03  0.12820121830E+03  0.15657371031E+03  0.25082092321E+03  0.51100000000E-03 0. -1.
     200002    1    4    4    0    0 -0.71632576470E+02  0.10137033990E+03  0.44407724206E+03  0.46207333697E+03  0.30000000000E+02 0. -1.
     200000    1    3    3    0    0  0.16261513552E+02 -0.96815482661E+02  0.98266797348E+03  0.99271094514E+03  0.10100000000E+03 0.  1.
    -200001    1    1    2    0    0 -0.92818870579E+02 -0.13275607553E+03  0.99947222760E+03  0.11836187106E+04  0.61300000000E+03 0. -1.
<mgrwt>
<rscale>  0 0.12949149E+04</rscale>
<asrwt>0</asrwt>
<pdfrwt beam="1">  1        2 0.39085822E+00 0.12949149E+04</pdfrwt>
<pdfrwt beam="2">  1       -2 0.21888054E-01 0.12949149E+04</pdfrwt>
<totfact> 0.59256827E+01</totfact>
</mgrwt>
</event>
<event>
 8    1  0.6972317E-052  0.1407491E+04  0.7818608E-02  0.8948414E-01
         -2   -1    0    0    0  501 -0.00000000000E+00  0.00000000000E+00  0.25331433911E+03  0.25331433912E+03  0.25500000000E-02 0. -1.
          2   -1    0    0  501    0  0.00000000000E+00 -0.00000000000E+00 -0.19551123654E+04  0.19551123654E+04  0.25500000000E-02 0.  1.
     200001    2    1    2    0    0  0.28696078577E+03 -0.20988477809E+02 -0.55211374409E+03  0.87413664704E+03  0.61359455873E+03 0.  0.
    5000001    2    3    3    0    0 -0.57429350597E+02  0.32421241918E+02 -0.49449355228E+03  0.50674278387E+03  0.88966895603E+02 0.  0.
        -11    1    4    4    0    0 -0.30538547644E+02 -0.93790215868E+01 -0.34335151099E+03  0.34483449513E+03  0.51100000000E-03 0. -1.
     200002    1    4    4    0    0 -0.26890802953E+02  0.41800263505E+02 -0.15114204130E+03  0.16190828873E+03  0.30000000000E+02 0. -1.
     200000    1    3    3    0    0  0.34439013637E+03 -0.53409719727E+02 -0.57620191810E+02  0.36739386317E+03  0.10100000000E+03 0. -1.
    -200001    1    1    2    0    0 -0.28696078577E+03  0.20988477809E+02 -0.11496842822E+04  0.13342900575E+04  0.61300000000E+03 0.  1.
<mgrwt>
<rscale>  0 0.14074914E+04</rscale>
<asrwt>0</asrwt>
<pdfrwt beam="1">  1        2 0.27930176E+00 0.14074914E+04</pdfrwt>
<pdfrwt beam="2">  1       -2 0.36187764E-01 0.14074914E+04</pdfrwt>
<totfact> 0.59203024E+01</totfact>
</mgrwt>
</event>
<event>
 8    1  0.6972317E-052  0.1435080E+04  0.7818608E-02  0.8928810E-01
         -2   -1    0    0    0  501 -0.00000000000E+00  0.00000000000E+00  0.23282609110E+03  0.23282609112E+03  0.25500000000E-02 0. -1.
          2   -1    0    0  501    0  0.00000000000E+00 -0.00000000000E+00 -0.22113663017E+04  0.22113663017E+04  0.25500000000E-02 0.  1.
     200001    2    1    2    0    0 -0.20249396146E+03  0.22710471277E+03 -0.13581200310E+04  0.15204659429E+04  0.61216526364E+03 0.  0.
    5000001    2    3    3    0    0 -0.33372728060E+03 -0.61443236322E+02 -0.70628422766E+03  0.78863739915E+03  0.89232101777E+02 0.  0.
        -11    1    4    4    0    0 -0.22634838809E+03 -0.31559959889E+02 -0.39103950405E+03  0.45292550998E+03  0.51100000000E-03 0. -1.
     200002    1    4    4    0    0 -0.10737889250E+03 -0.29883276432E+02 -0.31524472361E+03  0.33571188917E+03  0.30000000000E+02 0. -1.
     200000    1    3    3    0    0  0.13123331914E+03  0.28854794909E+03 -0.65183580334E+03  0.73182854378E+03  0.10100000000E+03 0. -1.
    -200001    1    1    2    0    0  0.20249396146E+03 -0.22710471277E+03 -0.62042017961E+03  0.92372644991E+03  0.61300000000E+03 0.  1.
<mgrwt>
<rscale>  0 0.14350802E+04</rscale>
<asrwt>0</asrwt>
<pdfrwt beam="1">  1        2 0.31590946E+00 0.14350802E+04</pdfrwt>
<pdfrwt beam="2">  1       -2 0.33260871E-01 0.14350802E+04</pdfrwt>
<totfact> 0.51232038E+01</totfact>
</mgrwt>
</event>
<event>
 8    1  0.6972317E-052  0.1338280E+04  0.7818608E-02  0.8999748E-01
          2   -1    0    0  501    0  0.00000000000E+00  0.00000000000E+00  0.27453605210E+04  0.27453605210E+04  0.25500000000E-02 0.  1.
         -2   -1    0    0    0  501 -0.00000000000E+00 -0.00000000000E+00 -0.16309275222E+03  0.16309275224E+03  0.25500000000E-02 0. -1.
     200001    2    1    2    0    0  0.21252680038E+03  0.12404000720E+03  0.10587433727E+04  0.12478963938E+04  0.61298802291E+03 0.  0.
    5000001    2    3    3    0    0  0.19539328873E+03 -0.10979299308E+03  0.93108977164E+03  0.96247062222E+03  0.95856649027E+02 0.  0.
        -11    1    4    4    0    0  0.98107649329E+02 -0.80589195000E+02  0.36225443102E+03  0.38385935185E+03  0.51100000000E-03 0. -1.
     200002    1    4    4    0    0  0.97285639402E+02 -0.29203798078E+02  0.56883534062E+03  0.57861127037E+03  0.30000000000E+02 0. -1.
     200000    1    3    3    0    0  0.17133511646E+02  0.23383300027E+03  0.12765360106E+03  0.28542577161E+03  0.10100000000E+03 0. -1.
    -200001    1    1    2    0    0 -0.21252680038E+03 -0.12404000720E+03  0.15235243960E+04  0.16605568794E+04  0.61300000000E+03 0.  1.
<mgrwt>
<rscale>  0 0.13382801E+04</rscale>
<asrwt>0</asrwt>
<pdfrwt beam="1">  1        2 0.39219433E+00 0.13382801E+04</pdfrwt>
<pdfrwt beam="2">  1       -2 0.23298967E-01 0.13382801E+04</pdfrwt>
<totfact> 0.52197309E+01</totfact>
</mgrwt>
</event>
<event>
 8    1  0.6972317E-052  0.2005160E+04  0.7818608E-02  0.8604212E-01
         -2   -1    0    0    0  501 -0.00000000000E+00  0.00000000000E+00  0.32619677723E+03  0.32619677724E+03  0.25500000000E-02 0. -1.
          2   -1    0    0  501    0  0.00000000000E+00 -0.00000000000E+00 -0.30814737979E+04  0.30814737979E+04  0.25500000000E-02 0.  1.
     200001    2    1    2    0    0  0.43058426059E+03 -0.64676262222E+03 -0.11045769613E+04  0.14830188194E+04  0.61282123023E+03 0.  0.
    5000001    2    3    3    0    0  0.39320658507E+03 -0.70940200743E+03 -0.10847030315E+04  0.13568571918E+04  0.81351985170E+02 0.  0.
        -11    1    4    4    0    0  0.34137408977E+02 -0.71336772149E+02 -0.14561576811E+03  0.16570530974E+03  0.51100000000E-03 0. -1.
     200002    1    4    4    0    0  0.35906917609E+03 -0.63806523528E+03 -0.93908726343E+03  0.11911518820E+04  0.30000000000E+02 0. -1.
     200000    1    3    3    0    0  0.37377675516E+02  0.62639385202E+02 -0.19873929790E+02  0.12616162765E+03  0.10100000000E+03 0.  1.
    -200001    1    1    2    0    0 -0.43058426059E+03  0.64676262222E+03 -0.16507000593E+04  0.19246517557E+04  0.61300000000E+03 0.  1.
<mgrwt>
<rscale>  0 0.20051602E+04</rscale>
<asrwt>0</asrwt>
<pdfrwt beam="1">  1        2 0.44021053E+00 0.20051602E+04</pdfrwt>
<pdfrwt beam="2">  1       -2 0.46599541E-01 0.20051602E+04</pdfrwt>
<totfact> 0.86439481E+00</totfact>
</mgrwt>
</event>
<event>
 8    1  0.6972317E-052  0.1928062E+04  0.7818608E-02  0.8641013E-01
          2   -1    0    0  501    0  0.00000000000E+00  0.00000000000E+00  0.12306765048E+04  0.12306765048E+04  0.25500000000E-02 0.  1.
         -2   -1    0    0    0  501 -0.00000000000E+00 -0.00000000000E+00 -0.75515818781E+03  0.75515818781E+03  0.25500000000E-02 0. -1.
     200001    2    1    2    0    0 -0.56557275618E+03  0.46658273708E+03  0.12351059764E+03  0.96737977087E+03  0.61886732042E+03 0.  0.
    5000001    2    3    3    0    0 -0.40921653946E+03  0.50457838467E+03  0.28474587243E+03  0.71820362919E+03  0.11259981653E+03 0.  0.
        -11    1    4    4    0    0 -0.63040608265E+02  0.32946677583E+02  0.12494742088E+02  0.72219944851E+02  0.51100000000E-03 0. -1.
     200002    1    4    4    0    0 -0.34617593119E+03  0.47163170709E+03  0.27225113035E+03  0.64598368434E+03  0.30000000000E+02 0. -1.
     200000    1    3    3    0    0 -0.15635621673E+03 -0.37995647589E+02 -0.16123527479E+03  0.24917614168E+03  0.10100000000E+03 0. -1.
    -200001    1    1    2    0    0  0.56557275618E+03 -0.46658273708E+03  0.35200771931E+03  0.10184549217E+04  0.61300000000E+03 0.  1.
<mgrwt>
<rscale>  0 0.19280617E+04</rscale>
<asrwt>0</asrwt>
<pdfrwt beam="1">  1        2 0.17581093E+00 0.19280617E+04</pdfrwt>
<pdfrwt beam="2">  1       -2 0.10787974E+00 0.19280617E+04</pdfrwt>
<totfact> 0.13263297E+01</totfact>
</mgrwt>
</event>
<event>
 8    1  0.6972317E-052  0.1483911E+04  0.7818608E-02  0.8895223E-01
         -2   -1    0    0    0  501 -0.00000000000E+00  0.00000000000E+00  0.10236840263E+04  0.10236840263E+04  0.25500000000E-02 0. -1.
          2   -1    0    0  501    0  0.00000000000E+00 -0.00000000000E+00 -0.53776146329E+03  0.53776146329E+03  0.25500000000E-02 0.  1.
     200001    2    1    2    0    0  0.11499217143E+03  0.36938035599E+03  0.75009475456E+02  0.72820866108E+03  0.61236948470E+03 0.  0.
    5000001    2    3    3    0    0  0.28721449699E+03  0.31715169510E+03  0.20186148132E+03  0.48596747171E+03  0.11108087562E+03 0.  0.
        -11    1    4    4    0    0  0.18873929946E+03  0.25605899124E+03  0.17583256704E+03  0.36346364575E+03  0.51100000000E-03 0. -1.
     200002    1    4    4    0    0  0.98475197530E+02  0.61092703866E+02  0.26028914287E+02  0.12250382595E+03  0.30000000000E+02 0. -1.
     200000    1    3    3    0    0 -0.17222232556E+03  0.52228660882E+02 -0.12685200587E+03  0.24224118938E+03  0.10100000000E+03 0. -1.
    -200001    1    1    2    0    0 -0.11499217143E+03 -0.36938035599E+03  0.41091308758E+03  0.83323682853E+03  0.61300000000E+03 0. -1.
<mgrwt>
<rscale>  0 0.14839108E+04</rscale>
<asrwt>0</asrwt>
<pdfrwt beam="1">  1        2 0.76823067E-01 0.14839108E+04</pdfrwt>
<pdfrwt beam="2">  1       -2 0.14624057E+00 0.14839108E+04</pdfrwt>
<totfact> 0.19154971E+01</totfact>
</mgrwt>
</event>
<event>
 8    1  0.6972317E-052  0.1806104E+04  0.7818608E-02  0.8703060E-01
         -2   -1    0    0    0  501 -0.00000000000E+00  0.00000000000E+00  0.34519411158E+03  0.34519411159E+03  0.25500000000E-02 0. -1.
          2   -1    0    0  501    0  0.00000000000E+00 -0.00000000000E+00 -0.23624472625E+04  0.23624472625E+04  0.25500000000E-02 0.  1.
     200001    2    1    2    0    0 -0.55253158067E+03 -0.87483461472E+02 -0.15426057907E+04  0.17516060085E+04  0.61281847231E+03 0.  0.
    5000001    2    3    3    0    0 -0.30328940919E+03  0.11339703277E+03 -0.25696585275E+03  0.42286762834E+03  0.89119183366E+02 0.  0.
        -11    1    4    4    0    0 -0.87565837165E+02 -0.35526198015E+01 -0.53370293055E+02  0.10260986857E+03  0.51100000000E-03 0. -1.
     200002    1    4    4    0    0 -0.21572357203E+03  0.11694965257E+03 -0.20359555970E+03  0.32025775977E+03  0.30000000000E+02 0. -1.
     200000    1    3    3    0    0 -0.24924217148E+03 -0.20088049424E+03 -0.12856399379E+04  0.13287383802E+04  0.10100000000E+03 0.  1.
    -200001    1    1    2    0    0  0.55253158067E+03  0.87483461472E+02 -0.47464736028E+03  0.95603536561E+03  0.61300000000E+03 0.  1.
<mgrwt>
<rscale>  0 0.18061040E+04</rscale>
<asrwt>0</asrwt>
<pdfrwt beam="1">  1        2 0.33749246E+00 0.18061040E+04</pdfrwt>
<pdfrwt beam="2">  1       -2 0.49313446E-01 0.18061040E+04</pdfrwt>
<totfact> 0.19180272E+01</totfact>
</mgrwt>
</event>
<event>
 8    1  0.6972317E-052  0.1679451E+04  0.7818608E-02  0.8773172E-01
         -2   -1    0    0    0  501 -0.00000000000E+00  0.00000000000E+00  0.63229541872E+03  0.63229541872E+03  0.25500000000E-02 0. -1.
          2   -1    0    0  501    0  0.00000000000E+00 -0.00000000000E+00 -0.11152051699E+04  0.11152051699E+04  0.25500000000E-02 0.  1.
     200001    2    1    2    0    0  0.45190379475E+03  0.31199068394E+03 -0.67284670315E+02  0.82550902984E+03  0.61268483326E+03 0.  0.
    5000001    2    3    3    0    0  0.15168048363E+02  0.34281512693E+03 -0.11707612547E+03  0.37343774402E+03  0.89423982026E+02 0.  0.
        -11    1    4    4    0    0 -0.28966640039E+02  0.19480555704E+03 -0.57100653692E+02  0.20505793314E+03  0.51100000000E-03 0. -1.
     200002    1    4    4    0    0  0.44134688402E+02  0.14800956988E+03 -0.59975471776E+02  0.16837981088E+03  0.30000000000E+02 0.  1.
     200000    1    3    3    0    0  0.43673574639E+03 -0.30824442984E+02  0.49791455152E+02  0.45207128583E+03  0.10100000000E+03 0. -1.
    -200001    1    1    2    0    0 -0.45190379475E+03 -0.31199068394E+03 -0.41562508083E+03  0.92199155874E+03  0.61300000000E+03 0.  1.
<mgrwt>
<rscale>  0 0.16794512E+04</rscale>
<asrwt>0</asrwt>
<pdfrwt beam="1">  1        2 0.15931502E+00 0.16794512E+04</pdfrwt>
<pdfrwt beam="2">  1       -2 0.90327917E-01 0.16794512E+04</pdfrwt>
<totfact> 0.23969878E+01</totfact>
</mgrwt>
</event>
<event>
 8    1  0.6972317E-052  0.1547892E+04  0.7818608E-02  0.8853215E-01
         -2   -1    0    0    0  501 -0.00000000000E+00  0.00000000000E+00  0.65092725514E+03  0.65092725514E+03  0.25500000000E-02 0. -1.
          2   -1    0    0  501    0  0.00000000000E+00 -0.00000000000E+00 -0.92021447306E+03  0.92021447306E+03  0.25500000000E-02 0.  1.
     200001    2    1    2    0    0 -0.78611018234E+02  0.45457237541E+03 -0.23570786990E+03  0.80321444696E+03  0.61382368087E+03 0.  0.
    5000001    2    3    3    0    0 -0.19565544791E+03 -0.67104839347E+02 -0.93837801009E+02  0.24092036788E+03  0.80330423901E+02 0.  0.
        -11    1    4    4    0    0 -0.64608926402E+02  0.11885136324E+02 -0.22372921479E+02  0.69398252514E+02  0.51100000000E-03 0. -1.
     200002    1    4    4    0    0 -0.13104652150E+03 -0.78989975671E+02 -0.71464879530E+02  0.17152211537E+03  0.30000000000E+02 0. -1.
     200000    1    3    3    0    0  0.11704442967E+03  0.52167721476E+03 -0.14187006889E+03  0.56229407907E+03  0.10100000000E+03 0. -1.
    -200001    1    1    2    0    0  0.78611018234E+02 -0.45457237541E+03 -0.33579348021E+02  0.76792728125E+03  0.61300000000E+03 0.  1.
<mgrwt>
<rscale>  0 0.15478923E+04</rscale>
<asrwt>0</asrwt>
<pdfrwt beam="1">  1        2 0.13145921E+00 0.15478923E+04</pdfrwt>
<pdfrwt beam="2">  1       -2 0.92989607E-01 0.15478923E+04</pdfrwt>
<totfact> 0.29824850E+01</totfact>
</mgrwt>
</event>
<event>
 8    1  0.6972317E-052  0.1495729E+04  0.7818608E-02  0.8887298E-01
         -2   -1    0    0    0  501 -0.00000000000E+00  0.00000000000E+00  0.14420662445E+04  0.14420662445E+04  0.25500000000E-02 0. -1.
          2   -1    0    0  501    0  0.00000000000E+00 -0.00000000000E+00 -0.38784740277E+03  0.38784740278E+03  0.25500000000E-02 0.  1.
     200001    2    1    2    0    0  0.24909295805E+03  0.24570908710E+03  0.82958007366E+03  0.10892032900E+04  0.61297671334E+03 0.  0.
    5000001    2    3    3    0    0  0.38428311007E+03  0.78976474409E+02  0.73003040614E+03  0.83193440801E+03  0.72523604057E+02 0.  0.
        -11    1    4    4    0    0  0.20228200307E+03  0.35514169178E+02  0.32011184939E+03  0.38032993716E+03  0.51100000000E-03 0. -1.
     200002    1    4    4    0    0  0.18200110700E+03  0.43462305231E+02  0.40991855675E+03  0.45160447085E+03  0.30000000000E+02 0. -1.
     200000    1    3    3    0    0 -0.13519015201E+03  0.16673261270E+03  0.99549667518E+02  0.25726888199E+03  0.10100000000E+03 0.  1.
    -200001    1    1    2    0    0 -0.24909295805E+03 -0.24570908710E+03  0.22463876804E+03  0.74071035725E+03  0.61300000000E+03 0. -1.
<mgrwt>
<rscale>  0 0.14957295E+04</rscale>
<asrwt>0</asrwt>
<pdfrwt beam="1">  1        2 0.55406773E-01 0.14957295E+04</pdfrwt>
<pdfrwt beam="2">  1       -2 0.20600946E+00 0.14957295E+04</pdfrwt>
<totfact> 0.10525773E+01</totfact>
</mgrwt>
</event>
<event>
 8    1  0.6972317E-052  0.1420198E+04  0.7818608E-02  0.8939327E-01
          2   -1    0    0  501    0  0.00000000000E+00  0.00000000000E+00  0.23709703331E+04  0.23709703331E+04  0.25500000000E-02 0.  1.
         -2   -1    0    0    0  501 -0.00000000000E+00 -0.00000000000E+00 -0.21267258761E+03  0.21267258763E+03  0.25500000000E-02 0. -1.
     200001    2    1    2    0    0 -0.55348443535E+02 -0.30613200057E+03  0.14019678496E+04  0.15615939183E+04  0.61341785301E+03 0.  0.
    5000001    2    3    3    0    0  0.95525489380E+01 -0.42294298520E+03  0.57354552750E+03  0.71640666762E+03  0.72883615310E+02 0.  0.
        -11    1    4    4    0    0  0.84009635997E+01 -0.39864529086E+02  0.29295165497E+02  0.50179314367E+02  0.51100000000E-03 0. -1.
     200002    1    4    4    0    0  0.11515853383E+01 -0.38307845611E+03  0.54425036200E+03  0.66622735325E+03  0.30000000000E+02 0. -1.
     200000    1    3    3    0    0 -0.64900992473E+02  0.11681098463E+03  0.82842232210E+03  0.84518725068E+03  0.10100000000E+03 0.  1.
    -200001    1    1    2    0    0  0.55348443535E+02  0.30613200057E+03  0.75632989591E+03  0.10220490025E+04  0.61300000000E+03 0.  1.
<mgrwt>
<rscale>  0 0.14201977E+04</rscale>
<asrwt>0</asrwt>
<pdfrwt beam="1">  1        2 0.33871003E+00 0.14201977E+04</pdfrwt>
<pdfrwt beam="2">  1       -2 0.30381799E-01 0.14201977E+04</pdfrwt>
<totfact> 0.50279143E+01</totfact>
</mgrwt>
</event>
<event>
 8    1  0.6972317E-052  0.1279206E+04  0.7818608E-02  0.9046219E-01
         -2   -1    0    0    0  501 -0.00000000000E+00  0.00000000000E+00  0.40431661890E+03  0.40431661891E+03  0.25500000000E-02 0. -1.
          2   -1    0    0  501    0  0.00000000000E+00 -0.00000000000E+00 -0.10118115567E+04  0.10118115567E+04  0.25500000000E-02 0.  1.
     200001    2    1    2    0    0  0.18010562673E+03 -0.19156683847E+02 -0.27717611989E+03  0.69662519661E+03  0.61290704662E+03 0.  0.
    5000001    2    3    3    0    0  0.46365491334E+01 -0.19186173535E+03  0.94158654817E+02  0.23978064217E+03  0.10861160622E+03 0.  0.
        -11    1    4    4    0    0  0.38904667613E+02 -0.15981846820E+03  0.76115939413E+02  0.18124335070E+03  0.51100000000E-03 0. -1.
     200002    1    4    4    0    0 -0.34268118480E+02 -0.32043267148E+02  0.18042715404E+02  0.58537291472E+02  0.30000000000E+02 0. -1.
     200000    1    3    3    0    0  0.17546907759E+03  0.17270505150E+03 -0.37133477471E+03  0.45684455443E+03  0.10100000000E+03 0.  1.
    -200001    1    1    2    0    0 -0.18010562673E+03  0.19156683847E+02 -0.33031881789E+03  0.71950297898E+03  0.61300000000E+03 0.  1.
<mgrwt>
<rscale>  0 0.12792064E+04</rscale>
<asrwt>0</asrwt>
<pdfrwt beam="1">  1        2 0.14454451E+00 0.12792064E+04</pdfrwt>
<pdfrwt beam="2">  1       -2 0.57759517E-01 0.12792064E+04</pdfrwt>
<totfact> 0.76135413E+01</totfact>
</mgrwt>
</event>
<event>
 8    1  0.6972317E-052  0.1611725E+04  0.7818608E-02  0.8813377E-01
         -2   -1    0    0    0  501 -0.00000000000E+00  0.00000000000E+00  0.11608593350E+04  0.11608593350E+04  0.25500000000E-02 0.  1.
          2   -1    0    0  501    0  0.00000000000E+00 -0.00000000000E+00 -0.55942572570E+03  0.55942572570E+03  0.25500000000E-02 0. -1.
     200001    2    1    2    0    0  0.21065218754E+03 -0.30705321477E+03  0.69246466720E+03  0.99729704263E+03  0.61354547925E+03 0.  0.
    5000001    2    3    3    0    0  0.17198245316E+03 -0.68394635158E+02  0.66782359154E+03  0.73412134354E+03  0.24226020579E+03 0.  0.
        -11    1    4    4    0    0  0.17966562403E+03 -0.19828120784E+02  0.64872664951E+03  0.67343830944E+03  0.51100000000E-03 0. -1.
     200002    1    4    4    0    0 -0.76831708723E+01 -0.48566514374E+02  0.19096942032E+02  0.60683034104E+02  0.30000000000E+02 0. -1.
     200000    1    3    3    0    0  0.38669734384E+02 -0.23865857962E+03  0.24641075656E+02  0.26317569909E+03  0.10100000000E+03 0.  1.
    -200001    1    1    2    0    0 -0.21065218754E+03  0.30705321477E+03 -0.91031057872E+02  0.72298801810E+03  0.61300000000E+03 0. -1.
<mgrwt>
<rscale>  0 0.16117253E+04</rscale>
<asrwt>0</asrwt>
<pdfrwt beam="1">  1        2 0.79917961E-01 0.16117253E+04</pdfrwt>
<pdfrwt beam="2">  1       -2 0.16583705E+00 0.16117253E+04</pdfrwt>
<totfact> 0.12911487E+01</totfact>
</mgrwt>
</event>
<event>
 8    1  0.6972317E-052  0.1328392E+04  0.7818608E-02  0.9007348E-01
         -2   -1    0    0    0  501 -0.00000000000E+00  0.00000000000E+00  0.15038558417E+03  0.15038558419E+03  0.25500000000E-02 0. -1.
          2   -1    0    0  501    0  0.00000000000E+00 -0.00000000000E+00 -0.29335013107E+04  0.29335013107E+04  0.25500000000E-02 0.  1.
     200001    2    1    2    0    0  0.56916123588E+02 -0.24595723161E+03 -0.13406095479E+04  0.14963329650E+04  0.61485280949E+03 0.  0.
    5000001    2    3    3    0    0 -0.11282619640E+03  0.12445752606E+03 -0.74643742403E+03  0.76882965870E+03  0.75569767292E+02 0.  0.
        -11    1    4    4    0    0 -0.62704046781E+02  0.30444630210E+02 -0.21603169685E+03  0.22699860580E+03  0.51100000000E-03 0. -1.
     200002    1    4    4    0    0 -0.50122149615E+02  0.94012895850E+02 -0.53040572717E+03  0.54183105290E+03  0.30000000000E+02 0. -1.
     200000    1    3    3    0    0  0.16974231998E+03 -0.37041475767E+03 -0.59417212385E+03  0.72750330628E+03  0.10100000000E+03 0. -1.
    -200001    1    1    2    0    0 -0.56916123588E+02  0.24595723161E+03 -0.14425061786E+04  0.15875539299E+04  0.61300000000E+03 0. -1.
<mgrwt>
<rscale>  0 0.13283920E+04</rscale>
<asrwt>0</asrwt>
<pdfrwt beam="1">  1        2 0.41907158E+00 0.13283920E+04</pdfrwt>
<pdfrwt beam="2">  1       -2 0.21483657E-01 0.13283920E+04</pdfrwt>
<totfact> 0.47711745E+01</totfact>
</mgrwt>
</event>
<event>
 8    1  0.6972317E-052  0.1650924E+04  0.7818608E-02  0.8789860E-01
          2   -1    0    0  501    0  0.00000000000E+00  0.00000000000E+00  0.51853008089E+03  0.51853008090E+03  0.25500000000E-02 0.  1.
         -2   -1    0    0    0  501 -0.00000000000E+00 -0.00000000000E+00 -0.13140757057E+04  0.13140757057E+04  0.25500000000E-02 0. -1.
     200001    2    1    2    0    0 -0.26882711906E+03 -0.48005147317E+03 -0.45835831375E+03  0.94255987788E+03  0.61286976004E+03 0.  0.
    5000001    2    3    3    0    0 -0.21797477340E+03 -0.59860329618E+03 -0.39673308670E+03  0.76751941283E+03  0.16077934864E+03 0.  0.
        -11    1    4    4    0    0 -0.32880544542E+02 -0.27417903132E+03 -0.22077078758E+03  0.35354633653E+03  0.51100000000E-03 0. -1.
     200002    1    4    4    0    0 -0.18509422886E+03 -0.32442426486E+03 -0.17596229912E+03  0.41397307630E+03  0.30000000000E+02 0. -1.
     200000    1    3    3    0    0 -0.50852345659E+02  0.11855182301E+03 -0.61625227048E+02  0.17504046505E+03  0.10100000000E+03 0.  1.
    -200001    1    1    2    0    0  0.26882711906E+03  0.48005147317E+03 -0.33718731102E+03  0.89004590868E+03  0.61300000000E+03 0.  1.
<mgrwt>
<rscale>  0 0.16509243E+04</rscale>
<asrwt>0</asrwt>
<pdfrwt beam="1">  1        2 0.74075726E-01 0.16509243E+04</pdfrwt>
<pdfrwt beam="2">  1       -2 0.18772510E+00 0.16509243E+04</pdfrwt>
<totfact> 0.98895063E+00</totfact>
</mgrwt>
</event>
<event>
 8    1  0.6972317E-052  0.1451213E+04  0.7818608E-02  0.8917560E-01
          2   -1    0    0  501    0  0.00000000000E+00  0.00000000000E+00  0.47553402771E+03  0.47553402772E+03  0.25500000000E-02 0.  1.
         -2   -1    0    0    0  501 -0.00000000000E+00 -0.00000000000E+00 -0.11071857463E+04  0.11071857463E+04  0.25500000000E-02 0. -1.
     200001    2    1    2    0    0 -0.38325256306E+03 -0.59468927786E+02 -0.32241964973E+03  0.79416885439E+03  0.61345795152E+03 0.  0.
    5000001    2    3    3    0    0 -0.14465781446E+03 -0.18134323223E+02  0.15812895055E+03  0.24666181258E+03  0.12075822051E+03 0.  0.
        -11    1    4    4    0    0  0.17656864577E+02  0.10634892332E+02  0.26597160385E+02  0.33649290370E+02  0.51100000000E-03 0. -1.
     200002    1    4    4    0    0 -0.16231467904E+03 -0.28769215554E+02  0.13153179016E+03  0.21301252221E+03  0.30000000000E+02 0. -1.
     200000    1    3    3    0    0 -0.23859474860E+03 -0.41334604563E+02 -0.48054860028E+03  0.54750704180E+03  0.10100000000E+03 0. -1.
    -200001    1    1    2    0    0  0.38325256306E+03  0.59468927786E+02 -0.30923206886E+03  0.78855091965E+03  0.61300000000E+03 0. -1.
<mgrwt>
<rscale>  0 0.14512126E+04</rscale>
<asrwt>0</asrwt>
<pdfrwt beam="1">  1        2 0.67933433E-01 0.14512126E+04</pdfrwt>
<pdfrwt beam="2">  1       -2 0.15816939E+00 0.14512126E+04</pdfrwt>
<totfact> 0.17938988E+01</totfact>
</mgrwt>
</event>
<event>
 8    1  0.6972317E-052  0.1487354E+04  0.7818608E-02  0.8892906E-01
          2   -1    0    0  501    0  0.00000000000E+00  0.00000000000E+00  0.17280548404E+04  0.17280548404E+04  0.25500000000E-02 0.  1.
         -2   -1    0    0    0  501 -0.00000000000E+00 -0.00000000000E+00 -0.32004503915E+03  0.32004503916E+03  0.25500000000E-02 0. -1.
     200001    2    1    2    0    0 -0.25367673065E+03 -0.21766557801E+03  0.10575949215E+04  0.12668894242E+04  0.61218592582E+03 0.  0.
    5000001    2    3    3    0    0  0.62884859749E+02 -0.31706245492E+03  0.56606104977E+03  0.66531023021E+03  0.13315211016E+03 0.  0.
        -11    1    4    4    0    0  0.20859512298E+02 -0.25969021326E+03  0.35322244930E+03  0.43890799128E+03  0.51100000000E-03 0. -1.
     200002    1    4    4    0    0  0.42025347451E+02 -0.57372241664E+02  0.21283860047E+03  0.22640223893E+03  0.30000000000E+02 0. -1.
     200000    1    3    3    0    0 -0.31656159040E+03  0.99396876910E+02  0.49153387172E+03  0.60157919404E+03  0.10100000000E+03 0. -1.
    -200001    1    1    2    0    0  0.25367673065E+03  0.21766557801E+03  0.35041487974E+03  0.78121045530E+03  0.61300000000E+03 0. -1.
<mgrwt>
<rscale>  0 0.14873539E+04</rscale>
<asrwt>0</asrwt>
<pdfrwt beam="1">  1        2 0.24686498E+00 0.14873539E+04</pdfrwt>
<pdfrwt beam="2">  1       -2 0.45720720E-01 0.14873539E+04</pdfrwt>
<totfact> 0.48712716E+01</totfact>
</mgrwt>
</event>
<event>
 8    1  0.6972317E-052  0.1524476E+04  0.7818608E-02  0.8868338E-01
         -2   -1    0    0    0  501 -0.00000000000E+00  0.00000000000E+00  0.23566698592E+03  0.23566698593E+03  0.25500000000E-02 0. -1.
          2   -1    0    0  501    0  0.00000000000E+00 -0.00000000000E+00 -0.24653708547E+04  0.24653708547E+04  0.25500000000E-02 0.  1.
     200001    2    1    2    0    0  0.30716403598E+03 -0.14399327803E+03 -0.57637508233E+03  0.90539063552E+03  0.61027875453E+03 0.  0.
    5000001    2    3    3    0    0 -0.58798780700E+02  0.16517087731E+03 -0.10344431127E+03  0.22467353395E+03  0.95072372453E+02 0.  0.
        -11    1    4    4    0    0 -0.52227606912E+02  0.12127994371E+03 -0.32880215620E+02  0.13607959527E+03  0.51100000000E-03 0. -1.
     200002    1    4    4    0    0 -0.65711737877E+01  0.43890933599E+02 -0.70564095645E+02  0.88593938683E+02  0.30000000000E+02 0.  1.
     200000    1    3    3    0    0  0.36596281668E+03 -0.30916415534E+03 -0.47293077107E+03  0.68071710156E+03  0.10100000000E+03 0. -1.
    -200001    1    1    2    0    0 -0.30716403598E+03  0.14399327803E+03 -0.16533287864E+04  0.17956472051E+04  0.61300000000E+03 0.  1.
<mgrwt>
<rscale>  0 0.15244757E+04</rscale>
<asrwt>0</asrwt>
<pdfrwt beam="1">  1        2 0.35219582E+00 0.15244757E+04</pdfrwt>
<pdfrwt beam="2">  1       -2 0.33666714E-01 0.15244757E+04</pdfrwt>
<totfact> 0.36685261E+01</totfact>
</mgrwt>
</event>
<event>
 8    1  0.6972317E-052  0.1399285E+04  0.7818608E-02  0.8954336E-01
          2   -1    0    0  501    0  0.00000000000E+00  0.00000000000E+00  0.27896407210E+04  0.27896407210E+04  0.25500000000E-02 0.  1.
         -2   -1    0    0    0  501 -0.00000000000E+00 -0.00000000000E+00 -0.17547051688E+03  0.17547051690E+03  0.25500000000E-02 0. -1.
     200001    2    1    2    0    0  0.25929854789E+03 -0.13471590632E+03  0.97077347052E+03  0.11869363488E+04  0.61727842389E+03 0.  0.
    5000001    2    3    3    0    0  0.12779948565E+03 -0.74419746532E+02 -0.30447109514E+02  0.17028927129E+03  0.78742632883E+02 0.  0.
        -11    1    4    4    0    0  0.68905530792E+02 -0.73088128336E+02 -0.92838515309E+01  0.10087634300E+03  0.51100000000E-03 0. -1.
     200002    1    4    4    0    0  0.58893954853E+02 -0.13316181953E+01 -0.21163257983E+02  0.69412928289E+02  0.30000000000E+02 0. -1.
     200000    1    3    3    0    0  0.13149906225E+03 -0.60296159788E+02  0.10012205800E+04  0.10166470775E+04  0.10100000000E+03 0.  1.
    -200001    1    1    2    0    0 -0.25929854789E+03  0.13471590632E+03  0.16433967336E+04  0.17781748892E+04  0.61300000000E+03 0.  1.
<mgrwt>
<rscale>  0 0.13992851E+04</rscale>
<asrwt>0</asrwt>
<pdfrwt beam="1">  1        2 0.39852007E+00 0.13992851E+04</pdfrwt>
<pdfrwt beam="2">  1       -2 0.25067218E-01 0.13992851E+04</pdfrwt>
<totfact> 0.43074362E+01</totfact>
</mgrwt>
</event>
<event>
 8    1  0.6972317E-052  0.1360479E+04  0.7818608E-02  0.8982933E-01
         -2   -1    0    0    0  501 -0.00000000000E+00  0.00000000000E+00  0.14344825468E+04  0.14344825468E+04  0.25500000000E-02 0. -1.
          2   -1    0    0  501    0  0.00000000000E+00 -0.00000000000E+00 -0.32257340793E+03  0.32257340794E+03  0.25500000000E-02 0.  1.
     200001    2    1    2    0    0 -0.29030724509E+02  0.19990871678E+03  0.83318240596E+03  0.10540169304E+04  0.61314964735E+03 0.  0.
    5000001    2    3    3    0    0 -0.27932950973E+03  0.15777750673E+03  0.29431372450E+03  0.44986051311E+03  0.11329252486E+03 0.  0.
        -11    1    4    4    0    0 -0.20226095730E+03  0.13573678364E+03  0.26363690266E+03  0.35894064374E+03  0.51100000000E-03 0. -1.
     200002    1    4    4    0    0 -0.77068552437E+02  0.22040723084E+02  0.30676821839E+02  0.90919869374E+02  0.30000000000E+02 0. -1.
     200000    1    3    3    0    0  0.25029878523E+03  0.42131210049E+02  0.53886868146E+03  0.60415641733E+03  0.10100000000E+03 0. -1.
    -200001    1    1    2    0    0  0.29030724509E+02 -0.19990871678E+03  0.27872673287E+03  0.70303902425E+03  0.61300000000E+03 0.  1.
<mgrwt>
<rscale>  0 0.13604792E+04</rscale>
<asrwt>0</asrwt>
<pdfrwt beam="1">  1        2 0.46081915E-01 0.13604792E+04</pdfrwt>
<pdfrwt beam="2">  1       -2 0.20492608E+00 0.13604792E+04</pdfrwt>
<totfact> 0.13270284E+01</totfact>
</mgrwt>
</event>
<event>
 8    1  0.6972317E-052  0.1769415E+04  0.7818608E-02  0.8722735E-01
          2   -1    0    0  501    0  0.00000000000E+00  0.00000000000E+00  0.18026212357E+04  0.18026212357E+04  0.25500000000E-02 0.  1.
         -2   -1    0    0    0  501 -0.00000000000E+00 -0.00000000000E+00 -0.43420510860E+03  0.43420510860E+03  0.25500000000E-02 0. -1.
     200001    2    1    2    0    0  0.46402142476E+03  0.42685646693E+03  0.56326475078E+03  0.10445344066E+04  0.61340249512E+03 0.  0.
    5000001    2    3    3    0    0  0.24839753845E+01  0.27131904004E+03  0.18188560094E+03  0.41774914487E+03  0.26040695956E+03 0.  0.
        -11    1    4    4    0    0 -0.29786113805E+02  0.29815446617E+03  0.20308215179E+03  0.36197466576E+03  0.51100000000E-03 0. -1.
     200002    1    4    4    0    0  0.32270089189E+02 -0.26835426133E+02 -0.21196550854E+02  0.55774479111E+02  0.30000000000E+02 0. -1.
     200000    1    3    3    0    0  0.46153744938E+03  0.15553742689E+03  0.38137914984E+03  0.62678526169E+03  0.10100000000E+03 0. -1.
    -200001    1    1    2    0    0 -0.46402142476E+03 -0.42685646693E+03  0.80515137631E+03  0.11922919377E+04  0.61300000000E+03 0.  1.
<mgrwt>
<rscale>  0 0.17694150E+04</rscale>
<asrwt>0</asrwt>
<pdfrwt beam="1">  1        2 0.25751732E+00 0.17694150E+04</pdfrwt>
<pdfrwt beam="2">  1       -2 0.62029301E-01 0.17694150E+04</pdfrwt>
<totfact> 0.23232248E+01</totfact>
</mgrwt>
</event>
<event>
 8    1  0.6972317E-052  0.1355559E+04  0.7818608E-02  0.8986631E-01
          2   -1    0    0  501    0  0.00000000000E+00  0.00000000000E+00  0.19344345139E+04  0.19344345139E+04  0.25500000000E-02 0.  1.
         -2   -1    0    0    0  501 -0.00000000000E+00 -0.00000000000E+00 -0.23747771573E+03  0.23747771575E+03  0.25500000000E-02 0. -1.
     200001    2    1    2    0    0 -0.24780410140E+03 -0.28255281514E+02  0.10831569944E+04  0.12692913609E+04  0.61291618571E+03 0.  0.
    5000001    2    3    3    0    0 -0.32402291423E+03  0.58654791438E+01  0.10843070809E+04  0.11382346692E+04  0.12178285491E+03 0.  0.
        -11    1    4    4    0    0 -0.63122582639E+02  0.40850576516E+02  0.33900264902E+03  0.34724058819E+03  0.51100000000E-03 0. -1.
     200002    1    4    4    0    0 -0.26090033160E+03 -0.34985097372E+02  0.74530443189E+03  0.79099408105E+03  0.30000000000E+02 0. -1.
     200000    1    3    3    0    0  0.76218812838E+02 -0.34120760658E+02 -0.11500864633E+01  0.13105669169E+03  0.10100000000E+03 0. -1.
    -200001    1    1    2    0    0  0.24780410140E+03  0.28255281514E+02  0.61379980373E+03  0.90262086872E+03  0.61300000000E+03 0.  1.
<mgrwt>
<rscale>  0 0.13555591E+04</rscale>
<asrwt>0</asrwt>
<pdfrwt beam="1">  1        2 0.27634779E+00 0.13555591E+04</pdfrwt>
<pdfrwt beam="2">  1       -2 0.33925388E-01 0.13555591E+04</pdfrwt>
<totfact> 0.68900995E+01</totfact>
</mgrwt>
</event>
<event>
 8    1  0.6972317E-052  0.1750105E+04  0.7818608E-02  0.8733292E-01
          2   -1    0    0  501    0  0.00000000000E+00  0.00000000000E+00  0.88865340284E+03  0.88865340284E+03  0.25500000000E-02 0.  1.
         -2   -1    0    0    0  501 -0.00000000000E+00 -0.00000000000E+00 -0.86166012404E+03  0.86166012405E+03  0.25500000000E-02 0. -1.
     200001    2    1    2    0    0  0.56383435345E+03 -0.14725266530E+03 -0.21011866296E+03  0.87191521263E+03  0.61359087340E+03 0.  0.
    5000001    2    3    3    0    0  0.61899272695E+03 -0.20720474726E+03 -0.39522121531E+02  0.65757697935E+03  0.68990451313E+02 0.  0.
        -11    1    4    4    0    0  0.24286965844E+03 -0.55910823293E+02 -0.29190416546E+02  0.25092582882E+03  0.51100000000E-03 0. -1.
     200002    1    4    4    0    0  0.37612306852E+03 -0.15129392397E+03 -0.10331704985E+02  0.40665115053E+03  0.30000000000E+02 0. -1.
     200000    1    3    3    0    0 -0.55158373500E+02  0.59952081957E+02 -0.17059654143E+03  0.21433823328E+03  0.10100000000E+03 0. -1.
    -200001    1    1    2    0    0 -0.56383435345E+03  0.14725266530E+03  0.23711194176E+03  0.87839831426E+03  0.61300000000E+03 0. -1.
<mgrwt>
<rscale>  0 0.17501054E+04</rscale>
<asrwt>0</asrwt>
<pdfrwt beam="1">  1        2 0.12695049E+00 0.17501054E+04</pdfrwt>
<pdfrwt beam="2">  1       -2 0.12309430E+00 0.17501054E+04</pdfrwt>
<totfact> 0.15670135E+01</totfact>
</mgrwt>
</event>
<event>
 8    1  0.6972317E-052  0.1473851E+04  0.7818608E-02  0.8902030E-01
          2   -1    0    0  501    0  0.00000000000E+00  0.00000000000E+00  0.12527754905E+04  0.12527754905E+04  0.25500000000E-02 0.  1.
         -2   -1    0    0    0  501 -0.00000000000E+00 -0.00000000000E+00 -0.43348472567E+03  0.43348472568E+03  0.25500000000E-02 0. -1.
     200001    2    1    2    0    0  0.31507817320E+03  0.25954739031E+03  0.37875884613E+03  0.82807814085E+03  0.61287522449E+03 0.  0.
    5000001    2    3    3    0    0  0.25736861921E+03 -0.48088015615E+02  0.34911219879E+02  0.35226081700E+03  0.23306185128E+03 0.  0.
        -11    1    4    4    0    0  0.18527881461E+03 -0.10552672037E+02 -0.85169028521E+02  0.20418952336E+03  0.51100000000E-03 0. -1.
     200002    1    4    4    0    0  0.72089804596E+02 -0.37535343578E+02  0.12008024840E+03  0.14807129364E+03  0.30000000000E+02 0. -1.
     200000    1    3    3    0    0  0.57709553990E+02  0.30763540592E+03  0.34384762625E+03  0.47581732385E+03  0.10100000000E+03 0.  1.
    -200001    1    1    2    0    0 -0.31507817320E+03 -0.25954739031E+03  0.44053191872E+03  0.85818207535E+03  0.61300000000E+03 0.  1.
<mgrwt>
<rscale>  0 0.14738508E+04</rscale>
<asrwt>0</asrwt>
<pdfrwt beam="1">  1        2 0.17896793E+00 0.14738508E+04</pdfrwt>
<pdfrwt beam="2">  1       -2 0.61926389E-01 0.14738508E+04</pdfrwt>
<totfact> 0.46841475E+01</totfact>
</mgrwt>
</event>
<event>
 8    1  0.6972317E-052  0.1371565E+04  0.7818608E-02  0.8974662E-01
          2   -1    0    0  501    0  0.00000000000E+00  0.00000000000E+00  0.65966340923E+03  0.65966340924E+03  0.25500000000E-02 0.  1.
         -2   -1    0    0    0  501 -0.00000000000E+00 -0.00000000000E+00 -0.71293605786E+03  0.71293605786E+03  0.25500000000E-02 0. -1.
     200001    2    1    2    0    0 -0.74977269293E+02  0.19686161713E+03 -0.26159916044E+03  0.69175805918E+03  0.60474705827E+03 0.  0.
    5000001    2    3    3    0    0 -0.19673885082E+03  0.13624027325E+02  0.95600340734E+02  0.26025559025E+03  0.14036294941E+03 0.  0.
        -11    1    4    4    0    0 -0.15672717859E+03 -0.19355332668E+02  0.11711335327E+03  0.19660512436E+03  0.51100000000E-03 0. -1.
     200002    1    4    4    0    0 -0.40011672221E+02  0.32979359993E+02 -0.21513012532E+02  0.63650465888E+02  0.30000000000E+02 0. -1.
     200000    1    3    3    0    0  0.12176158152E+03  0.18323758980E+03 -0.35719950117E+03  0.43150246893E+03  0.10100000000E+03 0. -1.
    -200001    1    1    2    0    0  0.74977269293E+02 -0.19686161713E+03  0.20832651182E+03  0.68084140792E+03  0.61300000000E+03 0.  1.
<mgrwt>
<rscale>  0 0.13715653E+04</rscale>
<asrwt>0</asrwt>
<pdfrwt beam="1">  1        2 0.94237630E-01 0.13715653E+04</pdfrwt>
<pdfrwt beam="2">  1       -2 0.10184801E+00 0.13715653E+04</pdfrwt>
<totfact> 0.37401018E+01</totfact>
</mgrwt>
</event>
<event>
 8    1  0.6972317E-052  0.1410816E+04  0.7818608E-02  0.8946027E-01
         -2   -1    0    0    0  501 -0.00000000000E+00  0.00000000000E+00  0.37116716698E+03  0.37116716699E+03  0.25500000000E-02 0. -1.
          2   -1    0    0  501    0  0.00000000000E+00 -0.00000000000E+00 -0.13406366744E+04  0.13406366744E+04  0.25500000000E-02 0.  1.
     200001    2    1    2    0    0  0.32917201346E+03 -0.45877037742E+02 -0.35523981079E+03  0.78255358594E+03  0.61297298037E+03 0.  0.
    5000001    2    3    3    0    0 -0.42224797461E+02  0.12980116402E+03 -0.32050352134E+03  0.35804677617E+03  0.82726725003E+02 0.  0.
        -11    1    4    4    0    0 -0.40280611105E+02  0.19489985487E+02 -0.77540180406E+02  0.89525788145E+02  0.51100000000E-03 0. -1.
     200002    1    4    4    0    0 -0.19441863560E+01  0.11031117853E+03 -0.24296334094E+03  0.26852098802E+03  0.30000000000E+02 0. -1.
     200000    1    3    3    0    0  0.37139681092E+03 -0.17567820176E+03 -0.34736289445E+02  0.42450680977E+03  0.10100000000E+03 0. -1.
    -200001    1    1    2    0    0 -0.32917201346E+03  0.45877037742E+02 -0.61422969663E+03  0.92925025546E+03  0.61300000000E+03 0. -1.
<mgrwt>
<rscale>  0 0.14108158E+04</rscale>
<asrwt>0</asrwt>
<pdfrwt beam="1">  1        2 0.19151952E+00 0.14108158E+04</pdfrwt>
<pdfrwt beam="2">  1       -2 0.53023882E-01 0.14108158E+04</pdfrwt>
<totfact> 0.58210222E+01</totfact>
</mgrwt>
</event>
<event>
 8    1  0.6972317E-052  0.1480123E+04  0.7818608E-02  0.8897780E-01
          2   -1    0    0  501    0  0.00000000000E+00  0.00000000000E+00  0.16504318015E+04  0.16504318015E+04  0.25500000000E-02 0.  1.
         -2   -1    0    0    0  501 -0.00000000000E+00 -0.00000000000E+00 -0.33184710645E+03  0.33184710646E+03  0.25500000000E-02 0. -1.
     200001    2    1    2    0    0 -0.64386155628E+02 -0.31780798021E+03  0.10053237843E+04  0.12213262895E+04  0.61303711539E+03 0.  0.
    5000001    2    3    3    0    0 -0.29662162232E+03 -0.51707000648E+02  0.58218107500E+03  0.66097479647E+03  0.85410050591E+02 0.  0.
        -11    1    4    4    0    0 -0.18456079128E+03 -0.57472237959E+02  0.31412656575E+03  0.36883769211E+03  0.51100000000E-03 0. -1.
     200002    1    4    4    0    0 -0.11206083104E+03  0.57652373107E+01  0.26805450925E+03  0.29213710436E+03  0.30000000000E+02 0. -1.
     200000    1    3    3    0    0  0.23223546669E+03 -0.26610097956E+03  0.42314270926E+03  0.56035149301E+03  0.10100000000E+03 0. -1.
    -200001    1    1    2    0    0  0.64386155628E+02  0.31780798021E+03  0.31326091076E+03  0.76095261845E+03  0.61300000000E+03 0. -1.
<mgrwt>
<rscale>  0 0.14801230E+04</rscale>
<asrwt>0</asrwt>
<pdfrwt beam="1">  1        2 0.23577597E+00 0.14801230E+04</pdfrwt>
<pdfrwt beam="2">  1       -2 0.47406731E-01 0.14801230E+04</pdfrwt>
<totfact> 0.49735429E+01</totfact>
</mgrwt>
</event>
<event>
 8    1  0.6972317E-052  0.1407882E+04  0.7818608E-02  0.8948133E-01
          2   -1    0    0  501    0  0.00000000000E+00  0.00000000000E+00  0.56558407226E+03  0.56558407226E+03  0.25500000000E-02 0.  1.
         -2   -1    0    0    0  501 -0.00000000000E+00 -0.00000000000E+00 -0.87614416380E+03  0.87614416381E+03  0.25500000000E-02 0. -1.
     200001    2    1    2    0    0  0.53605164288E+01  0.58354442239E+02 -0.50411955701E+03  0.79622979088E+03  0.61352373717E+03 0.  0.
    5000001    2    3    3    0    0  0.23919899402E+03 -0.10869850733E+03 -0.31631270181E+03  0.43837571947E+03  0.15194743124E+03 0.  0.
        -11    1    4    4    0    0  0.45325403007E+02 -0.96899558064E+02 -0.11179393902E+03  0.15473138438E+03  0.51100000000E-03 0. -1.
     200002    1    4    4    0    0  0.19387359102E+03 -0.11798949267E+02 -0.20451876279E+03  0.28364433509E+03  0.30000000000E+02 0. -1.
     200000    1    3    3    0    0 -0.23383847760E+03  0.16705294957E+03 -0.18780685520E+03  0.35785407141E+03  0.10100000000E+03 0. -1.
    -200001    1    1    2    0    0 -0.53605164288E+01 -0.58354442239E+02  0.19355946547E+03  0.64549844519E+03  0.61300000000E+03 0.  1.
<mgrwt>
<rscale>  0 0.14078824E+04</rscale>
<asrwt>0</asrwt>
<pdfrwt beam="1">  1        2 0.80797724E-01 0.14078824E+04</pdfrwt>
<pdfrwt beam="2">  1       -2 0.12516345E+00 0.14078824E+04</pdfrwt>
<totfact> 0.27088450E+01</totfact>
</mgrwt>
</event>
<event>
 8    1  0.6972317E-052  0.2405554E+04  0.7818608E-02  0.8437427E-01
          2   -1    0    0  501    0  0.00000000000E+00  0.00000000000E+00  0.30357512686E+04  0.30357512686E+04  0.25500000000E-02 0.  1.
         -2   -1    0    0    0  501 -0.00000000000E+00 -0.00000000000E+00 -0.47654507614E+03  0.47654507615E+03  0.25500000000E-02 0. -1.
     200001    2    1    2    0    0 -0.22151400988E+03  0.48864216235E+03 -0.10755459458E+02  0.81631572321E+03  0.61515531426E+03 0.  0.
    5000001    2    3    3    0    0 -0.28007599692E+03  0.58947539294E+03 -0.77790468797E+01  0.66202150508E+03  0.11085195843E+03 0.  0.
        -11    1    4    4    0    0 -0.10800956862E+03  0.33797878140E+03  0.13593859381E+02  0.35507818379E+03  0.51100000000E-03 0. -1.
     200002    1    4    4    0    0 -0.17206642830E+03  0.25149661154E+03 -0.21372906260E+02  0.30694332129E+03  0.30000000000E+02 0. -1.
     200000    1    3    3    0    0  0.58561987046E+02 -0.10083323059E+03 -0.29764125788E+01  0.15429421813E+03  0.10100000000E+03 0.  1.
    -200001    1    1    2    0    0  0.22151400988E+03 -0.48864216235E+03  0.25699616519E+04  0.26959806215E+04  0.61300000000E+03 0.  1.
<mgrwt>
<rscale>  0 0.24055538E+04</rscale>
<asrwt>0</asrwt>
<pdfrwt beam="1">  1        2 0.43367877E+00 0.24055538E+04</pdfrwt>
<pdfrwt beam="2">  1       -2 0.68077865E-01 0.24055538E+04</pdfrwt>
<totfact> 0.40178059E+00</totfact>
</mgrwt>
</event>
<event>
 8    1  0.6972317E-052  0.2195234E+04  0.7818608E-02  0.8520415E-01
          2   -1    0    0  501    0  0.00000000000E+00  0.00000000000E+00  0.21686523672E+04  0.21686523672E+04  0.25500000000E-02 0.  1.
         -2   -1    0    0    0  501 -0.00000000000E+00 -0.00000000000E+00 -0.55553513782E+03  0.55553513782E+03  0.25500000000E-02 0. -1.
     200001    2    1    2    0    0 -0.17432295521E+03  0.15913802879E+03 -0.28367835026E+03  0.71687191552E+03  0.61458809941E+03 0.  0.
    5000001    2    3    3    0    0 -0.11162953541E+03 -0.32036255733E+02 -0.34711129631E+03  0.48298559572E+03  0.31512118112E+03 0.  0.
        -11    1    4    4    0    0 -0.48560559088E+02 -0.38786477140E+02 -0.39382057694E+03  0.39869432593E+03  0.51100000000E-03 0. -1.
     200002    1    4    4    0    0 -0.63068976327E+02  0.67502214064E+01  0.46709280639E+02  0.84291269784E+02  0.30000000000E+02 0. -1.
     200000    1    3    3    0    0 -0.62693419795E+02  0.19117428452E+03  0.63432946049E+02  0.23388631980E+03  0.10100000000E+03 0.  1.
    -200001    1    1    2    0    0  0.17432295521E+03 -0.15913802879E+03  0.18967955796E+04  0.20073155895E+04  0.61300000000E+03 0.  1.
<mgrwt>
<rscale>  0 0.21952336E+04</rscale>
<asrwt>0</asrwt>
<pdfrwt beam="1">  1        2 0.30980749E+00 0.21952336E+04</pdfrwt>
<pdfrwt beam="2">  1       -2 0.79362161E-01 0.21952336E+04</pdfrwt>
<totfact> 0.84868814E+00</totfact>
</mgrwt>
</event>
<event>
 8    1  0.6972317E-052  0.1536863E+04  0.7818608E-02  0.8860303E-01
         -2   -1    0    0    0  501 -0.00000000000E+00  0.00000000000E+00  0.39974033854E+03  0.39974033855E+03  0.25500000000E-02 0. -1.
          2   -1    0    0  501    0  0.00000000000E+00 -0.00000000000E+00 -0.14771758899E+04  0.14771758899E+04  0.25500000000E-02 0.  1.
     200001    2    1    2    0    0 -0.23674942258E+03  0.25322062906E+03 -0.15963387597E+03  0.72006710629E+03  0.61060845649E+03 0.  0.
    5000001    2    3    3    0    0 -0.69651307502E+02  0.15254871591E+03  0.21492758005E+03  0.28583917249E+03  0.85952036083E+02 0.  0.
        -11    1    4    4    0    0 -0.77733096737E+02  0.10847376718E+03  0.16632086619E+03  0.21324076305E+03  0.51100000000E-03 0. -1.
     200002    1    4    4    0    0  0.80817892344E+01  0.44074948728E+02  0.48606713855E+02  0.72598409448E+02  0.30000000000E+02 0.  1.
     200000    1    3    3    0    0 -0.16709811508E+03  0.10067191315E+03 -0.37456145601E+03  0.43422793380E+03  0.10100000000E+03 0.  1.
    -200001    1    1    2    0    0  0.23674942258E+03 -0.25322062906E+03 -0.91780167535E+03  0.11568491221E+04  0.61300000000E+03 0.  1.
<mgrwt>
<rscale>  0 0.15368628E+04</rscale>
<asrwt>0</asrwt>
<pdfrwt beam="1">  1        2 0.21102512E+00 0.15368628E+04</pdfrwt>
<pdfrwt beam="2">  1       -2 0.57105763E-01 0.15368628E+04</pdfrwt>
<totfact> 0.41703914E+01</totfact>
</mgrwt>
</event>
<event>
 8    1  0.6972317E-052  0.2185867E+04  0.7818608E-02  0.8524334E-01
         -2   -1    0    0    0  501 -0.00000000000E+00  0.00000000000E+00  0.40665063516E+03  0.40665063516E+03  0.25500000000E-02 0. -1.
          2   -1    0    0  501    0  0.00000000000E+00 -0.00000000000E+00 -0.29374199802E+04  0.29374199802E+04  0.25500000000E-02 0.  1.
     200001    2    1    2    0    0  0.37593255150E+02 -0.85664699667E+03 -0.82394513768E+03  0.13380109940E+04  0.61329479072E+03 0.  0.
    5000001    2    3    3    0    0 -0.15540288752E+03 -0.44089262948E+03 -0.11685924641E+03  0.48932338208E+03  0.85117099361E+02 0.  0.
        -11    1    4    4    0    0 -0.85961665302E+02 -0.31728665733E+03 -0.99013579872E+02  0.34331315125E+03  0.51100000000E-03 0. -1.
     200002    1    4    4    0    0 -0.69441222217E+02 -0.12360597215E+03 -0.17845666534E+02  0.14601023083E+03  0.30000000000E+02 0. -1.
     200000    1    3    3    0    0  0.19299614267E+03 -0.41575436719E+03 -0.70708589128E+03  0.84868761188E+03  0.10100000000E+03 0.  1.
    -200001    1    1    2    0    0 -0.37593255150E+02  0.85664699667E+03 -0.17068242073E+04  0.20060596213E+04  0.61300000000E+03 0. -1.
<mgrwt>
<rscale>  0 0.21858671E+04</rscale>
<asrwt>0</asrwt>
<pdfrwt beam="1">  1        2 0.41963141E+00 0.21858671E+04</pdfrwt>
<pdfrwt beam="2">  1       -2 0.58092949E-01 0.21858671E+04</pdfrwt>
<totfact> 0.65154902E+00</totfact>
</mgrwt>
</event>
<event>
 8    1  0.6972317E-052  0.1399481E+04  0.7818608E-02  0.8954194E-01
          2   -1    0    0  501    0  0.00000000000E+00  0.00000000000E+00  0.16697803978E+04  0.16697803978E+04  0.25500000000E-02 0.  1.
         -2   -1    0    0    0  501 -0.00000000000E+00 -0.00000000000E+00 -0.29323428781E+03  0.29323428782E+03  0.25500000000E-02 0. -1.
     200001    2    1    2    0    0  0.66829031622E+02 -0.10202230080E+02  0.11410735257E+04  0.13028733804E+04  0.62518801119E+03 0.  0.
    5000001    2    3    3    0    0  0.20588221769E+03  0.41989408134E+02  0.97496156803E+02  0.24395200441E+03  0.76527654520E+02 0.  0.
        -11    1    4    4    0    0  0.13015446940E+02 -0.65359877248E+01 -0.82301000587E+01  0.16728883460E+02  0.51100000000E-03 0. -1.
     200002    1    4    4    0    0  0.19286677075E+03  0.48525395859E+02  0.10572625686E+03  0.22722312095E+03  0.30000000000E+02 0. -1.
     200000    1    3    3    0    0 -0.13905318607E+03 -0.52191638214E+02  0.10435773689E+04  0.10589213760E+04  0.10100000000E+03 0. -1.
    -200001    1    1    2    0    0 -0.66829031622E+02  0.10202230080E+02  0.23547258435E+03  0.66014130529E+03  0.61300000000E+03 0. -1.
<mgrwt>
<rscale>  0 0.13994811E+04</rscale>
<asrwt>0</asrwt>
<pdfrwt beam="1">  1        2 0.23854006E+00 0.13994811E+04</pdfrwt>
<pdfrwt beam="2">  1       -2 0.41890612E-01 0.13994811E+04</pdfrwt>
<totfact> 0.62560150E+01</totfact>
</mgrwt>
</event>
<event>
 8    1  0.6972317E-052  0.1323269E+04  0.7818608E-02  0.9011314E-01
         -2   -1    0    0    0  501 -0.00000000000E+00  0.00000000000E+00  0.25598158679E+03  0.25598158681E+03  0.25500000000E-02 0. -1.
          2   -1    0    0  501    0  0.00000000000E+00 -0.00000000000E+00 -0.17101228896E+04  0.17101228896E+04  0.25500000000E-02 0.  1.
     200001    2    1    2    0    0  0.60563573106E+02 -0.19783954335E+03 -0.93201281712E+03  0.11347227429E+04  0.61330203052E+03 0.  0.
    5000001    2    3    3    0    0  0.29895757803E+03 -0.21717304453E+03 -0.59300294292E+03  0.70771667659E+03  0.11256393416E+03 0.  0.
        -11    1    4    4    0    0  0.27569290304E+02 -0.69768059706E+02 -0.96485980374E+02  0.12221780694E+03  0.51100000000E-03 0. -1.
     200002    1    4    4    0    0  0.27138828772E+03 -0.14740498483E+03 -0.49651696255E+03  0.58549886965E+03  0.30000000000E+02 0. -1.
     200000    1    3    3    0    0 -0.23839400492E+03  0.19333501183E+02 -0.33900987419E+03  0.42700606629E+03  0.10100000000E+03 0.  1.
    -200001    1    1    2    0    0 -0.60563573106E+02  0.19783954335E+03 -0.52212848574E+03  0.83138173357E+03  0.61300000000E+03 0. -1.
<mgrwt>
<rscale>  0 0.13232686E+04</rscale>
<asrwt>0</asrwt>
<pdfrwt beam="1">  1        2 0.24430326E+00 0.13232686E+04</pdfrwt>
<pdfrwt beam="2">  1       -2 0.36568799E-01 0.13232686E+04</pdfrwt>
<totfact> 0.78095428E+01</totfact>
</mgrwt>
</event>
<event>
 8    1  0.6972317E-052  0.2473591E+04  0.7818608E-02  0.8412455E-01
         -2   -1    0    0    0  501 -0.00000000000E+00  0.00000000000E+00  0.43407020408E+03  0.43407020409E+03  0.25500000000E-02 0. -1.
          2   -1    0    0  501    0  0.00000000000E+00 -0.00000000000E+00 -0.35239994170E+04  0.35239994170E+04  0.25500000000E-02 0.  1.
     200001    2    1    2    0    0  0.86836194535E+03 -0.46035352559E+03 -0.22387954146E+04  0.25206498566E+04  0.61277479912E+03 0.  0.
    5000001    2    3    3    0    0  0.82563714942E+02 -0.22127910716E+03 -0.96082727642E+03  0.99813910173E+03  0.13157279735E+03 0.  0.
        -11    1    4    4    0    0  0.44096874383E+02 -0.19112696170E+03 -0.86054925333E+03  0.88262056810E+03  0.51100000000E-03 0. -1.
     200002    1    4    4    0    0  0.38466840559E+02 -0.30152145452E+02 -0.10027802309E+03  0.11551853363E+03  0.30000000000E+02 0. -1.
     200000    1    3    3    0    0  0.78579823041E+03 -0.23907441843E+03 -0.12779681382E+04  0.15225107549E+04  0.10100000000E+03 0.  1.
    -200001    1    1    2    0    0 -0.86836194535E+03  0.46035352559E+03 -0.85113379823E+03  0.14374197644E+04  0.61300000000E+03 0.  1.
<mgrwt>
<rscale>  0 0.24735910E+04</rscale>
<asrwt>0</asrwt>
<pdfrwt beam="1">  1        2 0.50342847E+00 0.24735910E+04</pdfrwt>
<pdfrwt beam="2">  1       -2 0.62010031E-01 0.24735910E+04</pdfrwt>
<totfact> 0.25219806E+00</totfact>
</mgrwt>
</event>
<event>
 8    1  0.6972317E-052  0.1517758E+04  0.7818608E-02  0.8872729E-01
          2   -1    0    0  501    0  0.00000000000E+00  0.00000000000E+00  0.92443092951E+03  0.92443092951E+03  0.25500000000E-02 0.  1.
         -2   -1    0    0    0  501 -0.00000000000E+00 -0.00000000000E+00 -0.62297491376E+03  0.62297491376E+03  0.25500000000E-02 0. -1.
     200001    2    1    2    0    0 -0.36933731602E+02 -0.69345708744E+02 -0.29826075449E+03  0.68624259954E+03  0.61302243018E+03 0.  0.
    5000001    2    3    3    0    0  0.67569452423E+02 -0.16873948673E+03  0.12448183152E+03  0.22829900847E+03  0.59883767493E+02 0.  0.
        -11    1    4    4    0    0  0.41601913112E+02 -0.11472507930E+03  0.62946230895E+02  0.13731274879E+03  0.51100000000E-03 0. -1.
     200002    1    4    4    0    0  0.25967539311E+02 -0.54014407430E+02  0.61535600623E+02  0.90986259688E+02  0.30000000000E+02 0. -1.
     200000    1    3    3    0    0 -0.10450318402E+03  0.99393777986E+02 -0.42274258601E+03  0.45794359107E+03  0.10100000000E+03 0. -1.
    -200001    1    1    2    0    0  0.36933731602E+02  0.69345708744E+02  0.59971677024E+03  0.86116324373E+03  0.61300000000E+03 0.  1.
<mgrwt>
<rscale>  0 0.15177579E+04</rscale>
<asrwt>0</asrwt>
<pdfrwt beam="1">  1        2 0.13206156E+00 0.15177579E+04</pdfrwt>
<pdfrwt beam="2">  1       -2 0.88996415E-01 0.15177579E+04</pdfrwt>
<totfact> 0.32879334E+01</totfact>
</mgrwt>
</event>
<event>
 8    1  0.6972317E-052  0.1376921E+04  0.7818608E-02  0.8970696E-01
          2   -1    0    0  501    0  0.00000000000E+00  0.00000000000E+00  0.37129756939E+03  0.37129756939E+03  0.25500000000E-02 0.  1.
         -2   -1    0    0    0  501 -0.00000000000E+00 -0.00000000000E+00 -0.12765438953E+04  0.12765438953E+04  0.25500000000E-02 0. -1.
     200001    2    1    2    0    0 -0.18477662529E+03  0.33034519089E+01 -0.14622476997E+03  0.65484799220E+03  0.61097536406E+03 0.  0.
    5000001    2    3    3    0    0  0.55285878951E+02  0.22774825701E+03 -0.18341346948E+03  0.30903087890E+03  0.83269360172E+02 0.  0.
        -11    1    4    4    0    0  0.43316045430E+02  0.17766389296E+03 -0.16591677452E+03  0.24691924737E+03  0.51100000000E-03 0. -1.
     200002    1    4    4    0    0  0.11969833520E+02  0.50084364049E+02 -0.17496694960E+02  0.62111631529E+02  0.30000000000E+02 0.  1.
     200000    1    3    3    0    0 -0.24006250424E+03 -0.22444480510E+03  0.37188699512E+02  0.34581711330E+03  0.10100000000E+03 0.  1.
    -200001    1    1    2    0    0  0.18477662529E+03 -0.33034519089E+01 -0.75902155596E+03  0.99299347251E+03  0.61300000000E+03 0. -1.
<mgrwt>
<rscale>  0 0.13769207E+04</rscale>
<asrwt>0</asrwt>
<pdfrwt beam="1">  1        2 0.53042510E-01 0.13769207E+04</pdfrwt>
<pdfrwt beam="2">  1       -2 0.18236341E+00 0.13769207E+04</pdfrwt>
<totfact> 0.16015507E+01</totfact>
</mgrwt>
</event>
<event>
 8    1  0.6972317E-052  0.1642461E+04  0.7818608E-02  0.8794879E-01
         -2   -1    0    0    0  501 -0.00000000000E+00  0.00000000000E+00  0.18201324357E+03  0.18201324359E+03  0.25500000000E-02 0. -1.
          2   -1    0    0  501    0  0.00000000000E+00 -0.00000000000E+00 -0.37053314883E+04  0.37053314883E+04  0.25500000000E-02 0.  1.
     200001    2    1    2    0    0 -0.51560032830E+03 -0.44218728421E+02 -0.21788015586E+04  0.23216841321E+04  0.61256998208E+03 0.  0.
    5000001    2    3    3    0    0 -0.26845608969E+03  0.20636185162E+03 -0.56778055166E+03  0.66957620990E+03  0.10631867247E+03 0.  0.
        -11    1    4    4    0    0 -0.23970969541E+03  0.15233154627E+03 -0.42233548772E+03  0.50895275051E+03  0.51100000000E-03 0. -1.
     200002    1    4    4    0    0 -0.28746394285E+02  0.54030305355E+02 -0.14544506394E+03  0.16062345939E+03  0.30000000000E+02 0.  1.
     200000    1    3    3    0    0 -0.24714423861E+03 -0.25058058004E+03 -0.16110210070E+04  0.16521079222E+04  0.10100000000E+03 0.  1.
    -200001    1    1    2    0    0  0.51560032830E+03  0.44218728421E+02 -0.13445166861E+04  0.15656605998E+04  0.61300000000E+03 0. -1.
<mgrwt>
<rscale>  0 0.16424608E+04</rscale>
<asrwt>0</asrwt>
<pdfrwt beam="1">  1        2 0.52933302E+00 0.16424608E+04</pdfrwt>
<pdfrwt beam="2">  1       -2 0.26001894E-01 0.16424608E+04</pdfrwt>
<totfact> 0.11547834E+01</totfact>
</mgrwt>
</event>
<event>
 8    1  0.6972317E-052  0.1511560E+04  0.7818608E-02  0.8876802E-01
         -2   -1    0    0    0  501 -0.00000000000E+00  0.00000000000E+00  0.13897746192E+03  0.13897746194E+03  0.25500000000E-02 0. -1.
          2   -1    0    0  501    0  0.00000000000E+00 -0.00000000000E+00 -0.41100414515E+04  0.41100414515E+04  0.25500000000E-02 0.  1.
     200001    2    1    2    0    0  0.28377460429E+03 -0.23476207427E+02 -0.10350926729E+04  0.12362501319E+04  0.61304028324E+03 0.  0.
    5000001    2    3    3    0    0  0.43718375883E+03  0.76102478678E+02 -0.57699329839E+03  0.73275602041E+03  0.84195562876E+02 0.  0.
        -11    1    4    4    0    0  0.89047418715E+02 -0.14764139876E+02 -0.12744416348E+03  0.15617117984E+03  0.51100000000E-03 0. -1.
     200002    1    4    4    0    0  0.34813634012E+03  0.90866618553E+02 -0.44954913491E+03  0.57658484057E+03  0.30000000000E+02 0. -1.
     200000    1    3    3    0    0 -0.15340915454E+03 -0.99578686105E+02 -0.45809937449E+03  0.50349411152E+03  0.10100000000E+03 0.  1.
    -200001    1    1    2    0    0 -0.28377460429E+03  0.23476207427E+02 -0.29359713167E+04  0.30127687815E+04  0.61300000000E+03 0.  1.
<mgrwt>
<rscale>  0 0.15115596E+04</rscale>
<asrwt>0</asrwt>
<pdfrwt beam="1">  1        2 0.58714871E+00 0.15115596E+04</pdfrwt>
<pdfrwt beam="2">  1       -2 0.19853926E-01 0.15115596E+04</pdfrwt>
<totfact> 0.10184849E+01</totfact>
</mgrwt>
</event>
<event>
 8    1  0.6972317E-052  0.1940654E+04  0.7818608E-02  0.8634881E-01
         -2   -1    0    0    0  501 -0.00000000000E+00  0.00000000000E+00  0.46001130016E+03  0.46001130017E+03  0.25500000000E-02 0. -1.
          2   -1    0    0  501    0  0.00000000000E+00 -0.00000000000E+00 -0.20467637235E+04  0.20467637235E+04  0.25500000000E-02 0.  1.
     200001    2    1    2    0    0  0.20301420689E+03  0.57005070888E+03 -0.13701914200E+04  0.16186082336E+04  0.61342930108E+03 0.  0.
    5000001    2    3    3    0    0  0.23994328640E+02  0.23927561124E+03 -0.10834866293E+03  0.29803698384E+03  0.13877343059E+03 0.  0.
        -11    1    4    4    0    0  0.44196613656E+02  0.21148989410E+03 -0.46190591353E+02  0.22094091222E+03  0.51100000000E-03 0. -1.
     200002    1    4    4    0    0 -0.20202285016E+02  0.27785717147E+02 -0.62158071577E+02  0.77096071621E+02  0.30000000000E+02 0.  1.
     200000    1    3    3    0    0  0.17901987825E+03  0.33077509764E+03 -0.12618427571E+04  0.13205712497E+04  0.10100000000E+03 0.  1.
    -200001    1    1    2    0    0 -0.20301420689E+03 -0.57005070888E+03 -0.21656100335E+03  0.88816679012E+03  0.61300000000E+03 0. -1.
<mgrwt>
<rscale>  0 0.19406540E+04</rscale>
<asrwt>0</asrwt>
<pdfrwt beam="1">  1        2 0.29239481E+00 0.19406540E+04</pdfrwt>
<pdfrwt beam="2">  1       -2 0.65715901E-01 0.19406540E+04</pdfrwt>
<totfact> 0.15158075E+01</totfact>
</mgrwt>
</event>
<event>
 8    1  0.6972317E-052  0.1491692E+04  0.7818608E-02  0.8889996E-01
         -2   -1    0    0    0  501 -0.00000000000E+00  0.00000000000E+00  0.11815209345E+04  0.11815209345E+04  0.25500000000E-02 0. -1.
          2   -1    0    0  501    0  0.00000000000E+00 -0.00000000000E+00 -0.47082230443E+03  0.47082230444E+03  0.25500000000E-02 0.  1.
     200001    2    1    2    0    0 -0.45976851237E+02  0.26049174575E+03  0.72373902704E+03  0.98457915459E+03  0.61288507236E+03 0.  0.
    5000001    2    3    3    0    0  0.12300026101E+03  0.38894489820E+03  0.52458061100E+03  0.67649060966E+03  0.12667884384E+03 0.  0.
        -11    1    4    4    0    0  0.64820846506E+02  0.32557916426E+03  0.44726852026E+03  0.55700328864E+03  0.51100000000E-03 0. -1.
     200002    1    4    4    0    0  0.58179414502E+02  0.63365733941E+02  0.77312090738E+02  0.11948732102E+03  0.30000000000E+02 0. -1.
     200000    1    3    3    0    0 -0.16897711224E+03 -0.12845315244E+03  0.19915841604E+03  0.30808854493E+03  0.10100000000E+03 0.  1.
    -200001    1    1    2    0    0  0.45976851237E+02 -0.26049174575E+03 -0.13040396940E+02  0.66776408439E+03  0.61300000000E+03 0.  1.
<mgrwt>
<rscale>  0 0.14916922E+04</rscale>
<asrwt>0</asrwt>
<pdfrwt beam="1">  1        2 0.67260330E-01 0.14916922E+04</pdfrwt>
<pdfrwt beam="2">  1       -2 0.16878870E+00 0.14916922E+04</pdfrwt>
<totfact> 0.15133399E+01</totfact>
</mgrwt>
</event>
<event>
 8    1  0.6972317E-052  0.1995387E+04  0.7818608E-02  0.8608780E-01
         -2   -1    0    0    0  501 -0.00000000000E+00  0.00000000000E+00  0.43179041883E+03  0.43179041884E+03  0.25500000000E-02 0. -1.
          2   -1    0    0  501    0  0.00000000000E+00 -0.00000000000E+00 -0.23052682128E+04  0.23052682128E+04  0.25500000000E-02 0.  1.
     200001    2    1    2    0    0 -0.72187687859E+03 -0.18833383635E+03 -0.59138935276E+03  0.11320366278E+04  0.61252730415E+03 0.  0.
    5000001    2    3    3    0    0 -0.57236923410E+02 -0.16258820576E+03 -0.38414722631E+03  0.42807682318E+03  0.77263736715E+02 0.  0.
        -11    1    4    4    0    0  0.83746990652E+01 -0.13679899400E+02 -0.98129935113E+01  0.18803459095E+02  0.51100000000E-03 0. -1.
     200002    1    4    4    0    0 -0.65611622475E+02 -0.14890830636E+03 -0.37433423280E+03  0.40927336409E+03  0.30000000000E+02 0. -1.
     200000    1    3    3    0    0 -0.66463995518E+03 -0.25745630588E+02 -0.20724212645E+03  0.70395980460E+03  0.10100000000E+03 0. -1.
    -200001    1    1    2    0    0  0.72187687859E+03  0.18833383635E+03 -0.12820884412E+04  0.16050220038E+04  0.61300000000E+03 0.  1.
<mgrwt>
<rscale>  0 0.19953874E+04</rscale>
<asrwt>0</asrwt>
<pdfrwt beam="1">  1        2 0.32932402E+00 0.19953874E+04</pdfrwt>
<pdfrwt beam="2">  1       -2 0.61684347E-01 0.19953874E+04</pdfrwt>
<totfact> 0.12702484E+01</totfact>
</mgrwt>
</event>
<event>
 8    1  0.6972317E-052  0.1623873E+04  0.7818608E-02  0.8806015E-01
          2   -1    0    0  501    0  0.00000000000E+00  0.00000000000E+00  0.36765761714E+03  0.36765761715E+03  0.25500000000E-02 0.  1.
         -2   -1    0    0    0  501 -0.00000000000E+00 -0.00000000000E+00 -0.17930832221E+04  0.17930832221E+04  0.25500000000E-02 0. -1.
     200001    2    1    2    0    0  0.15200690147E+03  0.16022630700E+03 -0.13577090332E+04  0.15056583241E+04  0.61225370777E+03 0.  0.
    5000001    2    3    3    0    0 -0.18463725119E+03  0.11037713375E+03 -0.87879946791E+03  0.90952948125E+03  0.93173742534E+02 0.  0.
        -11    1    4    4    0    0  0.85014137870E+01  0.27953182423E+01 -0.68286615032E+02  0.68870528046E+02  0.51100000000E-03 0. -1.
     200002    1    4    4    0    0 -0.19313866498E+03  0.10758181551E+03 -0.81051285287E+03  0.84065895321E+03  0.30000000000E+02 0. -1.
     200000    1    3    3    0    0  0.33664415266E+03  0.49849173240E+02 -0.47890956530E+03  0.59612884289E+03  0.10100000000E+03 0.  1.
    -200001    1    1    2    0    0 -0.15200690147E+03 -0.16022630700E+03 -0.67716571797E+02  0.65508251514E+03  0.61300000000E+03 0.  1.
<mgrwt>
<rscale>  0 0.16238728E+04</rscale>
<asrwt>0</asrwt>
<pdfrwt beam="1">  1        2 0.52522518E-01 0.16238728E+04</pdfrwt>
<pdfrwt beam="2">  1       -2 0.25615474E+00 0.16238728E+04</pdfrwt>
<totfact> 0.53742193E+00</totfact>
</mgrwt>
</event>
<event>
 8    1  0.6972317E-052  0.1258061E+04  0.7818608E-02  0.9063500E-01
          2   -1    0    0  501    0  0.00000000000E+00  0.00000000000E+00  0.13215827119E+04  0.13215827119E+04  0.25500000000E-02 0.  1.
         -2   -1    0    0    0  501 -0.00000000000E+00 -0.00000000000E+00 -0.29939830230E+03  0.29939830231E+03  0.25500000000E-02 0. -1.
     200001    2    1    2    0    0 -0.36300814448E+02  0.88920711245E+01  0.68287924131E+03  0.91934448775E+03  0.61438864808E+03 0.  0.
    5000001    2    3    3    0    0 -0.18019605516E+03 -0.25385157800E+01 -0.17386768186E+02  0.19725724740E+03  0.78301082924E+02 0.  0.
        -11    1    4    4    0    0 -0.22047477167E+02  0.23991906756E+02  0.35590244965E+01  0.32777576098E+02  0.51100000000E-03 0. -1.
     200002    1    4    4    0    0 -0.15814857799E+03 -0.26530422536E+02 -0.20945792683E+02  0.16447967130E+03  0.30000000000E+02 0. -1.
     200000    1    3    3    0    0  0.14389524071E+03  0.11430586904E+02  0.70026600950E+03  0.72208724035E+03  0.10100000000E+03 0.  1.
    -200001    1    1    2    0    0  0.36300814448E+02 -0.88920711245E+01  0.33930516830E+03  0.70163652648E+03  0.61300000000E+03 0.  1.
<mgrwt>
<rscale>  0 0.12580614E+04</rscale>
<asrwt>0</asrwt>
<pdfrwt beam="1">  1        2 0.18879753E+00 0.12580614E+04</pdfrwt>
<pdfrwt beam="2">  1       -2 0.42771185E-01 0.12580614E+04</pdfrwt>
<totfact> 0.93013919E+01</totfact>
</mgrwt>
</event>
<event>
 8    1  0.6972317E-052  0.1483225E+04  0.7818608E-02  0.8895685E-01
         -2   -1    0    0    0  501 -0.00000000000E+00  0.00000000000E+00  0.65195377061E+03  0.65195377062E+03  0.25500000000E-02 0. -1.
          2   -1    0    0  501    0  0.00000000000E+00 -0.00000000000E+00 -0.84360149338E+03  0.84360149338E+03  0.25500000000E-02 0.  1.
     200001    2    1    2    0    0 -0.11931675384E+03  0.17906519463E+03  0.26458017780E+03  0.70169524553E+03  0.61324767870E+03 0.  0.
    5000001    2    3    3    0    0 -0.28966891347E+03  0.10996138906E+03  0.35086065396E+03  0.47489023059E+03  0.80112084567E+02 0.  0.
        -11    1    4    4    0    0 -0.15794702713E+03  0.90756768578E+02  0.17834707939E+03  0.25493476646E+03  0.51100000000E-03 0. -1.
     200002    1    4    4    0    0 -0.13172188634E+03  0.19204620482E+02  0.17251357457E+03  0.21995546413E+03  0.30000000000E+02 0.  1.
     200000    1    3    3    0    0  0.17035215963E+03  0.69103805569E+02 -0.86280476159E+02  0.22680501494E+03  0.10100000000E+03 0.  1.
    -200001    1    1    2    0    0  0.11931675384E+03 -0.17906519463E+03 -0.45622790057E+03  0.79386001847E+03  0.61300000000E+03 0.  1.
<mgrwt>
<rscale>  0 0.14832251E+04</rscale>
<asrwt>0</asrwt>
<pdfrwt beam="1">  1        2 0.12051450E+00 0.14832251E+04</pdfrwt>
<pdfrwt beam="2">  1       -2 0.93136254E-01 0.14832251E+04</pdfrwt>
<totfact> 0.33558527E+01</totfact>
</mgrwt>
</event>
<event>
 8    1  0.6972317E-052  0.1392279E+04  0.7818608E-02  0.8959427E-01
          2   -1    0    0  501    0  0.00000000000E+00  0.00000000000E+00  0.14101040746E+04  0.14101040746E+04  0.25500000000E-02 0. -1.
         -2   -1    0    0    0  501 -0.00000000000E+00 -0.00000000000E+00 -0.34366957858E+03  0.34366957859E+03  0.25500000000E-02 0.  1.
     200001    2    1    2    0    0 -0.32240823968E+03  0.62535907465E+02  0.49172618212E+03  0.85160046649E+03  0.61283839927E+03 0.  0.
    5000001    2    3    3    0    0 -0.26823570352E+00  0.31131017858E+02 -0.11034477939E+03  0.16062225269E+03  0.11249144633E+03 0.  0.
        -11    1    4    4    0    0 -0.58691192825E+01  0.34626688952E+02  0.99214652923E+01  0.36495062991E+02  0.51100000000E-03 0. -1.
     200002    1    4    4    0    0  0.56008835790E+01 -0.34956710933E+01 -0.12026624468E+03  0.12412718970E+03  0.30000000000E+02 0. -1.
     200000    1    3    3    0    0 -0.32214000398E+03  0.31404889607E+02  0.60207096151E+03  0.69097821380E+03  0.10100000000E+03 0.  1.
    -200001    1    1    2    0    0  0.32240823968E+03 -0.62535907465E+02  0.57470831392E+03  0.90217318672E+03  0.61300000000E+03 0. -1.
<mgrwt>
<rscale>  0 0.13922785E+04</rscale>
<asrwt>0</asrwt>
<pdfrwt beam="1">  1        2 0.20144345E+00 0.13922785E+04</pdfrwt>
<pdfrwt beam="2">  1       -2 0.49095652E-01 0.13922785E+04</pdfrwt>
<totfact> 0.62538961E+01</totfact>
</mgrwt>
</event>
<event>
 8    1  0.6972317E-052  0.1422858E+04  0.7818608E-02  0.8937437E-01
          2   -1    0    0  501    0  0.00000000000E+00  0.00000000000E+00  0.25137368482E+04  0.25137368482E+04  0.25500000000E-02 0.  1.
         -2   -1    0    0    0  501 -0.00000000000E+00 -0.00000000000E+00 -0.20134607863E+03  0.20134607864E+03  0.25500000000E-02 0. -1.
     200001    2    1    2    0    0 -0.40409684894E+02  0.27890247788E+03  0.72517908373E+03  0.99042949195E+03  0.61289994310E+03 0.  0.
    5000001    2    3    3    0    0 -0.29850467279E+03  0.69267962688E+02  0.36061782569E+03  0.48677726710E+03  0.11403421077E+03 0.  0.
        -11    1    4    4    0    0 -0.11170297982E+03 -0.25757094083E+02  0.11263747473E+03  0.16071149402E+03  0.51100000000E-03 0. -1.
     200002    1    4    4    0    0 -0.18680169297E+03  0.95025056770E+02  0.24798035096E+03  0.32606577308E+03  0.30000000000E+02 0. -1.
     200000    1    3    3    0    0  0.25809498790E+03  0.20963451520E+03  0.36456125804E+03  0.50365222486E+03  0.10100000000E+03 0.  1.
    -200001    1    1    2    0    0  0.40409684894E+02 -0.27890247788E+03  0.15872116858E+04  0.17246534349E+04  0.61300000000E+03 0.  1.
<mgrwt>
<rscale>  0 0.14228578E+04</rscale>
<asrwt>0</asrwt>
<pdfrwt beam="1">  1        2 0.35910526E+00 0.14228578E+04</pdfrwt>
<pdfrwt beam="2">  1       -2 0.28763726E-01 0.14228578E+04</pdfrwt>
<totfact> 0.46868027E+01</totfact>
</mgrwt>
</event>
<event>
 8    1  0.6972317E-052  0.1920513E+04  0.7818608E-02  0.8644712E-01
         -2   -1    0    0    0  501 -0.00000000000E+00  0.00000000000E+00  0.22713746238E+03  0.22713746239E+03  0.25500000000E-02 0. -1.
          2   -1    0    0  501    0  0.00000000000E+00 -0.00000000000E+00 -0.40596241914E+04  0.40596241914E+04  0.25500000000E-02 0.  1.
     200001    2    1    2    0    0  0.33842845700E+03 -0.16357850631E+03 -0.33368834214E+04  0.34134441933E+04  0.61279567951E+03 0.  0.
    5000001    2    3    3    0    0  0.30478863040E+02  0.12631932601E+03 -0.20353706382E+04  0.20412159942E+04  0.83328068803E+02 0.  0.
        -11    1    4    4    0    0 -0.70236903006E+01  0.95579281816E+02 -0.14088575533E+04  0.14121134291E+04  0.51100000000E-03 0. -1.
     200002    1    4    4    0    0  0.37502553340E+02  0.30740044190E+02 -0.62651308492E+03  0.62910256509E+03  0.30000000000E+02 0. -1.
     200000    1    3    3    0    0  0.30794959396E+03 -0.28989783232E+03 -0.13015127832E+04  0.13722281991E+04  0.10100000000E+03 0. -1.
    -200001    1    1    2    0    0 -0.33842845700E+03  0.16357850631E+03 -0.49560330768E+03  0.87331746050E+03  0.61300000000E+03 0. -1.
<mgrwt>
<rscale>  0 0.19205132E+04</rscale>
<asrwt>0</asrwt>
<pdfrwt beam="1">  1        2 0.57994627E+00 0.19205132E+04</pdfrwt>
<pdfrwt beam="2">  1       -2 0.32448212E-01 0.19205132E+04</pdfrwt>
<totfact> 0.43341406E+00</totfact>
</mgrwt>
</event>
<event>
 8    1  0.6972317E-052  0.1499548E+04  0.7818608E-02  0.8884754E-01
          2   -1    0    0  501    0  0.00000000000E+00  0.00000000000E+00  0.24561934626E+04  0.24561934626E+04  0.25500000000E-02 0.  1.
         -2   -1    0    0    0  501 -0.00000000000E+00 -0.00000000000E+00 -0.22887478959E+03  0.22887478961E+03  0.25500000000E-02 0. -1.
     200001    2    1    2    0    0 -0.37032231367E+03 -0.13908127118E+03  0.14250644926E+04  0.16006960901E+04  0.61232095244E+03 0.  0.
    5000001    2    3    3    0    0 -0.35944585293E+03  0.15725699192E+03  0.96123583959E+03  0.10409884138E+04  0.75838352011E+02 0.  0.
        -11    1    4    4    0    0 -0.25447202220E+03  0.12838196733E+03  0.64410220677E+03  0.70434763603E+03  0.51100000000E-03 0. -1.
     200002    1    4    4    0    0 -0.10497383073E+03  0.28875024582E+02  0.31713363282E+03  0.33664077775E+03  0.30000000000E+02 0.  1.
     200000    1    3    3    0    0 -0.10876460739E+02 -0.29633826309E+03  0.46382865304E+03  0.55970767633E+03  0.10100000000E+03 0. -1.
    -200001    1    1    2    0    0  0.37032231367E+03  0.13908127118E+03  0.80225418043E+03  0.10843721621E+04  0.61300000000E+03 0.  1.
<mgrwt>
<rscale>  0 0.14995476E+04</rscale>
<asrwt>0</asrwt>
<pdfrwt beam="1">  1        2 0.35088478E+00 0.14995476E+04</pdfrwt>
<pdfrwt beam="2">  1       -2 0.32696399E-01 0.14995476E+04</pdfrwt>
<totfact> 0.39286545E+01</totfact>
</mgrwt>
</event>
<event>
 8    1  0.6972317E-052  0.1382001E+04  0.7818608E-02  0.8966952E-01
         -2   -1    0    0    0  501 -0.00000000000E+00  0.00000000000E+00  0.15285393797E+03  0.15285393799E+03  0.25500000000E-02 0. -1.
          2   -1    0    0  501    0  0.00000000000E+00 -0.00000000000E+00 -0.31237753202E+04  0.31237753202E+04  0.25500000000E-02 0.  1.
     200001    2    1    2    0    0 -0.21303015074E+02 -0.11234569406E+02 -0.22393129731E+04  0.23218518505E+04  0.61310145163E+03 0.  0.
    5000001    2    3    3    0    0 -0.23025576350E+03 -0.37787685099E+02 -0.39993680036E+03  0.46770190402E+03  0.65954537191E+02 0.  0.
        -11    1    4    4    0    0 -0.16630735899E+03 -0.37189895856E+02 -0.25869613023E+03  0.30978204242E+03  0.51100000000E-03 0. -1.
     200002    1    4    4    0    0 -0.63948404509E+02 -0.59778924289E+00 -0.14124067013E+03  0.15791986160E+03  0.30000000000E+02 0. -1.
     200000    1    3    3    0    0  0.20895274842E+03  0.26553115694E+02 -0.18393761728E+04  0.18541499465E+04  0.10100000000E+03 0.  1.
    -200001    1    1    2    0    0  0.21303015074E+02  0.11234569406E+02 -0.73160840911E+03  0.95477740771E+03  0.61300000000E+03 0. -1.
<mgrwt>
<rscale>  0 0.13820005E+04</rscale>
<asrwt>0</asrwt>
<pdfrwt beam="1">  1        2 0.44625358E+00 0.13820005E+04</pdfrwt>
<pdfrwt beam="2">  1       -2 0.21836279E-01 0.13820005E+04</pdfrwt>
<totfact> 0.36122779E+01</totfact>
</mgrwt>
</event>
<event>
 8    1  0.6972317E-052  0.1464028E+04  0.7818608E-02  0.8908732E-01
          2   -1    0    0  501    0  0.00000000000E+00  0.00000000000E+00  0.89188992327E+03  0.89188992327E+03  0.25500000000E-02 0.  1.
         -2   -1    0    0    0  501 -0.00000000000E+00 -0.00000000000E+00 -0.60079699905E+03  0.60079699905E+03  0.25500000000E-02 0. -1.
     200001    2    1    2    0    0 -0.10637333964E+03 -0.34604757593E+03  0.31940080866E+03  0.78020215160E+03  0.61289012767E+03 0.  0.
    5000001    2    3    3    0    0  0.42954820236E+02 -0.47296359846E+03  0.27755318867E+03  0.55579448818E+03  0.79574232629E+02 0.  0.
        -11    1    4    4    0    0 -0.15324924209E+01  0.20078485831E+01 -0.81327128641E+00  0.26535635284E+01  0.51100000000E-03 0. -1.
     200002    1    4    4    0    0  0.44487312657E+02 -0.47497144704E+03  0.27836645995E+03  0.55314092465E+03  0.30000000000E+02 0. -1.
     200000    1    3    3    0    0 -0.14932815987E+03  0.12691602253E+03  0.41847619990E+02  0.22440766342E+03  0.10100000000E+03 0. -1.
    -200001    1    1    2    0    0  0.10637333964E+03  0.34604757593E+03 -0.28307884438E+02  0.71248477072E+03  0.61300000000E+03 0.  1.
<mgrwt>
<rscale>  0 0.14640284E+04</rscale>
<asrwt>0</asrwt>
<pdfrwt beam="1">  1        2 0.12741285E+00 0.14640284E+04</pdfrwt>
<pdfrwt beam="2">  1       -2 0.85828143E-01 0.14640284E+04</pdfrwt>
<totfact> 0.37662341E+01</totfact>
</mgrwt>
</event>
<event>
 8    1  0.6972317E-052  0.1307621E+04  0.7818608E-02  0.9023543E-01
          2   -1    0    0  501    0  0.00000000000E+00  0.00000000000E+00  0.45101272388E+03  0.45101272389E+03  0.25500000000E-02 0.  1.
         -2   -1    0    0    0  501 -0.00000000000E+00 -0.00000000000E+00 -0.94779629555E+03  0.94779629555E+03  0.25500000000E-02 0. -1.
     200001    2    1    2    0    0 -0.19006145882E+03 -0.79495390001E+02 -0.14545547893E+03  0.66284481928E+03  0.61299517367E+03 0.  0.
    5000001    2    3    3    0    0  0.15784966973E+03 -0.57743165951E+02  0.10206510358E+03  0.22354679814E+03  0.10632541625E+03 0.  0.
        -11    1    4    4    0    0  0.59943293055E+02  0.41831415600E+01  0.82848415191E+02  0.10234528302E+03  0.51100000000E-03 0. -1.
     200002    1    4    4    0    0  0.97906376671E+02 -0.61926307511E+02  0.19216688387E+02  0.12120151512E+03  0.30000000000E+02 0. -1.
     200000    1    3    3    0    0 -0.34791112855E+03 -0.21752224050E+02 -0.24752058251E+03  0.43929802115E+03  0.10100000000E+03 0.  1.
    -200001    1    1    2    0    0  0.19006145882E+03  0.79495390001E+02 -0.35132809274E+03  0.73596420015E+03  0.61300000000E+03 0.  1.
<mgrwt>
<rscale>  0 0.13076210E+04</rscale>
<asrwt>0</asrwt>
<pdfrwt beam="1">  1        2 0.64430389E-01 0.13076210E+04</pdfrwt>
<pdfrwt beam="2">  1       -2 0.13539947E+00 0.13076210E+04</pdfrwt>
<totfact> 0.28993991E+01</totfact>
</mgrwt>
</event>
<event>
 8    1  0.6972317E-052  0.1752597E+04  0.7818608E-02  0.8731922E-01
         -2   -1    0    0    0  501 -0.00000000000E+00  0.00000000000E+00  0.83628184955E+03  0.83628184955E+03  0.25500000000E-02 0. -1.
          2   -1    0    0  501    0  0.00000000000E+00 -0.00000000000E+00 -0.91823038882E+03  0.91823038882E+03  0.25500000000E-02 0.  1.
     200001    2    1    2    0    0  0.55483594504E+03  0.22022889555E+03 -0.23044191031E+03  0.88608666667E+03  0.61294568641E+03 0.  0.
    5000001    2    3    3    0    0  0.54996113983E+03 -0.51440401818E+02 -0.86926792491E+02  0.56262792139E+03  0.62374196651E+02 0.  0.
        -11    1    4    4    0    0  0.66696320053E+02  0.17046652427E+01  0.50819813049E+01  0.66911370681E+02  0.51100000000E-03 0. -1.
     200002    1    4    4    0    0  0.48326481978E+03 -0.53145067060E+02 -0.92008773795E+02  0.49571655071E+03  0.30000000000E+02 0. -1.
     200000    1    3    3    0    0  0.48748052023E+01  0.27166929737E+03 -0.14351511782E+03  0.32345874528E+03  0.10100000000E+03 0.  1.
    -200001    1    1    2    0    0 -0.55483594504E+03 -0.22022889555E+03  0.14849337104E+03  0.86842557170E+03  0.61300000000E+03 0. -1.
<mgrwt>
<rscale>  0 0.17525974E+04</rscale>
<asrwt>0</asrwt>
<pdfrwt beam="1">  1        2 0.13117577E+00 0.17525974E+04</pdfrwt>
<pdfrwt beam="2">  1       -2 0.11946884E+00 0.17525974E+04</pdfrwt>
<totfact> 0.16145810E+01</totfact>
</mgrwt>
</event>
<event>
 8    1  0.6972317E-052  0.1636741E+04  0.7818608E-02  0.8798289E-01
         -2   -1    0    0    0  501 -0.00000000000E+00  0.00000000000E+00  0.45972327688E+03  0.45972327689E+03  0.25500000000E-02 0. -1.
          2   -1    0    0  501    0  0.00000000000E+00 -0.00000000000E+00 -0.14568112446E+04  0.14568112446E+04  0.25500000000E-02 0.  1.
     200001    2    1    2    0    0 -0.44020190787E+03  0.17801552263E+03 -0.80495204219E+03  0.11176900686E+04  0.61303837831E+03 0.  0.
    5000001    2    3    3    0    0 -0.55006042111E+03  0.17730070032E+03 -0.46594310246E+03  0.74728830685E+03  0.85643643179E+02 0.  0.
        -11    1    4    4    0    0 -0.11090704037E+03  0.36191473199E+02 -0.13705112712E+03  0.17998112618E+03  0.51100000000E-03 0. -1.
     200002    1    4    4    0    0 -0.43915338074E+03  0.14110922712E+03 -0.32889197533E+03  0.56730718067E+03  0.30000000000E+02 0. -1.
     200000    1    3    3    0    0  0.10985851324E+03  0.71482230776E+00 -0.33900893974E+03  0.37040176177E+03  0.10100000000E+03 0.  1.
    -200001    1    1    2    0    0  0.44020190787E+03 -0.17801552263E+03 -0.19213592552E+03  0.79884445286E+03  0.61300000000E+03 0.  1.
<mgrwt>
<rscale>  0 0.16367407E+04</rscale>
<asrwt>0</asrwt>
<pdfrwt beam="1">  1        2 0.20811589E+00 0.16367407E+04</pdfrwt>
<pdfrwt beam="2">  1       -2 0.65674755E-01 0.16367407E+04</pdfrwt>
<totfact> 0.31546991E+01</totfact>
</mgrwt>
</event>
<event>
 8    1  0.6972317E-052  0.1252741E+04  0.7818608E-02  0.9067905E-01
          2   -1    0    0  501    0  0.00000000000E+00  0.00000000000E+00  0.48801449217E+03  0.48801449218E+03  0.25500000000E-02 0.  1.
         -2   -1    0    0    0  501 -0.00000000000E+00 -0.00000000000E+00 -0.80395188108E+03  0.80395188109E+03  0.25500000000E-02 0. -1.
     200001    2    1    2    0    0 -0.10171008412E+03 -0.11734751696E+02 -0.76746089965E+02  0.62603535348E+03  0.61281943171E+03 0.  0.
    5000001    2    3    3    0    0 -0.12196511346E+03 -0.20708719784E+03  0.16305953447E+03  0.30002832604E+03  0.75286042760E+02 0.  0.
        -11    1    4    4    0    0 -0.76534312019E+02 -0.15666600676E+03  0.91370634221E+02  0.19685103858E+03  0.51100000000E-03 0. -1.
     200002    1    4    4    0    0 -0.45430801438E+02 -0.50421191082E+02  0.71688900253E+02  0.10317728747E+03  0.30000000000E+02 0. -1.
     200000    1    3    3    0    0  0.20255029339E+02  0.19535244615E+03 -0.23980562444E+03  0.32600702744E+03  0.10100000000E+03 0.  1.
    -200001    1    1    2    0    0  0.10171008412E+03  0.11734751696E+02 -0.23919129895E+03  0.66593101978E+03  0.61300000000E+03 0. -1.
<mgrwt>
<rscale>  0 0.12527413E+04</rscale>
<asrwt>0</asrwt>
<pdfrwt beam="1">  1        2 0.69716356E-01 0.12527413E+04</pdfrwt>
<pdfrwt beam="2">  1       -2 0.11485027E+00 0.12527413E+04</pdfrwt>
<totfact> 0.40200612E+01</totfact>
</mgrwt>
</event>
<event>
 8    1  0.6972317E-052  0.1531138E+04  0.7818608E-02  0.8864006E-01
         -2   -1    0    0    0  501 -0.00000000000E+00  0.00000000000E+00  0.84691946821E+03  0.84691946821E+03  0.25500000000E-02 0. -1.
          2   -1    0    0  501    0  0.00000000000E+00 -0.00000000000E+00 -0.69203281144E+03  0.69203281144E+03  0.25500000000E-02 0.  1.
     200001    2    1    2    0    0  0.22939609912E+03 -0.15402572917E+02 -0.32181922936E+03  0.72908975341E+03  0.61249036123E+03 0.  0.
    5000001    2    3    3    0    0 -0.16665732390E+03  0.10392171493E+02  0.28558869262E+02  0.19011897989E+03  0.86295751133E+02 0.  0.
        -11    1    4    4    0    0 -0.16175746962E+02  0.15266587942E+01  0.32537678004E+02  0.36368749869E+02  0.51100000000E-03 0. -1.
     200002    1    4    4    0    0 -0.15048157693E+03  0.88655126986E+01 -0.39788087427E+01  0.15375023002E+03  0.30000000000E+02 0. -1.
     200000    1    3    3    0    0  0.39605342301E+03 -0.25794744410E+02 -0.35037809862E+03  0.53897077352E+03  0.10100000000E+03 0.  1.
    -200001    1    1    2    0    0 -0.22939609912E+03  0.15402572917E+02  0.47670588613E+03  0.80986252624E+03  0.61300000000E+03 0. -1.
<mgrwt>
<rscale>  0 0.15311382E+04</rscale>
<asrwt>0</asrwt>
<pdfrwt beam="1">  1        2 0.98861830E-01 0.15311382E+04</pdfrwt>
<pdfrwt beam="2">  1       -2 0.12098850E+00 0.15311382E+04</pdfrwt>
<totfact> 0.22939808E+01</totfact>
</mgrwt>
</event>
<event>
 8    1  0.6972317E-052  0.1266052E+04  0.7818608E-02  0.9056928E-01
         -2   -1    0    0    0  501 -0.00000000000E+00  0.00000000000E+00  0.10221506242E+04  0.10221506242E+04  0.25500000000E-02 0. -1.
          2   -1    0    0  501    0  0.00000000000E+00 -0.00000000000E+00 -0.39203806402E+03  0.39203806403E+03  0.25500000000E-02 0.  1.
     200001    2    1    2    0    0  0.44202906078E+02 -0.91534540408E+02  0.18027678644E+03  0.64708133438E+03  0.61309221540E+03 0.  0.
    5000001    2    3    3    0    0 -0.92673509063E+01 -0.32228009709E+03  0.20035633921E+03  0.38880479896E+03  0.84119939722E+02 0.  0.
        -11    1    4    4    0    0 -0.13917583601E+02 -0.21555375351E+03  0.95619831620E+02  0.23622081192E+03  0.51100000000E-03 0. -1.
     200002    1    4    4    0    0  0.46502326946E+01 -0.10672634358E+03  0.10473650759E+03  0.15258398704E+03  0.30000000000E+02 0. -1.
     200000    1    3    3    0    0  0.53470256984E+02  0.23074555668E+03 -0.20079552771E+02  0.25827653542E+03  0.10100000000E+03 0.  1.
    -200001    1    1    2    0    0 -0.44202906078E+02  0.91534540408E+02  0.44983577373E+03  0.76710735384E+03  0.61300000000E+03 0. -1.
<mgrwt>
<rscale>  0 0.12660521E+04</rscale>
<asrwt>0</asrwt>
<pdfrwt beam="1">  1        2 0.56005438E-01 0.12660521E+04</pdfrwt>
<pdfrwt beam="2">  1       -2 0.14602152E+00 0.12660521E+04</pdfrwt>
<totfact> 0.27965130E+01</totfact>
</mgrwt>
</event>
<event>
 8    1  0.6972317E-052  0.1473225E+04  0.7818608E-02  0.8902456E-01
         -2   -1    0    0    0  501 -0.00000000000E+00  0.00000000000E+00  0.50415575066E+03  0.50415575067E+03  0.25500000000E-02 0. -1.
          2   -1    0    0  501    0  0.00000000000E+00 -0.00000000000E+00 -0.10762511208E+04  0.10762511208E+04  0.25500000000E-02 0.  1.
     200001    2    1    2    0    0 -0.77030657698E+02  0.37189838872E+03 -0.12545591790E+03  0.73217463085E+03  0.61326859447E+03 0.  0.
    5000001    2    3    3    0    0  0.15879682748E+03  0.55362659491E+02  0.13965005596E+03  0.24607623750E+03  0.11300407094E+03 0.  0.
        -11    1    4    4    0    0  0.94120022279E+02  0.47296187006E+02  0.20984440015E+02  0.10740509589E+03  0.51100000000E-03 0. -1.
     200002    1    4    4    0    0  0.64676805199E+02  0.80664724844E+01  0.11866561594E+03  0.13867114161E+03  0.30000000000E+02 0. -1.
     200000    1    3    3    0    0 -0.23582748518E+03  0.31653572923E+03 -0.26510597386E+03  0.48609839335E+03  0.10100000000E+03 0.  1.
    -200001    1    1    2    0    0  0.77030657698E+02 -0.37189838872E+03 -0.44663945225E+03  0.84823224064E+03  0.61300000000E+03 0. -1.
<mgrwt>
<rscale>  0 0.14732253E+04</rscale>
<asrwt>0</asrwt>
<pdfrwt beam="1">  1        2 0.15375016E+00 0.14732253E+04</pdfrwt>
<pdfrwt beam="2">  1       -2 0.72022251E-01 0.14732253E+04</pdfrwt>
<totfact> 0.42750847E+01</totfact>
</mgrwt>
</event>
<event>
 8    1  0.6972317E-052  0.1680678E+04  0.7818608E-02  0.8772462E-01
          2   -1    0    0  501    0  0.00000000000E+00  0.00000000000E+00  0.99269873091E+03  0.99269873091E+03  0.25500000000E-02 0.  1.
         -2   -1    0    0    0  501 -0.00000000000E+00 -0.00000000000E+00 -0.71136318262E+03  0.71136318263E+03  0.25500000000E-02 0. -1.
     200001    2    1    2    0    0 -0.32015112953E+03 -0.28081956863E+03 -0.25071258192E+03  0.78743735097E+03  0.61306150353E+03 0.  0.
    5000001    2    3    3    0    0 -0.24297953793E+03 -0.40240456444E+03 -0.32939900423E+03  0.59474350360E+03  0.15571654296E+03 0.  0.
        -11    1    4    4    0    0 -0.17146607549E+03 -0.15906217233E+03 -0.11187054337E+03  0.25926127397E+03  0.51100000000E-03 0. -1.
     200002    1    4    4    0    0 -0.71513462437E+02 -0.24334239211E+03 -0.21752846086E+03  0.33548222963E+03  0.30000000000E+02 0. -1.
     200000    1    3    3    0    0 -0.77171591599E+02  0.12158499581E+03  0.78686422317E+02  0.19269384737E+03  0.10100000000E+03 0.  1.
    -200001    1    1    2    0    0  0.32015112953E+03  0.28081956863E+03  0.53204813020E+03  0.91662456257E+03  0.61300000000E+03 0.  1.
<mgrwt>
<rscale>  0 0.16806776E+04</rscale>
<asrwt>0</asrwt>
<pdfrwt beam="1">  1        2 0.14181410E+00 0.16806776E+04</pdfrwt>
<pdfrwt beam="2">  1       -2 0.10162331E+00 0.16806776E+04</pdfrwt>
<totfact> 0.21560117E+01</totfact>
</mgrwt>
</event>
<event>
 8    1  0.6972317E-052  0.1329190E+04  0.7818608E-02  0.9006732E-01
          2   -1    0    0  501    0  0.00000000000E+00  0.00000000000E+00  0.22841201859E+04  0.22841201859E+04  0.25500000000E-02 0.  1.
         -2   -1    0    0    0  501 -0.00000000000E+00 -0.00000000000E+00 -0.19337271992E+03  0.19337271993E+03  0.25500000000E-02 0. -1.
     200001    2    1    2    0    0  0.23676827920E+03 -0.98153753653E+02  0.10455453779E+04  0.12389817907E+04  0.61336560307E+03 0.  0.
    5000001    2    3    3    0    0  0.21515931313E+03 -0.20310374533E+03  0.10465615457E+04  0.10917286727E+04  0.95056638012E+02 0.  0.
        -11    1    4    4    0    0  0.17142306387E+03 -0.16111569177E+03  0.90117516347E+03  0.93137576103E+03  0.51100000000E-03 0. -1.
     200002    1    4    4    0    0  0.43736249253E+02 -0.41988053554E+02  0.14538638220E+03  0.16035291163E+03  0.30000000000E+02 0.  1.
     200000    1    3    3    0    0  0.21608966077E+02  0.10494999167E+03 -0.10161677985E+01  0.14725311801E+03  0.10100000000E+03 0. -1.
    -200001    1    1    2    0    0 -0.23676827920E+03  0.98153753653E+02  0.10452020881E+04  0.12385111151E+04  0.61300000000E+03 0. -1.
<mgrwt>
<rscale>  0 0.13291900E+04</rscale>
<asrwt>0</asrwt>
<pdfrwt beam="1">  1        2 0.32630286E+00 0.13291900E+04</pdfrwt>
<pdfrwt beam="2">  1       -2 0.27624676E-01 0.13291900E+04</pdfrwt>
<totfact> 0.67003273E+01</totfact>
</mgrwt>
</event>
<event>
 8    1  0.6972317E-052  0.1421001E+04  0.7818608E-02  0.8938756E-01
          2   -1    0    0  501    0  0.00000000000E+00  0.00000000000E+00  0.11308597140E+04  0.11308597140E+04  0.25500000000E-02 0.  1.
         -2   -1    0    0    0  501 -0.00000000000E+00 -0.00000000000E+00 -0.44639582176E+03  0.44639582176E+03  0.25500000000E-02 0. -1.
     200001    2    1    2    0    0 -0.23884118282E+03  0.22159140720E+03  0.17608685152E+03  0.71681141911E+03  0.61372971978E+03 0.  0.
    5000001    2    3    3    0    0  0.13482270212E+03  0.59674965257E+02  0.22027525541E+02  0.26984731653E+03  0.22493132256E+03 0.  0.
        -11    1    4    4    0    0  0.17159919241E+03  0.10638004301E+03  0.23369309197E+02  0.20324645384E+03  0.51100000000E-03 0. -1.
     200002    1    4    4    0    0 -0.36776490291E+02 -0.46705077757E+02 -0.13417836560E+01  0.66600862681E+02  0.30000000000E+02 0. -1.
     200000    1    3    3    0    0 -0.37366388494E+03  0.16191644194E+03  0.15405932598E+03  0.44696410259E+03  0.10100000000E+03 0. -1.
    -200001    1    1    2    0    0  0.23884118282E+03 -0.22159140720E+03  0.50837704073E+03  0.86044411666E+03  0.61300000000E+03 0. -1.
<mgrwt>
<rscale>  0 0.14210011E+04</rscale>
<asrwt>0</asrwt>
<pdfrwt beam="1">  1        2 0.16155139E+00 0.14210011E+04</pdfrwt>
<pdfrwt beam="2">  1       -2 0.63770832E-01 0.14210011E+04</pdfrwt>
<totfact> 0.51867485E+01</totfact>
</mgrwt>
</event>
<event>
 8    1  0.6972317E-052  0.1436338E+04  0.7818608E-02  0.8927927E-01
         -2   -1    0    0    0  501 -0.00000000000E+00  0.00000000000E+00  0.14201342322E+04  0.14201342322E+04  0.25500000000E-02 0. -1.
          2   -1    0    0  501    0  0.00000000000E+00 -0.00000000000E+00 -0.36318171776E+03  0.36318171777E+03  0.25500000000E-02 0.  1.
     200001    2    1    2    0    0 -0.27915439989E+03  0.14618695872E+03  0.77783099982E+03  0.10396926409E+04  0.61371159137E+03 0.  0.
    5000001    2    3    3    0    0 -0.10488575309E+03 -0.22280781773E+03  0.24090326502E+03  0.35776955235E+03  0.96541828479E+02 0.  0.
        -11    1    4    4    0    0  0.11665616795E+01  0.46014602224E+01 -0.37388442502E+01  0.60426202031E+01  0.51100000000E-03 0. -1.
     200002    1    4    4    0    0 -0.10605231477E+03 -0.22740927795E+03  0.24464210927E+03  0.35172693214E+03  0.30000000000E+02 0. -1.
     200000    1    3    3    0    0 -0.17426864680E+03  0.36899477645E+03  0.53692773479E+03  0.68192308855E+03  0.10100000000E+03 0.  1.
    -200001    1    1    2    0    0  0.27915439989E+03 -0.14618695872E+03  0.27912151463E+03  0.74362330908E+03  0.61300000000E+03 0. -1.
<mgrwt>
<rscale>  0 0.14363381E+04</rscale>
<asrwt>0</asrwt>
<pdfrwt beam="1">  1        2 0.51883103E-01 0.14363381E+04</pdfrwt>
<pdfrwt beam="2">  1       -2 0.20287632E+00 0.14363381E+04</pdfrwt>
<totfact> 0.11923925E+01</totfact>
</mgrwt>
</event>
<event>
 8    1  0.6972317E-052  0.1377109E+04  0.7818608E-02  0.8970557E-01
         -2   -1    0    0    0  501 -0.00000000000E+00  0.00000000000E+00  0.79494636197E+03  0.79494636197E+03  0.25500000000E-02 0. -1.
          2   -1    0    0  501    0  0.00000000000E+00 -0.00000000000E+00 -0.59640147703E+03  0.59640147704E+03  0.25500000000E-02 0.  1.
     200001    2    1    2    0    0 -0.14468760909E+03 -0.21304419706E+03 -0.81295550078E+02  0.66995889871E+03  0.61311795388E+03 0.  0.
    5000001    2    3    3    0    0  0.22832414339E+01 -0.92581224003E+00 -0.30329997535E+03  0.31487918241E+03  0.84569226932E+02 0.  0.
        -11    1    4    4    0    0 -0.20491918937E+02 -0.28968521268E+02 -0.96563152825E+02  0.10287631627E+03  0.51100000000E-03 0. -1.
     200002    1    4    4    0    0  0.22775160371E+02  0.28042709028E+02 -0.20673682253E+03  0.21200286613E+03  0.30000000000E+02 0. -1.
     200000    1    3    3    0    0 -0.14697085053E+03 -0.21211838482E+03  0.22200442528E+03  0.35507971630E+03  0.10100000000E+03 0. -1.
    -200001    1    1    2    0    0  0.14468760909E+03  0.21304419706E+03  0.27984043501E+03  0.72138894031E+03  0.61300000000E+03 0. -1.
<mgrwt>
<rscale>  0 0.13771088E+04</rscale>
<asrwt>0</asrwt>
<pdfrwt beam="1">  1        2 0.85200212E-01 0.13771088E+04</pdfrwt>
<pdfrwt beam="2">  1       -2 0.11356377E+00 0.13771088E+04</pdfrwt>
<totfact> 0.32445685E+01</totfact>
</mgrwt>
</event>
<event>
 8    1  0.6972317E-052  0.1560224E+04  0.7818608E-02  0.8845364E-01
         -2   -1    0    0    0  501 -0.00000000000E+00  0.00000000000E+00  0.44568428728E+03  0.44568428728E+03  0.25500000000E-02 0. -1.
          2   -1    0    0  501    0  0.00000000000E+00 -0.00000000000E+00 -0.13654840236E+04  0.13654840236E+04  0.25500000000E-02 0.  1.
     200001    2    1    2    0    0  0.39559145431E+03  0.26096222394E+03 -0.35380927795E+03  0.85163296499E+03  0.61278366562E+03 0.  0.
    5000001    2    3    3    0    0  0.22190389121E+03  0.44144422405E+02 -0.40555537662E+03  0.55153966722E+03  0.29754121404E+03 0.  0.
        -11    1    4    4    0    0  0.18292220655E+03  0.16015229203E+03 -0.22428410290E+03  0.33077582909E+03  0.51100000000E-03 0. -1.
     200002    1    4    4    0    0  0.38981684652E+02 -0.11600786962E+03 -0.18127127372E+03  0.22076383814E+03  0.30000000000E+02 0. -1.
     200000    1    3    3    0    0  0.17368756310E+03  0.21681780153E+03  0.51746098674E+02  0.30009329777E+03  0.10100000000E+03 0.  1.
    -200001    1    1    2    0    0 -0.39559145431E+03 -0.26096222394E+03 -0.56599045837E+03  0.95953534589E+03  0.61300000000E+03 0. -1.
<mgrwt>
<rscale>  0 0.15602241E+04</rscale>
<asrwt>0</asrwt>
<pdfrwt beam="1">  1        2 0.19506914E+00 0.15602241E+04</pdfrwt>
<pdfrwt beam="2">  1       -2 0.63669185E-01 0.15602241E+04</pdfrwt>
<totfact> 0.37998992E+01</totfact>
</mgrwt>
</event>
<event>
 8    1  0.6972317E-052  0.1387571E+04  0.7818608E-02  0.8962865E-01
          2   -1    0    0  501    0  0.00000000000E+00  0.00000000000E+00  0.34339393201E+04  0.34339393201E+04  0.25500000000E-02 0.  1.
         -2   -1    0    0    0  501 -0.00000000000E+00 -0.00000000000E+00 -0.14017091855E+03  0.14017091857E+03  0.25500000000E-02 0. -1.
     200001    2    1    2    0    0  0.14193934715E+03 -0.28013665930E+03  0.14274112831E+04  0.15847180652E+04  0.61253983462E+03 0.  0.
    5000001    2    3    3    0    0  0.12093930227E+03 -0.41369872058E+03  0.61763083562E+03  0.75753900407E+03  0.81391322318E+02 0.  0.
        -11    1    4    4    0    0  0.34188382751E+02 -0.23352621254E+03  0.31630335081E+03  0.39465319864E+03  0.51100000000E-03 0. -1.
     200002    1    4    4    0    0  0.86750919515E+02 -0.18017250803E+03  0.30132748481E+03  0.36288580544E+03  0.30000000000E+02 0. -1.
     200000    1    3    3    0    0  0.21000044880E+02  0.13356206127E+03  0.80978044745E+03  0.82717906113E+03  0.10100000000E+03 0. -1.
    -200001    1    1    2    0    0 -0.14193934715E+03  0.28013665930E+03  0.18663571185E+04  0.19893921735E+04  0.61300000000E+03 0. -1.
<mgrwt>
<rscale>  0 0.13875712E+04</rscale>
<asrwt>0</asrwt>
<pdfrwt beam="1">  1        2 0.49056270E+00 0.13875712E+04</pdfrwt>
<pdfrwt beam="2">  1       -2 0.20024419E-01 0.13875712E+04</pdfrwt>
<totfact> 0.27775828E+01</totfact>
</mgrwt>
</event>
<event>
 8    1  0.6972317E-052  0.1360138E+04  0.7818608E-02  0.8983189E-01
         -2   -1    0    0    0  501 -0.00000000000E+00  0.00000000000E+00  0.29331138269E+03  0.29331138270E+03  0.25500000000E-02 0. -1.
          2   -1    0    0  501    0  0.00000000000E+00 -0.00000000000E+00 -0.15768004810E+04  0.15768004810E+04  0.25500000000E-02 0.  1.
     200001    2    1    2    0    0 -0.41528026745E+02  0.12929033525E+03 -0.28332785699E+03  0.68920878706E+03  0.61342767285E+03 0.  0.
    5000001    2    3    3    0    0 -0.19752056137E+03  0.18525522010E+03  0.52032900866E+02  0.30173804351E+03  0.12249308304E+03 0.  0.
        -11    1    4    4    0    0 -0.57905032969E+02  0.13310464662E+03  0.23055495640E+02  0.14697413268E+03  0.51100000000E-03 0. -1.
     200002    1    4    4    0    0 -0.13961552840E+03  0.52150573473E+02  0.28977405226E+02  0.15476391084E+03  0.30000000000E+02 0. -1.
     200000    1    3    3    0    0  0.15599253462E+03 -0.55964884849E+02 -0.33536075786E+03  0.38747074355E+03  0.10100000000E+03 0.  1.
    -200001    1    1    2    0    0  0.41528026745E+02 -0.12929033525E+03 -0.10001612413E+04  0.11809030767E+04  0.61300000000E+03 0.  1.
<mgrwt>
<rscale>  0 0.13601375E+04</rscale>
<asrwt>0</asrwt>
<pdfrwt beam="1">  1        2 0.22525721E+00 0.13601375E+04</pdfrwt>
<pdfrwt beam="2">  1       -2 0.41901627E-01 0.13601375E+04</pdfrwt>
<totfact> 0.70144124E+01</totfact>
</mgrwt>
</event>
<event>
 8    1  0.6972317E-052  0.1437856E+04  0.7818608E-02  0.8926863E-01
         -2   -1    0    0    0  501 -0.00000000000E+00  0.00000000000E+00  0.50791837018E+03  0.50791837018E+03  0.25500000000E-02 0. -1.
          2   -1    0    0  501    0  0.00000000000E+00 -0.00000000000E+00 -0.10175999583E+04  0.10175999583E+04  0.25500000000E-02 0.  1.
     200001    2    1    2    0    0  0.18718587866E+03 -0.27796730408E+03 -0.73356315824E+02  0.70183567201E+03  0.61228080660E+03 0.  0.
    5000001    2    3    3    0    0  0.29697296256E+03 -0.22957150813E+03 -0.25508096138E+03  0.46179358475E+03  0.85387354004E+02 0.  0.
        -11    1    4    4    0    0  0.10953368812E+03 -0.79997208183E+02 -0.49100133698E+02  0.14424980166E+03  0.51100000000E-03 0. -1.
     200002    1    4    4    0    0  0.18743927444E+03 -0.14957429995E+03 -0.20598082768E+03  0.31754378309E+03  0.30000000000E+02 0. -1.
     200000    1    3    3    0    0 -0.10978708389E+03 -0.48395795952E+02  0.18172464555E+03  0.24004208726E+03  0.10100000000E+03 0. -1.
    -200001    1    1    2    0    0 -0.18718587866E+03  0.27796730408E+03 -0.43632527227E+03  0.82368265645E+03  0.61300000000E+03 0.  1.
<mgrwt>
<rscale>  0 0.14378563E+04</rscale>
<asrwt>0</asrwt>
<pdfrwt beam="1">  1        2 0.14537142E+00 0.14378563E+04</pdfrwt>
<pdfrwt beam="2">  1       -2 0.72559768E-01 0.14378563E+04</pdfrwt>
<totfact> 0.45757367E+01</totfact>
</mgrwt>
</event>
<event>
 8    1  0.6972317E-052  0.1656492E+04  0.7818608E-02  0.8786575E-01
          2   -1    0    0  501    0  0.00000000000E+00  0.00000000000E+00  0.25333838487E+04  0.25333838487E+04  0.25500000000E-02 0.  1.
         -2   -1    0    0    0  501 -0.00000000000E+00 -0.00000000000E+00 -0.27078071183E+03  0.27078071184E+03  0.25500000000E-02 0. -1.
     200001    2    1    2    0    0 -0.34545018220E+03 -0.83459292303E+02  0.18571157473E+04  0.19877759858E+04  0.61324806494E+03 0.  0.
    5000001    2    3    3    0    0 -0.14824600297E+03 -0.25916782175E+03  0.15028438537E+04  0.15344851849E+04  0.83428393485E+02 0.  0.
        -11    1    4    4    0    0 -0.31952423018E+02 -0.12889145517E+03  0.65361819418E+03  0.66697129497E+03  0.51100000000E-03 0. -1.
     200002    1    4    4    0    0 -0.11629357995E+03 -0.13027636657E+03  0.84922565947E+03  0.86751388988E+03  0.30000000000E+02 0. -1.
     200000    1    3    3    0    0 -0.19720417924E+03  0.17570852944E+03  0.35427189362E+03  0.45329080096E+03  0.10100000000E+03 0.  1.
    -200001    1    1    2    0    0  0.34545018220E+03  0.83459292303E+02  0.40548738964E+03  0.81638857477E+03  0.61300000000E+03 0. -1.
<mgrwt>
<rscale>  0 0.16564921E+04</rscale>
<asrwt>0</asrwt>
<pdfrwt beam="1">  1        2 0.36191198E+00 0.16564921E+04</pdfrwt>
<pdfrwt beam="2">  1       -2 0.38682959E-01 0.16564921E+04</pdfrwt>
<totfact> 0.25596063E+01</totfact>
</mgrwt>
</event>
<event>
 8    1  0.6972317E-052  0.1634106E+04  0.7818608E-02  0.8799865E-01
         -2   -1    0    0    0  501 -0.00000000000E+00  0.00000000000E+00  0.21512216995E+03  0.21512216996E+03  0.25500000000E-02 0. -1.
          2   -1    0    0  501    0  0.00000000000E+00 -0.00000000000E+00 -0.31032391214E+04  0.31032391214E+04  0.25500000000E-02 0.  1.
     200001    2    1    2    0    0  0.87153676970E+02  0.31575829775E+03 -0.23151239801E+04  0.24175899490E+04  0.61452668959E+03 0.  0.
    5000001    2    3    3    0    0 -0.85307049914E+02 -0.13602102479E+03 -0.36720151089E+03  0.40800038775E+03  0.76474537307E+02 0.  0.
        -11    1    4    4    0    0 -0.21792442314E+02 -0.78427214929E+02 -0.12341833960E+03  0.14784392153E+03  0.51100000000E-03 0. -1.
     200002    1    4    4    0    0 -0.63514607600E+02 -0.57593809857E+02 -0.24378317129E+03  0.26015646622E+03  0.30000000000E+02 0. -1.
     200000    1    3    3    0    0  0.17246072688E+03  0.45177932254E+03 -0.19479224692E+04  0.20095895613E+04  0.10100000000E+03 0. -1.
    -200001    1    1    2    0    0 -0.87153676970E+02 -0.31575829775E+03 -0.57299297133E+03  0.90077134235E+03  0.61300000000E+03 0. -1.
<mgrwt>
<rscale>  0 0.16341059E+04</rscale>
<asrwt>0</asrwt>
<pdfrwt beam="1">  1        2 0.44331985E+00 0.16341059E+04</pdfrwt>
<pdfrwt beam="2">  1       -2 0.30731740E-01 0.16341059E+04</pdfrwt>
<totfact> 0.19451901E+01</totfact>
</mgrwt>
</event>
<event>
 8    1  0.6972317E-052  0.1930335E+04  0.7818608E-02  0.8639902E-01
          2   -1    0    0  501    0  0.00000000000E+00  0.00000000000E+00  0.14015490025E+04  0.14015490025E+04  0.25500000000E-02 0.  1.
         -2   -1    0    0    0  501 -0.00000000000E+00 -0.00000000000E+00 -0.66465646182E+03  0.66465646182E+03  0.25500000000E-02 0. -1.
     200001    2    1    2    0    0 -0.69633182803E+03 -0.30417757643E+02  0.85416196010E+02  0.93218884966E+03  0.61308797914E+03 0.  0.
    5000001    2    3    3    0    0 -0.59517827137E+03  0.15699033975E+03  0.22002668416E+03  0.66075778932E+03  0.96467470768E+02 0.  0.
        -11    1    4    4    0    0 -0.50807892677E+03  0.15354359052E+03  0.19142933093E+03  0.56423844141E+03  0.51100000000E-03 0. -1.
     200002    1    4    4    0    0 -0.87099344596E+02  0.34467492307E+01  0.28597353228E+02  0.96519347910E+02  0.30000000000E+02 0. -1.
     200000    1    3    3    0    0 -0.10115355667E+03 -0.18740809740E+03 -0.13461048815E+03  0.27143106034E+03  0.10100000000E+03 0. -1.
    -200001    1    1    2    0    0  0.69633182803E+03  0.30417757643E+02  0.65147634470E+03  0.11340166147E+04  0.61300000000E+03 0. -1.
<mgrwt>
<rscale>  0 0.19303353E+04</rscale>
<asrwt>0</asrwt>
<pdfrwt beam="1">  1        2 0.20022129E+00 0.19303353E+04</pdfrwt>
<pdfrwt beam="2">  1       -2 0.94950922E-01 0.19303353E+04</pdfrwt>
<totfact> 0.14451995E+01</totfact>
</mgrwt>
</event>
<event>
 8    1  0.6972317E-052  0.1570629E+04  0.7818608E-02  0.8838798E-01
          2   -1    0    0  501    0  0.00000000000E+00  0.00000000000E+00  0.31998016602E+03  0.31998016603E+03  0.25500000000E-02 0.  1.
         -2   -1    0    0    0  501 -0.00000000000E+00 -0.00000000000E+00 -0.19273651315E+04  0.19273651315E+04  0.25500000000E-02 0. -1.
     200001    2    1    2    0    0 -0.38841729545E+03  0.14145770649E+03 -0.39761121906E+03  0.82953014892E+03  0.59928900233E+03 0.  0.
    5000001    2    3    3    0    0 -0.74933716347E+02 -0.14968473601E+02  0.14092255782E+03  0.17917583546E+03  0.80035589985E+02 0.  0.
        -11    1    4    4    0    0 -0.10558080034E+02 -0.33965610633E+02  0.60755220263E+02  0.70401225480E+02  0.51100000000E-03 0. -1.
     200002    1    4    4    0    0 -0.64375636314E+02  0.18997137032E+02  0.80167337557E+02  0.10877460998E+03  0.30000000000E+02 0. -1.
     200000    1    3    3    0    0 -0.31348357910E+03  0.15642618010E+03 -0.53853377688E+03  0.65035431345E+03  0.10100000000E+03 0. -1.
    -200001    1    1    2    0    0  0.38841729545E+03 -0.14145770649E+03 -0.12097737464E+04  0.14178151486E+04  0.61300000000E+03 0. -1.
<mgrwt>
<rscale>  0 0.15706287E+04</rscale>
<asrwt>0</asrwt>
<pdfrwt beam="1">  1        2 0.45711453E-01 0.15706287E+04</pdfrwt>
<pdfrwt beam="2">  1       -2 0.27533787E+00 0.15706287E+04</pdfrwt>
<totfact> 0.48147408E+00</totfact>
</mgrwt>
</event>
<event>
 8    1  0.6972317E-052  0.1485356E+04  0.7818608E-02  0.8894250E-01
         -2   -1    0    0    0  501 -0.00000000000E+00  0.00000000000E+00  0.26857681594E+03  0.26857681595E+03  0.25500000000E-02 0. -1.
          2   -1    0    0  501    0  0.00000000000E+00 -0.00000000000E+00 -0.20536784791E+04  0.20536784791E+04  0.25500000000E-02 0.  1.
     200001    2    1    2    0    0  0.39845232160E+03  0.65715181629E+02 -0.10695679989E+04  0.12971503432E+04  0.61281365099E+03 0.  0.
    5000001    2    3    3    0    0 -0.32729918609E+02  0.18320913269E+03 -0.62068866855E+03  0.65573268983E+03  0.10046941513E+03 0.  0.
        -11    1    4    4    0    0 -0.57788778591E+02  0.67210665171E+02 -0.28201793716E+03  0.29561957534E+03  0.51100000000E-03 0. -1.
     200002    1    4    4    0    0  0.25058859982E+02  0.11599846752E+03 -0.33867073139E+03  0.36011311450E+03  0.30000000000E+02 0. -1.
     200000    1    3    3    0    0  0.43118224020E+03 -0.11749395106E+03 -0.44887933040E+03  0.64141765338E+03  0.10100000000E+03 0.  1.
    -200001    1    1    2    0    0 -0.39845232160E+03 -0.65715181629E+02 -0.71553366426E+03  0.10251049519E+04  0.61300000000E+03 0. -1.
<mgrwt>
<rscale>  0 0.14853558E+04</rscale>
<asrwt>0</asrwt>
<pdfrwt beam="1">  1        2 0.29338263E+00 0.14853558E+04</pdfrwt>
<pdfrwt beam="2">  1       -2 0.38368118E-01 0.14853558E+04</pdfrwt>
<totfact> 0.46778535E+01</totfact>
</mgrwt>
</event>
<event>
 8    1  0.6972317E-052  0.1574952E+04  0.7818608E-02  0.8836086E-01
         -2   -1    0    0    0  501 -0.00000000000E+00  0.00000000000E+00  0.16985642321E+03  0.16985642323E+03  0.25500000000E-02 0. -1.
          2   -1    0    0  501    0  0.00000000000E+00 -0.00000000000E+00 -0.36508375278E+04  0.36508375278E+04  0.25500000000E-02 0.  1.
     200001    2    1    2    0    0 -0.54985859552E+02  0.35895560197E+03 -0.25505908206E+04  0.26488289206E+04  0.61555547893E+03 0.  0.
    5000001    2    3    3    0    0 -0.22930629848E+03  0.43046053687E+03 -0.19218010269E+04  0.19846917542E+04  0.88343193898E+02 0.  0.
        -11    1    4    4    0    0 -0.17203384736E+03  0.35817671615E+03 -0.14837449607E+04  0.15360290730E+04  0.51100000000E-03 0. -1.
     200002    1    4    4    0    0 -0.57272451127E+02  0.72283820718E+02 -0.43805606622E+03  0.44866268125E+03  0.30000000000E+02 0.  1.
     200000    1    3    3    0    0  0.17432043893E+03 -0.71504934902E+02 -0.62878979373E+03  0.66413716644E+03  0.10100000000E+03 0.  1.
    -200001    1    1    2    0    0  0.54985859552E+02 -0.35895560197E+03 -0.93039028397E+03  0.11718650304E+04  0.61300000000E+03 0. -1.
<mgrwt>
<rscale>  0 0.15749517E+04</rscale>
<asrwt>0</asrwt>
<pdfrwt beam="1">  1        2 0.52154817E+00 0.15749517E+04</pdfrwt>
<pdfrwt beam="2">  1       -2 0.24265206E-01 0.15749517E+04</pdfrwt>
<totfact> 0.14263113E+01</totfact>
</mgrwt>
</event>
<event>
 8    1  0.6972317E-052  0.1575545E+04  0.7818608E-02  0.8835714E-01
          2   -1    0    0  501    0  0.00000000000E+00  0.00000000000E+00  0.10173919284E+04  0.10173919284E+04  0.25500000000E-02 0.  1.
         -2   -1    0    0    0  501 -0.00000000000E+00 -0.00000000000E+00 -0.60997681463E+03  0.60997681463E+03  0.25500000000E-02 0. -1.
     200001    2    1    2    0    0  0.17120669531E+03 -0.28347630202E+03  0.58341089056E+03  0.90874919152E+03  0.61301409408E+03 0.  0.
    5000001    2    3    3    0    0  0.28841612934E+02 -0.23575609122E+03 -0.41056210604E+02  0.25859136788E+03  0.93654204023E+02 0.  0.
        -11    1    4    4    0    0  0.13889239986E+02  0.30035103533E+01 -0.22979696096E+01  0.14394885426E+02  0.51100000000E-03 0. -1.
     200002    1    4    4    0    0  0.14952372948E+02 -0.23875960157E+03 -0.38758240995E+02  0.24419648246E+03  0.30000000000E+02 0. -1.
     200000    1    3    3    0    0  0.14236508237E+03 -0.47720210802E+02  0.62446710117E+03  0.65015782364E+03  0.10100000000E+03 0.  1.
    -200001    1    1    2    0    0 -0.17120669531E+03  0.28347630202E+03 -0.17599577682E+03  0.71861955149E+03  0.61300000000E+03 0. -1.
<mgrwt>
<rscale>  0 0.15755450E+04</rscale>
<asrwt>0</asrwt>
<pdfrwt beam="1">  1        2 0.14534170E+00 0.15755450E+04</pdfrwt>
<pdfrwt beam="2">  1       -2 0.87139546E-01 0.15755450E+04</pdfrwt>
<totfact> 0.30037437E+01</totfact>
</mgrwt>
</event>
<event>
 8    1  0.6972317E-052  0.1237576E+04  0.7818608E-02  0.9080587E-01
          2   -1    0    0  501    0  0.00000000000E+00  0.00000000000E+00  0.25698064827E+04  0.25698064827E+04  0.25500000000E-02 0.  1.
         -2   -1    0    0    0  501 -0.00000000000E+00 -0.00000000000E+00 -0.14899902652E+03  0.14899902654E+03  0.25500000000E-02 0. -1.
     200001    2    1    2    0    0  0.67024267717E+01 -0.91111340057E+02  0.11823165104E+04  0.13338957571E+04  0.61078585546E+03 0.  0.
    5000001    2    3    3    0    0 -0.22133711891E+03 -0.21389897002E+03  0.56123853816E+03  0.65344172921E+03  0.13135641277E+03 0.  0.
        -11    1    4    4    0    0 -0.13330571884E+03 -0.10090180328E+03  0.41100814406E+03  0.44371081017E+03  0.51100000000E-03 0. -1.
     200002    1    4    4    0    0 -0.88031400065E+02 -0.11299716674E+03  0.15023039411E+03  0.20973091904E+03  0.30000000000E+02 0. -1.
     200000    1    3    3    0    0  0.22803954568E+03  0.12278762997E+03  0.62107797223E+03  0.68045402788E+03  0.10100000000E+03 0. -1.
    -200001    1    1    2    0    0 -0.67024267717E+01  0.91111340057E+02  0.12384909458E+04  0.13849097521E+04  0.61300000000E+03 0. -1.
<mgrwt>
<rscale>  0 0.12375761E+04</rscale>
<asrwt>0</asrwt>
<pdfrwt beam="1">  1        2 0.36711523E+00 0.12375761E+04</pdfrwt>
<pdfrwt beam="2">  1       -2 0.21285574E-01 0.12375761E+04</pdfrwt>
<totfact> 0.76678483E+01</totfact>
</mgrwt>
</event>
<event>
 8    1  0.6972317E-052  0.1389052E+04  0.7818608E-02  0.8961781E-01
          2   -1    0    0  501    0  0.00000000000E+00  0.00000000000E+00  0.71384786952E+03  0.71384786952E+03  0.25500000000E-02 0.  1.
         -2   -1    0    0    0  501 -0.00000000000E+00 -0.00000000000E+00 -0.67572726500E+03  0.67572726500E+03  0.25500000000E-02 0. -1.
     200001    2    1    2    0    0 -0.25204439299E+03 -0.13525171336E+03  0.17737521776E+03  0.69893756726E+03  0.61256212179E+03 0.  0.
    5000001    2    3    3    0    0  0.30096886428E+02  0.11161874134E+03  0.22229939087E+03  0.30808221770E+03  0.17925698783E+03 0.  0.
        -11    1    4    4    0    0  0.69350052492E+02 -0.20329870882E+02  0.70151640649E+02  0.10071735757E+03  0.51100000000E-03 0. -1.
     200002    1    4    4    0    0 -0.39253166064E+02  0.13194861223E+03  0.15214775022E+03  0.20736486012E+03  0.30000000000E+02 0. -1.
     200000    1    3    3    0    0 -0.28214127942E+03 -0.24687045471E+03 -0.44924173117E+02  0.39085534957E+03  0.10100000000E+03 0. -1.
    -200001    1    1    2    0    0  0.25204439299E+03  0.13525171336E+03 -0.13925461324E+03  0.69063756726E+03  0.61300000000E+03 0.  1.
<mgrwt>
<rscale>  0 0.13890521E+04</rscale>
<asrwt>0</asrwt>
<pdfrwt beam="1">  1        2 0.10197827E+00 0.13890521E+04</pdfrwt>
<pdfrwt beam="2">  1       -2 0.96532467E-01 0.13890521E+04</pdfrwt>
<totfact> 0.38481474E+01</totfact>
</mgrwt>
</event>
<event>
 8    1  0.6972317E-052  0.1460944E+04  0.7818608E-02  0.8910848E-01
         -2   -1    0    0    0  501 -0.00000000000E+00  0.00000000000E+00  0.16580412586E+04  0.16580412586E+04  0.25500000000E-02 0. -1.
          2   -1    0    0  501    0  0.00000000000E+00 -0.00000000000E+00 -0.32181914747E+03  0.32181914748E+03  0.25500000000E-02 0.  1.
     200001    2    1    2    0    0  0.21690765862E+03 -0.28177952182E+03  0.91558709134E+03  0.11557539499E+04  0.60911315825E+03 0.  0.
    5000001    2    3    3    0    0 -0.70049254063E+02 -0.35527083044E+03  0.48560896855E+03  0.62393872985E+03  0.14952995460E+03 0.  0.
        -11    1    4    4    0    0  0.61050133584E+01 -0.20464789545E+03  0.34948466024E+03  0.40504019559E+03  0.51100000000E-03 0. -1.
     200002    1    4    4    0    0 -0.76154267421E+02 -0.15062293499E+03  0.13612430831E+03  0.21889853426E+03  0.30000000000E+02 0. -1.
     200000    1    3    3    0    0  0.28695691268E+03  0.73491308615E+02  0.42997812278E+03  0.53181522002E+03  0.10100000000E+03 0. -1.
    -200001    1    1    2    0    0 -0.21690765862E+03  0.28177952182E+03  0.42063501978E+03  0.82410645620E+03  0.61300000000E+03 0.  1.
<mgrwt>
<rscale>  0 0.14609441E+04</rscale>
<asrwt>0</asrwt>
<pdfrwt beam="1">  1        2 0.45974163E-01 0.14609441E+04</pdfrwt>
<pdfrwt beam="2">  1       -2 0.23686304E+00 0.14609441E+04</pdfrwt>
<totfact> 0.82961266E+00</totfact>
</mgrwt>
</event>
<event>
 8    1  0.6972317E-052  0.1623133E+04  0.7818608E-02  0.8806461E-01
         -2   -1    0    0    0  501 -0.00000000000E+00  0.00000000000E+00  0.79745136862E+03  0.79745136862E+03  0.25500000000E-02 0. -1.
          2   -1    0    0  501    0  0.00000000000E+00 -0.00000000000E+00 -0.82593152404E+03  0.82593152405E+03  0.25500000000E-02 0.  1.
     200001    2    1    2    0    0  0.49680921563E+03  0.62253844104E+02  0.16552295861E+03  0.80845888020E+03  0.61279113351E+03 0.  0.
    5000001    2    3    3    0    0  0.28741610905E+03  0.31859538612E+03  0.26135747013E+02  0.43538214011E+03  0.69018047315E+02 0.  0.
        -11    1    4    4    0    0  0.35145489957E+02  0.30557243084E+02 -0.15458960695E+02  0.49070663693E+02  0.51100000000E-03 0. -1.
     200002    1    4    4    0    0  0.25227061910E+03  0.28803814303E+03  0.41594707708E+02  0.38631147642E+03  0.30000000000E+02 0. -1.
     200000    1    3    3    0    0  0.20939310657E+03 -0.25634154201E+03  0.13938721159E+03  0.37307674009E+03  0.10100000000E+03 0. -1.
    -200001    1    1    2    0    0 -0.49680921563E+03 -0.62253844104E+02 -0.19400311403E+03  0.81492401246E+03  0.61300000000E+03 0.  1.
<mgrwt>
<rscale>  0 0.16231330E+04</rscale>
<asrwt>0</asrwt>
<pdfrwt beam="1">  1        2 0.11799022E+00 0.16231330E+04</pdfrwt>
<pdfrwt beam="2">  1       -2 0.11392162E+00 0.16231330E+04</pdfrwt>
<totfact> 0.21113043E+01</totfact>
</mgrwt>
</event>
<event>
 8    1  0.6972317E-052  0.1253680E+04  0.7818608E-02  0.9067126E-01
         -2   -1    0    0    0  501 -0.00000000000E+00  0.00000000000E+00  0.12795813291E+03  0.12795813294E+03  0.25500000000E-02 0. -1.
          2   -1    0    0  501    0  0.00000000000E+00 -0.00000000000E+00 -0.30707574273E+04  0.30707574273E+04  0.25500000000E-02 0.  1.
     200001    2    1    2    0    0 -0.75562341790E+02 -0.43368579758E+02 -0.17163671326E+04  0.18248540867E+04  0.61366587194E+03 0.  0.
    5000001    2    3    3    0    0  0.18355715957E+03  0.14247417107E+03 -0.10621552926E+04  0.10900925092E+04  0.78330663359E+02 0.  0.
        -11    1    4    4    0    0  0.14015443966E+03  0.10625062835E+03 -0.86872176788E+03  0.88634641815E+03  0.51100000000E-03 0. -1.
     200002    1    4    4    0    0  0.43402719912E+02  0.36223542726E+02 -0.19343352474E+03  0.20374609109E+03  0.30000000000E+02 0. -1.
     200000    1    3    3    0    0 -0.25911950136E+03 -0.18584275083E+03 -0.65421184002E+03  0.73476157742E+03  0.10100000000E+03 0. -1.
    -200001    1    1    2    0    0  0.75562341790E+02  0.43368579758E+02 -0.12264321617E+04  0.13738614736E+04  0.61300000000E+03 0. -1.
<mgrwt>
<rscale>  0 0.12536800E+04</rscale>
<asrwt>0</asrwt>
<pdfrwt beam="1">  1        2 0.43867959E+00 0.12536800E+04</pdfrwt>
<pdfrwt beam="2">  1       -2 0.18279735E-01 0.12536800E+04</pdfrwt>
<totfact> 0.53519639E+01</totfact>
</mgrwt>
</event>
<event>
 8    1  0.6972317E-052  0.1858550E+04  0.7818608E-02  0.8675768E-01
         -2   -1    0    0    0  501 -0.00000000000E+00  0.00000000000E+00  0.29833268288E+03  0.29833268289E+03  0.25500000000E-02 0. -1.
          2   -1    0    0  501    0  0.00000000000E+00 -0.00000000000E+00 -0.28945933095E+04  0.28945933095E+04  0.25500000000E-02 0.  1.
     200001    2    1    2    0    0  0.79606706747E+02  0.31060934874E+03 -0.23639131501E+04  0.24631522294E+04  0.61336622734E+03 0.  0.
    5000001    2    3    3    0    0  0.20148339187E+03  0.11353880152E+03 -0.20315849382E+04  0.20456192758E+04  0.61108457935E+02 0.  0.
        -11    1    4    4    0    0  0.13325323676E+03  0.83741821366E+02 -0.14514091309E+04  0.14599169781E+04  0.51100000000E-03 0. -1.
     200002    1    4    4    0    0  0.68230155111E+02  0.29796980152E+02 -0.58017580736E+03  0.58570229770E+03  0.30000000000E+02 0. -1.
     200000    1    3    3    0    0 -0.12187668512E+03  0.19707054722E+03 -0.33232821185E+03  0.41753295361E+03  0.10100000000E+03 0. -1.
    -200001    1    1    2    0    0 -0.79606706747E+02 -0.31060934874E+03 -0.23234747653E+03  0.72977376298E+03  0.61300000000E+03 0. -1.
<mgrwt>
<rscale>  0 0.18585497E+04</rscale>
<asrwt>0</asrwt>
<pdfrwt beam="1">  1        2 0.41351331E+00 0.18585497E+04</pdfrwt>
<pdfrwt beam="2">  1       -2 0.42618956E-01 0.18585497E+04</pdfrwt>
<totfact> 0.13298748E+01</totfact>
</mgrwt>
</event>
<event>
 8    1  0.6972317E-052  0.1338137E+04  0.7818608E-02  0.8999857E-01
          2   -1    0    0  501    0  0.00000000000E+00  0.00000000000E+00  0.12693843341E+04  0.12693843341E+04  0.25500000000E-02 0.  1.
         -2   -1    0    0    0  501 -0.00000000000E+00 -0.00000000000E+00 -0.35265358790E+03  0.35265358791E+03  0.25500000000E-02 0. -1.
     200001    2    1    2    0    0  0.17468463953E+03 -0.72260169893E+02  0.68856424350E+03  0.94118169017E+03  0.61316066495E+03 0.  0.
    5000001    2    3    3    0    0  0.29686716672E+03 -0.23908069086E+03  0.31732155615E+03  0.50439823229E+03  0.91841795072E+02 0.  0.
        -11    1    4    4    0    0  0.15571463304E+03 -0.73077916157E+02  0.13331858902E+03  0.21762645738E+03  0.51100000000E-03 0. -1.
     200002    1    4    4    0    0  0.14115253368E+03 -0.16600277470E+03  0.18400296713E+03  0.28677177491E+03  0.30000000000E+02 0. -1.
     200000    1    3    3    0    0 -0.12218252719E+03  0.16682052097E+03  0.37124268736E+03  0.43678345789E+03  0.10100000000E+03 0. -1.
    -200001    1    1    2    0    0 -0.17468463953E+03  0.72260169893E+02  0.22816650266E+03  0.68085623180E+03  0.61300000000E+03 0. -1.
<mgrwt>
<rscale>  0 0.13381374E+04</rscale>
<asrwt>0</asrwt>
<pdfrwt beam="1">  1        2 0.18134062E+00 0.13381374E+04</pdfrwt>
<pdfrwt beam="2">  1       -2 0.50379083E-01 0.13381374E+04</pdfrwt>
<totfact> 0.71165625E+01</totfact>
</mgrwt>
</event>
<event>
 8    1  0.6972317E-052  0.1502524E+04  0.7818608E-02  0.8882776E-01
          2   -1    0    0  501    0  0.00000000000E+00  0.00000000000E+00  0.17003959311E+04  0.17003959312E+04  0.25500000000E-02 0.  1.
         -2   -1    0    0    0  501 -0.00000000000E+00 -0.00000000000E+00 -0.33191972386E+03  0.33191972387E+03  0.25500000000E-02 0. -1.
     200001    2    1    2    0    0  0.29559233478E+03 -0.29134997278E+03  0.84812711462E+03  0.11274444966E+04  0.61607779983E+03 0.  0.
    5000001    2    3    3    0    0  0.10566898266E+02 -0.40882253649E+03  0.43522840460E+03  0.60234865071E+03  0.78438556587E+02 0.  0.
        -11    1    4    4    0    0  0.23822292179E+02 -0.18948687270E+03  0.24139967485E+03  0.30780932336E+03  0.51100000000E-03 0. -1.
     200002    1    4    4    0    0 -0.13255393913E+02 -0.21933566379E+03  0.19382872975E+03  0.29453932735E+03  0.30000000000E+02 0. -1.
     200000    1    3    3    0    0  0.28502543651E+03  0.11747256371E+03  0.41289871002E+03  0.52509584594E+03  0.10100000000E+03 0. -1.
    -200001    1    1    2    0    0 -0.29559233478E+03  0.29134997278E+03  0.52034909267E+03  0.90487115837E+03  0.61300000000E+03 0.  1.
<mgrwt>
<rscale>  0 0.15025245E+04</rscale>
<asrwt>0</asrwt>
<pdfrwt beam="1">  1        2 0.24291371E+00 0.15025245E+04</pdfrwt>
<pdfrwt beam="2">  1       -2 0.47417103E-01 0.15025245E+04</pdfrwt>
<totfact> 0.46741414E+01</totfact>
</mgrwt>
</event>
<event>
 8    1  0.6972317E-052  0.1304792E+04  0.7818608E-02  0.9025774E-01
          2   -1    0    0  501    0  0.00000000000E+00  0.00000000000E+00  0.17827460727E+04  0.17827460727E+04  0.25500000000E-02 0.  1.
         -2   -1    0    0    0  501 -0.00000000000E+00 -0.00000000000E+00 -0.23874430805E+03  0.23874430807E+03  0.25500000000E-02 0. -1.
     200001    2    1    2    0    0  0.19290355955E+03 -0.10417634249E+03  0.70873740080E+03  0.96248138594E+03  0.61318612294E+03 0.  0.
    5000001    2    3    3    0    0  0.22903214005E+03 -0.29475713523E+03  0.25715282852E+03  0.46072851967E+03  0.82496676768E+02 0.  0.
        -11    1    4    4    0    0  0.12452944412E+03 -0.10340244964E+03  0.99429986837E+02  0.18996307885E+03  0.51100000000E-03 0. -1.
     200002    1    4    4    0    0  0.10450269593E+03 -0.19135468559E+03  0.15772284168E+03  0.27076544082E+03  0.30000000000E+02 0.  1.
     200000    1    3    3    0    0 -0.36128580499E+02  0.19058079274E+03  0.45158457229E+03  0.50175286628E+03  0.10100000000E+03 0.  1.
    -200001    1    1    2    0    0 -0.19290355955E+03  0.10417634249E+03  0.83526436385E+03  0.10590089948E+04  0.61300000000E+03 0.  1.
<mgrwt>
<rscale>  0 0.13047919E+04</rscale>
<asrwt>0</asrwt>
<pdfrwt beam="1">  1        2 0.25467800E+00 0.13047919E+04</pdfrwt>
<pdfrwt beam="2">  1       -2 0.34106331E-01 0.13047919E+04</pdfrwt>
<totfact> 0.81945333E+01</totfact>
</mgrwt>
</event>
<event>
 8    1  0.6972317E-052  0.1781234E+04  0.7818608E-02  0.8716343E-01
         -2   -1    0    0    0  501 -0.00000000000E+00  0.00000000000E+00  0.34809803379E+03  0.34809803380E+03  0.25500000000E-02 0. -1.
          2   -1    0    0  501    0  0.00000000000E+00 -0.00000000000E+00 -0.22786652309E+04  0.22786652309E+04  0.25500000000E-02 0.  1.
     200001    2    1    2    0    0  0.44061940923E+03  0.31393702374E+03 -0.14861621495E+04  0.16961899119E+04  0.61292769871E+03 0.  0.
    5000001    2    3    3    0    0  0.48456007066E+02  0.38078066124E+03 -0.75701486629E+03  0.85945998740E+03  0.13512240958E+03 0.  0.
        -11    1    4    4    0    0  0.27734247138E+02  0.11425053699E+02 -0.26316500820E+02  0.39903364921E+02  0.51100000000E-03 0. -1.
     200002    1    4    4    0    0  0.20721759928E+02  0.36935560754E+03 -0.73069836547E+03  0.81955662248E+03  0.30000000000E+02 0. -1.
     200000    1    3    3    0    0  0.39216340216E+03 -0.66843637505E+02 -0.72914728326E+03  0.83672992450E+03  0.10100000000E+03 0. -1.
    -200001    1    1    2    0    0 -0.44061940923E+03 -0.31393702374E+03 -0.44440504760E+03  0.93057335283E+03  0.61300000000E+03 0. -1.
<mgrwt>
<rscale>  0 0.17812343E+04</rscale>
<asrwt>0</asrwt>
<pdfrwt beam="1">  1        2 0.32552359E+00 0.17812343E+04</pdfrwt>
<pdfrwt beam="2">  1       -2 0.49728292E-01 0.17812343E+04</pdfrwt>
<totfact> 0.20887867E+01</totfact>
</mgrwt>
</event>
<event>
 8    1  0.6972317E-052  0.1920127E+04  0.7818608E-02  0.8644902E-01
         -2   -1    0    0    0  501 -0.00000000000E+00  0.00000000000E+00  0.44780982450E+03  0.44780982451E+03  0.25500000000E-02 0. -1.
          2   -1    0    0  501    0  0.00000000000E+00 -0.00000000000E+00 -0.20582889671E+04  0.20582889671E+04  0.25500000000E-02 0.  1.
     200001    2    1    2    0    0  0.39604427468E+03  0.56078513999E+03 -0.11610792099E+04  0.14818623247E+04  0.61357964183E+03 0.  0.
    5000001    2    3    3    0    0  0.18422741436E+03  0.58762402825E+03 -0.10411051663E+04  0.12169444518E+04  0.13346195211E+03 0.  0.
        -11    1    4    4    0    0  0.12930244445E+03  0.37356574865E+03 -0.54752167813E+03  0.67531509588E+03  0.51100000000E-03 0. -1.
     200002    1    4    4    0    0  0.54924969906E+02  0.21405827961E+03 -0.49358348815E+03  0.54162935589E+03  0.30000000000E+02 0. -1.
     200000    1    3    3    0    0  0.21181686032E+03 -0.26838888263E+02 -0.11997404363E+03  0.26491787291E+03  0.10100000000E+03 0. -1.
    -200001    1    1    2    0    0 -0.39604427468E+03 -0.56078513999E+03 -0.44939993271E+03  0.10242364670E+04  0.61300000000E+03 0. -1.
<mgrwt>
<rscale>  0 0.19201271E+04</rscale>
<asrwt>0</asrwt>
<pdfrwt beam="1">  1        2 0.29404128E+00 0.19201271E+04</pdfrwt>
<pdfrwt beam="2">  1       -2 0.63972833E-01 0.19201271E+04</pdfrwt>
<totfact> 0.15866753E+01</totfact>
</mgrwt>
</event>
<event>
 8    1  0.6972317E-052  0.1984181E+04  0.7818608E-02  0.8614052E-01
          2   -1    0    0  501    0  0.00000000000E+00  0.00000000000E+00  0.18457935804E+04  0.18457935804E+04  0.25500000000E-02 0.  1.
         -2   -1    0    0    0  501 -0.00000000000E+00 -0.00000000000E+00 -0.53323617384E+03  0.53323617385E+03  0.25500000000E-02 0. -1.
     200001    2    1    2    0    0  0.25367775017E+03 -0.14951436627E+03  0.15221605779E+04  0.16674052493E+04  0.61364525091E+03 0.  0.
    5000001    2    3    3    0    0  0.38198073937E+03 -0.24927376561E+03  0.12490200838E+04  0.13339081364E+04  0.10589169594E+03 0.  0.
        -11    1    4    4    0    0  0.42131393047E+00  0.58276533056E+01  0.54092634494E+01  0.79623601906E+01  0.51100000000E-03 0. -1.
     200002    1    4    4    0    0  0.38155942544E+03 -0.25510141892E+03  0.12436108203E+04  0.13259457762E+04  0.30000000000E+02 0. -1.
     200000    1    3    3    0    0 -0.12830298919E+03  0.99759399341E+02  0.27314049408E+03  0.33349711288E+03  0.10100000000E+03 0.  1.
    -200001    1    1    2    0    0 -0.25367775017E+03  0.14951436627E+03 -0.20960317128E+03  0.71162450496E+03  0.61300000000E+03 0. -1.
<mgrwt>
<rscale>  0 0.19841813E+04</rscale>
<asrwt>0</asrwt>
<pdfrwt beam="1">  1        2 0.26368480E+00 0.19841813E+04</pdfrwt>
<pdfrwt beam="2">  1       -2 0.76176596E-01 0.19841813E+04</pdfrwt>
<totfact> 0.13879482E+01</totfact>
</mgrwt>
</event>
<event>
 8    1  0.6972317E-052  0.1736497E+04  0.7818608E-02  0.8740818E-01
         -2   -1    0    0    0  501 -0.00000000000E+00  0.00000000000E+00  0.11553337147E+04  0.11553337147E+04  0.25500000000E-02 0. -1.
          2   -1    0    0  501    0  0.00000000000E+00 -0.00000000000E+00 -0.65249991397E+03  0.65249991397E+03  0.25500000000E-02 0.  1.
     200001    2    1    2    0    0 -0.22173534345E+03  0.25141509842E+03  0.78778757923E+03  0.10532849092E+04  0.61353379346E+03 0.  0.
    5000001    2    3    3    0    0  0.17419596437E+03  0.11509914471E+03  0.37272760907E+03  0.45510482045E+03  0.15685177690E+03 0.  0.
        -11    1    4    4    0    0  0.61462794533E+02  0.66602524905E+02  0.29064078251E+03  0.30444315708E+03  0.51100000000E-03 0. -1.
     200002    1    4    4    0    0  0.11273316984E+03  0.48496619805E+02  0.82086826560E+02  0.15066166337E+03  0.30000000000E+02 0. -1.
     200000    1    3    3    0    0 -0.39593130782E+03  0.13631595371E+03  0.41505997016E+03  0.59818008875E+03  0.10100000000E+03 0. -1.
    -200001    1    1    2    0    0  0.22173534345E+03 -0.25141509842E+03 -0.28495377846E+03  0.75454871951E+03  0.61300000000E+03 0.  1.
<mgrwt>
<rscale>  0 0.17364966E+04</rscale>
<asrwt>0</asrwt>
<pdfrwt beam="1">  1        2 0.93214274E-01 0.17364966E+04</pdfrwt>
<pdfrwt beam="2">  1       -2 0.16504767E+00 0.17364966E+04</pdfrwt>
<totfact> 0.10791006E+01</totfact>
</mgrwt>
</event>
<event>
 8    1  0.6972317E-052  0.1260910E+04  0.7818608E-02  0.9061152E-01
         -2   -1    0    0    0  501 -0.00000000000E+00  0.00000000000E+00  0.55980654673E+03  0.55980654674E+03  0.25500000000E-02 0. -1.
          2   -1    0    0  501    0  0.00000000000E+00 -0.00000000000E+00 -0.71001900498E+03  0.71001900499E+03  0.25500000000E-02 0.  1.
     200001    2    1    2    0    0  0.99881204908E+02 -0.75087703870E+02 -0.12151197998E+03  0.64356112209E+03  0.61950894927E+03 0.  0.
    5000001    2    3    3    0    0  0.61142151665E+02  0.34133073953E+02  0.15331341956E+03  0.32866448383E+03  0.28215582373E+03 0.  0.
        -11    1    4    4    0    0  0.45647115333E+02  0.66715381280E+02  0.22719184195E+03  0.24114463354E+03  0.51100000000E-03 0. -1.
     200002    1    4    4    0    0  0.15495036333E+02 -0.32582307328E+02 -0.73878422381E+02  0.87519850293E+02  0.30000000000E+02 0. -1.
     200000    1    3    3    0    0  0.38739053243E+02 -0.10922077782E+03 -0.27482539954E+03  0.31489663826E+03  0.10100000000E+03 0.  1.
    -200001    1    1    2    0    0 -0.99881204908E+02  0.75087703870E+02 -0.28700478268E+02  0.62626442963E+03  0.61300000000E+03 0. -1.
<mgrwt>
<rscale>  0 0.12609097E+04</rscale>
<asrwt>0</asrwt>
<pdfrwt beam="1">  1        2 0.10143129E+00 0.12609097E+04</pdfrwt>
<pdfrwt beam="2">  1       -2 0.79972365E-01 0.12609097E+04</pdfrwt>
<totfact> 0.60211531E+01</totfact>
</mgrwt>
</event>
<event>
 8    1  0.6972317E-052  0.2490669E+04  0.7818608E-02  0.8406317E-01
         -2   -1    0    0    0  501 -0.00000000000E+00  0.00000000000E+00  0.67211209137E+03  0.67211209137E+03  0.25500000000E-02 0.  1.
          2   -1    0    0  501    0  0.00000000000E+00 -0.00000000000E+00 -0.23074394249E+04  0.23074394249E+04  0.25500000000E-02 0. -1.
     200001    2    1    2    0    0 -0.24294454024E+03  0.19401668603E+03  0.42487280344E+03  0.80771862020E+03  0.61255852473E+03 0.  0.
    5000001    2    3    3    0    0 -0.25525482676E+03 -0.79585273798E+02  0.43675502484E+03  0.51556838015E+03  0.59724036165E+02 0.  0.
        -11    1    4    4    0    0 -0.11444805463E+03 -0.18105210598E+02  0.15908776193E+03  0.19681227567E+03  0.51100000000E-03 0. -1.
     200002    1    4    4    0    0 -0.14080677214E+03 -0.61480063200E+02  0.27766726291E+03  0.31875610448E+03  0.30000000000E+02 0.  1.
     200000    1    3    3    0    0  0.12310286523E+02  0.27360195983E+03 -0.11882221398E+02  0.29215024005E+03  0.10100000000E+03 0. -1.
    -200001    1    1    2    0    0  0.24294454024E+03 -0.19401668603E+03 -0.20602001370E+04  0.21718328961E+04  0.61300000000E+03 0. -1.
<mgrwt>
<rscale>  0 0.24906689E+04</rscale>
<asrwt>0</asrwt>
<pdfrwt beam="1">  1        2 0.32963420E+00 0.24906689E+04</pdfrwt>
<pdfrwt beam="2">  1       -2 0.96016014E-01 0.24906689E+04</pdfrwt>
<totfact> 0.45384786E+00</totfact>
</mgrwt>
</event>
<event>
 8    1  0.6972317E-052  0.1437856E+04  0.7818608E-02  0.8926863E-01
         -2   -1    0    0    0  501 -0.00000000000E+00  0.00000000000E+00  0.23417136595E+03  0.23417136596E+03  0.25500000000E-02 0. -1.
          2   -1    0    0  501    0  0.00000000000E+00 -0.00000000000E+00 -0.22071765207E+04  0.22071765207E+04  0.25500000000E-02 0.  1.
     200001    2    1    2    0    0 -0.27023717937E+02  0.36388301658E+03 -0.10784304108E+04  0.12971564238E+04  0.62166028170E+03 0.  0.
    5000001    2    3    3    0    0  0.13444664244E+03  0.84077362106E+02 -0.51529854836E+01  0.17177235016E+03  0.65835283390E+02 0.  0.
        -11    1    4    4    0    0  0.29867633045E+01  0.19528640516E+02  0.88046174114E+01  0.21628912212E+02  0.51100000000E-03 0. -1.
     200002    1    4    4    0    0  0.13145987913E+03  0.64548721589E+02 -0.13957602895E+02  0.15014343795E+03  0.30000000000E+02 0. -1.
     200000    1    3    3    0    0 -0.16147036038E+03  0.27980565448E+03 -0.10732774253E+04  0.11253840737E+04  0.10100000000E+03 0.  1.
    -200001    1    1    2    0    0  0.27023717937E+02 -0.36388301658E+03 -0.89457474389E+03  0.11441914628E+04  0.61300000000E+03 0. -1.
<mgrwt>
<rscale>  0 0.14378561E+04</rscale>
<asrwt>0</asrwt>
<pdfrwt beam="1">  1        2 0.31531092E+00 0.14378561E+04</pdfrwt>
<pdfrwt beam="2">  1       -2 0.33453054E-01 0.14378561E+04</pdfrwt>
<totfact> 0.50917265E+01</totfact>
</mgrwt>
</event>
<event>
 8    1  0.6972317E-052  0.1568675E+04  0.7818608E-02  0.8840027E-01
         -2   -1    0    0    0  501 -0.00000000000E+00  0.00000000000E+00  0.76622663227E+03  0.76622663228E+03  0.25500000000E-02 0. -1.
          2   -1    0    0  501    0  0.00000000000E+00 -0.00000000000E+00 -0.80287598551E+03  0.80287598551E+03  0.25500000000E-02 0.  1.
     200001    2    1    2    0    0  0.13171209724E+03  0.31767153101E+02  0.45118908273E+03  0.77404754537E+03  0.61418302283E+03 0.  0.
    5000001    2    3    3    0    0 -0.16931420753E+03 -0.11302142370E+03  0.32179321789E+03  0.40185826829E+03  0.12844473374E+03 0.  0.
        -11    1    4    4    0    0 -0.39293158808E+01  0.17226038409E+02  0.70450663581E+02  0.72632444003E+02  0.51100000000E-03 0. -1.
     200002    1    4    4    0    0 -0.16538489165E+03 -0.13024746211E+03  0.25134255431E+03  0.32922582429E+03  0.30000000000E+02 0. -1.
     200000    1    3    3    0    0  0.30102630476E+03  0.14478857680E+03  0.12939586484E+03  0.37218927707E+03  0.10100000000E+03 0.  1.
    -200001    1    1    2    0    0 -0.13171209724E+03 -0.31767153101E+02 -0.48783843597E+03  0.79505507242E+03  0.61300000000E+03 0.  1.
<mgrwt>
<rscale>  0 0.15686746E+04</rscale>
<asrwt>0</asrwt>
<pdfrwt beam="1">  1        2 0.11469657E+00 0.15686746E+04</pdfrwt>
<pdfrwt beam="2">  1       -2 0.10946095E+00 0.15686746E+04</pdfrwt>
<totfact> 0.24236795E+01</totfact>
</mgrwt>
</event>
<event>
 8    1  0.6972317E-052  0.1459181E+04  0.7818608E-02  0.8912060E-01
         -2   -1    0    0    0  501 -0.00000000000E+00  0.00000000000E+00  0.36546179980E+03  0.36546179981E+03  0.25500000000E-02 0. -1.
          2   -1    0    0  501    0  0.00000000000E+00 -0.00000000000E+00 -0.14565194889E+04  0.14565194889E+04  0.25500000000E-02 0.  1.
     200001    2    1    2    0    0  0.13019381913E+03  0.28259837675E+03 -0.85198965516E+03  0.10941524641E+04  0.61194033134E+03 0.  0.
    5000001    2    3    3    0    0  0.26112919225E+03 -0.16897397915E+02 -0.15416522702E+03  0.31697698618E+03  0.90738720748E+02 0.  0.
        -11    1    4    4    0    0  0.82297116778E+02 -0.82602463305E+01 -0.64969839717E+01  0.82965401828E+02  0.51100000000E-03 0. -1.
     200002    1    4    4    0    0  0.17883207547E+03 -0.86371515843E+01 -0.14766824305E+03  0.23401158435E+03  0.30000000000E+02 0. -1.
     200000    1    3    3    0    0 -0.13093537312E+03  0.29949577467E+03 -0.69782442814E+03  0.77717547792E+03  0.10100000000E+03 0. -1.
    -200001    1    1    2    0    0 -0.13019381913E+03 -0.28259837675E+03 -0.23906803393E+03  0.72782882461E+03  0.61300000000E+03 0. -1.
<mgrwt>
<rscale>  0 0.14591809E+04</rscale>
<asrwt>0</asrwt>
<pdfrwt beam="1">  1        2 0.20807421E+00 0.14591809E+04</pdfrwt>
<pdfrwt beam="2">  1       -2 0.52208829E-01 0.14591809E+04</pdfrwt>
<totfact> 0.51820098E+01</totfact>
</mgrwt>
</event>
<event>
 8    1  0.6972317E-052  0.1647073E+04  0.7818608E-02  0.8792140E-01
         -2   -1    0    0    0  501 -0.00000000000E+00  0.00000000000E+00  0.10698583485E+04  0.10698583485E+04  0.25500000000E-02 0. -1.
          2   -1    0    0  501    0  0.00000000000E+00 -0.00000000000E+00 -0.63392735049E+03  0.63392735050E+03  0.25500000000E-02 0.  1.
     200001    2    1    2    0    0 -0.30156005050E+03  0.72107280944E+02 -0.25177210680E+03  0.73175561492E+03  0.61313877889E+03 0.  0.
    5000001    2    3    3    0    0 -0.41773573171E+03  0.58743693769E+02 -0.34548973015E+03  0.55103658633E+03  0.79524856038E+02 0.  0.
        -11    1    4    4    0    0 -0.18465029701E+03  0.42292076888E+02 -0.19285806437E+03  0.27033051057E+03  0.51100000000E-03 0. -1.
     200002    1    4    4    0    0 -0.23308543470E+03  0.16451616881E+02 -0.15263166578E+03  0.28070607576E+03  0.30000000000E+02 0. -1.
     200000    1    3    3    0    0  0.11617568121E+03  0.13363587176E+02  0.93717623349E+02  0.18071902859E+03  0.10100000000E+03 0. -1.
    -200001    1    1    2    0    0  0.30156005050E+03 -0.72107280944E+02  0.68770310483E+03  0.97203008411E+03  0.61300000000E+03 0. -1.
<mgrwt>
<rscale>  0 0.16470731E+04</rscale>
<asrwt>0</asrwt>
<pdfrwt beam="1">  1        2 0.90561049E-01 0.16470731E+04</pdfrwt>
<pdfrwt beam="2">  1       -2 0.15283691E+00 0.16470731E+04</pdfrwt>
<totfact> 0.13862374E+01</totfact>
</mgrwt>
</event>
<event>
 8    1  0.6972317E-052  0.1448447E+04  0.7818608E-02  0.8919478E-01
         -2   -1    0    0    0  501 -0.00000000000E+00  0.00000000000E+00  0.37508051635E+03  0.37508051636E+03  0.25500000000E-02 0. -1.
          2   -1    0    0  501    0  0.00000000000E+00 -0.00000000000E+00 -0.13983663043E+04  0.13983663043E+04  0.25500000000E-02 0.  1.
     200001    2    1    2    0    0  0.12284087382E+03 -0.20141631149E+03 -0.13883699445E+03  0.67177668893E+03  0.61347355114E+03 0.  0.
    5000001    2    3    3    0    0  0.34073170323E+03 -0.95039414692E+01 -0.90186005929E+02  0.36052969698E+03  0.75231165425E+02 0.  0.
        -11    1    4    4    0    0  0.60418385516E+02 -0.27238040677E+02 -0.23266155880E+02  0.70239633954E+02  0.51100000000E-03 0. -1.
     200002    1    4    4    0    0  0.28031331772E+03  0.17734099207E+02 -0.66919850049E+02  0.29029006303E+03  0.30000000000E+02 0. -1.
     200000    1    3    3    0    0 -0.21789082941E+03 -0.19191237002E+03 -0.48650988520E+02  0.31124699194E+03  0.10100000000E+03 0. -1.
    -200001    1    1    2    0    0 -0.12284087382E+03  0.20141631149E+03 -0.88444879347E+03  0.11016701317E+04  0.61300000000E+03 0.  1.
<mgrwt>
<rscale>  0 0.14484474E+04</rscale>
<asrwt>0</asrwt>
<pdfrwt beam="1">  1        2 0.19976661E+00 0.14484474E+04</pdfrwt>
<pdfrwt beam="2">  1       -2 0.53582932E-01 0.14484474E+04</pdfrwt>
<totfact> 0.52836204E+01</totfact>
</mgrwt>
</event>
<event>
 8    1  0.6972317E-052  0.1876046E+04  0.7818608E-02  0.8666872E-01
         -2   -1    0    0    0  501 -0.00000000000E+00  0.00000000000E+00  0.30217905593E+03  0.30217905594E+03  0.25500000000E-02 0. -1.
          2   -1    0    0  501    0  0.00000000000E+00 -0.00000000000E+00 -0.29118082871E+04  0.29118082871E+04  0.25500000000E-02 0.  1.
     200001    2    1    2    0    0 -0.45845250146E+03  0.29622039462E+03 -0.53041701850E+03  0.97863107533E+03  0.61518399670E+03 0.  0.
    5000001    2    3    3    0    0 -0.46855801296E+02 -0.15643842237E+03 -0.21917733234E+03  0.28481338283E+03  0.80071929656E+02 0.  0.
        -11    1    4    4    0    0 -0.10237858980E+02 -0.73234532039E+01 -0.61188818186E+02  0.62470138423E+02  0.51100000000E-03 0. -1.
     200002    1    4    4    0    0 -0.36617942316E+02 -0.14911496917E+03 -0.15798851415E+03  0.22234324440E+03  0.30000000000E+02 0. -1.
     200000    1    3    3    0    0 -0.41159670017E+03  0.45265881699E+03 -0.31123968617E+03  0.69381769251E+03  0.10100000000E+03 0. -1.
    -200001    1    1    2    0    0  0.45845250146E+03 -0.29622039462E+03 -0.20792122127E+04  0.22353562677E+04  0.61300000000E+03 0.  1.
<mgrwt>
<rscale>  0 0.18760464E+04</rscale>
<asrwt>0</asrwt>
<pdfrwt beam="1">  1        2 0.41597260E+00 0.18760464E+04</pdfrwt>
<pdfrwt beam="2">  1       -2 0.43168438E-01 0.18760464E+04</pdfrwt>
<totfact> 0.12666568E+01</totfact>
</mgrwt>
</event>
<event>
 8    1  0.6972317E-052  0.1338913E+04  0.7818608E-02  0.8999263E-01
         -2   -1    0    0    0  501 -0.00000000000E+00  0.00000000000E+00  0.96825028837E+03  0.96825028838E+03  0.25500000000E-02 0. -1.
          2   -1    0    0  501    0  0.00000000000E+00 -0.00000000000E+00 -0.46286811321E+03  0.46286811321E+03  0.25500000000E-02 0.  1.
     200001    2    1    2    0    0  0.77731697744E+02  0.14069657514E+03  0.48338082311E+03  0.79701209932E+03  0.61297106229E+03 0.  0.
    5000001    2    3    3    0    0 -0.11811187211E+03  0.23511500580E+03  0.31171421078E+03  0.50215625370E+03  0.29285777034E+03 0.  0.
        -11    1    4    4    0    0 -0.10399276046E+03  0.29032713842E+03  0.18396837663E+03  0.35909428446E+03  0.51100000000E-03 0. -1.
     200002    1    4    4    0    0 -0.14119111649E+02 -0.55212132618E+02  0.12774583415E+03  0.14306196925E+03  0.30000000000E+02 0. -1.
     200000    1    3    3    0    0  0.19584356985E+03 -0.94418430657E+02  0.17166661234E+03  0.29485584561E+03  0.10100000000E+03 0.  1.
    -200001    1    1    2    0    0 -0.77731697744E+02 -0.14069657514E+03  0.22001352050E+02  0.63410630227E+03  0.61300000000E+03 0.  1.
<mgrwt>
<rscale>  0 0.13389133E+04</rscale>
<asrwt>0</asrwt>
<pdfrwt beam="1">  1        2 0.66124017E-01 0.13389133E+04</pdfrwt>
<pdfrwt beam="2">  1       -2 0.13832147E+00 0.13389133E+04</pdfrwt>
<totfact> 0.26588864E+01</totfact>
</mgrwt>
</event>
<event>
 8    1  0.6972317E-052  0.1664232E+04  0.7818608E-02  0.8782031E-01
         -2   -1    0    0    0  501 -0.00000000000E+00  0.00000000000E+00  0.34585226871E+03  0.34585226872E+03  0.25500000000E-02 0. -1.
          2   -1    0    0  501    0  0.00000000000E+00 -0.00000000000E+00 -0.20020602179E+04  0.20020602179E+04  0.25500000000E-02 0.  1.
     200001    2    1    2    0    0 -0.21623669804E+03 -0.44082520911E+03 -0.43945589541E+03  0.89969298152E+03  0.61256901849E+03 0.  0.
    5000001    2    3    3    0    0 -0.29164316133E+03 -0.74302688096E+02 -0.40531546354E+03  0.51060242367E+03  0.76534874816E+02 0.  0.
        -11    1    4    4    0    0 -0.19751769955E+03 -0.35163104421E+02 -0.22631176424E+03  0.30243462133E+03  0.51100000000E-03 0. -1.
     200002    1    4    4    0    0 -0.94125461782E+02 -0.39139583675E+02 -0.17900369931E+03  0.20816780234E+03  0.30000000000E+02 0. -1.
     200000    1    3    3    0    0  0.75406463296E+02 -0.36652252101E+03 -0.34140431867E+02  0.38909055785E+03  0.10100000000E+03 0. -1.
    -200001    1    1    2    0    0  0.21623669804E+03  0.44082520911E+03 -0.12167520538E+04  0.14482195051E+04  0.61300000000E+03 0.  1.
<mgrwt>
<rscale>  0 0.16642320E+04</rscale>
<asrwt>0</asrwt>
<pdfrwt beam="1">  1        2 0.28600860E+00 0.16642320E+04</pdfrwt>
<pdfrwt beam="2">  1       -2 0.49407468E-01 0.16642320E+04</pdfrwt>
<totfact> 0.29675199E+01</totfact>
</mgrwt>
</event>
<event>
 8    1  0.6972317E-052  0.1398216E+04  0.7818608E-02  0.8955111E-01
          2   -1    0    0  501    0  0.00000000000E+00  0.00000000000E+00  0.40667865876E+03  0.40667865876E+03  0.25500000000E-02 0. -1.
         -2   -1    0    0    0  501 -0.00000000000E+00 -0.00000000000E+00 -0.12018140971E+04  0.12018140971E+04  0.25500000000E-02 0.  1.
     200001    2    1    2    0    0  0.14572557444E+03 -0.10344674635E+02 -0.49243903342E+02  0.63203684937E+03  0.61294588799E+03 0.  0.
    5000001    2    3    3    0    0 -0.53704824140E+02 -0.15274165226E+03  0.19236502125E+03  0.27339321628E+03  0.10735608431E+03 0.  0.
        -11    1    4    4    0    0 -0.33803144655E+02 -0.13031688963E+03  0.88264219754E+02  0.16098359171E+03  0.51100000000E-03 0. -1.
     200002    1    4    4    0    0 -0.19901679484E+02 -0.22424762636E+02  0.10410080149E+03  0.11240962458E+03  0.30000000000E+02 0. -1.
     200000    1    3    3    0    0  0.19943039858E+03  0.14239697763E+03 -0.24160892459E+03  0.35864363309E+03  0.10100000000E+03 0.  1.
    -200001    1    1    2    0    0 -0.14572557444E+03  0.10344674635E+02 -0.74589153499E+03  0.97645590649E+03  0.61300000000E+03 0.  1.
<mgrwt>
<rscale>  0 0.13982162E+04</rscale>
<asrwt>0</asrwt>
<pdfrwt beam="1">  1        2 0.58096952E-01 0.13982162E+04</pdfrwt>
<pdfrwt beam="2">  1       -2 0.17168773E+00 0.13982162E+04</pdfrwt>
<totfact> 0.17141982E+01</totfact>
</mgrwt>
</event>
<event>
 8    1  0.6972317E-052  0.1345062E+04  0.7818608E-02  0.8994575E-01
          2   -1    0    0  501    0  0.00000000000E+00  0.00000000000E+00  0.81099419617E+03  0.81099419617E+03  0.25500000000E-02 0.  1.
         -2   -1    0    0    0  501 -0.00000000000E+00 -0.00000000000E+00 -0.55770767608E+03  0.55770767608E+03  0.25500000000E-02 0. -1.
     200001    2    1    2    0    0 -0.15857484374E+03  0.36927704530E+02 -0.10094666242E+03  0.64223109926E+03  0.61299340924E+03 0.  0.
    5000001    2    3    3    0    0 -0.12150578419E+03  0.20849383759E+03 -0.27457562601E+03  0.37547827325E+03  0.85783584545E+02 0.  0.
        -11    1    4    4    0    0 -0.99375066934E+02  0.16097292657E+03 -0.16813381187E+03  0.25309418348E+03  0.51100000000E-03 0. -1.
     200002    1    4    4    0    0 -0.22130717254E+02  0.47520911014E+02 -0.10644181415E+03  0.12238408977E+03  0.30000000000E+02 0. -1.
     200000    1    3    3    0    0 -0.37069059552E+02 -0.17156613306E+03  0.17362896359E+03  0.26675282601E+03  0.10100000000E+03 0.  1.
    -200001    1    1    2    0    0  0.15857484374E+03 -0.36927704530E+02  0.35423318251E+03  0.72647077300E+03  0.61300000000E+03 0.  1.
<mgrwt>
<rscale>  0 0.13450616E+04</rscale>
<asrwt>0</asrwt>
<pdfrwt beam="1">  1        2 0.11585631E+00 0.13450616E+04</pdfrwt>
<pdfrwt beam="2">  1       -2 0.79672526E-01 0.13450616E+04</pdfrwt>
<totfact> 0.50991023E+01</totfact>
</mgrwt>
</event>
<event>
 8    1  0.6972317E-052  0.2907548E+04  0.7818608E-02  0.8270635E-01
          2   -1    0    0  501    0  0.00000000000E+00  0.00000000000E+00  0.29310246534E+04  0.29310246534E+04  0.25500000000E-02 0.  1.
         -2   -1    0    0    0  501 -0.00000000000E+00 -0.00000000000E+00 -0.72106478562E+03  0.72106478563E+03  0.25500000000E-02 0. -1.
     200001    2    1    2    0    0  0.12434237945E+04  0.43759824914E+03  0.11195872219E+04  0.18348727576E+04  0.61293354329E+03 0.  0.
    5000001    2    3    3    0    0  0.47360562487E+03  0.36522186418E+03  0.77297925290E+03  0.98152848961E+03  0.90619824134E+02 0.  0.
        -11    1    4    4    0    0  0.34487558388E+03  0.25081952590E+03  0.59522697422E+03  0.73221906132E+03  0.51100000000E-03 0. -1.
     200002    1    4    4    0    0  0.12873004099E+03  0.11440233828E+03  0.17775227868E+03  0.24930942829E+03  0.30000000000E+02 0. -1.
     200000    1    3    3    0    0  0.76981816968E+03  0.72376384963E+02  0.34660796901E+03  0.85334426795E+03  0.10100000000E+03 0. -1.
    -200001    1    1    2    0    0 -0.12434237945E+04 -0.43759824914E+03  0.10903726458E+04  0.18172166814E+04  0.61300000000E+03 0.  1.
<mgrwt>
<rscale>  0 0.29075479E+04</rscale>
<asrwt>0</asrwt>
<pdfrwt beam="1">  1        2 0.41871781E+00 0.29075479E+04</pdfrwt>
<pdfrwt beam="2">  1       -2 0.10300925E+00 0.29075479E+04</pdfrwt>
<totfact> 0.17219395E+00</totfact>
</mgrwt>
</event>
<event>
 8    1  0.6972317E-052  0.1894283E+04  0.7818608E-02  0.8657707E-01
         -2   -1    0    0    0  501 -0.00000000000E+00  0.00000000000E+00  0.74590440394E+03  0.74590440394E+03  0.25500000000E-02 0. -1.
          2   -1    0    0  501    0  0.00000000000E+00 -0.00000000000E+00 -0.12026702632E+04  0.12026702633E+04  0.25500000000E-02 0.  1.
     200001    2    1    2    0    0  0.10564323319E+02  0.10467461320E+03 -0.96316483333E+03  0.11465289700E+04  0.61300391777E+03 0.  0.
    5000001    2    3    3    0    0 -0.48929910989E+02 -0.24052658916E+03 -0.36645719875E+03  0.44726905033E+03  0.74239804604E+02 0.  0.
        -11    1    4    4    0    0 -0.49032528491E+02 -0.13819641365E+03 -0.17688347138E+03  0.22976118045E+03  0.51100000000E-03 0. -1.
     200002    1    4    4    0    0  0.10261750185E+00 -0.10233017551E+03 -0.18957372737E+03  0.21750786988E+03  0.30000000000E+02 0.  1.
     200000    1    3    3    0    0  0.59494234308E+02  0.34520120236E+03 -0.59670763458E+03  0.69925991963E+03  0.10100000000E+03 0.  1.
    -200001    1    1    2    0    0 -0.10564323319E+02 -0.10467461320E+03  0.50639897402E+03  0.80204569724E+03  0.61300000000E+03 0. -1.
<mgrwt>
<rscale>  0 0.18942830E+04</rscale>
<asrwt>0</asrwt>
<pdfrwt beam="1">  1        2 0.17181004E+00 0.18942830E+04</pdfrwt>
<pdfrwt beam="2">  1       -2 0.10655777E+00 0.18942830E+04</pdfrwt>
<totfact> 0.14210126E+01</totfact>
</mgrwt>
</event>
<event>
 8    1  0.6972317E-052  0.1250702E+04  0.7818608E-02  0.9069599E-01
         -2   -1    0    0    0  501 -0.00000000000E+00  0.00000000000E+00  0.20812824592E+04  0.20812824592E+04  0.25500000000E-02 0. -1.
          2   -1    0    0  501    0  0.00000000000E+00 -0.00000000000E+00 -0.18789556410E+03  0.18789556412E+03  0.25500000000E-02 0.  1.
     200001    2    1    2    0    0 -0.18674596297E+02  0.51136412605E+02  0.11470693201E+04  0.13018504697E+04  0.61325602082E+03 0.  0.
    5000001    2    3    3    0    0  0.48571321181E+01 -0.25894010871E+03  0.40770552786E+03  0.49341926755E+03  0.10082263888E+03 0.  0.
        -11    1    4    4    0    0 -0.20219235460E+02 -0.85562649764E+02  0.20948383489E+03  0.22718552242E+03  0.51100000000E-03 0. -1.
     200002    1    4    4    0    0  0.25076367578E+02 -0.17337745895E+03  0.19822169297E+03  0.26623374513E+03  0.30000000000E+02 0. -1.
     200000    1    3    3    0    0 -0.23531728415E+02  0.31007652132E+03  0.73936379226E+03  0.80843120215E+03  0.10100000000E+03 0. -1.
    -200001    1    1    2    0    0  0.18674596297E+02 -0.51136412605E+02  0.74631757496E+03  0.96732755359E+03  0.61300000000E+03 0.  1.
<mgrwt>
<rscale>  0 0.12507018E+04</rscale>
<asrwt>0</asrwt>
<pdfrwt beam="1">  1        2 0.26842225E-01 0.12507018E+04</pdfrwt>
<pdfrwt beam="2">  1       -2 0.29732605E+00 0.12507018E+04</pdfrwt>
<totfact> 0.66169864E+00</totfact>
</mgrwt>
</event>
<event>
 8    1  0.6972317E-052  0.1425664E+04  0.7818608E-02  0.8935448E-01
          2   -1    0    0  501    0  0.00000000000E+00  0.00000000000E+00  0.12622622903E+04  0.12622622903E+04  0.25500000000E-02 0.  1.
         -2   -1    0    0    0  501 -0.00000000000E+00 -0.00000000000E+00 -0.40255476677E+03  0.40255476677E+03  0.25500000000E-02 0. -1.
     200001    2    1    2    0    0  0.22283826008E+03 -0.23888000372E+03  0.24211517163E+03  0.73534954313E+03  0.61269784389E+03 0.  0.
    5000001    2    3    3    0    0  0.45024840214E+02 -0.23013977922E+03  0.40112433975E+03  0.47616057856E+03  0.10409902217E+03 0.  0.
        -11    1    4    4    0    0  0.33444369777E+02 -0.12721180592E+03  0.13250803288E+03  0.18670765441E+03  0.51100000000E-03 0. -1.
     200002    1    4    4    0    0  0.11580470437E+02 -0.10292797330E+03  0.26861630687E+03  0.28945292415E+03  0.30000000000E+02 0. -1.
     200000    1    3    3    0    0  0.17781341987E+03 -0.87402244968E+01 -0.15900916812E+03  0.25918896457E+03  0.10100000000E+03 0. -1.
    -200001    1    1    2    0    0 -0.22283826008E+03  0.23888000372E+03  0.61759235186E+03  0.92946751391E+03  0.61300000000E+03 0.  1.
<mgrwt>
<rscale>  0 0.14256643E+04</rscale>
<asrwt>0</asrwt>
<pdfrwt beam="1">  1        2 0.18032319E+00 0.14256643E+04</pdfrwt>
<pdfrwt beam="2">  1       -2 0.57507823E-01 0.14256643E+04</pdfrwt>
<totfact> 0.54286016E+01</totfact>
</mgrwt>
</event>
<event>
 8    1  0.6972317E-052  0.2594922E+04  0.7818608E-02  0.8369928E-01
         -2   -1    0    0    0  501 -0.00000000000E+00  0.00000000000E+00  0.14954384883E+04  0.14954384884E+04  0.25500000000E-02 0. -1.
          2   -1    0    0  501    0  0.00000000000E+00 -0.00000000000E+00 -0.11256934451E+04  0.11256934451E+04  0.25500000000E-02 0.  1.
     200001    2    1    2    0    0 -0.30939233683E+03 -0.10972584727E+04  0.27473843459E+03  0.13232509567E+04  0.61303516462E+03 0.  0.
    5000001    2    3    3    0    0  0.15342364625E+03 -0.19063391207E+03  0.11294330379E+03  0.28761328241E+03  0.10042463188E+03 0.  0.
        -11    1    4    4    0    0 -0.13073963601E+02 -0.16474750808E+02  0.36487196961E+01  0.21346172822E+02  0.51100000000E-03 0. -1.
     200002    1    4    4    0    0  0.16649760985E+03 -0.17415916126E+03  0.10929458410E+03  0.26626710959E+03  0.30000000000E+02 0. -1.
     200000    1    3    3    0    0 -0.46281598307E+03 -0.90662456062E+03  0.16179513079E+03  0.10356376743E+04  0.10100000000E+03 0. -1.
    -200001    1    1    2    0    0  0.30939233683E+03  0.10972584727E+04  0.95006608690E+02  0.12978809767E+04  0.61300000000E+03 0.  1.
<mgrwt>
<rscale>  0 0.25949222E+04</rscale>
<asrwt>0</asrwt>
<pdfrwt beam="1">  1        2 0.16081335E+00 0.25949222E+04</pdfrwt>
<pdfrwt beam="2">  1       -2 0.21363407E+00 0.25949222E+04</pdfrwt>
<totfact> 0.22787125E+00</totfact>
</mgrwt>
</event>
<event>
 8    1  0.6972317E-052  0.1756652E+04  0.7818608E-02  0.8729697E-01
         -2   -1    0    0    0  501 -0.00000000000E+00  0.00000000000E+00  0.50030486663E+03  0.50030486664E+03  0.25500000000E-02 0. -1.
          2   -1    0    0  501    0  0.00000000000E+00 -0.00000000000E+00 -0.15419725159E+04  0.15419725159E+04  0.25500000000E-02 0.  1.
     200001    2    1    2    0    0  0.44214604923E+03 -0.42653009031E+03 -0.36279346669E+03  0.94043338151E+03  0.61267838122E+03 0.  0.
    5000001    2    3    3    0    0  0.20355653330E+03 -0.36338852553E+03  0.74280314757E+02  0.42843113080E+03  0.67447653326E+02 0.  0.
        -11    1    4    4    0    0  0.39493372934E+01 -0.39657686928E+02  0.48809645396E+00  0.39856839262E+02  0.51100000000E-03 0. -1.
     200002    1    4    4    0    0  0.19960719601E+03 -0.32373083860E+03  0.73792218303E+02  0.38857429154E+03  0.30000000000E+02 0. -1.
     200000    1    3    3    0    0  0.23858951592E+03 -0.63141564779E+02 -0.43707378144E+03  0.51200225071E+03  0.10100000000E+03 0. -1.
    -200001    1    1    2    0    0 -0.44214604923E+03  0.42653009031E+03 -0.67887418255E+03  0.11018440010E+04  0.61300000000E+03 0.  1.
<mgrwt>
<rscale>  0 0.17566518E+04</rscale>
<asrwt>0</asrwt>
<pdfrwt beam="1">  1        2 0.22028179E+00 0.17566518E+04</pdfrwt>
<pdfrwt beam="2">  1       -2 0.71472125E-01 0.17566518E+04</pdfrwt>
<totfact> 0.23429098E+01</totfact>
</mgrwt>
</event>
<event>
 8    1  0.6972317E-052  0.2397264E+04  0.7818608E-02  0.8440528E-01
         -2   -1    0    0    0  501 -0.00000000000E+00  0.00000000000E+00  0.55133660347E+03  0.55133660347E+03  0.25500000000E-02 0. -1.
          2   -1    0    0  501    0  0.00000000000E+00 -0.00000000000E+00 -0.26058835389E+04  0.26058835389E+04  0.25500000000E-02 0.  1.
     200001    2    1    2    0    0 -0.36574215795E+03 -0.38181734686E+03  0.13684511684E+03  0.82108659755E+03  0.61311075851E+03 0.  0.
    5000001    2    3    3    0    0  0.14907556729E+03 -0.14472435018E+03 -0.28186223352E+01  0.22867007234E+03  0.95464103491E+02 0.  0.
        -11    1    4    4    0    0  0.90483914139E+02 -0.85936041078E+02 -0.42603897755E+02  0.13186141960E+03  0.51100000000E-03 0. -1.
     200002    1    4    4    0    0  0.58591653153E+02 -0.58788309099E+02  0.39785275420E+02  0.96808652744E+02  0.30000000000E+02 0. -1.
     200000    1    3    3    0    0 -0.51481772524E+03 -0.23709299669E+03  0.13966373918E+03  0.59241652521E+03  0.10100000000E+03 0. -1.
    -200001    1    1    2    0    0  0.36574215795E+03  0.38181734686E+03 -0.21913920522E+04  0.23361335448E+04  0.61300000000E+03 0.  1.
<mgrwt>
<rscale>  0 0.23972643E+04</rscale>
<asrwt>0</asrwt>
<pdfrwt beam="1">  1        2 0.37226907E+00 0.23972643E+04</pdfrwt>
<pdfrwt beam="2">  1       -2 0.78762373E-01 0.23972643E+04</pdfrwt>
<totfact> 0.50115410E+00</totfact>
</mgrwt>
</event>
<event>
 8    1  0.6972317E-052  0.1419031E+04  0.7818608E-02  0.8940157E-01
         -2   -1    0    0    0  501 -0.00000000000E+00  0.00000000000E+00  0.32778798047E+03  0.32778798048E+03  0.25500000000E-02 0. -1.
          2   -1    0    0  501    0  0.00000000000E+00 -0.00000000000E+00 -0.15357869818E+04  0.15357869818E+04  0.25500000000E-02 0.  1.
     200001    2    1    2    0    0 -0.32602666752E+03  0.77485563491E+02 -0.43862155555E+03  0.82434060249E+03  0.61225089583E+03 0.  0.
    5000001    2    3    3    0    0  0.14735419303E+03  0.10255818609E+03 -0.43840767424E+02  0.19922385642E+03  0.74408953371E+02 0.  0.
        -11    1    4    4    0    0  0.11206715184E+03  0.62380425512E+02 -0.87005002248E+01  0.12855373473E+03  0.51100000000E-03 0. -1.
     200002    1    4    4    0    0  0.35287041188E+02  0.40177760577E+02 -0.35140267199E+02  0.70670121689E+02  0.30000000000E+02 0. -1.
     200000    1    3    3    0    0 -0.47338086055E+03 -0.25072622598E+02 -0.39478078812E+03  0.62511674607E+03  0.10100000000E+03 0.  1.
    -200001    1    1    2    0    0  0.32602666752E+03 -0.77485563491E+02 -0.76937744576E+03  0.10392343598E+04  0.61300000000E+03 0. -1.
<mgrwt>
<rscale>  0 0.14190314E+04</rscale>
<asrwt>0</asrwt>
<pdfrwt beam="1">  1        2 0.21939814E+00 0.14190314E+04</pdfrwt>
<pdfrwt beam="2">  1       -2 0.46826855E-01 0.14190314E+04</pdfrwt>
<totfact> 0.58837920E+01</totfact>
</mgrwt>
</event>
<event>
 8    1  0.6972317E-052  0.1711015E+04  0.7818608E-02  0.8755107E-01
         -2   -1    0    0    0  501 -0.00000000000E+00  0.00000000000E+00  0.12383763016E+04  0.12383763016E+04  0.25500000000E-02 0. -1.
          2   -1    0    0  501    0  0.00000000000E+00 -0.00000000000E+00 -0.59101056183E+03  0.59101056183E+03  0.25500000000E-02 0.  1.
     200001    2    1    2    0    0 -0.21434880488E+03  0.27095541182E+03 -0.19690583281E+03  0.73033011621E+03  0.61257483322E+03 0.  0.
    5000001    2    3    3    0    0 -0.19965769811E+03 -0.14170242169E+03 -0.53885603962E+02  0.28182359225E+03  0.12875599444E+03 0.  0.
        -11    1    4    4    0    0 -0.17346284687E+03 -0.96663207606E+02  0.36435241204E+01  0.19861120366E+03  0.51100000000E-03 0. -1.
     200002    1    4    4    0    0 -0.26194851240E+02 -0.45039214087E+02 -0.57529128082E+02  0.83212388591E+02  0.30000000000E+02 0. -1.
     200000    1    3    3    0    0 -0.14691106770E+02  0.41265783351E+03 -0.14302022885E+03  0.44850652396E+03  0.10100000000E+03 0.  1.
    -200001    1    1    2    0    0  0.21434880488E+03 -0.27095541182E+03  0.84427157257E+03  0.10990567472E+04  0.61300000000E+03 0. -1.
<mgrwt>
<rscale>  0 0.17110155E+04</rscale>
<asrwt>0</asrwt>
<pdfrwt beam="1">  1        2 0.84430081E-01 0.17110155E+04</pdfrwt>
<pdfrwt beam="2">  1       -2 0.17691090E+00 0.17110155E+04</pdfrwt>
<totfact> 0.10024558E+01</totfact>
</mgrwt>
</event>
<event>
 8    1  0.6972317E-052  0.1427922E+04  0.7818608E-02  0.8933852E-01
          2   -1    0    0  501    0  0.00000000000E+00  0.00000000000E+00  0.12901544245E+04  0.12901544245E+04  0.25500000000E-02 0.  1.
         -2   -1    0    0    0  501 -0.00000000000E+00 -0.00000000000E+00 -0.39510014843E+03  0.39510014844E+03  0.25500000000E-02 0. -1.
     200001    2    1    2    0    0 -0.15941172652E+03 -0.14465427253E+03  0.10148992577E+03  0.65965702264E+03  0.61523184684E+03 0.  0.
    5000001    2    3    3    0    0  0.21316041245E+02 -0.29055738821E+03 -0.11566376096E+03  0.32603003202E+03  0.89663296389E+02 0.  0.
        -11    1    4    4    0    0  0.36372992900E+02 -0.10986425906E+03 -0.15613889487E+02  0.11677732475E+03  0.51100000000E-03 0. -1.
     200002    1    4    4    0    0 -0.15056951655E+02 -0.18069312915E+03 -0.10004987148E+03  0.20925270727E+03  0.30000000000E+02 0. -1.
     200000    1    3    3    0    0 -0.18072776777E+03  0.14590311568E+03  0.21715368673E+03  0.33362699062E+03  0.10100000000E+03 0.  1.
    -200001    1    1    2    0    0  0.15941172652E+03  0.14465427253E+03  0.79356435031E+03  0.10255975503E+04  0.61300000000E+03 0.  1.
<mgrwt>
<rscale>  0 0.14279219E+04</rscale>
<asrwt>0</asrwt>
<pdfrwt beam="1">  1        2 0.18430777E+00 0.14279219E+04</pdfrwt>
<pdfrwt beam="2">  1       -2 0.56442879E-01 0.14279219E+04</pdfrwt>
<totfact> 0.54454780E+01</totfact>
</mgrwt>
</event>
<event>
 8    1  0.6972317E-052  0.1391741E+04  0.7818608E-02  0.8959819E-01
         -2   -1    0    0    0  501 -0.00000000000E+00  0.00000000000E+00  0.69250208631E+03  0.69250208631E+03  0.25500000000E-02 0.  1.
          2   -1    0    0  501    0  0.00000000000E+00 -0.00000000000E+00 -0.69925526254E+03  0.69925526255E+03  0.25500000000E-02 0. -1.
     200001    2    1    2    0    0 -0.13860961641E+03 -0.61844734716E+02  0.28850621739E+03  0.69463145887E+03  0.61338375361E+03 0.  0.
    5000001    2    3    3    0    0 -0.16314310604E+03 -0.23255895802E+03  0.35447133484E+03  0.48416142567E+03  0.16752019843E+03 0.  0.
        -11    1    4    4    0    0 -0.49591902017E+02 -0.19168856681E+03  0.26574804408E+03  0.33139988884E+03  0.51100000000E-03 0. -1.
     200002    1    4    4    0    0 -0.11355120402E+03 -0.40870391211E+02  0.88723290765E+02  0.15276153683E+03  0.30000000000E+02 0. -1.
     200000    1    3    3    0    0  0.24533489624E+02  0.17071422331E+03 -0.65965117448E+02  0.21047003319E+03  0.10100000000E+03 0. -1.
    -200001    1    1    2    0    0  0.13860961641E+03  0.61844734716E+02 -0.29525939363E+03  0.69712588999E+03  0.61300000000E+03 0. -1.
<mgrwt>
<rscale>  0 0.13917410E+04</rscale>
<asrwt>0</asrwt>
<pdfrwt beam="1">  1        2 0.99893609E-01 0.13917410E+04</pdfrwt>
<pdfrwt beam="2">  1       -2 0.98928870E-01 0.13917410E+04</pdfrwt>
<totfact> 0.37258538E+01</totfact>
</mgrwt>
</event>
<event>
 8    1  0.6972317E-052  0.1370653E+04  0.7818608E-02  0.8975340E-01
         -2   -1    0    0    0  501 -0.00000000000E+00  0.00000000000E+00  0.39815390036E+03  0.39815390037E+03  0.25500000000E-02 0. -1.
          2   -1    0    0  501    0  0.00000000000E+00 -0.00000000000E+00 -0.11796255867E+04  0.11796255867E+04  0.25500000000E-02 0.  1.
     200001    2    1    2    0    0 -0.26041193310E+03  0.12689860180E+03 -0.44032963665E+03  0.81879033821E+03  0.62658582732E+03 0.  0.
    5000001    2    3    3    0    0  0.91416553002E+01  0.24418677723E+03 -0.43658359184E+03  0.50793557153E+03  0.87650214660E+02 0.  0.
        -11    1    4    4    0    0  0.15569127041E+02  0.21533840528E+03 -0.34269234216E+03  0.40503218129E+03  0.51100000000E-03 0. -1.
     200002    1    4    4    0    0 -0.64274717412E+01  0.28848371950E+02 -0.93891249682E+02  0.10290339025E+03  0.30000000000E+02 0.  1.
     200000    1    3    3    0    0 -0.26955358840E+03 -0.11728817544E+03 -0.37460448137E+01  0.31085476668E+03  0.10100000000E+03 0. -1.
    -200001    1    1    2    0    0  0.26041193310E+03 -0.12689860180E+03 -0.34114204971E+03  0.75898914888E+03  0.61300000000E+03 0. -1.
<mgrwt>
<rscale>  0 0.13706532E+04</rscale>
<asrwt>0</asrwt>
<pdfrwt beam="1">  1        2 0.16851794E+00 0.13706532E+04</pdfrwt>
<pdfrwt beam="2">  1       -2 0.56879129E-01 0.13706532E+04</pdfrwt>
<totfact> 0.62120749E+01</totfact>
</mgrwt>
</event>
<event>
 8    1  0.6972317E-052  0.1539002E+04  0.7818608E-02  0.8858923E-01
         -2   -1    0    0    0  501 -0.00000000000E+00  0.00000000000E+00  0.24431106106E+03  0.24431106108E+03  0.25500000000E-02 0. -1.
          2   -1    0    0  501    0  0.00000000000E+00 -0.00000000000E+00 -0.24236796391E+04  0.24236796391E+04  0.25500000000E-02 0.  1.
     200001    2    1    2    0    0  0.30463516312E+03 -0.66856115684E+02 -0.16878670234E+04  0.18226416001E+04  0.61307013541E+03 0.  0.
    5000001    2    3    3    0    0 -0.97581922603E+02 -0.10037280173E+03 -0.10431480616E+04  0.10553310423E+04  0.77258007047E+02 0.  0.
        -11    1    4    4    0    0 -0.74977641238E+02 -0.58978472189E+02 -0.80893167595E+03  0.81453702385E+03  0.51100000000E-03 0. -1.
     200002    1    4    4    0    0 -0.22604281365E+02 -0.41394329543E+02 -0.23421638561E+03  0.24079401850E+03  0.30000000000E+02 0.  1.
     200000    1    3    3    0    0  0.40221708572E+03  0.33516686048E+02 -0.64471896183E+03  0.76731055775E+03  0.10100000000E+03 0.  1.
    -200001    1    1    2    0    0 -0.30463516312E+03  0.66856115684E+02 -0.49150155467E+03  0.84534910011E+03  0.61300000000E+03 0. -1.
<mgrwt>
<rscale>  0 0.15390019E+04</rscale>
<asrwt>0</asrwt>
<pdfrwt beam="1">  1        2 0.34623993E+00 0.15390019E+04</pdfrwt>
<pdfrwt beam="2">  1       -2 0.34901582E-01 0.15390019E+04</pdfrwt>
<totfact> 0.35975455E+01</totfact>
</mgrwt>
</event>
<event>
 8    1  0.6972317E-052  0.1638424E+04  0.7818608E-02  0.8797284E-01
         -2   -1    0    0    0  501 -0.00000000000E+00  0.00000000000E+00  0.24675694044E+03  0.24675694045E+03  0.25500000000E-02 0. -1.
          2   -1    0    0  501    0  0.00000000000E+00 -0.00000000000E+00 -0.27197153734E+04  0.27197153734E+04  0.25500000000E-02 0.  1.
     200001    2    1    2    0    0  0.14107815767E+03  0.24546402328E+03 -0.20742792471E+04  0.21823360205E+04  0.61627954547E+03 0.  0.
    5000001    2    3    3    0    0  0.27739322701E+03  0.34676781083E+03 -0.11140128712E+04  0.12019499904E+04  0.80400155658E+02 0.  0.
        -11    1    4    4    0    0  0.21802646490E+03  0.29254903706E+03 -0.87629964364E+03  0.94922154628E+03  0.51100000000E-03 0. -1.
     200002    1    4    4    0    0  0.59366762107E+02  0.54218773770E+02 -0.23771322759E+03  0.25272844407E+03  0.30000000000E+02 0.  1.
     200000    1    3    3    0    0 -0.13631506934E+03 -0.10130378755E+03 -0.96026637583E+03  0.98038603011E+03  0.10100000000E+03 0.  1.
    -200001    1    1    2    0    0 -0.14107815767E+03 -0.24546402328E+03 -0.39867918587E+03  0.78413629335E+03  0.61300000000E+03 0. -1.
<mgrwt>
<rscale>  0 0.16384244E+04</rscale>
<asrwt>0</asrwt>
<pdfrwt beam="1">  1        2 0.38853075E+00 0.16384244E+04</pdfrwt>
<pdfrwt beam="2">  1       -2 0.35250993E-01 0.16384244E+04</pdfrwt>
<totfact> 0.24402168E+01</totfact>
</mgrwt>
</event>
<event>
 8    1  0.6972317E-052  0.1349853E+04  0.7818608E-02  0.8990939E-01
         -2   -1    0    0    0  501 -0.00000000000E+00  0.00000000000E+00  0.19542594184E+03  0.19542594186E+03  0.25500000000E-02 0. -1.
          2   -1    0    0  501    0  0.00000000000E+00 -0.00000000000E+00 -0.23309384415E+04  0.23309384415E+04  0.25500000000E-02 0.  1.
     200001    2    1    2    0    0  0.13191196482E+02 -0.28143808891E+03 -0.10639409837E+04  0.12601037785E+04  0.61360387084E+03 0.  0.
    5000001    2    3    3    0    0 -0.26533963168E+03 -0.20719445833E+03 -0.72917687917E+03  0.80693764498E+03  0.78197046330E+02 0.  0.
        -11    1    4    4    0    0 -0.10183321687E+03 -0.11695296840E+03 -0.29281285613E+03  0.33134177158E+03  0.51100000000E-03 0. -1.
     200002    1    4    4    0    0 -0.16350641481E+03 -0.90241489933E+02 -0.43636402304E+03  0.47559587340E+03  0.30000000000E+02 0. -1.
     200000    1    3    3    0    0  0.27853082817E+03 -0.74243630582E+02 -0.33476410455E+03  0.45316613357E+03  0.10100000000E+03 0. -1.
    -200001    1    1    2    0    0 -0.13191196482E+02  0.28143808891E+03 -0.10715715160E+04  0.12662606049E+04  0.61300000000E+03 0.  1.
<mgrwt>
<rscale>  0 0.13498531E+04</rscale>
<asrwt>0</asrwt>
<pdfrwt beam="1">  1        2 0.33299119E+00 0.13498531E+04</pdfrwt>
<pdfrwt beam="2">  1       -2 0.27917993E-01 0.13498531E+04</pdfrwt>
<totfact> 0.62047145E+01</totfact>
</mgrwt>
</event>
<event>
 8    1  0.6972317E-052  0.1366280E+04  0.7818608E-02  0.8978595E-01
          2   -1    0    0  501    0  0.00000000000E+00  0.00000000000E+00  0.10291089402E+04  0.10291089402E+04  0.25500000000E-02 0.  1.
         -2   -1    0    0    0  501 -0.00000000000E+00 -0.00000000000E+00 -0.45347972252E+03  0.45347972253E+03  0.25500000000E-02 0. -1.
     200001    2    1    2    0    0  0.54256904818E+02  0.31267124560E+02  0.60832426447E+03  0.86553160628E+03  0.61250722928E+03 0.  0.
    5000001    2    3    3    0    0  0.31851854629E+03  0.54019524627E+02  0.31446545485E+03  0.45699043717E+03  0.74696479211E+02 0.  0.
        -11    1    4    4    0    0  0.15351146076E+03  0.36003555263E+02  0.19252159763E+03  0.24885053773E+03  0.51100000000E-03 0. -1.
     200002    1    4    4    0    0  0.16500708552E+03  0.18015969364E+02  0.12194385722E+03  0.20813989944E+03  0.30000000000E+02 0. -1.
     200000    1    3    3    0    0 -0.26426164147E+03 -0.22752400067E+02  0.29385880962E+03  0.40854116910E+03  0.10100000000E+03 0. -1.
    -200001    1    1    2    0    0 -0.54256904818E+02 -0.31267124560E+02 -0.32695046822E+02  0.61705705643E+03  0.61300000000E+03 0. -1.
<mgrwt>
<rscale>  0 0.13662797E+04</rscale>
<asrwt>0</asrwt>
<pdfrwt beam="1">  1        2 0.14701556E+00 0.13662797E+04</pdfrwt>
<pdfrwt beam="2">  1       -2 0.64782817E-01 0.13662797E+04</pdfrwt>
<totfact> 0.57896460E+01</totfact>
</mgrwt>
</event>
<event>
 8    1  0.6972317E-052  0.1860674E+04  0.7818608E-02  0.8674683E-01
         -2   -1    0    0    0  501 -0.00000000000E+00  0.00000000000E+00  0.21198376161E+03  0.21198376162E+03  0.25500000000E-02 0. -1.
          2   -1    0    0  501    0  0.00000000000E+00 -0.00000000000E+00 -0.40829859646E+04  0.40829859646E+04  0.25500000000E-02 0.  1.
     200001    2    1    2    0    0 -0.55271549861E+03 -0.96517146933E+02 -0.29021913878E+04  0.30185789641E+04  0.61179582291E+03 0.  0.
    5000001    2    3    3    0    0 -0.38745534436E+02 -0.25295618723E+03 -0.91452034772E+03  0.95710486505E+03  0.11922335012E+03 0.  0.
        -11    1    4    4    0    0 -0.74846467014E+02 -0.14598591176E+03 -0.58106503861E+03  0.60378014140E+03  0.51100000000E-03 0. -1.
     200002    1    4    4    0    0  0.36100932577E+02 -0.10697027548E+03 -0.33345530911E+03  0.35332472365E+03  0.30000000000E+02 0.  1.
     200000    1    3    3    0    0 -0.51396996417E+03  0.15643904030E+03 -0.19876710401E+04  0.20614740991E+04  0.10100000000E+03 0.  1.
    -200001    1    1    2    0    0  0.55271549861E+03  0.96517146933E+02 -0.96881081519E+03  0.12763907621E+04  0.61300000000E+03 0.  1.
<mgrwt>
<rscale>  0 0.18606738E+04</rscale>
<asrwt>0</asrwt>
<pdfrwt beam="1">  1        2 0.58328366E+00 0.18606738E+04</pdfrwt>
<pdfrwt beam="2">  1       -2 0.30283397E-01 0.18606738E+04</pdfrwt>
<totfact> 0.47801178E+00</totfact>
</mgrwt>
</event>
<event>
 8    1  0.6972317E-052  0.1614809E+04  0.7818608E-02  0.8811501E-01
         -2   -1    0    0    0  501 -0.00000000000E+00  0.00000000000E+00  0.43182363431E+03  0.43182363431E+03  0.25500000000E-02 0. -1.
          2   -1    0    0  501    0  0.00000000000E+00 -0.00000000000E+00 -0.15096491363E+04  0.15096491363E+04  0.25500000000E-02 0.  1.
     200001    2    1    2    0    0 -0.42224287081E+03 -0.29781314314E+02 -0.16383364955E+03  0.76235187988E+03  0.61250547377E+03 0.  0.
    5000001    2    3    3    0    0 -0.87954434864E+02  0.19063982005E+03 -0.24414586684E+03  0.34165568649E+03  0.11420105174E+03 0.  0.
        -11    1    4    4    0    0  0.85747098937E+01  0.10494425972E+03 -0.91344638513E+02  0.13939392484E+03  0.51100000000E-03 0. -1.
     200002    1    4    4    0    0 -0.96529144757E+02  0.85695560327E+02 -0.15280122833E+03  0.20226176165E+03  0.30000000000E+02 0. -1.
     200000    1    3    3    0    0 -0.33428843595E+03 -0.22042113436E+03  0.80312217292E+02  0.42069619338E+03  0.10100000000E+03 0. -1.
    -200001    1    1    2    0    0  0.42224287081E+03  0.29781314314E+02 -0.91399185243E+03  0.11791208907E+04  0.61300000000E+03 0.  1.
<mgrwt>
<rscale>  0 0.16148092E+04</rscale>
<asrwt>0</asrwt>
<pdfrwt beam="1">  1        2 0.21566416E+00 0.16148092E+04</pdfrwt>
<pdfrwt beam="2">  1       -2 0.61689091E-01 0.16148092E+04</pdfrwt>
<totfact> 0.33855676E+01</totfact>
</mgrwt>
</event>
<event>
 8    1  0.6972317E-052  0.1373156E+04  0.7818608E-02  0.8973482E-01
         -2   -1    0    0    0  501 -0.00000000000E+00  0.00000000000E+00  0.35272286107E+03  0.35272286108E+03  0.25500000000E-02 0. -1.
          2   -1    0    0  501    0  0.00000000000E+00 -0.00000000000E+00 -0.13364299991E+04  0.13364299991E+04  0.25500000000E-02 0.  1.
     200001    2    1    2    0    0  0.29350799401E+03 -0.93168460876E+02 -0.43803835015E+03  0.81259668360E+03  0.61123519970E+03 0.  0.
    5000001    2    3    3    0    0  0.21119773672E+03 -0.20729855653E+02 -0.57075651427E+03  0.61300349467E+03  0.70541299830E+02 0.  0.
        -11    1    4    4    0    0  0.64394987968E+02 -0.29531082305E+02 -0.22979247779E+03  0.24046492914E+03  0.51100000000E-03 0. -1.
     200002    1    4    4    0    0  0.14680274876E+03  0.88012266514E+01 -0.34096403648E+03  0.37253856553E+03  0.30000000000E+02 0. -1.
     200000    1    3    3    0    0  0.82310257288E+02 -0.72438605223E+02  0.13271816412E+03  0.19959318893E+03  0.10100000000E+03 0. -1.
    -200001    1    1    2    0    0 -0.29350799401E+03  0.93168460876E+02 -0.54566878793E+03  0.87655617662E+03  0.61300000000E+03 0.  1.
<mgrwt>
<rscale>  0 0.13731561E+04</rscale>
<asrwt>0</asrwt>
<pdfrwt beam="1">  1        2 0.19091857E+00 0.13731561E+04</pdfrwt>
<pdfrwt beam="2">  1       -2 0.50388981E-01 0.13731561E+04</pdfrwt>
<totfact> 0.65146223E+01</totfact>
</mgrwt>
</event>
<event>
 8    1  0.6972317E-052  0.1579223E+04  0.7818608E-02  0.8833415E-01
          2   -1    0    0  501    0  0.00000000000E+00  0.00000000000E+00  0.92956424795E+03  0.92956424795E+03  0.25500000000E-02 0.  1.
         -2   -1    0    0    0  501 -0.00000000000E+00 -0.00000000000E+00 -0.67072942436E+03  0.67072942437E+03  0.25500000000E-02 0. -1.
     200001    2    1    2    0    0  0.13985519404E+03  0.36724028101E+03  0.43906663932E+03  0.85017541051E+03  0.61285709230E+03 0.  0.
    5000001    2    3    3    0    0  0.20341217906E+03  0.25157174037E+03  0.55550951073E+03  0.64725019290E+03  0.75346801919E+02 0.  0.
        -11    1    4    4    0    0  0.10861113298E+03  0.16921732280E+03  0.37212395165E+03  0.42297413152E+03  0.51100000000E-03 0. -1.
     200002    1    4    4    0    0  0.94801046074E+02  0.82354417567E+02  0.18338555908E+03  0.22427606138E+03  0.30000000000E+02 0.  1.
     200000    1    3    3    0    0 -0.63556985015E+02  0.11566854064E+03 -0.11644287141E+03  0.20292521761E+03  0.10100000000E+03 0. -1.
    -200001    1    1    2    0    0 -0.13985519404E+03 -0.36724028101E+03 -0.18023181573E+03  0.75011826181E+03  0.61300000000E+03 0.  1.
<mgrwt>
<rscale>  0 0.15792227E+04</rscale>
<asrwt>0</asrwt>
<pdfrwt beam="1">  1        2 0.13279489E+00 0.15792227E+04</pdfrwt>
<pdfrwt beam="2">  1       -2 0.95818490E-01 0.15792227E+04</pdfrwt>
<totfact> 0.27363097E+01</totfact>
</mgrwt>
</event>
<event>
 8    1  0.6972317E-052  0.1417010E+04  0.7818608E-02  0.8941597E-01
         -2   -1    0    0    0  501 -0.00000000000E+00  0.00000000000E+00  0.52092002602E+03  0.52092002602E+03  0.25500000000E-02 0. -1.
          2   -1    0    0  501    0  0.00000000000E+00 -0.00000000000E+00 -0.96363993355E+03  0.96363993355E+03  0.25500000000E-02 0.  1.
     200001    2    1    2    0    0 -0.40454090753E+02  0.16700307689E+03 -0.55159907287E+03  0.83868827434E+03  0.60795552730E+03 0.  0.
    5000001    2    3    3    0    0 -0.17305268779E+03  0.30289723533E+03 -0.48824143588E+03  0.61449014678E+03  0.13238003196E+03 0.  0.
        -11    1    4    4    0    0 -0.84763917869E+02  0.13127585253E+03 -0.32235896558E+03  0.35823675680E+03  0.51100000000E-03 0. -1.
     200002    1    4    4    0    0 -0.88288769922E+02  0.17162138279E+03 -0.16588247031E+03  0.25625338999E+03  0.30000000000E+02 0. -1.
     200000    1    3    3    0    0  0.13259859704E+03 -0.13589415844E+03 -0.63357636982E+02  0.22419812755E+03  0.10100000000E+03 0. -1.
    -200001    1    1    2    0    0  0.40454090753E+02 -0.16700307689E+03  0.10887916533E+03  0.64587168524E+03  0.61300000000E+03 0. -1.
<mgrwt>
<rscale>  0 0.14170100E+04</rscale>
<asrwt>0</asrwt>
<pdfrwt beam="1">  1        2 0.13766285E+00 0.14170100E+04</pdfrwt>
<pdfrwt beam="2">  1       -2 0.74417147E-01 0.14170100E+04</pdfrwt>
<totfact> 0.46821933E+01</totfact>
</mgrwt>
</event>
<event>
 8    1  0.6972317E-052  0.1767600E+04  0.7818608E-02  0.8723721E-01
         -2   -1    0    0    0  501 -0.00000000000E+00  0.00000000000E+00  0.86003372820E+03  0.86003372821E+03  0.25500000000E-02 0. -1.
          2   -1    0    0  501    0  0.00000000000E+00 -0.00000000000E+00 -0.90822344759E+03  0.90822344759E+03  0.25500000000E-02 0.  1.
     200001    2    1    2    0    0  0.55237591759E+03 -0.31698227794E+03 -0.33659658851E+02  0.88418871605E+03  0.61242125543E+03 0.  0.
    5000001    2    3    3    0    0  0.33179398488E+02 -0.16678256721E+03  0.20326384540E+03  0.28547448922E+03  0.10612349380E+03 0.  0.
        -11    1    4    4    0    0  0.18058049068E+02 -0.13374207301E+03  0.19574414866E+03  0.23775787466E+03  0.51100000000E-03 0. -1.
     200002    1    4    4    0    0  0.15121349420E+02 -0.33040494199E+02  0.75196967421E+01  0.47716614552E+02  0.30000000000E+02 0. -1.
     200000    1    3    3    0    0  0.51919651910E+03 -0.15019971073E+03 -0.23692350425E+03  0.59871422684E+03  0.10100000000E+03 0.  1.
    -200001    1    1    2    0    0 -0.55237591759E+03  0.31698227794E+03 -0.14530060535E+02  0.88406845975E+03  0.61300000000E+03 0.  1.
<mgrwt>
<rscale>  0 0.17676004E+04</rscale>
<asrwt>0</asrwt>
<pdfrwt beam="1">  1        2 0.12974621E+00 0.17676004E+04</pdfrwt>
<pdfrwt beam="2">  1       -2 0.12286196E+00 0.17676004E+04</pdfrwt>
<totfact> 0.15266066E+01</totfact>
</mgrwt>
</event>
<event>
 8    1  0.6972317E-052  0.2176966E+04  0.7818608E-02  0.8528077E-01
          2   -1    0    0  501    0  0.00000000000E+00  0.00000000000E+00  0.56447863925E+03  0.56447863925E+03  0.25500000000E-02 0.  1.
         -2   -1    0    0    0  501 -0.00000000000E+00 -0.00000000000E+00 -0.20989204429E+04  0.20989204429E+04  0.25500000000E-02 0. -1.
     200001    2    1    2    0    0  0.22695843977E+03 -0.16368621255E+03  0.27861551982E+03  0.72916818390E+03  0.61298965976E+03 0.  0.
    5000001    2    3    3    0    0  0.33382082963E+03  0.64640039567E+02  0.32356493728E+02  0.36256628033E+03  0.12162517805E+03 0.  0.
        -11    1    4    4    0    0  0.29149193507E+02  0.28951260711E+02  0.35553544769E+02  0.54331441402E+02  0.51100000000E-03 0. -1.
     200002    1    4    4    0    0  0.30467163612E+03  0.35688778856E+02 -0.31970510418E+01  0.30823483893E+03  0.30000000000E+02 0. -1.
     200000    1    3    3    0    0 -0.10686238986E+03 -0.22832625212E+03  0.24625902609E+03  0.36660190357E+03  0.10100000000E+03 0.  1.
    -200001    1    1    2    0    0 -0.22695843977E+03  0.16368621255E+03 -0.18130573235E+04  0.19342308983E+04  0.61300000000E+03 0. -1.
<mgrwt>
<rscale>  0 0.21769665E+04</rscale>
<asrwt>0</asrwt>
<pdfrwt beam="1">  1        2 0.80639807E-01 0.21769665E+04</pdfrwt>
<pdfrwt beam="2">  1       -2 0.29984577E+00 0.21769665E+04</pdfrwt>
<totfact> 0.17086967E+00</totfact>
</mgrwt>
</event>
<event>
 8    1  0.6972317E-052  0.1531563E+04  0.7818608E-02  0.8863731E-01
          2   -1    0    0  501    0  0.00000000000E+00  0.00000000000E+00  0.12733135280E+04  0.12733135280E+04  0.25500000000E-02 0.  1.
         -2   -1    0    0    0  501 -0.00000000000E+00 -0.00000000000E+00 -0.46054748406E+03  0.46054748406E+03  0.25500000000E-02 0. -1.
     200001    2    1    2    0    0  0.35500789067E+03 -0.14189565353E+03  0.12695218821E+03  0.73773118940E+03  0.61803355151E+03 0.  0.
    5000001    2    3    3    0    0  0.23265030933E+02 -0.23960826948E+03 -0.90410897682E+02  0.31695952755E+03  0.18529929094E+03 0.  0.
        -11    1    4    4    0    0  0.58394346174E+02 -0.13791906172E+03 -0.13013980240E+03  0.19841354646E+03  0.51100000000E-03 0. -1.
     200002    1    4    4    0    0 -0.35129315241E+02 -0.10168920775E+03  0.39728904716E+02  0.11854598109E+03  0.30000000000E+02 0. -1.
     200000    1    3    3    0    0  0.33174285973E+03  0.97712615945E+02  0.21736308590E+03  0.42077166184E+03  0.10100000000E+03 0. -1.
    -200001    1    1    2    0    0 -0.35500789067E+03  0.14189565353E+03  0.68581385576E+03  0.99612982271E+03  0.61300000000E+03 0.  1.
<mgrwt>
<rscale>  0 0.15315630E+04</rscale>
<asrwt>0</asrwt>
<pdfrwt beam="1">  1        2 0.18190193E+00 0.15315630E+04</pdfrwt>
<pdfrwt beam="2">  1       -2 0.65792497E-01 0.15315630E+04</pdfrwt>
<totfact> 0.39900933E+01</totfact>
</mgrwt>
</event>
<event>
 8    1  0.6972317E-052  0.1652754E+04  0.7818608E-02  0.8788779E-01
          2   -1    0    0  501    0  0.00000000000E+00  0.00000000000E+00  0.59662335529E+03  0.59662335529E+03  0.25500000000E-02 0.  1.
         -2   -1    0    0    0  501 -0.00000000000E+00 -0.00000000000E+00 -0.11446066901E+04  0.11446066901E+04  0.25500000000E-02 0. -1.
     200001    2    1    2    0    0  0.46971719066E+03 -0.33520940226E+01  0.36715187215E+02  0.77257797300E+03  0.61227709712E+03 0.  0.
    5000001    2    3    3    0    0 -0.11507269440E+03  0.51035393387E+02 -0.67218591397E+02  0.16764786233E+03  0.87983693604E+02 0.  0.
        -11    1    4    4    0    0 -0.19731496848E+02  0.30633689158E+02  0.12136327216E+02  0.38406318723E+02  0.51100000000E-03 0. -1.
     200002    1    4    4    0    0 -0.95341197553E+02  0.20401704229E+02 -0.79354918613E+02  0.12924154361E+03  0.30000000000E+02 0. -1.
     200000    1    3    3    0    0  0.58478988506E+03 -0.54387487409E+02  0.10393377861E+03  0.60493011066E+03  0.10100000000E+03 0.  1.
    -200001    1    1    2    0    0 -0.46971719066E+03  0.33520940226E+01 -0.58469852207E+03  0.96865207244E+03  0.61300000000E+03 0. -1.
<mgrwt>
<rscale>  0 0.16527542E+04</rscale>
<asrwt>0</asrwt>
<pdfrwt beam="1">  1        2 0.85231909E-01 0.16527542E+04</pdfrwt>
<pdfrwt beam="2">  1       -2 0.16351524E+00 0.16527542E+04</pdfrwt>
<totfact> 0.12404382E+01</totfact>
</mgrwt>
</event>
<event>
 8    1  0.6972317E-052  0.2530252E+04  0.7818608E-02  0.8392287E-01
          2   -1    0    0  501    0  0.00000000000E+00  0.00000000000E+00  0.10587512596E+04  0.10587512596E+04  0.25500000000E-02 0.  1.
         -2   -1    0    0    0  501 -0.00000000000E+00 -0.00000000000E+00 -0.15117282422E+04  0.15117282422E+04  0.25500000000E-02 0. -1.
     200001    2    1    2    0    0 -0.87851665974E+03  0.41903111065E+03 -0.76134867704E+03  0.13795803898E+04  0.61336094654E+03 0.  0.
    5000001    2    3    3    0    0 -0.23189304788E+03  0.51733491456E+02  0.34109278641E+02  0.28596985778E+03  0.15544959594E+03 0.  0.
        -11    1    4    4    0    0 -0.18969056621E+02 -0.30563366220E+02 -0.30146875725E+02  0.46933768015E+02  0.51100000000E-03 0. -1.
     200002    1    4    4    0    0 -0.21292399125E+03  0.82296857676E+02  0.64256154366E+02  0.23903608976E+03  0.30000000000E+02 0. -1.
     200000    1    3    3    0    0 -0.64662361187E+03  0.36729761920E+03 -0.79545795568E+03  0.10936105320E+04  0.10100000000E+03 0. -1.
    -200001    1    1    2    0    0  0.87851665974E+03 -0.41903111065E+03  0.30837169439E+03  0.11908991120E+04  0.61300000000E+03 0.  1.
<mgrwt>
<rscale>  0 0.25302523E+04</rscale>
<asrwt>0</asrwt>
<pdfrwt beam="1">  1        2 0.15125018E+00 0.25302523E+04</pdfrwt>
<pdfrwt beam="2">  1       -2 0.21596118E+00 0.25302523E+04</pdfrwt>
<totfact> 0.24252044E+00</totfact>
</mgrwt>
</event>
<event>
 8    1  0.6972317E-052  0.2872714E+04  0.7818608E-02  0.8281042E-01
          2   -1    0    0  501    0  0.00000000000E+00  0.00000000000E+00  0.35357385776E+04  0.35357385776E+04  0.25500000000E-02 0.  1.
         -2   -1    0    0    0  501 -0.00000000000E+00 -0.00000000000E+00 -0.58350528199E+03  0.58350528200E+03  0.25500000000E-02 0. -1.
     200001    2    1    2    0    0 -0.33382818538E+03 -0.41363951565E+03  0.31755231306E+04  0.32777177123E+04  0.61396037488E+03 0.  0.
    5000001    2    3    3    0    0  0.43047401075E+02 -0.17593574422E+03  0.21039117930E+04  0.21127755894E+04  0.67597291232E+02 0.  0.
        -11    1    4    4    0    0  0.15211651257E+02 -0.82258854691E+01  0.10410623889E+03  0.10553278401E+03  0.51100000000E-03 0. -1.
     200002    1    4    4    0    0  0.27835749817E+02 -0.16770985875E+03  0.19998055541E+04  0.20072428054E+04  0.30000000000E+02 0. -1.
     200000    1    3    3    0    0 -0.37687558645E+03 -0.23770377143E+03  0.10716113376E+04  0.11649421228E+04  0.10100000000E+03 0.  1.
    -200001    1    1    2    0    0  0.33382818538E+03  0.41363951565E+03 -0.22328983500E+03  0.84152614735E+03  0.61300000000E+03 0. -1.
<mgrwt>
<rscale>  0 0.28727145E+04</rscale>
<asrwt>0</asrwt>
<pdfrwt beam="1">  1        2 0.50510552E+00 0.28727145E+04</pdfrwt>
<pdfrwt beam="2">  1       -2 0.83357896E-01 0.28727145E+04</pdfrwt>
<totfact> 0.12521611E+00</totfact>
</mgrwt>
</event>
<event>
 8    1  0.6972317E-052  0.3956417E+04  0.7818608E-02  0.8013397E-01
         -2   -1    0    0    0  501 -0.00000000000E+00  0.00000000000E+00  0.20261304316E+04  0.20261304316E+04  0.25500000000E-02 0. -1.
          2   -1    0    0  501    0  0.00000000000E+00 -0.00000000000E+00 -0.19314204804E+04  0.19314204804E+04  0.25500000000E-02 0.  1.
     200001    2    1    2    0    0 -0.12654906533E+03  0.13081024722E+04 -0.12978280061E+04  0.19470590055E+04  0.61606370915E+03 0.  0.
    5000001    2    3    3    0    0 -0.14510804053E+03  0.12058021212E+04 -0.90024921347E+03  0.15238809180E+04  0.19170108733E+03 0.  0.
        -11    1    4    4    0    0 -0.15755667640E+02  0.62928463728E+03 -0.37478790670E+03  0.73260724184E+03  0.51100000000E-03 0. -1.
     200002    1    4    4    0    0 -0.12935237289E+03  0.57651748396E+03 -0.52546130677E+03  0.79127367616E+03  0.30000000000E+02 0. -1.
     200000    1    3    3    0    0  0.18558975193E+02  0.10230035094E+03 -0.39757879266E+03  0.42317808749E+03  0.10100000000E+03 0. -1.
    -200001    1    1    2    0    0  0.12654906533E+03 -0.13081024722E+04  0.13925379573E+04  0.20104919065E+04  0.61300000000E+03 0. -1.
<mgrwt>
<rscale>  0 0.39564175E+04</rscale>
<asrwt>0</asrwt>
<pdfrwt beam="1">  1        2 0.27591721E+00 0.39564175E+04</pdfrwt>
<pdfrwt beam="2">  1       -2 0.28944721E+00 0.39564175E+04</pdfrwt>
<totfact> 0.25687393E-01</totfact>
</mgrwt>
</event>
<event>
 8    1  0.6972317E-052  0.1378057E+04  0.7818608E-02  0.8969857E-01
          2   -1    0    0  501    0  0.00000000000E+00  0.00000000000E+00  0.11425704198E+04  0.11425704198E+04  0.25500000000E-02 0.  1.
         -2   -1    0    0    0  501 -0.00000000000E+00 -0.00000000000E+00 -0.41551922099E+03  0.41551922100E+03  0.25500000000E-02 0. -1.
     200001    2    1    2    0    0 -0.30580903640E+03  0.60222400157E+02  0.40884401723E+03  0.80034910826E+03  0.61339983734E+03 0.  0.
    5000001    2    3    3    0    0  0.16071587276E+03 -0.57197183793E+02  0.17257147752E+03  0.25495148947E+03  0.78219163505E+02 0.  0.
        -11    1    4    4    0    0 -0.32945393787E-01 -0.18309928132E+02  0.89561991325E+01  0.20383033552E+02  0.51100000000E-03 0. -1.
     200002    1    4    4    0    0  0.16074881816E+03 -0.38887255660E+02  0.16361527839E+03  0.23456845592E+03  0.30000000000E+02 0. -1.
     200000    1    3    3    0    0 -0.46652490916E+03  0.11741958395E+03  0.23627253971E+03  0.54539761879E+03  0.10100000000E+03 0.  1.
    -200001    1    1    2    0    0  0.30580903640E+03 -0.60222400157E+02  0.31820718155E+03  0.75774053251E+03  0.61300000000E+03 0. -1.
<mgrwt>
<rscale>  0 0.13780566E+04</rscale>
<asrwt>0</asrwt>
<pdfrwt beam="1">  1        2 0.16322435E+00 0.13780566E+04</pdfrwt>
<pdfrwt beam="2">  1       -2 0.59359888E-01 0.13780566E+04</pdfrwt>
<totfact> 0.59636655E+01</totfact>
</mgrwt>
</event>
<event>
 8    1  0.6972317E-052  0.1480992E+04  0.7818608E-02  0.8897192E-01
          2   -1    0    0  501    0  0.00000000000E+00  0.00000000000E+00  0.12775896529E+04  0.12775896529E+04  0.25500000000E-02 0.  1.
         -2   -1    0    0    0  501 -0.00000000000E+00 -0.00000000000E+00 -0.42919466478E+03  0.42919466479E+03  0.25500000000E-02 0. -1.
     200001    2    1    2    0    0 -0.20620894731E+03 -0.35846745650E+03  0.47597862915E+03  0.87884471133E+03  0.61220202867E+03 0.  0.
    5000001    2    3    3    0    0  0.64968511308E+02 -0.33056508708E+03  0.27323664255E+02  0.34423454138E+03  0.65243027164E+02 0.  0.
        -11    1    4    4    0    0  0.24310980506E+02 -0.99081486760E+02  0.33023451536E+02  0.10723205278E+03  0.51100000000E-03 0. -1.
     200002    1    4    4    0    0  0.40657530802E+02 -0.23148360032E+03 -0.56997872810E+01  0.23700248860E+03  0.30000000000E+02 0. -1.
     200000    1    3    3    0    0 -0.27117745862E+03 -0.27902369414E+02  0.44865496490E+03  0.53461016994E+03  0.10100000000E+03 0.  1.
    -200001    1    1    2    0    0  0.20620894731E+03  0.35846745650E+03  0.37241635894E+03  0.82793960633E+03  0.61300000000E+03 0.  1.
<mgrwt>
<rscale>  0 0.14809925E+04</rscale>
<asrwt>0</asrwt>
<pdfrwt beam="1">  1        2 0.18251281E+00 0.14809925E+04</pdfrwt>
<pdfrwt beam="2">  1       -2 0.61313523E-01 0.14809925E+04</pdfrwt>
<totfact> 0.46312064E+01</totfact>
</mgrwt>
</event>
<event>
 8    1  0.6972317E-052  0.2524390E+04  0.7818608E-02  0.8394348E-01
         -2   -1    0    0    0  501 -0.00000000000E+00  0.00000000000E+00  0.17993850436E+04  0.17993850436E+04  0.25500000000E-02 0. -1.
          2   -1    0    0  501    0  0.00000000000E+00 -0.00000000000E+00 -0.88537790819E+03  0.88537790819E+03  0.25500000000E-02 0.  1.
     200001    2    1    2    0    0 -0.43542621946E+03 -0.99975881524E+03  0.27393101549E+03  0.12795654139E+04  0.61084839852E+03 0.  0.
    5000001    2    3    3    0    0 -0.52474165891E+03 -0.65018664763E+03  0.14276014129E+03  0.88259596127E+03  0.24596480958E+03 0.  0.
        -11    1    4    4    0    0 -0.32618533388E+03 -0.56157269844E+03  0.80217147035E+02  0.65436653211E+03  0.51100000000E-03 0. -1.
     200002    1    4    4    0    0 -0.19855632504E+03 -0.88613949190E+02  0.62542994252E+02  0.22822942916E+03  0.30000000000E+02 0. -1.
     200000    1    3    3    0    0  0.89315439449E+02 -0.34957216761E+03  0.13117087420E+03  0.39696945264E+03  0.10100000000E+03 0.  1.
    -200001    1    1    2    0    0  0.43542621946E+03  0.99975881524E+03  0.64007611996E+03  0.14051975379E+04  0.61300000000E+03 0. -1.
<mgrwt>
<rscale>  0 0.25243896E+04</rscale>
<asrwt>0</asrwt>
<pdfrwt beam="1">  1        2 0.12648256E+00 0.25243896E+04</pdfrwt>
<pdfrwt beam="2">  1       -2 0.25705500E+00 0.25243896E+04</pdfrwt>
<totfact> 0.17297445E+00</totfact>
</mgrwt>
</event>
<event>
 8    1  0.6972317E-052  0.2056388E+04  0.7818608E-02  0.8580702E-01
         -2   -1    0    0    0  501 -0.00000000000E+00  0.00000000000E+00  0.47938166297E+03  0.47938166297E+03  0.25500000000E-02 0. -1.
          2   -1    0    0  501    0  0.00000000000E+00 -0.00000000000E+00 -0.22053048253E+04  0.22053048253E+04  0.25500000000E-02 0.  1.
     200001    2    1    2    0    0  0.12417628305E+03  0.78418053699E+02 -0.19234006186E+04  0.20241295368E+04  0.61323837276E+03 0.  0.
    5000001    2    3    3    0    0 -0.10373004931E+02  0.13413756800E+03 -0.17749364838E+04  0.17929353014E+04  0.21474866033E+03 0.  0.
        -11    1    4    4    0    0 -0.10179794965E+03  0.63372860878E+02 -0.11834655690E+04  0.11895249871E+04  0.51100000000E-03 0. -1.
     200002    1    4    4    0    0  0.91424944723E+02  0.70764707123E+02 -0.59147091485E+03  0.60341031431E+03  0.30000000000E+02 0. -1.
     200000    1    3    3    0    0  0.13454928798E+03 -0.55719514303E+02 -0.14846413478E+03  0.23119423541E+03  0.10100000000E+03 0.  1.
    -200001    1    1    2    0    0 -0.12417628305E+03 -0.78418053699E+02  0.19747745624E+03  0.66055695147E+03  0.61300000000E+03 0. -1.
<mgrwt>
<rscale>  0 0.20563878E+04</rscale>
<asrwt>0</asrwt>
<pdfrwt beam="1">  1        2 0.31504354E+00 0.20563878E+04</pdfrwt>
<pdfrwt beam="2">  1       -2 0.68483096E-01 0.20563878E+04</pdfrwt>
<totfact> 0.11376911E+01</totfact>
</mgrwt>
</event>
<event>
 8    1  0.6972317E-052  0.1529206E+04  0.7818608E-02  0.8865261E-01
         -2   -1    0    0    0  501 -0.00000000000E+00  0.00000000000E+00  0.41702647284E+03  0.41702647284E+03  0.25500000000E-02 0. -1.
          2   -1    0    0  501    0  0.00000000000E+00 -0.00000000000E+00 -0.14018712567E+04  0.14018712567E+04  0.25500000000E-02 0.  1.
     200001    2    1    2    0    0  0.65918970744E+02  0.40899640749E+03 -0.72239621456E+03  0.10338680335E+04  0.61270176100E+03 0.  0.
    5000001    2    3    3    0    0 -0.19140143974E+03 -0.29931034442E+02 -0.21242838241E+03  0.30644842784E+03  0.10608696111E+03 0.  0.
        -11    1    4    4    0    0 -0.10660983927E+03 -0.20626782743E+02 -0.18032710482E+03  0.21049699934E+03  0.51100000000E-03 0. -1.
     200002    1    4    4    0    0 -0.84791600469E+02 -0.93042516997E+01 -0.32101277585E+02  0.95951428506E+02  0.30000000000E+02 0.  1.
     200000    1    3    3    0    0  0.25732041048E+03  0.43892744193E+03 -0.50996783215E+03  0.72741960570E+03  0.10100000000E+03 0. -1.
    -200001    1    1    2    0    0 -0.65918970744E+02 -0.40899640749E+03 -0.26244856927E+03  0.78502969597E+03  0.61300000000E+03 0. -1.
<mgrwt>
<rscale>  0 0.15292056E+04</rscale>
<asrwt>0</asrwt>
<pdfrwt beam="1">  1        2 0.20026732E+00 0.15292056E+04</pdfrwt>
<pdfrwt beam="2">  1       -2 0.59575211E-01 0.15292056E+04</pdfrwt>
<totfact> 0.41909054E+01</totfact>
</mgrwt>
</event>
<event>
 8    1  0.6972317E-052  0.1272243E+04  0.7818608E-02  0.9051871E-01
         -2   -1    0    0    0  501 -0.00000000000E+00  0.00000000000E+00  0.31918791082E+03  0.31918791083E+03  0.25500000000E-02 0. -1.
          2   -1    0    0  501    0  0.00000000000E+00 -0.00000000000E+00 -0.12677500716E+04  0.12677500716E+04  0.25500000000E-02 0.  1.
     200001    2    1    2    0    0 -0.12777101398E+03 -0.35573731391E+02 -0.34181322507E+03  0.71429590614E+03  0.61301830177E+03 0.  0.
    5000001    2    3    3    0    0 -0.83515688716E+02  0.20164380743E+03 -0.38191465916E+03  0.44964553384E+03  0.93205170905E+02 0.  0.
        -11    1    4    4    0    0 -0.58760230443E+02  0.12001527412E+03 -0.15088216365E+03  0.20154864925E+03  0.51100000000E-03 0. -1.
     200002    1    4    4    0    0 -0.24755458274E+02  0.81628533311E+02 -0.23103249551E+03  0.24809688460E+03  0.30000000000E+02 0. -1.
     200000    1    3    3    0    0 -0.44255325261E+02 -0.23721753882E+03  0.40101434090E+02  0.26465037229E+03  0.10100000000E+03 0. -1.
    -200001    1    1    2    0    0  0.12777101398E+03  0.35573731391E+02 -0.60674893575E+03  0.87264207635E+03  0.61300000000E+03 0. -1.
<mgrwt>
<rscale>  0 0.12722429E+04</rscale>
<asrwt>0</asrwt>
<pdfrwt beam="1">  1        2 0.18110715E+00 0.12722429E+04</pdfrwt>
<pdfrwt beam="2">  1       -2 0.45598274E-01 0.12722429E+04</pdfrwt>
<totfact> 0.87635387E+01</totfact>
</mgrwt>
</event>
<event>
 8    1  0.6972317E-052  0.1267535E+04  0.7818608E-02  0.9055714E-01
         -2   -1    0    0    0  501 -0.00000000000E+00  0.00000000000E+00  0.17742746869E+03  0.17742746871E+03  0.25500000000E-02 0. -1.
          2   -1    0    0  501    0  0.00000000000E+00 -0.00000000000E+00 -0.22638038974E+04  0.22638038974E+04  0.25500000000E-02 0.  1.
     200001    2    1    2    0    0  0.31675679849E+02 -0.96980122647E+02 -0.80733395246E+03  0.10192161943E+04  0.61368155178E+03 0.  0.
    5000001    2    3    3    0    0 -0.13080596927E+03  0.15945572907E+03 -0.60420411644E+03  0.64024078264E+03  0.48055325400E+02 0.  0.
        -11    1    4    4    0    0 -0.74086390887E+01 -0.20798469495E+00 -0.28922048741E+02  0.29856592143E+02  0.51100000000E-03 0. -1.
     200002    1    4    4    0    0 -0.12339733018E+03  0.15966371376E+03 -0.57528206770E+03  0.61038419050E+03  0.30000000000E+02 0. -1.
     200000    1    3    3    0    0  0.16248164912E+03 -0.25643585171E+03 -0.20312983602E+03  0.37897541164E+03  0.10100000000E+03 0. -1.
    -200001    1    1    2    0    0 -0.31675679849E+02  0.96980122647E+02 -0.12790424762E+04  0.14220151718E+04  0.61300000000E+03 0.  1.
<mgrwt>
<rscale>  0 0.12675346E+04</rscale>
<asrwt>0</asrwt>
<pdfrwt beam="1">  1        2 0.32340054E+00 0.12675346E+04</pdfrwt>
<pdfrwt beam="2">  1       -2 0.25346783E-01 0.12675346E+04</pdfrwt>
<totfact> 0.80712096E+01</totfact>
</mgrwt>
</event>
<event>
 8    1  0.6972317E-052  0.1397462E+04  0.7818608E-02  0.8955658E-01
         -2   -1    0    0    0  501 -0.00000000000E+00  0.00000000000E+00  0.38341074265E+03  0.38341074266E+03  0.25500000000E-02 0. -1.
          2   -1    0    0  501    0  0.00000000000E+00 -0.00000000000E+00 -0.12733738140E+04  0.12733738140E+04  0.25500000000E-02 0.  1.
     200001    2    1    2    0    0  0.32170827922E+03  0.10418725653E+02 -0.55527274030E+03  0.88776480107E+03  0.61334636147E+03 0.  0.
    5000001    2    3    3    0    0  0.28468272563E+03  0.18804645692E+03 -0.18138035296E+03  0.46007446935E+03  0.24972777313E+03 0.  0.
        -11    1    4    4    0    0  0.40364257085E+02 -0.11786846218E+02  0.51642558103E+02  0.66596972915E+02  0.51100000000E-03 0. -1.
     200002    1    4    4    0    0  0.24431846855E+03  0.19983330314E+03 -0.23302291106E+03  0.39347749643E+03  0.30000000000E+02 0. -1.
     200000    1    3    3    0    0  0.37025553591E+02 -0.17762773127E+03 -0.37389238734E+03  0.42769033172E+03  0.10100000000E+03 0.  1.
    -200001    1    1    2    0    0 -0.32170827922E+03 -0.10418725653E+02 -0.33469033102E+03  0.76901975556E+03  0.61300000000E+03 0. -1.
<mgrwt>
<rscale>  0 0.13974623E+04</rscale>
<asrwt>0</asrwt>
<pdfrwt beam="1">  1        2 0.18191054E+00 0.13974623E+04</pdfrwt>
<pdfrwt beam="2">  1       -2 0.54772964E-01 0.13974623E+04</pdfrwt>
<totfact> 0.59358590E+01</totfact>
</mgrwt>
</event>
<event>
 8    1  0.6972317E-052  0.2137146E+04  0.7818608E-02  0.8545055E-01
         -2   -1    0    0    0  501 -0.00000000000E+00  0.00000000000E+00  0.44198877814E+03  0.44198877815E+03  0.25500000000E-02 0.  1.
          2   -1    0    0  501    0  0.00000000000E+00 -0.00000000000E+00 -0.25834325133E+04  0.25834325133E+04  0.25500000000E-02 0. -1.
     200001    2    1    2    0    0  0.16707085351E+03  0.40735797868E+03  0.33678414967E+00  0.75455229793E+03  0.61277717320E+03 0.  0.
    5000001    2    3    3    0    0 -0.13935589493E+03  0.46393434270E+02  0.17507933952E+03  0.23984003351E+03  0.72787707414E+02 0.  0.
        -11    1    4    4    0    0 -0.39753792832E+01  0.22478155062E+02  0.19037517120E+02  0.29723696840E+02  0.51100000000E-03 0. -1.
     200002    1    4    4    0    0 -0.13538051565E+03  0.23915279208E+02  0.15604182240E+03  0.21011633667E+03  0.30000000000E+02 0. -1.
     200000    1    3    3    0    0  0.30642674844E+03  0.36096454441E+03 -0.17474255537E+03  0.51471226442E+03  0.10100000000E+03 0.  1.
    -200001    1    1    2    0    0 -0.16707085351E+03 -0.40735797868E+03 -0.21417805193E+04  0.22708689936E+04  0.61300000000E+03 0. -1.
<mgrwt>
<rscale>  0 0.21371459E+04</rscale>
<asrwt>0</asrwt>
<pdfrwt beam="1">  1        2 0.36906178E+00 0.21371459E+04</pdfrwt>
<pdfrwt beam="2">  1       -2 0.63141255E-01 0.21371459E+04</pdfrwt>
<totfact> 0.85333926E+00</totfact>
</mgrwt>
</event>
<event>
 8    1  0.6972317E-052  0.1833310E+04  0.7818608E-02  0.8688784E-01
         -2   -1    0    0    0  501 -0.00000000000E+00  0.00000000000E+00  0.16019140029E+04  0.16019140029E+04  0.25500000000E-02 0. -1.
          2   -1    0    0  501    0  0.00000000000E+00 -0.00000000000E+00 -0.52453270061E+03  0.52453270062E+03  0.25500000000E-02 0.  1.
     200001    2    1    2    0    0  0.47506353099E+02  0.66529735729E+03  0.37638689782E+03  0.98100374015E+03  0.61304470810E+03 0.  0.
    5000001    2    3    3    0    0 -0.26706455895E+03  0.37107744968E+03  0.16935454540E+03  0.49255353010E+03  0.70043312759E+02 0.  0.
        -11    1    4    4    0    0 -0.84342577886E+02  0.10360097399E+03  0.21885864940E+02  0.13537290475E+03  0.51100000000E-03 0. -1.
     200002    1    4    4    0    0 -0.18272198107E+03  0.26747647569E+03  0.14746868046E+03  0.35718062535E+03  0.30000000000E+02 0. -1.
     200000    1    3    3    0    0  0.31457091205E+03  0.29421990762E+03  0.20703235242E+03  0.48845021005E+03  0.10100000000E+03 0. -1.
    -200001    1    1    2    0    0 -0.47506353099E+02 -0.66529735729E+03  0.70099440445E+03  0.11454429633E+04  0.61300000000E+03 0. -1.
<mgrwt>
<rscale>  0 0.18333099E+04</rscale>
<asrwt>0</asrwt>
<pdfrwt beam="1">  1        2 0.74933243E-01 0.18333099E+04</pdfrwt>
<pdfrwt beam="2">  1       -2 0.22884486E+00 0.18333099E+04</pdfrwt>
<totfact> 0.52130004E+00</totfact>
</mgrwt>
</event>
<event>
 8    1  0.6972317E-052  0.1758599E+04  0.7818608E-02  0.8728631E-01
          2   -1    0    0  501    0  0.00000000000E+00  0.00000000000E+00  0.11599900890E+04  0.11599900890E+04  0.25500000000E-02 0.  1.
         -2   -1    0    0    0  501 -0.00000000000E+00 -0.00000000000E+00 -0.66652916104E+03  0.66652916105E+03  0.25500000000E-02 0. -1.
     200001    2    1    2    0    0  0.53157388001E+03 -0.13666006229E+03  0.56922398682E+03  0.10002288630E+04  0.61253168798E+03 0.  0.
    5000001    2    3    3    0    0  0.59619157496E+03 -0.18942601743E+03  0.56360835864E+03  0.86910972714E+03  0.21533863042E+03 0.  0.
        -11    1    4    4    0    0  0.44569893719E+03 -0.16714763556E+03  0.52628069447E+03  0.70961767457E+03  0.51100000000E-03 0. -1.
     200002    1    4    4    0    0  0.15049263777E+03 -0.22278381866E+02  0.37327664167E+02  0.15949205257E+03  0.30000000000E+02 0. -1.
     200000    1    3    3    0    0 -0.64617694945E+02  0.52765955139E+02  0.56156281761E+01  0.13111913591E+03  0.10100000000E+03 0. -1.
    -200001    1    1    2    0    0 -0.53157388001E+03  0.13666006229E+03 -0.75763058874E+02  0.82629038699E+03  0.61300000000E+03 0. -1.
<mgrwt>
<rscale>  0 0.17585986E+04</rscale>
<asrwt>0</asrwt>
<pdfrwt beam="1">  1        2 0.16571287E+00 0.17585986E+04</pdfrwt>
<pdfrwt beam="2">  1       -2 0.95218452E-01 0.17585986E+04</pdfrwt>
<totfact> 0.19847728E+01</totfact>
</mgrwt>
</event>
<event>
 8    1  0.6972317E-052  0.1509977E+04  0.7818608E-02  0.8877845E-01
          2   -1    0    0  501    0  0.00000000000E+00  0.00000000000E+00  0.75947911541E+03  0.75947911541E+03  0.25500000000E-02 0.  1.
         -2   -1    0    0    0  501 -0.00000000000E+00 -0.00000000000E+00 -0.75052493132E+03  0.75052493133E+03  0.25500000000E-02 0. -1.
     200001    2    1    2    0    0 -0.65129995232E+02  0.22631277599E+03  0.37702507899E+03  0.75720621695E+03  0.61298772904E+03 0.  0.
    5000001    2    3    3    0    0  0.10254075613E+03 -0.15320956700E+03  0.19644160975E+02  0.20036439897E+03  0.75975135589E+02 0.  0.
        -11    1    4    4    0    0  0.35877735594E+02 -0.72444194863E+02  0.38942681895E+02  0.89732411949E+02  0.51100000000E-03 0. -1.
     200002    1    4    4    0    0  0.66663020538E+02 -0.80765372136E+02 -0.19298520920E+02  0.11063198703E+03  0.30000000000E+02 0. -1.
     200000    1    3    3    0    0 -0.16767075136E+03  0.37952234299E+03  0.35738091801E+03  0.55684181798E+03  0.10100000000E+03 0.  1.
    -200001    1    1    2    0    0  0.65129995232E+02 -0.22631277599E+03 -0.36807089491E+03  0.75279782979E+03  0.61300000000E+03 0. -1.
<mgrwt>
<rscale>  0 0.15099775E+04</rscale>
<asrwt>0</asrwt>
<pdfrwt beam="1">  1        2 0.10849702E+00 0.15099775E+04</pdfrwt>
<pdfrwt beam="2">  1       -2 0.10721785E+00 0.15099775E+04</pdfrwt>
<totfact> 0.27480268E+01</totfact>
</mgrwt>
</event>
<event>
 8    1  0.6972317E-052  0.1308612E+04  0.7818608E-02  0.9022763E-01
          2   -1    0    0  501    0  0.00000000000E+00  0.00000000000E+00  0.15654350374E+04  0.15654350374E+04  0.25500000000E-02 0.  1.
         -2   -1    0    0    0  501 -0.00000000000E+00 -0.00000000000E+00 -0.27348093352E+03  0.27348093353E+03  0.25500000000E-02 0. -1.
     200001    2    1    2    0    0  0.52369529700E+02  0.21486305186E+03  0.56112960987E+03  0.85974175776E+03  0.61268323975E+03 0.  0.
    5000001    2    3    3    0    0 -0.17514870875E+03 -0.99069788788E+02  0.32851430263E+03  0.39646078640E+03  0.93635542903E+02 0.  0.
        -11    1    4    4    0    0 -0.50641212352E+02 -0.63989164429E+02  0.77774222765E+02  0.11272965572E+03  0.51100000000E-03 0. -1.
     200002    1    4    4    0    0 -0.12450749640E+03 -0.35080624359E+02  0.25074007987E+03  0.28373113068E+03  0.30000000000E+02 0. -1.
     200000    1    3    3    0    0  0.22751823845E+03  0.31393284065E+03  0.23261530723E+03  0.46328097136E+03  0.10100000000E+03 0.  1.
    -200001    1    1    2    0    0 -0.52369529700E+02 -0.21486305186E+03  0.73082449403E+03  0.97917421318E+03  0.61300000000E+03 0. -1.
<mgrwt>
<rscale>  0 0.13086124E+04</rscale>
<asrwt>0</asrwt>
<pdfrwt beam="1">  1        2 0.22363358E+00 0.13086124E+04</pdfrwt>
<pdfrwt beam="2">  1       -2 0.39068704E-01 0.13086124E+04</pdfrwt>
<totfact> 0.81868404E+01</totfact>
</mgrwt>
</event>
<event>
 8    1  0.6972317E-052  0.1591616E+04  0.7818608E-02  0.8825715E-01
         -2   -1    0    0    0  501 -0.00000000000E+00  0.00000000000E+00  0.24816389337E+03  0.24816389338E+03  0.25500000000E-02 0. -1.
          2   -1    0    0  501    0  0.00000000000E+00 -0.00000000000E+00 -0.25519836283E+04  0.25519836284E+04  0.25500000000E-02 0.  1.
     200001    2    1    2    0    0 -0.19811944243E+03  0.15108230681E+03 -0.37332107171E+03  0.75939489934E+03  0.61256413024E+03 0.  0.
    5000001    2    3    3    0    0 -0.24026195808E+03 -0.17357008174E+03 -0.24498323795E+03  0.39354415847E+03  0.83712818718E+02 0.  0.
        -11    1    4    4    0    0 -0.10472076559E+03 -0.11899506778E+03 -0.11727946761E+03  0.19718199315E+03  0.51100000000E-03 0. -1.
     200002    1    4    4    0    0 -0.13554119249E+03 -0.54575013964E+02 -0.12770377034E+03  0.19636216532E+03  0.30000000000E+02 0. -1.
     200000    1    3    3    0    0  0.42142515645E+02  0.32465238856E+03 -0.12833783376E+03  0.36585074087E+03  0.10100000000E+03 0.  1.
    -200001    1    1    2    0    0  0.19811944243E+03 -0.15108230681E+03 -0.19304986633E+04  0.20407526224E+04  0.61300000000E+03 0.  1.
<mgrwt>
<rscale>  0 0.15916158E+04</rscale>
<asrwt>0</asrwt>
<pdfrwt beam="1">  1        2 0.36456907E+00 0.15916158E+04</pdfrwt>
<pdfrwt beam="2">  1       -2 0.35451986E-01 0.15916158E+04</pdfrwt>
<totfact> 0.29768570E+01</totfact>
</mgrwt>
</event>
<event>
 8    1  0.6972317E-052  0.1510407E+04  0.7818608E-02  0.8877562E-01
          2   -1    0    0  501    0  0.00000000000E+00  0.00000000000E+00  0.25703656619E+03  0.25703656621E+03  0.25500000000E-02 0.  1.
         -2   -1    0    0    0  501 -0.00000000000E+00 -0.00000000000E+00 -0.22188748212E+04  0.22188748212E+04  0.25500000000E-02 0. -1.
     200001    2    1    2    0    0 -0.33197862366E+03 -0.25218520927E+03 -0.12209032735E+04  0.14277888596E+04  0.61169358194E+03 0.  0.
    5000001    2    3    3    0    0  0.11804584580E+03 -0.12875802848E+02 -0.47740600332E+02  0.14470559158E+03  0.67527293040E+02 0.  0.
        -11    1    4    4    0    0  0.63141611743E+02  0.15986401046E+02 -0.37180946957E+02  0.74999006452E+02  0.51100000000E-03 0. -1.
     200002    1    4    4    0    0  0.54904234056E+02 -0.28862203894E+02 -0.10559653375E+02  0.69706585128E+02  0.30000000000E+02 0. -1.
     200000    1    3    3    0    0 -0.45002446946E+03 -0.23930940642E+03 -0.11731626731E+04  0.12830832681E+04  0.10100000000E+03 0. -1.
    -200001    1    1    2    0    0  0.33197862366E+03  0.25218520927E+03 -0.74093498149E+03  0.10481225277E+04  0.61300000000E+03 0. -1.
<mgrwt>
<rscale>  0 0.15104065E+04</rscale>
<asrwt>0</asrwt>
<pdfrwt beam="1">  1        2 0.36719511E-01 0.15104065E+04</pdfrwt>
<pdfrwt beam="2">  1       -2 0.31698211E+00 0.15104065E+04</pdfrwt>
<totfact> 0.34442637E+00</totfact>
</mgrwt>
</event>
<event>
 8    1  0.6972317E-052  0.1396170E+04  0.7818608E-02  0.8956595E-01
          2   -1    0    0  501    0  0.00000000000E+00  0.00000000000E+00  0.76441216515E+03  0.76441216515E+03  0.25500000000E-02 0.  1.
         -2   -1    0    0    0  501 -0.00000000000E+00 -0.00000000000E+00 -0.63751312671E+03  0.63751312672E+03  0.25500000000E-02 0. -1.
     200001    2    1    2    0    0 -0.22740389116E+03  0.17625686639E+03 -0.10835610882E+03  0.68506198762E+03  0.61220083952E+03 0.  0.
    5000001    2    3    3    0    0 -0.32112756498E+03  0.12889447767E+03 -0.28607618382E+03  0.45525174425E+03  0.75351631253E+02 0.  0.
        -11    1    4    4    0    0 -0.20329384942E+03  0.98507451682E+02 -0.15543208468E+03  0.27421021169E+03  0.51100000000E-03 0. -1.
     200002    1    4    4    0    0 -0.11783371556E+03  0.30387025985E+02 -0.13064409914E+03  0.18104153256E+03  0.30000000000E+02 0. -1.
     200000    1    3    3    0    0  0.93723673816E+02  0.47362388722E+02  0.17772007500E+03  0.22981024337E+03  0.10100000000E+03 0.  1.
    -200001    1    1    2    0    0  0.22740389116E+03 -0.17625686639E+03  0.23525514725E+03  0.71686330425E+03  0.61300000000E+03 0.  1.
<mgrwt>
<rscale>  0 0.13961702E+04</rscale>
<asrwt>0</asrwt>
<pdfrwt beam="1">  1        2 0.10920174E+00 0.13961702E+04</pdfrwt>
<pdfrwt beam="2">  1       -2 0.91073304E-01 0.13961702E+04</pdfrwt>
<totfact> 0.40416727E+01</totfact>
</mgrwt>
</event>
<event>
 8    1  0.6972317E-052  0.2017801E+04  0.7818608E-02  0.8598343E-01
          2   -1    0    0  501    0  0.00000000000E+00  0.00000000000E+00  0.21972483625E+04  0.21972483625E+04  0.25500000000E-02 0.  1.
         -2   -1    0    0    0  501 -0.00000000000E+00 -0.00000000000E+00 -0.46325240499E+03  0.46325240499E+03  0.25500000000E-02 0. -1.
     200001    2    1    2    0    0  0.44777543262E+03  0.43989821685E+02 -0.77534449886E+01  0.76000137955E+03  0.61245737691E+03 0.  0.
    5000001    2    3    3    0    0  0.92097431133E+02  0.28928541952E+03 -0.15467145844E+02  0.31622522849E+03  0.87127330749E+02 0.  0.
        -11    1    4    4    0    0  0.26114900894E+02  0.13762890142E+02 -0.10352389541E+02  0.31282218003E+02  0.51100000000E-03 0. -1.
     200002    1    4    4    0    0  0.65982530239E+02  0.27552252938E+03 -0.51147563028E+01  0.28494301049E+03  0.30000000000E+02 0. -1.
     200000    1    3    3    0    0  0.35567800149E+03 -0.24529559784E+03  0.77137008551E+01  0.44377615105E+03  0.10100000000E+03 0.  1.
    -200001    1    1    2    0    0 -0.44777543262E+03 -0.43989821685E+02  0.17417494025E+04  0.19004993879E+04  0.61300000000E+03 0.  1.
<mgrwt>
<rscale>  0 0.20178014E+04</rscale>
<asrwt>0</asrwt>
<pdfrwt beam="1">  1        2 0.31389262E+00 0.20178014E+04</pdfrwt>
<pdfrwt beam="2">  1       -2 0.66178916E-01 0.20178014E+04</pdfrwt>
<totfact> 0.12408556E+01</totfact>
</mgrwt>
</event>
<event>
 8    1  0.6972317E-052  0.1966770E+04  0.7818608E-02  0.8622316E-01
         -2   -1    0    0    0  501 -0.00000000000E+00  0.00000000000E+00  0.20752084331E+04  0.20752084331E+04  0.25500000000E-02 0. -1.
          2   -1    0    0  501    0  0.00000000000E+00 -0.00000000000E+00 -0.46599964240E+03  0.46599964240E+03  0.25500000000E-02 0.  1.
     200001    2    1    2    0    0 -0.68209687265E+03  0.35006497778E+03  0.73140505904E+03  0.12243519620E+04  0.61341888962E+03 0.  0.
    5000001    2    3    3    0    0 -0.48587676608E+03  0.50361552920E+03  0.49667673622E+03  0.86745073254E+03  0.12679968460E+03 0.  0.
        -11    1    4    4    0    0 -0.18531936847E+03  0.16002786170E+03  0.24011965705E+03  0.34294261116E+03  0.51100000000E-03 0. -1.
     200002    1    4    4    0    0 -0.30055739761E+03  0.34358766750E+03  0.25655707917E+03  0.52450812138E+03  0.30000000000E+02 0. -1.
     200000    1    3    3    0    0 -0.19622010657E+03 -0.15355055142E+03  0.23472832282E+03  0.35690122947E+03  0.10100000000E+03 0.  1.
    -200001    1    1    2    0    0  0.68209687265E+03 -0.35006497778E+03  0.87780373171E+03  0.13168561135E+04  0.61300000000E+03 0. -1.
<mgrwt>
<rscale>  0 0.19667703E+04</rscale>
<asrwt>0</asrwt>
<pdfrwt beam="1">  1        2 0.66571377E-01 0.19667703E+04</pdfrwt>
<pdfrwt beam="2">  1       -2 0.29645835E+00 0.19667703E+04</pdfrwt>
<totfact> 0.22746079E+00</totfact>
</mgrwt>
</event>
<event>
 8    1  0.6972317E-052  0.1266575E+04  0.7818608E-02  0.9056500E-01
         -2   -1    0    0    0  501 -0.00000000000E+00  0.00000000000E+00  0.33888923455E+03  0.33888923456E+03  0.25500000000E-02 0. -1.
          2   -1    0    0  501    0  0.00000000000E+00 -0.00000000000E+00 -0.11834338087E+04  0.11834338087E+04  0.25500000000E-02 0.  1.
     200001    2    1    2    0    0 -0.46898959964E+02  0.14089541470E+03 -0.48824406255E+03  0.79791287984E+03  0.61337726472E+03 0.  0.
    5000001    2    3    3    0    0 -0.24280939650E+03 -0.65465431546E+02 -0.34938238661E+03  0.46557380141E+03  0.17733805777E+03 0.  0.
        -11    1    4    4    0    0  0.22717746399E+02 -0.18882623537E+02 -0.70973586222E+02  0.76875870171E+02  0.51100000000E-03 0. -1.
     200002    1    4    4    0    0 -0.26552714290E+03 -0.46582808009E+02 -0.27840880038E+03  0.38869793124E+03  0.30000000000E+02 0. -1.
     200000    1    3    3    0    0  0.19591043653E+03  0.20636084624E+03 -0.13886167594E+03  0.33233907843E+03  0.10100000000E+03 0. -1.
    -200001    1    1    2    0    0  0.46898959964E+02 -0.14089541470E+03 -0.35630051162E+03  0.72441016345E+03  0.61300000000E+03 0. -1.
<mgrwt>
<rscale>  0 0.12665749E+04</rscale>
<asrwt>0</asrwt>
<pdfrwt beam="1">  1        2 0.16906197E+00 0.12665749E+04</pdfrwt>
<pdfrwt beam="2">  1       -2 0.48412748E-01 0.12665749E+04</pdfrwt>
<totfact> 0.86733954E+01</totfact>
</mgrwt>
</event>
<event>
 8    1  0.6972317E-052  0.1631662E+04  0.7818608E-02  0.8801329E-01
          2   -1    0    0  501    0  0.00000000000E+00  0.00000000000E+00  0.20220548124E+04  0.20220548124E+04  0.25500000000E-02 0.  1.
         -2   -1    0    0    0  501 -0.00000000000E+00 -0.00000000000E+00 -0.32916050642E+03  0.32916050643E+03  0.25500000000E-02 0. -1.
     200001    2    1    2    0    0  0.39801738782E+03  0.35633140307E+03  0.94156099158E+03  0.12441197226E+04  0.61311244766E+03 0.  0.
    5000001    2    3    3    0    0  0.24890385661E+03  0.34597051969E+03  0.20011089397E+03  0.48103949069E+03  0.98518482456E+02 0.  0.
        -11    1    4    4    0    0  0.18181571968E+03  0.26505309749E+03  0.11111576566E+03  0.34008353943E+03  0.51100000000E-03 0. -1.
     200002    1    4    4    0    0  0.67088136926E+02  0.80917422198E+02  0.88995128311E+02  0.14095595126E+03  0.30000000000E+02 0. -1.
     200000    1    3    3    0    0  0.14911353121E+03  0.10360883379E+02  0.74145009761E+03  0.76308023191E+03  0.10100000000E+03 0.  1.
    -200001    1    1    2    0    0 -0.39801738782E+03 -0.35633140307E+03  0.75133331436E+03  0.11070955962E+04  0.61300000000E+03 0. -1.
<mgrwt>
<rscale>  0 0.16316624E+04</rscale>
<asrwt>0</asrwt>
<pdfrwt beam="1">  1        2 0.28886498E+00 0.16316624E+04</pdfrwt>
<pdfrwt beam="2">  1       -2 0.47022929E-01 0.16316624E+04</pdfrwt>
<totfact> 0.32114682E+01</totfact>
</mgrwt>
</event>
<event>
 8    1  0.6972317E-052  0.1627749E+04  0.7818608E-02  0.8803680E-01
          2   -1    0    0  501    0  0.00000000000E+00  0.00000000000E+00  0.96951118651E+03  0.96951118652E+03  0.25500000000E-02 0.  1.
         -2   -1    0    0    0  501 -0.00000000000E+00 -0.00000000000E+00 -0.68322204582E+03  0.68322204582E+03  0.25500000000E-02 0. -1.
     200001    2    1    2    0    0 -0.24257959508E+03  0.23044605982E+03  0.56853968136E+03  0.89948386185E+03  0.61146022112E+03 0.  0.
    5000001    2    3    3    0    0 -0.33805071278E+03 -0.56729611062E+02  0.20268474408E+03  0.41406091699E+03  0.11344075247E+03 0.  0.
        -11    1    4    4    0    0 -0.20745580100E+03 -0.26544879910E+02  0.17771783662E+03  0.27445613397E+03  0.51100000000E-03 0. -1.
     200002    1    4    4    0    0 -0.13059491177E+03 -0.30184731151E+02  0.24966907459E+02  0.13960478303E+03  0.30000000000E+02 0. -1.
     200000    1    3    3    0    0  0.95471117693E+02  0.28717567088E+03  0.36585493728E+03  0.48542294486E+03  0.10100000000E+03 0.  1.
    -200001    1    1    2    0    0  0.24257959508E+03 -0.23044605982E+03 -0.28225054067E+03  0.75324937049E+03  0.61300000000E+03 0. -1.
<mgrwt>
<rscale>  0 0.16277486E+04</rscale>
<asrwt>0</asrwt>
<pdfrwt beam="1">  1        2 0.13850160E+00 0.16277486E+04</pdfrwt>
<pdfrwt beam="2">  1       -2 0.97603151E-01 0.16277486E+04</pdfrwt>
<totfact> 0.24625510E+01</totfact>
</mgrwt>
</event>
<event>
 8    1  0.6972317E-052  0.1655741E+04  0.7818608E-02  0.8787017E-01
          2   -1    0    0  501    0  0.00000000000E+00  0.00000000000E+00  0.19201480806E+04  0.19201480806E+04  0.25500000000E-02 0.  1.
         -2   -1    0    0    0  501 -0.00000000000E+00 -0.00000000000E+00 -0.35693585865E+03  0.35693585866E+03  0.25500000000E-02 0. -1.
     200001    2    1    2    0    0 -0.30033644135E+03 -0.18045672964E+03  0.13762431934E+04  0.15466778694E+04  0.61269935112E+03 0.  0.
    5000001    2    3    3    0    0 -0.46960331092E+03 -0.11162107861E+03  0.10632073963E+04  0.11704039927E+04  0.80305689417E+02 0.  0.
        -11    1    4    4    0    0 -0.86566252127E+02 -0.50655556477E+02  0.21550537443E+03  0.23770205682E+03  0.51100000000E-03 0. -1.
     200002    1    4    4    0    0 -0.38303705879E+03 -0.60965522136E+02  0.84770202184E+03  0.93270193585E+03  0.30000000000E+02 0. -1.
     200000    1    3    3    0    0  0.16926686957E+03 -0.68835651032E+02  0.31303579714E+03  0.37627387669E+03  0.10100000000E+03 0. -1.
    -200001    1    1    2    0    0  0.30033644135E+03  0.18045672964E+03  0.18696902850E+03  0.73040606987E+03  0.61300000000E+03 0. -1.
<mgrwt>
<rscale>  0 0.16557412E+04</rscale>
<asrwt>0</asrwt>
<pdfrwt beam="1">  1        2 0.27430687E+00 0.16557412E+04</pdfrwt>
<pdfrwt beam="2">  1       -2 0.50990837E-01 0.16557412E+04</pdfrwt>
<totfact> 0.30682484E+01</totfact>
</mgrwt>
</event>
<event>
 8    1  0.6972317E-052  0.1396755E+04  0.7818608E-02  0.8956171E-01
         -2   -1    0    0    0  501 -0.00000000000E+00  0.00000000000E+00  0.13470034395E+04  0.13470034395E+04  0.25500000000E-02 0. -1.
          2   -1    0    0  501    0  0.00000000000E+00 -0.00000000000E+00 -0.36208619605E+03  0.36208619606E+03  0.25500000000E-02 0.  1.
     200001    2    1    2    0    0  0.42327800748E+02  0.13631573152E+03  0.86179353329E+03  0.10677612724E+04  0.61404594251E+03 0.  0.
    5000001    2    3    3    0    0  0.26354968356E+03 -0.38717347547E+02  0.59647442121E+03  0.66754766517E+03  0.13740699189E+03 0.  0.
        -11    1    4    4    0    0  0.13451238008E+02  0.14513958608E+02  0.15678348484E+03  0.15802737712E+03  0.51100000000E-03 0. -1.
     200002    1    4    4    0    0  0.25009844555E+03 -0.53231306154E+02  0.43969093636E+03  0.50952028806E+03  0.30000000000E+02 0. -1.
     200000    1    3    3    0    0 -0.22122188281E+03  0.17503307907E+03  0.26531911209E+03  0.40021360727E+03  0.10100000000E+03 0.  1.
    -200001    1    1    2    0    0 -0.42327800748E+02 -0.13631573152E+03  0.12312371019E+03  0.64132836316E+03  0.61300000000E+03 0.  1.
<mgrwt>
<rscale>  0 0.13967553E+04</rscale>
<asrwt>0</asrwt>
<pdfrwt beam="1">  1        2 0.51726599E-01 0.13967553E+04</pdfrwt>
<pdfrwt beam="2">  1       -2 0.19242906E+00 0.13967553E+04</pdfrwt>
<totfact> 0.14062697E+01</totfact>
</mgrwt>
</event>
<event>
 8    1  0.6972317E-052  0.1423050E+04  0.7818608E-02  0.8937301E-01
         -2   -1    0    0    0  501 -0.00000000000E+00  0.00000000000E+00  0.52175127417E+03  0.52175127418E+03  0.25500000000E-02 0. -1.
          2   -1    0    0  501    0  0.00000000000E+00 -0.00000000000E+00 -0.97032352789E+03  0.97032352789E+03  0.25500000000E-02 0.  1.
     200001    2    1    2    0    0 -0.10044510913E+02 -0.35482658323E+03 -0.29602390972E+03  0.76747643496E+03  0.61268844180E+03 0.  0.
    5000001    2    3    3    0    0 -0.27372126855E+03 -0.24932949051E+03 -0.10300324029E+03  0.40954760415E+03  0.14153107382E+03 0.  0.
        -11    1    4    4    0    0 -0.27127232263E+03 -0.20844071530E+03 -0.10744331823E+03  0.35858091339E+03  0.51100000000E-03 0. -1.
     200002    1    4    4    0    0 -0.24489459258E+01 -0.40888775214E+02  0.44400779393E+01  0.50966690758E+02  0.30000000000E+02 0.  1.
     200000    1    3    3    0    0  0.26367675764E+03 -0.10549709272E+03 -0.19302066944E+03  0.35792883080E+03  0.10100000000E+03 0.  1.
    -200001    1    1    2    0    0  0.10044510913E+02  0.35482658323E+03 -0.15254834400E+03  0.72459836711E+03  0.61300000000E+03 0. -1.
<mgrwt>
<rscale>  0 0.14230496E+04</rscale>
<asrwt>0</asrwt>
<pdfrwt beam="1">  1        2 0.13861765E+00 0.14230496E+04</pdfrwt>
<pdfrwt beam="2">  1       -2 0.74535897E-01 0.14230496E+04</pdfrwt>
<totfact> 0.46187103E+01</totfact>
</mgrwt>
</event>
<event>
 8    1  0.6972317E-052  0.1239033E+04  0.7818608E-02  0.9079360E-01
          2   -1    0    0  501    0  0.00000000000E+00  0.00000000000E+00  0.15007844008E+04  0.15007844008E+04  0.25500000000E-02 0.  1.
         -2   -1    0    0    0  501 -0.00000000000E+00 -0.00000000000E+00 -0.25573358718E+03  0.25573358719E+03  0.25500000000E-02 0. -1.
     200001    2    1    2    0    0 -0.27206930936E+02 -0.84356715614E+02  0.60703694144E+03  0.86731217736E+03  0.61309076992E+03 0.  0.
    5000001    2    3    3    0    0  0.91193920079E+02  0.21703578666E+03  0.18921163900E+03  0.32913452518E+03  0.13079612985E+03 0.  0.
        -11    1    4    4    0    0  0.11803783396E+03  0.14704024590E+03  0.13133373139E+03  0.22978753917E+03  0.51100000000E-03 0. -1.
     200002    1    4    4    0    0 -0.26843913884E+02  0.69995540760E+02  0.57877907612E+02  0.99346986006E+02  0.30000000000E+02 0. -1.
     200000    1    3    3    0    0 -0.11840085102E+03 -0.30139250227E+03  0.41782530244E+03  0.53817765218E+03  0.10100000000E+03 0.  1.
    -200001    1    1    2    0    0  0.27206930936E+02  0.84356715614E+02  0.63801387215E+03  0.88920581061E+03  0.61300000000E+03 0. -1.
<mgrwt>
<rscale>  0 0.12390335E+04</rscale>
<asrwt>0</asrwt>
<pdfrwt beam="1">  1        2 0.21439777E+00 0.12390335E+04</pdfrwt>
<pdfrwt beam="2">  1       -2 0.36533370E-01 0.12390335E+04</pdfrwt>
<totfact> 0.10134232E+02</totfact>
</mgrwt>
</event>
<event>
 8    1  0.6972317E-052  0.1660038E+04  0.7818608E-02  0.8784490E-01
         -2   -1    0    0    0  501 -0.00000000000E+00  0.00000000000E+00  0.10276910606E+04  0.10276910606E+04  0.25500000000E-02 0. -1.
          2   -1    0    0  501    0  0.00000000000E+00 -0.00000000000E+00 -0.67036802018E+03  0.67036802018E+03  0.25500000000E-02 0.  1.
     200001    2    1    2    0    0 -0.11825898621E+03  0.37812730698E+03  0.58306989910E+03  0.93405902035E+03  0.61280526935E+03 0.  0.
    5000001    2    3    3    0    0  0.65056820853E+02  0.24492745097E+03 -0.33077976962E+02  0.26984061354E+03  0.86590749948E+02 0.  0.
        -11    1    4    4    0    0  0.72627139615E+02  0.14029785570E+03 -0.29239173130E+02  0.16066461641E+03  0.51100000000E-03 0. -1.
     200002    1    4    4    0    0 -0.75703187618E+01  0.10462959528E+03 -0.38388038321E+01  0.10917599713E+03  0.30000000000E+02 0. -1.
     200000    1    3    3    0    0 -0.18331580706E+03  0.13319985601E+03  0.61614787606E+03  0.66421840681E+03  0.10100000000E+03 0. -1.
    -200001    1    1    2    0    0  0.11825898621E+03 -0.37812730698E+03 -0.22574685871E+03  0.76400006042E+03  0.61300000000E+03 0.  1.
<mgrwt>
<rscale>  0 0.16600376E+04</rscale>
<asrwt>0</asrwt>
<pdfrwt beam="1">  1        2 0.95766861E-01 0.16600376E+04</pdfrwt>
<pdfrwt beam="2">  1       -2 0.14681301E+00 0.16600376E+04</pdfrwt>
<totfact> 0.14399113E+01</totfact>
</mgrwt>
</event>
<event>
 8    1  0.6972317E-052  0.1827449E+04  0.7818608E-02  0.8691837E-01
         -2   -1    0    0    0  501 -0.00000000000E+00  0.00000000000E+00  0.21695997062E+03  0.21695997064E+03  0.25500000000E-02 0. -1.
          2   -1    0    0  501    0  0.00000000000E+00 -0.00000000000E+00 -0.38481390465E+04  0.38481390465E+04  0.25500000000E-02 0.  1.
     200001    2    1    2    0    0  0.57368572547E+03  0.29339830459E+03 -0.22826875703E+04  0.24497364518E+04  0.61265672538E+03 0.  0.
    5000001    2    3    3    0    0  0.10737826541E+03  0.16742650959E+03 -0.15600359639E+04  0.15746719487E+04  0.79484648372E+02 0.  0.
        -11    1    4    4    0    0  0.48052245230E+01 -0.32548425243E+01 -0.96398436134E+01  0.11252145028E+02  0.51100000000E-03 0. -1.
     200002    1    4    4    0    0  0.10257304089E+03  0.17068135212E+03 -0.15503961203E+04  0.15634198037E+04  0.30000000000E+02 0. -1.
     200000    1    3    3    0    0  0.46630746005E+03  0.12597179500E+03 -0.72265160633E+03  0.87506450309E+03  0.10100000000E+03 0. -1.
    -200001    1    1    2    0    0 -0.57368572547E+03 -0.29339830459E+03 -0.13484915056E+04  0.16153625653E+04  0.61300000000E+03 0. -1.
<mgrwt>
<rscale>  0 0.18274486E+04</rscale>
<asrwt>0</asrwt>
<pdfrwt beam="1">  1        2 0.54973411E+00 0.18274486E+04</pdfrwt>
<pdfrwt beam="2">  1       -2 0.30994284E-01 0.18274486E+04</pdfrwt>
<totfact> 0.66269710E+00</totfact>
</mgrwt>
</event>
<event>
 8    1  0.6972317E-052  0.1806198E+04  0.7818608E-02  0.8703011E-01
         -2   -1    0    0    0  501 -0.00000000000E+00  0.00000000000E+00  0.11794720943E+04  0.11794720943E+04  0.25500000000E-02 0. -1.
          2   -1    0    0  501    0  0.00000000000E+00 -0.00000000000E+00 -0.69148513689E+03  0.69148513690E+03  0.25500000000E-02 0.  1.
     200001    2    1    2    0    0 -0.59276679052E+03 -0.16342980381E+03  0.50140489982E+03  0.10026077567E+04  0.61297118319E+03 0.  0.
    5000001    2    3    3    0    0 -0.26727971790E+03 -0.14859432241E+03 -0.73705596748E+02  0.33394116618E+03  0.11209579486E+03 0.  0.
        -11    1    4    4    0    0 -0.20904015486E+03 -0.81500436399E+02 -0.84064383650E+02  0.23959742919E+03  0.51100000000E-03 0. -1.
     200002    1    4    4    0    0 -0.58239563040E+02 -0.67093886011E+02  0.10358786902E+02  0.94343736990E+02  0.30000000000E+02 0. -1.
     200000    1    3    3    0    0 -0.32548707263E+03 -0.14835481401E+02  0.57511049657E+03  0.66866659047E+03  0.10100000000E+03 0. -1.
    -200001    1    1    2    0    0  0.59276679052E+03  0.16342980381E+03 -0.13417942431E+02  0.86834947452E+03  0.61300000000E+03 0. -1.
<mgrwt>
<rscale>  0 0.18061976E+04</rscale>
<asrwt>0</asrwt>
<pdfrwt beam="1">  1        2 0.98783591E-01 0.18061976E+04</pdfrwt>
<pdfrwt beam="2">  1       -2 0.16849601E+00 0.18061976E+04</pdfrwt>
<totfact> 0.94425987E+00</totfact>
</mgrwt>
</event>
<event>
 8    1  0.6972317E-052  0.1737634E+04  0.7818608E-02  0.8740187E-01
          2   -1    0    0  501    0  0.00000000000E+00  0.00000000000E+00  0.17212431342E+04  0.17212431342E+04  0.25500000000E-02 0.  1.
         -2   -1    0    0    0  501 -0.00000000000E+00 -0.00000000000E+00 -0.43854516339E+03  0.43854516340E+03  0.25500000000E-02 0. -1.
     200001    2    1    2    0    0  0.24879847197E+03 -0.48056586088E+03  0.27827833289E+03  0.86461570858E+03  0.61422900181E+03 0.  0.
    5000001    2    3    3    0    0 -0.53335465767E+02 -0.30799507870E+03  0.36862231906E+03  0.49121427977E+03  0.87769095530E+02 0.  0.
        -11    1    4    4    0    0 -0.39017523151E+02 -0.45014266959E+02  0.65362721417E+02  0.88436059919E+02  0.51100000000E-03 0. -1.
     200002    1    4    4    0    0 -0.14317942615E+02 -0.26298081174E+03  0.30325959765E+03  0.40277821985E+03  0.30000000000E+02 0. -1.
     200000    1    3    3    0    0  0.30213393773E+03 -0.17257078218E+03 -0.90343986179E+02  0.37340142880E+03  0.10100000000E+03 0. -1.
    -200001    1    1    2    0    0 -0.24879847197E+03  0.48056586088E+03  0.10044196379E+04  0.12951725890E+04  0.61300000000E+03 0.  1.
<mgrwt>
<rscale>  0 0.17376339E+04</rscale>
<asrwt>0</asrwt>
<pdfrwt beam="1">  1        2 0.24589187E+00 0.17376339E+04</pdfrwt>
<pdfrwt beam="2">  1       -2 0.62649310E-01 0.17376339E+04</pdfrwt>
<totfact> 0.25128055E+01</totfact>
</mgrwt>
</event>
<event>
 8    1  0.6972317E-052  0.1543197E+04  0.7818608E-02  0.8856225E-01
          2   -1    0    0  501    0  0.00000000000E+00  0.00000000000E+00  0.24898993962E+04  0.24898993962E+04  0.25500000000E-02 0. -1.
         -2   -1    0    0    0  501 -0.00000000000E+00 -0.00000000000E+00 -0.23911179331E+03  0.23911179332E+03  0.25500000000E-02 0.  1.
     200001    2    1    2    0    0  0.15522678154E+03 -0.24914228131E+02  0.35431444050E+03  0.72973743934E+03  0.61827334987E+03 0.  0.
    5000001    2    3    3    0    0  0.14527729369E+03  0.18171059184E+03  0.41972976026E+03  0.49041971623E+03  0.10106530153E+03 0.  0.
        -11    1    4    4    0    0  0.14339532453E+03  0.14054703821E+03  0.35701929010E+03  0.40960769347E+03  0.51100000000E-03 0. -1.
     200002    1    4    4    0    0  0.18819691629E+01  0.41163553624E+02  0.62710470155E+02  0.80812022757E+02  0.30000000000E+02 0.  1.
     200000    1    3    3    0    0  0.99494878487E+01 -0.20662481997E+03 -0.65415319759E+02  0.23931772311E+03  0.10100000000E+03 0.  1.
    -200001    1    1    2    0    0 -0.15522678154E+03  0.24914228131E+02  0.18964731623E+04  0.19992737501E+04  0.61300000000E+03 0. -1.
<mgrwt>
<rscale>  0 0.15431971E+04</rscale>
<asrwt>0</asrwt>
<pdfrwt beam="1">  1        2 0.35569992E+00 0.15431971E+04</pdfrwt>
<pdfrwt beam="2">  1       -2 0.34158827E-01 0.15431971E+04</pdfrwt>
<totfact> 0.34592632E+01</totfact>
</mgrwt>
</event>
<event>
 8    1  0.6972317E-052  0.1399617E+04  0.7818608E-02  0.8954096E-01
          2   -1    0    0  501    0  0.00000000000E+00  0.00000000000E+00  0.11699062732E+04  0.11699062732E+04  0.25500000000E-02 0.  1.
         -2   -1    0    0    0  501 -0.00000000000E+00 -0.00000000000E+00 -0.41860793987E+03  0.41860793988E+03  0.25500000000E-02 0. -1.
     200001    2    1    2    0    0 -0.28926951852E+03 -0.12225322546E+03  0.52297594412E+03  0.86289529182E+03  0.61029643701E+03 0.  0.
    5000001    2    3    3    0    0 -0.42201841708E+03  0.16418141324E+02  0.20136801415E+03  0.47497174438E+03  0.81731151422E+02 0.  0.
        -11    1    4    4    0    0 -0.27111648716E+03 -0.16821318627E+02  0.11076040583E+03  0.29335128067E+03  0.51100000000E-03 0. -1.
     200002    1    4    4    0    0 -0.15090192992E+03  0.33239459951E+02  0.90607608315E+02  0.18162046370E+03  0.30000000000E+02 0. -1.
     200000    1    3    3    0    0  0.13274889857E+03 -0.13867136678E+03  0.32160792997E+03  0.38792354744E+03  0.10100000000E+03 0.  1.
    -200001    1    1    2    0    0  0.28926951852E+03  0.12225322546E+03  0.22832238920E+03  0.72561892126E+03  0.61300000000E+03 0. -1.
<mgrwt>
<rscale>  0 0.13996172E+04</rscale>
<asrwt>0</asrwt>
<pdfrwt beam="1">  1        2 0.16712947E+00 0.13996172E+04</pdfrwt>
<pdfrwt beam="2">  1       -2 0.59801134E-01 0.13996172E+04</pdfrwt>
<totfact> 0.56523680E+01</totfact>
</mgrwt>
</event>
<event>
 8    1  0.6972317E-052  0.1638381E+04  0.7818608E-02  0.8797310E-01
          2   -1    0    0  501    0  0.00000000000E+00  0.00000000000E+00  0.23436560972E+04  0.23436560972E+04  0.25500000000E-02 0.  1.
         -2   -1    0    0    0  501 -0.00000000000E+00 -0.00000000000E+00 -0.28633608997E+03  0.28633608998E+03  0.25500000000E-02 0. -1.
     200001    2    1    2    0    0  0.10630652299E+03 -0.57857269204E+02  0.17788138604E+03  0.64940967911E+03  0.61273371328E+03 0.  0.
    5000001    2    3    3    0    0 -0.21349786326E+03 -0.11024938958E+03 -0.31936700656E+02  0.25035528526E+03  0.62622284283E+02 0.  0.
        -11    1    4    4    0    0 -0.54956502826E+02 -0.65124327824E+01  0.27955129219E+01  0.55411586120E+02  0.51100000000E-03 0. -1.
     200002    1    4    4    0    0 -0.15854136044E+03 -0.10373695679E+03 -0.34732213578E+02  0.19494369914E+03  0.30000000000E+02 0. -1.
     200000    1    3    3    0    0  0.31980438626E+03  0.52392120372E+02  0.20981808669E+03  0.39905439385E+03  0.10100000000E+03 0. -1.
    -200001    1    1    2    0    0 -0.10630652299E+03  0.57857269204E+02  0.18794386211E+04  0.19805825080E+04  0.61300000000E+03 0.  1.
<mgrwt>
<rscale>  0 0.16383813E+04</rscale>
<asrwt>0</asrwt>
<pdfrwt beam="1">  1        2 0.33480803E+00 0.16383813E+04</pdfrwt>
<pdfrwt beam="2">  1       -2 0.40905153E-01 0.16383813E+04</pdfrwt>
<totfact> 0.28891328E+01</totfact>
</mgrwt>
</event>
<event>
 8    1  0.6972317E-052  0.1732111E+04  0.7818608E-02  0.8743259E-01
         -2   -1    0    0    0  501 -0.00000000000E+00  0.00000000000E+00  0.53686786132E+03  0.53686786133E+03  0.25500000000E-02 0. -1.
          2   -1    0    0  501    0  0.00000000000E+00 -0.00000000000E+00 -0.13970892618E+04  0.13970892618E+04  0.25500000000E-02 0.  1.
     200001    2    1    2    0    0 -0.39929435472E+03  0.16153449882E+03 -0.91534276944E+03  0.11827336269E+04  0.61276183845E+03 0.  0.
    5000001    2    3    3    0    0 -0.17417689563E+03  0.15385800493E+03 -0.90306466257E+03  0.93557264526E+03  0.75898044316E+02 0.  0.
        -11    1    4    4    0    0 -0.62636606411E+02  0.24079585571E+02 -0.18516465419E+03  0.19694953685E+03  0.51100000000E-03 0. -1.
     200002    1    4    4    0    0 -0.11154028922E+03  0.12977841936E+03 -0.71790000838E+03  0.73862310841E+03  0.30000000000E+02 0. -1.
     200000    1    3    3    0    0 -0.22511745909E+03  0.76764938880E+01 -0.12278106873E+02  0.24716098166E+03  0.10100000000E+03 0. -1.
    -200001    1    1    2    0    0  0.39929435472E+03 -0.16153449882E+03  0.55121368916E+02  0.75122349626E+03  0.61300000000E+03 0. -1.
<mgrwt>
<rscale>  0 0.17321112E+04</rscale>
<asrwt>0</asrwt>
<pdfrwt beam="1">  1        2 0.19958418E+00 0.17321112E+04</pdfrwt>
<pdfrwt beam="2">  1       -2 0.76695409E-01 0.17321112E+04</pdfrwt>
<totfact> 0.24014270E+01</totfact>
</mgrwt>
</event>
<event>
 8    1  0.6972317E-052  0.1436165E+04  0.7818608E-02  0.8928048E-01
          2   -1    0    0  501    0  0.00000000000E+00  0.00000000000E+00  0.11615899699E+04  0.11615899699E+04  0.25500000000E-02 0.  1.
         -2   -1    0    0    0  501 -0.00000000000E+00 -0.00000000000E+00 -0.44391114737E+03  0.44391114738E+03  0.25500000000E-02 0. -1.
     200001    2    1    2    0    0  0.37036072484E+03  0.53587005262E+02  0.36773343755E+03  0.80658347067E+03  0.61262580784E+03 0.  0.
    5000001    2    3    3    0    0  0.11693412223E+01  0.21154438437E+02 -0.14491928034E+03  0.16598378421E+03  0.78103400570E+02 0.  0.
        -11    1    4    4    0    0 -0.24383006550E+02 -0.56217117938E+01 -0.19201185716E+02  0.31540770204E+02  0.51100000000E-03 0. -1.
     200002    1    4    4    0    0  0.25552347773E+02  0.26776150230E+02 -0.12571809463E+03  0.13444301401E+03  0.30000000000E+02 0. -1.
     200000    1    3    3    0    0  0.36919138362E+03  0.32432566825E+02  0.51265271789E+03  0.64059968646E+03  0.10100000000E+03 0.  1.
    -200001    1    1    2    0    0 -0.37036072484E+03 -0.53587005262E+02  0.34994538503E+03  0.79891764666E+03  0.61300000000E+03 0. -1.
<mgrwt>
<rscale>  0 0.14361654E+04</rscale>
<asrwt>0</asrwt>
<pdfrwt beam="1">  1        2 0.16594143E+00 0.14361654E+04</pdfrwt>
<pdfrwt beam="2">  1       -2 0.63415878E-01 0.14361654E+04</pdfrwt>
<totfact> 0.50320217E+01</totfact>
</mgrwt>
</event>
<event>
 8    1  0.6972317E-052  0.1418351E+04  0.7818608E-02  0.8940641E-01
          2   -1    0    0  501    0  0.00000000000E+00  0.00000000000E+00  0.20573357586E+04  0.20573357586E+04  0.25500000000E-02 0.  1.
         -2   -1    0    0    0  501 -0.00000000000E+00 -0.00000000000E+00 -0.24445694186E+03  0.24445694188E+03  0.25500000000E-02 0. -1.
     200001    2    1    2    0    0 -0.45416083423E+02  0.29334033471E+03  0.12302129068E+04  0.14054781713E+04  0.61141959516E+03 0.  0.
    5000001    2    3    3    0    0 -0.25865618888E+03  0.18219490612E+02  0.79261921427E+03  0.83727744870E+03  0.74520690979E+02 0.  0.
        -11    1    4    4    0    0 -0.72270274994E+02  0.20638108273E+02  0.31151620759E+03  0.32045478894E+03  0.51100000000E-03 0. -1.
     200002    1    4    4    0    0 -0.18638591388E+03 -0.24186176617E+01  0.48110300668E+03  0.51682265977E+03  0.30000000000E+02 0. -1.
     200000    1    3    3    0    0  0.21324010545E+03  0.27512084409E+03  0.43759369256E+03  0.56820072263E+03  0.10100000000E+03 0. -1.
    -200001    1    1    2    0    0  0.45416083423E+02 -0.29334033471E+03  0.58266590990E+03  0.89631452914E+03  0.61300000000E+03 0. -1.
<mgrwt>
<rscale>  0 0.14183512E+04</rscale>
<asrwt>0</asrwt>
<pdfrwt beam="1">  1        2 0.29390513E+00 0.14183512E+04</pdfrwt>
<pdfrwt beam="2">  1       -2 0.34922418E-01 0.14183512E+04</pdfrwt>
<totfact> 0.56116138E+01</totfact>
</mgrwt>
</event>
<event>
 8    1  0.6972317E-052  0.1631879E+04  0.7818608E-02  0.8801200E-01
          2   -1    0    0  501    0  0.00000000000E+00  0.00000000000E+00  0.16769567624E+04  0.16769567624E+04  0.25500000000E-02 0.  1.
         -2   -1    0    0    0  501 -0.00000000000E+00 -0.00000000000E+00 -0.39700302490E+03  0.39700302491E+03  0.25500000000E-02 0. -1.
     200001    2    1    2    0    0  0.45020909025E+03 -0.16141140273E+02  0.26608519465E+03  0.80642391661E+03  0.61365254103E+03 0.  0.
    5000001    2    3    3    0    0  0.45609054378E+03  0.80252303480E+01  0.41625452410E+03  0.62374815885E+03  0.87812005928E+02 0.  0.
        -11    1    4    4    0    0  0.38111991424E+03 -0.11809533040E+01  0.31900536813E+03  0.49700926407E+03  0.51100000000E-03 0. -1.
     200002    1    4    4    0    0  0.74970629537E+02  0.92061836521E+01  0.97249155974E+02  0.12673889477E+03  0.30000000000E+02 0. -1.
     200000    1    3    3    0    0 -0.58814535272E+01 -0.24166370621E+02 -0.15016932945E+03  0.18267575776E+03  0.10100000000E+03 0.  1.
    -200001    1    1    2    0    0 -0.45020909025E+03  0.16141140273E+02  0.10138685429E+04  0.12675358707E+04  0.61300000000E+03 0.  1.
<mgrwt>
<rscale>  0 0.16318786E+04</rscale>
<asrwt>0</asrwt>
<pdfrwt beam="1">  1        2 0.23956525E+00 0.16318786E+04</pdfrwt>
<pdfrwt beam="2">  1       -2 0.56714719E-01 0.16318786E+04</pdfrwt>
<totfact> 0.32959377E+01</totfact>
</mgrwt>
</event>
<event>
 8    1  0.6972317E-052  0.1336611E+04  0.7818608E-02  0.9001026E-01
          2   -1    0    0  501    0  0.00000000000E+00  0.00000000000E+00  0.19934033873E+04  0.19934033873E+04  0.25500000000E-02 0.  1.
         -2   -1    0    0    0  501 -0.00000000000E+00 -0.00000000000E+00 -0.22405499079E+03  0.22405499081E+03  0.25500000000E-02 0. -1.
     200001    2    1    2    0    0 -0.18089708209E+03 -0.16868386865E+02  0.55852690037E+03  0.84820091791E+03  0.61195114341E+03 0.  0.
    5000001    2    3    3    0    0 -0.37271024144E+02 -0.20886005578E+03 -0.69317908401E+01  0.22575913194E+03  0.76860157366E+02 0.  0.
        -11    1    4    4    0    0  0.14134819576E+01 -0.14553601114E+03 -0.71555583036E+01  0.14571866897E+03  0.51100000000E-03 0. -1.
     200002    1    4    4    0    0 -0.38684506102E+02 -0.63324044637E+02  0.22376746345E+00  0.80040462976E+02  0.30000000000E+02 0. -1.
     200000    1    3    3    0    0 -0.14362605795E+03  0.19199166892E+03  0.56545869121E+03  0.62244178597E+03  0.10100000000E+03 0.  1.
    -200001    1    1    2    0    0  0.18089708209E+03  0.16868386865E+02  0.12108214961E+04  0.13692574602E+04  0.61300000000E+03 0.  1.
<mgrwt>
<rscale>  0 0.13366106E+04</rscale>
<asrwt>0</asrwt>
<pdfrwt beam="1">  1        2 0.28477192E+00 0.13366106E+04</pdfrwt>
<pdfrwt beam="2">  1       -2 0.32007855E-01 0.13366106E+04</pdfrwt>
<totfact> 0.71837529E+01</totfact>
</mgrwt>
</event>
<event>
 8    1  0.6972317E-052  0.1538501E+04  0.7818608E-02  0.8859246E-01
         -2   -1    0    0    0  501 -0.00000000000E+00  0.00000000000E+00  0.23118818020E+03  0.23118818021E+03  0.25500000000E-02 0. -1.
          2   -1    0    0  501    0  0.00000000000E+00 -0.00000000000E+00 -0.25595865467E+04  0.25595865467E+04  0.25500000000E-02 0.  1.
     200001    2    1    2    0    0  0.44086858088E+03 -0.65804404880E+02 -0.92458758196E+03  0.11954224009E+04  0.61276193954E+03 0.  0.
    5000001    2    3    3    0    0 -0.67419685355E+02  0.63105356763E+02 -0.48327731327E+03  0.50265227922E+03  0.10283312823E+03 0.  0.
        -11    1    4    4    0    0 -0.27335135345E+02 -0.23116659874E+02 -0.88207695563E+02  0.95195520614E+02  0.51100000000E-03 0. -1.
     200002    1    4    4    0    0 -0.40084550011E+02  0.86222016638E+02 -0.39506961770E+03  0.40745675861E+03  0.30000000000E+02 0. -1.
     200000    1    3    3    0    0  0.50828826623E+03 -0.12890976164E+03 -0.44131026869E+03  0.69277012168E+03  0.10100000000E+03 0. -1.
    -200001    1    1    2    0    0 -0.44086858088E+03  0.65804404880E+02 -0.14038107845E+04  0.15953523260E+04  0.61300000000E+03 0.  1.
<mgrwt>
<rscale>  0 0.15385008E+04</rscale>
<asrwt>0</asrwt>
<pdfrwt beam="1">  1        2 0.36565521E+00 0.15385008E+04</pdfrwt>
<pdfrwt beam="2">  1       -2 0.33026884E-01 0.15385008E+04</pdfrwt>
<totfact> 0.33901471E+01</totfact>
</mgrwt>
</event>
<event>
 8    1  0.6972317E-052  0.1834569E+04  0.7818608E-02  0.8688129E-01
         -2   -1    0    0    0  501 -0.00000000000E+00  0.00000000000E+00  0.59065357527E+03  0.59065357527E+03  0.25500000000E-02 0. -1.
          2   -1    0    0  501    0  0.00000000000E+00 -0.00000000000E+00 -0.14245418421E+04  0.14245418421E+04  0.25500000000E-02 0.  1.
     200001    2    1    2    0    0  0.56367352737E+03 -0.33321242962E+03 -0.20616355871E+03  0.92040517358E+03  0.61309371380E+03 0.  0.
    5000001    2    3    3    0    0  0.52029280351E+03 -0.81100618381E+02 -0.32198745870E+03  0.62197858566E+03  0.76808370466E+02 0.  0.
        -11    1    4    4    0    0  0.36898868741E+03 -0.41337133185E+02 -0.20312926385E+03  0.42322914343E+03  0.51100000000E-03 0. -1.
     200002    1    4    4    0    0  0.15130411610E+03 -0.39763485196E+02 -0.11885819485E+03  0.19874944223E+03  0.30000000000E+02 0.  1.
     200000    1    3    3    0    0  0.43380723862E+02 -0.25211181124E+03  0.11582389999E+03  0.29842658792E+03  0.10100000000E+03 0. -1.
    -200001    1    1    2    0    0 -0.56367352737E+03  0.33321242962E+03 -0.62772470810E+03  0.10947902438E+04  0.61300000000E+03 0.  1.
<mgrwt>
<rscale>  0 0.18345689E+04</rscale>
<asrwt>0</asrwt>
<pdfrwt beam="1">  1        2 0.20350598E+00 0.18345689E+04</pdfrwt>
<pdfrwt beam="2">  1       -2 0.84379083E-01 0.18345689E+04</pdfrwt>
<totfact> 0.18571575E+01</totfact>
</mgrwt>
</event>
<event>
 8    1  0.6972317E-052  0.2625010E+04  0.7818608E-02  0.8359755E-01
          2   -1    0    0  501    0  0.00000000000E+00  0.00000000000E+00  0.21553808085E+04  0.21553808085E+04  0.25500000000E-02 0.  1.
         -2   -1    0    0    0  501 -0.00000000000E+00 -0.00000000000E+00 -0.79924113193E+03  0.79924113194E+03  0.25500000000E-02 0. -1.
     200001    2    1    2    0    0  0.56578850537E+03  0.35757683186E+03 -0.38978896545E+03  0.98687865268E+03  0.61156865031E+03 0.  0.
    5000001    2    3    3    0    0  0.64662815193E+03  0.29516317357E+03 -0.30875056764E+03  0.82195826243E+03  0.27393284993E+03 0.  0.
        -11    1    4    4    0    0  0.27095370906E+03 -0.11920189728E+02 -0.15344409535E+03  0.31161369318E+03  0.51100000000E-03 0. -1.
     200002    1    4    4    0    0  0.37567444287E+03  0.30708336329E+03 -0.15530647228E+03  0.51034456926E+03  0.30000000000E+02 0. -1.
     200000    1    3    3    0    0 -0.80839646562E+02  0.62413658297E+02 -0.81038397816E+02  0.16492039025E+03  0.10100000000E+03 0. -1.
    -200001    1    1    2    0    0 -0.56578850537E+03 -0.35757683186E+03  0.17459286420E+04  0.19677432877E+04  0.61300000000E+03 0.  1.
<mgrwt>
<rscale>  0 0.26250097E+04</rscale>
<asrwt>0</asrwt>
<pdfrwt beam="1">  1        2 0.30791154E+00 0.26250097E+04</pdfrwt>
<pdfrwt beam="2">  1       -2 0.11417730E+00 0.26250097E+04</pdfrwt>
<totfact> 0.35559123E+00</totfact>
</mgrwt>
</event>
<event>
 8    1  0.6972317E-052  0.1529648E+04  0.7818608E-02  0.8864973E-01
          2   -1    0    0  501    0  0.00000000000E+00  0.00000000000E+00  0.45708672497E+04  0.45708672497E+04  0.25500000000E-02 0.  1.
         -2   -1    0    0    0  501 -0.00000000000E+00 -0.00000000000E+00 -0.12797485514E+03  0.12797485517E+03  0.25500000000E-02 0. -1.
     200001    2    1    2    0    0 -0.21905846135E+03  0.39690486030E+03  0.20327765741E+04  0.21710075879E+04  0.61284032870E+03 0.  0.
    5000001    2    3    3    0    0 -0.16547606695E+03  0.46888619060E+03  0.19437149420E+04  0.20091886791E+04  0.10758617061E+03 0.  0.
        -11    1    4    4    0    0 -0.45924427400E+02  0.27434023505E+03  0.10305325079E+04  0.10674122294E+04  0.51100000000E-03 0. -1.
     200002    1    4    4    0    0 -0.11955163955E+03  0.19454595555E+03  0.91318243408E+03  0.94177644972E+03  0.30000000000E+02 0. -1.
     200000    1    3    3    0    0 -0.53582394399E+02 -0.71981330299E+02  0.89061632154E+02  0.16181890873E+03  0.10100000000E+03 0. -1.
    -200001    1    1    2    0    0  0.21905846135E+03 -0.39690486030E+03  0.24101158204E+04  0.25278345170E+04  0.61300000000E+03 0.  1.
<mgrwt>
<rscale>  0 0.15296484E+04</rscale>
<asrwt>0</asrwt>
<pdfrwt beam="1">  1        2 0.65298092E+00 0.15296484E+04</pdfrwt>
<pdfrwt beam="2">  1       -2 0.18282126E-01 0.15296484E+04</pdfrwt>
<totfact> 0.52806164E+00</totfact>
</mgrwt>
</event>
<event>
 8    1  0.6972317E-052  0.1483305E+04  0.7818608E-02  0.8895631E-01
         -2   -1    0    0    0  501 -0.00000000000E+00  0.00000000000E+00  0.20670226814E+03  0.20670226815E+03  0.25500000000E-02 0. -1.
          2   -1    0    0  501    0  0.00000000000E+00 -0.00000000000E+00 -0.26610658432E+04  0.26610658432E+04  0.25500000000E-02 0.  1.
     200001    2    1    2    0    0  0.98213546789E+02 -0.11238983975E+02 -0.20110476089E+04  0.21048328183E+04  0.61338119639E+03 0.  0.
    5000001    2    3    3    0    0 -0.18601156599E+03  0.48872536265E+02 -0.29970809405E+03  0.36607428280E+03  0.84832843898E+02 0.  0.
        -11    1    4    4    0    0 -0.12607319858E+03  0.63465135437E+02 -0.19010225735E+03  0.23677234439E+03  0.51100000000E-03 0. -1.
     200002    1    4    4    0    0 -0.59938367411E+02 -0.14592599172E+02 -0.10960583670E+03  0.12930193841E+03  0.30000000000E+02 0. -1.
     200000    1    3    3    0    0  0.28422511278E+03 -0.60111520240E+02 -0.17113395149E+04  0.17387585355E+04  0.10100000000E+03 0.  1.
    -200001    1    1    2    0    0 -0.98213546789E+02  0.11238983975E+02 -0.44331596610E+03  0.76293529302E+03  0.61300000000E+03 0. -1.
<mgrwt>
<rscale>  0 0.14833049E+04</rscale>
<asrwt>0</asrwt>
<pdfrwt beam="1">  1        2 0.38015224E+00 0.14833049E+04</pdfrwt>
<pdfrwt beam="2">  1       -2 0.29528897E-01 0.14833049E+04</pdfrwt>
<totfact> 0.37115267E+01</totfact>
</mgrwt>
</event>
<event>
 8    1  0.6972317E-052  0.2026645E+04  0.7818608E-02  0.8594264E-01
          2   -1    0    0  501    0  0.00000000000E+00  0.00000000000E+00  0.17595266973E+04  0.17595266973E+04  0.25500000000E-02 0.  1.
         -2   -1    0    0    0  501 -0.00000000000E+00 -0.00000000000E+00 -0.58357864148E+03  0.58357864148E+03  0.25500000000E-02 0. -1.
     200001    2    1    2    0    0 -0.23559871908E+03  0.70145190623E+03  0.95984750243E+03  0.13582144909E+04  0.61310508242E+03 0.  0.
    5000001    2    3    3    0    0  0.34334833070E+02  0.59329066781E+03  0.82679225582E+03  0.10228524854E+04  0.97309173762E+02 0.  0.
        -11    1    4    4    0    0 -0.45955347599E+00  0.20975578838E+03  0.36324281933E+03  0.41945565647E+03  0.51100000000E-03 0. -1.
     200002    1    4    4    0    0  0.34794386546E+02  0.38353487943E+03  0.46354943649E+03  0.60339682891E+03  0.30000000000E+02 0. -1.
     200000    1    3    3    0    0 -0.26993355215E+03  0.10816123842E+03  0.13305524661E+03  0.33536200548E+03  0.10100000000E+03 0. -1.
    -200001    1    1    2    0    0  0.23559871908E+03 -0.70145190623E+03  0.21610055343E+03  0.98489084795E+03  0.61300000000E+03 0. -1.
<mgrwt>
<rscale>  0 0.20266447E+04</rscale>
<asrwt>0</asrwt>
<pdfrwt beam="1">  1        2 0.25136096E+00 0.20266447E+04</pdfrwt>
<pdfrwt beam="2">  1       -2 0.83368375E-01 0.20266447E+04</pdfrwt>
<totfact> 0.12519162E+01</totfact>
</mgrwt>
</event>
<event>
 8    1  0.6972317E-052  0.1874300E+04  0.7818608E-02  0.8667756E-01
          2   -1    0    0  501    0  0.00000000000E+00  0.00000000000E+00  0.24499385115E+04  0.24499385115E+04  0.25500000000E-02 0.  1.
         -2   -1    0    0    0  501 -0.00000000000E+00 -0.00000000000E+00 -0.35847856554E+03  0.35847856555E+03  0.25500000000E-02 0. -1.
     200001    2    1    2    0    0  0.46986370642E+03  0.51825591495E+03  0.12316073034E+04  0.15417376927E+04  0.60888214548E+03 0.  0.
    5000001    2    3    3    0    0  0.55444939382E+03  0.55031960008E+03  0.10239695579E+04  0.12937512983E+04  0.12252744095E+03 0.  0.
        -11    1    4    4    0    0  0.24857878433E+03  0.30972329800E+03  0.45740573817E+03  0.60575567901E+03  0.51100000000E-03 0. -1.
     200002    1    4    4    0    0  0.30587060948E+03  0.24059630208E+03  0.56656381970E+03  0.68799561926E+03  0.30000000000E+02 0. -1.
     200000    1    3    3    0    0 -0.84585687400E+02 -0.32063685133E+02  0.20763774556E+03  0.24798639438E+03  0.10100000000E+03 0.  1.
    -200001    1    1    2    0    0 -0.46986370642E+03 -0.51825591495E+03  0.85985264252E+03  0.12666793844E+04  0.61300000000E+03 0.  1.
<mgrwt>
<rscale>  0 0.18743003E+04</rscale>
<asrwt>0</asrwt>
<pdfrwt beam="1">  1        2 0.34999122E+00 0.18743003E+04</pdfrwt>
<pdfrwt beam="2">  1       -2 0.51211223E-01 0.18743003E+04</pdfrwt>
<totfact> 0.15893012E+01</totfact>
</mgrwt>
</event>
<event>
 8    1  0.6972317E-052  0.1456112E+04  0.7818608E-02  0.8914174E-01
         -2   -1    0    0    0  501 -0.00000000000E+00  0.00000000000E+00  0.62662687361E+03  0.62662687361E+03  0.25500000000E-02 0. -1.
          2   -1    0    0  501    0  0.00000000000E+00 -0.00000000000E+00 -0.84590296432E+03  0.84590296432E+03  0.25500000000E-02 0.  1.
     200001    2    1    2    0    0  0.11027222337E+03 -0.24141315394E+03  0.18334355146E+03  0.69258634613E+03  0.61287903769E+03 0.  0.
    5000001    2    3    3    0    0  0.10583786395E+03  0.13879456936E+03 -0.37436970382E+02  0.24145153787E+03  0.16257838865E+03 0.  0.
        -11    1    4    4    0    0 -0.11552433698E+02 -0.24831073829E+02  0.14972143055E+02  0.31212273544E+02  0.51100000000E-03 0. -1.
     200002    1    4    4    0    0  0.11739029765E+03  0.16362564319E+03 -0.52409113437E+02  0.21023926432E+03  0.30000000000E+02 0. -1.
     200000    1    3    3    0    0  0.44343594130E+01 -0.38020772330E+03  0.22078052184E+03  0.45113480826E+03  0.10100000000E+03 0. -1.
    -200001    1    1    2    0    0 -0.11027222337E+03  0.24141315394E+03 -0.40261964217E+03  0.77994349180E+03  0.61300000000E+03 0.  1.
<mgrwt>
<rscale>  0 0.14561120E+04</rscale>
<asrwt>0</asrwt>
<pdfrwt beam="1">  1        2 0.12084328E+00 0.14561120E+04</pdfrwt>
<pdfrwt beam="2">  1       -2 0.89518125E-01 0.14561120E+04</pdfrwt>
<totfact> 0.36723677E+01</totfact>
</mgrwt>
</event>
<event>
 8    1  0.6972317E-052  0.2014041E+04  0.7818608E-02  0.8600084E-01
          2   -1    0    0  501    0  0.00000000000E+00  0.00000000000E+00  0.83548665803E+03  0.83548665804E+03  0.25500000000E-02 0.  1.
         -2   -1    0    0    0  501 -0.00000000000E+00 -0.00000000000E+00 -0.12137723523E+04  0.12137723523E+04  0.25500000000E-02 0. -1.
     200001    2    1    2    0    0  0.25952022795E+03  0.73810518179E+03 -0.24769084552E+02  0.99432157078E+03  0.61311652275E+03 0.  0.
    5000001    2    3    3    0    0  0.21919988782E+03  0.23439277512E+01  0.57932438026E+02  0.24598281419E+03  0.95379728892E+02 0.  0.
        -11    1    4    4    0    0  0.16365147455E+02  0.27002311966E+02  0.15400172016E+02  0.35129876190E+02  0.51100000000E-03 0. -1.
     200002    1    4    4    0    0  0.20283474037E+03 -0.24658384215E+02  0.42532266010E+02  0.21085293800E+03  0.30000000000E+02 0. -1.
     200000    1    3    3    0    0  0.40320340124E+02  0.73576125403E+03 -0.82701522578E+02  0.74833875658E+03  0.10100000000E+03 0. -1.
    -200001    1    1    2    0    0 -0.25952022795E+03 -0.73810518179E+03 -0.35351660975E+03  0.10549374396E+04  0.61300000000E+03 0. -1.
<mgrwt>
<rscale>  0 0.20140413E+04</rscale>
<asrwt>0</asrwt>
<pdfrwt beam="1">  1        2 0.11935524E+00 0.20140413E+04</pdfrwt>
<pdfrwt beam="2">  1       -2 0.17339605E+00 0.20140413E+04</pdfrwt>
<totfact> 0.67442042E+00</totfact>
</mgrwt>
</event>
<event>
 8    1  0.6972317E-052  0.1616613E+04  0.7818608E-02  0.8810407E-01
          2   -1    0    0  501    0  0.00000000000E+00  0.00000000000E+00  0.85182954124E+03  0.85182954124E+03  0.25500000000E-02 0.  1.
         -2   -1    0    0    0  501 -0.00000000000E+00 -0.00000000000E+00 -0.76700683685E+03  0.76700683686E+03  0.25500000000E-02 0. -1.
     200001    2    1    2    0    0 -0.48441607424E+03  0.20147423461E+03  0.96605482722E+02  0.81189236885E+03  0.61203414864E+03 0.  0.
    5000001    2    3    3    0    0 -0.96286765726E+01  0.48469167779E+02 -0.20163400865E+03  0.22199287090E+03  0.78629445184E+02 0.  0.
        -11    1    4    4    0    0  0.20076223527E+02  0.43507910330E+02 -0.81283296178E+02  0.94355536405E+02  0.51100000000E-03 0. -1.
     200002    1    4    4    0    0 -0.29704900100E+02  0.49612574484E+01 -0.12035071247E+03  0.12763733450E+03  0.30000000000E+02 0. -1.
     200000    1    3    3    0    0 -0.47478739767E+03  0.15300506683E+03  0.29823949137E+03  0.58989949795E+03  0.10100000000E+03 0. -1.
    -200001    1    1    2    0    0  0.48441607424E+03 -0.20147423461E+03 -0.11782778340E+02  0.80694400925E+03  0.61300000000E+03 0.  1.
<mgrwt>
<rscale>  0 0.16166126E+04</rscale>
<asrwt>0</asrwt>
<pdfrwt beam="1">  1        2 0.12168993E+00 0.16166126E+04</pdfrwt>
<pdfrwt beam="2">  1       -2 0.10957241E+00 0.16166126E+04</pdfrwt>
<totfact> 0.22294178E+01</totfact>
</mgrwt>
</event>
<event>
 8    1  0.6972317E-052  0.1445742E+04  0.7818608E-02  0.8921358E-01
          2   -1    0    0  501    0  0.00000000000E+00  0.00000000000E+00  0.33613163368E+04  0.33613163368E+04  0.25500000000E-02 0.  1.
         -2   -1    0    0    0  501 -0.00000000000E+00 -0.00000000000E+00 -0.15545773304E+03  0.15545773306E+03  0.25500000000E-02 0. -1.
     200001    2    1    2    0    0  0.21511676786E+03 -0.30847926865E+03  0.14270177502E+04  0.15980561476E+04  0.61316319885E+03 0.  0.
    5000001    2    3    3    0    0  0.28487120134E+03 -0.26834620466E+03  0.14130141245E+04  0.14681583210E+04  0.75621772687E+02 0.  0.
        -11    1    4    4    0    0  0.20541495073E+03 -0.19797273195E+03  0.93339181443E+03  0.97601679485E+03  0.51100000000E-03 0. -1.
     200002    1    4    4    0    0  0.79456250606E+02 -0.70373472716E+02  0.47962231011E+03  0.49214152617E+03  0.30000000000E+02 0. -1.
     200000    1    3    3    0    0 -0.69754433478E+02 -0.40133063989E+02  0.14003625661E+02  0.12989782657E+03  0.10100000000E+03 0. -1.
    -200001    1    1    2    0    0 -0.21511676786E+03  0.30847926865E+03  0.17788408535E+04  0.19187179223E+04  0.61300000000E+03 0. -1.
<mgrwt>
<rscale>  0 0.14457422E+04</rscale>
<asrwt>0</asrwt>
<pdfrwt beam="1">  1        2 0.48018797E+00 0.14457422E+04</pdfrwt>
<pdfrwt beam="2">  1       -2 0.22208251E-01 0.14457422E+04</pdfrwt>
<totfact> 0.25397351E+01</totfact>
</mgrwt>
</event>
<event>
 8    1  0.6972317E-052  0.1436794E+04  0.7818608E-02  0.8927607E-01
         -2   -1    0    0    0  501 -0.00000000000E+00  0.00000000000E+00  0.76172118336E+03  0.76172118336E+03  0.25500000000E-02 0. -1.
          2   -1    0    0  501    0  0.00000000000E+00 -0.00000000000E+00 -0.67753719288E+03  0.67753719288E+03  0.25500000000E-02 0.  1.
     200001    2    1    2    0    0 -0.36771659330E+03 -0.18256949683E+02 -0.27771097265E+02  0.71548233984E+03  0.61285800605E+03 0.  0.
    5000001    2    3    3    0    0 -0.70266988491E+02  0.16963093379E+02  0.26160785379E+03  0.28692908043E+03  0.93082929805E+02 0.  0.
        -11    1    4    4    0    0 -0.54791858614E+02 -0.27975883990E+02  0.14339209492E+03  0.15603233877E+03  0.51100000000E-03 0. -1.
     200002    1    4    4    0    0 -0.15475129876E+02  0.44938977369E+02  0.11821575887E+03  0.13089674166E+03  0.30000000000E+02 0. -1.
     200000    1    3    3    0    0 -0.29744960481E+03 -0.35220043063E+02 -0.28937895106E+03  0.42855325941E+03  0.10100000000E+03 0.  1.
    -200001    1    1    2    0    0  0.36771659330E+03  0.18256949683E+02  0.11195508774E+03  0.72377603641E+03  0.61300000000E+03 0.  1.
<mgrwt>
<rscale>  0 0.14367943E+04</rscale>
<asrwt>0</asrwt>
<pdfrwt beam="1">  1        2 0.96791028E-01 0.14367943E+04</pdfrwt>
<pdfrwt beam="2">  1       -2 0.10881731E+00 0.14367943E+04</pdfrwt>
<totfact> 0.30733250E+01</totfact>
</mgrwt>
</event>
<event>
 8    1  0.6972317E-052  0.1386144E+04  0.7818608E-02  0.8963910E-01
         -2   -1    0    0    0  501 -0.00000000000E+00  0.00000000000E+00  0.29206695592E+03  0.29206695593E+03  0.25500000000E-02 0. -1.
          2   -1    0    0  501    0  0.00000000000E+00 -0.00000000000E+00 -0.16446518498E+04  0.16446518498E+04  0.25500000000E-02 0.  1.
     200001    2    1    2    0    0 -0.18131370190E+03 -0.18850383629E+03 -0.94159711676E+03  0.11537192478E+04  0.61323292284E+03 0.  0.
    5000001    2    3    3    0    0 -0.19017507590E+01  0.18333179682E+03 -0.48220767636E+03  0.52786779241E+03  0.11183022287E+03 0.  0.
        -11    1    4    4    0    0  0.35332409721E+00  0.31875160441E+02 -0.22959918748E+03  0.23180150471E+03  0.51100000000E-03 0. -1.
     200002    1    4    4    0    0 -0.22550748563E+01  0.15145663637E+03 -0.25260848888E+03  0.29606628771E+03  0.30000000000E+02 0. -1.
     200000    1    3    3    0    0 -0.17941195114E+03 -0.37183563310E+03 -0.45938944040E+03  0.62585145538E+03  0.10100000000E+03 0.  1.
    -200001    1    1    2    0    0  0.18131370190E+03  0.18850383629E+03 -0.41098777711E+03  0.78299955794E+03  0.61300000000E+03 0. -1.
<mgrwt>
<rscale>  0 0.13861435E+04</rscale>
<asrwt>0</asrwt>
<pdfrwt beam="1">  1        2 0.23495026E+00 0.13861435E+04</pdfrwt>
<pdfrwt beam="2">  1       -2 0.41723852E-01 0.13861435E+04</pdfrwt>
<totfact> 0.65049593E+01</totfact>
</mgrwt>
</event>
<event>
 8    1  0.6972317E-052  0.1715344E+04  0.7818608E-02  0.8752661E-01
          2   -1    0    0  501    0  0.00000000000E+00  0.00000000000E+00  0.71364306347E+03  0.71364306348E+03  0.25500000000E-02 0. -1.
         -2   -1    0    0    0  501 -0.00000000000E+00 -0.00000000000E+00 -0.10307686245E+04  0.10307686245E+04  0.25500000000E-02 0.  1.
     200001    2    1    2    0    0  0.24370771314E+03  0.29211956444E+03 -0.62983241978E+03  0.95810267188E+03  0.61363227057E+03 0.  0.
    5000001    2    3    3    0    0  0.75102258921E+02  0.35108783130E+03 -0.85489379026E+02  0.37636785110E+03  0.73765241399E+02 0.  0.
        -11    1    4    4    0    0  0.19893109377E+02  0.74508526467E+02  0.84713446711E+01  0.77582343337E+02  0.51100000000E-03 0. -1.
     200002    1    4    4    0    0  0.55209149544E+02  0.27657930483E+03 -0.93960723697E+02  0.29878550777E+03  0.30000000000E+02 0. -1.
     200000    1    3    3    0    0  0.16860545422E+03 -0.58968266860E+02 -0.54434304075E+03  0.58173482078E+03  0.10100000000E+03 0.  1.
    -200001    1    1    2    0    0 -0.24370771314E+03 -0.29211956444E+03  0.31270685871E+03  0.78630901614E+03  0.61300000000E+03 0. -1.
<mgrwt>
<rscale>  0 0.17153436E+04</rscale>
<asrwt>0</asrwt>
<pdfrwt beam="1">  1        2 0.10194901E+00 0.17153436E+04</pdfrwt>
<pdfrwt beam="2">  1       -2 0.14725266E+00 0.17153436E+04</pdfrwt>
<totfact> 0.13170805E+01</totfact>
</mgrwt>
</event>
<event>
 8    1  0.6972317E-052  0.1253787E+04  0.7818608E-02  0.9067037E-01
          2   -1    0    0  501    0  0.00000000000E+00  0.00000000000E+00  0.29458213711E+04  0.29458213711E+04  0.25500000000E-02 0.  1.
         -2   -1    0    0    0  501 -0.00000000000E+00 -0.00000000000E+00 -0.13340772930E+03  0.13340772932E+03  0.25500000000E-02 0. -1.
     200001    2    1    2    0    0  0.52031891334E+02  0.12006195664E+03  0.14223145373E+04  0.15543465766E+04  0.61310068179E+03 0.  0.
    5000001    2    3    3    0    0 -0.17153624993E+03 -0.12509232889E+03  0.89996287474E+03  0.92734131595E+03  0.70398611899E+02 0.  0.
        -11    1    4    4    0    0 -0.75546148803E+02 -0.77822940107E+02  0.53294724777E+03  0.54387167559E+03  0.51100000000E-03 0. -1.
     200002    1    4    4    0    0 -0.95990101131E+02 -0.47269388785E+02  0.36701562698E+03  0.38346964036E+03  0.30000000000E+02 0.  1.
     200000    1    3    3    0    0  0.22356814127E+03  0.24515428553E+03  0.52235166253E+03  0.62700526063E+03  0.10100000000E+03 0.  1.
    -200001    1    1    2    0    0 -0.52031891334E+02 -0.12006195664E+03  0.13900991045E+04  0.15248825239E+04  0.61300000000E+03 0. -1.
<mgrwt>
<rscale>  0 0.12537868E+04</rscale>
<asrwt>0</asrwt>
<pdfrwt beam="1">  1        2 0.42083163E+00 0.12537868E+04</pdfrwt>
<pdfrwt beam="2">  1       -2 0.19058247E-01 0.12537868E+04</pdfrwt>
<totfact> 0.58390108E+01</totfact>
</mgrwt>
</event>
<event>
 8    1  0.6972317E-052  0.1368404E+04  0.7818608E-02  0.8977013E-01
          2   -1    0    0  501    0  0.00000000000E+00  0.00000000000E+00  0.23789254964E+04  0.23789254964E+04  0.25500000000E-02 0.  1.
         -2   -1    0    0    0  501 -0.00000000000E+00 -0.00000000000E+00 -0.19678299106E+03  0.19678299107E+03  0.25500000000E-02 0. -1.
     200001    2    1    2    0    0 -0.21928439601E+03  0.14115951336E+03  0.79713843307E+03  0.10388230217E+04  0.61295345214E+03 0.  0.
    5000001    2    3    3    0    0  0.18726424186E+03  0.12348366406E+03  0.32596451962E+03  0.40810907128E+03  0.99920140303E+02 0.  0.
        -11    1    4    4    0    0  0.15125445997E+03  0.51809632460E+02  0.21581263132E+03  0.26858377001E+03  0.51100000000E-03 0. -1.
     200002    1    4    4    0    0  0.36009781896E+02  0.71674031597E+02  0.11015188830E+03  0.13952530127E+03  0.30000000000E+02 0.  1.
     200000    1    3    3    0    0 -0.40654863787E+03  0.17675849299E+02  0.47117391345E+03  0.63071395047E+03  0.10100000000E+03 0. -1.
    -200001    1    1    2    0    0  0.21928439601E+03 -0.14115951336E+03  0.13850040723E+04  0.15368854657E+04  0.61300000000E+03 0. -1.
<mgrwt>
<rscale>  0 0.13684036E+04</rscale>
<asrwt>0</asrwt>
<pdfrwt beam="1">  1        2 0.33984651E+00 0.13684036E+04</pdfrwt>
<pdfrwt beam="2">  1       -2 0.28111855E-01 0.13684036E+04</pdfrwt>
<totfact> 0.57761252E+01</totfact>
</mgrwt>
</event>
<event>
 8    1  0.6972317E-052  0.1270870E+04  0.7818608E-02  0.9052990E-01
          2   -1    0    0  501    0  0.00000000000E+00  0.00000000000E+00  0.97478329943E+03  0.97478329943E+03  0.25500000000E-02 0.  1.
         -2   -1    0    0    0  501 -0.00000000000E+00 -0.00000000000E+00 -0.41422292666E+03  0.41422292666E+03  0.25500000000E-02 0. -1.
     200001    2    1    2    0    0 -0.12386665961E+03  0.28853850838E+02  0.40353023473E+03  0.74355835188E+03  0.61144654570E+03 0.  0.
    5000001    2    3    3    0    0 -0.16549167288E+03  0.13278175367E+03 -0.72414415117E+02  0.24430094289E+03  0.97059854109E+02 0.  0.
        -11    1    4    4    0    0  0.11496138866E+02  0.38055813152E+01 -0.58854938836E+01  0.13464126280E+02  0.51100000000E-03 0. -1.
     200002    1    4    4    0    0 -0.17698781174E+03  0.12897617236E+03 -0.66528921233E+02  0.23083681661E+03  0.30000000000E+02 0. -1.
     200000    1    3    3    0    0  0.41625013271E+02 -0.10392790283E+03  0.47594464985E+03  0.49925740899E+03  0.10100000000E+03 0.  1.
    -200001    1    1    2    0    0  0.12386665961E+03 -0.28853850838E+02  0.15703013804E+03  0.64544787421E+03  0.61300000000E+03 0. -1.
<mgrwt>
<rscale>  0 0.12708699E+04</rscale>
<asrwt>0</asrwt>
<pdfrwt beam="1">  1        2 0.13925476E+00 0.12708699E+04</pdfrwt>
<pdfrwt beam="2">  1       -2 0.59174704E-01 0.12708699E+04</pdfrwt>
<totfact> 0.76336714E+01</totfact>
</mgrwt>
</event>
<event>
 8    1  0.6972317E-052  0.1497407E+04  0.7818608E-02  0.8886179E-01
          2   -1    0    0  501    0  0.00000000000E+00  0.00000000000E+00  0.45218259196E+03  0.45218259197E+03  0.25500000000E-02 0. -1.
         -2   -1    0    0    0  501 -0.00000000000E+00 -0.00000000000E+00 -0.12396695698E+04  0.12396695698E+04  0.25500000000E-02 0.  1.
     200001    2    1    2    0    0 -0.23673289177E+03  0.34273413682E+03 -0.27089942435E+03  0.78844701954E+03  0.61217077186E+03 0.  0.
    5000001    2    3    3    0    0 -0.34301283207E+03  0.15840396805E+03  0.17997030068E+02  0.41570689800E+03  0.17244915741E+03 0.  0.
        -11    1    4    4    0    0 -0.48324234920E+02  0.64161348124E+02 -0.53805064037E+02  0.96679342106E+02  0.51100000000E-03 0. -1.
     200002    1    4    4    0    0 -0.29468859715E+03  0.94242619927E+02  0.71802094105E+02  0.31902755589E+03  0.30000000000E+02 0. -1.
     200000    1    3    3    0    0  0.10627994031E+03  0.18433016877E+03 -0.28889645441E+03  0.37274012154E+03  0.10100000000E+03 0.  1.
    -200001    1    1    2    0    0  0.23673289177E+03 -0.34273413682E+03 -0.51658755348E+03  0.90340514223E+03  0.61300000000E+03 0.  1.
<mgrwt>
<rscale>  0 0.14974071E+04</rscale>
<asrwt>0</asrwt>
<pdfrwt beam="1">  1        2 0.64597513E-01 0.14974071E+04</pdfrwt>
<pdfrwt beam="2">  1       -2 0.17709565E+00 0.14974071E+04</pdfrwt>
<totfact> 0.13836707E+01</totfact>
</mgrwt>
</event>
<event>
 8    1  0.6972317E-052  0.1573717E+04  0.7818608E-02  0.8836859E-01
         -2   -1    0    0    0  501 -0.00000000000E+00  0.00000000000E+00  0.34771440322E+03  0.34771440323E+03  0.25500000000E-02 0. -1.
          2   -1    0    0  501    0  0.00000000000E+00 -0.00000000000E+00 -0.17806176536E+04  0.17806176536E+04  0.25500000000E-02 0.  1.
     200001    2    1    2    0    0 -0.22859533633E+03  0.26635037107E+03 -0.24752455943E+03  0.74844438426E+03  0.61294554476E+03 0.  0.
    5000001    2    3    3    0    0 -0.41061895673E+03  0.17583717772E+03 -0.75749120320E+02  0.46378135885E+03  0.99139189522E+02 0.  0.
        -11    1    4    4    0    0 -0.24232281183E+03  0.58827088369E+02 -0.25851943339E+02  0.25069761553E+03  0.51100000000E-03 0. -1.
     200002    1    4    4    0    0 -0.16829614490E+03  0.11701008936E+03 -0.49897176980E+02  0.21308374333E+03  0.30000000000E+02 0. -1.
     200000    1    3    3    0    0  0.18202362039E+03  0.90513193342E+02 -0.17177543912E+03  0.28466302541E+03  0.10100000000E+03 0.  1.
    -200001    1    1    2    0    0  0.22859533633E+03 -0.26635037107E+03 -0.11853786909E+04  0.13798876726E+04  0.61300000000E+03 0.  1.
<mgrwt>
<rscale>  0 0.15737171E+04</rscale>
<asrwt>0</asrwt>
<pdfrwt beam="1">  1        2 0.25437394E+00 0.15737171E+04</pdfrwt>
<pdfrwt beam="2">  1       -2 0.49673487E-01 0.15737171E+04</pdfrwt>
<totfact> 0.38444281E+01</totfact>
</mgrwt>
</event>
<event>
 8    1  0.6972317E-052  0.1695105E+04  0.7818608E-02  0.8764161E-01
          2   -1    0    0  501    0  0.00000000000E+00  0.00000000000E+00  0.19433192625E+04  0.19433192625E+04  0.25500000000E-02 0.  1.
         -2   -1    0    0    0  501 -0.00000000000E+00 -0.00000000000E+00 -0.36964855421E+03  0.36964855422E+03  0.25500000000E-02 0. -1.
     200001    2    1    2    0    0 -0.13733056047E+03 -0.51616082602E+03  0.11173466707E+04  0.13806147139E+04  0.61020629663E+03 0.  0.
    5000001    2    3    3    0    0 -0.73787993955E+02 -0.32132839423E+01  0.70218801237E+03  0.71001009842E+03  0.74775275923E+02 0.  0.
        -11    1    4    4    0    0 -0.25494024573E+02 -0.29290141025E+02  0.18344913577E+03  0.18751384767E+03  0.51100000000E-03 0. -1.
     200002    1    4    4    0    0 -0.48293969382E+02  0.26076857083E+02  0.51873887660E+03  0.52249625075E+03  0.30000000000E+02 0. -1.
     200000    1    3    3    0    0 -0.63542566520E+02 -0.51294754207E+03  0.41515865837E+03  0.67060461548E+03  0.10100000000E+03 0. -1.
    -200001    1    1    2    0    0  0.13733056047E+03  0.51616082602E+03  0.45632403758E+03  0.93235310287E+03  0.61300000000E+03 0. -1.
<mgrwt>
<rscale>  0 0.16951049E+04</rscale>
<asrwt>0</asrwt>
<pdfrwt beam="1">  1        2 0.27761704E+00 0.16951049E+04</pdfrwt>
<pdfrwt beam="2">  1       -2 0.52806936E-01 0.16951049E+04</pdfrwt>
<totfact> 0.27695670E+01</totfact>
</mgrwt>
</event>
<event>
 8    1  0.6972317E-052  0.1731119E+04  0.7818608E-02  0.8743812E-01
         -2   -1    0    0    0  501 -0.00000000000E+00  0.00000000000E+00  0.58901150681E+03  0.58901150681E+03  0.25500000000E-02 0. -1.
          2   -1    0    0  501    0  0.00000000000E+00 -0.00000000000E+00 -0.12719502543E+04  0.12719502543E+04  0.25500000000E-02 0.  1.
     200001    2    1    2    0    0  0.46486149003E+03 -0.19187326586E+03 -0.71442546157E+03  0.10674430353E+04  0.61328569064E+03 0.  0.
    5000001    2    3    3    0    0  0.17786695200E+03 -0.36640987377E+03 -0.49648312106E+03  0.65449175951E+03  0.12637691861E+03 0.  0.
        -11    1    4    4    0    0  0.57245074846E+02 -0.24890577560E+03 -0.29890219401E+03  0.39315849896E+03  0.51100000000E-03 0. -1.
     200002    1    4    4    0    0  0.12062187715E+03 -0.11750409817E+03 -0.19758092705E+03  0.26133326055E+03  0.30000000000E+02 0. -1.
     200000    1    3    3    0    0  0.28699453804E+03  0.17453660791E+03 -0.21794234050E+03  0.41295127575E+03  0.10100000000E+03 0. -1.
    -200001    1    1    2    0    0 -0.46486149003E+03  0.19187326586E+03  0.31486714100E+02  0.79351872582E+03  0.61300000000E+03 0. -1.
<mgrwt>
<rscale>  0 0.17311191E+04</rscale>
<asrwt>0</asrwt>
<pdfrwt beam="1">  1        2 0.18170718E+00 0.17311191E+04</pdfrwt>
<pdfrwt beam="2">  1       -2 0.84144501E-01 0.17311191E+04</pdfrwt>
<totfact> 0.22843801E+01</totfact>
</mgrwt>
</event>
<event>
 8    1  0.6972317E-052  0.1505010E+04  0.7818608E-02  0.8881128E-01
         -2   -1    0    0    0  501 -0.00000000000E+00  0.00000000000E+00  0.18163323703E+03  0.18163323705E+03  0.25500000000E-02 0. -1.
          2   -1    0    0  501    0  0.00000000000E+00 -0.00000000000E+00 -0.31176239437E+04  0.31176239437E+04  0.25500000000E-02 0.  1.
     200001    2    1    2    0    0  0.37856947619E+03 -0.20423895413E+03 -0.16298861858E+04  0.17936986737E+04  0.61302329053E+03 0.  0.
    5000001    2    3    3    0    0  0.63494842082E+02  0.16385679632E+03 -0.81178533351E+03  0.83753105709E+03  0.10762062633E+03 0.  0.
        -11    1    4    4    0    0  0.15152726854E+02  0.14026608525E+03 -0.49008187865E+03  0.50998473269E+03  0.51100000000E-03 0. -1.
     200002    1    4    4    0    0  0.48342115228E+02  0.23590711078E+02 -0.32170345487E+03  0.32754632440E+03  0.30000000000E+02 0. -1.
     200000    1    3    3    0    0  0.31507463410E+03 -0.36809575046E+03 -0.81810085226E+03  0.95616761660E+03  0.10100000000E+03 0. -1.
    -200001    1    1    2    0    0 -0.37856947619E+03  0.20423895413E+03 -0.13061045209E+04  0.15055585070E+04  0.61300000000E+03 0. -1.
<mgrwt>
<rscale>  0 0.15050105E+04</rscale>
<asrwt>0</asrwt>
<pdfrwt beam="1">  1        2 0.44537482E+00 0.15050105E+04</pdfrwt>
<pdfrwt beam="2">  1       -2 0.25947607E-01 0.15050105E+04</pdfrwt>
<totfact> 0.26394324E+01</totfact>
</mgrwt>
</event>
<event>
 8    1  0.6972317E-052  0.1640313E+04  0.7818608E-02  0.8796158E-01
          2   -1    0    0  501    0  0.00000000000E+00  0.00000000000E+00  0.11524815481E+04  0.11524815481E+04  0.25500000000E-02 0. -1.
         -2   -1    0    0    0  501 -0.00000000000E+00 -0.00000000000E+00 -0.58365944385E+03  0.58365944386E+03  0.25500000000E-02 0.  1.
     200001    2    1    2    0    0 -0.15670839486E+03  0.12433595492E+03  0.82029953463E+03  0.10440233367E+04  0.61406550977E+03 0.  0.
    5000001    2    3    3    0    0 -0.89147600630E+02  0.30471752534E+03  0.19929066272E+03  0.38603018255E+03  0.92208831726E+02 0.  0.
        -11    1    4    4    0    0 -0.20123127393E+02  0.10641735393E+03  0.24148714465E+02  0.11096284911E+03  0.51100000000E-03 0. -1.
     200002    1    4    4    0    0 -0.69024473238E+02  0.19830017141E+03  0.17514194825E+03  0.27506733344E+03  0.30000000000E+02 0. -1.
     200000    1    3    3    0    0 -0.67560794229E+02 -0.18038157042E+03  0.62100887192E+03  0.65799315412E+03  0.10100000000E+03 0. -1.
    -200001    1    1    2    0    0  0.15670839486E+03 -0.12433595492E+03 -0.25147743042E+03  0.69211765526E+03  0.61300000000E+03 0.  1.
<mgrwt>
<rscale>  0 0.16403131E+04</rscale>
<asrwt>0</asrwt>
<pdfrwt beam="1">  1        2 0.16464022E+00 0.16403131E+04</pdfrwt>
<pdfrwt beam="2">  1       -2 0.83379921E-01 0.16403131E+04</pdfrwt>
<totfact> 0.27461022E+01</totfact>
</mgrwt>
</event>
<event>
 8    1  0.6972317E-052  0.1273460E+04  0.7818608E-02  0.9050881E-01
          2   -1    0    0  501    0  0.00000000000E+00  0.00000000000E+00  0.34802076822E+04  0.34802076822E+04  0.25500000000E-02 0.  1.
         -2   -1    0    0    0  501 -0.00000000000E+00 -0.00000000000E+00 -0.11649446878E+03  0.11649446881E+03  0.25500000000E-02 0. -1.
     200001    2    1    2    0    0  0.71246464973E+02  0.13814525440E+03  0.14931010201E+04  0.16220834162E+04  0.61452728402E+03 0.  0.
    5000001    2    3    3    0    0  0.25290347867E+03  0.14205759578E+03  0.34305855442E+03  0.45340328465E+03  0.61195071088E+02 0.  0.
        -11    1    4    4    0    0  0.99872618941E+01  0.10464325939E+02  0.38438950246E+02  0.41070675838E+02  0.51100000000E-03 0. -1.
     200002    1    4    4    0    0  0.24291621677E+03  0.13159326984E+03  0.30461960418E+03  0.41233260881E+03  0.30000000000E+02 0. -1.
     200000    1    3    3    0    0 -0.18165701369E+03 -0.39123413826E+01  0.11500424656E+04  0.11686801315E+04  0.10100000000E+03 0.  1.
    -200001    1    1    2    0    0 -0.71246464973E+02 -0.13814525440E+03  0.18706121934E+04  0.19746187349E+04  0.61300000000E+03 0. -1.
<mgrwt>
<rscale>  0 0.12734598E+04</rscale>
<asrwt>0</asrwt>
<pdfrwt beam="1">  1        2 0.49717259E+00 0.12734598E+04</pdfrwt>
<pdfrwt beam="2">  1       -2 0.16642065E-01 0.12734598E+04</pdfrwt>
<totfact> 0.36344546E+01</totfact>
</mgrwt>
</event>
<event>
 8    1  0.6972317E-052  0.1331612E+04  0.7818608E-02  0.9004866E-01
          2   -1    0    0  501    0  0.00000000000E+00  0.00000000000E+00  0.41356518617E+03  0.41356518618E+03  0.25500000000E-02 0. -1.
         -2   -1    0    0    0  501 -0.00000000000E+00 -0.00000000000E+00 -0.10718924675E+04  0.10718924675E+04  0.25500000000E-02 0.  1.
     200001    2    1    2    0    0 -0.91671254565E+00 -0.19766096380E+03 -0.51727439562E+03  0.82611281708E+03  0.61304069131E+03 0.  0.
    5000001    2    3    3    0    0 -0.14091539954E+03 -0.32409563532E+03 -0.21030152034E+03  0.45192208405E+03  0.18738118884E+03 0.  0.
        -11    1    4    4    0    0  0.25766724008E+02  0.62268690221E+00  0.61652661532E+01  0.26501364344E+02  0.51100000000E-03 0. -1.
     200002    1    4    4    0    0 -0.16668212355E+03 -0.32471832223E+03 -0.21646678649E+03  0.42542071970E+03  0.30000000000E+02 0. -1.
     200000    1    3    3    0    0  0.13999868699E+03  0.12643467153E+03 -0.30697287529E+03  0.37419073303E+03  0.10100000000E+03 0.  1.
    -200001    1    1    2    0    0  0.91671254565E+00  0.19766096380E+03 -0.14105288569E+03  0.65934483659E+03  0.61300000000E+03 0. -1.
<mgrwt>
<rscale>  0 0.13316117E+04</rscale>
<asrwt>0</asrwt>
<pdfrwt beam="1">  1        2 0.59080741E-01 0.13316117E+04</pdfrwt>
<pdfrwt beam="2">  1       -2 0.15312749E+00 0.13316117E+04</pdfrwt>
<totfact> 0.23116434E+01</totfact>
</mgrwt>
</event>
<event>
 8    1  0.6972317E-052  0.1609139E+04  0.7818608E-02  0.8814953E-01
         -2   -1    0    0    0  501 -0.00000000000E+00  0.00000000000E+00  0.62081972029E+03  0.62081972029E+03  0.25500000000E-02 0. -1.
          2   -1    0    0  501    0  0.00000000000E+00 -0.00000000000E+00 -0.10427058827E+04  0.10427058827E+04  0.25500000000E-02 0.  1.
     200001    2    1    2    0    0 -0.50532919899E+03 -0.11904219842E+03 -0.16572491495E+03  0.82036711903E+03  0.61319557907E+03 0.  0.
    5000001    2    3    3    0    0  0.30148808678E+02 -0.16627463910E+03 -0.18323684133E+03  0.27312378402E+03  0.11164521980E+03 0.  0.
        -11    1    4    4    0    0 -0.26958062848E+02 -0.80731840383E+01 -0.10137148294E+02  0.29911122159E+02  0.51100000000E-03 0. -1.
     200002    1    4    4    0    0  0.57106871527E+02 -0.15820145506E+03 -0.17309969304E+03  0.24321266186E+03  0.30000000000E+02 0. -1.
     200000    1    3    3    0    0 -0.53547800767E+03  0.47232440674E+02  0.17511926380E+02  0.54724333501E+03  0.10100000000E+03 0. -1.
    -200001    1    1    2    0    0  0.50532919899E+03  0.11904219842E+03 -0.25616124744E+03  0.84315848395E+03  0.61300000000E+03 0. -1.
<mgrwt>
<rscale>  0 0.16091394E+04</rscale>
<asrwt>0</asrwt>
<pdfrwt beam="1">  1        2 0.14895798E+00 0.16091394E+04</pdfrwt>
<pdfrwt beam="2">  1       -2 0.88688532E-01 0.16091394E+04</pdfrwt>
<totfact> 0.27769878E+01</totfact>
</mgrwt>
</event>
<event>
 8    1  0.6972317E-052  0.1284401E+04  0.7818608E-02  0.9042027E-01
          2   -1    0    0  501    0  0.00000000000E+00  0.00000000000E+00  0.21239805972E+04  0.21239805972E+04  0.25500000000E-02 0.  1.
         -2   -1    0    0    0  501 -0.00000000000E+00 -0.00000000000E+00 -0.19417397723E+03  0.19417397725E+03  0.25500000000E-02 0. -1.
     200001    2    1    2    0    0 -0.11385419643E+03 -0.14138587376E+03  0.10641753297E+04  0.12420322422E+04  0.61418418646E+03 0.  0.
    5000001    2    3    3    0    0  0.74580730795E+02 -0.33135732154E+03  0.54126389548E+03  0.64601693968E+03  0.94927982451E+02 0.  0.
        -11    1    4    4    0    0  0.27941625170E+02 -0.37663032262E+02  0.36602636139E+02  0.59489422496E+02  0.51100000000E-03 0. -1.
     200002    1    4    4    0    0  0.46639105625E+02 -0.29369428927E+03  0.50466125934E+03  0.58652751718E+03  0.30000000000E+02 0. -1.
     200000    1    3    3    0    0 -0.18843492723E+03  0.18997144778E+03  0.52291143424E+03  0.59601530251E+03  0.10100000000E+03 0.  1.
    -200001    1    1    2    0    0  0.11385419643E+03  0.14138587376E+03  0.86563129027E+03  0.10761223323E+04  0.61300000000E+03 0. -1.
<mgrwt>
<rscale>  0 0.12844014E+04</rscale>
<asrwt>0</asrwt>
<pdfrwt beam="1">  1        2 0.30342580E+00 0.12844014E+04</pdfrwt>
<pdfrwt beam="2">  1       -2 0.27739140E-01 0.12844014E+04</pdfrwt>
<totfact> 0.80673706E+01</totfact>
</mgrwt>
</event>
<event>
 8    1  0.6972317E-052  0.2174738E+04  0.7818608E-02  0.8529017E-01
         -2   -1    0    0    0  501 -0.00000000000E+00  0.00000000000E+00  0.70189216521E+03  0.70189216522E+03  0.25500000000E-02 0. -1.
          2   -1    0    0  501    0  0.00000000000E+00 -0.00000000000E+00 -0.16845490279E+04  0.16845490279E+04  0.25500000000E-02 0.  1.
     200001    2    1    2    0    0 -0.75234087014E+03  0.35866513337E+03 -0.85874179866E+03  0.13444328410E+04  0.61270280259E+03 0.  0.
    5000001    2    3    3    0    0 -0.42004642681E+03  0.49172079313E+03 -0.60316189743E+03  0.89316186740E+03  0.12532161747E+03 0.  0.
        -11    1    4    4    0    0 -0.19475073889E+03  0.27673748679E+03 -0.38024335385E+03  0.50901522083E+03  0.51100000000E-03 0. -1.
     200002    1    4    4    0    0 -0.22529568793E+03  0.21498330634E+03 -0.22291854357E+03  0.38414664657E+03  0.30000000000E+02 0.  1.
     200000    1    3    3    0    0 -0.33229444333E+03 -0.13305565975E+03 -0.25557990124E+03  0.45127097356E+03  0.10100000000E+03 0. -1.
    -200001    1    1    2    0    0  0.75234087014E+03 -0.35866513337E+03 -0.12391506398E+03  0.10420083521E+04  0.61300000000E+03 0.  1.
<mgrwt>
<rscale>  0 0.21747384E+04</rscale>
<asrwt>0</asrwt>
<pdfrwt beam="1">  1        2 0.24064986E+00 0.21747384E+04</pdfrwt>
<pdfrwt beam="2">  1       -2 0.10027031E+00 0.21747384E+04</pdfrwt>
<totfact> 0.88268605E+00</totfact>
</mgrwt>
</event>
<event>
 8    1  0.6972317E-052  0.1694912E+04  0.7818608E-02  0.8764272E-01
         -2   -1    0    0    0  501 -0.00000000000E+00  0.00000000000E+00  0.40378513864E+03  0.40378513864E+03  0.25500000000E-02 0. -1.
          2   -1    0    0  501    0  0.00000000000E+00 -0.00000000000E+00 -0.17786223390E+04  0.17786223390E+04  0.25500000000E-02 0.  1.
     200001    2    1    2    0    0 -0.35245172498E+03 -0.46019608307E+03 -0.58251202284E+03  0.10250178111E+04  0.61264884149E+03 0.  0.
    5000001    2    3    3    0    0 -0.43553200957E+03 -0.50780396074E+03 -0.57336853590E+03  0.88554219652E+03  0.88772236428E+02 0.  0.
        -11    1    4    4    0    0 -0.28448195691E+03 -0.30199101363E+03 -0.31341455804E+03  0.51995888425E+03  0.51100000000E-03 0. -1.
     200002    1    4    4    0    0 -0.15105005266E+03 -0.20581294711E+03 -0.25995397786E+03  0.36558331227E+03  0.30000000000E+02 0.  1.
     200000    1    3    3    0    0  0.83080284588E+02  0.47607877674E+02 -0.91434869372E+01  0.13947561456E+03  0.10100000000E+03 0. -1.
    -200001    1    1    2    0    0  0.35245172498E+03  0.46019608307E+03 -0.79232517753E+03  0.11573896666E+04  0.61300000000E+03 0.  1.
<mgrwt>
<rscale>  0 0.16949115E+04</rscale>
<asrwt>0</asrwt>
<pdfrwt beam="1">  1        2 0.25408890E+00 0.16949115E+04</pdfrwt>
<pdfrwt beam="2">  1       -2 0.57683592E-01 0.16949115E+04</pdfrwt>
<totfact> 0.28032225E+01</totfact>
</mgrwt>
</event>
<event>
 8    1  0.6972317E-052  0.1613518E+04  0.7818608E-02  0.8812286E-01
         -2   -1    0    0    0  501 -0.00000000000E+00  0.00000000000E+00  0.75671538759E+03  0.75671538759E+03  0.25500000000E-02 0. -1.
          2   -1    0    0  501    0  0.00000000000E+00 -0.00000000000E+00 -0.86011203880E+03  0.86011203881E+03  0.25500000000E-02 0.  1.
     200001    2    1    2    0    0  0.26978510399E+03  0.16689121089E+03  0.36676332034E+03  0.78168906813E+03  0.61309525155E+03 0.  0.
    5000001    2    3    3    0    0  0.42183876301E+03  0.29527077152E+02  0.12595479442E+03  0.44975689641E+03  0.87159998678E+02 0.  0.
        -11    1    4    4    0    0  0.23617946750E+03 -0.20722495130E+02  0.67777189714E+02  0.24658448880E+03  0.51100000000E-03 0. -1.
     200002    1    4    4    0    0  0.18565929552E+03  0.50249572282E+02  0.58177604703E+02  0.20317240761E+03  0.30000000000E+02 0. -1.
     200000    1    3    3    0    0 -0.15205365903E+03  0.13736413373E+03  0.24080852592E+03  0.33193217171E+03  0.10100000000E+03 0. -1.
    -200001    1    1    2    0    0 -0.26978510399E+03 -0.16689121089E+03 -0.47015997156E+03  0.83513835827E+03  0.61300000000E+03 0.  1.
<mgrwt>
<rscale>  0 0.16135179E+04</rscale>
<asrwt>0</asrwt>
<pdfrwt beam="1">  1        2 0.12287315E+00 0.16135179E+04</pdfrwt>
<pdfrwt beam="2">  1       -2 0.10810220E+00 0.16135179E+04</pdfrwt>
<totfact> 0.22745808E+01</totfact>
</mgrwt>
</event>
<event>
 8    1  0.6972317E-052  0.1983253E+04  0.7818608E-02  0.8614491E-01
          2   -1    0    0  501    0  0.00000000000E+00  0.00000000000E+00  0.22622996949E+04  0.22622996949E+04  0.25500000000E-02 0.  1.
         -2   -1    0    0    0  501 -0.00000000000E+00 -0.00000000000E+00 -0.43465628486E+03  0.43465628487E+03  0.25500000000E-02 0. -1.
     200001    2    1    2    0    0  0.41601240935E+03 -0.65927458026E+03  0.94881105115E+03  0.13718806567E+04  0.61164109444E+03 0.  0.
    5000001    2    3    3    0    0 -0.98617747782E+02 -0.33603977570E+03  0.48423002814E+03  0.60028395860E+03  0.56691443542E+02 0.  0.
        -11    1    4    4    0    0 -0.48544431268E+02 -0.17720633305E+03  0.28226867529E+03  0.33680001682E+03  0.51100000000E-03 0. -1.
     200002    1    4    4    0    0 -0.50073316514E+02 -0.15883344266E+03  0.20196135285E+03  0.26348394178E+03  0.30000000000E+02 0. -1.
     200000    1    3    3    0    0  0.51463015713E+03 -0.32323480456E+03  0.46458102301E+03  0.77159669805E+03  0.10100000000E+03 0. -1.
    -200001    1    1    2    0    0 -0.41601240935E+03  0.65927458026E+03  0.87883235889E+03  0.13250753231E+04  0.61300000000E+03 0.  1.
<mgrwt>
<rscale>  0 0.19832527E+04</rscale>
<asrwt>0</asrwt>
<pdfrwt beam="1">  1        2 0.32318568E+00 0.19832527E+04</pdfrwt>
<pdfrwt beam="2">  1       -2 0.62093754E-01 0.19832527E+04</pdfrwt>
<totfact> 0.13198367E+01</totfact>
</mgrwt>
</event>
<event>
 8    1  0.6972317E-052  0.1875080E+04  0.7818608E-02  0.8667361E-01
          2   -1    0    0  501    0  0.00000000000E+00  0.00000000000E+00  0.18933076213E+04  0.18933076213E+04  0.25500000000E-02 0.  1.
         -2   -1    0    0    0  501 -0.00000000000E+00 -0.00000000000E+00 -0.46425700477E+03  0.46425700477E+03  0.25500000000E-02 0. -1.
     200001    2    1    2    0    0  0.62541764539E+03 -0.28220978583E+03  0.94038450228E+03  0.13157617822E+04  0.61328334474E+03 0.  0.
    5000001    2    3    3    0    0  0.37091266337E+03 -0.42422285398E+03  0.78608812006E+03  0.97087213176E+03  0.84361899287E+02 0.  0.
        -11    1    4    4    0    0  0.38313065695E+02 -0.17549428762E+02  0.41842013184E+02  0.59385415048E+02  0.51100000000E-03 0. -1.
     200002    1    4    4    0    0  0.33259959767E+03 -0.40667342521E+03  0.74424610688E+03  0.91148671671E+03  0.30000000000E+02 0. -1.
     200000    1    3    3    0    0  0.25450498202E+03  0.14201306815E+03  0.15429638222E+03  0.34488965041E+03  0.10100000000E+03 0. -1.
    -200001    1    1    2    0    0 -0.62541764539E+03  0.28220978583E+03  0.48866611429E+03  0.10418028439E+04  0.61300000000E+03 0. -1.
<mgrwt>
<rscale>  0 0.18750801E+04</rscale>
<asrwt>0</asrwt>
<pdfrwt beam="1">  1        2 0.27047252E+00 0.18750801E+04</pdfrwt>
<pdfrwt beam="2">  1       -2 0.66322429E-01 0.18750801E+04</pdfrwt>
<totfact> 0.17921210E+01</totfact>
</mgrwt>
</event>
<event>
 8    1  0.6972317E-052  0.1311181E+04  0.7818608E-02  0.9020745E-01
          2   -1    0    0  501    0  0.00000000000E+00  0.00000000000E+00  0.62030788340E+03  0.62030788341E+03  0.25500000000E-02 0.  1.
         -2   -1    0    0    0  501 -0.00000000000E+00 -0.00000000000E+00 -0.69287987983E+03  0.69287987984E+03  0.25500000000E-02 0. -1.
     200001    2    1    2    0    0 -0.12681883910E+03 -0.12067510936E+03 -0.18713498000E+03  0.66546932351E+03  0.61415341717E+03 0.  0.
    5000001    2    3    3    0    0 -0.31867649548E+03 -0.18106891255E+03 -0.22070999874E+03  0.43790602757E+03  0.93317338000E+02 0.  0.
        -11    1    4    4    0    0 -0.51843646906E+02 -0.25266017281E+02 -0.11788060815E+01  0.57684702806E+02  0.51100000000E-03 0. -1.
     200002    1    4    4    0    0 -0.26683284857E+03 -0.15580289527E+03 -0.21953119266E+03  0.38022132476E+03  0.30000000000E+02 0. -1.
     200000    1    3    3    0    0  0.19185765638E+03  0.60393803188E+02  0.33575018740E+02  0.22756329594E+03  0.10100000000E+03 0. -1.
    -200001    1    1    2    0    0  0.12681883910E+03  0.12067510936E+03  0.11456298357E+03  0.64771843974E+03  0.61300000000E+03 0.  1.
<mgrwt>
<rscale>  0 0.13111809E+04</rscale>
<asrwt>0</asrwt>
<pdfrwt beam="1">  1        2 0.88615412E-01 0.13111809E+04</pdfrwt>
<pdfrwt beam="2">  1       -2 0.98982840E-01 0.13111809E+04</pdfrwt>
<totfact> 0.43289474E+01</totfact>
</mgrwt>
</event>
<event>
 8    1  0.6972317E-052  0.1588872E+04  0.7818608E-02  0.8827414E-01
         -2   -1    0    0    0  501 -0.00000000000E+00  0.00000000000E+00  0.64165989538E+03  0.64165989539E+03  0.25500000000E-02 0. -1.
          2   -1    0    0  501    0  0.00000000000E+00 -0.00000000000E+00 -0.98358744744E+03  0.98358744744E+03  0.25500000000E-02 0.  1.
     200001    2    1    2    0    0 -0.28918547378E+03  0.40140080532E+03 -0.27712674780E+03  0.83485567473E+03  0.61272662626E+03 0.  0.
    5000001    2    3    3    0    0  0.88124817990E+01 -0.83183347683E+02  0.98511855598E+02  0.14570406352E+03  0.67290112699E+02 0.  0.
        -11    1    4    4    0    0 -0.86751585439E+01  0.35909356861E+01  0.25279168715E+02  0.26966452604E+02  0.51100000000E-03 0. -1.
     200002    1    4    4    0    0  0.17487640343E+02 -0.86774283369E+02  0.73232686883E+02  0.11873761092E+03  0.30000000000E+02 0. -1.
     200000    1    3    3    0    0 -0.29799795558E+03  0.48458415300E+03 -0.37563860340E+03  0.68915161121E+03  0.10100000000E+03 0.  1.
    -200001    1    1    2    0    0  0.28918547378E+03 -0.40140080532E+03 -0.64800804257E+02  0.79039166809E+03  0.61300000000E+03 0. -1.
<mgrwt>
<rscale>  0 0.15888721E+04</rscale>
<asrwt>0</asrwt>
<pdfrwt beam="1">  1        2 0.14051249E+00 0.15888721E+04</pdfrwt>
<pdfrwt beam="2">  1       -2 0.91665700E-01 0.15888721E+04</pdfrwt>
<totfact> 0.28020840E+01</totfact>
</mgrwt>
</event>
<event>
 8    1  0.6972317E-052  0.1908112E+04  0.7818608E-02  0.8650829E-01
         -2   -1    0    0    0  501 -0.00000000000E+00  0.00000000000E+00  0.44738673077E+03  0.44738673078E+03  0.25500000000E-02 0. -1.
          2   -1    0    0  501    0  0.00000000000E+00 -0.00000000000E+00 -0.20345326471E+04  0.20345326471E+04  0.25500000000E-02 0.  1.
     200001    2    1    2    0    0  0.58414428777E+02  0.41943857091E+03 -0.19282979052E+02  0.74603224147E+03  0.61388216441E+03 0.  0.
    5000001    2    3    3    0    0  0.18936103114E+03  0.58993311978E+02 -0.21190511938E+03  0.30515574369E+03  0.94225460004E+02 0.  0.
        -11    1    4    4    0    0  0.39295078314E+02 -0.15760927948E+02 -0.15252907780E+02  0.45001791359E+02  0.51100000000E-03 0. -1.
     200002    1    4    4    0    0  0.15006595283E+03  0.74754239927E+02 -0.19665221160E+03  0.26015395233E+03  0.30000000000E+02 0. -1.
     200000    1    3    3    0    0 -0.13094660237E+03  0.36044525893E+03  0.19262214033E+03  0.44087649779E+03  0.10100000000E+03 0. -1.
    -200001    1    1    2    0    0 -0.58414428777E+02 -0.41943857091E+03 -0.15678629373E+04  0.17358871364E+04  0.61300000000E+03 0.  1.
<mgrwt>
<rscale>  0 0.19081121E+04</rscale>
<asrwt>0</asrwt>
<pdfrwt beam="1">  1        2 0.29064752E+00 0.19081121E+04</pdfrwt>
<pdfrwt beam="2">  1       -2 0.63912391E-01 0.19081121E+04</pdfrwt>
<totfact> 0.16368986E+01</totfact>
</mgrwt>
</event>
<event>
 8    1  0.6972317E-052  0.1250184E+04  0.7818608E-02  0.9070030E-01
         -2   -1    0    0    0  501 -0.00000000000E+00  0.00000000000E+00  0.98504212233E+03  0.98504212234E+03  0.25500000000E-02 0. -1.
          2   -1    0    0  501    0  0.00000000000E+00 -0.00000000000E+00 -0.39667357882E+03  0.39667357883E+03  0.25500000000E-02 0.  1.
     200001    2    1    2    0    0 -0.19965139398E+02  0.63603189714E+02  0.18155076108E+03  0.64299134077E+03  0.61321547023E+03 0.  0.
    5000001    2    3    3    0    0  0.38908882902E+02  0.25271888852E+03  0.28977623975E+03  0.39571689351E+03  0.85093201285E+02 0.  0.
        -11    1    4    4    0    0  0.19514134981E+02  0.20068104523E+03  0.18636607203E+03  0.27456510373E+03  0.51100000000E-03 0. -1.
     200002    1    4    4    0    0  0.19394747921E+02  0.52037843285E+02  0.10341016772E+03  0.12115178978E+03  0.30000000000E+02 0.  1.
     200000    1    3    3    0    0 -0.58874022301E+02 -0.18911569881E+03 -0.10822547867E+03  0.24727444726E+03  0.10100000000E+03 0.  1.
    -200001    1    1    2    0    0  0.19965139398E+02 -0.63603189714E+02  0.40681778244E+03  0.73872436039E+03  0.61300000000E+03 0. -1.
<mgrwt>
<rscale>  0 0.12501843E+04</rscale>
<asrwt>0</asrwt>
<pdfrwt beam="1">  1        2 0.56667654E-01 0.12501843E+04</pdfrwt>
<pdfrwt beam="2">  1       -2 0.14072030E+00 0.12501843E+04</pdfrwt>
<totfact> 0.30438676E+01</totfact>
</mgrwt>
</event>
<event>
 8    1  0.6972317E-052  0.2087439E+04  0.7818608E-02  0.8566797E-01
         -2   -1    0    0    0  501 -0.00000000000E+00  0.00000000000E+00  0.34956300198E+03  0.34956300199E+03  0.25500000000E-02 0. -1.
          2   -1    0    0  501    0  0.00000000000E+00 -0.00000000000E+00 -0.31163210224E+04  0.31163210224E+04  0.25500000000E-02 0.  1.
     200001    2    1    2    0    0 -0.39780335161E+03 -0.49047517796E+03 -0.45207562068E+03  0.98952843231E+03  0.61317268757E+03 0.  0.
    5000001    2    3    3    0    0  0.19080364885E+02  0.35902401979E+02 -0.27201633838E+03  0.28704161045E+03  0.82139850222E+02 0.  0.
        -11    1    4    4    0    0 -0.26392094296E+02  0.78847837482E+01 -0.54524170898E+02  0.61086804373E+02  0.51100000000E-03 0. -1.
     200002    1    4    4    0    0  0.45472459181E+02  0.28017618231E+02 -0.21749216748E+03  0.22595480608E+03  0.30000000000E+02 0. -1.
     200000    1    3    3    0    0 -0.41688371649E+03 -0.52637757994E+03 -0.18005928230E+03  0.70248682186E+03  0.10100000000E+03 0. -1.
    -200001    1    1    2    0    0  0.39780335161E+03  0.49047517796E+03 -0.23146823998E+04  0.24763555921E+04  0.61300000000E+03 0.  1.
<mgrwt>
<rscale>  0 0.20874391E+04</rscale>
<asrwt>0</asrwt>
<pdfrwt beam="1">  1        2 0.44518870E+00 0.20874391E+04</pdfrwt>
<pdfrwt beam="2">  1       -2 0.49937574E-01 0.20874391E+04</pdfrwt>
<totfact> 0.71284600E+00</totfact>
</mgrwt>
</event>
<event>
 8    1  0.6972317E-052  0.1796553E+04  0.7818608E-02  0.8708135E-01
         -2   -1    0    0    0  501 -0.00000000000E+00  0.00000000000E+00  0.28058826904E+03  0.28058826905E+03  0.25500000000E-02 0. -1.
          2   -1    0    0  501    0  0.00000000000E+00 -0.00000000000E+00 -0.28757472484E+04  0.28757472484E+04  0.25500000000E-02 0.  1.
     200001    2    1    2    0    0  0.27333617670E+03  0.33315900214E+03 -0.21668941758E+04  0.22932669639E+04  0.61476451772E+03 0.  0.
    5000001    2    3    3    0    0  0.30883045312E+02  0.44802037104E+03 -0.11404792593E+04  0.12275722441E+04  0.67562254090E+02 0.  0.
        -11    1    4    4    0    0  0.13721603437E+02  0.31300959541E+03 -0.74248291589E+03  0.80588098973E+03  0.51100000000E-03 0. -1.
     200002    1    4    4    0    0  0.17161441875E+02  0.13501077562E+03 -0.39799634343E+03  0.42169125436E+03  0.30000000000E+02 0. -1.
     200000    1    3    3    0    0  0.24245313138E+03 -0.11486136890E+03 -0.10264149165E+04  0.10656947198E+04  0.10100000000E+03 0.  1.
    -200001    1    1    2    0    0 -0.27333617670E+03 -0.33315900214E+03 -0.42826480354E+03  0.86306855356E+03  0.61300000000E+03 0. -1.
<mgrwt>
<rscale>  0 0.17965533E+04</rscale>
<asrwt>0</asrwt>
<pdfrwt beam="1">  1        2 0.41082102E+00 0.17965533E+04</pdfrwt>
<pdfrwt beam="2">  1       -2 0.40084040E-01 0.17965533E+04</pdfrwt>
<totfact> 0.15448321E+01</totfact>
</mgrwt>
</event>
<event>
 8    1  0.6972317E-052  0.1318295E+04  0.7818608E-02  0.9015181E-01
         -2   -1    0    0    0  501 -0.00000000000E+00  0.00000000000E+00  0.24804791463E+03  0.24804791464E+03  0.25500000000E-02 0. -1.
          2   -1    0    0  501    0  0.00000000000E+00 -0.00000000000E+00 -0.17515792539E+04  0.17515792539E+04  0.25500000000E-02 0.  1.
     200001    2    1    2    0    0  0.18450590748E+02  0.10958938945E+03 -0.10783765680E+04  0.12453885869E+04  0.61298160763E+03 0.  0.
    5000001    2    3    3    0    0 -0.87147454607E+02 -0.21018880483E+03 -0.25574730030E+03  0.35077752456E+03  0.76577918498E+02 0.  0.
        -11    1    4    4    0    0 -0.36461615976E+01 -0.46817046585E+02 -0.21297524889E+02  0.51562727934E+02  0.51100000000E-03 0. -1.
     200002    1    4    4    0    0 -0.83501293009E+02 -0.16337175825E+03 -0.23444977542E+03  0.29921479662E+03  0.30000000000E+02 0. -1.
     200000    1    3    3    0    0  0.10559804536E+03  0.31977819428E+03 -0.82262926773E+03  0.89461106234E+03  0.10100000000E+03 0. -1.
    -200001    1    1    2    0    0 -0.18450590748E+02 -0.10958938945E+03 -0.42515477127E+03  0.75423858169E+03  0.61300000000E+03 0. -1.
<mgrwt>
<rscale>  0 0.13182952E+04</rscale>
<asrwt>0</asrwt>
<pdfrwt beam="1">  1        2 0.25022560E+00 0.13182952E+04</pdfrwt>
<pdfrwt beam="2">  1       -2 0.35435417E-01 0.13182952E+04</pdfrwt>
<totfact> 0.78983724E+01</totfact>
</mgrwt>
</event>
<event>
 8    1  0.6972317E-052  0.1562504E+04  0.7818608E-02  0.8843920E-01
          2   -1    0    0  501    0  0.00000000000E+00  0.00000000000E+00  0.25235543877E+04  0.25235543877E+04  0.25500000000E-02 0.  1.
         -2   -1    0    0    0  501 -0.00000000000E+00 -0.00000000000E+00 -0.24186315670E+03  0.24186315672E+03  0.25500000000E-02 0. -1.
     200001    2    1    2    0    0 -0.17738958577E+03 -0.18626451718E+03  0.41813116794E+03  0.78683556630E+03  0.61491056203E+03 0.  0.
    5000001    2    3    3    0    0  0.18703395197E+02  0.17692099968E+03  0.23869424811E+03  0.32558207305E+03  0.13182520658E+03 0.  0.
        -11    1    4    4    0    0 -0.15922515777E+02  0.28689141124E+02  0.13509523630E+03  0.13902271828E+03  0.51100000000E-03 0. -1.
     200002    1    4    4    0    0  0.34625910974E+02  0.14823185856E+03  0.10359901181E+03  0.18655935477E+03  0.30000000000E+02 0. -1.
     200000    1    3    3    0    0 -0.19609298096E+03 -0.36318551686E+03  0.17943691983E+03  0.46125349325E+03  0.10100000000E+03 0. -1.
    -200001    1    1    2    0    0  0.17738958577E+03  0.18626451718E+03  0.18635600631E+04  0.19785819782E+04  0.61300000000E+03 0.  1.
<mgrwt>
<rscale>  0 0.15625042E+04</rscale>
<asrwt>0</asrwt>
<pdfrwt beam="1">  1        2 0.36050776E+00 0.15625042E+04</pdfrwt>
<pdfrwt beam="2">  1       -2 0.34551880E-01 0.15625042E+04</pdfrwt>
<totfact> 0.32443951E+01</totfact>
</mgrwt>
</event>
<event>
 8    1  0.6972317E-052  0.2251694E+04  0.7818608E-02  0.8497215E-01
          2   -1    0    0  501    0  0.00000000000E+00  0.00000000000E+00  0.92313660651E+03  0.92313660651E+03  0.25500000000E-02 0.  1.
         -2   -1    0    0    0  501 -0.00000000000E+00 -0.00000000000E+00 -0.13730701255E+04  0.13730701255E+04  0.25500000000E-02 0. -1.
     200001    2    1    2    0    0  0.53027566604E+03  0.68943312374E+03  0.15023546314E+03  0.10745348770E+04  0.61281660674E+03 0.  0.
    5000001    2    3    3    0    0  0.45311609494E+03  0.77024988109E+03  0.10803815450E+03  0.91811697354E+03  0.18074141604E+03 0.  0.
        -11    1    4    4    0    0  0.10477376045E+03  0.31319041929E+03 -0.11198709303E+02  0.33044090350E+03  0.51100000000E-03 0. -1.
     200002    1    4    4    0    0  0.34834233448E+03  0.45705946180E+03  0.11923686380E+03  0.58767607004E+03  0.30000000000E+02 0. -1.
     200000    1    3    3    0    0  0.77159571103E+02 -0.80816757345E+02  0.42197308642E+02  0.15641790351E+03  0.10100000000E+03 0. -1.
    -200001    1    1    2    0    0 -0.53027566604E+03 -0.68943312374E+03 -0.60016898213E+03  0.12216718550E+04  0.61300000000E+03 0. -1.
<mgrwt>
<rscale>  0 0.22516938E+04</rscale>
<asrwt>0</asrwt>
<pdfrwt beam="1">  1        2 0.13187666E+00 0.22516938E+04</pdfrwt>
<pdfrwt beam="2">  1       -2 0.19615287E+00 0.22516938E+04</pdfrwt>
<totfact> 0.40485627E+00</totfact>
</mgrwt>
</event>
<event>
 8    1  0.6972317E-052  0.1473582E+04  0.7818608E-02  0.8902213E-01
          2   -1    0    0  501    0  0.00000000000E+00  0.00000000000E+00  0.17191211310E+04  0.17191211310E+04  0.25500000000E-02 0.  1.
         -2   -1    0    0    0  501 -0.00000000000E+00 -0.00000000000E+00 -0.31577800748E+03  0.31577800749E+03  0.25500000000E-02 0. -1.
     200001    2    1    2    0    0 -0.37199483389E+03 -0.14340830219E+03  0.79971784603E+03  0.10867015994E+04  0.61840572055E+03 0.  0.
    5000001    2    3    3    0    0 -0.33138399263E+03 -0.92441436592E+02  0.84945683285E+02  0.36189327542E+03  0.73418008095E+02 0.  0.
        -11    1    4    4    0    0 -0.16756852538E+03 -0.69949287636E+02  0.24143255857E+02  0.18318026734E+03  0.51100000000E-03 0. -1.
     200002    1    4    4    0    0 -0.16381546725E+03 -0.22492148956E+02  0.60802427428E+02  0.17871300807E+03  0.30000000000E+02 0.  1.
     200000    1    3    3    0    0 -0.40610841254E+02 -0.50966865594E+02  0.71477216275E+03  0.72480832394E+03  0.10100000000E+03 0.  1.
    -200001    1    1    2    0    0  0.37199483389E+03  0.14340830219E+03  0.60362527748E+03  0.94819753912E+03  0.61300000000E+03 0.  1.
<mgrwt>
<rscale>  0 0.14735815E+04</rscale>
<asrwt>0</asrwt>
<pdfrwt beam="1">  1        2 0.24558873E+00 0.14735815E+04</pdfrwt>
<pdfrwt beam="2">  1       -2 0.45111144E-01 0.14735815E+04</pdfrwt>
<totfact> 0.50628555E+01</totfact>
</mgrwt>
</event>
<event>
 8    1  0.6972317E-052  0.1585391E+04  0.7818608E-02  0.8829573E-01
         -2   -1    0    0    0  501 -0.00000000000E+00  0.00000000000E+00  0.10629397035E+04  0.10629397035E+04  0.25500000000E-02 0. -1.
          2   -1    0    0  501    0  0.00000000000E+00 -0.00000000000E+00 -0.59115887754E+03  0.59115887755E+03  0.25500000000E-02 0.  1.
     200001    2    1    2    0    0  0.47415290778E+03  0.16508213031E+03  0.20906667971E+03  0.81931668600E+03  0.61277880650E+03 0.  0.
    5000001    2    3    3    0    0 -0.10091672723E+03  0.12511416925E+03  0.53865856009E+02  0.21384924782E+03  0.13035424491E+03 0.  0.
        -11    1    4    4    0    0  0.12176713449E+02  0.27640536980E+02 -0.27797468968E+02  0.41048397243E+02  0.51100000000E-03 0. -1.
     200002    1    4    4    0    0 -0.11309344068E+03  0.97473632266E+02  0.81663324977E+02  0.17280085057E+03  0.30000000000E+02 0. -1.
     200000    1    3    3    0    0  0.57506963501E+03  0.39967961060E+02  0.15520082370E+03  0.60546743819E+03  0.10100000000E+03 0.  1.
    -200001    1    1    2    0    0 -0.47415290778E+03 -0.16508213031E+03  0.26271414629E+03  0.83478189509E+03  0.61300000000E+03 0.  1.
<mgrwt>
<rscale>  0 0.15853911E+04</rscale>
<asrwt>0</asrwt>
<pdfrwt beam="1">  1        2 0.84451268E-01 0.15853911E+04</pdfrwt>
<pdfrwt beam="2">  1       -2 0.15184853E+00 0.15853911E+04</pdfrwt>
<totfact> 0.15401015E+01</totfact>
</mgrwt>
</event>
<event>
 8    1  0.6972317E-052  0.1461295E+04  0.7818608E-02  0.8910607E-01
         -2   -1    0    0    0  501 -0.00000000000E+00  0.00000000000E+00  0.42475620977E+03  0.42475620978E+03  0.25500000000E-02 0. -1.
          2   -1    0    0  501    0  0.00000000000E+00 -0.00000000000E+00 -0.12568288584E+04  0.12568288584E+04  0.25500000000E-02 0.  1.
     200001    2    1    2    0    0 -0.36941833654E+03 -0.13882605403E+03 -0.35837594836E+03  0.81215988770E+03  0.61272161882E+03 0.  0.
    5000001    2    3    3    0    0 -0.13250935917E+03 -0.20558421458E+03  0.10135701554E+03  0.28099332846E+03  0.94129732206E+02 0.  0.
        -11    1    4    4    0    0 -0.54281542798E+02 -0.11379039690E+03  0.94634393176E+01  0.12642901961E+03  0.51100000000E-03 0. -1.
     200002    1    4    4    0    0 -0.78227816368E+02 -0.91793817683E+02  0.91893576222E+02  0.15456430885E+03  0.30000000000E+02 0. -1.
     200000    1    3    3    0    0 -0.23690897738E+03  0.66758160553E+02 -0.45973296390E+03  0.53116655924E+03  0.10100000000E+03 0.  1.
    -200001    1    1    2    0    0  0.36941833654E+03  0.13882605403E+03 -0.47369670031E+03  0.86942518053E+03  0.61300000000E+03 0.  1.
<mgrwt>
<rscale>  0 0.14612951E+04</rscale>
<asrwt>0</asrwt>
<pdfrwt beam="1">  1        2 0.17954698E+00 0.14612951E+04</pdfrwt>
<pdfrwt beam="2">  1       -2 0.60679459E-01 0.14612951E+04</pdfrwt>
<totfact> 0.48697171E+01</totfact>
</mgrwt>
</event>
<event>
 8    1  0.6972317E-052  0.1302628E+04  0.7818608E-02  0.9027483E-01
         -2   -1    0    0    0  501 -0.00000000000E+00  0.00000000000E+00  0.42326168777E+03  0.42326168778E+03  0.25500000000E-02 0. -1.
          2   -1    0    0  501    0  0.00000000000E+00 -0.00000000000E+00 -0.10022410478E+04  0.10022410478E+04  0.25500000000E-02 0.  1.
     200001    2    1    2    0    0  0.14223376856E+03 -0.10349822771E+02 -0.10512470257E+03  0.63769260609E+03  0.61258721258E+03 0.  0.
    5000001    2    3    3    0    0  0.26141060653E+03 -0.99393924362E+02 -0.27126497647E+03  0.39287520200E+03  0.50513161476E+02 0.  0.
        -11    1    4    4    0    0  0.15598650605E+03 -0.67961787203E+02 -0.16458177292E+03  0.23672294896E+03  0.51100000000E-03 0. -1.
     200002    1    4    4    0    0  0.10542410048E+03 -0.31432137159E+02 -0.10668320354E+03  0.15615225303E+03  0.30000000000E+02 0.  1.
     200000    1    3    3    0    0 -0.11917683797E+03  0.89044101591E+02  0.16614027389E+03  0.24481740409E+03  0.10100000000E+03 0. -1.
    -200001    1    1    2    0    0 -0.14223376856E+03  0.10349822771E+02 -0.47385465745E+03  0.78781012950E+03  0.61300000000E+03 0.  1.
<mgrwt>
<rscale>  0 0.13026285E+04</rscale>
<asrwt>0</asrwt>
<pdfrwt beam="1">  1        2 0.14317729E+00 0.13026285E+04</pdfrwt>
<pdfrwt beam="2">  1       -2 0.60465956E-01 0.13026285E+04</pdfrwt>
<totfact> 0.69969633E+01</totfact>
</mgrwt>
</event>
<event>
 8    1  0.6972317E-052  0.1486737E+04  0.7818608E-02  0.8893321E-01
         -2   -1    0    0    0  501 -0.00000000000E+00  0.00000000000E+00  0.11599885128E+04  0.11599885128E+04  0.25500000000E-02 0. -1.
          2   -1    0    0  501    0  0.00000000000E+00 -0.00000000000E+00 -0.47638126693E+03  0.47638126693E+03  0.25500000000E-02 0.  1.
     200001    2    1    2    0    0  0.41202144312E+03  0.28156969763E+02  0.25810565984E+03  0.78350690433E+03  0.61376709993E+03 0.  0.
    5000001    2    3    3    0    0 -0.17538735393E+02  0.20324419814E+02 -0.15900637146E+03  0.17624522889E+03  0.71124294449E+02 0.  0.
        -11    1    4    4    0    0 -0.79264751844E+01 -0.17937789478E+02 -0.17404928864E+02  0.26220695056E+02  0.51100000000E-03 0. -1.
     200002    1    4    4    0    0 -0.96122602088E+01  0.38262209292E+02 -0.14160144260E+03  0.15002453383E+03  0.30000000000E+02 0. -1.
     200000    1    3    3    0    0  0.42956017852E+03  0.78325499485E+01  0.41711203130E+03  0.60726167544E+03  0.10100000000E+03 0.  1.
    -200001    1    1    2    0    0 -0.41202144312E+03 -0.28156969763E+02  0.42550158605E+03  0.85286287542E+03  0.61300000000E+03 0.  1.
<mgrwt>
<rscale>  0 0.14867371E+04</rscale>
<asrwt>0</asrwt>
<pdfrwt beam="1">  1        2 0.68054467E-01 0.14867371E+04</pdfrwt>
<pdfrwt beam="2">  1       -2 0.16571264E+00 0.14867371E+04</pdfrwt>
<totfact> 0.15718532E+01</totfact>
</mgrwt>
</event>
<event>
 8    1  0.6972317E-052  0.1348851E+04  0.7818608E-02  0.8991698E-01
          2   -1    0    0  501    0  0.00000000000E+00  0.00000000000E+00  0.15978244004E+04  0.15978244004E+04  0.25500000000E-02 0.  1.
         -2   -1    0    0    0  501 -0.00000000000E+00 -0.00000000000E+00 -0.28466836734E+03  0.28466836736E+03  0.25500000000E-02 0. -1.
     200001    2    1    2    0    0  0.12711274069E+03 -0.24774158821E+03  0.58824668885E+03  0.89315152194E+03  0.61167959817E+03 0.  0.
    5000001    2    3    3    0    0  0.50147048154E+02 -0.21808655185E+03 -0.49918345907E+02  0.24180004186E+03  0.76804612151E+02 0.  0.
        -11    1    4    4    0    0  0.59928212162E+02 -0.14890165469E+03 -0.31754088166E+02  0.16361972832E+03  0.51100000000E-03 0. -1.
     200002    1    4    4    0    0 -0.97811640078E+01 -0.69184897167E+02 -0.18164257741E+02  0.78180313536E+02  0.30000000000E+02 0. -1.
     200000    1    3    3    0    0  0.76965692534E+02 -0.29655036357E+02  0.63816503476E+03  0.65135148008E+03  0.10100000000E+03 0.  1.
    -200001    1    1    2    0    0 -0.12711274069E+03  0.24774158821E+03  0.72490934422E+03  0.98934124583E+03  0.61300000000E+03 0.  1.
<mgrwt>
<rscale>  0 0.13488515E+04</rscale>
<asrwt>0</asrwt>
<pdfrwt beam="1">  1        2 0.22826062E+00 0.13488515E+04</pdfrwt>
<pdfrwt beam="2">  1       -2 0.40666911E-01 0.13488515E+04</pdfrwt>
<totfact> 0.72582160E+01</totfact>
</mgrwt>
</event>
<event>
 8    1  0.6972317E-052  0.1363391E+04  0.7818608E-02  0.8980753E-01
          2   -1    0    0  501    0  0.00000000000E+00  0.00000000000E+00  0.10686197580E+04  0.10686197580E+04  0.25500000000E-02 0.  1.
         -2   -1    0    0    0  501 -0.00000000000E+00 -0.00000000000E+00 -0.43486840012E+03  0.43486840012E+03  0.25500000000E-02 0. -1.
     200001    2    1    2    0    0  0.28723457888E+03  0.45512563037E+02  0.24648443122E+03  0.72225850610E+03  0.61345552251E+03 0.  0.
    5000001    2    3    3    0    0  0.25513904748E+02  0.17492222279E+03  0.17417256893E+03  0.40496593333E+03  0.32001965569E+03 0.  0.
        -11    1    4    4    0    0  0.12501630950E+02  0.23474135436E+03  0.19434915301E+02  0.23587604829E+03  0.51100000000E-03 0. -1.
     200002    1    4    4    0    0  0.13012273797E+02 -0.59819131570E+02  0.15473765363E+03  0.16908988504E+03  0.30000000000E+02 0. -1.
     200000    1    3    3    0    0  0.26172067414E+03 -0.12940965975E+03  0.72311862283E+02  0.31729257277E+03  0.10100000000E+03 0.  1.
    -200001    1    1    2    0    0 -0.28723457888E+03 -0.45512563037E+02  0.38726692665E+03  0.78122965201E+03  0.61300000000E+03 0.  1.
<mgrwt>
<rscale>  0 0.13633913E+04</rscale>
<asrwt>0</asrwt>
<pdfrwt beam="1">  1        2 0.15265996E+00 0.13633913E+04</pdfrwt>
<pdfrwt beam="2">  1       -2 0.62124058E-01 0.13633913E+04</pdfrwt>
<totfact> 0.59945117E+01</totfact>
</mgrwt>
</event>
<event>
 8    1  0.6972317E-052  0.1568077E+04  0.7818608E-02  0.8840403E-01
          2   -1    0    0  501    0  0.00000000000E+00  0.00000000000E+00  0.17099710120E+04  0.17099710120E+04  0.25500000000E-02 0.  1.
         -2   -1    0    0    0  501 -0.00000000000E+00 -0.00000000000E+00 -0.35948950796E+03  0.35948950797E+03  0.25500000000E-02 0. -1.
     200001    2    1    2    0    0  0.35664932338E+03 -0.30969056100E+03  0.50632643926E+03  0.92426457306E+03  0.61220221698E+03 0.  0.
    5000001    2    3    3    0    0  0.24558475602E+01  0.14582315844E+03  0.10063414166E+03  0.21171071035E+03  0.11586099295E+03 0.  0.
        -11    1    4    4    0    0 -0.36446688745E+02  0.78645408800E+01  0.71308444435E+01  0.37961310126E+02  0.51100000000E-03 0. -1.
     200002    1    4    4    0    0  0.38902536305E+02  0.13795861756E+03  0.93503297213E+02  0.17374940023E+03  0.30000000000E+02 0. -1.
     200000    1    3    3    0    0  0.35419347582E+03 -0.45551371944E+03  0.40569229760E+03  0.71255386270E+03  0.10100000000E+03 0.  1.
    -200001    1    1    2    0    0 -0.35664932338E+03  0.30969056100E+03  0.84415506476E+03  0.11451959469E+04  0.61300000000E+03 0.  1.
<mgrwt>
<rscale>  0 0.15680773E+04</rscale>
<asrwt>0</asrwt>
<pdfrwt beam="1">  1        2 0.24428157E+00 0.15680773E+04</pdfrwt>
<pdfrwt beam="2">  1       -2 0.51355644E-01 0.15680773E+04</pdfrwt>
<totfact> 0.39094160E+01</totfact>
</mgrwt>
</event>
<event>
 8    1  0.6972317E-052  0.1703965E+04  0.7818608E-02  0.8759106E-01
         -2   -1    0    0    0  501 -0.00000000000E+00  0.00000000000E+00  0.41374493140E+03  0.41374493141E+03  0.25500000000E-02 0. -1.
          2   -1    0    0  501    0  0.00000000000E+00 -0.00000000000E+00 -0.17543998226E+04  0.17543998226E+04  0.25500000000E-02 0.  1.
     200001    2    1    2    0    0  0.37395003406E+03 -0.18177567357E+03 -0.12045155783E+04  0.14150286036E+04  0.61527810553E+03 0.  0.
    5000001    2    3    3    0    0 -0.14199531341E+03 -0.14506046543E+03 -0.36612595530E+03  0.42475300153E+03  0.71844898981E+02 0.  0.
        -11    1    4    4    0    0 -0.66188128940E+02 -0.49244430687E+02 -0.94740014112E+02  0.12562464981E+03  0.51100000000E-03 0. -1.
     200002    1    4    4    0    0 -0.75807184465E+02 -0.95816034744E+02 -0.27138594118E+03  0.29912835172E+03  0.30000000000E+02 0. -1.
     200000    1    3    3    0    0  0.51594534746E+03 -0.36715208136E+02 -0.83838962301E+03  0.99027560206E+03  0.10100000000E+03 0.  1.
    -200001    1    1    2    0    0 -0.37395003406E+03  0.18177567357E+03 -0.13613931287E+03  0.75311615039E+03  0.61300000000E+03 0.  1.
<mgrwt>
<rscale>  0 0.17039648E+04</rscale>
<asrwt>0</asrwt>
<pdfrwt beam="1">  1        2 0.25062854E+00 0.17039648E+04</pdfrwt>
<pdfrwt beam="2">  1       -2 0.59106419E-01 0.17039648E+04</pdfrwt>
<totfact> 0.27394562E+01</totfact>
</mgrwt>
</event>
<event>
 8    1  0.6972317E-052  0.1570150E+04  0.7818608E-02  0.8839099E-01
          2   -1    0    0  501    0  0.00000000000E+00  0.00000000000E+00  0.80355393497E+03  0.80355393498E+03  0.25500000000E-02 0.  1.
         -2   -1    0    0    0  501 -0.00000000000E+00 -0.00000000000E+00 -0.76702122928E+03  0.76702122929E+03  0.25500000000E-02 0. -1.
     200001    2    1    2    0    0  0.34480467951E+02  0.46893662510E+03  0.15771902940E+03  0.78856136254E+03  0.61307688688E+03 0.  0.
    5000001    2    3    3    0    0  0.16613317192E+03 -0.31986968720E+02 -0.85633613044E+02  0.20746034732E+03  0.84162242389E+02 0.  0.
        -11    1    4    4    0    0  0.12296159517E+03 -0.27213884365E+02 -0.89546734419E+02  0.15452756076E+03  0.51100000000E-03 0. -1.
     200002    1    4    4    0    0  0.43171576757E+02 -0.47730843547E+01  0.39131213752E+01  0.52932786558E+02  0.30000000000E+02 0. -1.
     200000    1    3    3    0    0 -0.13165270397E+03  0.50092359382E+03  0.24335264245E+03  0.58110101522E+03  0.10100000000E+03 0.  1.
    -200001    1    1    2    0    0 -0.34480467951E+02 -0.46893662510E+03 -0.12118632372E+03  0.78201380172E+03  0.61300000000E+03 0. -1.
<mgrwt>
<rscale>  0 0.15701502E+04</rscale>
<asrwt>0</asrwt>
<pdfrwt beam="1">  1        2 0.11479342E+00 0.15701502E+04</pdfrwt>
<pdfrwt beam="2">  1       -2 0.10957446E+00 0.15701502E+04</pdfrwt>
<totfact> 0.24146988E+01</totfact>
</mgrwt>
</event>
<event>
 8    1  0.6972317E-052  0.1483036E+04  0.7818608E-02  0.8895813E-01
         -2   -1    0    0    0  501 -0.00000000000E+00  0.00000000000E+00  0.25211447832E+03  0.25211447833E+03  0.25500000000E-02 0. -1.
          2   -1    0    0  501    0  0.00000000000E+00 -0.00000000000E+00 -0.21809505247E+04  0.21809505247E+04  0.25500000000E-02 0.  1.
     200001    2    1    2    0    0  0.20881195505E+02  0.39044693834E+03 -0.72404195092E+03  0.10258753753E+04  0.61261627707E+03 0.  0.
    5000001    2    3    3    0    0 -0.29530969368E+02  0.13096283314E+03 -0.64108504473E+03  0.73099194831E+03  0.32455485223E+03 0.  0.
        -11    1    4    4    0    0  0.18951864901E+02  0.22071905443E+03 -0.54250383486E+03  0.58599188136E+03  0.51100000000E-03 0. -1.
     200002    1    4    4    0    0 -0.48482834268E+02 -0.89756221288E+02 -0.98581209865E+02  0.14500006696E+03  0.30000000000E+02 0. -1.
     200000    1    3    3    0    0  0.50412164872E+02  0.25948410520E+03 -0.82956906193E+02  0.29488342697E+03  0.10100000000E+03 0. -1.
    -200001    1    1    2    0    0 -0.20881195505E+02 -0.39044693834E+03 -0.12047940954E+04  0.14071896277E+04  0.61300000000E+03 0.  1.
<mgrwt>
<rscale>  0 0.14830363E+04</rscale>
<asrwt>0</asrwt>
<pdfrwt beam="1">  1        2 0.31156435E+00 0.14830363E+04</pdfrwt>
<pdfrwt beam="2">  1       -2 0.36016355E-01 0.14830363E+04</pdfrwt>
<totfact> 0.45463488E+01</totfact>
</mgrwt>
</event>
<event>
 8    1  0.6972317E-052  0.2296332E+04  0.7818608E-02  0.8479369E-01
          2   -1    0    0  501    0  0.00000000000E+00  0.00000000000E+00  0.22163374845E+04  0.22163374845E+04  0.25500000000E-02 0.  1.
         -2   -1    0    0    0  501 -0.00000000000E+00 -0.00000000000E+00 -0.59480339157E+03  0.59480339157E+03  0.25500000000E-02 0. -1.
     200001    2    1    2    0    0 -0.12947577745E+03 -0.82759201497E+03  0.14115862885E+04  0.17521226511E+04  0.61293181883E+03 0.  0.
    5000001    2    3    3    0    0  0.93140806145E+02 -0.23230115794E+03  0.84352872424E+03  0.89374060094E+03  0.15682000960E+03 0.  0.
        -11    1    4    4    0    0  0.11534838744E+03 -0.17174378115E+03  0.47029780844E+03  0.51379101342E+03  0.51100000000E-03 0. -1.
     200002    1    4    4    0    0 -0.22207581298E+02 -0.60557376790E+02  0.37323091580E+03  0.37994958753E+03  0.30000000000E+02 0. -1.
     200000    1    3    3    0    0 -0.22261658360E+03 -0.59529085703E+03  0.56805756421E+03  0.85838205015E+03  0.10100000000E+03 0.  1.
    -200001    1    1    2    0    0  0.12947577745E+03  0.82759201497E+03  0.20994780445E+03  0.10590182250E+04  0.61300000000E+03 0. -1.
<mgrwt>
<rscale>  0 0.22963319E+04</rscale>
<asrwt>0</asrwt>
<pdfrwt beam="1">  1        2 0.31661965E+00 0.22963319E+04</pdfrwt>
<pdfrwt beam="2">  1       -2 0.84971912E-01 0.22963319E+04</pdfrwt>
<totfact> 0.68156461E+00</totfact>
</mgrwt>
</event>
<event>
 8    1  0.6972317E-052  0.1334099E+04  0.7818608E-02  0.9002953E-01
          2   -1    0    0  501    0  0.00000000000E+00  0.00000000000E+00  0.15250425615E+04  0.15250425615E+04  0.25500000000E-02 0.  1.
         -2   -1    0    0    0  501 -0.00000000000E+00 -0.00000000000E+00 -0.29176557789E+03  0.29176557790E+03  0.25500000000E-02 0. -1.
     200001    2    1    2    0    0 -0.20568796627E+03 -0.79467577935E+02  0.81241674636E+03  0.10412341747E+04  0.61280094760E+03 0.  0.
    5000001    2    3    3    0    0 -0.13433332767E+03  0.23475552165E+03  0.53677247318E+03  0.60533463799E+03  0.71761675826E+02 0.  0.
        -11    1    4    4    0    0 -0.10502076323E+03  0.13602065497E+03  0.35113509754E+03  0.39093073045E+03  0.51100000000E-03 0. -1.
     200002    1    4    4    0    0 -0.29312564446E+02  0.98734866683E+02  0.18563737565E+03  0.21440390754E+03  0.30000000000E+02 0.  1.
     200000    1    3    3    0    0 -0.71354638600E+02 -0.31422309959E+03  0.27564427318E+03  0.43589953671E+03  0.10100000000E+03 0. -1.
    -200001    1    1    2    0    0  0.20568796627E+03  0.79467577935E+02  0.42086023723E+03  0.77557396468E+03  0.61300000000E+03 0. -1.
<mgrwt>
<rscale>  0 0.13340988E+04</rscale>
<asrwt>0</asrwt>
<pdfrwt beam="1">  1        2 0.21786323E+00 0.13340988E+04</pdfrwt>
<pdfrwt beam="2">  1       -2 0.41680796E-01 0.13340988E+04</pdfrwt>
<totfact> 0.75622052E+01</totfact>
</mgrwt>
</event>
<event>
 8    1  0.6972317E-052  0.1653042E+04  0.7818608E-02  0.8788609E-01
         -2   -1    0    0    0  501 -0.00000000000E+00  0.00000000000E+00  0.16721761759E+04  0.16721761759E+04  0.25500000000E-02 0. -1.
          2   -1    0    0  501    0  0.00000000000E+00 -0.00000000000E+00 -0.40853180474E+03  0.40853180475E+03  0.25500000000E-02 0.  1.
     200001    2    1    2    0    0 -0.53000880621E+03  0.17802681919E+03  0.63927529513E+03  0.10423397290E+04  0.60431475623E+03 0.  0.
    5000001    2    3    3    0    0 -0.17505620247E+03 -0.58006571737E+02  0.54178963049E+03  0.59355518450E+03  0.15736046822E+03 0.  0.
        -11    1    4    4    0    0 -0.10626285544E+02 -0.65391012400E+02  0.89788839568E+02  0.11158377193E+03  0.51100000000E-03 0. -1.
     200002    1    4    4    0    0 -0.16442991693E+03  0.73844406633E+01  0.45200079092E+03  0.48197141257E+03  0.30000000000E+02 0. -1.
     200000    1    3    3    0    0 -0.35495260374E+03  0.23603339093E+03  0.97485664636E+02  0.44878454446E+03  0.10100000000E+03 0.  1.
    -200001    1    1    2    0    0  0.53000880621E+03 -0.17802681919E+03  0.62436907602E+03  0.10383682517E+04  0.61300000000E+03 0.  1.
<mgrwt>
<rscale>  0 0.16530422E+04</rscale>
<asrwt>0</asrwt>
<pdfrwt beam="1">  1        2 0.58361685E-01 0.16530422E+04</pdfrwt>
<pdfrwt beam="2">  1       -2 0.23888232E+00 0.16530422E+04</pdfrwt>
<totfact> 0.60841272E+00</totfact>
</mgrwt>
</event>
<event>
 8    1  0.6972317E-052  0.1386964E+04  0.7818608E-02  0.8963309E-01
         -2   -1    0    0    0  501 -0.00000000000E+00  0.00000000000E+00  0.25572868193E+03  0.25572868194E+03  0.25500000000E-02 0. -1.
          2   -1    0    0  501    0  0.00000000000E+00 -0.00000000000E+00 -0.18805759709E+04  0.18805759709E+04  0.25500000000E-02 0.  1.
     200001    2    1    2    0    0 -0.73516033368E+02  0.27316189262E+03 -0.10574940865E+04  0.12544425984E+04  0.61262587519E+03 0.  0.
    5000001    2    3    3    0    0 -0.29325565563E+02  0.32303419495E+03 -0.10815994121E+04  0.11310646801E+04  0.65107161857E+02 0.  0.
        -11    1    4    4    0    0 -0.72357864071E+01  0.14561401573E+03 -0.56784211298E+03  0.58625972355E+03  0.51100000000E-03 0. -1.
     200002    1    4    4    0    0 -0.22089779156E+02  0.17742017922E+03 -0.51375729911E+03  0.54480495659E+03  0.30000000000E+02 0. -1.
     200000    1    3    3    0    0 -0.44190467806E+02 -0.49872302322E+02  0.24105325626E+02  0.12337791823E+03  0.10100000000E+03 0. -1.
    -200001    1    1    2    0    0  0.73516033368E+02 -0.27316189262E+03 -0.56735320255E+03  0.88186205451E+03  0.61300000000E+03 0. -1.
<mgrwt>
<rscale>  0 0.13869639E+04</rscale>
<asrwt>0</asrwt>
<pdfrwt beam="1">  1        2 0.26865370E+00 0.13869639E+04</pdfrwt>
<pdfrwt beam="2">  1       -2 0.36532670E-01 0.13869639E+04</pdfrwt>
<totfact> 0.63592856E+01</totfact>
</mgrwt>
</event>
<event>
 8    1  0.6972317E-052  0.1853722E+04  0.7818608E-02  0.8678241E-01
          2   -1    0    0  501    0  0.00000000000E+00  0.00000000000E+00  0.13526220885E+04  0.13526220885E+04  0.25500000000E-02 0.  1.
         -2   -1    0    0    0  501 -0.00000000000E+00 -0.00000000000E+00 -0.63511544228E+03  0.63511544229E+03  0.25500000000E-02 0. -1.
     200001    2    1    2    0    0  0.22400450047E+02 -0.25938229343E+03 -0.33302460332E+03  0.74388630957E+03  0.61211151013E+03 0.  0.
    5000001    2    3    3    0    0  0.18243581262E+03 -0.37713385933E+03 -0.29359832240E+03  0.51754104195E+03  0.78332506719E+02 0.  0.
        -11    1    4    4    0    0  0.62461815843E+02 -0.11383660391E+03 -0.53806471804E+02  0.14055385884E+03  0.51100000000E-03 0. -1.
     200002    1    4    4    0    0  0.11997399677E+03 -0.26329725543E+03 -0.23979185059E+03  0.37698718311E+03  0.30000000000E+02 0. -1.
     200000    1    3    3    0    0 -0.16003536257E+03  0.11775156590E+03 -0.39426280922E+02  0.22634526762E+03  0.10100000000E+03 0. -1.
    -200001    1    1    2    0    0 -0.22400450047E+02  0.25938229343E+03  0.10505312496E+04  0.12438512213E+04  0.61300000000E+03 0.  1.
<mgrwt>
<rscale>  0 0.18537219E+04</rscale>
<asrwt>0</asrwt>
<pdfrwt beam="1">  1        2 0.19323172E+00 0.18537219E+04</pdfrwt>
<pdfrwt beam="2">  1       -2 0.90730779E-01 0.18537219E+04</pdfrwt>
<totfact> 0.17181002E+01</totfact>
</mgrwt>
</event>
<event>
 8    1  0.6972317E-052  0.1333261E+04  0.7818608E-02  0.9003597E-01
         -2   -1    0    0    0  501 -0.00000000000E+00  0.00000000000E+00  0.14607831849E+03  0.14607831851E+03  0.25500000000E-02 0. -1.
          2   -1    0    0  501    0  0.00000000000E+00 -0.00000000000E+00 -0.30421787354E+04  0.30421787354E+04  0.25500000000E-02 0.  1.
     200001    2    1    2    0    0 -0.14653603432E+03  0.16539496738E+03 -0.11125037426E+04  0.12893588467E+04  0.61315035169E+03 0.  0.
    5000001    2    3    3    0    0 -0.37058078914E+03  0.11276130563E+03 -0.76992542726E+03  0.86447385447E+03  0.66967515970E+02 0.  0.
        -11    1    4    4    0    0 -0.15895106709E+03  0.39235946014E+02 -0.26891700559E+03  0.31483528564E+03  0.51100000000E-03 0. -1.
     200002    1    4    4    0    0 -0.21162972205E+03  0.73525359612E+02 -0.50100842167E+03  0.54963856883E+03  0.30000000000E+02 0.  1.
     200000    1    3    3    0    0  0.22404475483E+03  0.52633661754E+02 -0.34257831534E+03  0.42488499227E+03  0.10100000000E+03 0. -1.
    -200001    1    1    2    0    0  0.14653603432E+03 -0.16539496738E+03 -0.17835966743E+04  0.18988982072E+04  0.61300000000E+03 0.  1.
<mgrwt>
<rscale>  0 0.13332612E+04</rscale>
<asrwt>0</asrwt>
<pdfrwt beam="1">  1        2 0.43459692E+00 0.13332612E+04</pdfrwt>
<pdfrwt beam="2">  1       -2 0.20868333E-01 0.13332612E+04</pdfrwt>
<totfact> 0.43705442E+01</totfact>
</mgrwt>
</event>
<event>
 8    1  0.6972317E-052  0.1465697E+04  0.7818608E-02  0.8907590E-01
          2   -1    0    0  501    0  0.00000000000E+00  0.00000000000E+00  0.17821241414E+04  0.17821241414E+04  0.25500000000E-02 0.  1.
         -2   -1    0    0    0  501 -0.00000000000E+00 -0.00000000000E+00 -0.30136327310E+03  0.30136327311E+03  0.25500000000E-02 0. -1.
     200001    2    1    2    0    0 -0.19077096163E+03 -0.35220102267E+03  0.73193579414E+03  0.10361349849E+04  0.61433425752E+03 0.  0.
    5000001    2    3    3    0    0  0.63581184725E+02 -0.36816212184E+03  0.61990621931E+03  0.73999076886E+03  0.15400227999E+03 0.  0.
        -11    1    4    4    0    0 -0.24002760228E+02  0.49001790525E+00  0.37040105053E+02  0.44140027172E+02  0.51100000000E-03 0. -1.
     200002    1    4    4    0    0  0.87583944954E+02 -0.36865213975E+03  0.58286611425E+03  0.69585074168E+03  0.30000000000E+02 0. -1.
     200000    1    3    3    0    0 -0.25435214636E+03  0.15961099179E+02  0.11202957483E+03  0.29614421602E+03  0.10100000000E+03 0. -1.
    -200001    1    1    2    0    0  0.19077096163E+03  0.35220102267E+03  0.74882507412E+03  0.10473524296E+04  0.61300000000E+03 0.  1.
<mgrwt>
<rscale>  0 0.14656968E+04</rscale>
<asrwt>0</asrwt>
<pdfrwt beam="1">  1        2 0.25458916E+00 0.14656968E+04</pdfrwt>
<pdfrwt beam="2">  1       -2 0.43051897E-01 0.14656968E+04</pdfrwt>
<totfact> 0.51569513E+01</totfact>
</mgrwt>
</event>
<event>
 8    1  0.6972317E-052  0.1301040E+04  0.7818608E-02  0.9028741E-01
          2   -1    0    0  501    0  0.00000000000E+00  0.00000000000E+00  0.12319830205E+04  0.12319830205E+04  0.25500000000E-02 0.  1.
         -2   -1    0    0    0  501 -0.00000000000E+00 -0.00000000000E+00 -0.34349196527E+03  0.34349196528E+03  0.25500000000E-02 0. -1.
     200001    2    1    2    0    0  0.20227690396E+03 -0.75751168588E+02  0.42907783098E+03  0.77955809562E+03  0.61396160628E+03 0.  0.
    5000001    2    3    3    0    0  0.17888995059E+03 -0.26715849334E+03  0.45464217108E+03  0.56038179891E+03  0.62872743153E+02 0.  0.
        -11    1    4    4    0    0  0.71284541015E+02 -0.79937268789E+02  0.11850618365E+03  0.15973468093E+03  0.51100000000E-03 0. -1.
     200002    1    4    4    0    0  0.10760540957E+03 -0.18722122455E+03  0.33613598743E+03  0.40064711797E+03  0.30000000000E+02 0. -1.
     200000    1    3    3    0    0  0.23386953368E+02  0.19140732475E+03 -0.25564340102E+02  0.21917629671E+03  0.10100000000E+03 0. -1.
    -200001    1    1    2    0    0 -0.20227690396E+03  0.75751168588E+02  0.45941322424E+03  0.79591689015E+03  0.61300000000E+03 0. -1.
<mgrwt>
<rscale>  0 0.13010400E+04</rscale>
<asrwt>0</asrwt>
<pdfrwt beam="1">  1        2 0.17599758E+00 0.13010400E+04</pdfrwt>
<pdfrwt beam="2">  1       -2 0.49070280E-01 0.13010400E+04</pdfrwt>
<totfact> 0.79006891E+01</totfact>
</mgrwt>
</event>
<event>
 8    1  0.6972317E-052  0.1661682E+04  0.7818608E-02  0.8783525E-01
         -2   -1    0    0    0  501 -0.00000000000E+00  0.00000000000E+00  0.18173180180E+03  0.18173180182E+03  0.25500000000E-02 0. -1.
          2   -1    0    0  501    0  0.00000000000E+00 -0.00000000000E+00 -0.37984369135E+04  0.37984369135E+04  0.25500000000E-02 0.  1.
     200001    2    1    2    0    0  0.46331967042E+03  0.29316678145E+03 -0.20931560071E+04  0.22488158475E+04  0.61258368181E+03 0.  0.
    5000001    2    3    3    0    0  0.18340501067E+03  0.42125151239E+02 -0.12243960154E+03  0.24001066334E+03  0.84863043673E+02 0.  0.
        -11    1    4    4    0    0  0.16198891886E+03  0.42885097600E+02 -0.11248487715E+03  0.20182266725E+03  0.51100000000E-03 0. -1.
     200002    1    4    4    0    0  0.21416091813E+02 -0.75994636139E+00 -0.99547243962E+01  0.38187996083E+02  0.30000000000E+02 0. -1.
     200000    1    3    3    0    0  0.27991465975E+03  0.25104163021E+03 -0.19707164056E+04  0.20088051842E+04  0.10100000000E+03 0.  1.
    -200001    1    1    2    0    0 -0.46331967042E+03 -0.29316678145E+03 -0.15235491046E+04  0.17313528678E+04  0.61300000000E+03 0.  1.
<mgrwt>
<rscale>  0 0.16616820E+04</rscale>
<asrwt>0</asrwt>
<pdfrwt beam="1">  1        2 0.54263380E+00 0.16616820E+04</pdfrwt>
<pdfrwt beam="2">  1       -2 0.25961688E-01 0.16616820E+04</pdfrwt>
<totfact> 0.10071641E+01</totfact>
</mgrwt>
</event>
<event>
 8    1  0.6972317E-052  0.1356786E+04  0.7818608E-02  0.8985707E-01
         -2   -1    0    0    0  501 -0.00000000000E+00  0.00000000000E+00  0.34444305475E+03  0.34444305476E+03  0.25500000000E-02 0. -1.
          2   -1    0    0  501    0  0.00000000000E+00 -0.00000000000E+00 -0.13361200297E+04  0.13361200297E+04  0.25500000000E-02 0.  1.
     200001    2    1    2    0    0  0.11802359673E+03  0.18808951276E+02 -0.16801370713E+03  0.64689315417E+03  0.61315479374E+03 0.  0.
    5000001    2    3    3    0    0  0.11080433272E+03 -0.27608366717E+03 -0.12340001609E+03  0.33192465476E+03  0.80290852788E+02 0.  0.
        -11    1    4    4    0    0 -0.23039349781E+00 -0.34856878056E+02  0.53811328175E+01  0.35270548899E+02  0.51100000000E-03 0. -1.
     200002    1    4    4    0    0  0.11103472621E+03 -0.24122678911E+03 -0.12878114891E+03  0.29665410587E+03  0.30000000000E+02 0. -1.
     200000    1    3    3    0    0  0.72192640141E+01  0.29489261845E+03 -0.44613691033E+02  0.31496849940E+03  0.10100000000E+03 0.  1.
    -200001    1    1    2    0    0 -0.11802359673E+03 -0.18808951276E+02 -0.82366326778E+03  0.10336699303E+04  0.61300000000E+03 0.  1.
<mgrwt>
<rscale>  0 0.13567863E+04</rscale>
<asrwt>0</asrwt>
<pdfrwt beam="1">  1        2 0.19087429E+00 0.13567863E+04</pdfrwt>
<pdfrwt beam="2">  1       -2 0.49206151E-01 0.13567863E+04</pdfrwt>
<totfact> 0.68481074E+01</totfact>
</mgrwt>
</event>
<event>
 8    1  0.6972317E-052  0.1745638E+04  0.7818608E-02  0.8735755E-01
         -2   -1    0    0    0  501 -0.00000000000E+00  0.00000000000E+00  0.39005104295E+03  0.39005104296E+03  0.25500000000E-02 0. -1.
          2   -1    0    0  501    0  0.00000000000E+00 -0.00000000000E+00 -0.19531117320E+04  0.19531117320E+04  0.25500000000E-02 0.  1.
     200001    2    1    2    0    0 -0.35794159565E+03 -0.66335630807E+02 -0.14570005568E+04  0.16223712979E+04  0.61377145901E+03 0.  0.
    5000001    2    3    3    0    0 -0.47666340262E+03 -0.14495860514E+03 -0.88261098680E+03  0.10220373761E+04  0.13167098201E+03 0.  0.
        -11    1    4    4    0    0 -0.28707347759E+03 -0.25461871678E+02 -0.52623565878E+03  0.59998621402E+03  0.51100000000E-03 0. -1.
     200002    1    4    4    0    0 -0.18958992503E+03 -0.11949673346E+03 -0.35637532802E+03  0.42205116206E+03  0.30000000000E+02 0. -1.
     200000    1    3    3    0    0  0.11872180697E+03  0.78622974334E+02 -0.57438957000E+03  0.60033392180E+03  0.10100000000E+03 0.  1.
    -200001    1    1    2    0    0  0.35794159565E+03  0.66335630807E+02 -0.10606013229E+03  0.72079147711E+03  0.61300000000E+03 0. -1.
<mgrwt>
<rscale>  0 0.17456383E+04</rscale>
<asrwt>0</asrwt>
<pdfrwt beam="1">  1        2 0.27901596E+00 0.17456383E+04</pdfrwt>
<pdfrwt beam="2">  1       -2 0.55721579E-01 0.17456383E+04</pdfrwt>
<totfact> 0.24395177E+01</totfact>
</mgrwt>
</event>
<event>
 8    1  0.6972317E-052  0.1306814E+04  0.7818608E-02  0.9024179E-01
         -2   -1    0    0    0  501 -0.00000000000E+00  0.00000000000E+00  0.37415438937E+03  0.37415438937E+03  0.25500000000E-02 0. -1.
          2   -1    0    0  501    0  0.00000000000E+00 -0.00000000000E+00 -0.11410822465E+04  0.11410822465E+04  0.25500000000E-02 0.  1.
     200001    2    1    2    0    0 -0.15101630441E+03 -0.10916086342E+03 -0.53008451278E+03  0.83216578447E+03  0.61383082673E+03 0.  0.
    5000001    2    3    3    0    0 -0.83597237730E+02 -0.20568847977E+03 -0.61178546399E+03  0.65684049622E+03  0.88666423512E+02 0.  0.
        -11    1    4    4    0    0 -0.32285335902E+01 -0.94324789998E+02 -0.30739751790E+03  0.32155998422E+03  0.51100000000E-03 0. -1.
     200002    1    4    4    0    0 -0.80368704139E+02 -0.11136368978E+03 -0.30438794608E+03  0.33528051200E+03  0.30000000000E+02 0. -1.
     200000    1    3    3    0    0 -0.67419066684E+02  0.96527616356E+02  0.81700951206E+02  0.17532528825E+03  0.10100000000E+03 0. -1.
    -200001    1    1    2    0    0  0.15101630441E+03  0.10916086342E+03 -0.23684334438E+03  0.68307085143E+03  0.61300000000E+03 0.  1.
<mgrwt>
<rscale>  0 0.13068143E+04</rscale>
<asrwt>0</asrwt>
<pdfrwt beam="1">  1        2 0.16301175E+00 0.13068143E+04</pdfrwt>
<pdfrwt beam="2">  1       -2 0.53450628E-01 0.13068143E+04</pdfrwt>
<totfact> 0.74741239E+01</totfact>
</mgrwt>
</event>
<event>
 8    1  0.6972317E-052  0.1545844E+04  0.7818608E-02  0.8854527E-01
          2   -1    0    0  501    0  0.00000000000E+00  0.00000000000E+00  0.30033335048E+04  0.30033335048E+04  0.25500000000E-02 0.  1.
         -2   -1    0    0    0  501 -0.00000000000E+00 -0.00000000000E+00 -0.19891504900E+03  0.19891504901E+03  0.25500000000E-02 0. -1.
     200001    2    1    2    0    0 -0.19102257861E+03 -0.34827194848E+03  0.88016792788E+03  0.11440230876E+04  0.61344133218E+03 0.  0.
    5000001    2    3    3    0    0 -0.35285372807E+03 -0.27975233051E+03  0.80648255959E+03  0.92835020454E+03  0.93020769154E+02 0.  0.
        -11    1    4    4    0    0 -0.65451390889E+02 -0.19736185299E+02  0.87814076293E+02  0.11128662801E+03  0.51100000000E-03 0. -1.
     200002    1    4    4    0    0 -0.28740233718E+03 -0.26001614521E+03  0.71866848330E+03  0.81706357652E+03  0.30000000000E+02 0. -1.
     200000    1    3    3    0    0  0.16183114946E+03 -0.68519617971E+02  0.73685368283E+02  0.21567288305E+03  0.10100000000E+03 0. -1.
    -200001    1    1    2    0    0  0.19102257861E+03  0.34827194848E+03  0.19242505280E+04  0.20582254663E+04  0.61300000000E+03 0.  1.
<mgrwt>
<rscale>  0 0.15458438E+04</rscale>
<asrwt>0</asrwt>
<pdfrwt beam="1">  1        2 0.42904766E+00 0.15458438E+04</pdfrwt>
<pdfrwt beam="2">  1       -2 0.28416434E-01 0.15458438E+04</pdfrwt>
<totfact> 0.25805768E+01</totfact>
</mgrwt>
</event>
<event>
 8    1  0.6972317E-052  0.1495581E+04  0.7818608E-02  0.8887397E-01
          2   -1    0    0  501    0  0.00000000000E+00  0.00000000000E+00  0.24569491218E+04  0.24569491218E+04  0.25500000000E-02 0.  1.
         -2   -1    0    0    0  501 -0.00000000000E+00 -0.00000000000E+00 -0.22759563465E+03  0.22759563467E+03  0.25500000000E-02 0. -1.
     200001    2    1    2    0    0 -0.28663850585E+03  0.25913022239E+02  0.54382939371E+03  0.86806640886E+03  0.61233631525E+03 0.  0.
    5000001    2    3    3    0    0  0.12839620388E+03 -0.11797424279E+03  0.52037648268E+02  0.20097010681E+03  0.85308615400E+02 0.  0.
        -11    1    4    4    0    0  0.14894408515E+02  0.36802114314E+00 -0.15145148790E+02  0.21245102416E+02  0.51100000000E-03 0. -1.
     200002    1    4    4    0    0  0.11350179537E+03 -0.11834226393E+03  0.67182797058E+02  0.17972500440E+03  0.30000000000E+02 0. -1.
     200000    1    3    3    0    0 -0.41503470974E+03  0.14388726503E+03  0.49179174544E+03  0.66709630205E+03  0.10100000000E+03 0. -1.
    -200001    1    1    2    0    0  0.28663850585E+03 -0.25913022239E+02  0.16855240934E+04  0.18164783476E+04  0.61300000000E+03 0.  1.
<mgrwt>
<rscale>  0 0.14955814E+04</rscale>
<asrwt>0</asrwt>
<pdfrwt beam="1">  1        2 0.35099273E+00 0.14955814E+04</pdfrwt>
<pdfrwt beam="2">  1       -2 0.32513663E-01 0.14955814E+04</pdfrwt>
<totfact> 0.39681342E+01</totfact>
</mgrwt>
</event>
<event>
 8    1  0.6972317E-052  0.2468873E+04  0.7818608E-02  0.8414159E-01
          2   -1    0    0  501    0  0.00000000000E+00  0.00000000000E+00  0.72247302598E+03  0.72247302598E+03  0.25500000000E-02 0.  1.
         -2   -1    0    0    0  501 -0.00000000000E+00 -0.00000000000E+00 -0.21091907771E+04  0.21091907771E+04  0.25500000000E-02 0. -1.
     200001    2    1    2    0    0  0.69616984473E+03 -0.74511831305E+03 -0.31537234149E+03  0.12306004877E+04  0.61242476548E+03 0.  0.
    5000001    2    3    3    0    0  0.74360099781E+03 -0.75748760869E+03 -0.22614656285E+03  0.10871956296E+04  0.64203954918E+02 0.  0.
        -11    1    4    4    0    0  0.27202395786E+02 -0.44777785030E+02 -0.90709576625E+01  0.53172386084E+02  0.51100000000E-03 0. -1.
     200002    1    4    4    0    0  0.71639860202E+03 -0.71270982366E+03 -0.21707560518E+03  0.10340232435E+04  0.30000000000E+02 0. -1.
     200000    1    3    3    0    0 -0.47431153076E+02  0.12369295633E+02 -0.89225778643E+02  0.14340485812E+03  0.10100000000E+03 0. -1.
    -200001    1    1    2    0    0 -0.69616984473E+03  0.74511831305E+03 -0.10713454097E+04  0.16010633154E+04  0.61300000000E+03 0. -1.
<mgrwt>
<rscale>  0 0.24688730E+04</rscale>
<asrwt>0</asrwt>
<pdfrwt beam="1">  1        2 0.10321043E+00 0.24688730E+04</pdfrwt>
<pdfrwt beam="2">  1       -2 0.30131297E+00 0.24688730E+04</pdfrwt>
<totfact> 0.12131868E+00</totfact>
</mgrwt>
</event>
<event>
 8    1  0.6972317E-052  0.1607222E+04  0.7818608E-02  0.8816124E-01
         -2   -1    0    0    0  501 -0.00000000000E+00  0.00000000000E+00  0.29027987942E+03  0.29027987943E+03  0.25500000000E-02 0. -1.
          2   -1    0    0  501    0  0.00000000000E+00 -0.00000000000E+00 -0.22247162768E+04  0.22247162768E+04  0.25500000000E-02 0.  1.
     200001    2    1    2    0    0  0.20253320179E+03 -0.35143380405E+02 -0.22006137324E+03  0.68275559385E+03  0.61275887422E+03 0.  0.
    5000001    2    3    3    0    0  0.31699591410E+03  0.13364390607E+03 -0.26406380596E+03  0.45096242167E+03  0.12365398882E+03 0.  0.
        -11    1    4    4    0    0  0.97260176514E+02  0.10129258592E+03 -0.85533551580E+02  0.16442541879E+03  0.51100000000E-03 0. -1.
     200002    1    4    4    0    0  0.21973573759E+03  0.32351320146E+02 -0.17853025438E+03  0.28653700288E+03  0.30000000000E+02 0. -1.
     200000    1    3    3    0    0 -0.11446271231E+03 -0.16878728648E+03  0.44002432725E+02  0.23179317219E+03  0.10100000000E+03 0. -1.
    -200001    1    1    2    0    0 -0.20253320179E+03  0.35143380405E+02 -0.17143750241E+04  0.18322405624E+04  0.61300000000E+03 0.  1.
<mgrwt>
<rscale>  0 0.16072217E+04</rscale>
<asrwt>0</asrwt>
<pdfrwt beam="1">  1        2 0.31781660E+00 0.16072217E+04</pdfrwt>
<pdfrwt beam="2">  1       -2 0.41468555E-01 0.16072217E+04</pdfrwt>
<totfact> 0.32495262E+01</totfact>
</mgrwt>
</event>
<event>
 8    1  0.6972317E-052  0.1361992E+04  0.7818608E-02  0.8981799E-01
          2   -1    0    0  501    0  0.00000000000E+00  0.00000000000E+00  0.58361576441E+03  0.58361576442E+03  0.25500000000E-02 0.  1.
         -2   -1    0    0    0  501 -0.00000000000E+00 -0.00000000000E+00 -0.79462522358E+03  0.79462522359E+03  0.25500000000E-02 0. -1.
     200001    2    1    2    0    0 -0.26483121688E+03 -0.55900702478E+02 -0.22923126853E+03  0.70789667625E+03  0.61262571591E+03 0.  0.
    5000001    2    3    3    0    0 -0.44489613680E+03 -0.80608767173E+02 -0.19041035893E+03  0.49637380073E+03  0.75501651542E+02 0.  0.
        -11    1    4    4    0    0 -0.27118260809E+03 -0.74578810429E+02 -0.13086802275E+03  0.31020710061E+03  0.51100000000E-03 0. -1.
     200002    1    4    4    0    0 -0.17371352871E+03 -0.60299567440E+01 -0.59542336180E+02  0.18616670012E+03  0.30000000000E+02 0.  1.
     200000    1    3    3    0    0  0.18006491991E+03  0.24708064695E+02 -0.38820909602E+02  0.21152287551E+03  0.10100000000E+03 0. -1.
    -200001    1    1    2    0    0  0.26483121688E+03  0.55900702478E+02  0.18221809356E+02  0.67034431176E+03  0.61300000000E+03 0.  1.
<mgrwt>
<rscale>  0 0.13619924E+04</rscale>
<asrwt>0</asrwt>
<pdfrwt beam="1">  1        2 0.83373682E-01 0.13619924E+04</pdfrwt>
<pdfrwt beam="2">  1       -2 0.11351789E+00 0.13619924E+04</pdfrwt>
<totfact> 0.33356613E+01</totfact>
</mgrwt>
</event>
<event>
 8    1  0.6972317E-052  0.1410293E+04  0.7818608E-02  0.8946402E-01
          2   -1    0    0  501    0  0.00000000000E+00  0.00000000000E+00  0.84746420001E+03  0.84746420002E+03  0.25500000000E-02 0. -1.
         -2   -1    0    0    0  501 -0.00000000000E+00 -0.00000000000E+00 -0.58672858067E+03  0.58672858068E+03  0.25500000000E-02 0.  1.
     200001    2    1    2    0    0  0.32731176004E+02 -0.12589034423E+03  0.45938407073E+03  0.77681167670E+03  0.61276663417E+03 0.  0.
    5000001    2    3    3    0    0  0.14064103824E+03 -0.32674949834E+03  0.34895368044E+03  0.50407589016E+03  0.76017732469E+02 0.  0.
        -11    1    4    4    0    0  0.13991409949E+02 -0.62886430077E+01  0.46267377860E+01  0.16022274683E+02  0.51100000000E-03 0. -1.
     200002    1    4    4    0    0  0.12664962829E+03 -0.32046085533E+03  0.34432694266E+03  0.48805361548E+03  0.30000000000E+02 0. -1.
     200000    1    3    3    0    0 -0.10790986223E+03  0.20085915411E+03  0.11043039029E+03  0.27273578653E+03  0.10100000000E+03 0.  1.
    -200001    1    1    2    0    0 -0.32731176004E+02  0.12589034423E+03 -0.19864845139E+03  0.65738110400E+03  0.61300000000E+03 0.  1.
<mgrwt>
<rscale>  0 0.14102928E+04</rscale>
<asrwt>0</asrwt>
<pdfrwt beam="1">  1        2 0.12106632E+00 0.14102928E+04</pdfrwt>
<pdfrwt beam="2">  1       -2 0.83818368E-01 0.14102928E+04</pdfrwt>
<totfact> 0.42724343E+01</totfact>
</mgrwt>
</event>
<event>
 8    1  0.6972317E-052  0.2232238E+04  0.7818608E-02  0.8505129E-01
          2   -1    0    0  501    0  0.00000000000E+00  0.00000000000E+00  0.20350701152E+04  0.20350701152E+04  0.25500000000E-02 0.  1.
         -2   -1    0    0    0  501 -0.00000000000E+00 -0.00000000000E+00 -0.61212693233E+03  0.61212693233E+03  0.25500000000E-02 0. -1.
     200001    2    1    2    0    0  0.39383196231E+03  0.61878202014E+03  0.13958290374E+04  0.16909026473E+04  0.61058845220E+03 0.  0.
    5000001    2    3    3    0    0  0.28910215929E+03  0.49832452795E+03  0.13844447987E+04  0.15016701449E+04  0.80115103520E+02 0.  0.
        -11    1    4    4    0    0  0.21892442653E+03  0.32739717517E+03  0.90559492084E+03  0.98753175923E+03  0.51100000000E-03 0. -1.
     200002    1    4    4    0    0  0.70177732760E+02  0.17092735278E+03  0.47884987785E+03  0.51413838568E+03  0.30000000000E+02 0.  1.
     200000    1    3    3    0    0  0.10472980302E+03  0.12045749219E+03  0.11384238710E+02  0.18923250238E+03  0.10100000000E+03 0. -1.
    -200001    1    1    2    0    0 -0.39383196231E+03 -0.61878202014E+03  0.27114145430E+02  0.95629440021E+03  0.61300000000E+03 0. -1.
<mgrwt>
<rscale>  0 0.22322376E+04</rscale>
<asrwt>0</asrwt>
<pdfrwt beam="1">  1        2 0.29072431E+00 0.22322376E+04</pdfrwt>
<pdfrwt beam="2">  1       -2 0.87446704E-01 0.22322376E+04</pdfrwt>
<totfact> 0.79597961E+00</totfact>
</mgrwt>
</event>
<event>
 8    1  0.6972317E-052  0.1967050E+04  0.7818608E-02  0.8622182E-01
          2   -1    0    0  501    0  0.00000000000E+00  0.00000000000E+00  0.18296964068E+04  0.18296964068E+04  0.25500000000E-02 0.  1.
         -2   -1    0    0    0  501 -0.00000000000E+00 -0.00000000000E+00 -0.52867889209E+03  0.52867889210E+03  0.25500000000E-02 0. -1.
     200001    2    1    2    0    0  0.17122740721E+03 -0.25458583880E+03 -0.19566653551E+03  0.71217819027E+03  0.61219245935E+03 0.  0.
    5000001    2    3    3    0    0  0.26339577427E+03 -0.38635574636E+03 -0.62108221834E+02  0.48002061538E+03  0.88962145448E+02 0.  0.
        -11    1    4    4    0    0 -0.59002920113E+01 -0.35205475927E+01 -0.20330316634E+01  0.71652577886E+01  0.51100000000E-03 0. -1.
     200002    1    4    4    0    0  0.26929606629E+03 -0.38283519877E+03 -0.60075190171E+02  0.47285535760E+03  0.30000000000E+02 0. -1.
     200000    1    3    3    0    0 -0.92168367060E+02  0.13176990756E+03 -0.13355831367E+03  0.23215757489E+03  0.10100000000E+03 0. -1.
    -200001    1    1    2    0    0 -0.17122740721E+03  0.25458583880E+03  0.14966840502E+04  0.16461971086E+04  0.61300000000E+03 0.  1.
<mgrwt>
<rscale>  0 0.19670505E+04</rscale>
<asrwt>0</asrwt>
<pdfrwt beam="1">  1        2 0.26138520E+00 0.19670505E+04</pdfrwt>
<pdfrwt beam="2">  1       -2 0.75525556E-01 0.19670505E+04</pdfrwt>
<totfact> 0.14439802E+01</totfact>
</mgrwt>
</event>
<event>
 8    1  0.6972317E-052  0.1453616E+04  0.7818608E-02  0.8915898E-01
          2   -1    0    0  501    0  0.00000000000E+00  0.00000000000E+00  0.31450609768E+04  0.31450609768E+04  0.25500000000E-02 0.  1.
         -2   -1    0    0    0  501 -0.00000000000E+00 -0.00000000000E+00 -0.16796167561E+03  0.16796167563E+03  0.25500000000E-02 0. -1.
     200001    2    1    2    0    0  0.28909205369E+03 -0.26103225227E+03  0.14920035812E+04  0.16598468149E+04  0.61425134141E+03 0.  0.
    5000001    2    3    3    0    0  0.41024024241E+03 -0.22327122020E+03  0.13788541404E+04  0.14620929903E+04  0.13538861730E+03 0.  0.
        -11    1    4    4    0    0  0.35292124527E+03 -0.22129683278E+03  0.11109327597E+04  0.11864641967E+04  0.51100000000E-03 0. -1.
     200002    1    4    4    0    0  0.57318997142E+02 -0.19743874252E+01  0.26792138064E+03  0.27562879357E+03  0.30000000000E+02 0. -1.
     200000    1    3    3    0    0 -0.12114818873E+03 -0.37761032065E+02  0.11314944082E+03  0.19775382457E+03  0.10100000000E+03 0. -1.
    -200001    1    1    2    0    0 -0.28909205369E+03  0.26103225227E+03  0.14850957200E+04  0.16531758376E+04  0.61300000000E+03 0. -1.
<mgrwt>
<rscale>  0 0.14536158E+04</rscale>
<asrwt>0</asrwt>
<pdfrwt beam="1">  1        2 0.44929445E+00 0.14536158E+04</pdfrwt>
<pdfrwt beam="2">  1       -2 0.23994524E-01 0.14536158E+04</pdfrwt>
<totfact> 0.29482087E+01</totfact>
</mgrwt>
</event>
<event>
 8    1  0.6972317E-052  0.1653689E+04  0.7818608E-02  0.8788227E-01
          2   -1    0    0  501    0  0.00000000000E+00  0.00000000000E+00  0.10546013933E+04  0.10546013933E+04  0.25500000000E-02 0.  1.
         -2   -1    0    0    0  501 -0.00000000000E+00 -0.00000000000E+00 -0.64827536855E+03  0.64827536856E+03  0.25500000000E-02 0. -1.
     200001    2    1    2    0    0  0.33697541372E+03  0.16757495376E+03  0.62313310293E+03  0.95160576962E+03  0.61288243752E+03 0.  0.
    5000001    2    3    3    0    0  0.34912373945E+02  0.55234763892E+02 -0.10528739482E+03  0.14869866428E+03  0.82195524548E+02 0.  0.
        -11    1    4    4    0    0  0.28473893505E+01  0.57737503788E+02 -0.77459033400E+02  0.96652102022E+02  0.51100000000E-03 0. -1.
     200002    1    4    4    0    0  0.32064984595E+02 -0.25027398965E+01 -0.27828361418E+02  0.52046562262E+02  0.30000000000E+02 0.  1.
     200000    1    3    3    0    0  0.30206303977E+03  0.11234018986E+03  0.72842049775E+03  0.80290710533E+03  0.10100000000E+03 0.  1.
    -200001    1    1    2    0    0 -0.33697541372E+03 -0.16757495376E+03 -0.21680707821E+03  0.75127099221E+03  0.61300000000E+03 0. -1.
<mgrwt>
<rscale>  0 0.16536893E+04</rscale>
<asrwt>0</asrwt>
<pdfrwt beam="1">  1        2 0.15065734E+00 0.16536893E+04</pdfrwt>
<pdfrwt beam="2">  1       -2 0.92610768E-01 0.16536893E+04</pdfrwt>
<totfact> 0.24631273E+01</totfact>
</mgrwt>
</event>
<event>
 8    1  0.6972317E-052  0.1754535E+04  0.7818608E-02  0.8730858E-01
          2   -1    0    0  501    0  0.00000000000E+00  0.00000000000E+00  0.22356772676E+04  0.22356772676E+04  0.25500000000E-02 0. -1.
         -2   -1    0    0    0  501 -0.00000000000E+00 -0.00000000000E+00 -0.34423485328E+03  0.34423485329E+03  0.25500000000E-02 0.  1.
     200001    2    1    2    0    0 -0.29102949184E+03  0.49848483705E+03  0.13226209695E+04  0.15637860785E+04  0.60242457837E+03 0.  0.
    5000001    2    3    3    0    0 -0.20239543964E+03  0.61337595300E+03  0.11192526546E+04  0.12943131945E+04  0.72980592782E+02 0.  0.
        -11    1    4    4    0    0 -0.14798710476E+03  0.39265359193E+03  0.75918158787E+03  0.86742936876E+03  0.51100000000E-03 0. -1.
     200002    1    4    4    0    0 -0.54408334876E+02  0.22072236107E+03  0.36007106674E+03  0.42688382575E+03  0.30000000000E+02 0. -1.
     200000    1    3    3    0    0 -0.88634052204E+02 -0.11489111594E+03  0.20336831484E+03  0.26947288401E+03  0.10100000000E+03 0. -1.
    -200001    1    1    2    0    0  0.29102949184E+03 -0.49848483705E+03  0.56882144490E+03  0.10161260424E+04  0.61300000000E+03 0.  1.
<mgrwt>
<rscale>  0 0.17545347E+04</rscale>
<asrwt>0</asrwt>
<pdfrwt beam="1">  1        2 0.31938247E+00 0.17545347E+04</pdfrwt>
<pdfrwt beam="2">  1       -2 0.49176407E-01 0.17545347E+04</pdfrwt>
<totfact> 0.22540544E+01</totfact>
</mgrwt>
</event>
<event>
 8    1  0.6972317E-052  0.1531838E+04  0.7818608E-02  0.8863553E-01
         -2   -1    0    0    0  501 -0.00000000000E+00  0.00000000000E+00  0.11296161261E+04  0.11296161261E+04  0.25500000000E-02 0. -1.
          2   -1    0    0  501    0  0.00000000000E+00 -0.00000000000E+00 -0.51931977098E+03  0.51931977099E+03  0.25500000000E-02 0.  1.
     200001    2    1    2    0    0 -0.26870138981E+01  0.45362452517E+03  0.23499373257E+03  0.79899267054E+03  0.61431653351E+03 0.  0.
    5000001    2    3    3    0    0 -0.10398774846E+03 -0.15097811638E+02  0.27105574044E+03  0.30760286981E+03  0.10053315545E+03 0.  0.
        -11    1    4    4    0    0  0.11097035803E+02 -0.23710765443E+02  0.49602430801E+02  0.56086948064E+02  0.51100000000E-03 0. -1.
     200002    1    4    4    0    0 -0.11508478426E+03  0.86129538049E+01  0.22145330964E+03  0.25151592175E+03  0.30000000000E+02 0. -1.
     200000    1    3    3    0    0  0.10130073456E+03  0.46872233681E+03 -0.36062007876E+02  0.49138980073E+03  0.10100000000E+03 0.  1.
    -200001    1    1    2    0    0  0.26870138981E+01 -0.45362452517E+03  0.37530262256E+03  0.84994322657E+03  0.61300000000E+03 0. -1.
<mgrwt>
<rscale>  0 0.15318381E+04</rscale>
<asrwt>0</asrwt>
<pdfrwt beam="1">  1        2 0.74188539E-01 0.15318381E+04</pdfrwt>
<pdfrwt beam="2">  1       -2 0.16137373E+00 0.15318381E+04</pdfrwt>
<totfact> 0.15263263E+01</totfact>
</mgrwt>
</event>
<event>
 8    1  0.6972317E-052  0.1894611E+04  0.7818608E-02  0.8657544E-01
          2   -1    0    0  501    0  0.00000000000E+00  0.00000000000E+00  0.15240440083E+04  0.15240440083E+04  0.25500000000E-02 0.  1.
         -2   -1    0    0    0  501 -0.00000000000E+00 -0.00000000000E+00 -0.58881986547E+03  0.58881986547E+03  0.25500000000E-02 0. -1.
     200001    2    1    2    0    0 -0.11031704846E+03 -0.38917368906E+01 -0.32844655149E+03  0.70402831896E+03  0.61285703057E+03 0.  0.
    5000001    2    3    3    0    0 -0.11598874362E+03 -0.50130606531E+01 -0.46336566419E+03  0.53539382527E+03  0.24178562810E+03 0.  0.
        -11    1    4    4    0    0 -0.10885061017E+03  0.66461814394E+02 -0.43374273258E+03  0.45210439743E+03  0.51100000000E-03 0. -1.
     200002    1    4    4    0    0 -0.71381334451E+01 -0.71474875047E+02 -0.29622931614E+02  0.83289427837E+02  0.30000000000E+02 0. -1.
     200000    1    3    3    0    0  0.56716951553E+01  0.11213237625E+01  0.13491911270E+03  0.16863449370E+03  0.10100000000E+03 0.  1.
    -200001    1    1    2    0    0  0.11031704846E+03  0.38917368906E+01  0.12636706943E+04  0.14088355548E+04  0.61300000000E+03 0.  1.
<mgrwt>
<rscale>  0 0.18946107E+04</rscale>
<asrwt>0</asrwt>
<pdfrwt beam="1">  1        2 0.21772057E+00 0.18946107E+04</pdfrwt>
<pdfrwt beam="2">  1       -2 0.84117123E-01 0.18946107E+04</pdfrwt>
<totfact> 0.16468453E+01</totfact>
</mgrwt>
</event>
<event>
 8    1  0.6972317E-052  0.1431279E+04  0.7818608E-02  0.8931483E-01
         -2   -1    0    0    0  501 -0.00000000000E+00  0.00000000000E+00  0.31788431784E+03  0.31788431785E+03  0.25500000000E-02 0. -1.
          2   -1    0    0  501    0  0.00000000000E+00 -0.00000000000E+00 -0.16110895135E+04  0.16110895135E+04  0.25500000000E-02 0.  1.
     200001    2    1    2    0    0  0.17730930055E+03  0.30039849667E+03 -0.48059158790E+03  0.85296838508E+03  0.61229808650E+03 0.  0.
    5000001    2    3    3    0    0  0.14974739538E+03  0.42262804182E+03 -0.51504165085E+03  0.68838549666E+03  0.86993940860E+02 0.  0.
        -11    1    4    4    0    0 -0.33019629866E+01  0.66668153886E+02 -0.95386624002E+02  0.11642230775E+03  0.51100000000E-03 0. -1.
     200002    1    4    4    0    0  0.15304935837E+03  0.35595988793E+03 -0.41965502685E+03  0.57196318891E+03  0.30000000000E+02 0. -1.
     200000    1    3    3    0    0  0.27561905166E+02 -0.12222954515E+03  0.34450062948E+02  0.16458288842E+03  0.10100000000E+03 0. -1.
    -200001    1    1    2    0    0 -0.17730930055E+03 -0.30039849667E+03 -0.81261360773E+03  0.10760054462E+04  0.61300000000E+03 0.  1.
<mgrwt>
<rscale>  0 0.14312793E+04</rscale>
<asrwt>0</asrwt>
<pdfrwt beam="1">  1        2 0.23015564E+00 0.14312793E+04</pdfrwt>
<pdfrwt beam="2">  1       -2 0.45412046E-01 0.14312793E+04</pdfrwt>
<totfact> 0.57061033E+01</totfact>
</mgrwt>
</event>
<event>
 8    1  0.6972317E-052  0.1256873E+04  0.7818608E-02  0.9064482E-01
          2   -1    0    0  501    0  0.00000000000E+00  0.00000000000E+00  0.67121747049E+03  0.67121747049E+03  0.25500000000E-02 0.  1.
         -2   -1    0    0    0  501 -0.00000000000E+00 -0.00000000000E+00 -0.58838193683E+03  0.58838193683E+03  0.25500000000E-02 0. -1.
     200001    2    1    2    0    0  0.92474207187E+02  0.70960018866E+01  0.14457109830E+03  0.63655678263E+03  0.61294526902E+03 0.  0.
    5000001    2    3    3    0    0  0.18080574200E+02 -0.26130573964E+02  0.30884703459E+03  0.42721017718E+03  0.29344902565E+03 0.  0.
        -11    1    4    4    0    0 -0.14001300781E+02 -0.15590333842E+03  0.14221987196E+03  0.21149084930E+03  0.51100000000E-03 0. -1.
     200002    1    4    4    0    0  0.32081874981E+02  0.12977276446E+03  0.16662716262E+03  0.21571932788E+03  0.30000000000E+02 0. -1.
     200000    1    3    3    0    0  0.74393632987E+02  0.33226575850E+02 -0.16427593629E+03  0.20934660545E+03  0.10100000000E+03 0. -1.
    -200001    1    1    2    0    0 -0.92474207187E+02 -0.70960018866E+01 -0.61735564640E+02  0.62304262469E+03  0.61300000000E+03 0. -1.
<mgrwt>
<rscale>  0 0.12568727E+04</rscale>
<asrwt>0</asrwt>
<pdfrwt beam="1">  1        2 0.95888210E-01 0.12568727E+04</pdfrwt>
<pdfrwt beam="2">  1       -2 0.84054562E-01 0.12568727E+04</pdfrwt>
<totfact> 0.57675547E+01</totfact>
</mgrwt>
</event>
<event>
 8    1  0.6972317E-052  0.2072800E+04  0.7818608E-02  0.8573321E-01
         -2   -1    0    0    0  501 -0.00000000000E+00  0.00000000000E+00  0.68232993581E+03  0.68232993582E+03  0.25500000000E-02 0. -1.
          2   -1    0    0  501    0  0.00000000000E+00 -0.00000000000E+00 -0.15742019397E+04  0.15742019397E+04  0.25500000000E-02 0.  1.
     200001    2    1    2    0    0  0.25208947174E+03  0.78596934423E+03 -0.59173723544E+03  0.11854824877E+04  0.61148905226E+03 0.  0.
    5000001    2    3    3    0    0  0.81351628195E+02 -0.66954972674E+02 -0.98022363050E+01  0.13406409106E+03  0.82316710943E+02 0.  0.
        -11    1    4    4    0    0  0.12194238548E+02  0.13509899517E+02 -0.15141594112E+02  0.23674558312E+02  0.51100000000E-03 0. -1.
     200002    1    4    4    0    0  0.69157389647E+02 -0.80464872191E+02  0.53393578072E+01  0.11038953275E+03  0.30000000000E+02 0. -1.
     200000    1    3    3    0    0  0.17073784355E+03  0.85292431691E+03 -0.58193499913E+03  0.10514183966E+04  0.10100000000E+03 0.  1.
    -200001    1    1    2    0    0 -0.25208947174E+03 -0.78596934423E+03 -0.30013476842E+03  0.10710493878E+04  0.61300000000E+03 0. -1.
<mgrwt>
<rscale>  0 0.20728001E+04</rscale>
<asrwt>0</asrwt>
<pdfrwt beam="1">  1        2 0.22488599E+00 0.20728001E+04</pdfrwt>
<pdfrwt beam="2">  1       -2 0.97475705E-01 0.20728001E+04</pdfrwt>
<totfact> 0.10867887E+01</totfact>
</mgrwt>
</event>
<event>
 8    1  0.6972317E-052  0.1633502E+04  0.7818608E-02  0.8800227E-01
          2   -1    0    0  501    0  0.00000000000E+00  0.00000000000E+00  0.19884924595E+04  0.19884924595E+04  0.25500000000E-02 0.  1.
         -2   -1    0    0    0  501 -0.00000000000E+00 -0.00000000000E+00 -0.33547119936E+03  0.33547119937E+03  0.25500000000E-02 0. -1.
     200001    2    1    2    0    0  0.63472861867E+02  0.32801543416E+03  0.14274773362E+04  0.15903002546E+04  0.61623082133E+03 0.  0.
    5000001    2    3    3    0    0  0.89640180940E+02  0.31595924420E+03  0.14450999737E+04  0.14838031294E+04  0.74109290990E+02 0.  0.
        -11    1    4    4    0    0  0.18661153736E+02  0.99983950768E+01  0.90673342526E+02  0.93112091631E+02  0.51100000000E-03 0. -1.
     200002    1    4    4    0    0  0.70979027204E+02  0.30596084912E+03  0.13544266311E+04  0.13906910378E+04  0.30000000000E+02 0. -1.
     200000    1    3    3    0    0 -0.26167319073E+02  0.12056189965E+02 -0.17622637514E+02  0.10649712511E+03  0.10100000000E+03 0. -1.
    -200001    1    1    2    0    0 -0.63472861867E+02 -0.32801543416E+03  0.22554392402E+03  0.73366340436E+03  0.61300000000E+03 0.  1.
<mgrwt>
<rscale>  0 0.16335017E+04</rscale>
<asrwt>0</asrwt>
<pdfrwt beam="1">  1        2 0.28407035E+00 0.16335017E+04</pdfrwt>
<pdfrwt beam="2">  1       -2 0.47924457E-01 0.16335017E+04</pdfrwt>
<totfact> 0.32155833E+01</totfact>
</mgrwt>
</event>
<event>
 8    1  0.6972317E-052  0.1687465E+04  0.7818608E-02  0.8768546E-01
          2   -1    0    0  501    0  0.00000000000E+00  0.00000000000E+00  0.34488135091E+04  0.34488135091E+04  0.25500000000E-02 0.  1.
         -2   -1    0    0    0  501 -0.00000000000E+00 -0.00000000000E+00 -0.20641436990E+03  0.20641436991E+03  0.25500000000E-02 0. -1.
     200001    2    1    2    0    0  0.49944776298E+03 -0.23719189226E+03  0.12422232467E+04  0.14913931666E+04  0.61272091612E+03 0.  0.
    5000001    2    3    3    0    0  0.23291377485E+03 -0.25485118573E+03  0.18722168076E+03  0.39842403547E+03  0.67020899040E+02 0.  0.
        -11    1    4    4    0    0  0.15128698161E+03 -0.16384226610E+03  0.14340986226E+03  0.26513850637E+03  0.51100000000E-03 0. -1.
     200002    1    4    4    0    0  0.81626793244E+02 -0.91008919629E+02  0.43811818501E+02  0.13328552910E+03  0.30000000000E+02 0.  1.
     200000    1    3    3    0    0  0.26653398812E+03  0.17659293478E+02  0.10550015659E+04  0.10929691311E+04  0.10100000000E+03 0.  1.
    -200001    1    1    2    0    0 -0.49944776298E+03  0.23719189226E+03  0.20001758925E+04  0.21638347124E+04  0.61300000000E+03 0. -1.
<mgrwt>
<rscale>  0 0.16874652E+04</rscale>
<asrwt>0</asrwt>
<pdfrwt beam="1">  1        2 0.49268764E+00 0.16874652E+04</pdfrwt>
<pdfrwt beam="2">  1       -2 0.29487767E-01 0.16874652E+04</pdfrwt>
<totfact> 0.13142438E+01</totfact>
</mgrwt>
</event>
<event>
 8    1  0.6972317E-052  0.1481587E+04  0.7818608E-02  0.8896791E-01
         -2   -1    0    0    0  501 -0.00000000000E+00  0.00000000000E+00  0.88380240131E+03  0.88380240131E+03  0.25500000000E-02 0. -1.
          2   -1    0    0  501    0  0.00000000000E+00 -0.00000000000E+00 -0.62092474201E+03  0.62092474202E+03  0.25500000000E-02 0.  1.
     200001    2    1    2    0    0  0.36853022224E+03 -0.10937899270E+03  0.29228689178E+03  0.78056404588E+03  0.61324572063E+03 0.  0.
    5000001    2    3    3    0    0  0.40766840817E+03 -0.28319981429E+03  0.12911593567E+03  0.51870294427E+03  0.77370237948E+02 0.  0.
        -11    1    4    4    0    0  0.24348246562E+03 -0.14056067800E+03  0.51400282681E+02  0.28580238684E+03  0.51100000000E-03 0. -1.
     200002    1    4    4    0    0  0.16418594255E+03 -0.14263913630E+03  0.77715652985E+02  0.23290055744E+03  0.30000000000E+02 0. -1.
     200000    1    3    3    0    0 -0.39138185926E+02  0.17382082160E+03  0.16317095611E+03  0.26186110161E+03  0.10100000000E+03 0.  1.
    -200001    1    1    2    0    0 -0.36853022224E+03  0.10937899270E+03 -0.29409232480E+02  0.72416309745E+03  0.61300000000E+03 0.  1.
<mgrwt>
<rscale>  0 0.14815867E+04</rscale>
<asrwt>0</asrwt>
<pdfrwt beam="1">  1        2 0.88703535E-01 0.14815867E+04</pdfrwt>
<pdfrwt beam="2">  1       -2 0.12625749E+00 0.14815867E+04</pdfrwt>
<totfact> 0.23601973E+01</totfact>
</mgrwt>
</event>
<event>
 8    1  0.6972317E-052  0.1508778E+04  0.7818608E-02  0.8878637E-01
          2   -1    0    0  501    0  0.00000000000E+00  0.00000000000E+00  0.17677856566E+04  0.17677856566E+04  0.25500000000E-02 0.  1.
         -2   -1    0    0    0  501 -0.00000000000E+00 -0.00000000000E+00 -0.32192961402E+03  0.32192961403E+03  0.25500000000E-02 0. -1.
     200001    2    1    2    0    0  0.43677416710E+03  0.16722442505E+02  0.65309774978E+03  0.99642389871E+03  0.61259497388E+03 0.  0.
    5000001    2    3    3    0    0  0.19261217843E+03 -0.30663144031E+02  0.69313882778E+03  0.72501137422E+03  0.84619019720E+02 0.  0.
        -11    1    4    4    0    0  0.12859150628E+02 -0.27464908938E+02  0.96498909945E+02  0.10115195796E+03  0.51100000000E-03 0. -1.
     200002    1    4    4    0    0  0.17975302780E+03 -0.31982350932E+01  0.59663991783E+03  0.62385941626E+03  0.30000000000E+02 0. -1.
     200000    1    3    3    0    0  0.24416198867E+03  0.47385586536E+02 -0.40041077991E+02  0.27141252449E+03  0.10100000000E+03 0. -1.
    -200001    1    1    2    0    0 -0.43677416710E+03 -0.16722442505E+02  0.79275829277E+03  0.10932913719E+04  0.61300000000E+03 0.  1.
<mgrwt>
<rscale>  0 0.15087777E+04</rscale>
<asrwt>0</asrwt>
<pdfrwt beam="1">  1        2 0.25254082E+00 0.15087777E+04</pdfrwt>
<pdfrwt beam="2">  1       -2 0.45989942E-01 0.15087777E+04</pdfrwt>
<totfact> 0.45839013E+01</totfact>
</mgrwt>
</event>
<event>
 8    1  0.6972317E-052  0.2121285E+04  0.7818608E-02  0.8551925E-01
          2   -1    0    0  501    0  0.00000000000E+00  0.00000000000E+00  0.91891656840E+03  0.91891656841E+03  0.25500000000E-02 0.  1.
         -2   -1    0    0    0  501 -0.00000000000E+00 -0.00000000000E+00 -0.12242268198E+04  0.12242268198E+04  0.25500000000E-02 0. -1.
     200001    2    1    2    0    0 -0.30224594139E+02  0.86445352397E+03 -0.12620721858E+03  0.10679502346E+04  0.61351122269E+03 0.  0.
    5000001    2    3    3    0    0 -0.20602982596E+03  0.52315263354E+03  0.14617641873E+03  0.58650696358E+03  0.80535121324E+02 0.  0.
        -11    1    4    4    0    0 -0.77737064055E+01  0.86460741946E+02  0.12272089356E+02  0.87672655866E+02  0.51100000000E-03 0. -1.
     200002    1    4    4    0    0 -0.19825611955E+03  0.43669189160E+03  0.13390432937E+03  0.49883430771E+03  0.30000000000E+02 0. -1.
     200000    1    3    3    0    0  0.17580523182E+03  0.34130089043E+03 -0.27238363730E+03  0.48144327102E+03  0.10100000000E+03 0. -1.
    -200001    1    1    2    0    0  0.30224594139E+02 -0.86445352397E+03 -0.17910303282E+03  0.10751931536E+04  0.61300000000E+03 0.  1.
<mgrwt>
<rscale>  0 0.21212848E+04</rscale>
<asrwt>0</asrwt>
<pdfrwt beam="1">  1        2 0.13127380E+00 0.21212848E+04</pdfrwt>
<pdfrwt beam="2">  1       -2 0.17488955E+00 0.21212848E+04</pdfrwt>
<totfact> 0.57457929E+00</totfact>
</mgrwt>
</event>
<event>
 8    1  0.6972317E-052  0.1698579E+04  0.7818608E-02  0.8762175E-01
          2   -1    0    0  501    0  0.00000000000E+00  0.00000000000E+00  0.12466804876E+04  0.12466804876E+04  0.25500000000E-02 0.  1.
         -2   -1    0    0    0  501 -0.00000000000E+00 -0.00000000000E+00 -0.57857071422E+03  0.57857071423E+03  0.25500000000E-02 0. -1.
     200001    2    1    2    0    0  0.87806053133E+02 -0.34236931433E+03  0.83903750774E+03  0.10973006948E+04  0.61250161228E+03 0.  0.
    5000001    2    3    3    0    0 -0.79185889599E+02 -0.11666149219E+03  0.21324287193E+01  0.20879552250E+03  0.15398283701E+03 0.  0.
        -11    1    4    4    0    0  0.41182592568E+02 -0.61891048582E+01 -0.78777872791E+01  0.42383611010E+02  0.51100000000E-03 0. -1.
     200002    1    4    4    0    0 -0.12036848217E+03 -0.11047238733E+03  0.10010215998E+02  0.16641191149E+03  0.30000000000E+02 0. -1.
     200000    1    3    3    0    0  0.16699194273E+03 -0.22570782214E+03  0.83690507902E+03  0.88850517230E+03  0.10100000000E+03 0.  1.
    -200001    1    1    2    0    0 -0.87806053133E+02  0.34236931433E+03 -0.17092773433E+03  0.72795050706E+03  0.61300000000E+03 0. -1.
<mgrwt>
<rscale>  0 0.16985792E+04</rscale>
<asrwt>0</asrwt>
<pdfrwt beam="1">  1        2 0.17809721E+00 0.16985792E+04</pdfrwt>
<pdfrwt beam="2">  1       -2 0.82652959E-01 0.16985792E+04</pdfrwt>
<totfact> 0.24639369E+01</totfact>
</mgrwt>
</event>
<event>
 8    1  0.6972317E-052  0.1861905E+04  0.7818608E-02  0.8674054E-01
          2   -1    0    0  501    0  0.00000000000E+00  0.00000000000E+00  0.11304154722E+04  0.11304154722E+04  0.25500000000E-02 0.  1.
         -2   -1    0    0    0  501 -0.00000000000E+00 -0.00000000000E+00 -0.76668512069E+03  0.76668512069E+03  0.25500000000E-02 0. -1.
     200001    2    1    2    0    0 -0.88493718021E+02  0.69447677011E+03  0.17884141054E+03  0.94837405548E+03  0.61424748809E+03 0.  0.
    5000001    2    3    3    0    0 -0.17918713850E+03  0.45966335387E+03 -0.14874910341E+03  0.52307512320E+03  0.89904723200E+02 0.  0.
        -11    1    4    4    0    0 -0.15692109121E+03  0.40798183700E+03 -0.12122399571E+03  0.45361731153E+03  0.51100000000E-03 0. -1.
     200002    1    4    4    0    0 -0.22266047291E+02  0.51681516874E+02 -0.27525107696E+02  0.69457811670E+02  0.30000000000E+02 0.  1.
     200000    1    3    3    0    0  0.90693420478E+02  0.23481341624E+03  0.32759051395E+03  0.42529893227E+03  0.10100000000E+03 0.  1.
    -200001    1    1    2    0    0  0.88493718021E+02 -0.69447677011E+03  0.18488894101E+03  0.94872653745E+03  0.61300000000E+03 0. -1.
<mgrwt>
<rscale>  0 0.18619052E+04</rscale>
<asrwt>0</asrwt>
<pdfrwt beam="1">  1        2 0.16148792E+00 0.18619052E+04</pdfrwt>
<pdfrwt beam="2">  1       -2 0.10952645E+00 0.18619052E+04</pdfrwt>
<totfact> 0.14674853E+01</totfact>
</mgrwt>
</event>
<event>
 8    1  0.6972317E-052  0.1614014E+04  0.7818608E-02  0.8811985E-01
          2   -1    0    0  501    0  0.00000000000E+00  0.00000000000E+00  0.20301253975E+04  0.20301253975E+04  0.25500000000E-02 0.  1.
         -2   -1    0    0    0  501 -0.00000000000E+00 -0.00000000000E+00 -0.32079797583E+03  0.32079797584E+03  0.25500000000E-02 0. -1.
     200001    2    1    2    0    0  0.23708950533E+03  0.29561868195E+03  0.32193951099E+03  0.78752449483E+03  0.61069463938E+03 0.  0.
    5000001    2    3    3    0    0  0.88732349278E+02  0.25131493694E+03 -0.12500136101E+03  0.30386158470E+03  0.75325261788E+02 0.  0.
        -11    1    4    4    0    0 -0.25812001451E+01  0.15889565915E+02  0.67636194768E+01  0.17461026540E+02  0.51100000000E-03 0. -1.
     200002    1    4    4    0    0  0.91313549423E+02  0.23542537103E+03 -0.13176498048E+03  0.28640055816E+03  0.30000000000E+02 0. -1.
     200000    1    3    3    0    0  0.14835715605E+03  0.44303745004E+02  0.44694087200E+03  0.48366291013E+03  0.10100000000E+03 0.  1.
    -200001    1    1    2    0    0 -0.23708950533E+03 -0.29561868195E+03  0.13873879107E+04  0.15633988785E+04  0.61300000000E+03 0.  1.
<mgrwt>
<rscale>  0 0.16140138E+04</rscale>
<asrwt>0</asrwt>
<pdfrwt beam="1">  1        2 0.29001791E+00 0.16140138E+04</pdfrwt>
<pdfrwt beam="2">  1       -2 0.45828283E-01 0.16140138E+04</pdfrwt>
<totfact> 0.33543886E+01</totfact>
</mgrwt>
</event>
<event>
 8    1  0.6972317E-052  0.1315117E+04  0.7818608E-02  0.9017662E-01
         -2   -1    0    0    0  501 -0.00000000000E+00  0.00000000000E+00  0.45321257245E+03  0.45321257245E+03  0.25500000000E-02 0. -1.
          2   -1    0    0  501    0  0.00000000000E+00 -0.00000000000E+00 -0.95404065158E+03  0.95404065158E+03  0.25500000000E-02 0.  1.
     200001    2    1    2    0    0  0.11918741824E+03  0.94896036582E+02 -0.44599962582E+03  0.77322951966E+03  0.61299047742E+03 0.  0.
    5000001    2    3    3    0    0  0.23830164342E+03  0.14275814272E+03 -0.49142266066E+03  0.60369122918E+03  0.21396099692E+03 0.  0.
        -11    1    4    4    0    0  0.67701245036E+02 -0.51844941897E+02 -0.16787167441E+03  0.18828769383E+03  0.51100000000E-03 0. -1.
     200002    1    4    4    0    0  0.17060039839E+03  0.19460308462E+03 -0.32355098626E+03  0.41540353535E+03  0.30000000000E+02 0. -1.
     200000    1    3    3    0    0 -0.11911422518E+03 -0.47862106141E+02  0.45423034838E+02  0.16953829048E+03  0.10100000000E+03 0. -1.
    -200001    1    1    2    0    0 -0.11918741824E+03 -0.94896036582E+02 -0.54828453311E+02  0.63402370438E+03  0.61300000000E+03 0. -1.
<mgrwt>
<rscale>  0 0.13151171E+04</rscale>
<asrwt>0</asrwt>
<pdfrwt beam="1">  1        2 0.13629152E+00 0.13151171E+04</pdfrwt>
<pdfrwt beam="2">  1       -2 0.64744654E-01 0.13151171E+04</pdfrwt>
<totfact> 0.64776844E+01</totfact>
</mgrwt>
</event>
<event>
 8    1  0.6972317E-052  0.1343086E+04  0.7818608E-02  0.8996079E-01
          2   -1    0    0  501    0  0.00000000000E+00  0.00000000000E+00  0.22725576346E+04  0.22725576346E+04  0.25500000000E-02 0.  1.
         -2   -1    0    0    0  501 -0.00000000000E+00 -0.00000000000E+00 -0.19844147408E+03  0.19844147410E+03  0.25500000000E-02 0. -1.
     200001    2    1    2    0    0 -0.40295549459E+02 -0.92049266980E+01  0.53906737505E+03  0.81756261589E+03  0.61327525148E+03 0.  0.
    5000001    2    3    3    0    0 -0.27957509707E+03 -0.11996583253E+03  0.27800848971E+03  0.43301688157E+03  0.13289418161E+03 0.  0.
        -11    1    4    4    0    0 -0.67870062433E+02  0.22467383039E+02  0.88495906714E+02  0.11376578651E+03  0.51100000000E-03 0. -1.
     200002    1    4    4    0    0 -0.21170503463E+03 -0.14243321557E+03  0.18951258299E+03  0.31925109506E+03  0.30000000000E+02 0. -1.
     200000    1    3    3    0    0  0.23927954761E+03  0.11076090583E+03  0.26105888535E+03  0.38454573432E+03  0.10100000000E+03 0. -1.
    -200001    1    1    2    0    0  0.40295549459E+02  0.92049266980E+01  0.15350487854E+04  0.16534364928E+04  0.61300000000E+03 0.  1.
<mgrwt>
<rscale>  0 0.13430855E+04</rscale>
<asrwt>0</asrwt>
<pdfrwt beam="1">  1        2 0.32465107E+00 0.13430855E+04</pdfrwt>
<pdfrwt beam="2">  1       -2 0.28348783E-01 0.13430855E+04</pdfrwt>
<totfact> 0.64697262E+01</totfact>
</mgrwt>
</event>
<event>
 8    1  0.6972317E-052  0.1394012E+04  0.7818608E-02  0.8958164E-01
         -2   -1    0    0    0  501 -0.00000000000E+00  0.00000000000E+00  0.25268766526E+03  0.25268766528E+03  0.25500000000E-02 0. -1.
          2   -1    0    0  501    0  0.00000000000E+00 -0.00000000000E+00 -0.19226014717E+04  0.19226014717E+04  0.25500000000E-02 0.  1.
     200001    2    1    2    0    0  0.25261484275E+03  0.17548982027E+03 -0.63430083158E+03  0.93316427631E+03  0.61143036057E+03 0.  0.
    5000001    2    3    3    0    0 -0.40426217179E+02  0.74210685934E+02 -0.56617494800E+03  0.60003868156E+03  0.17986340007E+03 0.  0.
        -11    1    4    4    0    0  0.50960148930E+01  0.72239141261E+02 -0.69487528457E+02  0.10036423421E+03  0.51100000000E-03 0. -1.
     200002    1    4    4    0    0 -0.45522232072E+02  0.19715446731E+01 -0.49668741954E+03  0.49967444735E+03  0.30000000000E+02 0. -1.
     200000    1    3    3    0    0  0.29304105993E+03  0.10127913434E+03 -0.68125883583E+02  0.33312559474E+03  0.10100000000E+03 0. -1.
    -200001    1    1    2    0    0 -0.25261484275E+03 -0.17548982027E+03 -0.10356129748E+04  0.12421248606E+04  0.61300000000E+03 0. -1.
<mgrwt>
<rscale>  0 0.13940124E+04</rscale>
<asrwt>0</asrwt>
<pdfrwt beam="1">  1        2 0.27465734E+00 0.13940124E+04</pdfrwt>
<pdfrwt beam="2">  1       -2 0.36098239E-01 0.13940124E+04</pdfrwt>
<totfact> 0.61880890E+01</totfact>
</mgrwt>
</event>
<event>
 8    1  0.6972317E-052  0.2223517E+04  0.7818608E-02  0.8508703E-01
          2   -1    0    0  501    0  0.00000000000E+00  0.00000000000E+00  0.22986683025E+04  0.22986683025E+04  0.25500000000E-02 0.  1.
         -2   -1    0    0    0  501 -0.00000000000E+00 -0.00000000000E+00 -0.53770553094E+03  0.53770553095E+03  0.25500000000E-02 0. -1.
     200001    2    1    2    0    0  0.73152228309E+03 -0.47614030100E+03  0.47915853543E+03  0.11688530580E+04  0.61220105534E+03 0.  0.
    5000001    2    3    3    0    0  0.42959614798E+02  0.10037319367E+03 -0.91174196243E+01  0.14167207782E+03  0.89819506701E+02 0.  0.
        -11    1    4    4    0    0  0.36830413465E+02  0.99762967938E+02 -0.21745547612E+02  0.10854491222E+03  0.51100000000E-03 0. -1.
     200002    1    4    4    0    0  0.61292013336E+01  0.61022572833E+00  0.12628127988E+02  0.33127165603E+02  0.30000000000E+02 0.  1.
     200000    1    3    3    0    0  0.68856266830E+03 -0.57651349466E+03  0.48827595506E+03  0.10271809802E+04  0.10100000000E+03 0.  1.
    -200001    1    1    2    0    0 -0.73152228309E+03  0.47614030100E+03  0.12818042361E+04  0.16675207755E+04  0.61300000000E+03 0. -1.
<mgrwt>
<rscale>  0 0.22235167E+04</rscale>
<asrwt>0</asrwt>
<pdfrwt beam="1">  1        2 0.32838119E+00 0.22235167E+04</pdfrwt>
<pdfrwt beam="2">  1       -2 0.76815076E-01 0.22235167E+04</pdfrwt>
<totfact> 0.77984248E+00</totfact>
</mgrwt>
</event>
<event>
 8    1  0.6972317E-052  0.1326062E+04  0.7818608E-02  0.9009149E-01
          2   -1    0    0  501    0  0.00000000000E+00  0.00000000000E+00  0.29974393008E+04  0.29974393008E+04  0.25500000000E-02 0.  1.
         -2   -1    0    0    0  501 -0.00000000000E+00 -0.00000000000E+00 -0.14666187774E+03  0.14666187776E+03  0.25500000000E-02 0. -1.
     200001    2    1    2    0    0  0.16496427173E+02 -0.19410540866E+03  0.17848698226E+04  0.18991605958E+04  0.61895205258E+03 0.  0.
    5000001    2    3    3    0    0 -0.14393100577E+03 -0.15345906435E+03  0.19856149567E+03  0.30104789811E+03  0.83290759052E+02 0.  0.
        -11    1    4    4    0    0 -0.49807157521E+02 -0.53331822799E+02  0.11859526041E+03  0.13924752082E+03  0.51100000000E-03 0. -1.
     200002    1    4    4    0    0 -0.94123848251E+02 -0.10012724155E+03  0.79966235257E+02  0.16180037729E+03  0.30000000000E+02 0. -1.
     200000    1    3    3    0    0  0.16042743295E+03 -0.40646344312E+02  0.15863083269E+04  0.15981126977E+04  0.10100000000E+03 0.  1.
    -200001    1    1    2    0    0 -0.16496427173E+02  0.19410540866E+03  0.10659076004E+04  0.12449405827E+04  0.61300000000E+03 0. -1.
<mgrwt>
<rscale>  0 0.13260620E+04</rscale>
<asrwt>0</asrwt>
<pdfrwt beam="1">  1        2 0.42820561E+00 0.13260620E+04</pdfrwt>
<pdfrwt beam="2">  1       -2 0.20951697E-01 0.13260620E+04</pdfrwt>
<totfact> 0.45991167E+01</totfact>
</mgrwt>
</event>
<event>
 8    1  0.6972317E-052  0.1595945E+04  0.7818608E-02  0.8823043E-01
          2   -1    0    0  501    0  0.00000000000E+00  0.00000000000E+00  0.15229678049E+04  0.15229678049E+04  0.25500000000E-02 0.  1.
         -2   -1    0    0    0  501 -0.00000000000E+00 -0.00000000000E+00 -0.41810467574E+03  0.41810467575E+03  0.25500000000E-02 0. -1.
     200001    2    1    2    0    0 -0.32506227650E+02 -0.47324344817E+03  0.32323598915E+03  0.84028821383E+03  0.61366665344E+03 0.  0.
    5000001    2    3    3    0    0 -0.14022550262E+03 -0.47462437562E+03  0.22713337869E+03  0.66410064078E+03  0.38014286768E+03 0.  0.
        -11    1    4    4    0    0  0.46914675627E+02 -0.93229995943E+02  0.21389984065E+03  0.23800411921E+03  0.51100000000E-03 0. -1.
     200002    1    4    4    0    0 -0.18714017824E+03 -0.38139437967E+03  0.13233538042E+02  0.42609652156E+03  0.30000000000E+02 0. -1.
     200000    1    3    3    0    0  0.10771927497E+03  0.13809274436E+01  0.96102610463E+02  0.17618757305E+03  0.10100000000E+03 0. -1.
    -200001    1    1    2    0    0  0.32506227650E+02  0.47324344817E+03  0.78162714001E+03  0.11007842668E+04  0.61300000000E+03 0.  1.
<mgrwt>
<rscale>  0 0.15959448E+04</rscale>
<asrwt>0</asrwt>
<pdfrwt beam="1">  1        2 0.21756683E+00 0.15959448E+04</pdfrwt>
<pdfrwt beam="2">  1       -2 0.59729239E-01 0.15959448E+04</pdfrwt>
<totfact> 0.35717047E+01</totfact>
</mgrwt>
</event>
<event>
 8    1  0.6972317E-052  0.1558558E+04  0.7818608E-02  0.8846420E-01
         -2   -1    0    0    0  501 -0.00000000000E+00  0.00000000000E+00  0.38344934987E+03  0.38344934987E+03  0.25500000000E-02 0. -1.
          2   -1    0    0  501    0  0.00000000000E+00 -0.00000000000E+00 -0.15837175055E+04  0.15837175055E+04  0.25500000000E-02 0.  1.
     200001    2    1    2    0    0 -0.34989687891E+03  0.29748810174E+03 -0.42619353987E+03  0.87818223321E+03  0.61533414073E+03 0.  0.
    5000001    2    3    3    0    0 -0.17275473373E+03 -0.16389121389E+03 -0.15781491969E+03  0.30679944010E+03  0.11187412370E+03 0.  0.
        -11    1    4    4    0    0 -0.28800772427E+02 -0.29815362156E+02 -0.85594067340E+02  0.95104072872E+02  0.51100000000E-03 0. -1.
     200002    1    4    4    0    0 -0.14395396130E+03 -0.13407585173E+03 -0.72220852350E+02  0.21169536723E+03  0.30000000000E+02 0. -1.
     200000    1    3    3    0    0 -0.17714214518E+03  0.46137931563E+03 -0.26837862018E+03  0.57138279310E+03  0.10100000000E+03 0. -1.
    -200001    1    1    2    0    0  0.34989687891E+03 -0.29748810174E+03 -0.77407461577E+03  0.10889846222E+04  0.61300000000E+03 0.  1.
<mgrwt>
<rscale>  0 0.15585576E+04</rscale>
<asrwt>0</asrwt>
<pdfrwt beam="1">  1        2 0.22624535E+00 0.15585576E+04</pdfrwt>
<pdfrwt beam="2">  1       -2 0.54778479E-01 0.15585576E+04</pdfrwt>
<totfact> 0.39870383E+01</totfact>
</mgrwt>
</event>
<event>
 8    1  0.6972317E-052  0.1292952E+04  0.7818608E-02  0.9035173E-01
          2   -1    0    0  501    0  0.00000000000E+00  0.00000000000E+00  0.10514802458E+04  0.10514802458E+04  0.25500000000E-02 0.  1.
         -2   -1    0    0    0  501 -0.00000000000E+00 -0.00000000000E+00 -0.39746958728E+03  0.39746958728E+03  0.25500000000E-02 0. -1.
     200001    2    1    2    0    0 -0.83160927126E+02  0.74782428521E+02  0.13575978262E+03  0.63848014101E+03  0.61377359056E+03 0.  0.
    5000001    2    3    3    0    0  0.19049911469E+02  0.32234146852E+03  0.11436942825E+03  0.35144167482E+03  0.78510911543E+02 0.  0.
        -11    1    4    4    0    0 -0.16174930788E+02  0.20782519749E+03  0.79554283991E+02  0.22311841071E+03  0.51100000000E-03 0. -1.
     200002    1    4    4    0    0  0.35224842257E+02  0.11451627103E+03  0.34815144263E+02  0.12832326411E+03  0.30000000000E+02 0. -1.
     200000    1    3    3    0    0 -0.10221083860E+03 -0.24755904000E+03  0.21390354364E+02  0.28703846618E+03  0.10100000000E+03 0.  1.
    -200001    1    1    2    0    0  0.83160927126E+02 -0.74782428521E+02  0.51825087593E+03  0.81046969210E+03  0.61300000000E+03 0.  1.
<mgrwt>
<rscale>  0 0.12929523E+04</rscale>
<asrwt>0</asrwt>
<pdfrwt beam="1">  1        2 0.15021146E+00 0.12929523E+04</pdfrwt>
<pdfrwt beam="2">  1       -2 0.56781370E-01 0.12929523E+04</pdfrwt>
<totfact> 0.74564481E+01</totfact>
</mgrwt>
</event>
<event>
 8    1  0.6972317E-052  0.1452467E+04  0.7818608E-02  0.8916692E-01
          2   -1    0    0  501    0  0.00000000000E+00  0.00000000000E+00  0.12104284011E+04  0.12104284011E+04  0.25500000000E-02 0.  1.
         -2   -1    0    0    0  501 -0.00000000000E+00 -0.00000000000E+00 -0.43572613803E+03  0.43572613804E+03  0.25500000000E-02 0. -1.
     200001    2    1    2    0    0  0.36170055424E+03  0.11532599830E+03  0.48605921708E+03  0.86948782505E+03  0.61288509411E+03 0.  0.
    5000001    2    3    3    0    0  0.88303553258E+02 -0.20219308544E+03  0.19283918890E+02  0.23415762139E+03  0.76015530060E+02 0.  0.
        -11    1    4    4    0    0  0.82776633444E+02 -0.15880537706E+03  0.46782425272E+01  0.17914520586E+03  0.51100000000E-03 0. -1.
     200002    1    4    4    0    0  0.55269198133E+01 -0.43387708377E+02  0.14605676363E+02  0.55012415534E+02  0.30000000000E+02 0.  1.
     200000    1    3    3    0    0  0.27339700098E+03  0.31751908374E+03  0.46677529818E+03  0.63533020366E+03  0.10100000000E+03 0. -1.
    -200001    1    1    2    0    0 -0.36170055424E+03 -0.11532599830E+03  0.28864304602E+03  0.77666671413E+03  0.61300000000E+03 0. -1.
<mgrwt>
<rscale>  0 0.14524673E+04</rscale>
<asrwt>0</asrwt>
<pdfrwt beam="1">  1        2 0.17291834E+00 0.14524673E+04</pdfrwt>
<pdfrwt beam="2">  1       -2 0.62246591E-01 0.14524673E+04</pdfrwt>
<totfact> 0.49031097E+01</totfact>
</mgrwt>
</event>
<event>
 8    1  0.6972317E-052  0.1811440E+04  0.7818608E-02  0.8700239E-01
          2   -1    0    0  501    0  0.00000000000E+00  0.00000000000E+00  0.17526869662E+04  0.17526869662E+04  0.25500000000E-02 0.  1.
         -2   -1    0    0    0  501 -0.00000000000E+00 -0.00000000000E+00 -0.46804081986E+03  0.46804081986E+03  0.25500000000E-02 0. -1.
     200001    2    1    2    0    0 -0.27092132797E+02  0.20914957094E+03  0.14175652908E+04  0.15589770584E+04  0.61354754362E+03 0.  0.
    5000001    2    3    3    0    0 -0.32007710756E+02  0.38065952032E+03  0.59216443204E+03  0.70990261922E+03  0.85888592067E+02 0.  0.
        -11    1    4    4    0    0 -0.50704164209E+02  0.26787760356E+03  0.43233905137E+03  0.51112266444E+03  0.51100000000E-03 0. -1.
     200002    1    4    4    0    0  0.18696453453E+02  0.11278191676E+03  0.15982538067E+03  0.19877995479E+03  0.30000000000E+02 0. -1.
     200000    1    3    3    0    0  0.49155779588E+01 -0.17150994938E+03  0.82540085874E+03  0.84907443917E+03  0.10100000000E+03 0.  1.
    -200001    1    1    2    0    0  0.27092132797E+02 -0.20914957094E+03 -0.13291914440E+03  0.66175072771E+03  0.61300000000E+03 0. -1.
<mgrwt>
<rscale>  0 0.18114404E+04</rscale>
<asrwt>0</asrwt>
<pdfrwt beam="1">  1        2 0.25038386E+00 0.18114404E+04</pdfrwt>
<pdfrwt beam="2">  1       -2 0.66862973E-01 0.18114404E+04</pdfrwt>
<totfact> 0.20923385E+01</totfact>
</mgrwt>
</event>
<event>
 8    1  0.6972317E-052  0.2457493E+04  0.7818608E-02  0.8418287E-01
         -2   -1    0    0    0  501 -0.00000000000E+00  0.00000000000E+00  0.14741797056E+04  0.14741797056E+04  0.25500000000E-02 0. -1.
          2   -1    0    0  501    0  0.00000000000E+00 -0.00000000000E+00 -0.10241746884E+04  0.10241746884E+04  0.25500000000E-02 0.  1.
     200001    2    1    2    0    0  0.25778886041E+02 -0.73778448067E+03 -0.55530413189E+03  0.11086040653E+04  0.61290276856E+03 0.  0.
    5000001    2    3    3    0    0 -0.65347180376E+02 -0.78162430926E+03 -0.47164019084E+03  0.94299444723E+03  0.22712825246E+03 0.  0.
        -11    1    4    4    0    0  0.66017129811E+02 -0.20847020387E+03 -0.67488374387E+02  0.22885097336E+03  0.51100000000E-03 0. -1.
     200002    1    4    4    0    0 -0.13136431019E+03 -0.57315410539E+03 -0.40415181646E+03  0.71414347387E+03  0.30000000000E+02 0. -1.
     200000    1    3    3    0    0  0.91126066417E+02  0.43839828589E+02 -0.83663941047E+02  0.16560961803E+03  0.10100000000E+03 0.  1.
    -200001    1    1    2    0    0 -0.25778886041E+02  0.73778448067E+03  0.10053091491E+04  0.13897503287E+04  0.61300000000E+03 0. -1.
<mgrwt>
<rscale>  0 0.24574927E+04</rscale>
<asrwt>0</asrwt>
<pdfrwt beam="1">  1        2 0.14631067E+00 0.24574927E+04</pdfrwt>
<pdfrwt beam="2">  1       -2 0.21059710E+00 0.24574927E+04</pdfrwt>
<totfact> 0.27708531E+00</totfact>
</mgrwt>
</event>
<event>
 8    1  0.6972317E-052  0.2197327E+04  0.7818608E-02  0.8519542E-01
          2   -1    0    0  501    0  0.00000000000E+00  0.00000000000E+00  0.28132132265E+04  0.28132132265E+04  0.25500000000E-02 0.  1.
         -2   -1    0    0    0  501 -0.00000000000E+00 -0.00000000000E+00 -0.42906850129E+03  0.42906850130E+03  0.25500000000E-02 0. -1.
     200001    2    1    2    0    0 -0.66584276649E+03  0.41624102611E+03  0.18758884202E+04  0.21239362297E+04  0.61281690693E+03 0.  0.
    5000001    2    3    3    0    0 -0.66328383781E+03  0.51920268268E+03  0.15697484161E+04  0.17855128958E+04  0.12012217123E+03 0.  0.
        -11    1    4    4    0    0 -0.42291540706E+02  0.75112871239E+02  0.13951889500E+03  0.16400012166E+03  0.51100000000E-03 0. -1.
     200002    1    4    4    0    0 -0.62099229710E+03  0.44408981144E+03  0.14302295211E+04  0.16215127741E+04  0.30000000000E+02 0. -1.
     200000    1    3    3    0    0 -0.25589286791E+01 -0.10296165657E+03  0.30614000409E+03  0.33842333393E+03  0.10100000000E+03 0.  1.
    -200001    1    1    2    0    0  0.66584276649E+03 -0.41624102611E+03  0.50825630505E+03  0.11183454981E+04  0.61300000000E+03 0. -1.
<mgrwt>
<rscale>  0 0.21973267E+04</rscale>
<asrwt>0</asrwt>
<pdfrwt beam="1">  1        2 0.40188762E+00 0.21973267E+04</pdfrwt>
<pdfrwt beam="2">  1       -2 0.61295498E-01 0.21973267E+04</pdfrwt>
<totfact> 0.68024341E+00</totfact>
</mgrwt>
</event>
<event>
 8    1  0.6972317E-052  0.1281115E+04  0.7818608E-02  0.9044677E-01
         -2   -1    0    0    0  501 -0.00000000000E+00  0.00000000000E+00  0.40238343298E+03  0.40238343298E+03  0.25500000000E-02 0. -1.
          2   -1    0    0  501    0  0.00000000000E+00 -0.00000000000E+00 -0.10197086416E+04  0.10197086416E+04  0.25500000000E-02 0.  1.
     200001    2    1    2    0    0  0.70411850389E+02 -0.17113903365E+03 -0.34206771587E+03  0.72511138275E+03  0.61198839665E+03 0.  0.
    5000001    2    3    3    0    0 -0.35745740613E+02 -0.16956180150E+03 -0.46512706114E+03  0.53375693611E+03  0.19627613543E+03 0.  0.
        -11    1    4    4    0    0  0.63908097365E+02 -0.47116633963E+02 -0.65155448085E+02  0.10271053753E+03  0.51100000000E-03 0. -1.
     200002    1    4    4    0    0 -0.99653837978E+02 -0.12244516754E+03 -0.39997161306E+03  0.43104639858E+03  0.30000000000E+02 0. -1.
     200000    1    3    3    0    0  0.10615759100E+03 -0.15772321498E+01  0.12305934527E+03  0.19135444663E+03  0.10100000000E+03 0. -1.
    -200001    1    1    2    0    0 -0.70411850389E+02  0.17113903365E+03 -0.27525749279E+03  0.69698069188E+03  0.61300000000E+03 0. -1.
<mgrwt>
<rscale>  0 0.12811149E+04</rscale>
<asrwt>0</asrwt>
<pdfrwt beam="1">  1        2 0.14567266E+00 0.12811149E+04</pdfrwt>
<pdfrwt beam="2">  1       -2 0.57483348E-01 0.12811149E+04</pdfrwt>
<totfact> 0.76040119E+01</totfact>
</mgrwt>
</event>
<event>
 8    1  0.6972317E-052  0.1447170E+04  0.7818608E-02  0.8920365E-01
         -2   -1    0    0    0  501 -0.00000000000E+00  0.00000000000E+00  0.39204077856E+03  0.39204077857E+03  0.25500000000E-02 0. -1.
          2   -1    0    0  501    0  0.00000000000E+00 -0.00000000000E+00 -0.13355119811E+04  0.13355119811E+04  0.25500000000E-02 0.  1.
     200001    2    1    2    0    0 -0.11724049960E+03  0.28290674511E+03 -0.19318319757E+03  0.71144122466E+03  0.61241106061E+03 0.  0.
    5000001    2    3    3    0    0  0.14182823215E+03  0.20913105040E+02 -0.27694375847E+03  0.32032218042E+03  0.73183662896E+02 0.  0.
        -11    1    4    4    0    0  0.34443163090E+02 -0.22071743878E+02 -0.59481783472E+02  0.72191245499E+02  0.51100000000E-03 0. -1.
     200002    1    4    4    0    0  0.10738506906E+03  0.42984848918E+02 -0.21746197500E+03  0.24813093492E+03  0.30000000000E+02 0. -1.
     200000    1    3    3    0    0 -0.25906873175E+03  0.26199364007E+03  0.83760560896E+02  0.39111904425E+03  0.10100000000E+03 0. -1.
    -200001    1    1    2    0    0  0.11724049960E+03 -0.28290674511E+03 -0.75028800496E+03  0.10161115350E+04  0.61300000000E+03 0. -1.
<mgrwt>
<rscale>  0 0.14471699E+04</rscale>
<asrwt>0</asrwt>
<pdfrwt beam="1">  1        2 0.19078742E+00 0.14471699E+04</pdfrwt>
<pdfrwt beam="2">  1       -2 0.56005826E-01 0.14471699E+04</pdfrwt>
<totfact> 0.52168390E+01</totfact>
</mgrwt>
</event>
<event>
 8    1  0.6972317E-052  0.1297907E+04  0.7818608E-02  0.9031227E-01
          2   -1    0    0  501    0  0.00000000000E+00  0.00000000000E+00  0.18289884290E+04  0.18289884290E+04  0.25500000000E-02 0.  1.
         -2   -1    0    0    0  501 -0.00000000000E+00 -0.00000000000E+00 -0.23025861661E+03  0.23025861662E+03  0.25500000000E-02 0. -1.
     200001    2    1    2    0    0  0.69900621140E+01  0.17821370941E+03  0.61812014752E+03  0.88913025572E+03  0.61373537267E+03 0.  0.
    5000001    2    3    3    0    0  0.22125459143E+03 -0.44978310899E+02  0.47640458464E+03  0.53415382380E+03  0.85920524547E+02 0.  0.
        -11    1    4    4    0    0  0.15476032364E+03  0.82482671460E+00  0.28651610186E+03  0.32564231104E+03  0.51100000000E-03 0. -1.
     200002    1    4    4    0    0  0.66494267793E+02 -0.45803137614E+02  0.18988848278E+03  0.20851151277E+03  0.30000000000E+02 0. -1.
     200000    1    3    3    0    0 -0.21426452931E+03  0.22319202031E+03  0.14171556288E+03  0.35497643192E+03  0.10100000000E+03 0. -1.
    -200001    1    1    2    0    0 -0.69900621140E+01 -0.17821370941E+03  0.98060966486E+03  0.11701167899E+04  0.61300000000E+03 0.  1.
<mgrwt>
<rscale>  0 0.12979065E+04</rscale>
<asrwt>0</asrwt>
<pdfrwt beam="1">  1        2 0.26128405E+00 0.12979065E+04</pdfrwt>
<pdfrwt beam="2">  1       -2 0.32894090E-01 0.12979065E+04</pdfrwt>
<totfact> 0.83117609E+01</totfact>
</mgrwt>
</event>
<event>
 8    1  0.6972317E-052  0.1375963E+04  0.7818608E-02  0.8971404E-01
         -2   -1    0    0    0  501 -0.00000000000E+00  0.00000000000E+00  0.30894492360E+03  0.30894492361E+03  0.25500000000E-02 0. -1.
          2   -1    0    0  501    0  0.00000000000E+00 -0.00000000000E+00 -0.15320488506E+04  0.15320488506E+04  0.25500000000E-02 0.  1.
     200001    2    1    2    0    0 -0.65649915275E+02  0.28340771100E+03 -0.45955366352E+03  0.81952040359E+03  0.61302061972E+03 0.  0.
    5000001    2    3    3    0    0 -0.15122328215E+03  0.31448925007E+02 -0.50401047978E+03  0.53145194042E+03  0.67506187129E+02 0.  0.
        -11    1    4    4    0    0 -0.69378075890E+01  0.50196051770E+01 -0.10378963458E+03  0.10414229619E+03  0.51100000000E-03 0. -1.
     200002    1    4    4    0    0 -0.14428547456E+03  0.26429319830E+02 -0.40022084520E+03  0.42730964423E+03  0.30000000000E+02 0. -1.
     200000    1    3    3    0    0  0.85573366874E+02  0.25195878600E+03  0.44456816259E+02  0.28806846317E+03  0.10100000000E+03 0. -1.
    -200001    1    1    2    0    0  0.65649915275E+02 -0.28340771100E+03 -0.76355026345E+03  0.10214733706E+04  0.61300000000E+03 0.  1.
<mgrwt>
<rscale>  0 0.13759632E+04</rscale>
<asrwt>0</asrwt>
<pdfrwt beam="1">  1        2 0.21886412E+00 0.13759632E+04</pdfrwt>
<pdfrwt beam="2">  1       -2 0.44134990E-01 0.13759632E+04</pdfrwt>
<totfact> 0.66749852E+01</totfact>
</mgrwt>
</event>
<event>
 8    1  0.6972317E-052  0.1597676E+04  0.7818608E-02  0.8821977E-01
         -2   -1    0    0    0  501 -0.00000000000E+00  0.00000000000E+00  0.78403205356E+03  0.78403205356E+03  0.25500000000E-02 0. -1.
          2   -1    0    0  501    0  0.00000000000E+00 -0.00000000000E+00 -0.81392393896E+03  0.81392393896E+03  0.25500000000E-02 0.  1.
     200001    2    1    2    0    0 -0.36784541188E+03 -0.32362606260E+03 -0.16573068217E+03  0.80154827399E+03  0.61234704301E+03 0.  0.
    5000001    2    3    3    0    0 -0.34412476690E+03 -0.78584244297E+02 -0.32790888333E+03  0.48992200640E+03  0.88893182804E+02 0.  0.
        -11    1    4    4    0    0 -0.39748674114E+01 -0.49918866451E+01  0.44344989118E+01  0.77706681872E+01  0.51100000000E-03 0. -1.
     200002    1    4    4    0    0 -0.34014989949E+03 -0.73592357651E+02 -0.33234338224E+03  0.48215133822E+03  0.30000000000E+02 0. -1.
     200000    1    3    3    0    0 -0.23720644979E+02 -0.24504181831E+03  0.16217820116E+03  0.31162626758E+03  0.10100000000E+03 0. -1.
    -200001    1    1    2    0    0  0.36784541188E+03  0.32362606260E+03  0.13583879677E+03  0.79640771854E+03  0.61300000000E+03 0.  1.
<mgrwt>
<rscale>  0 0.15976764E+04</rscale>
<asrwt>0</asrwt>
<pdfrwt beam="1">  1        2 0.11627485E+00 0.15976764E+04</pdfrwt>
<pdfrwt beam="2">  1       -2 0.11200458E+00 0.15976764E+04</pdfrwt>
<totfact> 0.22471236E+01</totfact>
</mgrwt>
</event>
<event>
 8    1  0.6972317E-052  0.1535686E+04  0.7818608E-02  0.8861063E-01
         -2   -1    0    0    0  501 -0.00000000000E+00  0.00000000000E+00  0.10856535427E+03  0.10856535430E+03  0.25500000000E-02 0. -1.
          2   -1    0    0  501    0  0.00000000000E+00 -0.00000000000E+00 -0.54306691488E+04  0.54306691488E+04  0.25500000000E-02 0.  1.
     200001    2    1    2    0    0  0.22313200824E+03 -0.38907756649E+03 -0.30670012723E+04  0.31596493226E+04  0.61295822956E+03 0.  0.
    5000001    2    3    3    0    0  0.56020213194E+02 -0.47077309431E+03 -0.15192762226E+04  0.15975179769E+04  0.13819506339E+03 0.  0.
        -11    1    4    4    0    0  0.88783665869E+02 -0.19202415565E+03 -0.64808806728E+03  0.68174332313E+03  0.51100000000E-03 0. -1.
     200002    1    4    4    0    0 -0.32763452674E+02 -0.27874893866E+03 -0.87118815529E+03  0.91577465381E+03  0.30000000000E+02 0. -1.
     200000    1    3    3    0    0  0.16711179505E+03  0.81695527825E+02 -0.15477250498E+04  0.15621313456E+04  0.10100000000E+03 0.  1.
    -200001    1    1    2    0    0 -0.22313200824E+03  0.38907756649E+03 -0.22551025221E+04  0.23795851805E+04  0.61300000000E+03 0. -1.
<mgrwt>
<rscale>  0 0.15356855E+04</rscale>
<asrwt>0</asrwt>
<pdfrwt beam="1">  1        2 0.77580971E+00 0.15356855E+04</pdfrwt>
<pdfrwt beam="2">  1       -2 0.15509340E-01 0.15356855E+04</pdfrwt>
<totfact> 0.10201313E+00</totfact>
</mgrwt>
</event>
<event>
 8    1  0.6972317E-052  0.1440177E+04  0.7818608E-02  0.8925239E-01
         -2   -1    0    0    0  501 -0.00000000000E+00  0.00000000000E+00  0.29302482095E+03  0.29302482096E+03  0.25500000000E-02 0. -1.
          2   -1    0    0  501    0  0.00000000000E+00 -0.00000000000E+00 -0.17695674293E+04  0.17695674293E+04  0.25500000000E-02 0.  1.
     200001    2    1    2    0    0  0.10422612240E+03  0.95100549308E+02 -0.12338536118E+04  0.13883711084E+04  0.62070314987E+03 0.  0.
    5000001    2    3    3    0    0  0.44942642520E+02 -0.11603883552E+03 -0.96723171616E+03  0.10286731712E+04  0.32733232028E+03 0.  0.
        -11    1    4    4    0    0  0.11500138832E+03  0.55610112489E+01 -0.10907192188E+03  0.15859674746E+03  0.51100000000E-03 0. -1.
     200002    1    4    4    0    0 -0.70058745800E+02 -0.12159984677E+03 -0.85815979428E+03  0.87007642372E+03  0.30000000000E+02 0. -1.
     200000    1    3    3    0    0  0.59283479885E+02  0.21113938483E+03 -0.26662189563E+03  0.35969793722E+03  0.10100000000E+03 0.  1.
    -200001    1    1    2    0    0 -0.10422612240E+03 -0.95100549308E+02 -0.24268899655E+03  0.67422114185E+03  0.61300000000E+03 0. -1.
<mgrwt>
<rscale>  0 0.14401766E+04</rscale>
<asrwt>0</asrwt>
<pdfrwt beam="1">  1        2 0.25279534E+00 0.14401766E+04</pdfrwt>
<pdfrwt beam="2">  1       -2 0.41860690E-01 0.14401766E+04</pdfrwt>
<totfact> 0.55437355E+01</totfact>
</mgrwt>
</event>
<event>
 8    1  0.6972317E-052  0.1269963E+04  0.7818608E-02  0.9053730E-01
          2   -1    0    0  501    0  0.00000000000E+00  0.00000000000E+00  0.16338008409E+04  0.16338008409E+04  0.25500000000E-02 0.  1.
         -2   -1    0    0    0  501 -0.00000000000E+00 -0.00000000000E+00 -0.24678732362E+03  0.24678732363E+03  0.25500000000E-02 0. -1.
     200001    2    1    2    0    0  0.84519098789E+02  0.73040398574E+02  0.51071604108E+03  0.80534649650E+03  0.61259589202E+03 0.  0.
    5000001    2    3    3    0    0  0.31830665978E+03 -0.55383263770E+02  0.28682802810E+03  0.44275016022E+03  0.96803672990E+02 0.  0.
        -11    1    4    4    0    0  0.29067282070E+02 -0.32290818885E+02  0.21717310762E+02  0.48572064586E+02  0.51100000000E-03 0. -1.
     200002    1    4    4    0    0  0.28923937771E+03 -0.23092444885E+02  0.26511071734E+03  0.39417809564E+03  0.30000000000E+02 0. -1.
     200000    1    3    3    0    0 -0.23378756099E+03  0.12842366234E+03  0.22388801298E+03  0.36259633628E+03  0.10100000000E+03 0. -1.
    -200001    1    1    2    0    0 -0.84519098789E+02 -0.73040398574E+02  0.87629747619E+03  0.10752416680E+04  0.61300000000E+03 0.  1.
<mgrwt>
<rscale>  0 0.12699627E+04</rscale>
<asrwt>0</asrwt>
<pdfrwt beam="1">  1        2 0.23340011E+00 0.12699627E+04</pdfrwt>
<pdfrwt beam="2">  1       -2 0.35255333E-01 0.12699627E+04</pdfrwt>
<totfact> 0.92144188E+01</totfact>
</mgrwt>
</event>
<event>
 8    1  0.6972317E-052  0.1949103E+04  0.7818608E-02  0.8630793E-01
         -2   -1    0    0    0  501 -0.00000000000E+00  0.00000000000E+00  0.24088075834E+04  0.24088075834E+04  0.25500000000E-02 0. -1.
          2   -1    0    0  501    0  0.00000000000E+00 -0.00000000000E+00 -0.39428266083E+03  0.39428266083E+03  0.25500000000E-02 0.  1.
     200001    2    1    2    0    0  0.12668823257E+03  0.35025572625E+03  0.58433839544E+02  0.71963390749E+03  0.61296775214E+03 0.  0.
    5000001    2    3    3    0    0  0.98351627680E+02  0.51078515183E+03  0.40664291815E+02  0.52704778005E+03  0.74506803887E+02 0.  0.
        -11    1    4    4    0    0  0.32607463918E+02  0.27651500156E+03  0.43859036521E+02  0.28186416564E+03  0.51100000000E-03 0. -1.
     200002    1    4    4    0    0  0.65744163762E+02  0.23427015028E+03 -0.31947447066E+01  0.24518361441E+03  0.30000000000E+02 0. -1.
     200000    1    3    3    0    0  0.28336604890E+02 -0.16052942559E+03  0.17769547729E+02  0.19258612744E+03  0.10100000000E+03 0. -1.
    -200001    1    1    2    0    0 -0.12668823257E+03 -0.35025572625E+03  0.19560910831E+04  0.20834563368E+04  0.61300000000E+03 0.  1.
<mgrwt>
<rscale>  0 0.19491034E+04</rscale>
<asrwt>0</asrwt>
<pdfrwt beam="1">  1        2 0.56326094E-01 0.19491034E+04</pdfrwt>
<pdfrwt beam="2">  1       -2 0.34411537E+00 0.19491034E+04</pdfrwt>
<totfact> 0.13969923E+00</totfact>
</mgrwt>
</event>
<event>
 8    1  0.6972317E-052  0.1688705E+04  0.7818608E-02  0.8767832E-01
          2   -1    0    0  501    0  0.00000000000E+00  0.00000000000E+00  0.10863789994E+04  0.10863789994E+04  0.25500000000E-02 0.  1.
         -2   -1    0    0    0  501 -0.00000000000E+00 -0.00000000000E+00 -0.65624555641E+03  0.65624555641E+03  0.25500000000E-02 0. -1.
     200001    2    1    2    0    0 -0.18596978141E+03  0.40040167515E+03  0.60385521559E+03  0.96747649560E+03  0.61356612283E+03 0.  0.
    5000001    2    3    3    0    0 -0.31030733735E+03  0.38967687580E+03  0.62298250838E+03  0.80579253700E+03  0.11426152372E+03 0.  0.
        -11    1    4    4    0    0 -0.12765356548E+03  0.85852487474E+02  0.16076718559E+03  0.22251330376E+03  0.51100000000E-03 0. -1.
     200002    1    4    4    0    0 -0.18265377186E+03  0.30382438832E+03  0.46221532279E+03  0.58327923325E+03  0.30000000000E+02 0. -1.
     200000    1    3    3    0    0  0.12433755594E+03  0.10724799350E+02 -0.19127292788E+02  0.16168395860E+03  0.10100000000E+03 0. -1.
    -200001    1    1    2    0    0  0.18596978141E+03 -0.40040167515E+03 -0.17372177256E+03  0.77514806025E+03  0.61300000000E+03 0. -1.
<mgrwt>
<rscale>  0 0.16887053E+04</rscale>
<asrwt>0</asrwt>
<pdfrwt beam="1">  1        2 0.15519700E+00 0.16887053E+04</pdfrwt>
<pdfrwt beam="2">  1       -2 0.93749365E-01 0.16887053E+04</pdfrwt>
<totfact> 0.22853702E+01</totfact>
</mgrwt>
</event>
<event>
 8    1  0.6972317E-052  0.1415644E+04  0.7818608E-02  0.8942572E-01
         -2   -1    0    0    0  501 -0.00000000000E+00  0.00000000000E+00  0.14822136462E+03  0.14822136464E+03  0.25500000000E-02 0. -1.
          2   -1    0    0  501    0  0.00000000000E+00 -0.00000000000E+00 -0.33801611809E+04  0.33801611809E+04  0.25500000000E-02 0.  1.
     200001    2    1    2    0    0  0.21151192926E+03 -0.27877283829E+03 -0.14890869861E+04  0.16480217878E+04  0.61330593453E+03 0.  0.
    5000001    2    3    3    0    0  0.16214322402E+03 -0.28405907565E+03 -0.29552192016E+03  0.44916242157E+03  0.86218861665E+02 0.  0.
        -11    1    4    4    0    0  0.86869766918E+02 -0.21326039569E+03 -0.19146659076E+03  0.29947588910E+03  0.51100000000E-03 0. -1.
     200002    1    4    4    0    0  0.75273457105E+02 -0.70798679956E+02 -0.10405532940E+03  0.14968653247E+03  0.30000000000E+02 0.  1.
     200000    1    3    3    0    0  0.49368705237E+02  0.52862373615E+01 -0.11935650659E+04  0.11988593662E+04  0.10100000000E+03 0.  1.
    -200001    1    1    2    0    0 -0.21151192926E+03  0.27877283829E+03 -0.17428528302E+04  0.18803607578E+04  0.61300000000E+03 0. -1.
<mgrwt>
<rscale>  0 0.14156442E+04</rscale>
<asrwt>0</asrwt>
<pdfrwt beam="1">  1        2 0.48288012E+00 0.14156442E+04</pdfrwt>
<pdfrwt beam="2">  1       -2 0.21174483E-01 0.14156442E+04</pdfrwt>
<totfact> 0.27020287E+01</totfact>
</mgrwt>
</event>
<event>
 8    1  0.6972317E-052  0.1572277E+04  0.7818608E-02  0.8837762E-01
          2   -1    0    0  501    0  0.00000000000E+00  0.00000000000E+00  0.29486200157E+04  0.29486200158E+04  0.25500000000E-02 0.  1.
         -2   -1    0    0    0  501 -0.00000000000E+00 -0.00000000000E+00 -0.20959430289E+03  0.20959430290E+03  0.25500000000E-02 0. -1.
     200001    2    1    2    0    0  0.21899615054E+03  0.24987725236E+03  0.20988415752E+04  0.22116401349E+04  0.61304010755E+03 0.  0.
    5000001    2    3    3    0    0  0.11643553707E+03 -0.11922266790E+03  0.32051663664E+03  0.38971971470E+03  0.14621649300E+03 0.  0.
        -11    1    4    4    0    0  0.11352498644E+03 -0.62130890204E+02  0.29150520831E+03  0.31894114902E+03  0.51100000000E-03 0. -1.
     200002    1    4    4    0    0  0.29105506383E+01 -0.57091777701E+02  0.29011428328E+02  0.70778565680E+02  0.30000000000E+02 0. -1.
     200000    1    3    3    0    0  0.10256061347E+03  0.36909992027E+03  0.17783249385E+04  0.18219204202E+04  0.10100000000E+03 0.  1.
    -200001    1    1    2    0    0 -0.21899615054E+03 -0.24987725236E+03  0.64018413771E+03  0.94657418377E+03  0.61300000000E+03 0. -1.
<mgrwt>
<rscale>  0 0.15722773E+04</rscale>
<asrwt>0</asrwt>
<pdfrwt beam="1">  1        2 0.42123140E+00 0.15722773E+04</pdfrwt>
<pdfrwt beam="2">  1       -2 0.29942045E-01 0.15722773E+04</pdfrwt>
<totfact> 0.25058046E+01</totfact>
</mgrwt>
</event>
<event>
 8    1  0.6972317E-052  0.1446888E+04  0.7818608E-02  0.8920561E-01
          2   -1    0    0  501    0  0.00000000000E+00  0.00000000000E+00  0.25944513427E+04  0.25944513427E+04  0.25500000000E-02 0.  1.
         -2   -1    0    0    0  501 -0.00000000000E+00 -0.00000000000E+00 -0.20172701422E+03  0.20172701424E+03  0.25500000000E-02 0. -1.
     200001    2    1    2    0    0 -0.27670756160E+03  0.26599235108E+03  0.11301070135E+04  0.13410871263E+04  0.61159938918E+03 0.  0.
    5000001    2    3    3    0    0 -0.18914958457E+02  0.30858136690E+03  0.27279233170E+03  0.43916677828E+03  0.15123348590E+03 0.  0.
        -11    1    4    4    0    0 -0.18472465289E+02  0.25609419373E+03  0.27806725728E+03  0.37847967925E+03  0.51100000000E-03 0. -1.
     200002    1    4    4    0    0 -0.44249316817E+00  0.52487173177E+02 -0.52749255855E+01  0.60687099027E+02  0.30000000000E+02 0. -1.
     200000    1    3    3    0    0 -0.25779260314E+03 -0.42589015827E+02  0.85731468183E+03  0.90192034803E+03  0.10100000000E+03 0.  1.
    -200001    1    1    2    0    0  0.27670756160E+03 -0.26599235108E+03  0.12626173150E+04  0.14550912307E+04  0.61300000000E+03 0.  1.
<mgrwt>
<rscale>  0 0.14468876E+04</rscale>
<asrwt>0</asrwt>
<pdfrwt beam="1">  1        2 0.37063592E+00 0.14468876E+04</pdfrwt>
<pdfrwt beam="2">  1       -2 0.28818144E-01 0.14468876E+04</pdfrwt>
<totfact> 0.42258665E+01</totfact>
</mgrwt>
</event>
<event>
 8    1  0.6972317E-052  0.1714526E+04  0.7818608E-02  0.8753123E-01
          2   -1    0    0  501    0  0.00000000000E+00  0.00000000000E+00  0.26748123037E+04  0.26748123037E+04  0.25500000000E-02 0.  1.
         -2   -1    0    0    0  501 -0.00000000000E+00 -0.00000000000E+00 -0.27474822159E+03  0.27474822160E+03  0.25500000000E-02 0. -1.
     200001    2    1    2    0    0  0.13994124033E+03  0.55443039448E+03  0.15089242338E+04  0.17260917507E+04  0.61283258365E+03 0.  0.
    5000001    2    3    3    0    0  0.10691163884E+03 -0.75841998266E+02  0.56361676122E+03  0.58497761915E+03  0.85748785124E+02 0.  0.
        -11    1    4    4    0    0 -0.58346734326E+01  0.96357441790E+01  0.28100328603E+02  0.30274072204E+02  0.51100000000E-03 0. -1.
     200002    1    4    4    0    0  0.11274631227E+03 -0.85477742445E+02  0.53551643262E+03  0.55470354694E+03  0.30000000000E+02 0. -1.
     200000    1    3    3    0    0  0.33029601489E+02  0.63027239274E+03  0.94530747257E+03  0.11411141316E+04  0.10100000000E+03 0.  1.
    -200001    1    1    2    0    0 -0.13994124033E+03 -0.55443039448E+03  0.89113984833E+03  0.12234687746E+04  0.61300000000E+03 0. -1.
<mgrwt>
<rscale>  0 0.17145261E+04</rscale>
<asrwt>0</asrwt>
<pdfrwt beam="1">  1        2 0.38211607E+00 0.17145261E+04</pdfrwt>
<pdfrwt beam="2">  1       -2 0.39249744E-01 0.17145261E+04</pdfrwt>
<totfact> 0.20826929E+01</totfact>
</mgrwt>
</event>
<event>
 8    1  0.6972317E-052  0.1775495E+04  0.7818608E-02  0.8719441E-01
          2   -1    0    0  501    0  0.00000000000E+00  0.00000000000E+00  0.14057790655E+04  0.14057790655E+04  0.25500000000E-02 0.  1.
         -2   -1    0    0    0  501 -0.00000000000E+00 -0.00000000000E+00 -0.56061122314E+03  0.56061122315E+03  0.25500000000E-02 0. -1.
     200001    2    1    2    0    0 -0.70180078578E+01 -0.44638912094E+03 -0.88249424985E+02  0.76374765899E+03  0.61335962198E+03 0.  0.
    5000001    2    3    3    0    0 -0.55786956548E+02 -0.44584902350E+03 -0.28588219032E+03  0.53650679120E+03  0.64941311905E+02 0.  0.
        -11    1    4    4    0    0 -0.87664453918E+01 -0.22659222825E+03 -0.12537428088E+03  0.25911310035E+03  0.51100000000E-03 0. -1.
     200002    1    4    4    0    0 -0.47020511157E+02 -0.21925679525E+03 -0.16050790944E+03  0.27739369085E+03  0.30000000000E+02 0.  1.
     200000    1    3    3    0    0  0.48768948691E+02 -0.54009744226E+00  0.19763276533E+03  0.22724086779E+03  0.10100000000E+03 0. -1.
    -200001    1    1    2    0    0  0.70180078578E+01  0.44638912094E+03  0.93341726738E+03  0.12026426297E+04  0.61300000000E+03 0.  1.
<mgrwt>
<rscale>  0 0.17754949E+04</rscale>
<asrwt>0</asrwt>
<pdfrwt beam="1">  1        2 0.20082558E+00 0.17754949E+04</pdfrwt>
<pdfrwt beam="2">  1       -2 0.80087318E-01 0.17754949E+04</pdfrwt>
<totfact> 0.21490470E+01</totfact>
</mgrwt>
</event>
<event>
 8    1  0.6972317E-052  0.1789088E+04  0.7818608E-02  0.8712124E-01
          2   -1    0    0  501    0  0.00000000000E+00  0.00000000000E+00  0.51945254241E+03  0.51945254242E+03  0.25500000000E-02 0.  1.
         -2   -1    0    0    0  501 -0.00000000000E+00 -0.00000000000E+00 -0.15404853528E+04  0.15404853528E+04  0.25500000000E-02 0. -1.
     200001    2    1    2    0    0  0.25274824941E+03 -0.44569732690E+03 -0.45625863589E+02  0.79909869189E+03  0.61151387161E+03 0.  0.
    5000001    2    3    3    0    0  0.41831922665E+02 -0.51721225714E+03  0.64761768825E+02  0.53079567006E+03  0.91057827585E+02 0.  0.
        -11    1    4    4    0    0  0.19351325196E+02 -0.44272690059E+03  0.48013776403E+02  0.44574309307E+03  0.51100000000E-03 0. -1.
     200002    1    4    4    0    0  0.22480597469E+02 -0.74485356545E+02  0.16747992422E+02  0.85052576988E+02  0.30000000000E+02 0.  1.
     200000    1    3    3    0    0  0.21091632675E+03  0.71514930240E+02 -0.11038763241E+03  0.26830302183E+03  0.10100000000E+03 0. -1.
    -200001    1    1    2    0    0 -0.25274824941E+03  0.44569732690E+03 -0.97540694679E+03  0.12608392033E+04  0.61300000000E+03 0.  1.
<mgrwt>
<rscale>  0 0.17890881E+04</rscale>
<asrwt>0</asrwt>
<pdfrwt beam="1">  1        2 0.74207507E-01 0.17890881E+04</pdfrwt>
<pdfrwt beam="2">  1       -2 0.22006933E+00 0.17890881E+04</pdfrwt>
<totfact> 0.60072482E+00</totfact>
</mgrwt>
</event>
<event>
 8    1  0.6972317E-052  0.1310008E+04  0.7818608E-02  0.9021666E-01
         -2   -1    0    0    0  501 -0.00000000000E+00  0.00000000000E+00  0.18348513835E+03  0.18348513837E+03  0.25500000000E-02 0.  1.
          2   -1    0    0  501    0  0.00000000000E+00 -0.00000000000E+00 -0.23382274482E+04  0.23382274482E+04  0.25500000000E-02 0. -1.
     200001    2    1    2    0    0  0.17438336026E+03 -0.30448374457E+02 -0.79449239171E+03  0.10192527703E+04  0.61345039682E+03 0.  0.
    5000001    2    3    3    0    0 -0.98256734839E+02  0.13246832239E+03 -0.26861541627E+02  0.18239400466E+03  0.73101218446E+02 0.  0.
        -11    1    4    4    0    0 -0.89355334359E+02  0.11014085800E+03 -0.18231817230E+02  0.14299574658E+03  0.51100000000E-03 0. -1.
     200002    1    4    4    0    0 -0.89014004793E+01  0.22327464392E+02 -0.86297243978E+01  0.39398258082E+02  0.30000000000E+02 0.  1.
     200000    1    3    3    0    0  0.27264009510E+03 -0.16291669685E+03 -0.76763085008E+03  0.83685876560E+03  0.10100000000E+03 0. -1.
    -200001    1    1    2    0    0 -0.17438336026E+03  0.30448374457E+02 -0.13602499181E+04  0.15024598163E+04  0.61300000000E+03 0. -1.
<mgrwt>
<rscale>  0 0.13100076E+04</rscale>
<asrwt>0</asrwt>
<pdfrwt beam="1">  1        2 0.33403248E+00 0.13100076E+04</pdfrwt>
<pdfrwt beam="2">  1       -2 0.26212164E-01 0.13100076E+04</pdfrwt>
<totfact> 0.69263568E+01</totfact>
</mgrwt>
</event>
<event>
 8    1  0.6972317E-052  0.1260389E+04  0.7818608E-02  0.9061581E-01
         -2   -1    0    0    0  501 -0.00000000000E+00  0.00000000000E+00  0.12762848545E+04  0.12762848545E+04  0.25500000000E-02 0. -1.
          2   -1    0    0  501    0  0.00000000000E+00 -0.00000000000E+00 -0.31117282406E+03  0.31117282407E+03  0.25500000000E-02 0.  1.
     200001    2    1    2    0    0 -0.48478920612E+02 -0.13815246859E+03  0.48124987673E+03  0.79289623090E+03  0.61290021929E+03 0.  0.
    5000001    2    3    3    0    0 -0.13222273273E+03 -0.30844267369E+03  0.45759406778E+03  0.57662700675E+03  0.10240429699E+03 0.  0.
        -11    1    4    4    0    0 -0.27284419761E+02 -0.49021010122E+02  0.14773558097E+03  0.15802943043E+03  0.51100000000E-03 0. -1.
     200002    1    4    4    0    0 -0.10493831296E+03 -0.25942166357E+03  0.30985848680E+03  0.41859757632E+03  0.30000000000E+02 0. -1.
     200000    1    3    3    0    0  0.83743812114E+02  0.17029020510E+03  0.23655808956E+02  0.21626922416E+03  0.10100000000E+03 0.  1.
    -200001    1    1    2    0    0  0.48478920612E+02  0.13815246859E+03  0.48386215370E+03  0.79456144766E+03  0.61300000000E+03 0.  1.
<mgrwt>
<rscale>  0 0.12603891E+04</rscale>
<asrwt>0</asrwt>
<pdfrwt beam="1">  1        2 0.44453261E-01 0.12603891E+04</pdfrwt>
<pdfrwt beam="2">  1       -2 0.18232641E+00 0.12603891E+04</pdfrwt>
<totfact> 0.19670352E+01</totfact>
</mgrwt>
</event>
<event>
 8    1  0.6972317E-052  0.1615310E+04  0.7818608E-02  0.8811197E-01
          2   -1    0    0  501    0  0.00000000000E+00  0.00000000000E+00  0.15125458525E+04  0.15125458525E+04  0.25500000000E-02 0.  1.
         -2   -1    0    0    0  501 -0.00000000000E+00 -0.00000000000E+00 -0.43126390301E+03  0.43126390302E+03  0.25500000000E-02 0. -1.
     200001    2    1    2    0    0 -0.15279152844E+03  0.43158744412E+03  0.85147200186E+03  0.11449389368E+04  0.61340657469E+03 0.  0.
    5000001    2    3    3    0    0  0.10055259838E+03 -0.97678901833E+02  0.28068761411E+03  0.32013476070E+03  0.63629673811E+02 0.  0.
        -11    1    4    4    0    0  0.43203356734E+02 -0.44842084445E+02  0.17280881622E+03  0.18368513694E+03  0.51100000000E-03 0. -1.
     200002    1    4    4    0    0  0.57349241642E+02 -0.52836817388E+02  0.10787879789E+03  0.13644962375E+03  0.30000000000E+02 0. -1.
     200000    1    3    3    0    0 -0.25334412681E+03  0.52926634595E+03  0.57078438775E+03  0.82480417606E+03  0.10100000000E+03 0.  1.
    -200001    1    1    2    0    0  0.15279152844E+03 -0.43158744412E+03  0.22980994766E+03  0.79887081880E+03  0.61300000000E+03 0. -1.
<mgrwt>
<rscale>  0 0.16153098E+04</rscale>
<asrwt>0</asrwt>
<pdfrwt beam="1">  1        2 0.21607798E+00 0.16153098E+04</pdfrwt>
<pdfrwt beam="2">  1       -2 0.61609128E-01 0.16153098E+04</pdfrwt>
<totfact> 0.33827663E+01</totfact>
</mgrwt>
</event>
<event>
 8    1  0.6972317E-052  0.1370917E+04  0.7818608E-02  0.8975143E-01
         -2   -1    0    0    0  501 -0.00000000000E+00  0.00000000000E+00  0.18232899269E+03  0.18232899270E+03  0.25500000000E-02 0. -1.
          2   -1    0    0  501    0  0.00000000000E+00 -0.00000000000E+00 -0.25769539565E+04  0.25769539565E+04  0.25500000000E-02 0.  1.
     200001    2    1    2    0    0  0.13006064068E+03 -0.13756541378E+03 -0.71169837925E+03  0.95821357176E+03  0.61304049847E+03 0.  0.
    5000001    2    3    3    0    0 -0.61372506133E+02  0.26316736372E+02 -0.66868055152E+03  0.68333988743E+03  0.12393775315E+03 0.  0.
        -11    1    4    4    0    0  0.46505241075E+01 -0.32875451757E+02 -0.33915133262E+03  0.34077272355E+03  0.51100000000E-03 0. -1.
     200002    1    4    4    0    0 -0.66023030240E+02  0.59192188129E+02 -0.32952921890E+03  0.34256716388E+03  0.30000000000E+02 0. -1.
     200000    1    3    3    0    0  0.19143314681E+03 -0.16388215015E+03 -0.43017827734E+02  0.27487368433E+03  0.10100000000E+03 0. -1.
    -200001    1    1    2    0    0 -0.13006064068E+03  0.13756541378E+03 -0.16829265846E+04  0.18010693775E+04  0.61300000000E+03 0.  1.
<mgrwt>
<rscale>  0 0.13709171E+04</rscale>
<asrwt>0</asrwt>
<pdfrwt beam="1">  1        2 0.36813626E+00 0.13709171E+04</pdfrwt>
<pdfrwt beam="2">  1       -2 0.26047001E-01 0.13709171E+04</pdfrwt>
<totfact> 0.52309761E+01</totfact>
</mgrwt>
</event>
<event>
 8    1  0.6972317E-052  0.4343227E+04  0.7818608E-02  0.7938673E-01
          2   -1    0    0  501    0  0.00000000000E+00  0.00000000000E+00  0.14213250720E+04  0.14213250721E+04  0.25500000000E-02 0.  1.
         -2   -1    0    0    0  501 -0.00000000000E+00 -0.00000000000E+00 -0.33179639052E+04  0.33179639052E+04  0.25500000000E-02 0. -1.
     200001    2    1    2    0    0 -0.80384103862E+03  0.10252204994E+04  0.82535910330E+03  0.16599580022E+04  0.61400768061E+03 0.  0.
    5000001    2    3    3    0    0 -0.30678231830E+03  0.26816662292E+02  0.21192243523E+03  0.38309342865E+03  0.83755192801E+02 0.  0.
        -11    1    4    4    0    0 -0.39442091819E+01  0.15621788001E+01  0.24355099110E+02  0.24721813073E+02  0.51100000000E-03 0. -1.
     200002    1    4    4    0    0 -0.30283810912E+03  0.25254483492E+02  0.18756733612E+03  0.35837161557E+03  0.30000000000E+02 0. -1.
     200000    1    3    3    0    0 -0.49705872033E+03  0.99840383715E+03  0.61343666807E+03  0.12768645736E+04  0.10100000000E+03 0.  1.
    -200001    1    1    2    0    0  0.80384103862E+03 -0.10252204994E+04 -0.27219979365E+04  0.30793309751E+04  0.61300000000E+03 0. -1.
<mgrwt>
<rscale>  0 0.43432270E+04</rscale>
<asrwt>0</asrwt>
<pdfrwt beam="1">  1        2 0.20304644E+00 0.43432270E+04</pdfrwt>
<pdfrwt beam="2">  1       -2 0.47399484E+00 0.43432270E+04</pdfrwt>
<totfact> 0.30222168E-02</totfact>
</mgrwt>
</event>
<event>
 8    1  0.6972317E-052  0.1329857E+04  0.7818608E-02  0.9006218E-01
          2   -1    0    0  501    0  0.00000000000E+00  0.00000000000E+00  0.16904938640E+04  0.16904938640E+04  0.25500000000E-02 0.  1.
         -2   -1    0    0    0  501 -0.00000000000E+00 -0.00000000000E+00 -0.26153876988E+03  0.26153876989E+03  0.25500000000E-02 0. -1.
     200001    2    1    2    0    0 -0.10552507861E+03 -0.69277029465E+02  0.38547224735E+03  0.73524986754E+03  0.61324437642E+03 0.  0.
    5000001    2    3    3    0    0 -0.21781617407E+03  0.50581988733E+02  0.46651675854E+03  0.52609756141E+03  0.95594638200E+02 0.  0.
        -11    1    4    4    0    0 -0.76426576989E+02  0.57284132313E+02  0.22689986856E+03  0.24618294791E+03  0.51100000000E-03 0. -1.
     200002    1    4    4    0    0 -0.14138959709E+03 -0.67021435801E+01  0.23961688998E+03  0.27991461351E+03  0.30000000000E+02 0. -1.
     200000    1    3    3    0    0  0.11229109546E+03 -0.11985901820E+03 -0.81044511188E+02  0.20915230612E+03  0.10100000000E+03 0. -1.
    -200001    1    1    2    0    0  0.10552507861E+03  0.69277029465E+02  0.10434828468E+04  0.12167827664E+04  0.61300000000E+03 0.  1.
<mgrwt>
<rscale>  0 0.13298567E+04</rscale>
<asrwt>0</asrwt>
<pdfrwt beam="1">  1        2 0.24149912E+00 0.13298567E+04</pdfrwt>
<pdfrwt beam="2">  1       -2 0.37362681E-01 0.13298567E+04</pdfrwt>
<totfact> 0.76671927E+01</totfact>
</mgrwt>
</event>
<event>
 8    1  0.6972317E-052  0.1768822E+04  0.7818608E-02  0.8723058E-01
          2   -1    0    0  501    0  0.00000000000E+00  0.00000000000E+00  0.21775848963E+04  0.21775848963E+04  0.25500000000E-02 0.  1.
         -2   -1    0    0    0  501 -0.00000000000E+00 -0.00000000000E+00 -0.35919727367E+03  0.35919727368E+03  0.25500000000E-02 0. -1.
     200001    2    1    2    0    0 -0.54895695118E+03 -0.19746188499E+03  0.54201144140E+03  0.10053612330E+04  0.61370178091E+03 0.  0.
    5000001    2    3    3    0    0 -0.45558808060E+02 -0.27992662130E+03  0.33515485038E+03  0.44571779964E+03  0.76818388926E+02 0.  0.
        -11    1    4    4    0    0 -0.19802299690E+02 -0.18641443973E+03  0.25429511179E+03  0.31592479848E+03  0.51100000000E-03 0. -1.
     200002    1    4    4    0    0 -0.25756508370E+02 -0.93512181567E+02  0.80859738589E+02  0.12979300116E+03  0.30000000000E+02 0. -1.
     200000    1    3    3    0    0 -0.50339814312E+03  0.82464736308E+02  0.20685659102E+03  0.55964343334E+03  0.10100000000E+03 0.  1.
    -200001    1    1    2    0    0  0.54895695118E+03  0.19746188499E+03  0.12763761813E+04  0.15314209370E+04  0.61300000000E+03 0. -1.
<mgrwt>
<rscale>  0 0.17688217E+04</rscale>
<asrwt>0</asrwt>
<pdfrwt beam="1">  1        2 0.31108356E+00 0.17688217E+04</pdfrwt>
<pdfrwt beam="2">  1       -2 0.51313896E-01 0.17688217E+04</pdfrwt>
<totfact> 0.22120099E+01</totfact>
</mgrwt>
</event>
<event>
 8    1  0.6972317E-052  0.1504458E+04  0.7818608E-02  0.8881494E-01
          2   -1    0    0  501    0  0.00000000000E+00  0.00000000000E+00  0.72386010814E+03  0.72386010814E+03  0.25500000000E-02 0.  1.
         -2   -1    0    0    0  501 -0.00000000000E+00 -0.00000000000E+00 -0.78170939925E+03  0.78170939926E+03  0.25500000000E-02 0. -1.
     200001    2    1    2    0    0  0.18589853290E+03 -0.35301759061E+03  0.14713755085E+03  0.74598522031E+03  0.61291500736E+03 0.  0.
    5000001    2    3    3    0    0  0.36376209948E+03 -0.13066527809E+03  0.19634565046E+03  0.43988321727E+03  0.74493962604E+02 0.  0.
        -11    1    4    4    0    0  0.24862935614E+03 -0.61938688385E+02  0.12855949320E+03  0.28667141669E+03  0.51100000000E-03 0. -1.
     200002    1    4    4    0    0  0.11513274334E+03 -0.68726589704E+02  0.67786157262E+02  0.15321180058E+03  0.30000000000E+02 0. -1.
     200000    1    3    3    0    0 -0.17786356658E+03 -0.22235231252E+03 -0.49208099607E+02  0.30610200304E+03  0.10100000000E+03 0. -1.
    -200001    1    1    2    0    0 -0.18589853290E+03  0.35301759061E+03 -0.20498684197E+03  0.75958428709E+03  0.61300000000E+03 0. -1.
<mgrwt>
<rscale>  0 0.15044577E+04</rscale>
<asrwt>0</asrwt>
<pdfrwt beam="1">  1        2 0.10340859E+00 0.15044577E+04</pdfrwt>
<pdfrwt beam="2">  1       -2 0.11167277E+00 0.15044577E+04</pdfrwt>
<totfact> 0.26464377E+01</totfact>
</mgrwt>
</event>
<event>
 8    1  0.6972317E-052  0.1353655E+04  0.7818608E-02  0.8988066E-01
         -2   -1    0    0    0  501 -0.00000000000E+00  0.00000000000E+00  0.88273932018E+03  0.88273932018E+03  0.25500000000E-02 0.  1.
          2   -1    0    0  501    0  0.00000000000E+00 -0.00000000000E+00 -0.51894779497E+03  0.51894779497E+03  0.25500000000E-02 0. -1.
     200001    2    1    2    0    0 -0.19933088878E+03  0.19916725854E+03  0.24484522221E+03  0.71661951039E+03  0.61171393620E+03 0.  0.
    5000001    2    3    3    0    0 -0.34912927826E+03  0.27694502603E+03  0.77842933472E+02  0.45858907992E+03  0.75197217717E+02 0.  0.
        -11    1    4    4    0    0 -0.29211267597E+03  0.23355072321E+03  0.70251599347E+02  0.38054046169E+03  0.51100000000E-03 0. -1.
     200002    1    4    4    0    0 -0.57016602286E+02  0.43394302824E+02  0.75913341258E+01  0.78048618230E+02  0.30000000000E+02 0.  1.
     200000    1    3    3    0    0  0.14979838948E+03 -0.77777767488E+02  0.16700228874E+03  0.25803043047E+03  0.10100000000E+03 0.  1.
    -200001    1    1    2    0    0  0.19933088878E+03 -0.19916725854E+03  0.11894630300E+03  0.68506760476E+03  0.61300000000E+03 0.  1.
<mgrwt>
<rscale>  0 0.13536552E+04</rscale>
<asrwt>0</asrwt>
<pdfrwt beam="1">  1        2 0.74135399E-01 0.13536552E+04</pdfrwt>
<pdfrwt beam="2">  1       -2 0.12610562E+00 0.13536552E+04</pdfrwt>
<totfact> 0.29493257E+01</totfact>
</mgrwt>
</event>
<event>
 8    1  0.6972317E-052  0.1658977E+04  0.7818608E-02  0.8785113E-01
         -2   -1    0    0    0  501 -0.00000000000E+00  0.00000000000E+00  0.16287388896E+04  0.16287388896E+04  0.25500000000E-02 0. -1.
          2   -1    0    0  501    0  0.00000000000E+00 -0.00000000000E+00 -0.42244418093E+03  0.42244418093E+03  0.25500000000E-02 0.  1.
     200001    2    1    2    0    0 -0.47292742531E+03  0.15397444285E+03  0.91892768126E+03  0.12111132597E+04  0.61237142795E+03 0.  0.
    5000001    2    3    3    0    0 -0.27218799245E+03  0.24698792863E+03  0.19520492533E+03  0.44761901880E+03  0.16482864737E+03 0.  0.
        -11    1    4    4    0    0 -0.93977076135E+02  0.16626001643E+02 -0.51386209801E+00  0.95437827008E+02  0.51100000000E-03 0. -1.
     200002    1    4    4    0    0 -0.17821091632E+03  0.23036192698E+03  0.19571878743E+03  0.35218119179E+03  0.30000000000E+02 0. -1.
     200000    1    3    3    0    0 -0.20073943286E+03 -0.93013485775E+02  0.72372275593E+03  0.76349424090E+03  0.10100000000E+03 0. -1.
    -200001    1    1    2    0    0  0.47292742531E+03 -0.15397444285E+03  0.28736702744E+03  0.84006981086E+03  0.61300000000E+03 0.  1.
<mgrwt>
<rscale>  0 0.16589771E+04</rscale>
<asrwt>0</asrwt>
<pdfrwt beam="1">  1        2 0.60349168E-01 0.16589771E+04</pdfrwt>
<pdfrwt beam="2">  1       -2 0.23267699E+00 0.16589771E+04</pdfrwt>
<totfact> 0.63999040E+00</totfact>
</mgrwt>
</event>
<event>
 8    1  0.6972317E-052  0.1554714E+04  0.7818608E-02  0.8848862E-01
         -2   -1    0    0    0  501 -0.00000000000E+00  0.00000000000E+00  0.98161743979E+03  0.98161743979E+03  0.25500000000E-02 0. -1.
          2   -1    0    0  501    0  0.00000000000E+00 -0.00000000000E+00 -0.61560040072E+03  0.61560040073E+03  0.25500000000E-02 0.  1.
     200001    2    1    2    0    0 -0.10189177297E+03 -0.81755712283E+02 -0.28975674233E+03  0.69009371326E+03  0.61253933218E+03 0.  0.
    5000001    2    3    3    0    0 -0.31903268954E+02 -0.22952370783E+03 -0.39830654236E+03  0.46937255368E+03  0.89238676780E+02 0.  0.
        -11    1    4    4    0    0 -0.50212210773E+02 -0.88604708626E+02 -0.18759396068E+03  0.21345621234E+03  0.51100000000E-03 0. -1.
     200002    1    4    4    0    0  0.18308941819E+02 -0.14091899920E+03 -0.21071258168E+03  0.25591634134E+03  0.30000000000E+02 0. -1.
     200000    1    3    3    0    0 -0.69988504013E+02  0.14776799554E+03  0.10854980003E+03  0.22072115958E+03  0.10100000000E+03 0. -1.
    -200001    1    1    2    0    0  0.10189177297E+03  0.81755712283E+02  0.65577378140E+03  0.90712412726E+03  0.61300000000E+03 0. -1.
<mgrwt>
<rscale>  0 0.15547142E+04</rscale>
<asrwt>0</asrwt>
<pdfrwt beam="1">  1        2 0.87942914E-01 0.15547142E+04</pdfrwt>
<pdfrwt beam="2">  1       -2 0.14023106E+00 0.15547142E+04</pdfrwt>
<totfact> 0.18140158E+01</totfact>
</mgrwt>
</event>
<event>
 8    1  0.6972317E-052  0.1354853E+04  0.7818608E-02  0.8987162E-01
         -2   -1    0    0    0  501 -0.00000000000E+00  0.00000000000E+00  0.21404491061E+03  0.21404491063E+03  0.25500000000E-02 0. -1.
          2   -1    0    0  501    0  0.00000000000E+00 -0.00000000000E+00 -0.21439745631E+04  0.21439745631E+04  0.25500000000E-02 0.  1.
     200001    2    1    2    0    0 -0.20060368399E+03 -0.13980494123E+03 -0.12311200173E+04  0.13968268989E+04  0.61292873072E+03 0.  0.
    5000001    2    3    3    0    0 -0.24366740825E+03 -0.33513105840E+03 -0.92814368764E+03  0.10199947974E+04  0.85158967205E+02 0.  0.
        -11    1    4    4    0    0 -0.80366364859E+02 -0.17101757303E+03 -0.38836115742E+03  0.43189136537E+03  0.51100000000E-03 0. -1.
     200002    1    4    4    0    0 -0.16330104339E+03 -0.16411348537E+03 -0.53978253022E+03  0.58810343204E+03  0.30000000000E+02 0. -1.
     200000    1    3    3    0    0  0.43063724257E+02  0.19532611718E+03 -0.30297632967E+03  0.37683210152E+03  0.10100000000E+03 0.  1.
    -200001    1    1    2    0    0  0.20060368399E+03  0.13980494123E+03 -0.69880963520E+03  0.96119257481E+03  0.61300000000E+03 0.  1.
<mgrwt>
<rscale>  0 0.13548533E+04</rscale>
<asrwt>0</asrwt>
<pdfrwt beam="1">  1        2 0.30628207E+00 0.13548533E+04</pdfrwt>
<pdfrwt beam="2">  1       -2 0.30577846E-01 0.13548533E+04</pdfrwt>
<totfact> 0.65413666E+01</totfact>
</mgrwt>
</event>
<event>
 8    1  0.6972317E-052  0.1405584E+04  0.7818608E-02  0.8949786E-01
          2   -1    0    0  501    0  0.00000000000E+00  0.00000000000E+00  0.13720448019E+04  0.13720448019E+04  0.25500000000E-02 0.  1.
         -2   -1    0    0    0  501 -0.00000000000E+00 -0.00000000000E+00 -0.35998580058E+03  0.35998580059E+03  0.25500000000E-02 0. -1.
     200001    2    1    2    0    0 -0.21035835490E+03  0.12846703178E+03  0.80397295797E+03  0.10393378733E+04  0.61081607864E+03 0.  0.
    5000001    2    3    3    0    0 -0.90484760545E+02  0.11140562287E+03  0.85790267664E+03  0.87269398693E+03  0.70704225791E+02 0.  0.
        -11    1    4    4    0    0 -0.59074301847E+02  0.71603023626E+02  0.37999632468E+03  0.39117000512E+03  0.51100000000E-03 0. -1.
     200002    1    4    4    0    0 -0.31410458699E+02  0.39802599245E+02  0.47790635196E+03  0.48152398181E+03  0.30000000000E+02 0. -1.
     200000    1    3    3    0    0 -0.11987359435E+03  0.17061408913E+02 -0.53929718667E+02  0.16664388633E+03  0.10100000000E+03 0. -1.
    -200001    1    1    2    0    0  0.21035835490E+03 -0.12846703178E+03  0.20808604339E+03  0.69269272927E+03  0.61300000000E+03 0. -1.
<mgrwt>
<rscale>  0 0.14055841E+04</rscale>
<asrwt>0</asrwt>
<pdfrwt beam="1">  1        2 0.19600640E+00 0.14055841E+04</pdfrwt>
<pdfrwt beam="2">  1       -2 0.51426544E-01 0.14055841E+04</pdfrwt>
<totfact> 0.59606669E+01</totfact>
</mgrwt>
</event>
<event>
 8    1  0.6972317E-052  0.1752744E+04  0.7818608E-02  0.8731841E-01
          2   -1    0    0  501    0  0.00000000000E+00  0.00000000000E+00  0.11094463888E+04  0.11094463888E+04  0.25500000000E-02 0.  1.
         -2   -1    0    0    0  501 -0.00000000000E+00 -0.00000000000E+00 -0.69226259216E+03  0.69226259216E+03  0.25500000000E-02 0. -1.
     200001    2    1    2    0    0  0.24549604354E+03  0.54351351108E+03  0.40432945073E+03  0.94636724911E+03  0.61355800161E+03 0.  0.
    5000001    2    3    3    0    0  0.29957117276E+03  0.35820805417E+03 -0.14430231080E+02  0.47432604003E+03  0.81982089883E+02 0.  0.
        -11    1    4    4    0    0  0.18957830777E+02  0.48917814341E+02  0.15099140276E+02  0.54592453188E+02  0.51100000000E-03 0. -1.
     200002    1    4    4    0    0  0.28061334198E+03  0.30929023983E+03 -0.29529371355E+02  0.41973358685E+03  0.30000000000E+02 0. -1.
     200000    1    3    3    0    0 -0.54075129215E+02  0.18530545690E+03  0.41875968181E+03  0.47204120908E+03  0.10100000000E+03 0.  1.
    -200001    1    1    2    0    0 -0.24549604354E+03 -0.54351351108E+03  0.12854345953E+02  0.85534173190E+03  0.61300000000E+03 0. -1.
<mgrwt>
<rscale>  0 0.17527444E+04</rscale>
<asrwt>0</asrwt>
<pdfrwt beam="1">  1        2 0.15849234E+00 0.17527444E+04</pdfrwt>
<pdfrwt beam="2">  1       -2 0.98894657E-01 0.17527444E+04</pdfrwt>
<totfact> 0.19442973E+01</totfact>
</mgrwt>
</event>
<event>
 8    1  0.6972317E-052  0.1268191E+04  0.7818608E-02  0.9055177E-01
         -2   -1    0    0    0  501 -0.00000000000E+00  0.00000000000E+00  0.32734189485E+03  0.32734189485E+03  0.25500000000E-02 0. -1.
          2   -1    0    0  501    0  0.00000000000E+00 -0.00000000000E+00 -0.12283098974E+04  0.12283098974E+04  0.25500000000E-02 0.  1.
     200001    2    1    2    0    0 -0.78007886967E+02  0.48770667245E+02 -0.61277981506E+03  0.87206914195E+03  0.61362991957E+03 0.  0.
    5000001    2    3    3    0    0 -0.30620932789E+03  0.17987858102E+02 -0.16717928028E+03  0.36042051685E+03  0.88692286524E+02 0.  0.
        -11    1    4    4    0    0 -0.10996136814E+03 -0.15321422220E+02 -0.24536597442E+02  0.11370265202E+03  0.51100000000E-03 0. -1.
     200002    1    4    4    0    0 -0.19624795975E+03  0.33309280323E+02 -0.14264268284E+03  0.24671786483E+03  0.30000000000E+02 0. -1.
     200000    1    3    3    0    0  0.22820144092E+03  0.30782809142E+02 -0.44560053478E+03  0.51164862510E+03  0.10100000000E+03 0.  1.
    -200001    1    1    2    0    0  0.78007886967E+02 -0.48770667245E+02 -0.28818818753E+03  0.68358265034E+03  0.61300000000E+03 0.  1.
<mgrwt>
<rscale>  0 0.12681913E+04</rscale>
<asrwt>0</asrwt>
<pdfrwt beam="1">  1        2 0.17547284E+00 0.12681913E+04</pdfrwt>
<pdfrwt beam="2">  1       -2 0.46763128E-01 0.12681913E+04</pdfrwt>
<totfact> 0.87695973E+01</totfact>
</mgrwt>
</event>
<event>
 8    1  0.6972317E-052  0.2193209E+04  0.7818608E-02  0.8521260E-01
          2   -1    0    0  501    0  0.00000000000E+00  0.00000000000E+00  0.25158844820E+04  0.25158844820E+04  0.25500000000E-02 0.  1.
         -2   -1    0    0    0  501 -0.00000000000E+00 -0.00000000000E+00 -0.47797949243E+03  0.47797949244E+03  0.25500000000E-02 0. -1.
     200001    2    1    2    0    0 -0.20111946793E+03 -0.79517572612E+03  0.48298130329E+03  0.11320610456E+04  0.61281138678E+03 0.  0.
    5000001    2    3    3    0    0 -0.20695336668E+02 -0.67624417281E+03  0.31766571326E+03  0.84184073990E+03  0.38736268245E+03 0.  0.
        -11    1    4    4    0    0  0.67916878924E+02 -0.33730928592E+03 -0.32499497480E+02  0.34561029231E+03  0.51100000000E-03 0. -1.
     200002    1    4    4    0    0 -0.88612215592E+02 -0.33893488689E+03  0.35016521074E+03  0.49623044759E+03  0.30000000000E+02 0. -1.
     200000    1    3    3    0    0 -0.18042413126E+03 -0.11893155331E+03  0.16531559002E+03  0.29022030566E+03  0.10100000000E+03 0.  1.
    -200001    1    1    2    0    0  0.20111946793E+03  0.79517572612E+03  0.15549236862E+04  0.18618029288E+04  0.61300000000E+03 0.  1.
<mgrwt>
<rscale>  0 0.21932088E+04</rscale>
<asrwt>0</asrwt>
<pdfrwt beam="1">  1        2 0.35941207E+00 0.21932088E+04</pdfrwt>
<pdfrwt beam="2">  1       -2 0.68282785E-01 0.21932088E+04</pdfrwt>
<totfact> 0.77930352E+00</totfact>
</mgrwt>
</event>
<event>
 8    1  0.6972317E-052  0.1550850E+04  0.7818608E-02  0.8851325E-01
         -2   -1    0    0    0  501 -0.00000000000E+00  0.00000000000E+00  0.31659250907E+03  0.31659250908E+03  0.25500000000E-02 0. -1.
          2   -1    0    0  501    0  0.00000000000E+00 -0.00000000000E+00 -0.18992364221E+04  0.18992364221E+04  0.25500000000E-02 0.  1.
     200001    2    1    2    0    0  0.14239746274E+03 -0.36125393841E+03 -0.11881008898E+04  0.13898660733E+04  0.60775203165E+03 0.  0.
    5000001    2    3    3    0    0  0.10579373928E+03 -0.40523498367E+03 -0.37178172667E+03  0.56533460574E+03  0.77290729686E+02 0.  0.
        -11    1    4    4    0    0  0.74736023134E+02 -0.32858778947E+03 -0.27914563690E+03  0.43758164397E+03  0.51100000000E-03 0. -1.
     200002    1    4    4    0    0  0.31057716144E+02 -0.76647194203E+02 -0.92636089771E+02  0.12775296176E+03  0.30000000000E+02 0. -1.
     200000    1    3    3    0    0  0.36603723460E+02  0.43981045259E+02 -0.81631916315E+03  0.82453146759E+03  0.10100000000E+03 0.  1.
    -200001    1    1    2    0    0 -0.14239746274E+03  0.36125393841E+03 -0.39454302323E+03  0.82596285788E+03  0.61300000000E+03 0. -1.
<mgrwt>
<rscale>  0 0.15508501E+04</rscale>
<asrwt>0</asrwt>
<pdfrwt beam="1">  1        2 0.27131948E+00 0.15508501E+04</pdfrwt>
<pdfrwt beam="2">  1       -2 0.45227502E-01 0.15508501E+04</pdfrwt>
<totfact> 0.40415561E+01</totfact>
</mgrwt>
</event>
<event>
 8    1  0.6972317E-052  0.1480489E+04  0.7818608E-02  0.8897532E-01
          2   -1    0    0  501    0  0.00000000000E+00  0.00000000000E+00  0.21827677947E+04  0.21827677947E+04  0.25500000000E-02 0.  1.
         -2   -1    0    0    0  501 -0.00000000000E+00 -0.00000000000E+00 -0.25103993153E+03  0.25103993154E+03  0.25500000000E-02 0. -1.
     200001    2    1    2    0    0 -0.44051790298E+02  0.39184022260E+03  0.11765561386E+04  0.13842684683E+04  0.61354341728E+03 0.  0.
    5000001    2    3    3    0    0  0.10566322631E+03 -0.47411877038E+02  0.22069313395E+02  0.13591041762E+03  0.67616444345E+02 0.  0.
        -11    1    4    4    0    0  0.19510980178E+02  0.95479018637E+01  0.18123829830E+02  0.28289821234E+02  0.51100000000E-03 0. -1.
     200002    1    4    4    0    0  0.86152246129E+02 -0.56959778902E+02  0.39454835644E+01  0.10762059638E+03  0.30000000000E+02 0. -1.
     200000    1    3    3    0    0 -0.14971501660E+03  0.43925209964E+03  0.11544868252E+04  0.12483580507E+04  0.10100000000E+03 0.  1.
    -200001    1    1    2    0    0  0.44051790298E+02 -0.39184022260E+03  0.75517172455E+03  0.10495392579E+04  0.61300000000E+03 0. -1.
<mgrwt>
<rscale>  0 0.14804889E+04</rscale>
<asrwt>0</asrwt>
<pdfrwt beam="1">  1        2 0.31182396E+00 0.14804889E+04</pdfrwt>
<pdfrwt beam="2">  1       -2 0.35862849E-01 0.14804889E+04</pdfrwt>
<totfact> 0.45748142E+01</totfact>
</mgrwt>
</event>
<event>
 8    1  0.6972317E-052  0.1273704E+04  0.7818608E-02  0.9050682E-01
         -2   -1    0    0    0  501 -0.00000000000E+00  0.00000000000E+00  0.33224690278E+03  0.33224690279E+03  0.25500000000E-02 0. -1.
          2   -1    0    0  501    0  0.00000000000E+00 -0.00000000000E+00 -0.12207192524E+04  0.12207192524E+04  0.25500000000E-02 0.  1.
     200001    2    1    2    0    0  0.12044111597E+03 -0.11543300923E+03 -0.50109584250E+03  0.80888255755E+03  0.61266883918E+03 0.  0.
    5000001    2    3    3    0    0  0.14172377810E+03  0.80911288081E+01 -0.59912136925E+03  0.62041195433E+03  0.76246195534E+02 0.  0.
        -11    1    4    4    0    0  0.53095073814E+02  0.30270400875E+02 -0.17012709259E+03  0.18077226465E+03  0.51100000000E-03 0. -1.
     200002    1    4    4    0    0  0.88628704286E+02 -0.22179272067E+02 -0.42899427667E+03  0.43963968968E+03  0.30000000000E+02 0. -1.
     200000    1    3    3    0    0 -0.21282662132E+02 -0.12352413804E+03  0.98025526750E+02  0.18847060323E+03  0.10100000000E+03 0. -1.
    -200001    1    1    2    0    0 -0.12044111597E+03  0.11543300923E+03 -0.38737650715E+03  0.74408359767E+03  0.61300000000E+03 0.  1.
<mgrwt>
<rscale>  0 0.12737036E+04</rscale>
<asrwt>0</asrwt>
<pdfrwt beam="1">  1        2 0.17438846E+00 0.12737036E+04</pdfrwt>
<pdfrwt beam="2">  1       -2 0.47463844E-01 0.12737036E+04</pdfrwt>
<totfact> 0.85921481E+01</totfact>
</mgrwt>
</event>
<event>
 8    1  0.6972317E-052  0.2043665E+04  0.7818608E-02  0.8586474E-01
          2   -1    0    0  501    0  0.00000000000E+00  0.00000000000E+00  0.55233555328E+03  0.55233555329E+03  0.25500000000E-02 0.  1.
         -2   -1    0    0    0  501 -0.00000000000E+00 -0.00000000000E+00 -0.18904121060E+04  0.18904121060E+04  0.25500000000E-02 0. -1.
     200001    2    1    2    0    0  0.77450399899E+03  0.73151200416E+02 -0.96979298880E+03  0.13860502920E+04  0.61272296207E+03 0.  0.
    5000001    2    3    3    0    0  0.49881777978E+03 -0.39058098529E+02 -0.18116239042E+03  0.53709031713E+03  0.72811294198E+02 0.  0.
        -11    1    4    4    0    0  0.41837963668E+02 -0.13944518781E+02 -0.39782898839E+00  0.44102415763E+02  0.51100000000E-03 0. -1.
     200002    1    4    4    0    0  0.45697981612E+03 -0.25113579748E+02 -0.18076456143E+03  0.49298790137E+03  0.30000000000E+02 0. -1.
     200000    1    3    3    0    0  0.27568621921E+03  0.11220929895E+03 -0.78863059838E+03  0.84895997487E+03  0.10100000000E+03 0. -1.
    -200001    1    1    2    0    0 -0.77450399899E+03 -0.73151200416E+02 -0.36828356390E+03  0.10566973673E+04  0.61300000000E+03 0. -1.
<mgrwt>
<rscale>  0 0.20436652E+04</rscale>
<asrwt>0</asrwt>
<pdfrwt beam="1">  1        2 0.78905080E-01 0.20436652E+04</pdfrwt>
<pdfrwt beam="2">  1       -2 0.27005887E+00 0.20436652E+04</pdfrwt>
<totfact> 0.26919959E+00</totfact>
</mgrwt>
</event>
<event>
 8    1  0.6972317E-052  0.1264710E+04  0.7818608E-02  0.9058028E-01
         -2   -1    0    0    0  501 -0.00000000000E+00  0.00000000000E+00  0.24576688813E+03  0.24576688814E+03  0.25500000000E-02 0. -1.
          2   -1    0    0  501    0  0.00000000000E+00 -0.00000000000E+00 -0.16270419291E+04  0.16270419291E+04  0.25500000000E-02 0.  1.
     200001    2    1    2    0    0  0.82116808196E+02 -0.13107938523E+03 -0.70612041412E+03  0.94786138870E+03  0.61311515845E+03 0.  0.
    5000001    2    3    3    0    0  0.18490744255E+03  0.50736206003E+02 -0.50960462228E+01  0.20944484764E+03  0.84120447013E+02 0.  0.
        -11    1    4    4    0    0  0.34803859060E+02 -0.18566537745E+02 -0.12126058114E+02  0.41268222823E+02  0.51100000000E-03 0. -1.
     200002    1    4    4    0    0  0.15010358349E+03  0.69302743748E+02  0.70300118915E+01  0.16817662481E+03  0.30000000000E+02 0. -1.
     200000    1    3    3    0    0 -0.10279063435E+03 -0.18181559123E+03 -0.70102436790E+03  0.73841654106E+03  0.10100000000E+03 0.  1.
    -200001    1    1    2    0    0 -0.82116808196E+02  0.13107938523E+03 -0.67515462685E+03  0.92494742855E+03  0.61300000000E+03 0.  1.
<mgrwt>
<rscale>  0 0.12647103E+04</rscale>
<asrwt>0</asrwt>
<pdfrwt beam="1">  1        2 0.23243455E+00 0.12647103E+04</pdfrwt>
<pdfrwt beam="2">  1       -2 0.35109557E-01 0.12647103E+04</pdfrwt>
<totfact> 0.93669484E+01</totfact>
</mgrwt>
</event>
<event>
 8    1  0.6972317E-052  0.1722006E+04  0.7818608E-02  0.8748912E-01
         -2   -1    0    0    0  501 -0.00000000000E+00  0.00000000000E+00  0.50039996080E+03  0.50039996080E+03  0.25500000000E-02 0. -1.
          2   -1    0    0  501    0  0.00000000000E+00 -0.00000000000E+00 -0.14814673337E+04  0.14814673337E+04  0.25500000000E-02 0.  1.
     200001    2    1    2    0    0 -0.27503127978E+02 -0.26296002568E+03  0.13590499305E+03  0.68059842780E+03  0.61224150108E+03 0.  0.
    5000001    2    3    3    0    0  0.77196309029E+02 -0.23491191281E+03  0.34349596589E+03  0.42556180151E+03  0.44390217618E+02 0.  0.
        -11    1    4    4    0    0  0.20745150830E+02 -0.36822773790E+02  0.45883481480E+02  0.62382464087E+02  0.51100000000E-03 0. -1.
     200002    1    4    4    0    0  0.56451158198E+02 -0.19808913902E+03  0.29761248441E+03  0.36317933743E+03  0.30000000000E+02 0. -1.
     200000    1    3    3    0    0 -0.10469943701E+03 -0.28048112871E+02 -0.20759097284E+03  0.25503662629E+03  0.10100000000E+03 0.  1.
    -200001    1    1    2    0    0  0.27503127978E+02  0.26296002568E+03 -0.11169723659E+04  0.13012688667E+04  0.61300000000E+03 0.  1.
<mgrwt>
<rscale>  0 0.17220060E+04</rscale>
<asrwt>0</asrwt>
<pdfrwt beam="1">  1        2 0.21163819E+00 0.17220060E+04</pdfrwt>
<pdfrwt beam="2">  1       -2 0.71485709E-01 0.17220060E+04</pdfrwt>
<totfact> 0.25287876E+01</totfact>
</mgrwt>
</event>
<event>
 8    1  0.6972317E-052  0.1355466E+04  0.7818608E-02  0.8986701E-01
         -2   -1    0    0    0  501 -0.00000000000E+00  0.00000000000E+00  0.65304906019E+03  0.65304906020E+03  0.25500000000E-02 0. -1.
          2   -1    0    0  501    0  0.00000000000E+00 -0.00000000000E+00 -0.70334993878E+03  0.70334993879E+03  0.25500000000E-02 0.  1.
     200001    2    1    2    0    0  0.28197709300E+03  0.61722292333E+02 -0.18170862006E+02  0.67807602258E+03  0.61329942917E+03 0.  0.
    5000001    2    3    3    0    0  0.42820713109E+03  0.13426337157E+03  0.77350104905E+02  0.46366826308E+03  0.87276683001E+02 0.  0.
        -11    1    4    4    0    0  0.94372382429E+02  0.44266136364E+02  0.49802574892E+02  0.11552460284E+03  0.51100000000E-03 0. -1.
     200002    1    4    4    0    0  0.33383474866E+03  0.89997235205E+02  0.27547530013E+02  0.34814366024E+03  0.30000000000E+02 0. -1.
     200000    1    3    3    0    0 -0.14623003809E+03 -0.72541079237E+02 -0.95520966911E+02  0.21440775950E+03  0.10100000000E+03 0.  1.
    -200001    1    1    2    0    0 -0.28197709300E+03 -0.61722292333E+02 -0.32130016585E+02  0.67832297640E+03  0.61300000000E+03 0. -1.
<mgrwt>
<rscale>  0 0.13554660E+04</rscale>
<asrwt>0</asrwt>
<pdfrwt beam="1">  1        2 0.10047856E+00 0.13554660E+04</pdfrwt>
<pdfrwt beam="2">  1       -2 0.93292724E-01 0.13554660E+04</pdfrwt>
<totfact> 0.42552426E+01</totfact>
</mgrwt>
</event>
<event>
 8    1  0.6972317E-052  0.2035664E+04  0.7818608E-02  0.8590126E-01
          2   -1    0    0  501    0  0.00000000000E+00  0.00000000000E+00  0.20666528147E+04  0.20666528147E+04  0.25500000000E-02 0.  1.
         -2   -1    0    0    0  501 -0.00000000000E+00 -0.00000000000E+00 -0.50128507007E+03  0.50128507008E+03  0.25500000000E-02 0. -1.
     200001    2    1    2    0    0  0.54771377433E+03  0.12170439490E+03  0.15241336334E+04  0.17359092854E+04  0.61285836550E+03 0.  0.
    5000001    2    3    3    0    0 -0.50597271663E+02 -0.44059214665E+01  0.38215105758E+03  0.43659980600E+03  0.20494014674E+03 0.  0.
        -11    1    4    4    0    0 -0.75904521797E+02 -0.89500495924E+02  0.20663264100E+03  0.23763182347E+03  0.51100000000E-03 0. -1.
     200002    1    4    4    0    0  0.25307250134E+02  0.85094574458E+02  0.17551841658E+03  0.19896798252E+03  0.30000000000E+02 0. -1.
     200000    1    3    3    0    0  0.59831104599E+03  0.12611031636E+03  0.11419825758E+04  0.12993094794E+04  0.10100000000E+03 0.  1.
    -200001    1    1    2    0    0 -0.54771377433E+03 -0.12170439490E+03  0.41234111209E+02  0.83202859942E+03  0.61300000000E+03 0. -1.
<mgrwt>
<rscale>  0 0.20356642E+04</rscale>
<asrwt>0</asrwt>
<pdfrwt beam="1">  1        2 0.29523612E+00 0.20356642E+04</pdfrwt>
<pdfrwt beam="2">  1       -2 0.71612152E-01 0.20356642E+04</pdfrwt>
<totfact> 0.12189541E+01</totfact>
</mgrwt>
</event>
<event>
 8    1  0.6972317E-052  0.1424132E+04  0.7818608E-02  0.8936533E-01
          2   -1    0    0  501    0  0.00000000000E+00  0.00000000000E+00  0.25531666901E+04  0.25531666901E+04  0.25500000000E-02 0.  1.
         -2   -1    0    0    0  501 -0.00000000000E+00 -0.00000000000E+00 -0.19859186368E+03  0.19859186370E+03  0.25500000000E-02 0. -1.
     200001    2    1    2    0    0 -0.15178039880E+03  0.30942426733E+03  0.13944823347E+04  0.15616630705E+04  0.61272334486E+03 0.  0.
    5000001    2    3    3    0    0 -0.16719822261E+03 -0.21551494704E+02  0.10713399548E+04  0.10879493785E+04  0.86283479077E+02 0.  0.
        -11    1    4    4    0    0 -0.10353861798E+03 -0.31896915672E+02  0.46515037084E+03  0.47760080207E+03  0.51100000000E-03 0. -1.
     200002    1    4    4    0    0 -0.63659604631E+02  0.10345420968E+02  0.60618958396E+03  0.61034857638E+03  0.30000000000E+02 0. -1.
     200000    1    3    3    0    0  0.15417823812E+02  0.33097576203E+03  0.32314237986E+03  0.47371369202E+03  0.10100000000E+03 0. -1.
    -200001    1    1    2    0    0  0.15178039880E+03 -0.30942426733E+03  0.96009249173E+03  0.11900954833E+04  0.61300000000E+03 0. -1.
<mgrwt>
<rscale>  0 0.14241322E+04</rscale>
<asrwt>0</asrwt>
<pdfrwt beam="1">  1        2 0.36473811E+00 0.14241322E+04</pdfrwt>
<pdfrwt beam="2">  1       -2 0.28370265E-01 0.14241322E+04</pdfrwt>
<totfact> 0.45828592E+01</totfact>
</mgrwt>
</event>
<event>
 8    1  0.6972317E-052  0.1711314E+04  0.7818608E-02  0.8754938E-01
          2   -1    0    0  501    0  0.00000000000E+00  0.00000000000E+00  0.91662345720E+03  0.91662345721E+03  0.25500000000E-02 0.  1.
         -2   -1    0    0    0  501 -0.00000000000E+00 -0.00000000000E+00 -0.79874571347E+03  0.79874571347E+03  0.25500000000E-02 0. -1.
     200001    2    1    2    0    0 -0.55820553754E+03 -0.16482079658E+03  0.19134670845E+03  0.86688463582E+03  0.61328304384E+03 0.  0.
    5000001    2    3    3    0    0  0.71635328580E+00 -0.24077846725E+03  0.22009380789E+02  0.26935691402E+03  0.11871794657E+03 0.  0.
        -11    1    4    4    0    0 -0.54625296270E+02 -0.97787244954E+02  0.39190652279E+01  0.11207866586E+03  0.51100000000E-03 0. -1.
     200002    1    4    4    0    0  0.55341649556E+02 -0.14299122229E+03  0.18090315562E+02  0.15727824816E+03  0.30000000000E+02 0. -1.
     200000    1    3    3    0    0 -0.55892189082E+03  0.75957670670E+02  0.16933732766E+03  0.59752772179E+03  0.10100000000E+03 0.  1.
    -200001    1    1    2    0    0  0.55820553754E+03  0.16482079658E+03 -0.73468964709E+02  0.84848453486E+03  0.61300000000E+03 0. -1.
<mgrwt>
<rscale>  0 0.17113142E+04</rscale>
<asrwt>0</asrwt>
<pdfrwt beam="1">  1        2 0.13094621E+00 0.17113142E+04</pdfrwt>
<pdfrwt beam="2">  1       -2 0.11410653E+00 0.17113142E+04</pdfrwt>
<totfact> 0.18173625E+01</totfact>
</mgrwt>
</event>
<event>
 8    1  0.6972317E-052  0.1649171E+04  0.7818608E-02  0.8790897E-01
          2   -1    0    0  501    0  0.00000000000E+00  0.00000000000E+00  0.24873699076E+04  0.24873699076E+04  0.25500000000E-02 0. -1.
         -2   -1    0    0    0  501 -0.00000000000E+00 -0.00000000000E+00 -0.27335750210E+03  0.27335750211E+03  0.25500000000E-02 0.  1.
     200001    2    1    2    0    0  0.70913510350E+02 -0.45033279980E+03  0.58823694903E+03  0.96441363106E+03  0.61338616470E+03 0.  0.
    5000001    2    3    3    0    0 -0.16507372283E+03  0.58965216875E+02  0.17832017491E+03  0.26205531387E+03  0.78413468099E+02 0.  0.
        -11    1    4    4    0    0 -0.79200052586E+01  0.23567720798E+02  0.42433840989E+02  0.49181244476E+02  0.51100000000E-03 0. -1.
     200002    1    4    4    0    0 -0.15715371757E+03  0.35397496077E+02  0.13588633392E+03  0.21287406940E+03  0.30000000000E+02 0. -1.
     200000    1    3    3    0    0  0.23598723318E+03 -0.50929801667E+03  0.40991677413E+03  0.70235831719E+03  0.10100000000E+03 0.  1.
    -200001    1    1    2    0    0 -0.70913510350E+02  0.45033279980E+03  0.16257754565E+04  0.17963137787E+04  0.61300000000E+03 0.  1.
<mgrwt>
<rscale>  0 0.16491710E+04</rscale>
<asrwt>0</asrwt>
<pdfrwt beam="1">  1        2 0.35533855E+00 0.16491710E+04</pdfrwt>
<pdfrwt beam="2">  1       -2 0.39051073E-01 0.16491710E+04</pdfrwt>
<totfact> 0.26586581E+01</totfact>
</mgrwt>
</event>
<event>
 8    1  0.6972317E-052  0.1434209E+04  0.7818608E-02  0.8929422E-01
         -2   -1    0    0    0  501 -0.00000000000E+00  0.00000000000E+00  0.22651832786E+03  0.22651832787E+03  0.25500000000E-02 0. -1.
          2   -1    0    0  501    0  0.00000000000E+00 -0.00000000000E+00 -0.22701881304E+04  0.22701881304E+04  0.25500000000E-02 0.  1.
     200001    2    1    2    0    0 -0.12177374758E+03 -0.24743575058E+03 -0.14590188502E+04  0.16058422529E+04  0.61150636944E+03 0.  0.
    5000001    2    3    3    0    0 -0.15064182778E+03 -0.41067796296E+03 -0.79713498567E+03  0.91607951398E+03  0.11148157253E+03 0.  0.
        -11    1    4    4    0    0 -0.17045645227E+02 -0.48587722291E+02 -0.18310839795E+03  0.19021042605E+03  0.51100000000E-03 0. -1.
     200002    1    4    4    0    0 -0.13359618255E+03 -0.36209024067E+03 -0.61402658772E+03  0.72586908793E+03  0.30000000000E+02 0. -1.
     200000    1    3    3    0    0  0.28868080200E+02  0.16324221238E+03 -0.66188386450E+03  0.68976273895E+03  0.10100000000E+03 0.  1.
    -200001    1    1    2    0    0  0.12177374758E+03  0.24743575058E+03 -0.58465095237E+03  0.89086420535E+03  0.61300000000E+03 0. -1.
<mgrwt>
<rscale>  0 0.14342095E+04</rscale>
<asrwt>0</asrwt>
<pdfrwt beam="1">  1        2 0.32431258E+00 0.14342095E+04</pdfrwt>
<pdfrwt beam="2">  1       -2 0.32359762E-01 0.14342095E+04</pdfrwt>
<totfact> 0.50320710E+01</totfact>
</mgrwt>
</event>
<event>
 8    1  0.6972317E-052  0.1547463E+04  0.7818608E-02  0.8853490E-01
         -2   -1    0    0    0  501 -0.00000000000E+00  0.00000000000E+00  0.57255384288E+03  0.57255384288E+03  0.25500000000E-02 0. -1.
          2   -1    0    0  501    0  0.00000000000E+00 -0.00000000000E+00 -0.10455969045E+04  0.10455969045E+04  0.25500000000E-02 0.  1.
     200001    2    1    2    0    0 -0.83131041719E+02  0.46028736150E+03 -0.30839645118E+03  0.82970117283E+03  0.61198075120E+03 0.  0.
    5000001    2    3    3    0    0  0.20418965685E+03  0.47413761291E+01 -0.81838106818E+02  0.23673826336E+03  0.87359218167E+02 0.  0.
        -11    1    4    4    0    0  0.12099660248E+02 -0.22768158843E+02 -0.99752381781E+01  0.27645907693E+02  0.51100000000E-03 0. -1.
     200002    1    4    4    0    0  0.19208999660E+03  0.27509534972E+02 -0.71862868640E+02  0.20909235566E+03  0.30000000000E+02 0. -1.
     200000    1    3    3    0    0 -0.28732069857E+03  0.45554598537E+03 -0.22655834436E+03  0.59296290947E+03  0.10100000000E+03 0.  1.
    -200001    1    1    2    0    0  0.83131041719E+02 -0.46028736150E+03 -0.16464661042E+03  0.78844957453E+03  0.61300000000E+03 0. -1.
<mgrwt>
<rscale>  0 0.15474631E+04</rscale>
<asrwt>0</asrwt>
<pdfrwt beam="1">  1        2 0.14937099E+00 0.15474631E+04</pdfrwt>
<pdfrwt beam="2">  1       -2 0.81793407E-01 0.15474631E+04</pdfrwt>
<totfact> 0.33412617E+01</totfact>
</mgrwt>
</event>
<event>
 8    1  0.6972317E-052  0.1333755E+04  0.7818608E-02  0.9003217E-01
         -2   -1    0    0    0  501 -0.00000000000E+00  0.00000000000E+00  0.29123885243E+03  0.29123885244E+03  0.25500000000E-02 0. -1.
          2   -1    0    0  501    0  0.00000000000E+00 -0.00000000000E+00 -0.15270129262E+04  0.15270129262E+04  0.25500000000E-02 0.  1.
     200001    2    1    2    0    0  0.14296813382E+03 -0.17854263094E+03 -0.44254187788E+03  0.78999904951E+03  0.61313768943E+03 0.  0.
    5000001    2    3    3    0    0 -0.19208533269E+03 -0.78344344232E+02 -0.34926367002E+03  0.41423004315E+03  0.81035832468E+02 0.  0.
        -11    1    4    4    0    0 -0.11345914795E+03 -0.15972605879E+02 -0.21817030164E+03  0.24642723654E+03  0.51100000000E-03 0. -1.
     200002    1    4    4    0    0 -0.78626184742E+02 -0.62371738352E+02 -0.13109336838E+03  0.16780280661E+03  0.30000000000E+02 0. -1.
     200000    1    3    3    0    0  0.33505346651E+03 -0.10019828671E+03 -0.93278207859E+02  0.37576900636E+03  0.10100000000E+03 0. -1.
    -200001    1    1    2    0    0 -0.14296813382E+03  0.17854263094E+03 -0.79323219588E+03  0.10282527291E+04  0.61300000000E+03 0.  1.
<mgrwt>
<rscale>  0 0.13337548E+04</rscale>
<asrwt>0</asrwt>
<pdfrwt beam="1">  1        2 0.21814470E+00 0.13337548E+04</pdfrwt>
<pdfrwt beam="2">  1       -2 0.41605551E-01 0.13337548E+04</pdfrwt>
<totfact> 0.75711223E+01</totfact>
</mgrwt>
</event>
<event>
 8    1  0.6972317E-052  0.1449590E+04  0.7818608E-02  0.8918685E-01
          2   -1    0    0  501    0  0.00000000000E+00  0.00000000000E+00  0.16070540039E+04  0.16070540039E+04  0.25500000000E-02 0.  1.
         -2   -1    0    0    0  501 -0.00000000000E+00 -0.00000000000E+00 -0.32688880956E+03  0.32688880956E+03  0.25500000000E-02 0. -1.
     200001    2    1    2    0    0  0.76561448665E+02  0.31696700262E+03  0.91877240033E+03  0.11511890286E+04  0.61217948328E+03 0.  0.
    5000001    2    3    3    0    0 -0.18427554054E+03 -0.55932355558E+02  0.40889124824E+03  0.46034197205E+03  0.87388644006E+02 0.  0.
        -11    1    4    4    0    0 -0.16859704957E+03 -0.38900288281E+02  0.34758786301E+03  0.38827248173E+03  0.51100000000E-03 0. -1.
     200002    1    4    4    0    0 -0.15678490973E+02 -0.17032067277E+02  0.61303385232E+02  0.72069490326E+02  0.30000000000E+02 0. -1.
     200000    1    3    3    0    0  0.26083698921E+03  0.37289935818E+03  0.50988115209E+03  0.69084705653E+03  0.10100000000E+03 0. -1.
    -200001    1    1    2    0    0 -0.76561448665E+02 -0.31696700262E+03  0.36139279400E+03  0.78275378487E+03  0.61300000000E+03 0. -1.
<mgrwt>
<rscale>  0 0.14495902E+04</rscale>
<asrwt>0</asrwt>
<pdfrwt beam="1">  1        2 0.22957914E+00 0.14495902E+04</pdfrwt>
<pdfrwt beam="2">  1       -2 0.46698402E-01 0.14495902E+04</pdfrwt>
<totfact> 0.54141534E+01</totfact>
</mgrwt>
</event>
<event>
 8    1  0.6972317E-052  0.1831997E+04  0.7818608E-02  0.8689467E-01
          2   -1    0    0  501    0  0.00000000000E+00  0.00000000000E+00  0.25703975720E+04  0.25703975720E+04  0.25500000000E-02 0.  1.
         -2   -1    0    0    0  501 -0.00000000000E+00 -0.00000000000E+00 -0.32642925446E+03  0.32642925447E+03  0.25500000000E-02 0. -1.
     200001    2    1    2    0    0  0.61115621378E+03 -0.63940840587E+00  0.15958557451E+04  0.18154706257E+04  0.61291574222E+03 0.  0.
    5000001    2    3    3    0    0 -0.31876001125E+02 -0.14880015143E+03  0.53287927243E+03  0.56025669307E+03  0.82278056788E+02 0.  0.
        -11    1    4    4    0    0  0.20963312946E+01 -0.10085352752E+03  0.24581756171E+03  0.26571056107E+03  0.51100000000E-03 0. -1.
     200002    1    4    4    0    0 -0.33972332419E+02 -0.47946623911E+02  0.28706171072E+03  0.29454613200E+03  0.30000000000E+02 0. -1.
     200000    1    3    3    0    0  0.64303221490E+03  0.14816074303E+03  0.10629764726E+04  0.12552139326E+04  0.10100000000E+03 0. -1.
    -200001    1    1    2    0    0 -0.61115621378E+03  0.63940840587E+00  0.64811257251E+03  0.10813562009E+04  0.61300000000E+03 0. -1.
<mgrwt>
<rscale>  0 0.18319967E+04</rscale>
<asrwt>0</asrwt>
<pdfrwt beam="1">  1        2 0.36719966E+00 0.18319967E+04</pdfrwt>
<pdfrwt beam="2">  1       -2 0.46632750E-01 0.18319967E+04</pdfrwt>
<totfact> 0.16662952E+01</totfact>
</mgrwt>
</event>
<event>
 8    1  0.6972317E-052  0.2615126E+04  0.7818608E-02  0.8363081E-01
          2   -1    0    0  501    0  0.00000000000E+00  0.00000000000E+00  0.12372674448E+04  0.12372674448E+04  0.25500000000E-02 0.  1.
         -2   -1    0    0    0  501 -0.00000000000E+00 -0.00000000000E+00 -0.13818526895E+04  0.13818526895E+04  0.25500000000E-02 0. -1.
     200001    2    1    2    0    0  0.23807242646E+03 -0.61253732350E+03  0.87893917981E+03  0.12570438881E+04  0.61298026219E+03 0.  0.
    5000001    2    3    3    0    0  0.21419800128E+03 -0.66561435519E+01  0.28643801562E+03  0.40327540543E+03  0.18616988971E+03 0.  0.
        -11    1    4    4    0    0 -0.24203415313E+02  0.18205788426E+02  0.79918247823E+02  0.85464509478E+02  0.51100000000E-03 0. -1.
     200002    1    4    4    0    0  0.23840141659E+03 -0.24861931978E+02  0.20651976780E+03  0.31781089595E+03  0.30000000000E+02 0. -1.
     200000    1    3    3    0    0  0.23874425181E+02 -0.60588117995E+03  0.59250116419E+03  0.85376848265E+03  0.10100000000E+03 0.  1.
    -200001    1    1    2    0    0 -0.23807242646E+03  0.61253732350E+03 -0.10235244245E+04  0.13620762462E+04  0.61300000000E+03 0. -1.
<mgrwt>
<rscale>  0 0.26151263E+04</rscale>
<asrwt>0</asrwt>
<pdfrwt beam="1">  1        2 0.17675249E+00 0.26151263E+04</pdfrwt>
<pdfrwt beam="2">  1       -2 0.19740753E+00 0.26151263E+04</pdfrwt>
<totfact> 0.25027353E+00</totfact>
</mgrwt>
</event>
<event>
 8    1  0.6972317E-052  0.1440738E+04  0.7818608E-02  0.8924847E-01
          2   -1    0    0  501    0  0.00000000000E+00  0.00000000000E+00  0.85067191749E+03  0.85067191749E+03  0.25500000000E-02 0.  1.
         -2   -1    0    0    0  501 -0.00000000000E+00 -0.00000000000E+00 -0.61002542536E+03  0.61002542536E+03  0.25500000000E-02 0. -1.
     200001    2    1    2    0    0 -0.18982238435E+03 -0.70146212738E+02 -0.20366343759E+03  0.67703074129E+03  0.61313848360E+03 0.  0.
    5000001    2    3    3    0    0 -0.21041606157E+03  0.13011532184E+03 -0.68795754965E+02  0.41450631654E+03  0.32538855942E+03 0.  0.
        -11    1    4    4    0    0 -0.12239847102E+03 -0.76007341629E+02 -0.11422118861E+03  0.18386131082E+03  0.51100000000E-03 0. -1.
     200002    1    4    4    0    0 -0.88017590556E+02  0.20612266346E+03  0.45425433644E+02  0.23064500572E+03  0.30000000000E+02 0. -1.
     200000    1    3    3    0    0  0.20593677220E+02 -0.20026153457E+03 -0.13486768263E+03  0.26252442475E+03  0.10100000000E+03 0. -1.
    -200001    1    1    2    0    0  0.18982238435E+03  0.70146212738E+02  0.44430992973E+03  0.78366660157E+03  0.61300000000E+03 0.  1.
<mgrwt>
<rscale>  0 0.14407380E+04</rscale>
<asrwt>0</asrwt>
<pdfrwt beam="1">  1        2 0.12152456E+00 0.14407380E+04</pdfrwt>
<pdfrwt beam="2">  1       -2 0.87146490E-01 0.14407380E+04</pdfrwt>
<totfact> 0.38814358E+01</totfact>
</mgrwt>
</event>
<event>
 8    1  0.6972317E-052  0.1528908E+04  0.7818608E-02  0.8865454E-01
          2   -1    0    0  501    0  0.00000000000E+00  0.00000000000E+00  0.18679920831E+04  0.18679920831E+04  0.25500000000E-02 0.  1.
         -2   -1    0    0    0  501 -0.00000000000E+00 -0.00000000000E+00 -0.31284377123E+03  0.31284377124E+03  0.25500000000E-02 0. -1.
     200001    2    1    2    0    0  0.18270203729E+03  0.39732963546E+03  0.58660285347E+03  0.95401061061E+03  0.61219479238E+03 0.  0.
    5000001    2    3    3    0    0  0.25756710846E+02  0.16143741434E+03 -0.97438335787E+02  0.20675541720E+03  0.80796821466E+02 0.  0.
        -11    1    4    4    0    0  0.93319667332E+01  0.11776351063E+03 -0.94369357499E+02  0.15119823304E+03  0.51100000000E-03 0. -1.
     200002    1    4    4    0    0  0.16424744113E+02  0.43673903708E+02 -0.30689782885E+01  0.55557184162E+02  0.30000000000E+02 0. -1.
     200000    1    3    3    0    0  0.15694532644E+03  0.23589222112E+03  0.68404118925E+03  0.74725519341E+03  0.10100000000E+03 0.  1.
    -200001    1    1    2    0    0 -0.18270203729E+03 -0.39732963546E+03  0.96854545840E+03  0.12268252437E+04  0.61300000000E+03 0.  1.
<mgrwt>
<rscale>  0 0.15289077E+04</rscale>
<asrwt>0</asrwt>
<pdfrwt beam="1">  1        2 0.26685602E+00 0.15289077E+04</pdfrwt>
<pdfrwt beam="2">  1       -2 0.44691966E-01 0.15289077E+04</pdfrwt>
<totfact> 0.43023088E+01</totfact>
</mgrwt>
</event>
<event>
 8    1  0.6972317E-052  0.1376457E+04  0.7818608E-02  0.8971038E-01
          2   -1    0    0  501    0  0.00000000000E+00  0.00000000000E+00  0.73350889701E+03  0.73350889701E+03  0.25500000000E-02 0.  1.
         -2   -1    0    0    0  501 -0.00000000000E+00 -0.00000000000E+00 -0.64574372826E+03  0.64574372826E+03  0.25500000000E-02 0. -1.
     200001    2    1    2    0    0  0.16068865576E+03 -0.14314637291E+03 -0.18340248074E+03  0.67525502422E+03  0.61320563405E+03 0.  0.
    5000001    2    3    3    0    0 -0.27165134217E+02  0.17300048977E+03 -0.21262365887E+03  0.29277265542E+03  0.99196237191E+02 0.  0.
        -11    1    4    4    0    0  0.10699125640E+02  0.12206537647E+03 -0.17349832624E+03  0.21240550047E+03  0.51100000000E-03 0. -1.
     200002    1    4    4    0    0 -0.37864259858E+02  0.50935113298E+02 -0.39125332637E+02  0.80367154953E+02  0.30000000000E+02 0. -1.
     200000    1    3    3    0    0  0.18785378998E+03 -0.31614686268E+03  0.29221178138E+02  0.38248236880E+03  0.10100000000E+03 0. -1.
    -200001    1    1    2    0    0 -0.16068865576E+03  0.14314637291E+03  0.27116764949E+03  0.70399760106E+03  0.61300000000E+03 0.  1.
<mgrwt>
<rscale>  0 0.13764574E+04</rscale>
<asrwt>0</asrwt>
<pdfrwt beam="1">  1        2 0.10478698E+00 0.13764574E+04</pdfrwt>
<pdfrwt beam="2">  1       -2 0.92249104E-01 0.13764574E+04</pdfrwt>
<totfact> 0.41390745E+01</totfact>
</mgrwt>
</event>
<event>
 8    1  0.6972317E-052  0.2179866E+04  0.7818608E-02  0.8526855E-01
         -2   -1    0    0    0  501 -0.00000000000E+00  0.00000000000E+00  0.23492098243E+04  0.23492098243E+04  0.25500000000E-02 0. -1.
          2   -1    0    0  501    0  0.00000000000E+00 -0.00000000000E+00 -0.50568237211E+03  0.50568237212E+03  0.25500000000E-02 0.  1.
     200001    2    1    2    0    0  0.73180834427E+03 -0.26462163349E+03  0.15203097269E+04  0.18128716786E+04  0.60794242807E+03 0.  0.
    5000001    2    3    3    0    0 -0.22431306492E+02  0.76198599040E+02  0.40430437422E+03  0.41977985507E+03  0.80272720777E+02 0.  0.
        -11    1    4    4    0    0 -0.38885986256E+02  0.13828079201E+02  0.16830742206E+03  0.17329375068E+03  0.51100000000E-03 0. -1.
     200002    1    4    4    0    0  0.16454679763E+02  0.62370519839E+02  0.23599695215E+03  0.24648610439E+03  0.30000000000E+02 0. -1.
     200000    1    3    3    0    0  0.75423965076E+03 -0.34082023253E+03  0.11160053526E+04  0.13930918235E+04  0.10100000000E+03 0. -1.
    -200001    1    1    2    0    0 -0.73180834427E+03  0.26462163349E+03  0.32321772537E+03  0.10420205179E+04  0.61300000000E+03 0.  1.
<mgrwt>
<rscale>  0 0.21798660E+04</rscale>
<asrwt>0</asrwt>
<pdfrwt beam="1">  1        2 0.72240338E-01 0.21798660E+04</pdfrwt>
<pdfrwt beam="2">  1       -2 0.33560141E+00 0.21798660E+04</pdfrwt>
<totfact> 0.11681593E+00</totfact>
</mgrwt>
</event>
<event>
 8    1  0.6972317E-052  0.3007685E+04  0.7818608E-02  0.8241540E-01
         -2   -1    0    0    0  501 -0.00000000000E+00  0.00000000000E+00  0.90020388564E+03  0.90020388565E+03  0.25500000000E-02 0. -1.
          2   -1    0    0  501    0  0.00000000000E+00 -0.00000000000E+00 -0.25122551150E+04  0.25122551150E+04  0.25500000000E-02 0.  1.
     200001    2    1    2    0    0  0.46264524548E+03 -0.12903855364E+04 -0.72978770986E+03  0.16708237422E+04  0.61638171641E+03 0.  0.
    5000001    2    3    3    0    0  0.79060900589E+02 -0.96682036061E+01  0.40649180739E+02  0.12449006587E+03  0.86610163622E+02 0.  0.
        -11    1    4    4    0    0 -0.53801350942E+01  0.10517950149E+02 -0.13437182221E+02  0.17892204874E+02  0.51100000000E-03 0. -1.
     200002    1    4    4    0    0  0.84441035683E+02 -0.20186153755E+02  0.54086362960E+02  0.10659786100E+03  0.30000000000E+02 0. -1.
     200000    1    3    3    0    0  0.38358434489E+03 -0.12807173328E+04 -0.77043689060E+03  0.15463336763E+04  0.10100000000E+03 0.  1.
    -200001    1    1    2    0    0 -0.46264524548E+03  0.12903855364E+04 -0.88226351952E+03  0.17416352585E+04  0.61300000000E+03 0. -1.
<mgrwt>
<rscale>  0 0.30076847E+04</rscale>
<asrwt>0</asrwt>
<pdfrwt beam="1">  1        2 0.35889358E+00 0.30076847E+04</pdfrwt>
<pdfrwt beam="2">  1       -2 0.12860056E+00 0.30076847E+04</pdfrwt>
<totfact> 0.16709568E+00</totfact>
</mgrwt>
</event>
<event>
 8    1  0.6972317E-052  0.1956952E+04  0.7818608E-02  0.8627016E-01
          2   -1    0    0  501    0  0.00000000000E+00  0.00000000000E+00  0.10359201488E+04  0.10359201488E+04  0.25500000000E-02 0.  1.
         -2   -1    0    0    0  501 -0.00000000000E+00 -0.00000000000E+00 -0.92421746598E+03  0.92421746599E+03  0.25500000000E-02 0. -1.
     200001    2    1    2    0    0  0.21237541448E+03 -0.45864374989E+03  0.62916467596E+03  0.10119850320E+04  0.61058014180E+03 0.  0.
    5000001    2    3    3    0    0  0.28811691097E+03 -0.46121081735E+03  0.50163853582E+03  0.83252116227E+03  0.38173746552E+03 0.  0.
        -11    1    4    4    0    0  0.29889595936E+03 -0.47583554186E+03  0.31820576030E+03  0.64576556373E+03  0.51100000000E-03 0. -1.
     200002    1    4    4    0    0 -0.10779048390E+02  0.14624724508E+02  0.18343277551E+03  0.18675559853E+03  0.30000000000E+02 0. -1.
     200000    1    3    3    0    0 -0.75741496486E+02  0.25670674609E+01  0.12752614015E+03  0.17946386975E+03  0.10100000000E+03 0. -1.
    -200001    1    1    2    0    0 -0.21237541448E+03  0.45864374989E+03 -0.51746199310E+03  0.94815258281E+03  0.61300000000E+03 0. -1.
<mgrwt>
<rscale>  0 0.19569522E+04</rscale>
<asrwt>0</asrwt>
<pdfrwt beam="1">  1        2 0.14798859E+00 0.19569522E+04</pdfrwt>
<pdfrwt beam="2">  1       -2 0.13203107E+00 0.19569522E+04</pdfrwt>
<totfact> 0.10430493E+01</totfact>
</mgrwt>
</event>
<event>
 8    1  0.6972317E-052  0.1506695E+04  0.7818608E-02  0.8880013E-01
         -2   -1    0    0    0  501 -0.00000000000E+00  0.00000000000E+00  0.43579264143E+03  0.43579264144E+03  0.25500000000E-02 0. -1.
          2   -1    0    0  501    0  0.00000000000E+00 -0.00000000000E+00 -0.13022994309E+04  0.13022994309E+04  0.25500000000E-02 0.  1.
     200001    2    1    2    0    0 -0.63646947015E+02  0.25843615769E+03 -0.83404309797E+03  0.10690157892E+04  0.61345471451E+03 0.  0.
    5000001    2    3    3    0    0 -0.96524891286E+02  0.11387935916E+03  0.41368454810E+02  0.17541408037E+03  0.82299377024E+02 0.  0.
        -11    1    4    4    0    0 -0.94534269214E+02  0.75233210672E+02  0.22244454436E+02  0.12284779118E+03  0.51100000000E-03 0. -1.
     200002    1    4    4    0    0 -0.19906220719E+01  0.38646148492E+02  0.19124000374E+02  0.52566289196E+02  0.30000000000E+02 0.  1.
     200000    1    3    3    0    0  0.32877944271E+02  0.14455679853E+03 -0.87541155278E+03  0.89360170879E+03  0.10100000000E+03 0.  1.
    -200001    1    1    2    0    0  0.63646947015E+02 -0.25843615769E+03 -0.32463691516E+02  0.66907628319E+03  0.61300000000E+03 0.  1.
<mgrwt>
<rscale>  0 0.15066951E+04</rscale>
<asrwt>0</asrwt>
<pdfrwt beam="1">  1        2 0.18604277E+00 0.15066951E+04</pdfrwt>
<pdfrwt beam="2">  1       -2 0.62256093E-01 0.15066951E+04</pdfrwt>
<totfact> 0.43356008E+01</totfact>
</mgrwt>
</event>
<event>
 8    1  0.6972317E-052  0.1632987E+04  0.7818608E-02  0.8800535E-01
          2   -1    0    0  501    0  0.00000000000E+00  0.00000000000E+00  0.12270578019E+04  0.12270578019E+04  0.25500000000E-02 0.  1.
         -2   -1    0    0    0  501 -0.00000000000E+00 -0.00000000000E+00 -0.54330117795E+03  0.54330117796E+03  0.25500000000E-02 0. -1.
     200001    2    1    2    0    0  0.26676453190E+03 -0.43399312867E+03  0.53298950137E+03  0.95917892806E+03  0.61354140549E+03 0.  0.
    5000001    2    3    3    0    0  0.20676186874E+03 -0.39218763034E+03  0.40695397199E+02  0.45133790542E+03  0.74082263449E+02 0.  0.
        -11    1    4    4    0    0  0.31270891536E+02 -0.42291480489E+02  0.25511804005E+02  0.58457592520E+02  0.51100000000E-03 0. -1.
     200002    1    4    4    0    0  0.17549097720E+03 -0.34989614985E+03  0.15183593193E+02  0.39288031290E+03  0.30000000000E+02 0. -1.
     200000    1    3    3    0    0  0.60002663160E+02 -0.41805498332E+02  0.49229410417E+03  0.50784102264E+03  0.10100000000E+03 0.  1.
    -200001    1    1    2    0    0 -0.26676453190E+03  0.43399312867E+03  0.15076712259E+03  0.81118005182E+03  0.61300000000E+03 0. -1.
<mgrwt>
<rscale>  0 0.16329874E+04</rscale>
<asrwt>0</asrwt>
<pdfrwt beam="1">  1        2 0.17529397E+00 0.16329874E+04</pdfrwt>
<pdfrwt beam="2">  1       -2 0.77614455E-01 0.16329874E+04</pdfrwt>
<totfact> 0.29261242E+01</totfact>
</mgrwt>
</event>
<event>
 8    1  0.6972317E-052  0.1937809E+04  0.7818608E-02  0.8636262E-01
         -2   -1    0    0    0  501 -0.00000000000E+00  0.00000000000E+00  0.63653758997E+03  0.63653758998E+03  0.25500000000E-02 0. -1.
          2   -1    0    0  501    0  0.00000000000E+00 -0.00000000000E+00 -0.14748166842E+04  0.14748166842E+04  0.25500000000E-02 0.  1.
     200001    2    1    2    0    0  0.37163162381E+03 -0.61090418614E+03 -0.17717413979E+03  0.96064025705E+03  0.61654281213E+03 0.  0.
    5000001    2    3    3    0    0  0.49361731878E+03 -0.29934181204E+03 -0.42819723621E+02  0.58620236918E+03  0.92391076732E+02 0.  0.
        -11    1    4    4    0    0  0.27915486895E+03 -0.18473766658E+03 -0.62023206978E+02  0.34044430458E+03  0.51100000000E-03 0. -1.
     200002    1    4    4    0    0  0.21446244983E+03 -0.11460414546E+03  0.19203483357E+02  0.24575806460E+03  0.30000000000E+02 0. -1.
     200000    1    3    3    0    0 -0.12198569497E+03 -0.31156237409E+03 -0.13435441617E+03  0.37443788787E+03  0.10100000000E+03 0. -1.
    -200001    1    1    2    0    0 -0.37163162381E+03  0.61090418614E+03 -0.66110495445E+03  0.11507140171E+04  0.61300000000E+03 0. -1.
<mgrwt>
<rscale>  0 0.19378093E+04</rscale>
<asrwt>0</asrwt>
<pdfrwt beam="1">  1        2 0.21068810E+00 0.19378093E+04</pdfrwt>
<pdfrwt beam="2">  1       -2 0.90933942E-01 0.19378093E+04</pdfrwt>
<totfact> 0.14583680E+01</totfact>
</mgrwt>
</event>
<event>
 8    1  0.6972317E-052  0.1270307E+04  0.7818608E-02  0.9053449E-01
          2   -1    0    0  501    0  0.00000000000E+00  0.00000000000E+00  0.16921708470E+04  0.16921708470E+04  0.25500000000E-02 0.  1.
         -2   -1    0    0    0  501 -0.00000000000E+00 -0.00000000000E+00 -0.23840397234E+03  0.23840397235E+03  0.25500000000E-02 0. -1.
     200001    2    1    2    0    0 -0.99713859448E+02  0.11674946579E+03  0.63527861619E+03  0.89652195766E+03  0.61367695805E+03 0.  0.
    5000001    2    3    3    0    0 -0.50058022891E+02 -0.15824114634E+03 -0.13404933120E+02  0.18302571659E+03  0.75977987940E+02 0.  0.
        -11    1    4    4    0    0  0.47045401099E+00 -0.69920572634E+02 -0.29197609393E+02  0.75773400339E+02  0.51100000000E-03 0. -1.
     200002    1    4    4    0    0 -0.50528476902E+02 -0.88320573704E+02  0.15792676273E+02  0.10725231625E+03  0.30000000000E+02 0. -1.
     200000    1    3    3    0    0 -0.49655836557E+02  0.27499061213E+03  0.64868354931E+03  0.71349624107E+03  0.10100000000E+03 0.  1.
    -200001    1    1    2    0    0  0.99713859448E+02 -0.11674946579E+03  0.81848825848E+03  0.10340528617E+04  0.61300000000E+03 0. -1.
<mgrwt>
<rscale>  0 0.12703074E+04</rscale>
<asrwt>0</asrwt>
<pdfrwt beam="1">  1        2 0.24173869E+00 0.12703074E+04</pdfrwt>
<pdfrwt beam="2">  1       -2 0.34057711E-01 0.12703074E+04</pdfrwt>
<totfact> 0.91762711E+01</totfact>
</mgrwt>
</event>
<event>
 8    1  0.6972317E-052  0.1740711E+04  0.7818608E-02  0.8738480E-01
         -2   -1    0    0    0  501 -0.00000000000E+00  0.00000000000E+00  0.10586117466E+04  0.10586117466E+04  0.25500000000E-02 0. -1.
          2   -1    0    0  501    0  0.00000000000E+00 -0.00000000000E+00 -0.71557725525E+03  0.71557725525E+03  0.25500000000E-02 0.  1.
     200001    2    1    2    0    0  0.33995267543E+02  0.96052191262E+01  0.79975662176E+03  0.10089360745E+04  0.61407931887E+03 0.  0.
    5000001    2    3    3    0    0 -0.18766331079E+03  0.21606288479E+03  0.36631828526E+03  0.47058016560E+03  0.73184135859E+02 0.  0.
        -11    1    4    4    0    0 -0.11185911676E+03  0.15863041805E+03  0.21844495941E+03  0.29222298305E+03  0.51100000000E-03 0. -1.
     200002    1    4    4    0    0 -0.75804194038E+02  0.57432466740E+02  0.14787332585E+03  0.17835718255E+03  0.30000000000E+02 0. -1.
     200000    1    3    3    0    0  0.22165857834E+03 -0.20645766566E+03  0.43343833650E+03  0.53835590886E+03  0.10100000000E+03 0. -1.
    -200001    1    1    2    0    0 -0.33995267543E+02 -0.96052191262E+01 -0.45672213042E+03  0.76525292738E+03  0.61300000000E+03 0.  1.
<mgrwt>
<rscale>  0 0.17407108E+04</rscale>
<asrwt>0</asrwt>
<pdfrwt beam="1">  1        2 0.10222532E+00 0.17407108E+04</pdfrwt>
<pdfrwt beam="2">  1       -2 0.15123025E+00 0.17407108E+04</pdfrwt>
<totfact> 0.12207573E+01</totfact>
</mgrwt>
</event>
<event>
 8    1  0.6972317E-052  0.1540991E+04  0.7818608E-02  0.8857643E-01
         -2   -1    0    0    0  501 -0.00000000000E+00  0.00000000000E+00  0.40545351683E+03  0.40545351684E+03  0.25500000000E-02 0. -1.
          2   -1    0    0  501    0  0.00000000000E+00 -0.00000000000E+00 -0.14641948491E+04  0.14641948491E+04  0.25500000000E-02 0.  1.
     200001    2    1    2    0    0 -0.10801861812E+03  0.35699649486E+03 -0.87029073409E+03  0.11277608090E+04  0.61263689183E+03 0.  0.
    5000001    2    3    3    0    0  0.14452009630E+03  0.45328068973E+02 -0.42049549275E+03  0.51667180638E+03  0.25921536222E+03 0.  0.
        -11    1    4    4    0    0 -0.64082582460E+02 -0.13147623120E+01 -0.19168211439E+03  0.20211466783E+03  0.51100000000E-03 0. -1.
     200002    1    4    4    0    0  0.20860267876E+03  0.46642831285E+02 -0.22881337836E+03  0.31455713855E+03  0.30000000000E+02 0. -1.
     200000    1    3    3    0    0 -0.25253871441E+03  0.31166842589E+03 -0.44979524134E+03  0.61108900261E+03  0.10100000000E+03 0.  1.
    -200001    1    1    2    0    0  0.10801861812E+03 -0.35699649486E+03 -0.18845059817E+03  0.74188755695E+03  0.61300000000E+03 0. -1.
<mgrwt>
<rscale>  0 0.15409905E+04</rscale>
<asrwt>0</asrwt>
<pdfrwt beam="1">  1        2 0.20917069E+00 0.15409905E+04</pdfrwt>
<pdfrwt beam="2">  1       -2 0.57921932E-01 0.15409905E+04</pdfrwt>
<totfact> 0.41122174E+01</totfact>
</mgrwt>
</event>
<event>
 8    1  0.6972317E-052  0.1323537E+04  0.7818608E-02  0.9011106E-01
          2   -1    0    0  501    0  0.00000000000E+00  0.00000000000E+00  0.23844530999E+04  0.23844530999E+04  0.25500000000E-02 0.  1.
         -2   -1    0    0    0  501 -0.00000000000E+00 -0.00000000000E+00 -0.18366369588E+03  0.18366369590E+03  0.25500000000E-02 0. -1.
     200001    2    1    2    0    0  0.21028299225E+02  0.17554646846E+03  0.75939838649E+03  0.99184403472E+03  0.61303338232E+03 0.  0.
    5000001    2    3    3    0    0  0.23840102333E+02  0.37873232005E+03  0.59958399654E+03  0.71429397480E+03  0.81904778889E+02 0.  0.
        -11    1    4    4    0    0  0.11099734694E+02  0.36899932744E+01  0.20441861209E+02  0.23551854504E+02  0.51100000000E-03 0. -1.
     200002    1    4    4    0    0  0.12740367639E+02  0.37504232677E+03  0.57914213533E+03  0.69074212030E+03  0.30000000000E+02 0. -1.
     200000    1    3    3    0    0 -0.28118031080E+01 -0.20318585159E+03  0.15981438995E+03  0.27755005991E+03  0.10100000000E+03 0. -1.
    -200001    1    1    2    0    0 -0.21028299225E+02 -0.17554646846E+03  0.14413910175E+04  0.15762727611E+04  0.61300000000E+03 0.  1.
<mgrwt>
<rscale>  0 0.13235369E+04</rscale>
<asrwt>0</asrwt>
<pdfrwt beam="1">  1        2 0.34063613E+00 0.13235369E+04</pdfrwt>
<pdfrwt beam="2">  1       -2 0.26237673E-01 0.13235369E+04</pdfrwt>
<totfact> 0.65355729E+01</totfact>
</mgrwt>
</event>
<event>
 8    1  0.6972317E-052  0.1775275E+04  0.7818608E-02  0.8719559E-01
         -2   -1    0    0    0  501 -0.00000000000E+00  0.00000000000E+00  0.51429948936E+03  0.51429948937E+03  0.25500000000E-02 0. -1.
          2   -1    0    0  501    0  0.00000000000E+00 -0.00000000000E+00 -0.15319882295E+04  0.15319882295E+04  0.25500000000E-02 0.  1.
     200001    2    1    2    0    0 -0.22734620386E+03 -0.26678554901E+03  0.10927057997E+03  0.71637526506E+03  0.61513627367E+03 0.  0.
    5000001    2    3    3    0    0 -0.99263355219E+02  0.12520037227E+03 -0.13168261408E+03  0.22819740780E+03  0.95944771459E+02 0.  0.
        -11    1    4    4    0    0 -0.76176257213E+02  0.49126186414E+02 -0.29548733918E+02  0.95337988394E+02  0.51100000000E-03 0. -1.
     200002    1    4    4    0    0 -0.23087098006E+02  0.76074185852E+02 -0.10213388017E+03  0.13285941941E+03  0.30000000000E+02 0. -1.
     200000    1    3    3    0    0 -0.12808284864E+03 -0.39198592128E+03  0.24095319406E+03  0.48817785726E+03  0.10100000000E+03 0. -1.
    -200001    1    1    2    0    0  0.22734620386E+03  0.26678554901E+03 -0.11269593201E+04  0.13299124538E+04  0.61300000000E+03 0.  1.
<mgrwt>
<rscale>  0 0.17752755E+04</rscale>
<asrwt>0</asrwt>
<pdfrwt beam="1">  1        2 0.21885546E+00 0.17752755E+04</pdfrwt>
<pdfrwt beam="2">  1       -2 0.73471356E-01 0.17752755E+04</pdfrwt>
<totfact> 0.22287661E+01</totfact>
</mgrwt>
</event>
<event>
 8    1  0.6972317E-052  0.1280746E+04  0.7818608E-02  0.9044975E-01
          2   -1    0    0  501    0  0.00000000000E+00  0.00000000000E+00  0.21001635640E+04  0.21001635640E+04  0.25500000000E-02 0.  1.
         -2   -1    0    0    0  501 -0.00000000000E+00 -0.00000000000E+00 -0.19525974400E+03  0.19525974402E+03  0.25500000000E-02 0. -1.
     200001    2    1    2    0    0  0.45977041643E+02 -0.38400214750E+02  0.63760242431E+03  0.88637742787E+03  0.61281288197E+03 0.  0.
    5000001    2    3    3    0    0  0.22228440562E+03 -0.89234799740E+02  0.62721346284E+03  0.67666960221E+03  0.84331584420E+02 0.  0.
        -11    1    4    4    0    0  0.45829999772E+02  0.61848226896E+01  0.17579432673E+03  0.18177537297E+03  0.51100000000E-03 0. -1.
     200002    1    4    4    0    0  0.17645440584E+03 -0.95419622429E+02  0.45141913611E+03  0.49489422924E+03  0.30000000000E+02 0. -1.
     200000    1    3    3    0    0 -0.17630736397E+03  0.50834584990E+02  0.10388961473E+02  0.20970782566E+03  0.10100000000E+03 0. -1.
    -200001    1    1    2    0    0 -0.45977041643E+02  0.38400214750E+02  0.12673013957E+04  0.14090458801E+04  0.61300000000E+03 0.  1.
<mgrwt>
<rscale>  0 0.12807457E+04</rscale>
<asrwt>0</asrwt>
<pdfrwt beam="1">  1        2 0.30002338E+00 0.12807457E+04</pdfrwt>
<pdfrwt beam="2">  1       -2 0.27894248E-01 0.12807457E+04</pdfrwt>
<totfact> 0.82151830E+01</totfact>
</mgrwt>
</event>
<event>
 8    1  0.6972317E-052  0.1294682E+04  0.7818608E-02  0.9033793E-01
         -2   -1    0    0    0  501 -0.00000000000E+00  0.00000000000E+00  0.14510343620E+03  0.14510343623E+03  0.25500000000E-02 0. -1.
          2   -1    0    0  501    0  0.00000000000E+00 -0.00000000000E+00 -0.28879411198E+04  0.28879411198E+04  0.25500000000E-02 0.  1.
     200001    2    1    2    0    0 -0.11416098884E+03 -0.16715394032E+03 -0.14905412483E+04  0.16241483452E+04  0.61251241872E+03 0.  0.
    5000001    2    3    3    0    0 -0.23192450566E+03 -0.32203586191E+03 -0.11381253108E+04  0.12091126256E+04  0.95540805822E+02 0.  0.
        -11    1    4    4    0    0 -0.19431952095E+03 -0.22754937728E+03 -0.90024995977E+03  0.94867738741E+03  0.51100000000E-03 0. -1.
     200002    1    4    4    0    0 -0.37604984709E+02 -0.94486484626E+02 -0.23787535103E+03  0.26043523817E+03  0.30000000000E+02 0. -1.
     200000    1    3    3    0    0  0.11776351682E+03  0.15488192159E+03 -0.35241593752E+03  0.41503571960E+03  0.10100000000E+03 0.  1.
    -200001    1    1    2    0    0  0.11416098884E+03  0.16715394032E+03 -0.12522964353E+04  0.14088962109E+04  0.61300000000E+03 0. -1.
<mgrwt>
<rscale>  0 0.12946817E+04</rscale>
<asrwt>0</asrwt>
<pdfrwt beam="1">  1        2 0.41256298E+00 0.12946817E+04</pdfrwt>
<pdfrwt beam="2">  1       -2 0.20729064E-01 0.12946817E+04</pdfrwt>
<totfact> 0.53999351E+01</totfact>
</mgrwt>
</event>
<event>
 8    1  0.6972317E-052  0.1247507E+04  0.7818608E-02  0.9072261E-01
         -2   -1    0    0    0  501 -0.00000000000E+00  0.00000000000E+00  0.21204115127E+03  0.21204115129E+03  0.25500000000E-02 0. -1.
          2   -1    0    0  501    0  0.00000000000E+00 -0.00000000000E+00 -0.18348718586E+04  0.18348718586E+04  0.25500000000E-02 0.  1.
     200001    2    1    2    0    0 -0.89132046434E+02 -0.57638920530E+02 -0.73916936170E+03  0.96622196217E+03  0.61314498125E+03 0.  0.
    5000001    2    3    3    0    0  0.12295027365E+03  0.18750022024E+02 -0.69653282785E+03  0.71555673711E+03  0.10674797717E+03 0.  0.
        -11    1    4    4    0    0  0.89178484691E+02 -0.33731037927E+01 -0.60101796854E+03  0.60760742134E+03  0.51100000000E-03 0. -1.
     200002    1    4    4    0    0  0.33771788955E+02  0.22123125817E+02 -0.95514859314E+02  0.10794931577E+03  0.30000000000E+02 0. -1.
     200000    1    3    3    0    0 -0.21208232008E+03 -0.76388942554E+02 -0.42636533849E+02  0.25066522506E+03  0.10100000000E+03 0. -1.
    -200001    1    1    2    0    0  0.89132046434E+02  0.57638920530E+02 -0.88366134561E+03  0.10806910477E+04  0.61300000000E+03 0.  1.
<mgrwt>
<rscale>  0 0.12475069E+04</rscale>
<asrwt>0</asrwt>
<pdfrwt beam="1">  1        2 0.26212454E+00 0.12475069E+04</pdfrwt>
<pdfrwt beam="2">  1       -2 0.30291594E-01 0.12475069E+04</pdfrwt>
<totfact> 0.96705594E+01</totfact>
</mgrwt>
</event>
<event>
 8    1  0.6972317E-052  0.1266224E+04  0.7818608E-02  0.9056787E-01
          2   -1    0    0  501    0  0.00000000000E+00  0.00000000000E+00  0.31308556235E+03  0.31308556236E+03  0.25500000000E-02 0.  1.
         -2   -1    0    0    0  501 -0.00000000000E+00 -0.00000000000E+00 -0.12802605542E+04  0.12802605542E+04  0.25500000000E-02 0. -1.
     200001    2    1    2    0    0 -0.30140247195E+02  0.14915573917E+03 -0.41395880480E+03  0.75371940270E+03  0.61120796535E+03 0.  0.
    5000001    2    3    3    0    0 -0.30588107815E+03  0.81461097898E+02 -0.25169506816E+03  0.41145329199E+03  0.75790894637E+02 0.  0.
        -11    1    4    4    0    0 -0.19607479972E+03  0.66879413065E+02 -0.19028659421E+03  0.28129552238E+03  0.51100000000E-03 0. -1.
     200002    1    4    4    0    0 -0.10980627843E+03  0.14581684833E+02 -0.61408473953E+02  0.13015776960E+03  0.30000000000E+02 0. -1.
     200000    1    3    3    0    0  0.27574083096E+03  0.67694641275E+02 -0.16226373664E+03  0.34226611071E+03  0.10100000000E+03 0.  1.
    -200001    1    1    2    0    0  0.30140247195E+02 -0.14915573917E+03 -0.55321618709E+03  0.83962671389E+03  0.61300000000E+03 0. -1.
<mgrwt>
<rscale>  0 0.12662245E+04</rscale>
<asrwt>0</asrwt>
<pdfrwt beam="1">  1        2 0.44726510E-01 0.12662245E+04</pdfrwt>
<pdfrwt beam="2">  1       -2 0.18289436E+00 0.12662245E+04</pdfrwt>
<totfact> 0.19354660E+01</totfact>
</mgrwt>
</event>
<event>
 8    1  0.6972317E-052  0.1578672E+04  0.7818608E-02  0.8833759E-01
          2   -1    0    0  501    0  0.00000000000E+00  0.00000000000E+00  0.95069615791E+03  0.95069615792E+03  0.25500000000E-02 0.  1.
         -2   -1    0    0    0  501 -0.00000000000E+00 -0.00000000000E+00 -0.65536315561E+03  0.65536315562E+03  0.25500000000E-02 0. -1.
     200001    2    1    2    0    0  0.14848163154E+03 -0.42093213309E+03 -0.75521845952E+02  0.76194263082E+03  0.61288038627E+03 0.  0.
    5000001    2    3    3    0    0  0.31188270489E+03 -0.45687419696E+03 -0.93667020640E+02  0.56567243417E+03  0.72159119728E+02 0.  0.
        -11    1    4    4    0    0  0.22773325302E+03 -0.33931320765E+03 -0.50012815386E+02  0.41170033899E+03  0.51100000000E-03 0. -1.
     200002    1    4    4    0    0  0.84149451870E+02 -0.11756098931E+03 -0.43654205254E+02  0.15397209518E+03  0.30000000000E+02 0.  1.
     200000    1    3    3    0    0 -0.16340107335E+03  0.35942063876E+02  0.18145174688E+02  0.19627019665E+03  0.10100000000E+03 0.  1.
    -200001    1    1    2    0    0 -0.14848163154E+03  0.42093213309E+03  0.37085484825E+03  0.84411668272E+03  0.61300000000E+03 0.  1.
<mgrwt>
<rscale>  0 0.15786719E+04</rscale>
<asrwt>0</asrwt>
<pdfrwt beam="1">  1        2 0.13581374E+00 0.15786719E+04</pdfrwt>
<pdfrwt beam="2">  1       -2 0.93623309E-01 0.15786719E+04</pdfrwt>
<totfact> 0.28002242E+01</totfact>
</mgrwt>
</event>
<event>
 8    1  0.6972317E-052  0.1333945E+04  0.7818608E-02  0.9003071E-01
         -2   -1    0    0    0  501 -0.00000000000E+00  0.00000000000E+00  0.79653371370E+03  0.79653371371E+03  0.25500000000E-02 0. -1.
          2   -1    0    0  501    0  0.00000000000E+00 -0.00000000000E+00 -0.55848516435E+03  0.55848516436E+03  0.25500000000E-02 0.  1.
     200001    2    1    2    0    0  0.10640955491E+02 -0.11787035959E+03  0.35671833288E+03  0.71952051526E+03  0.61355941136E+03 0.  0.
    5000001    2    3    3    0    0 -0.34178326905E+02  0.14566537679E+02  0.49028814740E+03  0.50136874428E+03  0.98019427719E+02 0.  0.
        -11    1    4    4    0    0 -0.27572869062E+02  0.10280917220E+02  0.38211858345E+02  0.48229726162E+02  0.51100000000E-03 0. -1.
     200002    1    4    4    0    0 -0.66054578436E+01  0.42856204590E+01  0.45207628905E+03  0.45313901812E+03  0.30000000000E+02 0. -1.
     200000    1    3    3    0    0  0.44819282396E+02 -0.13243689727E+03 -0.13356981452E+03  0.21815177098E+03  0.10100000000E+03 0.  1.
    -200001    1    1    2    0    0 -0.10640955491E+02  0.11787035959E+03 -0.11866978353E+03  0.63549836280E+03  0.61300000000E+03 0.  1.
<mgrwt>
<rscale>  0 0.13339449E+04</rscale>
<asrwt>0</asrwt>
<pdfrwt beam="1">  1        2 0.79783595E-01 0.13339449E+04</pdfrwt>
<pdfrwt beam="2">  1       -2 0.11379053E+00 0.13339449E+04</pdfrwt>
<totfact> 0.34990634E+01</totfact>
</mgrwt>
</event>
<event>
 8    1  0.6972317E-052  0.1943168E+04  0.7818608E-02  0.8633663E-01
         -2   -1    0    0    0  501 -0.00000000000E+00  0.00000000000E+00  0.36874118839E+03  0.36874118840E+03  0.25500000000E-02 0. -1.
          2   -1    0    0  501    0  0.00000000000E+00 -0.00000000000E+00 -0.25599934967E+04  0.25599934967E+04  0.25500000000E-02 0.  1.
     200001    2    1    2    0    0 -0.15034989371E+03  0.73017348542E+03 -0.92865170568E+03  0.13394934539E+04  0.61326202648E+03 0.  0.
    5000001    2    3    3    0    0  0.69486238746E+02  0.46080333744E+03 -0.84370268227E+03  0.96759892804E+03  0.85120011136E+02 0.  0.
        -11    1    4    4    0    0  0.71806228355E+01  0.27507042801E+03 -0.47147355068E+03  0.54589615376E+03  0.51100000000E-03 0. -1.
     200002    1    4    4    0    0  0.62305615911E+02  0.18573290943E+03 -0.37222913160E+03  0.42170277427E+03  0.30000000000E+02 0. -1.
     200000    1    3    3    0    0 -0.21983613246E+03  0.26937014798E+03 -0.84949023409E+02  0.37189452582E+03  0.10100000000E+03 0.  1.
    -200001    1    1    2    0    0  0.15034989371E+03 -0.73017348542E+03 -0.12626006026E+04  0.15892412313E+04  0.61300000000E+03 0. -1.
<mgrwt>
<rscale>  0 0.19431676E+04</rscale>
<asrwt>0</asrwt>
<pdfrwt beam="1">  1        2 0.36571335E+00 0.19431676E+04</pdfrwt>
<pdfrwt beam="2">  1       -2 0.52677314E-01 0.19431676E+04</pdfrwt>
<totfact> 0.13047959E+01</totfact>
</mgrwt>
</event>
<event>
 8    1  0.6972317E-052  0.1600328E+04  0.7818608E-02  0.8820347E-01
         -2   -1    0    0    0  501 -0.00000000000E+00  0.00000000000E+00  0.40089161235E+03  0.40089161236E+03  0.25500000000E-02 0.  1.
          2   -1    0    0  501    0  0.00000000000E+00 -0.00000000000E+00 -0.15970954275E+04  0.15970954275E+04  0.25500000000E-02 0. -1.
     200001    2    1    2    0    0 -0.40494687836E+03  0.15775029278E+03 -0.94156823200E+03  0.12045921764E+04  0.61288208229E+03 0.  0.
    5000001    2    3    3    0    0 -0.48472656978E+03  0.23286300613E+03 -0.88748359751E+03  0.10460586892E+04  0.13200991780E+03 0.  0.
        -11    1    4    4    0    0 -0.22296039995E+03  0.83468317235E+02 -0.28210207440E+03  0.36913395985E+03  0.51100000000E-03 0. -1.
     200002    1    4    4    0    0 -0.26176616983E+03  0.14939468889E+03 -0.60538152311E+03  0.67692472938E+03  0.30000000000E+02 0. -1.
     200000    1    3    3    0    0  0.79779691423E+02 -0.75112713346E+02 -0.54084634493E+02  0.15853348718E+03  0.10100000000E+03 0.  1.
    -200001    1    1    2    0    0  0.40494687836E+03 -0.15775029278E+03 -0.25463558316E+03  0.79339486347E+03  0.61300000000E+03 0.  1.
<mgrwt>
<rscale>  0 0.16003277E+04</rscale>
<asrwt>0</asrwt>
<pdfrwt beam="1">  1        2 0.22815649E+00 0.16003277E+04</pdfrwt>
<pdfrwt beam="2">  1       -2 0.57270231E-01 0.16003277E+04</pdfrwt>
<totfact> 0.35642393E+01</totfact>
</mgrwt>
</event>
<event>
 8    1  0.6972317E-052  0.1549403E+04  0.7818608E-02  0.8852249E-01
         -2   -1    0    0    0  501 -0.00000000000E+00  0.00000000000E+00  0.41299052380E+03  0.41299052381E+03  0.25500000000E-02 0. -1.
          2   -1    0    0  501    0  0.00000000000E+00 -0.00000000000E+00 -0.14532106893E+04  0.14532106893E+04  0.25500000000E-02 0.  1.
     200001    2    1    2    0    0 -0.20388095185E+03  0.28736896477E+03 -0.90176916198E+03  0.11457249506E+04  0.61265787878E+03 0.  0.
    5000001    2    3    3    0    0 -0.57672334152E+02  0.33246397401E+03 -0.89587874479E+03  0.96229589955E+03  0.97756231384E+02 0.  0.
        -11    1    4    4    0    0 -0.58491150241E+02  0.92987065561E+02 -0.26964327810E+03  0.29116199348E+03  0.51100000000E-03 0. -1.
     200002    1    4    4    0    0  0.81881608893E+00  0.23947690845E+03 -0.62623546669E+03  0.67113390607E+03  0.30000000000E+02 0. -1.
     200000    1    3    3    0    0 -0.14620861770E+03 -0.45095009239E+02 -0.58904171938E+01  0.18342905103E+03  0.10100000000E+03 0. -1.
    -200001    1    1    2    0    0  0.20388095185E+03 -0.28736896477E+03 -0.13845100347E+03  0.72047626248E+03  0.61300000000E+03 0. -1.
<mgrwt>
<rscale>  0 0.15494028E+04</rscale>
<asrwt>0</asrwt>
<pdfrwt beam="1">  1        2 0.20760152E+00 0.15494028E+04</pdfrwt>
<pdfrwt beam="2">  1       -2 0.58998647E-01 0.15494028E+04</pdfrwt>
<totfact> 0.40075595E+01</totfact>
</mgrwt>
</event>
<event>
 8    1  0.6972317E-052  0.1618590E+04  0.7818608E-02  0.8809208E-01
          2   -1    0    0  501    0  0.00000000000E+00  0.00000000000E+00  0.11766121181E+04  0.11766121181E+04  0.25500000000E-02 0.  1.
         -2   -1    0    0    0  501 -0.00000000000E+00 -0.00000000000E+00 -0.55664755724E+03  0.55664755725E+03  0.25500000000E-02 0. -1.
     200001    2    1    2    0    0  0.31316697602E+03 -0.19195285193E+03  0.71669438711E+03  0.10121181417E+04  0.61303575432E+03 0.  0.
    5000001    2    3    3    0    0  0.17553824273E+03 -0.17478445224E+03  0.76175993001E+03  0.83472500395E+03  0.23478577863E+03 0.  0.
        -11    1    4    4    0    0  0.15448436383E+03 -0.18242015735E+03  0.76058895953E+03  0.79726915019E+03  0.51100000000E-03 0. -1.
     200002    1    4    4    0    0  0.21053878907E+02  0.76357051050E+01  0.11709704767E+01  0.37455853766E+02  0.30000000000E+02 0. -1.
     200000    1    3    3    0    0  0.13762873328E+03 -0.17168399682E+02 -0.45065542905E+02  0.17739313777E+03  0.10100000000E+03 0. -1.
    -200001    1    1    2    0    0 -0.31316697602E+03  0.19195285193E+03 -0.96729826253E+02  0.72114153362E+03  0.61300000000E+03 0. -1.
<mgrwt>
<rscale>  0 0.16185898E+04</rscale>
<asrwt>0</asrwt>
<pdfrwt beam="1">  1        2 0.16808745E+00 0.16185898E+04</pdfrwt>
<pdfrwt beam="2">  1       -2 0.79521079E-01 0.16185898E+04</pdfrwt>
<totfact> 0.29644121E+01</totfact>
</mgrwt>
</event>
<event>
 8    1  0.6972317E-052  0.1485465E+04  0.7818608E-02  0.8894176E-01
         -2   -1    0    0    0  501 -0.00000000000E+00  0.00000000000E+00  0.24497270146E+03  0.24497270147E+03  0.25500000000E-02 0. -1.
          2   -1    0    0  501    0  0.00000000000E+00 -0.00000000000E+00 -0.22518906918E+04  0.22518906918E+04  0.25500000000E-02 0.  1.
     200001    2    1    2    0    0 -0.40135060524E+03  0.29043552285E+02 -0.11904407514E+04  0.13994437297E+04  0.61592835117E+03 0.  0.
    5000001    2    3    3    0    0  0.84105042115E+02  0.15213788401E+03 -0.14892628869E+03  0.23936925965E+03  0.69992922091E+02 0.  0.
        -11    1    4    4    0    0  0.33763001143E+02  0.11000976730E+03 -0.96175146329E+02  0.14997249054E+03  0.51100000000E-03 0. -1.
     200002    1    4    4    0    0  0.50342040973E+02  0.42128116708E+02 -0.52751142357E+02  0.89396769106E+02  0.30000000000E+02 0.  1.
     200000    1    3    3    0    0 -0.48545564736E+03 -0.12309433172E+03 -0.10415144627E+04  0.11600744700E+04  0.10100000000E+03 0. -1.
    -200001    1    1    2    0    0  0.40135060524E+03 -0.29043552285E+02 -0.81647723893E+03  0.10974196635E+04  0.61300000000E+03 0. -1.
<mgrwt>
<rscale>  0 0.14854652E+04</rscale>
<asrwt>0</asrwt>
<pdfrwt beam="1">  1        2 0.32169866E+00 0.14854652E+04</pdfrwt>
<pdfrwt beam="2">  1       -2 0.34996102E-01 0.14854652E+04</pdfrwt>
<totfact> 0.44143817E+01</totfact>
</mgrwt>
</event>
<event>
 8    1  0.6972317E-052  0.1904685E+04  0.7818608E-02  0.8652528E-01
          2   -1    0    0  501    0  0.00000000000E+00  0.00000000000E+00  0.23905567894E+04  0.23905567894E+04  0.25500000000E-02 0.  1.
         -2   -1    0    0    0  501 -0.00000000000E+00 -0.00000000000E+00 -0.37939130845E+03  0.37939130846E+03  0.25500000000E-02 0. -1.
     200001    2    1    2    0    0  0.12426306681E+03 -0.46836632507E+03  0.20743192472E+03  0.80423396145E+03  0.60741743235E+03 0.  0.
    5000001    2    3    3    0    0  0.68626046700E+02 -0.50290841754E+03  0.47696084057E+02  0.60422102949E+03  0.32431732197E+03 0.  0.
        -11    1    4    4    0    0 -0.13019312272E+02 -0.49314632636E+03  0.98444177360E+02  0.50304478702E+03  0.51100000000E-03 0. -1.
     200002    1    4    4    0    0  0.81645358972E+02 -0.97620911758E+01 -0.50748093303E+02  0.10117624247E+03  0.30000000000E+02 0. -1.
     200000    1    3    3    0    0  0.55637020106E+02  0.34542092468E+02  0.15973584066E+03  0.20001293196E+03  0.10100000000E+03 0.  1.
    -200001    1    1    2    0    0 -0.12426306681E+03  0.46836632507E+03  0.18037335563E+04  0.19657141364E+04  0.61300000000E+03 0. -1.
<mgrwt>
<rscale>  0 0.19046852E+04</rscale>
<asrwt>0</asrwt>
<pdfrwt beam="1">  1        2 0.34150812E+00 0.19046852E+04</pdfrwt>
<pdfrwt beam="2">  1       -2 0.54198757E-01 0.19046852E+04</pdfrwt>
<totfact> 0.15153272E+01</totfact>
</mgrwt>
</event>
<event>
 8    1  0.6972317E-052  0.1431417E+04  0.7818608E-02  0.8931386E-01
          2   -1    0    0  501    0  0.00000000000E+00  0.00000000000E+00  0.28354256341E+04  0.28354256341E+04  0.25500000000E-02 0.  1.
         -2   -1    0    0    0  501 -0.00000000000E+00 -0.00000000000E+00 -0.18065672185E+03  0.18065672186E+03  0.25500000000E-02 0. -1.
     200001    2    1    2    0    0  0.26538248065E+03 -0.23747175294E+03  0.11196999681E+04  0.13252167913E+04  0.61290360651E+03 0.  0.
    5000001    2    3    3    0    0  0.26673034531E+03 -0.39427773786E+03  0.92783139111E+03  0.10576266486E+04  0.17636049945E+03 0.  0.
        -11    1    4    4    0    0  0.20340637704E+03 -0.38157239926E+03  0.74464830175E+03  0.86108811593E+03  0.51100000000E-03 0. -1.
     200002    1    4    4    0    0  0.63323968266E+02 -0.12705338598E+02  0.18318308936E+03  0.19653853264E+03  0.30000000000E+02 0. -1.
     200000    1    3    3    0    0 -0.13478646563E+01  0.15680598491E+03  0.19186857697E+03  0.26759014270E+03  0.10100000000E+03 0. -1.
    -200001    1    1    2    0    0 -0.26538248065E+03  0.23747175294E+03  0.15350689442E+04  0.16908655647E+04  0.61300000000E+03 0. -1.
<mgrwt>
<rscale>  0 0.14314171E+04</rscale>
<asrwt>0</asrwt>
<pdfrwt beam="1">  1        2 0.40506079E+00 0.14314171E+04</pdfrwt>
<pdfrwt beam="2">  1       -2 0.25808104E-01 0.14314171E+04</pdfrwt>
<totfact> 0.38477225E+01</totfact>
</mgrwt>
</event>
<event>
 8    1  0.6972317E-052  0.1321444E+04  0.7818608E-02  0.9012731E-01
          2   -1    0    0  501    0  0.00000000000E+00  0.00000000000E+00  0.11208923622E+04  0.11208923622E+04  0.25500000000E-02 0.  1.
         -2   -1    0    0    0  501 -0.00000000000E+00 -0.00000000000E+00 -0.38946975069E+03  0.38946975069E+03  0.25500000000E-02 0. -1.
     200001    2    1    2    0    0  0.54706229736E+02 -0.24020040139E+03  0.33510250330E+03  0.73995466706E+03  0.61200507938E+03 0.  0.
    5000001    2    3    3    0    0 -0.21075633033E+03 -0.26519826209E+03  0.27068341339E+03  0.44764304742E+03  0.11120449015E+03 0.  0.
        -11    1    4    4    0    0 -0.19703556309E+03 -0.23223629965E+03  0.20514792738E+03  0.36720891071E+03  0.51100000000E-03 0. -1.
     200002    1    4    4    0    0 -0.13720767243E+02 -0.32961962442E+02  0.65535486010E+02  0.80434136711E+02  0.30000000000E+02 0. -1.
     200000    1    3    3    0    0  0.26546256006E+03  0.24997860695E+02  0.64419089914E+02  0.29231161965E+03  0.10100000000E+03 0.  1.
    -200001    1    1    2    0    0 -0.54706229736E+02  0.24020040139E+03  0.39632010819E+03  0.77040744581E+03  0.61300000000E+03 0.  1.
<mgrwt>
<rscale>  0 0.13214442E+04</rscale>
<asrwt>0</asrwt>
<pdfrwt beam="1">  1        2 0.16012748E+00 0.13214442E+04</pdfrwt>
<pdfrwt beam="2">  1       -2 0.55638535E-01 0.13214442E+04</pdfrwt>
<totfact> 0.70599292E+01</totfact>
</mgrwt>
</event>
<event>
 8    1  0.6972317E-052  0.1251238E+04  0.7818608E-02  0.9069154E-01
         -2   -1    0    0    0  501 -0.00000000000E+00  0.00000000000E+00  0.40713398638E+03  0.40713398639E+03  0.25500000000E-02 0. -1.
          2   -1    0    0  501    0  0.00000000000E+00 -0.00000000000E+00 -0.96135209264E+03  0.96135209264E+03  0.25500000000E-02 0.  1.
     200001    2    1    2    0    0 -0.10635547938E+03 -0.69696214211E+02 -0.27360823030E+03  0.68242489171E+03  0.61210556186E+03 0.  0.
    5000001    2    3    3    0    0 -0.48194501220E+02  0.25046340802E+03 -0.10957434938E+03  0.30428074304E+03  0.12460178104E+03 0.  0.
        -11    1    4    4    0    0 -0.43270823169E+02  0.17235920935E+03 -0.12732011792E+03  0.21861032366E+03  0.51100000000E-03 0. -1.
     200002    1    4    4    0    0 -0.49236780517E+01  0.78104198664E+02  0.17745768538E+02  0.85670419373E+02  0.30000000000E+02 0. -1.
     200000    1    3    3    0    0 -0.58160978155E+02 -0.32015962223E+03 -0.16403388092E+03  0.37814414867E+03  0.10100000000E+03 0.  1.
    -200001    1    1    2    0    0  0.10635547938E+03  0.69696214211E+02 -0.28060987596E+03  0.68606118733E+03  0.61300000000E+03 0.  1.
<mgrwt>
<rscale>  0 0.12512380E+04</rscale>
<asrwt>0</asrwt>
<pdfrwt beam="1">  1        2 0.13733601E+00 0.12512380E+04</pdfrwt>
<pdfrwt beam="2">  1       -2 0.58161998E-01 0.12512380E+04</pdfrwt>
<totfact> 0.80820738E+01</totfact>
</mgrwt>
</event>
<event>
 8    1  0.6972317E-052  0.1387850E+04  0.7818608E-02  0.8962661E-01
          2   -1    0    0  501    0  0.00000000000E+00  0.00000000000E+00  0.16046606995E+04  0.16046606995E+04  0.25500000000E-02 0.  1.
         -2   -1    0    0    0  501 -0.00000000000E+00 -0.00000000000E+00 -0.30008316152E+03  0.30008316153E+03  0.25500000000E-02 0. -1.
     200001    2    1    2    0    0  0.59643968701E+02  0.68572290332E+01  0.21542130977E+03  0.65349060367E+03  0.61403518123E+03 0.  0.
    5000001    2    3    3    0    0 -0.10244210044E+03  0.66415343743E+01  0.23098772193E+03  0.46187835583E+03  0.38657184841E+03 0.  0.
        -11    1    4    4    0    0  0.98165002398E+02  0.11872947407E+03  0.15361472357E+03  0.21755582963E+03  0.51100000000E-03 0. -1.
     200002    1    4    4    0    0 -0.20060710284E+03 -0.11208793969E+03  0.77372998367E+02  0.24432252620E+03  0.30000000000E+02 0. -1.
     200000    1    3    3    0    0  0.16208606914E+03  0.21569465891E+00 -0.15566412158E+02  0.19161224784E+03  0.10100000000E+03 0. -1.
    -200001    1    1    2    0    0 -0.59643968701E+02 -0.68572290332E+01  0.10891562282E+04  0.12512532573E+04  0.61300000000E+03 0.  1.
<mgrwt>
<rscale>  0 0.13878496E+04</rscale>
<asrwt>0</asrwt>
<pdfrwt beam="1">  1        2 0.22923724E+00 0.13878496E+04</pdfrwt>
<pdfrwt beam="2">  1       -2 0.42869023E-01 0.13878496E+04</pdfrwt>
<totfact> 0.64699643E+01</totfact>
</mgrwt>
</event>
<event>
 8    1  0.6972317E-052  0.1591460E+04  0.7818608E-02  0.8825812E-01
         -2   -1    0    0    0  501 -0.00000000000E+00  0.00000000000E+00  0.72827165103E+03  0.72827165103E+03  0.25500000000E-02 0. -1.
          2   -1    0    0  501    0  0.00000000000E+00 -0.00000000000E+00 -0.86943684813E+03  0.86943684813E+03  0.25500000000E-02 0.  1.
     200001    2    1    2    0    0  0.32243440472E+03  0.37942007644E+03  0.33113351312E+01  0.79485981596E+03  0.61957051442E+03 0.  0.
    5000001    2    3    3    0    0 -0.11241764535E+03  0.31438559074E+03  0.96024739832E+01  0.34367651817E+03  0.80903120974E+02 0.  0.
        -11    1    4    4    0    0 -0.55800863375E+02  0.77797958732E+02  0.22061615697E+02  0.98249547702E+02  0.51100000000E-03 0. -1.
     200002    1    4    4    0    0 -0.56616781973E+02  0.23658763201E+03 -0.12459141713E+02  0.24542697046E+03  0.30000000000E+02 0. -1.
     200000    1    3    3    0    0  0.43485205007E+03  0.65034485701E+02 -0.62911388520E+01  0.45118329779E+03  0.10100000000E+03 0.  1.
    -200001    1    1    2    0    0 -0.32243440472E+03 -0.37942007644E+03 -0.14447653223E+03  0.80284868320E+03  0.61300000000E+03 0. -1.
<mgrwt>
<rscale>  0 0.15914600E+04</rscale>
<asrwt>0</asrwt>
<pdfrwt beam="1">  1        2 0.12420526E+00 0.15914600E+04</pdfrwt>
<pdfrwt beam="2">  1       -2 0.10403881E+00 0.15914600E+04</pdfrwt>
<totfact> 0.24627203E+01</totfact>
</mgrwt>
</event>
<event>
 8    1  0.6972317E-052  0.1813598E+04  0.7818608E-02  0.8699102E-01
          2   -1    0    0  501    0  0.00000000000E+00  0.00000000000E+00  0.82070538523E+03  0.82070538524E+03  0.25500000000E-02 0.  1.
         -2   -1    0    0    0  501 -0.00000000000E+00 -0.00000000000E+00 -0.10019236934E+04  0.10019236934E+04  0.25500000000E-02 0. -1.
     200001    2    1    2    0    0 -0.14544376280E+03 -0.40696735501E+03  0.42135841651E+03  0.86052512100E+03  0.61333861163E+03 0.  0.
    5000001    2    3    3    0    0  0.15455401009E+03 -0.55999783404E+02 -0.48420553972E+02  0.19413921090E+03  0.91228095380E+02 0.  0.
        -11    1    4    4    0    0  0.12180686721E+03 -0.89584935144E+01 -0.21245869590E+02  0.12396997410E+03  0.51100000000E-03 0. -1.
     200002    1    4    4    0    0  0.32747142885E+02 -0.47041289890E+02 -0.27174684383E+02  0.70169236799E+02  0.30000000000E+02 0.  1.
     200000    1    3    3    0    0 -0.29999777289E+03 -0.35096757161E+03  0.46977897049E+03  0.66638591009E+03  0.10100000000E+03 0.  1.
    -200001    1    1    2    0    0  0.14544376280E+03  0.40696735501E+03 -0.60257672468E+03  0.96210395764E+03  0.61300000000E+03 0. -1.
<mgrwt>
<rscale>  0 0.18135977E+04</rscale>
<asrwt>0</asrwt>
<pdfrwt beam="1">  1        2 0.11724363E+00 0.18135977E+04</pdfrwt>
<pdfrwt beam="2">  1       -2 0.14313196E+00 0.18135977E+04</pdfrwt>
<totfact> 0.11788818E+01</totfact>
</mgrwt>
</event>
<event>
 8    1  0.6972317E-052  0.1510870E+04  0.7818608E-02  0.8877257E-01
         -2   -1    0    0    0  501 -0.00000000000E+00  0.00000000000E+00  0.33616657183E+03  0.33616657184E+03  0.25500000000E-02 0. -1.
          2   -1    0    0  501    0  0.00000000000E+00 -0.00000000000E+00 -0.16976158465E+04  0.16976158465E+04  0.25500000000E-02 0.  1.
     200001    2    1    2    0    0  0.54024760247E+00  0.26072613703E+03 -0.11601535618E+04  0.13378891978E+04  0.61319883256E+03 0.  0.
    5000001    2    3    3    0    0 -0.68299623652E+02  0.32492371708E+03 -0.11440073493E+04  0.11988857542E+04  0.13540301247E+03 0.  0.
        -11    1    4    4    0    0 -0.49511891936E+02  0.23331494510E+02 -0.16157257596E+03  0.17059156890E+03  0.51100000000E-03 0. -1.
     200002    1    4    4    0    0 -0.18787731715E+02  0.30159222257E+03 -0.98243477338E+03  0.10282941853E+04  0.30000000000E+02 0. -1.
     200000    1    3    3    0    0  0.68839871254E+02 -0.64197580055E+02 -0.16146212475E+02  0.13900344361E+03  0.10100000000E+03 0.  1.
    -200001    1    1    2    0    0 -0.54024760247E+00 -0.26072613703E+03 -0.20129571290E+03  0.69589322056E+03  0.61300000000E+03 0. -1.
<mgrwt>
<rscale>  0 0.15108696E+04</rscale>
<asrwt>0</asrwt>
<pdfrwt beam="1">  1        2 0.24251654E+00 0.15108696E+04</pdfrwt>
<pdfrwt beam="2">  1       -2 0.48023797E-01 0.15108696E+04</pdfrwt>
<totfact> 0.45679367E+01</totfact>
</mgrwt>
</event>
<event>
 8    1  0.6972317E-052  0.1474245E+04  0.7818608E-02  0.8901763E-01
          2   -1    0    0  501    0  0.00000000000E+00  0.00000000000E+00  0.24525011433E+04  0.24525011433E+04  0.25500000000E-02 0.  1.
         -2   -1    0    0    0  501 -0.00000000000E+00 -0.00000000000E+00 -0.22154907731E+03  0.22154907733E+03  0.25500000000E-02 0. -1.
     200001    2    1    2    0    0 -0.40791669589E+03 -0.34544722314E+02  0.10600471558E+04  0.12904402043E+04  0.61151171673E+03 0.  0.
    5000001    2    3    3    0    0 -0.43350333054E+03 -0.10381059924E+03  0.10707222682E+04  0.11648719137E+04  0.10852935752E+03 0.  0.
        -11    1    4    4    0    0 -0.57412629154E+01 -0.20406707918E+02  0.37166659218E+02  0.42787339080E+02  0.51100000000E-03 0. -1.
     200002    1    4    4    0    0 -0.42776206762E+03 -0.83403891323E+02  0.10335556090E+04  0.11220845746E+04  0.30000000000E+02 0. -1.
     200000    1    3    3    0    0  0.25586634644E+02  0.69265876927E+02 -0.10675112461E+02  0.12556829060E+03  0.10100000000E+03 0. -1.
    -200001    1    1    2    0    0  0.40791669589E+03  0.34544722314E+02  0.11709049102E+04  0.13836100164E+04  0.61300000000E+03 0.  1.
<mgrwt>
<rscale>  0 0.14742447E+04</rscale>
<asrwt>0</asrwt>
<pdfrwt beam="1">  1        2 0.35035732E+00 0.14742447E+04</pdfrwt>
<pdfrwt beam="2">  1       -2 0.31649867E-01 0.14742447E+04</pdfrwt>
<totfact> 0.42043594E+01</totfact>
</mgrwt>
</event>
<event>
 8    1  0.6972317E-052  0.1508451E+04  0.7818608E-02  0.8878852E-01
          2   -1    0    0  501    0  0.00000000000E+00  0.00000000000E+00  0.54049044588E+03  0.54049044589E+03  0.25500000000E-02 0.  1.
         -2   -1    0    0    0  501 -0.00000000000E+00 -0.00000000000E+00 -0.10524817268E+04  0.10524817268E+04  0.25500000000E-02 0. -1.
     200001    2    1    2    0    0  0.21017271871E+03  0.32503351871E+03 -0.37067580963E+02  0.72628833138E+03  0.61343408347E+03 0.  0.
    5000001    2    3    3    0    0  0.81933412990E+02  0.36575061826E+03 -0.24781313458E+03  0.45662578281E+03  0.81296721563E+02 0.  0.
        -11    1    4    4    0    0  0.75713036433E+02  0.30557345327E+03 -0.21728259519E+03  0.38251709165E+03  0.51100000000E-03 0. -1.
     200002    1    4    4    0    0  0.62203765575E+01  0.60177164996E+02 -0.30530539388E+02  0.74108691169E+02  0.30000000000E+02 0.  1.
     200000    1    3    3    0    0  0.12823930572E+03 -0.40717099549E+02  0.21074555362E+03  0.26966254856E+03  0.10100000000E+03 0.  1.
    -200001    1    1    2    0    0 -0.21017271871E+03 -0.32503351871E+03 -0.47492369991E+03  0.86668384127E+03  0.61300000000E+03 0. -1.
<mgrwt>
<rscale>  0 0.15084513E+04</rscale>
<asrwt>0</asrwt>
<pdfrwt beam="1">  1        2 0.77212921E-01 0.15084513E+04</pdfrwt>
<pdfrwt beam="2">  1       -2 0.15035453E+00 0.15084513E+04</pdfrwt>
<totfact> 0.17663353E+01</totfact>
</mgrwt>
</event>
<event>
 8    1  0.6972317E-052  0.1278246E+04  0.7818608E-02  0.9046997E-01
         -2   -1    0    0    0  501 -0.00000000000E+00  0.00000000000E+00  0.23346676435E+03  0.23346676437E+03  0.25500000000E-02 0. -1.
          2   -1    0    0  501    0  0.00000000000E+00 -0.00000000000E+00 -0.17496195729E+04  0.17496195729E+04  0.25500000000E-02 0.  1.
     200001    2    1    2    0    0  0.14563821071E+03 -0.10328827737E+03 -0.71708100266E+03  0.96026489263E+03  0.61320840093E+03 0.  0.
    5000001    2    3    3    0    0 -0.16985325901E+02  0.19509053427E+03 -0.39151030110E+03  0.47894004223E+03  0.19430499306E+03 0.  0.
        -11    1    4    4    0    0  0.85091494475E+02  0.10830005771E+03 -0.21467382912E+03  0.25505747948E+03  0.51100000000E-03 0. -1.
     200002    1    4    4    0    0 -0.10207682038E+03  0.86790476561E+02 -0.17683647198E+03  0.22388256274E+03  0.30000000000E+02 0. -1.
     200000    1    3    3    0    0  0.16262353661E+03 -0.29837881164E+03 -0.32557070157E+03  0.48132485040E+03  0.10100000000E+03 0.  1.
    -200001    1    1    2    0    0 -0.14563821071E+03  0.10328827737E+03 -0.79907180588E+03  0.10228214446E+04  0.61300000000E+03 0. -1.
<mgrwt>
<rscale>  0 0.12782457E+04</rscale>
<asrwt>0</asrwt>
<pdfrwt beam="1">  1        2 0.24994565E+00 0.12782457E+04</pdfrwt>
<pdfrwt beam="2">  1       -2 0.33352396E-01 0.12782457E+04</pdfrwt>
<totfact> 0.89102959E+01</totfact>
</mgrwt>
</event>
<event>
 8    1  0.6972317E-052  0.1605656E+04  0.7818608E-02  0.8817081E-01
         -2   -1    0    0    0  501 -0.00000000000E+00  0.00000000000E+00  0.42034207839E+03  0.42034207839E+03  0.25500000000E-02 0.  1.
          2   -1    0    0  501    0  0.00000000000E+00 -0.00000000000E+00 -0.15333521086E+04  0.15333521086E+04  0.25500000000E-02 0. -1.
     200001    2    1    2    0    0 -0.11654926614E+03 -0.44152375004E+03 -0.25786371620E+03  0.80671067724E+03  0.61299385588E+03 0.  0.
    5000001    2    3    3    0    0 -0.46347366924E+02 -0.38343391908E+03  0.73424978405E+02  0.44858230041E+03  0.21602130466E+03 0.  0.
        -11    1    4    4    0    0  0.34482418135E+02 -0.13177726340E+02  0.57196115578E+02  0.68074116002E+02  0.51100000000E-03 0. -1.
     200002    1    4    4    0    0 -0.80829785060E+02 -0.37025619274E+03  0.16228862827E+02  0.38050818441E+03  0.30000000000E+02 0. -1.
     200000    1    3    3    0    0 -0.70201899215E+02 -0.58089830965E+02 -0.33128869460E+03  0.35812837682E+03  0.10100000000E+03 0. -1.
    -200001    1    1    2    0    0  0.11654926614E+03  0.44152375004E+03 -0.85514631402E+03  0.11469835098E+04  0.61300000000E+03 0. -1.
<mgrwt>
<rscale>  0 0.16056555E+04</rscale>
<asrwt>0</asrwt>
<pdfrwt beam="1">  1        2 0.21905030E+00 0.16056555E+04</pdfrwt>
<pdfrwt beam="2">  1       -2 0.60048869E-01 0.16056555E+04</pdfrwt>
<totfact> 0.34846079E+01</totfact>
</mgrwt>
</event>
<event>
 8    1  0.6972317E-052  0.1347766E+04  0.7818608E-02  0.8992521E-01
         -2   -1    0    0    0  501 -0.00000000000E+00  0.00000000000E+00  0.16352988051E+03  0.16352988053E+03  0.25500000000E-02 0. -1.
          2   -1    0    0  501    0  0.00000000000E+00 -0.00000000000E+00 -0.27769729851E+04  0.27769729851E+04  0.25500000000E-02 0.  1.
     200001    2    1    2    0    0 -0.98808626252E+02 -0.24370519918E+03 -0.10972970455E+04  0.12841142514E+04  0.61297082798E+03 0.  0.
    5000001    2    3    3    0    0 -0.16412046950E+03  0.12770557889E+00 -0.35232235215E+02  0.18780098255E+03  0.84216113842E+02 0.  0.
        -11    1    4    4    0    0 -0.45346530445E+01 -0.18405167882E+02 -0.12707219555E+02  0.22820751786E+02  0.51100000000E-03 0. -1.
     200002    1    4    4    0    0 -0.15958581645E+03  0.18532873460E+02 -0.22525015660E+02  0.16498023076E+03  0.30000000000E+02 0. -1.
     200000    1    3    3    0    0  0.65311843244E+02 -0.24383290476E+03 -0.10620648103E+04  0.10963132689E+04  0.10100000000E+03 0.  1.
    -200001    1    1    2    0    0  0.98808626252E+02  0.24370519918E+03 -0.15161460592E+04  0.16563886143E+04  0.61300000000E+03 0. -1.
<mgrwt>
<rscale>  0 0.13477656E+04</rscale>
<asrwt>0</asrwt>
<pdfrwt beam="1">  1        2 0.39671040E+00 0.13477656E+04</pdfrwt>
<pdfrwt beam="2">  1       -2 0.23361413E-01 0.13477656E+04</pdfrwt>
<totfact> 0.49910531E+01</totfact>
</mgrwt>
</event>
<event>
 8    1  0.6972317E-052  0.1496556E+04  0.7818608E-02  0.8886747E-01
          2   -1    0    0  501    0  0.00000000000E+00  0.00000000000E+00  0.11448932017E+04  0.11448932017E+04  0.25500000000E-02 0.  1.
         -2   -1    0    0    0  501 -0.00000000000E+00 -0.00000000000E+00 -0.48905842911E+03  0.48905842911E+03  0.25500000000E-02 0. -1.
     200001    2    1    2    0    0  0.22509993942E+01  0.35026029827E+03  0.59866921395E+03  0.92562667384E+03  0.61293765428E+03 0.  0.
    5000001    2    3    3    0    0 -0.11607515708E+03  0.45050335967E+03  0.57007781452E+03  0.73836157088E+03  0.61338206427E+02 0.  0.
        -11    1    4    4    0    0 -0.26201214370E+02  0.42854794282E+02  0.51022355598E+02  0.71598308629E+02  0.51100000000E-03 0. -1.
     200002    1    4    4    0    0 -0.89873942711E+02  0.40764856539E+03  0.51905545893E+03  0.66676326225E+03  0.30000000000E+02 0. -1.
     200000    1    3    3    0    0  0.11832615648E+03 -0.10024306140E+03  0.28591399430E+02  0.18726510296E+03  0.10100000000E+03 0. -1.
    -200001    1    1    2    0    0 -0.22509993942E+01 -0.35026029827E+03  0.57165558603E+02  0.70832495695E+03  0.61300000000E+03 0.  1.
<mgrwt>
<rscale>  0 0.14965556E+04</rscale>
<asrwt>0</asrwt>
<pdfrwt beam="1">  1        2 0.16355617E+00 0.14965556E+04</pdfrwt>
<pdfrwt beam="2">  1       -2 0.69865491E-01 0.14965556E+04</pdfrwt>
<totfact> 0.41558844E+01</totfact>
</mgrwt>
</event>
<event>
 8    1  0.6972317E-052  0.1369437E+04  0.7818608E-02  0.8976244E-01
          2   -1    0    0  501    0  0.00000000000E+00  0.00000000000E+00  0.16755346058E+04  0.16755346058E+04  0.25500000000E-02 0.  1.
         -2   -1    0    0    0  501 -0.00000000000E+00 -0.00000000000E+00 -0.27981487304E+03  0.27981487305E+03  0.25500000000E-02 0. -1.
     200001    2    1    2    0    0 -0.69575509159E+02  0.59881975613E+01  0.27340073531E+03  0.67462876688E+03  0.61278005929E+03 0.  0.
    5000001    2    3    3    0    0  0.23907374561E+03  0.65207677608E+02  0.21128296875E+02  0.25916072662E+03  0.72866866510E+02 0.  0.
        -11    1    4    4    0    0  0.91034819540E+01 -0.93432888502E+01 -0.53908533057E+01  0.14114947037E+02  0.51100000000E-03 0. -1.
     200002    1    4    4    0    0  0.22997026366E+03  0.74550966458E+02  0.26519150180E+02  0.24504577959E+03  0.30000000000E+02 0. -1.
     200000    1    3    3    0    0 -0.30864925477E+03 -0.59219480047E+02  0.25227243843E+03  0.41546804026E+03  0.10100000000E+03 0.  1.
    -200001    1    1    2    0    0  0.69575509159E+02 -0.59881975613E+01  0.11223189974E+04  0.12807207119E+04  0.61300000000E+03 0.  1.
<mgrwt>
<rscale>  0 0.13694371E+04</rscale>
<asrwt>0</asrwt>
<pdfrwt beam="1">  1        2 0.23936208E+00 0.13694371E+04</pdfrwt>
<pdfrwt beam="2">  1       -2 0.39973554E-01 0.13694371E+04</pdfrwt>
<totfact> 0.68263244E+01</totfact>
</mgrwt>
</event>
<event>
 8    1  0.6972317E-052  0.1565612E+04  0.7818608E-02  0.8841957E-01
          2   -1    0    0  501    0  0.00000000000E+00  0.00000000000E+00  0.26792876896E+03  0.26792876897E+03  0.25500000000E-02 0.  1.
         -2   -1    0    0    0  501 -0.00000000000E+00 -0.00000000000E+00 -0.22871191076E+04  0.22871191076E+04  0.25500000000E-02 0. -1.
     200001    2    1    2    0    0 -0.16691214312E+03 -0.40554672828E+03 -0.65891065837E+03  0.99990877640E+03  0.61100449513E+03 0.  0.
    5000001    2    3    3    0    0  0.68527106923E+02 -0.46639086125E+03 -0.34069223227E+03  0.58687413417E+03  0.78317637761E+02 0.  0.
        -11    1    4    4    0    0  0.49553001664E+02 -0.30392745586E+03 -0.25490193419E+03  0.39975291676E+03  0.51100000000E-03 0. -1.
     200002    1    4    4    0    0  0.18974105260E+02 -0.16246340539E+03 -0.85790298077E+02  0.18712121741E+03  0.30000000000E+02 0. -1.
     200000    1    3    3    0    0 -0.23543925004E+03  0.60844132973E+02 -0.31821842610E+03  0.41303464223E+03  0.10100000000E+03 0. -1.
    -200001    1    1    2    0    0  0.16691214312E+03  0.40554672828E+03 -0.13602796803E+04  0.15551391002E+04  0.61300000000E+03 0. -1.
<mgrwt>
<rscale>  0 0.15656117E+04</rscale>
<asrwt>0</asrwt>
<pdfrwt beam="1">  1        2 0.38275540E-01 0.15656117E+04</pdfrwt>
<pdfrwt beam="2">  1       -2 0.32673129E+00 0.15656117E+04</pdfrwt>
<totfact> 0.28499161E+00</totfact>
</mgrwt>
</event>
<event>
 8    1  0.6972317E-052  0.1620175E+04  0.7818608E-02  0.8808249E-01
         -2   -1    0    0    0  501 -0.00000000000E+00  0.00000000000E+00  0.17273060589E+03  0.17273060591E+03  0.25500000000E-02 0. -1.
          2   -1    0    0  501    0  0.00000000000E+00 -0.00000000000E+00 -0.37992201173E+04  0.37992201173E+04  0.25500000000E-02 0.  1.
     200001    2    1    2    0    0 -0.28837546442E+03  0.54249312741E+02 -0.73197559241E+03  0.99872297820E+03  0.61282617674E+03 0.  0.
    5000001    2    3    3    0    0 -0.38891178719E+02  0.16009930033E+03 -0.62819211576E+03  0.69144681787E+03  0.23733743468E+03 0.  0.
        -11    1    4    4    0    0 -0.28112604836E+02  0.65617930543E+02 -0.18622724630E+02  0.73775586967E+02  0.51100000000E-03 0. -1.
     200002    1    4    4    0    0 -0.10778573883E+02  0.94481369783E+02 -0.60956939113E+03  0.61767123091E+03  0.30000000000E+02 0. -1.
     200000    1    3    3    0    0 -0.24948428570E+03 -0.10584998759E+03 -0.10378347665E+03  0.30727616033E+03  0.10100000000E+03 0.  1.
    -200001    1    1    2    0    0  0.28837546442E+03 -0.54249312741E+02 -0.28945139190E+04  0.29732277450E+04  0.61300000000E+03 0. -1.
<mgrwt>
<rscale>  0 0.16201748E+04</rscale>
<asrwt>0</asrwt>
<pdfrwt beam="1">  1        2 0.54274568E+00 0.16201748E+04</pdfrwt>
<pdfrwt beam="2">  1       -2 0.24675803E-01 0.16201748E+04</pdfrwt>
<totfact> 0.11077435E+01</totfact>
</mgrwt>
</event>
<event>
 8    1  0.6972317E-052  0.1373958E+04  0.7818608E-02  0.8972887E-01
          2   -1    0    0  501    0  0.00000000000E+00  0.00000000000E+00  0.79736330427E+03  0.79736330428E+03  0.25500000000E-02 0.  1.
         -2   -1    0    0    0  501 -0.00000000000E+00 -0.00000000000E+00 -0.59187634630E+03  0.59187634631E+03  0.25500000000E-02 0. -1.
     200001    2    1    2    0    0 -0.42491508490E+02  0.87668332205E+02 -0.19455073282E+03  0.65080182733E+03  0.61335288868E+03 0.  0.
    5000001    2    3    3    0    0  0.18133033996E+03  0.10230673573E+03 -0.13857164568E+02  0.34557786316E+03  0.27547173744E+03 0.  0.
        -11    1    4    4    0    0  0.23465621135E+03  0.13458469912E+03  0.14300384015E+02  0.27088942347E+03  0.51100000000E-03 0. -1.
     200002    1    4    4    0    0 -0.53325871398E+02 -0.32277963386E+02 -0.28157548582E+02  0.74688439687E+02  0.30000000000E+02 0. -1.
     200000    1    3    3    0    0 -0.22382184845E+03 -0.14638403527E+02 -0.18069356825E+03  0.30522396417E+03  0.10100000000E+03 0. -1.
    -200001    1    1    2    0    0  0.42491508490E+02 -0.87668332205E+02  0.40003769079E+03  0.73843782326E+03  0.61300000000E+03 0.  1.
<mgrwt>
<rscale>  0 0.13739585E+04</rscale>
<asrwt>0</asrwt>
<pdfrwt beam="1">  1        2 0.11390904E+00 0.13739585E+04</pdfrwt>
<pdfrwt beam="2">  1       -2 0.84553764E-01 0.13739585E+04</pdfrwt>
<totfact> 0.45473876E+01</totfact>
</mgrwt>
</event>
<event>
 8    1  0.6972317E-052  0.1283423E+04  0.7818608E-02  0.9042815E-01
         -2   -1    0    0    0  501 -0.00000000000E+00  0.00000000000E+00  0.16944878176E+03  0.16944878177E+03  0.25500000000E-02 0. -1.
          2   -1    0    0  501    0  0.00000000000E+00 -0.00000000000E+00 -0.24301944303E+04  0.24301944303E+04  0.25500000000E-02 0.  1.
     200001    2    1    2    0    0 -0.11186640014E+03 -0.15382196068E+03 -0.11129684265E+04  0.12846006886E+04  0.61263767736E+03 0.  0.
    5000001    2    3    3    0    0 -0.58980615776E+02  0.20731517960E+02  0.33707427445E+02  0.11912553352E+03  0.95635731806E+02 0.  0.
        -11    1    4    4    0    0  0.20801813415E+02 -0.65386995826E+01  0.17978782034E+02  0.28261398360E+02  0.51100000000E-03 0. -1.
     200002    1    4    4    0    0 -0.79782429191E+02  0.27270217542E+02  0.15728645412E+02  0.90864135163E+02  0.30000000000E+02 0. -1.
     200000    1    3    3    0    0 -0.52885784366E+02 -0.17455347864E+03 -0.11466758540E+04  0.11654751551E+04  0.10100000000E+03 0.  1.
    -200001    1    1    2    0    0  0.11186640014E+03  0.15382196068E+03 -0.11477772220E+04  0.13150425234E+04  0.61300000000E+03 0.  1.
<mgrwt>
<rscale>  0 0.12834227E+04</rscale>
<asrwt>0</asrwt>
<pdfrwt beam="1">  1        2 0.34717061E+00 0.12834227E+04</pdfrwt>
<pdfrwt beam="2">  1       -2 0.24206970E-01 0.12834227E+04</pdfrwt>
<totfact> 0.71833444E+01</totfact>
</mgrwt>
</event>
<event>
 8    1  0.6972317E-052  0.1875546E+04  0.7818608E-02  0.8667126E-01
         -2   -1    0    0    0  501 -0.00000000000E+00  0.00000000000E+00  0.58323462806E+03  0.58323462807E+03  0.25500000000E-02 0. -1.
          2   -1    0    0  501    0  0.00000000000E+00 -0.00000000000E+00 -0.15078285064E+04  0.15078285064E+04  0.25500000000E-02 0.  1.
     200001    2    1    2    0    0  0.28318954703E+03  0.42388072197E+03 -0.10125365178E+04  0.12889570979E+04  0.61344031044E+03 0.  0.
    5000001    2    3    3    0    0  0.29668706803E+03  0.28056102393E+03 -0.10299421805E+04  0.11122463851E+04  0.97843863397E+02 0.  0.
        -11    1    4    4    0    0  0.22569996887E+03  0.24799108518E+03 -0.85219490055E+03  0.91579266365E+03  0.51100000000E-03 0. -1.
     200002    1    4    4    0    0  0.70987099161E+02  0.32569938746E+02 -0.17774727995E+03  0.19645372149E+03  0.30000000000E+02 0.  1.
     200000    1    3    3    0    0 -0.13497521006E+02  0.14331969804E+03  0.17405662720E+02  0.17671071279E+03  0.10100000000E+03 0. -1.
    -200001    1    1    2    0    0 -0.28318954703E+03 -0.42388072197E+03  0.87942639443E+02  0.80210603653E+03  0.61300000000E+03 0. -1.
<mgrwt>
<rscale>  0 0.18755456E+04</rscale>
<asrwt>0</asrwt>
<pdfrwt beam="1">  1        2 0.21540407E+00 0.18755456E+04</pdfrwt>
<pdfrwt beam="2">  1       -2 0.83319233E-01 0.18755456E+04</pdfrwt>
<totfact> 0.17191207E+01</totfact>
</mgrwt>
</event>
<event>
 8    1  0.6972317E-052  0.1539983E+04  0.7818608E-02  0.8858291E-01
         -2   -1    0    0    0  501 -0.00000000000E+00  0.00000000000E+00  0.26865105498E+03  0.26865105500E+03  0.25500000000E-02 0. -1.
          2   -1    0    0  501    0  0.00000000000E+00 -0.00000000000E+00 -0.22069042650E+04  0.22069042650E+04  0.25500000000E-02 0.  1.
     200001    2    1    2    0    0 -0.45529448755E+03 -0.77920166458E+02 -0.11104658075E+04  0.13466772900E+04  0.60583891523E+03 0.  0.
    5000001    2    3    3    0    0 -0.33900854079E+03 -0.11470642784E+03 -0.11296675195E+04  0.11871612840E+04  0.71546169306E+02 0.  0.
        -11    1    4    4    0    0 -0.20584308441E+03 -0.91001687064E+02 -0.74801386752E+03  0.78113854626E+03  0.51100000000E-03 0. -1.
     200002    1    4    4    0    0 -0.13316545638E+03 -0.23704740773E+02 -0.38165365196E+03  0.40602273774E+03  0.30000000000E+02 0.  1.
     200000    1    3    3    0    0 -0.11628594676E+03  0.36786261380E+02  0.19201712004E+02  0.15951600605E+03  0.10100000000E+03 0. -1.
    -200001    1    1    2    0    0  0.45529448755E+03  0.77920166458E+02 -0.82778740259E+03  0.11288780300E+04  0.61300000000E+03 0. -1.
<mgrwt>
<rscale>  0 0.15399833E+04</rscale>
<asrwt>0</asrwt>
<pdfrwt beam="1">  1        2 0.31527203E+00 0.15399833E+04</pdfrwt>
<pdfrwt beam="2">  1       -2 0.38378723E-01 0.15399833E+04</pdfrwt>
<totfact> 0.38820297E+01</totfact>
</mgrwt>
</event>
<event>
 8    1  0.6972317E-052  0.2905056E+04  0.7818608E-02  0.8271375E-01
         -2   -1    0    0    0  501 -0.00000000000E+00  0.00000000000E+00  0.89105495026E+03  0.89105495026E+03  0.25500000000E-02 0. -1.
          2   -1    0    0  501    0  0.00000000000E+00 -0.00000000000E+00 -0.23677971611E+04  0.23677971611E+04  0.25500000000E-02 0.  1.
     200001    2    1    2    0    0  0.21247933500E+03 -0.53858287716E+03  0.58837878243E+03  0.10282215502E+04  0.61305055369E+03 0.  0.
    5000001    2    3    3    0    0  0.17667219731E+03 -0.56164040040E+03  0.20176709386E+03  0.62637158043E+03  0.70557720686E+02 0.  0.
        -11    1    4    4    0    0  0.67820865366E+02 -0.16128652795E+03  0.36258909821E+02  0.17868330201E+03  0.51100000000E-03 0. -1.
     200002    1    4    4    0    0  0.10885133195E+03 -0.40035387245E+03  0.16550818404E+03  0.44768827842E+03  0.30000000000E+02 0. -1.
     200000    1    3    3    0    0  0.35807137686E+02  0.23057523240E+02  0.38661168858E+03  0.40184996980E+03  0.10100000000E+03 0. -1.
    -200001    1    1    2    0    0 -0.21247933500E+03  0.53858287716E+03 -0.20651209933E+04  0.22306305611E+04  0.61300000000E+03 0.  1.
<mgrwt>
<rscale>  0 0.29050559E+04</rscale>
<asrwt>0</asrwt>
<pdfrwt beam="1">  1        2 0.33825674E+00 0.29050559E+04</pdfrwt>
<pdfrwt beam="2">  1       -2 0.12729357E+00 0.29050559E+04</pdfrwt>
<totfact> 0.20591226E+00</totfact>
</mgrwt>
</event>
<event>
 8    1  0.6972317E-052  0.1442340E+04  0.7818608E-02  0.8923728E-01
          2   -1    0    0  501    0  0.00000000000E+00  0.00000000000E+00  0.28854012573E+04  0.28854012573E+04  0.25500000000E-02 0.  1.
         -2   -1    0    0    0  501 -0.00000000000E+00 -0.00000000000E+00 -0.18024745267E+03  0.18024745269E+03  0.25500000000E-02 0. -1.
     200001    2    1    2    0    0 -0.31740785067E+03 -0.15313818153E+03  0.10511599409E+04  0.12668536279E+04  0.61301047847E+03 0.  0.
    5000001    2    3    3    0    0 -0.61162119255E+02  0.96999262801E+02  0.26578805730E+03  0.39780782268E+03  0.27287013498E+03 0.  0.
        -11    1    4    4    0    0 -0.12331866051E+03  0.16382217374E+02  0.26380313784E+03  0.29166412980E+03  0.51100000000E-03 0. -1.
     200002    1    4    4    0    0  0.62156541250E+02  0.80617045427E+02  0.19849194615E+01  0.10614369288E+03  0.30000000000E+02 0. -1.
     200000    1    3    3    0    0 -0.25624573142E+03 -0.25013744433E+03  0.78537188362E+03  0.86904580518E+03  0.10100000000E+03 0.  1.
    -200001    1    1    2    0    0  0.31740785067E+03  0.15313818153E+03  0.16539938637E+04  0.17987950821E+04  0.61300000000E+03 0.  1.
<mgrwt>
<rscale>  0 0.14423401E+04</rscale>
<asrwt>0</asrwt>
<pdfrwt beam="1">  1        2 0.41220019E+00 0.14423401E+04</pdfrwt>
<pdfrwt beam="2">  1       -2 0.25749635E-01 0.14423401E+04</pdfrwt>
<totfact> 0.36250242E+01</totfact>
</mgrwt>
</event>
<event>
 8    1  0.6972317E-052  0.1413705E+04  0.7818608E-02  0.8943957E-01
          2   -1    0    0  501    0  0.00000000000E+00  0.00000000000E+00  0.11267768867E+04  0.11267768867E+04  0.25500000000E-02 0.  1.
         -2   -1    0    0    0  501 -0.00000000000E+00 -0.00000000000E+00 -0.44342474760E+03  0.44342474761E+03  0.25500000000E-02 0. -1.
     200001    2    1    2    0    0 -0.53729604537E+02 -0.34595004064E+03  0.29500211450E+03  0.76450129136E+03  0.61226438400E+03 0.  0.
    5000001    2    3    3    0    0 -0.22084261622E+03 -0.16041149046E+03  0.12850044094E+02  0.37442168012E+03  0.25597492747E+03 0.  0.
        -11    1    4    4    0    0 -0.17688603532E+03 -0.21397079799E+03  0.61832657171E+02  0.28442125339E+03  0.51100000000E-03 0. -1.
     200002    1    4    4    0    0 -0.43956580903E+02  0.53559307530E+02 -0.48982613077E+02  0.90000426730E+02  0.30000000000E+02 0. -1.
     200000    1    3    3    0    0  0.16711301168E+03 -0.18553855017E+03  0.28215207040E+03  0.39007961124E+03  0.10100000000E+03 0.  1.
    -200001    1    1    2    0    0  0.53729604537E+02  0.34595004064E+03  0.38835002458E+03  0.80570034294E+03  0.61300000000E+03 0. -1.
<mgrwt>
<rscale>  0 0.14137054E+04</rscale>
<asrwt>0</asrwt>
<pdfrwt beam="1">  1        2 0.16096813E+00 0.14137054E+04</pdfrwt>
<pdfrwt beam="2">  1       -2 0.63346393E-01 0.14137054E+04</pdfrwt>
<totfact> 0.52931368E+01</totfact>
</mgrwt>
</event>
<event>
 8    1  0.6972317E-052  0.1747159E+04  0.7818608E-02  0.8734916E-01
         -2   -1    0    0    0  501 -0.00000000000E+00  0.00000000000E+00  0.41016090107E+03  0.41016090108E+03  0.25500000000E-02 0. -1.
          2   -1    0    0  501    0  0.00000000000E+00 -0.00000000000E+00 -0.18605893672E+04  0.18605893672E+04  0.25500000000E-02 0.  1.
     200001    2    1    2    0    0  0.38894619828E+03 -0.32357776662E+03 -0.11963109447E+04  0.14362885071E+04  0.61301148672E+03 0.  0.
    5000001    2    3    3    0    0  0.32358282567E+03 -0.44209763378E+03 -0.61899075791E+03  0.83477464397E+03  0.11637433128E+03 0.  0.
        -11    1    4    4    0    0  0.35192381528E+02 -0.48552443135E+02 -0.23639962756E+02  0.64456894831E+02  0.51100000000E-03 0. -1.
     200002    1    4    4    0    0  0.28839044414E+03 -0.39354519064E+03 -0.59535079515E+03  0.77031774914E+03  0.30000000000E+02 0. -1.
     200000    1    3    3    0    0  0.65363372606E+02  0.11851986715E+03 -0.57732018682E+03  0.60151386309E+03  0.10100000000E+03 0.  1.
    -200001    1    1    2    0    0 -0.38894619828E+03  0.32357776662E+03 -0.25411752137E+03  0.83446176118E+03  0.61300000000E+03 0. -1.
<mgrwt>
<rscale>  0 0.17471588E+04</rscale>
<asrwt>0</asrwt>
<pdfrwt beam="1">  1        2 0.26579848E+00 0.17471588E+04</pdfrwt>
<pdfrwt beam="2">  1       -2 0.58594416E-01 0.17471588E+04</pdfrwt>
<totfact> 0.24504073E+01</totfact>
</mgrwt>
</event>
<event>
 8    1  0.6972317E-052  0.1530367E+04  0.7818608E-02  0.8864507E-01
          2   -1    0    0  501    0  0.00000000000E+00  0.00000000000E+00  0.12884671127E+04  0.12884671127E+04  0.25500000000E-02 0.  1.
         -2   -1    0    0    0  501 -0.00000000000E+00 -0.00000000000E+00 -0.45442044064E+03  0.45442044065E+03  0.25500000000E-02 0. -1.
     200001    2    1    2    0    0 -0.11258744315E+03 -0.62584726449E+02 -0.82678038239E+02  0.63259661184E+03  0.61379967006E+03 0.  0.
    5000001    2    3    3    0    0  0.89402636943E+02 -0.23197852369E+03  0.11689049760E+03  0.28687584084E+03  0.82628643234E+02 0.  0.
        -11    1    4    4    0    0  0.45843519629E+02 -0.18493991609E+03  0.76023982086E+02  0.20514396580E+03  0.51100000000E-03 0. -1.
     200002    1    4    4    0    0  0.43559117315E+02 -0.47038607608E+02  0.40866515516E+02  0.81731875039E+02  0.30000000000E+02 0.  1.
     200000    1    3    3    0    0 -0.20199008009E+03  0.16939379724E+03 -0.19956853584E+03  0.34572077100E+03  0.10100000000E+03 0.  1.
    -200001    1    1    2    0    0  0.11258744315E+03  0.62584726449E+02  0.91672471034E+03  0.11102909415E+04  0.61300000000E+03 0.  1.
<mgrwt>
<rscale>  0 0.15303670E+04</rscale>
<asrwt>0</asrwt>
<pdfrwt beam="1">  1        2 0.18406673E+00 0.15303670E+04</pdfrwt>
<pdfrwt beam="2">  1       -2 0.64917205E-01 0.15303670E+04</pdfrwt>
<totfact> 0.40279977E+01</totfact>
</mgrwt>
</event>
<event>
 8    1  0.6972317E-052  0.1938331E+04  0.7818608E-02  0.8636008E-01
         -2   -1    0    0    0  501 -0.00000000000E+00  0.00000000000E+00  0.77505426368E+03  0.77505426368E+03  0.25500000000E-02 0. -1.
          2   -1    0    0  501    0  0.00000000000E+00 -0.00000000000E+00 -0.12118913708E+04  0.12118913708E+04  0.25500000000E-02 0.  1.
     200001    2    1    2    0    0 -0.55842753937E+03  0.18493402187E+03 -0.69657218715E+03  0.10985351319E+04  0.61280071396E+03 0.  0.
    5000001    2    3    3    0    0 -0.62007841342E+03  0.12623998360E+03 -0.37181235423E+03  0.74794167867E+03  0.14400887364E+03 0.  0.
        -11    1    4    4    0    0 -0.12928018052E+03 -0.27807952438E+02 -0.96669218653E+02  0.16380349548E+03  0.51100000000E-03 0. -1.
     200002    1    4    4    0    0 -0.49079823289E+03  0.15404793604E+03 -0.27514313558E+03  0.58413818319E+03  0.30000000000E+02 0. -1.
     200000    1    3    3    0    0  0.61650874049E+02  0.58694038270E+02 -0.32475983292E+03  0.35059345327E+03  0.10100000000E+03 0.  1.
    -200001    1    1    2    0    0  0.55842753937E+03 -0.18493402187E+03  0.25973508005E+03  0.88841050251E+03  0.61300000000E+03 0. -1.
<mgrwt>
<rscale>  0 0.19383308E+04</rscale>
<asrwt>0</asrwt>
<pdfrwt beam="1">  1        2 0.17312734E+00 0.19383308E+04</pdfrwt>
<pdfrwt beam="2">  1       -2 0.11072204E+00 0.19383308E+04</pdfrwt>
<totfact> 0.12753397E+01</totfact>
</mgrwt>
</event>
<event>
 8    1  0.6972317E-052  0.1268261E+04  0.7818608E-02  0.9055120E-01
          2   -1    0    0  501    0  0.00000000000E+00  0.00000000000E+00  0.80019887407E+03  0.80019887407E+03  0.25500000000E-02 0.  1.
         -2   -1    0    0    0  501 -0.00000000000E+00 -0.00000000000E+00 -0.50252727183E+03  0.50252727183E+03  0.25500000000E-02 0. -1.
     200001    2    1    2    0    0  0.91684955453E+01 -0.94244522385E+02  0.15122185164E+02  0.62113296490E+03  0.61368671836E+03 0.  0.
    5000001    2    3    3    0    0 -0.16309154065E+03 -0.27392455680E+03  0.91087735943E+02  0.34197315450E+03  0.83756488149E+02 0.  0.
        -11    1    4    4    0    0 -0.65264500135E+02 -0.65823141994E+02  0.53571175401E+02  0.10706078570E+03  0.51100000000E-03 0. -1.
     200002    1    4    4    0    0 -0.97827040514E+02 -0.20810141481E+03  0.37516560542E+02  0.23491236880E+03  0.30000000000E+02 0. -1.
     200000    1    3    3    0    0  0.17226003619E+03  0.17968003442E+03 -0.75965550779E+02  0.27915981040E+03  0.10100000000E+03 0.  1.
    -200001    1    1    2    0    0 -0.91684955453E+01  0.94244522385E+02  0.28254941708E+03  0.68159318101E+03  0.61300000000E+03 0.  1.
<mgrwt>
<rscale>  0 0.12682614E+04</rscale>
<asrwt>0</asrwt>
<pdfrwt beam="1">  1        2 0.11431413E+00 0.12682614E+04</pdfrwt>
<pdfrwt beam="2">  1       -2 0.71789610E-01 0.12682614E+04</pdfrwt>
<totfact> 0.65738275E+01</totfact>
</mgrwt>
</event>
<event>
 8    1  0.6972317E-052  0.1586769E+04  0.7818608E-02  0.8828718E-01
         -2   -1    0    0    0  501 -0.00000000000E+00  0.00000000000E+00  0.76909028068E+03  0.76909028068E+03  0.25500000000E-02 0. -1.
          2   -1    0    0  501    0  0.00000000000E+00 -0.00000000000E+00 -0.81844651263E+03  0.81844651263E+03  0.25500000000E-02 0.  1.
     200001    2    1    2    0    0  0.30540928221E+03  0.38752304552E+03  0.74574424495E+02  0.79093353694E+03  0.61364939061E+03 0.  0.
    5000001    2    3    3    0    0 -0.11030643770E+03  0.15064409407E+03 -0.14421451961E+03  0.25520898133E+03  0.97327504884E+02 0.  0.
        -11    1    4    4    0    0 -0.15864367100E+02  0.88180625870E+02 -0.86844755021E+02  0.12477785219E+03  0.51100000000E-03 0. -1.
     200002    1    4    4    0    0 -0.94442070599E+02  0.62463468199E+02 -0.57369764592E+02  0.13043112914E+03  0.30000000000E+02 0. -1.
     200000    1    3    3    0    0  0.41571571991E+03  0.23687895145E+03  0.21878894411E+03  0.53572455561E+03  0.10100000000E+03 0. -1.
    -200001    1    1    2    0    0 -0.30540928221E+03 -0.38752304552E+03 -0.12393065644E+03  0.79660325638E+03  0.61300000000E+03 0. -1.
<mgrwt>
<rscale>  0 0.15867694E+04</rscale>
<asrwt>0</asrwt>
<pdfrwt beam="1">  1        2 0.11692093E+00 0.15867694E+04</pdfrwt>
<pdfrwt beam="2">  1       -2 0.10987004E+00 0.15867694E+04</pdfrwt>
<totfact> 0.23395311E+01</totfact>
</mgrwt>
</event>
<event>
 8    1  0.6972317E-052  0.1867725E+04  0.7818608E-02  0.8671091E-01
         -2   -1    0    0    0  501 -0.00000000000E+00  0.00000000000E+00  0.58280640758E+03  0.58280640758E+03  0.25500000000E-02 0. -1.
          2   -1    0    0  501    0  0.00000000000E+00 -0.00000000000E+00 -0.14963784096E+04  0.14963784096E+04  0.25500000000E-02 0.  1.
     200001    2    1    2    0    0 -0.68290609891E+03  0.16731719541E+03 -0.45429274239E+03  0.10394433964E+04  0.61620199178E+03 0.  0.
    5000001    2    3    3    0    0 -0.64299523693E+03  0.20223787851E+03 -0.56317812860E+03  0.88174317969E+03  0.77190648293E+02 0.  0.
        -11    1    4    4    0    0 -0.21660598047E+03  0.34892205424E+02 -0.17875890669E+03  0.28300240899E+03  0.51100000000E-03 0. -1.
     200002    1    4    4    0    0 -0.42638925647E+03  0.16734567309E+03 -0.38441922191E+03  0.59874077071E+03  0.30000000000E+02 0. -1.
     200000    1    3    3    0    0 -0.39910861980E+02 -0.34920683098E+02  0.10888538621E+03  0.15770021669E+03  0.10100000000E+03 0. -1.
    -200001    1    1    2    0    0  0.68290609891E+03 -0.16731719541E+03 -0.45927925964E+03  0.10397414208E+04  0.61300000000E+03 0.  1.
<mgrwt>
<rscale>  0 0.18677247E+04</rscale>
<asrwt>0</asrwt>
<pdfrwt beam="1">  1        2 0.21376834E+00 0.18677247E+04</pdfrwt>
<pdfrwt beam="2">  1       -2 0.83258059E-01 0.18677247E+04</pdfrwt>
<totfact> 0.17473959E+01</totfact>
</mgrwt>
</event>
<event>
 8    1  0.6972317E-052  0.1275941E+04  0.7818608E-02  0.9048865E-01
          2   -1    0    0  501    0  0.00000000000E+00  0.00000000000E+00  0.21798994817E+03  0.21798994819E+03  0.25500000000E-02 0.  1.
         -2   -1    0    0    0  501 -0.00000000000E+00 -0.00000000000E+00 -0.18670882867E+04  0.18670882867E+04  0.25500000000E-02 0. -1.
     200001    2    1    2    0    0 -0.52069296862E+02 -0.13623255691E+03 -0.10208791841E+04  0.11953036414E+04  0.60438891896E+03 0.  0.
    5000001    2    3    3    0    0 -0.13712430836E+03  0.58379281077E+02 -0.16118827277E+02  0.16338673722E+03  0.64993791272E+02 0.  0.
        -11    1    4    4    0    0 -0.74701325030E+02  0.28471700731E+02 -0.32316516474E+02  0.86228086730E+02  0.51100000000E-03 0. -1.
     200002    1    4    4    0    0 -0.62422983329E+02  0.29907580347E+02  0.16197689198E+02  0.77158650489E+02  0.30000000000E+02 0. -1.
     200000    1    3    3    0    0  0.85055011497E+02 -0.19461183798E+03 -0.10047603569E+04  0.10319169042E+04  0.10100000000E+03 0. -1.
    -200001    1    1    2    0    0  0.52069296862E+02  0.13623255691E+03 -0.62821915439E+03  0.88977459347E+03  0.61300000000E+03 0.  1.
<mgrwt>
<rscale>  0 0.12759412E+04</rscale>
<asrwt>0</asrwt>
<pdfrwt beam="1">  1        2 0.31141422E-01 0.12759412E+04</pdfrwt>
<pdfrwt beam="2">  1       -2 0.26672689E+00 0.12759412E+04</pdfrwt>
<totfact> 0.85467472E+00</totfact>
</mgrwt>
</event>
<event>
 8    1  0.6972317E-052  0.2268580E+04  0.7818608E-02  0.8490414E-01
          2   -1    0    0  501    0  0.00000000000E+00  0.00000000000E+00  0.98316706693E+03  0.98316706693E+03  0.25500000000E-02 0.  1.
         -2   -1    0    0    0  501 -0.00000000000E+00 -0.00000000000E+00 -0.13086420733E+04  0.13086420733E+04  0.25500000000E-02 0. -1.
     200001    2    1    2    0    0  0.48058052664E+03 -0.19655009164E+03 -0.97232368863E+03  0.12604160053E+04  0.61126554772E+03 0.  0.
    5000001    2    3    3    0    0  0.21513878442E+02 -0.28221170671E+03 -0.20898781004E+03  0.35988129562E+03  0.75712269960E+02 0.  0.
        -11    1    4    4    0    0 -0.39268037053E+01 -0.82012747653E+02 -0.26855225073E+02  0.86386999479E+02  0.51100000000E-03 0. -1.
     200002    1    4    4    0    0  0.25440682148E+02 -0.20019895906E+03 -0.18213258497E+03  0.27349429615E+03  0.30000000000E+02 0. -1.
     200000    1    3    3    0    0  0.45906664820E+03  0.85661615073E+02 -0.76333587859E+03  0.90053470967E+03  0.10100000000E+03 0. -1.
    -200001    1    1    2    0    0 -0.48058052664E+03  0.19655009164E+03  0.64684868224E+03  0.10313931350E+04  0.61300000000E+03 0.  1.
<mgrwt>
<rscale>  0 0.22685800E+04</rscale>
<asrwt>0</asrwt>
<pdfrwt beam="1">  1        2 0.14045244E+00 0.22685800E+04</pdfrwt>
<pdfrwt beam="2">  1       -2 0.18694887E+00 0.22685800E+04</pdfrwt>
<totfact> 0.42690767E+00</totfact>
</mgrwt>
</event>
<event>
 8    1  0.6972317E-052  0.1367569E+04  0.7818608E-02  0.8977634E-01
         -2   -1    0    0    0  501 -0.00000000000E+00  0.00000000000E+00  0.32354416375E+03  0.32354416376E+03  0.25500000000E-02 0. -1.
          2   -1    0    0  501    0  0.00000000000E+00 -0.00000000000E+00 -0.14451225406E+04  0.14451225406E+04  0.25500000000E-02 0.  1.
     200001    2    1    2    0    0  0.12896102617E+03 -0.84598099299E+02 -0.89784223476E+03  0.10981335986E+04  0.61317936779E+03 0.  0.
    5000001    2    3    3    0    0  0.28066577417E+03  0.15274470468E+03 -0.39586558335E+03  0.51373006013E+03  0.71447834103E+02 0.  0.
        -11    1    4    4    0    0  0.13686830011E+03  0.99651231369E+02 -0.23364529671E+03  0.28853669466E+03  0.51100000000E-03 0. -1.
     200002    1    4    4    0    0  0.14379747406E+03  0.53093473307E+02 -0.16222028665E+03  0.22519336547E+03  0.30000000000E+02 0. -1.
     200000    1    3    3    0    0 -0.15170474800E+03 -0.23734280398E+03 -0.50197665140E+03  0.58440353842E+03  0.10100000000E+03 0.  1.
    -200001    1    1    2    0    0 -0.12896102617E+03  0.84598099299E+02 -0.22373614207E+03  0.67053310578E+03  0.61300000000E+03 0. -1.
<mgrwt>
<rscale>  0 0.13675686E+04</rscale>
<asrwt>0</asrwt>
<pdfrwt beam="1">  1        2 0.20644607E+00 0.13675686E+04</pdfrwt>
<pdfrwt beam="2">  1       -2 0.46220596E-01 0.13675686E+04</pdfrwt>
<totfact> 0.67759081E+01</totfact>
</mgrwt>
</event>
<event>
 8    1  0.6972317E-052  0.1418857E+04  0.7818608E-02  0.8940281E-01
         -2   -1    0    0    0  501 -0.00000000000E+00  0.00000000000E+00  0.45812382236E+03  0.45812382237E+03  0.25500000000E-02 0. -1.
          2   -1    0    0  501    0  0.00000000000E+00 -0.00000000000E+00 -0.10985866395E+04  0.10985866395E+04  0.25500000000E-02 0.  1.
     200001    2    1    2    0    0  0.29869964381E+03  0.18681084571E+03 -0.26521689476E+03  0.75627416113E+03  0.61440282896E+03 0.  0.
    5000001    2    3    3    0    0  0.15918176660E+02  0.35465117687E+03 -0.16702646753E+03  0.39853389931E+03  0.70004160154E+02 0.  0.
        -11    1    4    4    0    0 -0.31854490428E+01  0.15850961938E+02 -0.24286761765E+02  0.29176135407E+02  0.51100000000E-03 0. -1.
     200002    1    4    4    0    0  0.19103625703E+02  0.33880021493E+03 -0.14273970577E+03  0.36935776390E+03  0.30000000000E+02 0. -1.
     200000    1    3    3    0    0  0.28278146715E+03 -0.16784033116E+03 -0.98190427226E+02  0.35774026182E+03  0.10100000000E+03 0. -1.
    -200001    1    1    2    0    0 -0.29869964381E+03 -0.18681084571E+03 -0.37524592237E+03  0.80043630074E+03  0.61300000000E+03 0. -1.
<mgrwt>
<rscale>  0 0.14188569E+04</rscale>
<asrwt>0</asrwt>
<pdfrwt beam="1">  1        2 0.15694095E+00 0.14188569E+04</pdfrwt>
<pdfrwt beam="2">  1       -2 0.65446261E-01 0.14188569E+04</pdfrwt>
<totfact> 0.51259744E+01</totfact>
</mgrwt>
</event>
<event>
 8    1  0.6972317E-052  0.1429286E+04  0.7818608E-02  0.8932888E-01
         -2   -1    0    0    0  501 -0.00000000000E+00  0.00000000000E+00  0.28891554895E+03  0.28891554896E+03  0.25500000000E-02 0. -1.
          2   -1    0    0  501    0  0.00000000000E+00 -0.00000000000E+00 -0.17676953249E+04  0.17676953249E+04  0.25500000000E-02 0.  1.
     200001    2    1    2    0    0 -0.17518354859E+03  0.10455235240E+03 -0.11784926817E+04  0.13441771513E+04  0.61347106136E+03 0.  0.
    5000001    2    3    3    0    0 -0.60197753664E+02 -0.23499505103E+03 -0.64271384517E+03  0.69166344730E+03  0.80441245644E+02 0.  0.
        -11    1    4    4    0    0 -0.62065784548E+02 -0.17434280279E+03 -0.42180211410E+03  0.46061328461E+03  0.51100000000E-03 0. -1.
     200002    1    4    4    0    0  0.18680308836E+01 -0.60652248243E+02 -0.22091173106E+03  0.23105016269E+03  0.30000000000E+02 0. -1.
     200000    1    3    3    0    0 -0.11498579492E+03  0.33954740344E+03 -0.53577883655E+03  0.65251370400E+03  0.10100000000E+03 0. -1.
    -200001    1    1    2    0    0  0.17518354859E+03 -0.10455235240E+03 -0.30028709424E+03  0.71243372257E+03  0.61300000000E+03 0. -1.
<mgrwt>
<rscale>  0 0.14292861E+04</rscale>
<asrwt>0</asrwt>
<pdfrwt beam="1">  1        2 0.25252790E+00 0.14292861E+04</pdfrwt>
<pdfrwt beam="2">  1       -2 0.41273651E-01 0.14292861E+04</pdfrwt>
<totfact> 0.57174082E+01</totfact>
</mgrwt>
</event>
<event>
 8    1  0.6972317E-052  0.1435575E+04  0.7818608E-02  0.8928462E-01
          2   -1    0    0  501    0  0.00000000000E+00  0.00000000000E+00  0.45365245479E+03  0.45365245480E+03  0.25500000000E-02 0. -1.
         -2   -1    0    0    0  501 -0.00000000000E+00 -0.00000000000E+00 -0.11357135647E+04  0.11357135647E+04  0.25500000000E-02 0.  1.
     200001    2    1    2    0    0 -0.12711743672E+03  0.32417496739E+03 -0.19103712544E+03  0.73022586474E+03  0.61276943302E+03 0.  0.
    5000001    2    3    3    0    0 -0.40497919157E+02  0.42921876161E+03 -0.29753078277E+03  0.53002836581E+03  0.80849706795E+02 0.  0.
        -11    1    4    4    0    0  0.11398538056E+02  0.11677163145E+02 -0.65724158120E+01  0.17592028274E+02  0.51100000000E-03 0. -1.
     200002    1    4    4    0    0 -0.51896457213E+02  0.41754159847E+03 -0.29095836696E+03  0.51243633753E+03  0.30000000000E+02 0. -1.
     200000    1    3    3    0    0 -0.86619517564E+02 -0.10504379422E+03  0.10649365733E+03  0.20019749893E+03  0.10100000000E+03 0. -1.
    -200001    1    1    2    0    0  0.12711743672E+03 -0.32417496739E+03 -0.49102398447E+03  0.85914015476E+03  0.61300000000E+03 0. -1.
<mgrwt>
<rscale>  0 0.14355755E+04</rscale>
<asrwt>0</asrwt>
<pdfrwt beam="1">  1        2 0.64807494E-01 0.14355755E+04</pdfrwt>
<pdfrwt beam="2">  1       -2 0.16224479E+00 0.14355755E+04</pdfrwt>
<totfact> 0.17676755E+01</totfact>
</mgrwt>
</event>
<event>
 8    1  0.6972317E-052  0.2103409E+04  0.7818608E-02  0.8559743E-01
         -2   -1    0    0    0  501 -0.00000000000E+00  0.00000000000E+00  0.33361144812E+03  0.33361144813E+03  0.25500000000E-02 0. -1.
          2   -1    0    0  501    0  0.00000000000E+00 -0.00000000000E+00 -0.33154797355E+04  0.33154797355E+04  0.25500000000E-02 0.  1.
     200001    2    1    2    0    0 -0.18526125594E+03 -0.11532888113E+03 -0.29244216600E+04  0.29958748345E+04  0.61270016725E+03 0.  0.
    5000001    2    3    3    0    0 -0.39342862947E+03 -0.58755654525E+02 -0.19394850930E+04  0.19825460496E+04  0.10318962822E+03 0.  0.
        -11    1    4    4    0    0 -0.44877744692E+01  0.13409010127E+02 -0.59100530149E+02  0.60768530807E+02  0.51100000000E-03 0. -1.
     200002    1    4    4    0    0 -0.38894085500E+03 -0.72164664652E+02 -0.18803845628E+04  0.19217775188E+04  0.30000000000E+02 0. -1.
     200000    1    3    3    0    0  0.20816737353E+03 -0.56573226607E+02 -0.98493656698E+03  0.10133287849E+04  0.10100000000E+03 0. -1.
    -200001    1    1    2    0    0  0.18526125594E+03  0.11532888113E+03 -0.57446627418E+02  0.65321634913E+03  0.61300000000E+03 0. -1.
<mgrwt>
<rscale>  0 0.21034087E+04</rscale>
<asrwt>0</asrwt>
<pdfrwt beam="1">  1        2 0.47363994E+00 0.21034087E+04</pdfrwt>
<pdfrwt beam="2">  1       -2 0.47658780E-01 0.21034087E+04</pdfrwt>
<totfact> 0.60006917E+00</totfact>
</mgrwt>
</event>
<event>
 8    1  0.6972317E-052  0.1528206E+04  0.7818608E-02  0.8865910E-01
          2   -1    0    0  501    0  0.00000000000E+00  0.00000000000E+00  0.10895650833E+04  0.10895650833E+04  0.25500000000E-02 0.  1.
         -2   -1    0    0    0  501 -0.00000000000E+00 -0.00000000000E+00 -0.53585926648E+03  0.53585926648E+03  0.25500000000E-02 0. -1.
     200001    2    1    2    0    0 -0.16276097670E+03 -0.94377772499E+02 -0.16427151381E+03  0.66279319157E+03  0.61393109146E+03 0.  0.
    5000001    2    3    3    0    0 -0.26585514403E+03  0.23859215875E+02 -0.31651105684E+03  0.42198980451E+03  0.81534815990E+02 0.  0.
        -11    1    4    4    0    0 -0.13734930447E+03  0.48890504623E+01 -0.21172427171E+03  0.25242008931E+03  0.51100000000E-03 0. -1.
     200002    1    4    4    0    0 -0.12850583956E+03  0.18970165413E+02 -0.10478678512E+03  0.16956971520E+03  0.30000000000E+02 0. -1.
     200000    1    3    3    0    0  0.10309416733E+03 -0.11823698837E+03  0.15223954303E+03  0.24080338706E+03  0.10100000000E+03 0.  1.
    -200001    1    1    2    0    0  0.16276097670E+03  0.94377772499E+02  0.71797733065E+03  0.96263115823E+03  0.61300000000E+03 0.  1.
<mgrwt>
<rscale>  0 0.15282062E+04</rscale>
<asrwt>0</asrwt>
<pdfrwt beam="1">  1        2 0.15565215E+00 0.15282062E+04</pdfrwt>
<pdfrwt beam="2">  1       -2 0.76551324E-01 0.15282062E+04</pdfrwt>
<totfact> 0.36532503E+01</totfact>
</mgrwt>
</event>
<event>
 8    1  0.6972317E-052  0.1767059E+04  0.7818608E-02  0.8724016E-01
          2   -1    0    0  501    0  0.00000000000E+00  0.00000000000E+00  0.29859203327E+04  0.29859203327E+04  0.25500000000E-02 0.  1.
         -2   -1    0    0    0  501 -0.00000000000E+00 -0.00000000000E+00 -0.26143500467E+03  0.26143500468E+03  0.25500000000E-02 0. -1.
     200001    2    1    2    0    0 -0.54134601188E+03 -0.19311929969E+03  0.85991615187E+03  0.12021810707E+04  0.61272585219E+03 0.  0.
    5000001    2    3    3    0    0  0.76568448815E+02 -0.83012793450E+02  0.38701543268E+03  0.40985675976E+03  0.73808991025E+02 0.  0.
        -11    1    4    4    0    0  0.39305199515E+02 -0.23709972602E+02  0.69233721408E+02  0.83068463871E+02  0.51100000000E-03 0. -1.
     200002    1    4    4    0    0  0.37263249299E+02 -0.59302820848E+02  0.31778171128E+03  0.32678829589E+03  0.30000000000E+02 0. -1.
     200000    1    3    3    0    0 -0.61791446070E+03 -0.11010650624E+03  0.47290071919E+03  0.79232431091E+03  0.10100000000E+03 0. -1.
    -200001    1    1    2    0    0  0.54134601188E+03  0.19311929969E+03  0.18645691761E+04  0.20451742667E+04  0.61300000000E+03 0.  1.
<mgrwt>
<rscale>  0 0.17670587E+04</rscale>
<asrwt>0</asrwt>
<pdfrwt beam="1">  1        2 0.42656003E+00 0.17670587E+04</pdfrwt>
<pdfrwt beam="2">  1       -2 0.37347860E-01 0.17670587E+04</pdfrwt>
<totfact> 0.15444981E+01</totfact>
</mgrwt>
</event>
<event>
 8    1  0.6972317E-052  0.1366676E+04  0.7818608E-02  0.8978300E-01
          2   -1    0    0  501    0  0.00000000000E+00  0.00000000000E+00  0.15140783124E+04  0.15140783124E+04  0.25500000000E-02 0.  1.
         -2   -1    0    0    0  501 -0.00000000000E+00 -0.00000000000E+00 -0.30840576794E+03  0.30840576795E+03  0.25500000000E-02 0. -1.
     200001    2    1    2    0    0 -0.15375055568E+02 -0.28881400939E+03  0.71845633111E+03  0.98773947095E+03  0.61302515316E+03 0.  0.
    5000001    2    3    3    0    0 -0.77286624679E+02 -0.89517861907E+02 -0.48820489324E+02  0.18619925613E+03  0.13527768793E+03 0.  0.
        -11    1    4    4    0    0 -0.96615392013E+01  0.34580567562E+01  0.37794234855E+02  0.39162580160E+02  0.51100000000E-03 0. -1.
     200002    1    4    4    0    0 -0.67625085477E+02 -0.92975918663E+02 -0.86614724179E+02  0.14703667597E+03  0.30000000000E+02 0. -1.
     200000    1    3    3    0    0  0.61911569111E+02 -0.19929614748E+03  0.76727682043E+03  0.80154021482E+03  0.10100000000E+03 0.  1.
    -200001    1    1    2    0    0  0.15375055568E+02  0.28881400939E+03  0.48721621330E+03  0.83474460936E+03  0.61300000000E+03 0. -1.
<mgrwt>
<rscale>  0 0.13666755E+04</rscale>
<asrwt>0</asrwt>
<pdfrwt beam="1">  1        2 0.21629690E+00 0.13666755E+04</pdfrwt>
<pdfrwt beam="2">  1       -2 0.44057967E-01 0.13666755E+04</pdfrwt>
<totfact> 0.68513550E+01</totfact>
</mgrwt>
</event>
<event>
 8    1  0.6972317E-052  0.1876490E+04  0.7818608E-02  0.8666648E-01
         -2   -1    0    0    0  501 -0.00000000000E+00  0.00000000000E+00  0.22804562725E+03  0.22804562727E+03  0.25500000000E-02 0. -1.
          2   -1    0    0  501    0  0.00000000000E+00 -0.00000000000E+00 -0.38602103573E+04  0.38602103573E+04  0.25500000000E-02 0.  1.
     200001    2    1    2    0    0  0.48363762790E+03 -0.51049767318E+03 -0.20335904664E+04  0.22373854041E+04  0.61309871288E+03 0.  0.
    5000001    2    3    3    0    0  0.38626888476E+03 -0.36790097760E+01 -0.73445587079E+03  0.83585141329E+03  0.10002485950E+03 0.  0.
        -11    1    4    4    0    0  0.79906761814E+02  0.35252539750E+02 -0.13366965913E+03  0.15967282147E+03  0.51100000000E-03 0. -1.
     200002    1    4    4    0    0  0.30636212294E+03 -0.38931549526E+02 -0.60078621166E+03  0.67617859182E+03  0.30000000000E+02 0. -1.
     200000    1    3    3    0    0  0.97368743144E+02 -0.50681866341E+03 -0.12991345957E+04  0.14015339908E+04  0.10100000000E+03 0.  1.
    -200001    1    1    2    0    0 -0.48363762790E+03  0.51049767318E+03 -0.15985742636E+04  0.18508705805E+04  0.61300000000E+03 0.  1.
<mgrwt>
<rscale>  0 0.18764904E+04</rscale>
<asrwt>0</asrwt>
<pdfrwt beam="1">  1        2 0.55145858E+00 0.18764904E+04</pdfrwt>
<pdfrwt beam="2">  1       -2 0.32577949E-01 0.18764904E+04</pdfrwt>
<totfact> 0.58965090E+00</totfact>
</mgrwt>
</event>
<event>
 8    1  0.6972317E-052  0.1688455E+04  0.7818608E-02  0.8767976E-01
          2   -1    0    0  501    0  0.00000000000E+00  0.00000000000E+00  0.52697987376E+03  0.52697987377E+03  0.25500000000E-02 0.  1.
         -2   -1    0    0    0  501 -0.00000000000E+00 -0.00000000000E+00 -0.13524618875E+04  0.13524618875E+04  0.25500000000E-02 0. -1.
     200001    2    1    2    0    0 -0.33561386674E+02  0.56618539764E+03 -0.27453418860E+03  0.87893949879E+03  0.61275880299E+03 0.  0.
    5000001    2    3    3    0    0 -0.62895178044E+02  0.67054391415E+03 -0.18404363351E+03  0.70532869312E+03  0.10015768610E+03 0.  0.
        -11    1    4    4    0    0  0.81798326701E+01  0.34255512883E+03 -0.11458654798E+03  0.36130458471E+03  0.51100000000E-03 0. -1.
     200002    1    4    4    0    0 -0.71075010714E+02  0.32798878532E+03 -0.69457085530E+02  0.34402410842E+03  0.30000000000E+02 0. -1.
     200000    1    3    3    0    0  0.29333791369E+02 -0.10435851651E+03 -0.90490555083E+02  0.17361080566E+03  0.10100000000E+03 0. -1.
    -200001    1    1    2    0    0  0.33561386674E+02 -0.56618539764E+03 -0.55094782512E+03  0.10005022625E+04  0.61300000000E+03 0. -1.
<mgrwt>
<rscale>  0 0.16884551E+04</rscale>
<asrwt>0</asrwt>
<pdfrwt beam="1">  1        2 0.75282839E-01 0.16884551E+04</pdfrwt>
<pdfrwt beam="2">  1       -2 0.19320884E+00 0.16884551E+04</pdfrwt>
<totfact> 0.88925890E+00</totfact>
</mgrwt>
</event>
<event>
 8    1  0.6972317E-052  0.1704235E+04  0.7818608E-02  0.8758953E-01
          2   -1    0    0  501    0  0.00000000000E+00  0.00000000000E+00  0.19653497287E+04  0.19653497287E+04  0.25500000000E-02 0.  1.
         -2   -1    0    0    0  501 -0.00000000000E+00 -0.00000000000E+00 -0.36945288407E+03  0.36945288408E+03  0.25500000000E-02 0. -1.
     200001    2    1    2    0    0  0.31481549572E+03 -0.44333129786E+03  0.47358470027E+03  0.94519655875E+03  0.61111588945E+03 0.  0.
    5000001    2    3    3    0    0  0.42670140939E+02 -0.88659863306E+02 -0.14144593531E+03  0.17817726087E+03  0.45374788006E+02 0.  0.
        -11    1    4    4    0    0  0.10542310840E+02 -0.11890483699E+02 -0.42906145777E+02  0.45754357892E+02  0.51100000000E-03 0. -1.
     200002    1    4    4    0    0  0.32127830099E+02 -0.76769379607E+02 -0.98539789534E+02  0.13242290298E+03  0.30000000000E+02 0.  1.
     200000    1    3    3    0    0  0.27214535478E+03 -0.35467143455E+03  0.61503063558E+03  0.76701929788E+03  0.10100000000E+03 0.  1.
    -200001    1    1    2    0    0 -0.31481549572E+03  0.44333129786E+03  0.11223121443E+04  0.13896060540E+04  0.61300000000E+03 0.  1.
<mgrwt>
<rscale>  0 0.17042349E+04</rscale>
<asrwt>0</asrwt>
<pdfrwt beam="1">  1        2 0.28076425E+00 0.17042349E+04</pdfrwt>
<pdfrwt beam="2">  1       -2 0.52778984E-01 0.17042349E+04</pdfrwt>
<totfact> 0.26991867E+01</totfact>
</mgrwt>
</event>
<event>
 8    1  0.6972317E-052  0.1751579E+04  0.7818608E-02  0.8732482E-01
         -2   -1    0    0    0  501 -0.00000000000E+00  0.00000000000E+00  0.22760959181E+03  0.22760959182E+03  0.25500000000E-02 0. -1.
          2   -1    0    0  501    0  0.00000000000E+00 -0.00000000000E+00 -0.33698367994E+04  0.33698367994E+04  0.25500000000E-02 0.  1.
     200001    2    1    2    0    0  0.23499721507E+03 -0.96494947752E+02 -0.39692656175E+03  0.77309166808E+03  0.61284995375E+03 0.  0.
    5000001    2    3    3    0    0 -0.26612773360E+02 -0.87385772996E+02 -0.47008015698E+03  0.48313440984E+03  0.64023362590E+02 0.  0.
        -11    1    4    4    0    0  0.84703756459E+01  0.29621816806E+01 -0.61220001657E+02  0.61874149587E+02  0.51100000000E-03 0. -1.
     200002    1    4    4    0    0 -0.35083149006E+02 -0.90347954677E+02 -0.40886015532E+03  0.42126026026E+03  0.30000000000E+02 0. -1.
     200000    1    3    3    0    0  0.26160998843E+03 -0.91091747556E+01  0.73153595234E+02  0.28995725824E+03  0.10100000000E+03 0. -1.
    -200001    1    1    2    0    0 -0.23499721507E+03  0.96494947752E+02 -0.27453006458E+04  0.28243547231E+04  0.61300000000E+03 0.  1.
<mgrwt>
<rscale>  0 0.17515789E+04</rscale>
<asrwt>0</asrwt>
<pdfrwt beam="1">  1        2 0.48140523E+00 0.17515789E+04</pdfrwt>
<pdfrwt beam="2">  1       -2 0.32515658E-01 0.17515789E+04</pdfrwt>
<totfact> 0.12128129E+01</totfact>
</mgrwt>
</event>
<event>
 8    1  0.6972317E-052  0.1751203E+04  0.7818608E-02  0.8732688E-01
         -2   -1    0    0    0  501 -0.00000000000E+00  0.00000000000E+00  0.74480433781E+03  0.74480433781E+03  0.25500000000E-02 0. -1.
          2   -1    0    0  501    0  0.00000000000E+00 -0.00000000000E+00 -0.10293681994E+04  0.10293681994E+04  0.25500000000E-02 0.  1.
     200001    2    1    2    0    0 -0.50597587873E+03 -0.73280360062E+02 -0.50731156156E+03  0.94545838932E+03  0.61249077089E+03 0.  0.
    5000001    2    3    3    0    0 -0.22034738774E+03 -0.30991468603E+03 -0.14201822910E+03  0.41515691108E+03  0.87097643599E+02 0.  0.
        -11    1    4    4    0    0 -0.43282302510E+02 -0.20102688577E+02 -0.60678038636E+01  0.48107110104E+02  0.51100000000E-03 0. -1.
     200002    1    4    4    0    0 -0.17706508523E+03 -0.28981199745E+03 -0.13595042523E+03  0.36704980098E+03  0.30000000000E+02 0. -1.
     200000    1    3    3    0    0 -0.28562849098E+03  0.23663432597E+03 -0.36529333246E+03  0.53030147824E+03  0.10100000000E+03 0.  1.
    -200001    1    1    2    0    0  0.50597587873E+03  0.73280360062E+02  0.22274769999E+03  0.82871414787E+03  0.61300000000E+03 0. -1.
<mgrwt>
<rscale>  0 0.17512029E+04</rscale>
<asrwt>0</asrwt>
<pdfrwt beam="1">  1        2 0.14705260E+00 0.17512029E+04</pdfrwt>
<pdfrwt beam="2">  1       -2 0.10640062E+00 0.17512029E+04</pdfrwt>
<totfact> 0.18236260E+01</totfact>
</mgrwt>
</event>
<event>
 8    1  0.6972317E-052  0.1310010E+04  0.7818608E-02  0.9021664E-01
          2   -1    0    0  501    0  0.00000000000E+00  0.00000000000E+00  0.20808191854E+04  0.20808191854E+04  0.25500000000E-02 0. -1.
         -2   -1    0    0    0  501 -0.00000000000E+00 -0.00000000000E+00 -0.20618407477E+03  0.20618407478E+03  0.25500000000E-02 0.  1.
     200001    2    1    2    0    0 -0.81967839742E+02  0.17013229391E+03  0.70738717089E+03  0.95512470828E+03  0.61335379239E+03 0.  0.
    5000001    2    3    3    0    0 -0.94314933439E+02 -0.11823175299E+02  0.73647409336E+03  0.74463173321E+03  0.55201755076E+02 0.  0.
        -11    1    4    4    0    0 -0.30413231189E+02  0.15514200795E+02  0.24193435780E+03  0.24433151361E+03  0.51100000000E-03 0. -1.
     200002    1    4    4    0    0 -0.63901702250E+02 -0.27337376094E+02  0.49453973556E+03  0.50030021960E+03  0.30000000000E+02 0. -1.
     200000    1    3    3    0    0  0.12347093696E+02  0.18195546921E+03 -0.29086922466E+02  0.21049297507E+03  0.10100000000E+03 0.  1.
    -200001    1    1    2    0    0  0.81967839742E+02 -0.17013229391E+03  0.11672479397E+04  0.13318785519E+04  0.61300000000E+03 0. -1.
<mgrwt>
<rscale>  0 0.13100103E+04</rscale>
<asrwt>0</asrwt>
<pdfrwt beam="1">  1        2 0.29725987E+00 0.13100103E+04</pdfrwt>
<pdfrwt beam="2">  1       -2 0.29454869E-01 0.13100103E+04</pdfrwt>
<totfact> 0.75833297E+01</totfact>
</mgrwt>
</event>
<event>
 8    1  0.6972317E-052  0.2694879E+04  0.7818608E-02  0.8336668E-01
         -2   -1    0    0    0  501 -0.00000000000E+00  0.00000000000E+00  0.10042377157E+04  0.10042377157E+04  0.25500000000E-02 0. -1.
          2   -1    0    0  501    0  0.00000000000E+00 -0.00000000000E+00 -0.18079315505E+04  0.18079315505E+04  0.25500000000E-02 0.  1.
     200001    2    1    2    0    0  0.86008617711E+02 -0.43946807841E+03 -0.15634257465E+04  0.17381621656E+04  0.61349651585E+03 0.  0.
    5000001    2    3    3    0    0 -0.19654844817E+03 -0.40138240871E+03 -0.86418032757E+03  0.97629986206E+03  0.81330508358E+02 0.  0.
        -11    1    4    4    0    0 -0.13405377536E+03 -0.30399295332E+03 -0.67832524857E+03  0.75531931870E+03  0.51100000000E-03 0. -1.
     200002    1    4    4    0    0 -0.62494672809E+02 -0.97389455391E+02 -0.18585507901E+03  0.22098054336E+03  0.30000000000E+02 0. -1.
     200000    1    3    3    0    0  0.28255706588E+03 -0.38085669694E+02 -0.69924541892E+03  0.76186230357E+03  0.10100000000E+03 0.  1.
    -200001    1    1    2    0    0 -0.86008617711E+02  0.43946807841E+03  0.75973191171E+03  0.10740071005E+04  0.61300000000E+03 0. -1.
<mgrwt>
<rscale>  0 0.26948789E+04</rscale>
<asrwt>0</asrwt>
<pdfrwt beam="1">  1        2 0.25827594E+00 0.26948789E+04</pdfrwt>
<pdfrwt beam="2">  1       -2 0.14346253E+00 0.26948789E+04</pdfrwt>
<totfact> 0.30024939E+00</totfact>
</mgrwt>
</event>
<event>
 8    1  0.6972317E-052  0.1620300E+04  0.7818608E-02  0.8808173E-01
         -2   -1    0    0    0  501 -0.00000000000E+00  0.00000000000E+00  0.49817112403E+03  0.49817112403E+03  0.25500000000E-02 0. -1.
          2   -1    0    0  501    0  0.00000000000E+00 -0.00000000000E+00 -0.13175047857E+04  0.13175047857E+04  0.25500000000E-02 0.  1.
     200001    2    1    2    0    0  0.33081288544E+03 -0.40690982089E+03 -0.49445094680E+03  0.94600324376E+03  0.61272149539E+03 0.  0.
    5000001    2    3    3    0    0 -0.29812199184E+02 -0.86659185351E+02 -0.43466324195E+03  0.44962990557E+03  0.69543773646E+02 0.  0.
        -11    1    4    4    0    0 -0.81917730502E+01 -0.86414315976E+01 -0.18644495762E+03  0.18682478879E+03  0.51100000000E-03 0. -1.
     200002    1    4    4    0    0 -0.21620426134E+02 -0.78017753753E+02 -0.24821828433E+03  0.26280511677E+03  0.30000000000E+02 0. -1.
     200000    1    3    3    0    0  0.36062508462E+03 -0.32025063554E+03 -0.59787704850E+02  0.49637333820E+03  0.10100000000E+03 0. -1.
    -200001    1    1    2    0    0 -0.33081288544E+03  0.40690982089E+03 -0.32488271487E+03  0.86967266597E+03  0.61300000000E+03 0. -1.
<mgrwt>
<rscale>  0 0.16202998E+04</rscale>
<asrwt>0</asrwt>
<pdfrwt beam="1">  1        2 0.18821497E+00 0.16202998E+04</pdfrwt>
<pdfrwt beam="2">  1       -2 0.71167304E-01 0.16202998E+04</pdfrwt>
<totfact> 0.31584821E+01</totfact>
</mgrwt>
</event>
<event>
 8    1  0.6972317E-052  0.1337695E+04  0.7818608E-02  0.9000196E-01
         -2   -1    0    0    0  501 -0.00000000000E+00  0.00000000000E+00  0.27802651448E+03  0.27802651449E+03  0.25500000000E-02 0. -1.
          2   -1    0    0  501    0  0.00000000000E+00 -0.00000000000E+00 -0.16090440011E+04  0.16090440011E+04  0.25500000000E-02 0.  1.
     200001    2    1    2    0    0  0.87490293516E+02  0.24586240347E+03 -0.74987934021E+03  0.10029927938E+04  0.61283982141E+03 0.  0.
    5000001    2    3    3    0    0  0.15884504812E+03  0.40873899123E+03 -0.47404527163E+03  0.65961877438E+03  0.13445704034E+03 0.  0.
        -11    1    4    4    0    0  0.10379754096E+03  0.35180887678E+03 -0.42637386885E+03  0.56243941125E+03  0.51100000000E-03 0. -1.
     200002    1    4    4    0    0  0.55047507158E+02  0.56930114454E+02 -0.47671402786E+02  0.97179363137E+02  0.30000000000E+02 0. -1.
     200000    1    3    3    0    0 -0.71354754600E+02 -0.16287658776E+03 -0.27583406858E+03  0.34337401945E+03  0.10100000000E+03 0. -1.
    -200001    1    1    2    0    0 -0.87490293516E+02 -0.24586240347E+03 -0.58113814643E+03  0.88407772177E+03  0.61300000000E+03 0. -1.
<mgrwt>
<rscale>  0 0.13376949E+04</rscale>
<asrwt>0</asrwt>
<pdfrwt beam="1">  1        2 0.22986342E+00 0.13376949E+04</pdfrwt>
<pdfrwt beam="2">  1       -2 0.39718075E-01 0.13376949E+04</pdfrwt>
<totfact> 0.75050113E+01</totfact>
</mgrwt>
</event>
<event>
 8    1  0.6972317E-052  0.1643866E+04  0.7818608E-02  0.8794043E-01
          2   -1    0    0  501    0  0.00000000000E+00  0.00000000000E+00  0.15290391021E+04  0.15290391021E+04  0.25500000000E-02 0.  1.
         -2   -1    0    0    0  501 -0.00000000000E+00 -0.00000000000E+00 -0.44182919450E+03  0.44182919451E+03  0.25500000000E-02 0. -1.
     200001    2    1    2    0    0 -0.35421879256E+03 -0.37977250430E+03  0.75161531397E+03  0.11001841752E+04  0.61301022111E+03 0.  0.
    5000001    2    3    3    0    0 -0.49170154673E+02 -0.11099677321E+03  0.65360969730E+03  0.66995032485E+03  0.83004901031E+02 0.  0.
        -11    1    4    4    0    0 -0.17841297413E+02 -0.94622804355E+02  0.35784257479E+03  0.37057130937E+03  0.51100000000E-03 0. -1.
     200002    1    4    4    0    0 -0.31328857260E+02 -0.16373968853E+02  0.29576712251E+03  0.29937901549E+03  0.30000000000E+02 0. -1.
     200000    1    3    3    0    0 -0.30504863789E+03 -0.26877573109E+03  0.98005616668E+02  0.43023385036E+03  0.10100000000E+03 0. -1.
    -200001    1    1    2    0    0  0.35421879256E+03  0.37977250430E+03  0.33559459368E+03  0.87068412144E+03  0.61300000000E+03 0. -1.
<mgrwt>
<rscale>  0 0.16438663E+04</rscale>
<asrwt>0</asrwt>
<pdfrwt beam="1">  1        2 0.21843415E+00 0.16438663E+04</pdfrwt>
<pdfrwt beam="2">  1       -2 0.63118457E-01 0.16438663E+04</pdfrwt>
<totfact> 0.31418359E+01</totfact>
</mgrwt>
</event>
<event>
 8    1  0.6972317E-052  0.1811920E+04  0.7818608E-02  0.8699986E-01
         -2   -1    0    0    0  501 -0.00000000000E+00  0.00000000000E+00  0.13678864003E+04  0.13678864003E+04  0.25500000000E-02 0. -1.
          2   -1    0    0  501    0  0.00000000000E+00 -0.00000000000E+00 -0.60002306564E+03  0.60002306565E+03  0.25500000000E-02 0.  1.
     200001    2    1    2    0    0  0.50303139862E+03 -0.57224475835E+02  0.85527043165E+03  0.11680818413E+04  0.61368758176E+03 0.  0.
    5000001    2    3    3    0    0  0.53270242286E+03 -0.74333163056E+02  0.90009642062E+03  0.10523949961E+04  0.89801842588E+02 0.  0.
        -11    1    4    4    0    0  0.10915687091E+03 -0.83474199595E+01  0.25241383359E+03  0.27513205062E+03  0.51100000000E-03 0. -1.
     200002    1    4    4    0    0  0.42354555195E+03 -0.65985743097E+02  0.64768258702E+03  0.77726294547E+03  0.30000000000E+02 0. -1.
     200000    1    3    3    0    0 -0.29671024244E+02  0.17108687221E+02 -0.44825988972E+02  0.11568684517E+03  0.10100000000E+03 0.  1.
    -200001    1    1    2    0    0 -0.50303139862E+03  0.57224475835E+02 -0.87407096979E+02  0.79982762470E+03  0.61300000000E+03 0.  1.
<mgrwt>
<rscale>  0 0.18119199E+04</rscale>
<asrwt>0</asrwt>
<pdfrwt beam="1">  1        2 0.85717581E-01 0.18119199E+04</pdfrwt>
<pdfrwt beam="2">  1       -2 0.19541234E+00 0.18119199E+04</pdfrwt>
<totfact> 0.73142995E+00</totfact>
</mgrwt>
</event>
<event>
 8    1  0.6972317E-052  0.1445781E+04  0.7818608E-02  0.8921331E-01
          2   -1    0    0  501    0  0.00000000000E+00  0.00000000000E+00  0.26692078603E+04  0.26692078603E+04  0.25500000000E-02 0.  1.
         -2   -1    0    0    0  501 -0.00000000000E+00 -0.00000000000E+00 -0.19577738694E+03  0.19577738696E+03  0.25500000000E-02 0. -1.
     200001    2    1    2    0    0 -0.32424437524E+03 -0.15205177151E+03  0.15093217089E+04  0.16676845892E+04  0.61226278017E+03 0.  0.
    5000001    2    3    3    0    0 -0.26048308598E+03  0.17461258699E+03  0.45945807548E+03  0.56170549631E+03  0.77912437020E+02 0.  0.
        -11    1    4    4    0    0 -0.16717298036E+03  0.76168615702E+02  0.24601488278E+03  0.30703710839E+03  0.51100000000E-03 0. -1.
     200002    1    4    4    0    0 -0.93310105620E+02  0.98443971292E+02  0.21344319270E+03  0.25466838792E+03  0.30000000000E+02 0. -1.
     200000    1    3    3    0    0 -0.63761289262E+02 -0.32666435850E+03  0.10498636334E+04  0.11059790929E+04  0.10100000000E+03 0.  1.
    -200001    1    1    2    0    0  0.32424437524E+03  0.15205177151E+03  0.96410876444E+03  0.11973006580E+04  0.61300000000E+03 0.  1.
<mgrwt>
<rscale>  0 0.14457808E+04</rscale>
<asrwt>0</asrwt>
<pdfrwt beam="1">  1        2 0.38131540E+00 0.14457808E+04</pdfrwt>
<pdfrwt beam="2">  1       -2 0.27968199E-01 0.14457808E+04</pdfrwt>
<totfact> 0.40760867E+01</totfact>
</mgrwt>
</event>
<event>
 8    1  0.6972317E-052  0.1476280E+04  0.7818608E-02  0.8900382E-01
          2   -1    0    0  501    0  0.00000000000E+00  0.00000000000E+00  0.90776278074E+03  0.90776278075E+03  0.25500000000E-02 0.  1.
         -2   -1    0    0    0  501 -0.00000000000E+00 -0.00000000000E+00 -0.60021234290E+03  0.60021234291E+03  0.25500000000E-02 0. -1.
     200001    2    1    2    0    0 -0.34720607933E+03  0.58873604908E+02  0.37057054668E+03  0.79821551858E+03  0.61303125627E+03 0.  0.
    5000001    2    3    3    0    0 -0.46872163714E+03 -0.40125114214E+02  0.13228454623E+03  0.49564652614E+03  0.82802655686E+02 0.  0.
        -11    1    4    4    0    0 -0.23781119240E+03 -0.40369856433E+02  0.36915059242E+02  0.24402174111E+03  0.51100000000E-03 0. -1.
     200002    1    4    4    0    0 -0.23091044475E+03  0.24474221970E+00  0.95369486988E+02  0.25162478503E+03  0.30000000000E+02 0. -1.
     200000    1    3    3    0    0  0.12151555781E+03  0.98998719121E+02  0.23828600045E+03  0.30256899244E+03  0.10100000000E+03 0. -1.
    -200001    1    1    2    0    0  0.34720607933E+03 -0.58873604908E+02 -0.63020108837E+02  0.70975960507E+03  0.61300000000E+03 0. -1.
<mgrwt>
<rscale>  0 0.14762797E+04</rscale>
<asrwt>0</asrwt>
<pdfrwt beam="1">  1        2 0.12968040E+00 0.14762797E+04</pdfrwt>
<pdfrwt beam="2">  1       -2 0.85744621E-01 0.14762797E+04</pdfrwt>
<totfact> 0.36820880E+01</totfact>
</mgrwt>
</event>
<event>
 8    1  0.6972317E-052  0.2829456E+04  0.7818608E-02  0.8294181E-01
          2   -1    0    0  501    0  0.00000000000E+00  0.00000000000E+00  0.22656172701E+04  0.22656172701E+04  0.25500000000E-02 0.  1.
         -2   -1    0    0    0  501 -0.00000000000E+00 -0.00000000000E+00 -0.88340422969E+03  0.88340422970E+03  0.25500000000E-02 0. -1.
     200001    2    1    2    0    0 -0.10351132621E+03  0.50195026647E+03 -0.60810905330E+03  0.10043024736E+04  0.61331735107E+03 0.  0.
    5000001    2    3    3    0    0 -0.13309130625E+03  0.10418042293E+03 -0.56035652252E+03  0.59008377793E+03  0.75050491801E+02 0.  0.
        -11    1    4    4    0    0 -0.43587003274E+02  0.52369475234E+02 -0.13385165903E+03  0.15019539080E+03  0.51100000000E-03 0. -1.
     200002    1    4    4    0    0 -0.89504302980E+02  0.51810947694E+02 -0.42650486349E+03  0.43988838713E+03  0.30000000000E+02 0.  1.
     200000    1    3    3    0    0  0.29579980049E+02  0.39776984354E+03 -0.47752530776E+02  0.41421869567E+03  0.10100000000E+03 0. -1.
    -200001    1    1    2    0    0  0.10351132621E+03 -0.50195026647E+03  0.19903220937E+04  0.21447190262E+04  0.61300000000E+03 0.  1.
<mgrwt>
<rscale>  0 0.28294564E+04</rscale>
<asrwt>0</asrwt>
<pdfrwt beam="1">  1        2 0.32365960E+00 0.28294564E+04</pdfrwt>
<pdfrwt beam="2">  1       -2 0.12620061E+00 0.28294564E+04</pdfrwt>
<totfact> 0.23932274E+00</totfact>
</mgrwt>
</event>
<event>
 8    1  0.6972317E-052  0.1336414E+04  0.7818608E-02  0.9001177E-01
          2   -1    0    0  501    0  0.00000000000E+00  0.00000000000E+00  0.45853198799E+03  0.45853198800E+03  0.25500000000E-02 0.  1.
         -2   -1    0    0    0  501 -0.00000000000E+00 -0.00000000000E+00 -0.97376109918E+03  0.97376109918E+03  0.25500000000E-02 0. -1.
     200001    2    1    2    0    0  0.11590787165E+03  0.21203062337E+02 -0.35039526566E+01  0.62512777423E+03  0.61391225095E+03 0.  0.
    5000001    2    3    3    0    0  0.26564567737E+02 -0.27392999418E+03  0.47043399299E+02  0.29673504928E+03  0.10047532077E+03 0.  0.
        -11    1    4    4    0    0  0.22159470991E+02 -0.57328930626E+01  0.65570049892E+01  0.23809715079E+02  0.51100000000E-03 0. -1.
     200002    1    4    4    0    0  0.44050967464E+01 -0.26819710112E+03  0.40486394310E+02  0.27292533421E+03  0.30000000000E+02 0. -1.
     200000    1    3    3    0    0  0.89343303914E+02  0.29513305652E+03 -0.50547351956E+02  0.32839272494E+03  0.10100000000E+03 0.  1.
    -200001    1    1    2    0    0 -0.11590787165E+03 -0.21203062337E+02 -0.51172515853E+03  0.80716531295E+03  0.61300000000E+03 0. -1.
<mgrwt>
<rscale>  0 0.13364140E+04</rscale>
<asrwt>0</asrwt>
<pdfrwt beam="1">  1        2 0.65504570E-01 0.13364140E+04</pdfrwt>
<pdfrwt beam="2">  1       -2 0.13910873E+00 0.13364140E+04</pdfrwt>
<totfact> 0.26486112E+01</totfact>
</mgrwt>
</event>
<event>
 8    1  0.6972317E-052  0.1327152E+04  0.7818608E-02  0.9008307E-01
          2   -1    0    0  501    0  0.00000000000E+00  0.00000000000E+00  0.20285085994E+04  0.20285085994E+04  0.25500000000E-02 0.  1.
         -2   -1    0    0    0  501 -0.00000000000E+00 -0.00000000000E+00 -0.21707221591E+03  0.21707221592E+03  0.25500000000E-02 0. -1.
     200001    2    1    2    0    0 -0.22603358687E+03 -0.93838133717E+02  0.10230760265E+04  0.12173892815E+04  0.61274409751E+03 0.  0.
    5000001    2    3    3    0    0 -0.13647159587E+03 -0.28255739729E+03  0.25792226970E+03  0.41782841315E+03  0.97946446535E+02 0.  0.
        -11    1    4    4    0    0 -0.51741229165E+02 -0.52783195592E+02  0.23676719194E+02  0.77613191948E+02  0.51100000000E-03 0. -1.
     200002    1    4    4    0    0 -0.84730366705E+02 -0.22977420170E+03  0.23424555050E+03  0.34021522121E+03  0.30000000000E+02 0. -1.
     200000    1    3    3    0    0 -0.89561991005E+02  0.18871926358E+03  0.76515375679E+03  0.79956086835E+03  0.10100000000E+03 0.  1.
    -200001    1    1    2    0    0  0.22603358687E+03  0.93838133717E+02  0.78836035705E+03  0.10281915339E+04  0.61300000000E+03 0.  1.
<mgrwt>
<rscale>  0 0.13271516E+04</rscale>
<asrwt>0</asrwt>
<pdfrwt beam="1">  1        2 0.28978697E+00 0.13271516E+04</pdfrwt>
<pdfrwt beam="2">  1       -2 0.31010314E-01 0.13271516E+04</pdfrwt>
<totfact> 0.73191550E+01</totfact>
</mgrwt>
</event>
<event>
 8    1  0.6972317E-052  0.1908198E+04  0.7818608E-02  0.8650786E-01
         -2   -1    0    0    0  501 -0.00000000000E+00  0.00000000000E+00  0.53318165026E+03  0.53318165026E+03  0.25500000000E-02 0. -1.
          2   -1    0    0  501    0  0.00000000000E+00 -0.00000000000E+00 -0.17073076803E+04  0.17073076803E+04  0.25500000000E-02 0.  1.
     200001    2    1    2    0    0  0.38398189125E+03  0.13081472604E+02  0.14370449940E+03  0.73713989611E+03  0.61246308097E+03 0.  0.
    5000001    2    3    3    0    0  0.57316938153E+02 -0.24981006402E+02 -0.21410364926E+03  0.24076663420E+03  0.90658245288E+02 0.  0.
        -11    1    4    4    0    0 -0.15041069252E+02 -0.20621953863E+01 -0.96083355812E+02  0.97275370358E+02  0.51100000000E-03 0. -1.
     200002    1    4    4    0    0  0.72358007405E+02 -0.22918811015E+02 -0.11802029345E+03  0.14349126384E+03  0.30000000000E+02 0. -1.
     200000    1    3    3    0    0  0.32666495310E+03  0.38062479005E+02  0.35780814866E+03  0.49637326191E+03  0.10100000000E+03 0. -1.
    -200001    1    1    2    0    0 -0.38398189125E+03 -0.13081472604E+02 -0.13178305294E+04  0.15033494344E+04  0.61300000000E+03 0. -1.
<mgrwt>
<rscale>  0 0.19081982E+04</rscale>
<asrwt>0</asrwt>
<pdfrwt beam="1">  1        2 0.24390110E+00 0.19081982E+04</pdfrwt>
<pdfrwt beam="2">  1       -2 0.76168808E-01 0.19081982E+04</pdfrwt>
<totfact> 0.16476013E+01</totfact>
</mgrwt>
</event>
<event>
 8    1  0.6972317E-052  0.1401002E+04  0.7818608E-02  0.8953093E-01
          2   -1    0    0  501    0  0.00000000000E+00  0.00000000000E+00  0.18139319949E+04  0.18139319949E+04  0.25500000000E-02 0.  1.
         -2   -1    0    0    0  501 -0.00000000000E+00 -0.00000000000E+00 -0.27051832574E+03  0.27051832575E+03  0.25500000000E-02 0. -1.
     200001    2    1    2    0    0  0.80764445688E+02  0.31301604063E+03  0.62400441771E+03  0.93311009768E+03  0.61384933305E+03 0.  0.
    5000001    2    3    3    0    0 -0.19404781123E+03 -0.57778824649E+02  0.19093310699E+03  0.29220264037E+03  0.89072925569E+02 0.  0.
        -11    1    4    4    0    0 -0.13419917512E+03 -0.22293916577E+02  0.16089009331E+03  0.21069423211E+03  0.51100000000E-03 0. -1.
     200002    1    4    4    0    0 -0.59848636111E+02 -0.35484908072E+02  0.30043013685E+02  0.81508408256E+02  0.30000000000E+02 0. -1.
     200000    1    3    3    0    0  0.27481225692E+03  0.37079486528E+03  0.43307131071E+03  0.64090745731E+03  0.10100000000E+03 0.  1.
    -200001    1    1    2    0    0 -0.80764445688E+02 -0.31301604063E+03  0.91940925146E+03  0.11513402230E+04  0.61300000000E+03 0.  1.
<mgrwt>
<rscale>  0 0.14010023E+04</rscale>
<asrwt>0</asrwt>
<pdfrwt beam="1">  1        2 0.25913313E+00 0.14010023E+04</pdfrwt>
<pdfrwt beam="2">  1       -2 0.38645476E-01 0.14010023E+04</pdfrwt>
<totfact> 0.61670364E+01</totfact>
</mgrwt>
</event>
<event>
 8    1  0.6972317E-052  0.1837125E+04  0.7818608E-02  0.8686802E-01
         -2   -1    0    0    0  501 -0.00000000000E+00  0.00000000000E+00  0.31470654446E+03  0.31470654447E+03  0.25500000000E-02 0. -1.
          2   -1    0    0  501    0  0.00000000000E+00 -0.00000000000E+00 -0.26810915565E+04  0.26810915565E+04  0.25500000000E-02 0.  1.
     200001    2    1    2    0    0  0.31078831034E+03  0.31335379859E+03 -0.33048073361E+03  0.82428820971E+03  0.61274265434E+03 0.  0.
    5000001    2    3    3    0    0  0.24782129557E+03  0.12432227581E+03  0.12761901529E+03  0.31462739947E+03  0.76369919694E+02 0.  0.
        -11    1    4    4    0    0  0.10100097537E+03  0.25892899068E+02  0.72720649733E+02  0.12712172177E+03  0.51100000000E-03 0. -1.
     200002    1    4    4    0    0  0.14682032019E+03  0.98429376747E+02  0.54898365558E+02  0.18750567770E+03  0.30000000000E+02 0. -1.
     200000    1    3    3    0    0  0.62967014772E+02  0.18903152277E+03 -0.45809974890E+03  0.50966081024E+03  0.10100000000E+03 0.  1.
    -200001    1    1    2    0    0 -0.31078831034E+03 -0.31335379859E+03 -0.20359042784E+04  0.21715098912E+04  0.61300000000E+03 0.  1.
<mgrwt>
<rscale>  0 0.18371250E+04</rscale>
<asrwt>0</asrwt>
<pdfrwt beam="1">  1        2 0.38301307E+00 0.18371250E+04</pdfrwt>
<pdfrwt beam="2">  1       -2 0.44958079E-01 0.18371250E+04</pdfrwt>
<totfact> 0.15645780E+01</totfact>
</mgrwt>
</event>
<event>
 8    1  0.6972317E-052  0.1411547E+04  0.7818608E-02  0.8945502E-01
          2   -1    0    0  501    0  0.00000000000E+00  0.00000000000E+00  0.10736542831E+04  0.10736542831E+04  0.25500000000E-02 0.  1.
         -2   -1    0    0    0  501 -0.00000000000E+00 -0.00000000000E+00 -0.46394467018E+03  0.46394467019E+03  0.25500000000E-02 0. -1.
     200001    2    1    2    0    0 -0.29468109135E+03  0.91408923845E+01  0.51023207023E+03  0.85015056763E+03  0.61277950409E+03 0.  0.
    5000001    2    3    3    0    0 -0.11577769127E+03 -0.90351943218E+02 -0.10086693116E+03  0.19780998143E+03  0.85945933661E+02 0.  0.
        -11    1    4    4    0    0 -0.80407811822E+02 -0.61837834378E+02 -0.10131201201E+03  0.14336477161E+03  0.51100000000E-03 0. -1.
     200002    1    4    4    0    0 -0.35369879449E+02 -0.28514108840E+02  0.44508084566E+00  0.54445209818E+02  0.30000000000E+02 0. -1.
     200000    1    3    3    0    0 -0.17890340008E+03  0.99492835602E+02  0.61109900139E+03  0.65234058620E+03  0.10100000000E+03 0.  1.
    -200001    1    1    2    0    0  0.29468109135E+03 -0.91408923845E+01  0.99477542732E+02  0.68744838571E+03  0.61300000000E+03 0.  1.
<mgrwt>
<rscale>  0 0.14115469E+04</rscale>
<asrwt>0</asrwt>
<pdfrwt beam="1">  1        2 0.15337918E+00 0.14115469E+04</pdfrwt>
<pdfrwt beam="2">  1       -2 0.66277810E-01 0.14115469E+04</pdfrwt>
<totfact> 0.51644462E+01</totfact>
</mgrwt>
</event>
<event>
 8    1  0.6972317E-052  0.2140358E+04  0.7818608E-02  0.8543671E-01
         -2   -1    0    0    0  501 -0.00000000000E+00  0.00000000000E+00  0.55332072358E+03  0.55332072358E+03  0.25500000000E-02 0. -1.
          2   -1    0    0  501    0  0.00000000000E+00 -0.00000000000E+00 -0.20698364041E+04  0.20698364041E+04  0.25500000000E-02 0.  1.
     200001    2    1    2    0    0 -0.21764026240E+03 -0.30649205859E+03 -0.17295285433E+04  0.18731916982E+04  0.61341135478E+03 0.  0.
    5000001    2    3    3    0    0 -0.24576385844E+03 -0.25800868288E+03 -0.41890118110E+03  0.55748403424E+03  0.91333971488E+02 0.  0.
        -11    1    4    4    0    0 -0.48431892542E+02 -0.10490090257E+03 -0.14863335477E+03  0.18825971881E+03  0.51100000000E-03 0. -1.
     200002    1    4    4    0    0 -0.19733196589E+03 -0.15310778031E+03 -0.27026782633E+03  0.36922431543E+03  0.30000000000E+02 0. -1.
     200000    1    3    3    0    0  0.28123596036E+02 -0.48483375715E+02 -0.13106273622E+04  0.13157076639E+04  0.10100000000E+03 0.  1.
    -200001    1    1    2    0    0  0.21764026240E+03  0.30649205859E+03  0.21301286276E+03  0.74996542954E+03  0.61300000000E+03 0. -1.
<mgrwt>
<rscale>  0 0.21403583E+04</rscale>
<asrwt>0</asrwt>
<pdfrwt beam="1">  1        2 0.29569091E+00 0.21403583E+04</pdfrwt>
<pdfrwt beam="2">  1       -2 0.79045819E-01 0.21403583E+04</pdfrwt>
<totfact> 0.96734337E+00</totfact>
</mgrwt>
</event>
<event>
 8    1  0.6972317E-052  0.1334274E+04  0.7818608E-02  0.9002819E-01
         -2   -1    0    0    0  501 -0.00000000000E+00  0.00000000000E+00  0.16348531922E+03  0.16348531924E+03  0.25500000000E-02 0. -1.
          2   -1    0    0  501    0  0.00000000000E+00 -0.00000000000E+00 -0.27223957418E+04  0.27223957418E+04  0.25500000000E-02 0.  1.
     200001    2    1    2    0    0  0.18105121011E+03  0.78198507534E+02 -0.16562259023E+04  0.17770515474E+04  0.61313409238E+03 0.  0.
    5000001    2    3    3    0    0  0.25960695708E+03 -0.22555341772E+01 -0.27203819902E+03  0.38463621559E+03  0.80866414680E+02 0.  0.
        -11    1    4    4    0    0  0.10937328691E+03 -0.20826460682E+02 -0.15552576108E+03  0.19127080204E+03  0.51100000000E-03 0. -1.
     200002    1    4    4    0    0  0.15023367017E+03  0.18570926505E+02 -0.11651243794E+03  0.19336541355E+03  0.30000000000E+02 0. -1.
     200000    1    3    3    0    0 -0.78555746968E+02  0.80454041711E+02 -0.13841877033E+04  0.13924153318E+04  0.10100000000E+03 0.  1.
    -200001    1    1    2    0    0 -0.18105121011E+03 -0.78198507534E+02 -0.90268452026E+03  0.11088295137E+04  0.61300000000E+03 0. -1.
<mgrwt>
<rscale>  0 0.13342739E+04</rscale>
<asrwt>0</asrwt>
<pdfrwt beam="1">  1        2 0.38891365E+00 0.13342739E+04</pdfrwt>
<pdfrwt beam="2">  1       -2 0.23355047E-01 0.13342739E+04</pdfrwt>
<totfact> 0.53486610E+01</totfact>
</mgrwt>
</event>
<event>
 8    1  0.6972317E-052  0.1773217E+04  0.7818608E-02  0.8720674E-01
          2   -1    0    0  501    0  0.00000000000E+00  0.00000000000E+00  0.20486446825E+04  0.20486446825E+04  0.25500000000E-02 0.  1.
         -2   -1    0    0    0  501 -0.00000000000E+00 -0.00000000000E+00 -0.38370453986E+03  0.38370453987E+03  0.25500000000E-02 0. -1.
     200001    2    1    2    0    0  0.11424663656E+03  0.43466963773E+03  0.14583775759E+04  0.16446772844E+04  0.61327663259E+03 0.  0.
    5000001    2    3    3    0    0 -0.18428092553E+03  0.34910784711E+03  0.60097463178E+03  0.72719140774E+03  0.10863280815E+03 0.  0.
        -11    1    4    4    0    0 -0.81406967748E+01  0.65591511182E+02  0.52369946037E+02  0.84327507560E+02  0.51100000000E-03 0. -1.
     200002    1    4    4    0    0 -0.17614022876E+03  0.28351633593E+03  0.54860468575E+03  0.64286390018E+03  0.30000000000E+02 0. -1.
     200000    1    3    3    0    0  0.29852756210E+03  0.85561790620E+02  0.85740294407E+03  0.91748587665E+03  0.10100000000E+03 0.  1.
    -200001    1    1    2    0    0 -0.11424663656E+03 -0.43466963773E+03  0.20656256682E+03  0.78767193802E+03  0.61300000000E+03 0. -1.
<mgrwt>
<rscale>  0 0.17732166E+04</rscale>
<asrwt>0</asrwt>
<pdfrwt beam="1">  1        2 0.29266353E+00 0.17732166E+04</pdfrwt>
<pdfrwt beam="2">  1       -2 0.54814934E-01 0.17732166E+04</pdfrwt>
<totfact> 0.22489806E+01</totfact>
</mgrwt>
</event>
<event>
 8    1  0.6972317E-052  0.1437547E+04  0.7818608E-02  0.8927079E-01
          2   -1    0    0  501    0  0.00000000000E+00  0.00000000000E+00  0.50229386717E+03  0.50229386718E+03  0.25500000000E-02 0.  1.
         -2   -1    0    0    0  501 -0.00000000000E+00 -0.00000000000E+00 -0.10285525524E+04  0.10285525524E+04  0.25500000000E-02 0. -1.
     200001    2    1    2    0    0 -0.31324082071E+02  0.12077572004E+03 -0.63907013253E+03  0.89518660853E+03  0.61431299607E+03 0.  0.
    5000001    2    3    3    0    0  0.10513631630E+03  0.18261088461E+03  0.11372595922E+01  0.22997120520E+03  0.92114503096E+02 0.  0.
        -11    1    4    4    0    0  0.67790323899E+01  0.86353302302E+02 -0.15982792560E+02  0.88081199793E+02  0.51100000000E-03 0. -1.
     200002    1    4    4    0    0  0.98357283912E+02  0.96257582306E+02  0.17120052152E+02  0.14189000541E+03  0.30000000000E+02 0. -1.
     200000    1    3    3    0    0 -0.13646039837E+03 -0.61835164567E+02 -0.64020739212E+03  0.66521540333E+03  0.10100000000E+03 0. -1.
    -200001    1    1    2    0    0  0.31324082071E+02 -0.12077572004E+03  0.11281144735E+03  0.63565981100E+03  0.61300000000E+03 0.  1.
<mgrwt>
<rscale>  0 0.14375474E+04</rscale>
<asrwt>0</asrwt>
<pdfrwt beam="1">  1        2 0.71756267E-01 0.14375474E+04</pdfrwt>
<pdfrwt beam="2">  1       -2 0.14693608E+00 0.14375474E+04</pdfrwt>
<totfact> 0.20536187E+01</totfact>
</mgrwt>
</event>
<event>
 8    1  0.6972317E-052  0.1353500E+04  0.7818608E-02  0.8988183E-01
          2   -1    0    0  501    0  0.00000000000E+00  0.00000000000E+00  0.87142488515E+03  0.87142488515E+03  0.25500000000E-02 0.  1.
         -2   -1    0    0    0  501 -0.00000000000E+00 -0.00000000000E+00 -0.52556507217E+03  0.52556507217E+03  0.25500000000E-02 0. -1.
     200001    2    1    2    0    0  0.14887304274E+03  0.21903913660E+03  0.28578764180E+03  0.72652818215E+03  0.61321064654E+03 0.  0.
    5000001    2    3    3    0    0  0.20355998703E+03  0.11569515541E+03 -0.13255451164E+03  0.28056652722E+03  0.79528864776E+02 0.  0.
        -11    1    4    4    0    0  0.13503897786E+03  0.89759186474E+02 -0.59141477350E+02  0.17259765770E+03  0.51100000000E-03 0. -1.
     200002    1    4    4    0    0  0.68521009170E+02  0.25935968939E+02 -0.73413034287E+02  0.10796886952E+03  0.30000000000E+02 0. -1.
     200000    1    3    3    0    0 -0.54686944291E+02  0.10334398119E+03  0.41834215344E+03  0.44596165493E+03  0.10100000000E+03 0.  1.
    -200001    1    1    2    0    0 -0.14887304274E+03 -0.21903913660E+03  0.60072171179E+02  0.67046177517E+03  0.61300000000E+03 0. -1.
<mgrwt>
<rscale>  0 0.13534999E+04</rscale>
<asrwt>0</asrwt>
<pdfrwt beam="1">  1        2 0.12448927E+00 0.13534999E+04</pdfrwt>
<pdfrwt beam="2">  1       -2 0.75080725E-01 0.13534999E+04</pdfrwt>
<totfact> 0.52919594E+01</totfact>
</mgrwt>
</event>
<event>
 8    1  0.6972317E-052  0.1761779E+04  0.7818608E-02  0.8726893E-01
          2   -1    0    0  501    0  0.00000000000E+00  0.00000000000E+00  0.26068954941E+04  0.26068954941E+04  0.25500000000E-02 0.  1.
         -2   -1    0    0    0  501 -0.00000000000E+00 -0.00000000000E+00 -0.29765921372E+03  0.29765921374E+03  0.25500000000E-02 0. -1.
     200001    2    1    2    0    0  0.16685425539E+03  0.58412417424E+03  0.86289019543E+03  0.12202960012E+04  0.61278172924E+03 0.  0.
    5000001    2    3    3    0    0 -0.70732323281E+02  0.37588128393E+03  0.11999838047E+03  0.40672256722E+03  0.68802864805E+02 0.  0.
        -11    1    4    4    0    0 -0.44417204631E+00  0.20924293227E+02  0.22585124400E+02  0.30791414068E+02  0.51100000000E-03 0. -1.
     200002    1    4    4    0    0 -0.70288151235E+02  0.35495699071E+03  0.97413256072E+02  0.37593115316E+03  0.30000000000E+02 0. -1.
     200000    1    3    3    0    0  0.23758657867E+03  0.20824289030E+03  0.74289181495E+03  0.81357343396E+03  0.10100000000E+03 0.  1.
    -200001    1    1    2    0    0 -0.16685425539E+03 -0.58412417424E+03  0.14463460850E+04  0.16842587067E+04  0.61300000000E+03 0.  1.
<mgrwt>
<rscale>  0 0.17617792E+04</rscale>
<asrwt>0</asrwt>
<pdfrwt beam="1">  1        2 0.37241365E+00 0.17617792E+04</pdfrwt>
<pdfrwt beam="2">  1       -2 0.42522744E-01 0.17617792E+04</pdfrwt>
<totfact> 0.19268373E+01</totfact>
</mgrwt>
</event>
<event>
 8    1  0.6972317E-052  0.1437269E+04  0.7818608E-02  0.8927274E-01
          2   -1    0    0  501    0  0.00000000000E+00  0.00000000000E+00  0.19059573778E+04  0.19059573778E+04  0.25500000000E-02 0.  1.
         -2   -1    0    0    0  501 -0.00000000000E+00 -0.00000000000E+00 -0.27095868669E+03  0.27095868670E+03  0.25500000000E-02 0. -1.
     200001    2    1    2    0    0  0.34425174215E+03  0.12731046539E+03  0.88183887379E+03  0.11387754541E+04  0.62004235250E+03 0.  0.
    5000001    2    3    3    0    0  0.84918845714E+02 -0.15046540596E+03  0.64314948189E+03  0.67879000681E+03  0.13139089978E+03 0.  0.
        -11    1    4    4    0    0  0.66753049016E+01  0.22973937681E+02  0.86910522767E+02  0.90143222019E+02  0.51100000000E-03 0. -1.
     200002    1    4    4    0    0  0.78243540813E+02 -0.17343934364E+03  0.55623895912E+03  0.58864678480E+03  0.30000000000E+02 0. -1.
     200000    1    3    3    0    0  0.25933289644E+03  0.27777587135E+03  0.23868939190E+03  0.45998544726E+03  0.10100000000E+03 0. -1.
    -200001    1    1    2    0    0 -0.34425174215E+03 -0.12731046539E+03  0.75315981729E+03  0.10381406104E+04  0.61300000000E+03 0.  1.
<mgrwt>
<rscale>  0 0.14372692E+04</rscale>
<asrwt>0</asrwt>
<pdfrwt beam="1">  1        2 0.27227962E+00 0.14372692E+04</pdfrwt>
<pdfrwt beam="2">  1       -2 0.38708384E-01 0.14372692E+04</pdfrwt>
<totfact> 0.54969942E+01</totfact>
</mgrwt>
</event>
<event>
 8    1  0.6972317E-052  0.1275415E+04  0.7818608E-02  0.9049292E-01
          2   -1    0    0  501    0  0.00000000000E+00  0.00000000000E+00  0.14402977226E+04  0.14402977226E+04  0.25500000000E-02 0. -1.
         -2   -1    0    0    0  501 -0.00000000000E+00 -0.00000000000E+00 -0.28235178436E+03  0.28235178437E+03  0.25500000000E-02 0.  1.
     200001    2    1    2    0    0 -0.10303125114E+03 -0.16009328456E+03  0.60781882969E+03  0.87727732029E+03  0.60326318345E+03 0.  0.
    5000001    2    3    3    0    0  0.11213922185E+03 -0.12434084726E+03  0.11373933230E+03  0.32783021732E+03  0.25787625774E+03 0.  0.
        -11    1    4    4    0    0  0.11408760929E+03  0.39518178106E+02 -0.87460591939E+01  0.12105437846E+03  0.51100000000E-03 0. -1.
     200002    1    4    4    0    0 -0.19483874343E+01 -0.16385902536E+03  0.12248539149E+03  0.20677583886E+03  0.30000000000E+02 0. -1.
     200000    1    3    3    0    0 -0.21517047299E+03 -0.35752437305E+02  0.49407949739E+03  0.54944710297E+03  0.10100000000E+03 0. -1.
    -200001    1    1    2    0    0  0.10303125114E+03  0.16009328456E+03  0.55012710859E+03  0.84537218672E+03  0.61300000000E+03 0.  1.
<mgrwt>
<rscale>  0 0.12754146E+04</rscale>
<asrwt>0</asrwt>
<pdfrwt beam="1">  1        2 0.20575681E+00 0.12754146E+04</pdfrwt>
<pdfrwt beam="2">  1       -2 0.40335970E-01 0.12754146E+04</pdfrwt>
<totfact> 0.89864620E+01</totfact>
</mgrwt>
</event>
<event>
 8    1  0.6972317E-052  0.1302962E+04  0.7818608E-02  0.9027219E-01
          2   -1    0    0  501    0  0.00000000000E+00  0.00000000000E+00  0.35850367895E+04  0.35850367895E+04  0.25500000000E-02 0.  1.
         -2   -1    0    0    0  501 -0.00000000000E+00 -0.00000000000E+00 -0.11838861979E+03  0.11838861982E+03  0.25500000000E-02 0. -1.
     200001    2    1    2    0    0 -0.19012077151E+03  0.99912335834E+02  0.15923926183E+04  0.17198097070E+04  0.61310912141E+03 0.  0.
    5000001    2    3    3    0    0 -0.15057904903E+03 -0.21960857754E+03  0.58260162256E+03  0.65513322231E+03  0.13737871388E+03 0.  0.
        -11    1    4    4    0    0  0.14341003799E+02 -0.79600884179E+02  0.14394823513E+03  0.16511529169E+03  0.51100000000E-03 0. -1.
     200002    1    4    4    0    0 -0.16492005283E+03 -0.14000769336E+03  0.43865338742E+03  0.49001793062E+03  0.30000000000E+02 0. -1.
     200000    1    3    3    0    0 -0.39541722477E+02  0.31952091338E+03  0.10097909958E+04  0.10646764847E+04  0.10100000000E+03 0.  1.
    -200001    1    1    2    0    0  0.19012077151E+03 -0.99912335834E+02  0.18742555513E+04  0.19836157023E+04  0.61300000000E+03 0.  1.
<mgrwt>
<rscale>  0 0.13029621E+04</rscale>
<asrwt>0</asrwt>
<pdfrwt beam="1">  1        2 0.51214811E+00 0.13029621E+04</pdfrwt>
<pdfrwt beam="2">  1       -2 0.16912660E-01 0.13029621E+04</pdfrwt>
<totfact> 0.30424612E+01</totfact>
</mgrwt>
</event>
<event>
 8    1  0.6972317E-052  0.1304724E+04  0.7818608E-02  0.9025827E-01
         -2   -1    0    0    0  501 -0.00000000000E+00  0.00000000000E+00  0.20691164113E+03  0.20691164115E+03  0.25500000000E-02 0. -1.
          2   -1    0    0  501    0  0.00000000000E+00 -0.00000000000E+00 -0.20568020565E+04  0.20568020565E+04  0.25500000000E-02 0.  1.
     200001    2    1    2    0    0  0.67131844157E+02  0.13738531353E+03 -0.12069461239E+04  0.13623104744E+04  0.61301669956E+03 0.  0.
    5000001    2    3    3    0    0  0.20517177774E+03  0.26917274451E+03 -0.66790951131E+03  0.78163464412E+03  0.22427700912E+03 0.  0.
        -11    1    4    4    0    0  0.15011446296E+02  0.37191271215E+01  0.16567929813E+02  0.22664327146E+02  0.51100000000E-03 0. -1.
     200002    1    4    4    0    0  0.19016033144E+03  0.26545361739E+03 -0.68447744112E+03  0.75897031697E+03  0.30000000000E+02 0. -1.
     200000    1    3    3    0    0 -0.13803993358E+03 -0.13178743098E+03 -0.53903661254E+03  0.58067583029E+03  0.10100000000E+03 0.  1.
    -200001    1    1    2    0    0 -0.67131844157E+02 -0.13738531353E+03 -0.64294429151E+03  0.90140322324E+03  0.61300000000E+03 0. -1.
<mgrwt>
<rscale>  0 0.13047242E+04</rscale>
<asrwt>0</asrwt>
<pdfrwt beam="1">  1        2 0.29382885E+00 0.13047242E+04</pdfrwt>
<pdfrwt beam="2">  1       -2 0.29558807E-01 0.13047242E+04</pdfrwt>
<totfact> 0.77537766E+01</totfact>
</mgrwt>
</event>
<event>
 8    1  0.6972317E-052  0.1360232E+04  0.7818608E-02  0.8983118E-01
          2   -1    0    0  501    0  0.00000000000E+00  0.00000000000E+00  0.10414065531E+04  0.10414065531E+04  0.25500000000E-02 0.  1.
         -2   -1    0    0    0  501 -0.00000000000E+00 -0.00000000000E+00 -0.44416649692E+03  0.44416649693E+03  0.25500000000E-02 0. -1.
     200001    2    1    2    0    0  0.16210291150E+03  0.44124483308E+02  0.56287053030E+03  0.84903979222E+03  0.61304242181E+03 0.  0.
    5000001    2    3    3    0    0  0.15910643645E+03  0.11494396250E+03  0.20715480218E+02  0.29302047976E+03  0.21657538595E+03 0.  0.
        -11    1    4    4    0    0 -0.24868173326E+01  0.24442444962E+02 -0.77459861859E+02  0.81262830222E+02  0.51100000000E-03 0. -1.
     200002    1    4    4    0    0  0.16159325378E+03  0.90501517541E+02  0.98175342078E+02  0.21175764953E+03  0.30000000000E+02 0. -1.
     200000    1    3    3    0    0  0.29964750536E+01 -0.70819479196E+02  0.54215505009E+03  0.55601931246E+03  0.10100000000E+03 0.  1.
    -200001    1    1    2    0    0 -0.16210291150E+03 -0.44124483308E+02  0.34369525828E+02  0.63653325777E+03  0.61300000000E+03 0. -1.
<mgrwt>
<rscale>  0 0.13602322E+04</rscale>
<asrwt>0</asrwt>
<pdfrwt beam="1">  1        2 0.14877236E+00 0.13602322E+04</pdfrwt>
<pdfrwt beam="2">  1       -2 0.63452357E-01 0.13602322E+04</pdfrwt>
<totfact> 0.59519888E+01</totfact>
</mgrwt>
</event>
<event>
 8    1  0.6972317E-052  0.1394033E+04  0.7818608E-02  0.8958149E-01
          2   -1    0    0  501    0  0.00000000000E+00  0.00000000000E+00  0.60482610110E+03  0.60482610110E+03  0.25500000000E-02 0.  1.
         -2   -1    0    0    0  501 -0.00000000000E+00 -0.00000000000E+00 -0.80325923547E+03  0.80325923547E+03  0.25500000000E-02 0. -1.
     200001    2    1    2    0    0  0.27094477591E+03  0.64559884743E+02  0.83571755461E+02  0.67810259144E+03  0.61258455408E+03 0.  0.
    5000001    2    3    3    0    0  0.24099028257E+03  0.27752778318E+03  0.18337977954E+03  0.42039104900E+03  0.89456714710E+02 0.  0.
        -11    1    4    4    0    0  0.20427620949E+03  0.21546749987E+03  0.16679134776E+03  0.34055009463E+03  0.51100000000E-03 0. -1.
     200002    1    4    4    0    0  0.36714073085E+02  0.62060283305E+02  0.16588431784E+02  0.79840954375E+02  0.30000000000E+02 0.  1.
     200000    1    3    3    0    0  0.29954493332E+02 -0.21296789843E+03 -0.99808024082E+02  0.25771154244E+03  0.10100000000E+03 0.  1.
    -200001    1    1    2    0    0 -0.27094477591E+03 -0.64559884743E+02 -0.28200488983E+03  0.72998274514E+03  0.61300000000E+03 0. -1.
<mgrwt>
<rscale>  0 0.13940332E+04</rscale>
<asrwt>0</asrwt>
<pdfrwt beam="1">  1        2 0.86403729E-01 0.13940332E+04</pdfrwt>
<pdfrwt beam="2">  1       -2 0.11475132E+00 0.13940332E+04</pdfrwt>
<totfact> 0.31072226E+01</totfact>
</mgrwt>
</event>
<event>
 8    1  0.6972317E-052  0.1916342E+04  0.7818608E-02  0.8646764E-01
          2   -1    0    0  501    0  0.00000000000E+00  0.00000000000E+00  0.21469216823E+04  0.21469216823E+04  0.25500000000E-02 0.  1.
         -2   -1    0    0    0  501 -0.00000000000E+00 -0.00000000000E+00 -0.42763165205E+03  0.42763165206E+03  0.25500000000E-02 0. -1.
     200001    2    1    2    0    0  0.26414406428E+03  0.27157863357E+03  0.17079540339E+04  0.18538421954E+04  0.61326736643E+03 0.  0.
    5000001    2    3    3    0    0  0.24438201733E+03  0.26312605857E+02  0.78617906385E+03  0.89445902992E+03  0.34866102757E+03 0.  0.
        -11    1    4    4    0    0 -0.21790810822E+02 -0.11810695009E+03  0.18348910588E+03  0.21929966501E+03  0.51100000000E-03 0. -1.
     200002    1    4    4    0    0  0.26617282815E+03  0.14441955595E+03  0.60268995797E+03  0.67515936491E+03  0.30000000000E+02 0. -1.
     200000    1    3    3    0    0  0.19762046952E+02  0.24526602771E+03  0.92177497007E+03  0.95938316553E+03  0.10100000000E+03 0.  1.
    -200001    1    1    2    0    0 -0.26414406428E+03 -0.27157863357E+03  0.11335996308E+02  0.72071113889E+03  0.61300000000E+03 0. -1.
<mgrwt>
<rscale>  0 0.19163420E+04</rscale>
<asrwt>0</asrwt>
<pdfrwt beam="1">  1        2 0.30670310E+00 0.19163420E+04</pdfrwt>
<pdfrwt beam="2">  1       -2 0.61090235E-01 0.19163420E+04</pdfrwt>
<totfact> 0.15761101E+01</totfact>
</mgrwt>
</event>
<event>
 8    1  0.6972317E-052  0.2580078E+04  0.7818608E-02  0.8375000E-01
         -2   -1    0    0    0  501 -0.00000000000E+00  0.00000000000E+00  0.84759685782E+03  0.84759685782E+03  0.25500000000E-02 0. -1.
          2   -1    0    0  501    0  0.00000000000E+00 -0.00000000000E+00 -0.19634334014E+04  0.19634334014E+04  0.25500000000E-02 0.  1.
     200001    2    1    2    0    0 -0.11343100265E+04 -0.67636448767E+02 -0.59148189394E+03  0.14174913383E+04  0.60679233516E+03 0.  0.
    5000001    2    3    3    0    0 -0.33080039098E+02 -0.72685015168E+02  0.67926115892E+02  0.12995380623E+03  0.76789544321E+02 0.  0.
        -11    1    4    4    0    0 -0.24835260317E+02 -0.24511445249E+02 -0.70110179060E+01  0.35591508475E+02  0.51100000000E-03 0. -1.
     200002    1    4    4    0    0 -0.82447787815E+01 -0.48173569919E+02  0.74937133798E+02  0.94362297756E+02  0.30000000000E+02 0. -1.
     200000    1    3    3    0    0 -0.11012299874E+04  0.50485664008E+01 -0.65940800983E+03  0.12875375321E+04  0.10100000000E+03 0.  1.
    -200001    1    1    2    0    0  0.11343100265E+04  0.67636448767E+02 -0.52435464961E+03  0.13935389209E+04  0.61300000000E+03 0. -1.
<mgrwt>
<rscale>  0 0.25800775E+04</rscale>
<asrwt>0</asrwt>
<pdfrwt beam="1">  1        2 0.28049048E+00 0.25800775E+04</pdfrwt>
<pdfrwt beam="2">  1       -2 0.12108527E+00 0.25800775E+04</pdfrwt>
<totfact> 0.38796317E+00</totfact>
</mgrwt>
</event>
<event>
 8    1  0.6972317E-052  0.1472378E+04  0.7818608E-02  0.8903032E-01
          2   -1    0    0  501    0  0.00000000000E+00  0.00000000000E+00  0.99719254961E+03  0.99719254961E+03  0.25500000000E-02 0. -1.
         -2   -1    0    0    0  501 -0.00000000000E+00 -0.00000000000E+00 -0.54350029992E+03  0.54350029993E+03  0.25500000000E-02 0.  1.
     200001    2    1    2    0    0  0.10905578697E+03 -0.38016737907E+03  0.12244618422E+03  0.73949789407E+03  0.61273458081E+03 0.  0.
    5000001    2    3    3    0    0  0.25654795159E+02  0.13917644200E+03 -0.53229440672E+02  0.17581655226E+03  0.89720879238E+02 0.  0.
        -11    1    4    4    0    0  0.13356577232E+02  0.31966817080E+02 -0.53586835096E+02  0.63810848963E+02  0.51100000000E-03 0. -1.
     200002    1    4    4    0    0  0.12298217927E+02  0.10720962492E+03  0.35739442362E+00  0.11200570330E+03  0.30000000000E+02 0. -1.
     200000    1    3    3    0    0  0.83400991811E+02 -0.51934382107E+03  0.17567562490E+03  0.56368134181E+03  0.10100000000E+03 0. -1.
    -200001    1    1    2    0    0 -0.10905578697E+03  0.38016737907E+03  0.33124606547E+03  0.80119495547E+03  0.61300000000E+03 0.  1.
<mgrwt>
<rscale>  0 0.14723783E+04</rscale>
<asrwt>0</asrwt>
<pdfrwt beam="1">  1        2 0.14245608E+00 0.14723783E+04</pdfrwt>
<pdfrwt beam="2">  1       -2 0.77642900E-01 0.14723783E+04</pdfrwt>
<totfact> 0.40435769E+01</totfact>
</mgrwt>
</event>
<event>
 8    1  0.6972317E-052  0.1321918E+04  0.7818608E-02  0.9012362E-01
          2   -1    0    0  501    0  0.00000000000E+00  0.00000000000E+00  0.39447124586E+03  0.39447124587E+03  0.25500000000E-02 0.  1.
         -2   -1    0    0    0  501 -0.00000000000E+00 -0.00000000000E+00 -0.11074744714E+04  0.11074744714E+04  0.25500000000E-02 0. -1.
     200001    2    1    2    0    0 -0.90246250547E+02  0.19295360686E+03 -0.21480158167E+03  0.68380797942E+03  0.61325211218E+03 0.  0.
    5000001    2    3    3    0    0  0.13003942415E+03  0.44302980570E+01 -0.32636036596E+03  0.35713814796E+03  0.64083452490E+02 0.  0.
        -11    1    4    4    0    0  0.26405133616E+00 -0.10727563677E+02 -0.30202788422E+02  0.32052437884E+02  0.51100000000E-03 0. -1.
     200002    1    4    4    0    0  0.12977537281E+03  0.15157861734E+02 -0.29615757754E+03  0.32508571007E+03  0.30000000000E+02 0. -1.
     200000    1    3    3    0    0 -0.22028567469E+03  0.18852330881E+03  0.11155878429E+03  0.32666983147E+03  0.10100000000E+03 0.  1.
    -200001    1    1    2    0    0  0.90246250547E+02 -0.19295360686E+03 -0.49820164387E+03  0.81813773785E+03  0.61300000000E+03 0. -1.
<mgrwt>
<rscale>  0 0.13219181E+04</rscale>
<asrwt>0</asrwt>
<pdfrwt beam="1">  1        2 0.56353035E-01 0.13219181E+04</pdfrwt>
<pdfrwt beam="2">  1       -2 0.15821064E+00 0.13219181E+04</pdfrwt>
<totfact> 0.22337056E+01</totfact>
</mgrwt>
</event>
<event>
 8    1  0.6972317E-052  0.1370432E+04  0.7818608E-02  0.8975504E-01
         -2   -1    0    0    0  501 -0.00000000000E+00  0.00000000000E+00  0.29022766549E+03  0.29022766550E+03  0.25500000000E-02 0. -1.
          2   -1    0    0  501    0  0.00000000000E+00 -0.00000000000E+00 -0.16177681127E+04  0.16177681127E+04  0.25500000000E-02 0.  1.
     200001    2    1    2    0    0 -0.13793796158E+03  0.25782829473E+03 -0.78741556885E+03  0.10402364826E+04  0.61365002316E+03 0.  0.
    5000001    2    3    3    0    0  0.15870549737E+03  0.22672763945E+03 -0.35475377890E+03  0.50510863157E+03  0.22954657187E+03 0.  0.
        -11    1    4    4    0    0  0.69094929164E+02 -0.37436937395E+02 -0.67784444340E+02  0.10378036622E+03  0.51100000000E-03 0. -1.
     200002    1    4    4    0    0  0.89610568205E+02  0.26416457685E+03 -0.28696933456E+03  0.40132826535E+03  0.30000000000E+02 0. -1.
     200000    1    3    3    0    0 -0.29664345895E+03  0.31100655277E+02 -0.43266178996E+03  0.53512785106E+03  0.10100000000E+03 0. -1.
    -200001    1    1    2    0    0  0.13793796158E+03 -0.25782829473E+03 -0.54012487833E+03  0.86775929554E+03  0.61300000000E+03 0. -1.
<mgrwt>
<rscale>  0 0.13704321E+04</rscale>
<asrwt>0</asrwt>
<pdfrwt beam="1">  1        2 0.23110973E+00 0.13704321E+04</pdfrwt>
<pdfrwt beam="2">  1       -2 0.41461096E-01 0.13704321E+04</pdfrwt>
<totfact> 0.68108570E+01</totfact>
</mgrwt>
</event>
<event>
 8    1  0.6972317E-052  0.1735533E+04  0.7818608E-02  0.8741354E-01
          2   -1    0    0  501    0  0.00000000000E+00  0.00000000000E+00  0.13241939645E+04  0.13241939645E+04  0.25500000000E-02 0.  1.
         -2   -1    0    0    0  501 -0.00000000000E+00 -0.00000000000E+00 -0.56866165853E+03  0.56866165854E+03  0.25500000000E-02 0. -1.
     200001    2    1    2    0    0 -0.23159094896E+03  0.56817323850E+03  0.39616890774E+03  0.95404454057E+03  0.61383710000E+03 0.  0.
    5000001    2    3    3    0    0 -0.19758349618E+03  0.59207973171E+03  0.49362853243E+03  0.80766351138E+03  0.13803468013E+03 0.  0.
        -11    1    4    4    0    0 -0.19025239151E+03  0.39213771190E+03  0.35879386171E+03  0.56453608633E+03  0.51100000000E-03 0. -1.
     200002    1    4    4    0    0 -0.73311046693E+01  0.19994201981E+03  0.13483467072E+03  0.24312742505E+03  0.30000000000E+02 0. -1.
     200000    1    3    3    0    0 -0.34007452779E+02 -0.23906493211E+02 -0.97459624689E+02  0.14638102919E+03  0.10100000000E+03 0. -1.
    -200001    1    1    2    0    0  0.23159094896E+03 -0.56817323850E+03  0.35936339825E+03  0.93881108248E+03  0.61300000000E+03 0. -1.
<mgrwt>
<rscale>  0 0.17355326E+04</rscale>
<asrwt>0</asrwt>
<pdfrwt beam="1">  1        2 0.18917057E+00 0.17355326E+04</pdfrwt>
<pdfrwt beam="2">  1       -2 0.81237380E-01 0.17355326E+04</pdfrwt>
<totfact> 0.23131367E+01</totfact>
</mgrwt>
</event>
<event>
 8    1  0.6972317E-052  0.1308473E+04  0.7818608E-02  0.9022873E-01
          2   -1    0    0  501    0  0.00000000000E+00  0.00000000000E+00  0.17601282692E+04  0.17601282692E+04  0.25500000000E-02 0.  1.
         -2   -1    0    0    0  501 -0.00000000000E+00 -0.00000000000E+00 -0.24317869323E+03  0.24317869324E+03  0.25500000000E-02 0. -1.
     200001    2    1    2    0    0 -0.93312754421E+02  0.17907316041E+03  0.92073506629E+03  0.11246630024E+04  0.61346502737E+03 0.  0.
    5000001    2    3    3    0    0 -0.32876130477E+02  0.26348533474E+03  0.12582662805E+03  0.31666645176E+03  0.11806752205E+03 0.  0.
        -11    1    4    4    0    0 -0.58090876141E+02  0.20702626966E+03  0.12335949029E+03  0.24789511909E+03  0.51100000000E-03 0. -1.
     200002    1    4    4    0    0  0.25214745664E+02  0.56459065083E+02  0.24671377509E+01  0.68771332673E+02  0.30000000000E+02 0. -1.
     200000    1    3    3    0    0 -0.60436623945E+02 -0.84412174335E+02  0.79490843825E+03  0.80799655067E+03  0.10100000000E+03 0.  1.
    -200001    1    1    2    0    0  0.93312754421E+02 -0.17907316041E+03  0.59621450965E+03  0.87864395999E+03  0.61300000000E+03 0. -1.
<mgrwt>
<rscale>  0 0.13084735E+04</rscale>
<asrwt>0</asrwt>
<pdfrwt beam="1">  1        2 0.25144689E+00 0.13084735E+04</pdfrwt>
<pdfrwt beam="2">  1       -2 0.34739814E-01 0.13084735E+04</pdfrwt>
<totfact> 0.81259353E+01</totfact>
</mgrwt>
</event>
<event>
 8    1  0.6972317E-052  0.1295832E+04  0.7818608E-02  0.9032877E-01
          2   -1    0    0  501    0  0.00000000000E+00  0.00000000000E+00  0.41571699142E+03  0.41571699143E+03  0.25500000000E-02 0.  1.
         -2   -1    0    0    0  501 -0.00000000000E+00 -0.00000000000E+00 -0.10098096120E+04  0.10098096120E+04  0.25500000000E-02 0. -1.
     200001    2    1    2    0    0 -0.19576541447E+03  0.21582880849E+02 -0.21788323782E+03  0.67981055965E+03  0.61309002067E+03 0.  0.
    5000001    2    3    3    0    0  0.14687568558E+03  0.39658655562E+01  0.84141590103E+02  0.21169382277E+03  0.12706798302E+03 0.  0.
        -11    1    4    4    0    0  0.26060263546E+02  0.37584674803E+02  0.67706828852E+02  0.81706546798E+02  0.51100000000E-03 0. -1.
     200002    1    4    4    0    0  0.12081542203E+03 -0.33618809247E+02  0.16434761251E+02  0.12998727597E+03  0.30000000000E+02 0. -1.
     200000    1    3    3    0    0 -0.34264110005E+03  0.17617015292E+02 -0.30202482792E+03  0.46811673689E+03  0.10100000000E+03 0. -1.
    -200001    1    1    2    0    0  0.19576541447E+03 -0.21582880849E+02 -0.37620938272E+03  0.74571604374E+03  0.61300000000E+03 0. -1.
<mgrwt>
<rscale>  0 0.12958318E+04</rscale>
<asrwt>0</asrwt>
<pdfrwt beam="1">  1        2 0.59388142E-01 0.12958318E+04</pdfrwt>
<pdfrwt beam="2">  1       -2 0.14425852E+00 0.12958318E+04</pdfrwt>
<totfact> 0.26980550E+01</totfact>
</mgrwt>
</event>
<event>
 8    1  0.6972317E-052  0.1795718E+04  0.7818608E-02  0.8708580E-01
         -2   -1    0    0    0  501 -0.00000000000E+00  0.00000000000E+00  0.10148501734E+04  0.10148501734E+04  0.25500000000E-02 0. -1.
          2   -1    0    0  501    0  0.00000000000E+00 -0.00000000000E+00 -0.79435427048E+03  0.79435427048E+03  0.25500000000E-02 0.  1.
     200001    2    1    2    0    0  0.61266304812E+02  0.65365394693E+03  0.10934918996E+03  0.90414111228E+03  0.61196148827E+03 0.  0.
    5000001    2    3    3    0    0  0.32063598951E+02  0.73571025511E+03  0.16355330508E+03  0.76017888864E+03  0.93939370218E+02 0.  0.
        -11    1    4    4    0    0  0.30680840077E+02  0.64434787647E+03  0.12805757766E+03  0.65766575330E+03  0.51100000000E-03 0. -1.
     200002    1    4    4    0    0  0.13827588744E+01  0.91362378634E+02  0.35495727423E+02  0.10251313534E+03  0.30000000000E+02 0. -1.
     200000    1    3    3    0    0  0.29202705861E+02 -0.82056308174E+02 -0.54204115121E+02  0.14396222365E+03  0.10100000000E+03 0.  1.
    -200001    1    1    2    0    0 -0.61266304812E+02 -0.65365394693E+03  0.11114671297E+03  0.90506333162E+03  0.61300000000E+03 0.  1.
<mgrwt>
<rscale>  0 0.17957178E+04</rscale>
<asrwt>0</asrwt>
<pdfrwt beam="1">  1        2 0.11347918E+00 0.17957178E+04</pdfrwt>
<pdfrwt beam="2">  1       -2 0.14497860E+00 0.17957178E+04</pdfrwt>
<totfact> 0.11908211E+01</totfact>
</mgrwt>
</event>
<event>
 8    1  0.6972317E-052  0.1623621E+04  0.7818608E-02  0.8806167E-01
          2   -1    0    0  501    0  0.00000000000E+00  0.00000000000E+00  0.22079496190E+04  0.22079496190E+04  0.25500000000E-02 0.  1.
         -2   -1    0    0    0  501 -0.00000000000E+00 -0.00000000000E+00 -0.29848324195E+03  0.29848324196E+03  0.25500000000E-02 0. -1.
     200001    2    1    2    0    0 -0.39609187262E+03 -0.13365106264E+03  0.44581475935E+03  0.86545862713E+03  0.61279397641E+03 0.  0.
    5000001    2    3    3    0    0 -0.16906145637E+03  0.13484699088E+03 -0.58217186712E+02  0.24265591576E+03  0.93419300164E+02 0.  0.
        -11    1    4    4    0    0 -0.53004135319E+02  0.55229311468E+01  0.88046675680E+01  0.54013547380E+02  0.51100000000E-03 0. -1.
     200002    1    4    4    0    0 -0.11605732106E+03  0.12932405973E+03 -0.67021854280E+02  0.18864236838E+03  0.30000000000E+02 0. -1.
     200000    1    3    3    0    0 -0.22703041624E+03 -0.26849805352E+03  0.50403194607E+03  0.62280271138E+03  0.10100000000E+03 0.  1.
    -200001    1    1    2    0    0  0.39609187262E+03  0.13365106264E+03  0.14636516177E+04  0.16409742339E+04  0.61300000000E+03 0.  1.
<mgrwt>
<rscale>  0 0.16236206E+04</rscale>
<asrwt>0</asrwt>
<pdfrwt beam="1">  1        2 0.31542136E+00 0.16236206E+04</pdfrwt>
<pdfrwt beam="2">  1       -2 0.42640465E-01 0.16236206E+04</pdfrwt>
<totfact> 0.31335223E+01</totfact>
</mgrwt>
</event>
<event>
 8    1  0.6972317E-052  0.1865464E+04  0.7818608E-02  0.8672241E-01
         -2   -1    0    0    0  501 -0.00000000000E+00  0.00000000000E+00  0.46596179016E+03  0.46596179017E+03  0.25500000000E-02 0.  1.
          2   -1    0    0  501    0  0.00000000000E+00 -0.00000000000E+00 -0.18670815989E+04  0.18670815989E+04  0.25500000000E-02 0. -1.
     200001    2    1    2    0    0  0.57283925444E+03  0.15568766819E+03 -0.23427658414E+03  0.88747236962E+03  0.61671567801E+03 0.  0.
    5000001    2    3    3    0    0  0.14359292774E+03 -0.11682089560E+03  0.14617488072E+03  0.24446564847E+03  0.64267464442E+02 0.  0.
        -11    1    4    4    0    0  0.75456963471E+02 -0.48136111596E+02  0.41005170625E+02  0.98449289454E+02  0.51100000000E-03 0. -1.
     200002    1    4    4    0    0  0.68135964265E+02 -0.68684784005E+02  0.10516971009E+03  0.14601635902E+03  0.30000000000E+02 0. -1.
     200000    1    3    3    0    0  0.42924632671E+03  0.27250856379E+03 -0.38045146485E+03  0.64300672115E+03  0.10100000000E+03 0.  1.
    -200001    1    1    2    0    0 -0.57283925444E+03 -0.15568766819E+03 -0.11668432246E+04  0.14455710194E+04  0.61300000000E+03 0. -1.
<mgrwt>
<rscale>  0 0.18654637E+04</rscale>
<asrwt>0</asrwt>
<pdfrwt beam="1">  1        2 0.26672594E+00 0.18654637E+04</pdfrwt>
<pdfrwt beam="2">  1       -2 0.66565971E-01 0.18654637E+04</pdfrwt>
<totfact> 0.18356451E+01</totfact>
</mgrwt>
</event>
<event>
 8    1  0.6972317E-052  0.2993455E+04  0.7818608E-02  0.8245602E-01
         -2   -1    0    0    0  501 -0.00000000000E+00  0.00000000000E+00  0.15247048551E+04  0.15247048551E+04  0.25500000000E-02 0. -1.
          2   -1    0    0  501    0  0.00000000000E+00 -0.00000000000E+00 -0.14692636346E+04  0.14692636346E+04  0.25500000000E-02 0.  1.
     200001    2    1    2    0    0  0.13180940227E+04 -0.22466940807E+03 -0.24929734304E+03  0.14918091148E+04  0.61277816081E+03 0.  0.
    5000001    2    3    3    0    0  0.10034462071E+04  0.86375109881E+02 -0.10747798023E+03  0.10163454762E+04  0.83914603152E+02 0.  0.
        -11    1    4    4    0    0  0.46568614071E+03  0.45902966040E+02 -0.13653761192E+02  0.46814216765E+03  0.51100000000E-03 0. -1.
     200002    1    4    4    0    0  0.53776006642E+03  0.40472143841E+02 -0.93824219040E+02  0.54820330858E+03  0.30000000000E+02 0.  1.
     200000    1    3    3    0    0  0.31464781553E+03 -0.31104451795E+03 -0.14181936281E+03  0.47546363860E+03  0.10100000000E+03 0.  1.
    -200001    1    1    2    0    0 -0.13180940227E+04  0.22466940807E+03  0.30473856346E+03  0.15021593749E+04  0.61300000000E+03 0. -1.
<mgrwt>
<rscale>  0 0.29934551E+04</rscale>
<asrwt>0</asrwt>
<pdfrwt beam="1">  1        2 0.20989480E+00 0.29934551E+04</pdfrwt>
<pdfrwt beam="2">  1       -2 0.21781498E+00 0.29934551E+04</pdfrwt>
<totfact> 0.13369675E+00</totfact>
</mgrwt>
</event>
<event>
 8    1  0.6972317E-052  0.1356338E+04  0.7818608E-02  0.8986044E-01
         -2   -1    0    0    0  501 -0.00000000000E+00  0.00000000000E+00  0.49450968127E+03  0.49450968128E+03  0.25500000000E-02 0. -1.
          2   -1    0    0  501    0  0.00000000000E+00 -0.00000000000E+00 -0.93003825248E+03  0.93003825249E+03  0.25500000000E-02 0.  1.
     200001    2    1    2    0    0 -0.18469242915E+03  0.22330315275E+03 -0.20143158714E+03  0.70722932299E+03  0.61288093426E+03 0.  0.
    5000001    2    3    3    0    0  0.11065182568E+03 -0.14824684605E+01  0.11323738509E+03  0.21026416682E+03  0.13835566569E+03 0.  0.
        -11    1    4    4    0    0  0.70555231956E+02 -0.33894862798E+02  0.12687116486E+03  0.14907446110E+03  0.51100000000E-03 0. -1.
     200002    1    4    4    0    0  0.40096593721E+02  0.32412394338E+02 -0.13633779774E+02  0.61189705716E+02  0.30000000000E+02 0. -1.
     200000    1    3    3    0    0 -0.29534425483E+03  0.22478562121E+03 -0.31466897223E+03  0.49696515617E+03  0.10100000000E+03 0.  1.
    -200001    1    1    2    0    0  0.18469242915E+03 -0.22330315275E+03 -0.23409698407E+03  0.71731861078E+03  0.61300000000E+03 0.  1.
<mgrwt>
<rscale>  0 0.13563376E+04</rscale>
<asrwt>0</asrwt>
<pdfrwt beam="1">  1        2 0.13286261E+00 0.13563376E+04</pdfrwt>
<pdfrwt beam="2">  1       -2 0.70644241E-01 0.13563376E+04</pdfrwt>
<totfact> 0.55389100E+01</totfact>
</mgrwt>
</event>
<event>
 8    1  0.6972317E-052  0.1696120E+04  0.7818608E-02  0.8763581E-01
         -2   -1    0    0    0  501 -0.00000000000E+00  0.00000000000E+00  0.21354651794E+04  0.21354651794E+04  0.25500000000E-02 0. -1.
          2   -1    0    0  501    0  0.00000000000E+00 -0.00000000000E+00 -0.33679100904E+03  0.33679100905E+03  0.25500000000E-02 0.  1.
     200001    2    1    2    0    0  0.27454279559E+03 -0.10236175422E+01  0.16540866899E+04  0.17851977238E+04  0.61282407002E+03 0.  0.
    5000001    2    3    3    0    0  0.25582205473E+03 -0.50382220581E+02  0.26173331261E+03  0.38818818009E+03  0.11917400889E+03 0.  0.
        -11    1    4    4    0    0  0.47932229590E+02  0.29973824769E+02  0.85374847800E+02  0.10239528037E+03  0.51100000000E-03 0. -1.
     200002    1    4    4    0    0  0.20788982514E+03 -0.80356045350E+02  0.17635846481E+03  0.28579289973E+03  0.30000000000E+02 0. -1.
     200000    1    3    3    0    0  0.18720740857E+02  0.49358603039E+02  0.13923533773E+04  0.13970095437E+04  0.10100000000E+03 0. -1.
    -200001    1    1    2    0    0 -0.27454279559E+03  0.10236175422E+01  0.14458748046E+03  0.68705846470E+03  0.61300000000E+03 0.  1.
<mgrwt>
<rscale>  0 0.16961197E+04</rscale>
<asrwt>0</asrwt>
<pdfrwt beam="1">  1        2 0.48113003E-01 0.16961197E+04</pdfrwt>
<pdfrwt beam="2">  1       -2 0.30506644E+00 0.16961197E+04</pdfrwt>
<totfact> 0.29673872E+00</totfact>
</mgrwt>
</event>
<event>
 8    1  0.6972317E-052  0.1294359E+04  0.7818608E-02  0.9034051E-01
         -2   -1    0    0    0  501 -0.00000000000E+00  0.00000000000E+00  0.46866067574E+03  0.46866067574E+03  0.25500000000E-02 0. -1.
          2   -1    0    0  501    0  0.00000000000E+00 -0.00000000000E+00 -0.89369820128E+03  0.89369820129E+03  0.25500000000E-02 0.  1.
     200001    2    1    2    0    0 -0.49769003186E+02  0.81059893719E+02 -0.40636404748E+03  0.74174195909E+03  0.61318980320E+03 0.  0.
    5000001    2    3    3    0    0 -0.17697378092E+03  0.28819275960E+03 -0.16433372928E+03  0.38416014393E+03  0.78731542497E+02 0.  0.
        -11    1    4    4    0    0 -0.30780763303E+01  0.48558929652E+02 -0.13356265600E+02  0.50456258620E+02  0.51100000000E-03 0. -1.
     200002    1    4    4    0    0 -0.17389570459E+03  0.23963382995E+03 -0.15097746368E+03  0.33370388531E+03  0.30000000000E+02 0.  1.
     200000    1    3    3    0    0  0.12720477773E+03 -0.20713286589E+03 -0.24203031820E+03  0.35758181517E+03  0.10100000000E+03 0.  1.
    -200001    1    1    2    0    0  0.49769003186E+02 -0.81059893719E+02 -0.18673478065E+02  0.62061691794E+03  0.61300000000E+03 0. -1.
<mgrwt>
<rscale>  0 0.12943588E+04</rscale>
<asrwt>0</asrwt>
<pdfrwt beam="1">  1        2 0.12767117E+00 0.12943588E+04</pdfrwt>
<pdfrwt beam="2">  1       -2 0.66951525E-01 0.12943588E+04</pdfrwt>
<totfact> 0.66010665E+01</totfact>
</mgrwt>
</event>
<event>
 8    1  0.6972317E-052  0.1451855E+04  0.7818608E-02  0.8917115E-01
          2   -1    0    0  501    0  0.00000000000E+00  0.00000000000E+00  0.11176406123E+04  0.11176406123E+04  0.25500000000E-02 0.  1.
         -2   -1    0    0    0  501 -0.00000000000E+00 -0.00000000000E+00 -0.47150294611E+03  0.47150294611E+03  0.25500000000E-02 0. -1.
     200001    2    1    2    0    0 -0.18248837588E+03 -0.28242598020E+02 -0.51210211426E+02  0.64248484796E+03  0.61324109649E+03 0.  0.
    5000001    2    3    3    0    0 -0.24367638016E+02 -0.26194504314E+03  0.11349848236E+03  0.30050684515E+03  0.90628202426E+02 0.  0.
        -11    1    4    4    0    0 -0.47885804751E+02 -0.19866350637E+03  0.81777763248E+02  0.22010870410E+03  0.51100000000E-03 0. -1.
     200002    1    4    4    0    0  0.23518166736E+02 -0.63281536773E+02  0.31720719112E+02  0.80398141048E+02  0.30000000000E+02 0.  1.
     200000    1    3    3    0    0 -0.15812073786E+03  0.23370244512E+03 -0.16470869379E+03  0.34197800281E+03  0.10100000000E+03 0. -1.
    -200001    1    1    2    0    0  0.18248837588E+03  0.28242598020E+02  0.69734787764E+03  0.94665871048E+03  0.61300000000E+03 0.  1.
<mgrwt>
<rscale>  0 0.14518551E+04</rscale>
<asrwt>0</asrwt>
<pdfrwt beam="1">  1        2 0.15966295E+00 0.14518551E+04</pdfrwt>
<pdfrwt beam="2">  1       -2 0.67357564E-01 0.14518551E+04</pdfrwt>
<totfact> 0.46829716E+01</totfact>
</mgrwt>
</event>
<event>
 8    1  0.6972317E-052  0.1862033E+04  0.7818608E-02  0.8673989E-01
          2   -1    0    0  501    0  0.00000000000E+00  0.00000000000E+00  0.15801903155E+04  0.15801903155E+04  0.25500000000E-02 0.  1.
         -2   -1    0    0    0  501 -0.00000000000E+00 -0.00000000000E+00 -0.54853619741E+03  0.54853619742E+03  0.25500000000E-02 0. -1.
     200001    2    1    2    0    0 -0.23990823205E+01 -0.69917196843E+03  0.46212530258E+03  0.10383232532E+04  0.61295039429E+03 0.  0.
    5000001    2    3    3    0    0 -0.15409787754E+03 -0.61718135808E+03  0.51624185422E+03  0.83128560974E+03  0.14096498957E+03 0.  0.
        -11    1    4    4    0    0 -0.14208203195E+02 -0.26199030415E+03  0.15433070347E+03  0.30439901206E+03  0.51100000000E-03 0. -1.
     200002    1    4    4    0    0 -0.13988967435E+03 -0.35519105393E+03  0.36191115075E+03  0.52688659768E+03  0.30000000000E+02 0. -1.
     200000    1    3    3    0    0  0.15169879522E+03 -0.81990610348E+02 -0.54116551636E+02  0.20703764348E+03  0.10100000000E+03 0.  1.
    -200001    1    1    2    0    0  0.23990823205E+01  0.69917196843E+03  0.56952881546E+03  0.10904032597E+04  0.61300000000E+03 0.  1.
<mgrwt>
<rscale>  0 0.18620329E+04</rscale>
<asrwt>0</asrwt>
<pdfrwt beam="1">  1        2 0.22574147E+00 0.18620329E+04</pdfrwt>
<pdfrwt beam="2">  1       -2 0.78362315E-01 0.18620329E+04</pdfrwt>
<totfact> 0.18090914E+01</totfact>
</mgrwt>
</event>
<event>
 8    1  0.6972317E-052  0.2329183E+04  0.7818608E-02  0.8466503E-01
         -2   -1    0    0    0  501 -0.00000000000E+00  0.00000000000E+00  0.10235516994E+04  0.10235516994E+04  0.25500000000E-02 0. -1.
          2   -1    0    0  501    0  0.00000000000E+00 -0.00000000000E+00 -0.13250655468E+04  0.13250655468E+04  0.25500000000E-02 0.  1.
     200001    2    1    2    0    0 -0.61499269812E+02  0.12858533936E+03 -0.11387001227E+04  0.13012556996E+04  0.61344280642E+03 0.  0.
    5000001    2    3    3    0    0 -0.10578184473E+03  0.20458838493E+03 -0.11110191278E+03  0.26496592821E+03  0.69405346817E+02 0.  0.
        -11    1    4    4    0    0 -0.26043714196E+02  0.10524194980E+03 -0.36920270515E+02  0.11453056108E+03  0.51100000000E-03 0. -1.
     200002    1    4    4    0    0 -0.79738130532E+02  0.99346435129E+02 -0.74181642265E+02  0.15043536713E+03  0.30000000000E+02 0. -1.
     200000    1    3    3    0    0  0.44282574916E+02 -0.76003045564E+02 -0.10275982099E+04  0.10362897714E+04  0.10100000000E+03 0.  1.
    -200001    1    1    2    0    0  0.61499269812E+02 -0.12858533936E+03  0.83718627530E+03  0.10473615466E+04  0.61300000000E+03 0. -1.
<mgrwt>
<rscale>  0 0.23291828E+04</rscale>
<asrwt>0</asrwt>
<pdfrwt beam="1">  1        2 0.18929508E+00 0.23291828E+04</pdfrwt>
<pdfrwt beam="2">  1       -2 0.14622167E+00 0.23291828E+04</pdfrwt>
<totfact> 0.52998445E+00</totfact>
</mgrwt>
</event>
<event>
 8    1  0.6972317E-052  0.1408696E+04  0.7818608E-02  0.8947548E-01
          2   -1    0    0  501    0  0.00000000000E+00  0.00000000000E+00  0.41602234118E+04  0.41602234118E+04  0.25500000000E-02 0.  1.
         -2   -1    0    0    0  501 -0.00000000000E+00 -0.00000000000E+00 -0.11924990376E+03  0.11924990379E+03  0.25500000000E-02 0. -1.
     200001    2    1    2    0    0  0.22128037839E+03  0.33455782235E+02  0.12161194978E+04  0.13802228134E+04  0.61317541251E+03 0.  0.
    5000001    2    3    3    0    0  0.71298750266E+02  0.26751148994E+03  0.70373802658E+03  0.78860441010E+03  0.22361528690E+03 0.  0.
        -11    1    4    4    0    0  0.48078892761E+02  0.23911217600E+03  0.32203632730E+03  0.40397228710E+03  0.51100000000E-03 0. -1.
     200002    1    4    4    0    0  0.23219857505E+02  0.28399313941E+02  0.38170169928E+03  0.38463212300E+03  0.30000000000E+02 0. -1.
     200000    1    3    3    0    0  0.14998162813E+03 -0.23405570771E+03  0.51238147120E+03  0.59161840329E+03  0.10100000000E+03 0. -1.
    -200001    1    1    2    0    0 -0.22128037839E+03 -0.33455782235E+02  0.28248540103E+04  0.28992505022E+04  0.61300000000E+03 0.  1.
<mgrwt>
<rscale>  0 0.14086962E+04</rscale>
<asrwt>0</asrwt>
<pdfrwt beam="1">  1        2 0.59431747E+00 0.14086962E+04</pdfrwt>
<pdfrwt beam="2">  1       -2 0.17035705E-01 0.14086962E+04</pdfrwt>
<totfact> 0.12393109E+01</totfact>
</mgrwt>
</event>
<event>
 8    1  0.6972317E-052  0.1555351E+04  0.7818608E-02  0.8848457E-01
         -2   -1    0    0    0  501 -0.00000000000E+00  0.00000000000E+00  0.21664558306E+03  0.21664558308E+03  0.25500000000E-02 0. -1.
          2   -1    0    0  501    0  0.00000000000E+00 -0.00000000000E+00 -0.27915602116E+04  0.27915602116E+04  0.25500000000E-02 0.  1.
     200001    2    1    2    0    0 -0.12198451514E+03  0.45041171793E+03 -0.14903557325E+04  0.16778720258E+04  0.61346832685E+03 0.  0.
    5000001    2    3    3    0    0 -0.15746035384E+03  0.52039863022E+02 -0.10741747479E+04  0.10918973831E+04  0.10433885155E+03 0.  0.
        -11    1    4    4    0    0 -0.85370176330E+02 -0.18277140957E+02 -0.38626647125E+03  0.39600998434E+03  0.51100000000E-03 0. -1.
     200002    1    4    4    0    0 -0.72090177511E+02  0.70317003979E+02 -0.68790827661E+03  0.69588739877E+03  0.30000000000E+02 0. -1.
     200000    1    3    3    0    0  0.35475838706E+02  0.39837185491E+03 -0.41618098465E+03  0.58597464271E+03  0.10100000000E+03 0. -1.
    -200001    1    1    2    0    0  0.12198451514E+03 -0.45041171793E+03 -0.10845588960E+04  0.13303337688E+04  0.61300000000E+03 0. -1.
<mgrwt>
<rscale>  0 0.15553510E+04</rscale>
<asrwt>0</asrwt>
<pdfrwt beam="1">  1        2 0.39879430E+00 0.15553510E+04</pdfrwt>
<pdfrwt beam="2">  1       -2 0.30949371E-01 0.15553510E+04</pdfrwt>
<totfact> 0.28753260E+01</totfact>
</mgrwt>
</event>
<event>
 8    1  0.6972317E-052  0.1688161E+04  0.7818608E-02  0.8768146E-01
         -2   -1    0    0    0  501 -0.00000000000E+00  0.00000000000E+00  0.26415841178E+03  0.26415841179E+03  0.25500000000E-02 0. -1.
          2   -1    0    0  501    0  0.00000000000E+00 -0.00000000000E+00 -0.26971380790E+04  0.26971380790E+04  0.25500000000E-02 0.  1.
     200001    2    1    2    0    0 -0.42788305614E+03 -0.52091709759E+02 -0.18979912074E+04  0.20405472806E+04  0.61291526733E+03 0.  0.
    5000001    2    3    3    0    0 -0.43197184015E+03 -0.83787071212E+02 -0.64712858707E+03  0.78520684506E+03  0.64454924854E+02 0.  0.
        -11    1    4    4    0    0 -0.16870576909E+03 -0.52040581158E+02 -0.22863405269E+03  0.28886569312E+03  0.51100000000E-03 0. -1.
     200002    1    4    4    0    0 -0.26326607106E+03 -0.31746490054E+02 -0.41849453438E+03  0.49634115194E+03  0.30000000000E+02 0. -1.
     200000    1    3    3    0    0  0.40887840102E+01  0.31695361453E+02 -0.12508626204E+04  0.12553404355E+04  0.10100000000E+03 0. -1.
    -200001    1    1    2    0    0  0.42788305614E+03  0.52091709759E+02 -0.53498845978E+03  0.92074921018E+03  0.61300000000E+03 0. -1.
<mgrwt>
<rscale>  0 0.16881608E+04</rscale>
<asrwt>0</asrwt>
<pdfrwt beam="1">  1        2 0.38530542E+00 0.16881608E+04</pdfrwt>
<pdfrwt beam="2">  1       -2 0.37736918E-01 0.16881608E+04</pdfrwt>
<totfact> 0.21917009E+01</totfact>
</mgrwt>
</event>
<event>
 8    1  0.6972317E-052  0.1687551E+04  0.7818608E-02  0.8768496E-01
          2   -1    0    0  501    0  0.00000000000E+00  0.00000000000E+00  0.37420891778E+04  0.37420891778E+04  0.25500000000E-02 0.  1.
         -2   -1    0    0    0  501 -0.00000000000E+00 -0.00000000000E+00 -0.19025662518E+03  0.19025662519E+03  0.25500000000E-02 0. -1.
     200001    2    1    2    0    0  0.15716256155E+03  0.26011482460E+02  0.30752965368E+04  0.31397347746E+04  0.61246142536E+03 0.  0.
    5000001    2    3    3    0    0  0.31227969480E+03 -0.77805767437E+02  0.25659420916E+04  0.25879356288E+04  0.98892145110E+02 0.  0.
        -11    1    4    4    0    0  0.28069914822E+03 -0.50633263333E+02  0.21501949073E+04  0.21690306311E+04  0.51100000000E-03 0. -1.
     200002    1    4    4    0    0  0.31580546581E+02 -0.27172504105E+02  0.41574718421E+03  0.41890499768E+03  0.30000000000E+02 0. -1.
     200000    1    3    3    0    0 -0.15511713325E+03  0.10381724990E+03  0.50935444521E+03  0.55179914576E+03  0.10100000000E+03 0. -1.
    -200001    1    1    2    0    0 -0.15716256155E+03 -0.26011482460E+02  0.47653601583E+03  0.79261102841E+03  0.61300000000E+03 0. -1.
<mgrwt>
<rscale>  0 0.16875512E+04</rscale>
<asrwt>0</asrwt>
<pdfrwt beam="1">  1        2 0.53458415E+00 0.16875512E+04</pdfrwt>
<pdfrwt beam="2">  1       -2 0.27179519E-01 0.16875512E+04</pdfrwt>
<totfact> 0.10044876E+01</totfact>
</mgrwt>
</event>
<event>
 8    1  0.6972317E-052  0.1420965E+04  0.7818608E-02  0.8938782E-01
          2   -1    0    0  501    0  0.00000000000E+00  0.00000000000E+00  0.34846914724E+04  0.34846914724E+04  0.25500000000E-02 0.  1.
         -2   -1    0    0    0  501 -0.00000000000E+00 -0.00000000000E+00 -0.14485792003E+03  0.14485792005E+03  0.25500000000E-02 0. -1.
     200001    2    1    2    0    0 -0.15541619380E+03 -0.24305983997E+02  0.24945317472E+04  0.25735905315E+04  0.61313506835E+03 0.  0.
    5000001    2    3    3    0    0 -0.21230216234E+03 -0.24086022374E+03  0.19293646253E+04  0.19573546775E+04  0.75522317803E+02 0.  0.
        -11    1    4    4    0    0 -0.44416955485E+02 -0.47109906234E+02  0.57317260004E+03  0.57681802905E+03  0.51100000000E-03 0. -1.
     200002    1    4    4    0    0 -0.16788520686E+03 -0.19375031751E+03  0.13561920253E+04  0.13805366484E+04  0.30000000000E+02 0. -1.
     200000    1    3    3    0    0  0.56885968542E+02  0.21655423974E+03  0.56516712188E+03  0.61623585406E+03  0.10100000000E+03 0. -1.
    -200001    1    1    2    0    0  0.15541619380E+03  0.24305983997E+02  0.84530180523E+03  0.10559588610E+04  0.61300000000E+03 0. -1.
<mgrwt>
<rscale>  0 0.14209647E+04</rscale>
<asrwt>0</asrwt>
<pdfrwt beam="1">  1        2 0.49781301E+00 0.14209647E+04</pdfrwt>
<pdfrwt beam="2">  1       -2 0.20693991E-01 0.14209647E+04</pdfrwt>
<totfact> 0.24352401E+01</totfact>
</mgrwt>
</event>
<event>
 8    1  0.6972317E-052  0.1352892E+04  0.7818608E-02  0.8988642E-01
          2   -1    0    0  501    0  0.00000000000E+00  0.00000000000E+00  0.33450702694E+04  0.33450702694E+04  0.25500000000E-02 0.  1.
         -2   -1    0    0    0  501 -0.00000000000E+00 -0.00000000000E+00 -0.13679204859E+03  0.13679204861E+03  0.25500000000E-02 0. -1.
     200001    2    1    2    0    0 -0.80409796365E+02  0.10571842480E+03  0.22555888567E+04  0.23412361105E+04  0.61324001344E+03 0.  0.
    5000001    2    3    3    0    0 -0.44278385750E+02  0.18176062892E+03  0.23577790560E+03  0.31714985402E+03  0.99976534547E+02 0.  0.
        -11    1    4    4    0    0 -0.24323750328E+02  0.13357331247E+03  0.21345270595E+03  0.25297338262E+03  0.51100000000E-03 0. -1.
     200002    1    4    4    0    0 -0.19954635422E+02  0.48187316450E+02  0.22325199652E+02  0.64176471397E+02  0.30000000000E+02 0. -1.
     200000    1    3    3    0    0 -0.36131410616E+02 -0.76042204121E+02  0.20198109511E+04  0.20240862565E+04  0.10100000000E+03 0.  1.
    -200001    1    1    2    0    0  0.80409796365E+02 -0.10571842480E+03  0.95268936410E+03  0.11406262075E+04  0.61300000000E+03 0. -1.
<mgrwt>
<rscale>  0 0.13528917E+04</rscale>
<asrwt>0</asrwt>
<pdfrwt beam="1">  1        2 0.47786716E+00 0.13528917E+04</pdfrwt>
<pdfrwt beam="2">  1       -2 0.19541722E-01 0.13528917E+04</pdfrwt>
<totfact> 0.32843407E+01</totfact>
</mgrwt>
</event>
<event>
 8    1  0.6972317E-052  0.1436710E+04  0.7818608E-02  0.8927667E-01
          2   -1    0    0  501    0  0.00000000000E+00  0.00000000000E+00  0.15146975169E+04  0.15146975169E+04  0.25500000000E-02 0.  1.
         -2   -1    0    0    0  501 -0.00000000000E+00 -0.00000000000E+00 -0.34068433471E+03  0.34068433472E+03  0.25500000000E-02 0. -1.
     200001    2    1    2    0    0 -0.16319432687E+03  0.78650064594E+02  0.10102137703E+04  0.11955201477E+04  0.61312179936E+03 0.  0.
    5000001    2    3    3    0    0 -0.75582563018E+02 -0.24189166537E+03  0.62233915848E+03  0.67487580046E+03  0.62665909903E+02 0.  0.
        -11    1    4    4    0    0 -0.18632313760E+02 -0.76643017683E+02  0.25587548346E+03  0.26775656540E+03  0.51100000000E-03 0. -1.
     200002    1    4    4    0    0 -0.56950249258E+02 -0.16524864769E+03  0.36646367501E+03  0.40711923506E+03  0.30000000000E+02 0. -1.
     200000    1    3    3    0    0 -0.87611763849E+02  0.32054172996E+03  0.38787461185E+03  0.52064434726E+03  0.10100000000E+03 0. -1.
    -200001    1    1    2    0    0  0.16319432687E+03 -0.78650064594E+02  0.16379941189E+03  0.65986170393E+03  0.61300000000E+03 0. -1.
<mgrwt>
<rscale>  0 0.14367097E+04</rscale>
<asrwt>0</asrwt>
<pdfrwt beam="1">  1        2 0.21638535E+00 0.14367097E+04</pdfrwt>
<pdfrwt beam="2">  1       -2 0.48669192E-01 0.14367097E+04</pdfrwt>
<totfact> 0.55772775E+01</totfact>
</mgrwt>
</event>
<event>
 8    1  0.6972317E-052  0.1324883E+04  0.7818608E-02  0.9010062E-01
          2   -1    0    0  501    0  0.00000000000E+00  0.00000000000E+00  0.40557929868E+04  0.40557929868E+04  0.25500000000E-02 0.  1.
         -2   -1    0    0    0  501 -0.00000000000E+00 -0.00000000000E+00 -0.10819808376E+03  0.10819808379E+03  0.25500000000E-02 0. -1.
     200001    2    1    2    0    0  0.19751153055E+03  0.14624167493E+03  0.18119822392E+04  0.19285922511E+04  0.61301794726E+03 0.  0.
    5000001    2    3    3    0    0  0.16226747476E+03 -0.21531105301E+03  0.83561761897E+03  0.88195411393E+03  0.83046198210E+02 0.  0.
        -11    1    4    4    0    0  0.77314460315E+02 -0.45639247767E+02  0.28268318923E+03  0.29659779531E+03  0.51100000000E-03 0. -1.
     200002    1    4    4    0    0  0.84953014445E+02 -0.16967180524E+03  0.55293442974E+03  0.58535631862E+03  0.30000000000E+02 0.  1.
     200000    1    3    3    0    0  0.35244055793E+02  0.36155272794E+03  0.97636462026E+03  0.10466381372E+04  0.10100000000E+03 0.  1.
    -200001    1    1    2    0    0 -0.19751153055E+03 -0.14624167493E+03  0.21356126638E+04  0.22353988195E+04  0.61300000000E+03 0. -1.
<mgrwt>
<rscale>  0 0.13248834E+04</rscale>
<asrwt>0</asrwt>
<pdfrwt beam="1">  1        2 0.57939889E+00 0.13248834E+04</pdfrwt>
<pdfrwt beam="2">  1       -2 0.15456872E-01 0.13248834E+04</pdfrwt>
<totfact> 0.17491057E+01</totfact>
</mgrwt>
</event>
<event>
 8    1  0.6972317E-052  0.1393101E+04  0.7818608E-02  0.8958827E-01
          2   -1    0    0  501    0  0.00000000000E+00  0.00000000000E+00  0.84139023752E+03  0.84139023752E+03  0.25500000000E-02 0.  1.
         -2   -1    0    0    0  501 -0.00000000000E+00 -0.00000000000E+00 -0.57664423843E+03  0.57664423844E+03  0.25500000000E-02 0. -1.
     200001    2    1    2    0    0  0.93420298514E+02  0.25461336548E+03  0.32868476512E+03  0.74467537127E+03  0.61069830170E+03 0.  0.
    5000001    2    3    3    0    0 -0.85064333919E+02  0.18672989227E+03  0.44713906226E+03  0.49830704851E+03  0.79199621341E+02 0.  0.
        -11    1    4    4    0    0 -0.24907958111E+02  0.12861302538E+03  0.27308808935E+03  0.30288417130E+03  0.51100000000E-03 0. -1.
     200002    1    4    4    0    0 -0.60156375807E+02  0.58116866884E+02  0.17405097291E+03  0.19542287721E+03  0.30000000000E+02 0. -1.
     200000    1    3    3    0    0  0.17848463243E+03  0.67883473216E+02 -0.11845429714E+03  0.24636832276E+03  0.10100000000E+03 0. -1.
    -200001    1    1    2    0    0 -0.93420298514E+02 -0.25461336548E+03 -0.63938766037E+02  0.67335910468E+03  0.61300000000E+03 0. -1.
<mgrwt>
<rscale>  0 0.13931013E+04</rscale>
<asrwt>0</asrwt>
<pdfrwt beam="1">  1        2 0.12019861E+00 0.13931013E+04</pdfrwt>
<pdfrwt beam="2">  1       -2 0.82377748E-01 0.13931013E+04</pdfrwt>
<totfact> 0.44915907E+01</totfact>
</mgrwt>
</event>
<event>
 8    1  0.6972317E-052  0.1436958E+04  0.7818608E-02  0.8927492E-01
         -2   -1    0    0    0  501 -0.00000000000E+00  0.00000000000E+00  0.27222130642E+03  0.27222130643E+03  0.25500000000E-02 0. -1.
          2   -1    0    0  501    0  0.00000000000E+00 -0.00000000000E+00 -0.18962968283E+04  0.18962968283E+04  0.25500000000E-02 0.  1.
     200001    2    1    2    0    0  0.33052406221E+03  0.71302041667E+02 -0.57938469971E+03  0.91094982614E+03  0.61628955747E+03 0.  0.
    5000001    2    3    3    0    0  0.27282301226E+03 -0.23406383130E+03 -0.34258090513E+03  0.50739714722E+03  0.10426847702E+03 0.  0.
        -11    1    4    4    0    0  0.22862773096E+03 -0.18056428926E+03 -0.30897435488E+03  0.42466369505E+03  0.51100000000E-03 0. -1.
     200002    1    4    4    0    0  0.44195281308E+02 -0.53499542040E+02 -0.33606550258E+02  0.82733452174E+02  0.30000000000E+02 0. -1.
     200000    1    3    3    0    0  0.57701049943E+02  0.30536587297E+03 -0.23680379458E+03  0.40355267892E+03  0.10100000000E+03 0. -1.
    -200001    1    1    2    0    0 -0.33052406221E+03 -0.71302041667E+02 -0.10446908222E+04  0.12575683086E+04  0.61300000000E+03 0. -1.
<mgrwt>
<rscale>  0 0.14369585E+04</rscale>
<asrwt>0</asrwt>
<pdfrwt beam="1">  1        2 0.27089954E+00 0.14369585E+04</pdfrwt>
<pdfrwt beam="2">  1       -2 0.38888759E-01 0.14369585E+04</pdfrwt>
<totfact> 0.55103481E+01</totfact>
</mgrwt>
</event>
<event>
 8    1  0.6972317E-052  0.1408794E+04  0.7818608E-02  0.8947478E-01
         -2   -1    0    0    0  501 -0.00000000000E+00  0.00000000000E+00  0.15903249848E+03  0.15903249850E+03  0.25500000000E-02 0. -1.
          2   -1    0    0  501    0  0.00000000000E+00 -0.00000000000E+00 -0.31199602461E+04  0.31199602461E+04  0.25500000000E-02 0.  1.
     200001    2    1    2    0    0  0.31375878339E+03  0.88662490315E+01 -0.11382221330E+04  0.13305195110E+04  0.61335907963E+03 0.  0.
    5000001    2    3    3    0    0 -0.16733880928E+03 -0.39347376849E+02 -0.21935303615E+03  0.28730291578E+03  0.69833500488E+02 0.  0.
        -11    1    4    4    0    0 -0.64635692318E+02  0.79416572993E+01 -0.53139117483E+02  0.84051225150E+02  0.51100000000E-03 0. -1.
     200002    1    4    4    0    0 -0.10270311696E+03 -0.47289034149E+02 -0.16621391867E+03  0.20325169063E+03  0.30000000000E+02 0. -1.
     200000    1    3    3    0    0  0.48109759267E+03  0.48213625881E+02 -0.91886909684E+03  0.10432165952E+04  0.10100000000E+03 0. -1.
    -200001    1    1    2    0    0 -0.31375878339E+03 -0.88662490315E+01 -0.18227056147E+04  0.19484732336E+04  0.61300000000E+03 0.  1.
<mgrwt>
<rscale>  0 0.14087939E+04</rscale>
<asrwt>0</asrwt>
<pdfrwt beam="1">  1        2 0.44570857E+00 0.14087939E+04</pdfrwt>
<pdfrwt beam="2">  1       -2 0.22718930E-01 0.14087939E+04</pdfrwt>
<totfact> 0.33742788E+01</totfact>
</mgrwt>
</event>
<event>
 8    1  0.6972317E-052  0.1363981E+04  0.7818608E-02  0.8980312E-01
          2   -1    0    0  501    0  0.00000000000E+00  0.00000000000E+00  0.96628800592E+03  0.96628800593E+03  0.25500000000E-02 0.  1.
         -2   -1    0    0    0  501 -0.00000000000E+00 -0.00000000000E+00 -0.48133758496E+03  0.48133758496E+03  0.25500000000E-02 0. -1.
     200001    2    1    2    0    0  0.45431212655E+02 -0.16222290165E+02 -0.70003238025E+02  0.61933233279E+03  0.61346958142E+03 0.  0.
    5000001    2    3    3    0    0  0.11903474786E+03 -0.28098434233E+03 -0.85747364440E+02  0.32613393208E+03  0.76741509695E+02 0.  0.
        -11    1    4    4    0    0 -0.81921370306E+01 -0.59510125384E+01 -0.21451099177E+01  0.10350224934E+02  0.51100000000E-03 0. -1.
     200002    1    4    4    0    0  0.12722688490E+03 -0.27503332979E+03 -0.83602254523E+02  0.31578370715E+03  0.30000000000E+02 0. -1.
     200000    1    3    3    0    0 -0.73603535209E+02  0.26476205217E+03  0.15744126415E+02  0.29319840071E+03  0.10100000000E+03 0. -1.
    -200001    1    1    2    0    0 -0.45431212655E+02  0.16222290165E+02  0.55495365899E+03  0.82829325810E+03  0.61300000000E+03 0.  1.
<mgrwt>
<rscale>  0 0.13639805E+04</rscale>
<asrwt>0</asrwt>
<pdfrwt beam="1">  1        2 0.13804114E+00 0.13639805E+04</pdfrwt>
<pdfrwt beam="2">  1       -2 0.68762512E-01 0.13639805E+04</pdfrwt>
<totfact> 0.55680655E+01</totfact>
</mgrwt>
</event>
<event>
 8    1  0.6972317E-052  0.1807353E+04  0.7818608E-02  0.8702399E-01
         -2   -1    0    0    0  501 -0.00000000000E+00  0.00000000000E+00  0.31999243108E+03  0.31999243109E+03  0.25500000000E-02 0. -1.
          2   -1    0    0  501    0  0.00000000000E+00 -0.00000000000E+00 -0.25520317287E+04  0.25520317287E+04  0.25500000000E-02 0.  1.
     200001    2    1    2    0    0  0.43962546168E+03 -0.33615251723E+03 -0.53306964193E+03  0.98296726485E+03  0.61301903659E+03 0.  0.
    5000001    2    3    3    0    0  0.17238941254E+03 -0.15365823765E+03 -0.54875271215E+03  0.64360576625E+03  0.24447879194E+03 0.  0.
        -11    1    4    4    0    0  0.44888240010E+02 -0.19261008515E+03 -0.35735885141E+03  0.40843475327E+03  0.51100000000E-03 0. -1.
     200002    1    4    4    0    0  0.12750117253E+03  0.38951847504E+02 -0.19139386074E+03  0.23517101299E+03  0.30000000000E+02 0. -1.
     200000    1    3    3    0    0  0.26723604913E+03 -0.18249427958E+03  0.15683070216E+02  0.33936149859E+03  0.10100000000E+03 0. -1.
    -200001    1    1    2    0    0 -0.43962546168E+03  0.33615251723E+03 -0.16989696556E+04  0.18890568949E+04  0.61300000000E+03 0. -1.
<mgrwt>
<rscale>  0 0.18073526E+04</rscale>
<asrwt>0</asrwt>
<pdfrwt beam="1">  1        2 0.36457595E+00 0.18073526E+04</pdfrwt>
<pdfrwt beam="2">  1       -2 0.45713206E-01 0.18073526E+04</pdfrwt>
<totfact> 0.17772228E+01</totfact>
</mgrwt>
</event>
<event>
 8    1  0.6972317E-052  0.1498486E+04  0.7818608E-02  0.8885460E-01
         -2   -1    0    0    0  501 -0.00000000000E+00  0.00000000000E+00  0.37791743879E+03  0.37791743880E+03  0.25500000000E-02 0. -1.
          2   -1    0    0  501    0  0.00000000000E+00 -0.00000000000E+00 -0.14854168787E+04  0.14854168787E+04  0.25500000000E-02 0.  1.
     200001    2    1    2    0    0 -0.18800127304E+03 -0.10471306246E+02 -0.71958850036E+02  0.64531648504E+03  0.61302623341E+03 0.  0.
    5000001    2    3    3    0    0 -0.32875947775E+03 -0.16530875287E+03 -0.14318160839E+03  0.40229140737E+03  0.76991074014E+02 0.  0.
        -11    1    4    4    0    0 -0.20995930968E+03 -0.84631402907E+02 -0.62405421301E+02  0.23481870174E+03  0.51100000000E-03 0. -1.
     200002    1    4    4    0    0 -0.11880016807E+03 -0.80677349960E+02 -0.80776187090E+02  0.16747270563E+03  0.30000000000E+02 0. -1.
     200000    1    3    3    0    0  0.14075820471E+03  0.15483744662E+03  0.71222758354E+02  0.24302507767E+03  0.10100000000E+03 0.  1.
    -200001    1    1    2    0    0  0.18800127304E+03  0.10471306246E+02 -0.10355405899E+04  0.12180178325E+04  0.61300000000E+03 0.  1.
<mgrwt>
<rscale>  0 0.14984858E+04</rscale>
<asrwt>0</asrwt>
<pdfrwt beam="1">  1        2 0.21220241E+00 0.14984858E+04</pdfrwt>
<pdfrwt beam="2">  1       -2 0.53988206E-01 0.14984858E+04</pdfrwt>
<totfact> 0.46532950E+01</totfact>
</mgrwt>
</event>
<event>
 8    1  0.6972317E-052  0.2031518E+04  0.7818608E-02  0.8592025E-01
          2   -1    0    0  501    0  0.00000000000E+00  0.00000000000E+00  0.56334420922E+03  0.56334420923E+03  0.25500000000E-02 0.  1.
         -2   -1    0    0    0  501 -0.00000000000E+00 -0.00000000000E+00 -0.18315032550E+04  0.18315032550E+04  0.25500000000E-02 0. -1.
     200001    2    1    2    0    0 -0.33534631165E+03 -0.62376984602E+03 -0.10966229654E+04  0.14426187120E+04  0.61402023634E+03 0.  0.
    5000001    2    3    3    0    0 -0.16063860457E+03  0.32234065163E+02 -0.51286578373E+03  0.54159853385E+03  0.58769579819E+02 0.  0.
        -11    1    4    4    0    0 -0.18544607007E+02 -0.11605000553E+02 -0.79192281492E+02  0.82158358887E+02  0.51100000000E-03 0. -1.
     200002    1    4    4    0    0 -0.14209399757E+03  0.43839065716E+02 -0.43367350224E+03  0.45944017497E+03  0.30000000000E+02 0. -1.
     200000    1    3    3    0    0 -0.17470770708E+03 -0.65600391118E+03 -0.58375718162E+03  0.90102017819E+03  0.10100000000E+03 0.  1.
    -200001    1    1    2    0    0  0.33534631165E+03  0.62376984602E+03 -0.17153608038E+03  0.95222875215E+03  0.61300000000E+03 0. -1.
<mgrwt>
<rscale>  0 0.20315184E+04</rscale>
<asrwt>0</asrwt>
<pdfrwt beam="1">  1        2 0.80477745E-01 0.20315184E+04</pdfrwt>
<pdfrwt beam="2">  1       -2 0.26164332E+00 0.20315184E+04</pdfrwt>
<totfact> 0.29636099E+00</totfact>
</mgrwt>
</event>
<event>
 8    1  0.6972317E-052  0.1665776E+04  0.7818608E-02  0.8781128E-01
          2   -1    0    0  501    0  0.00000000000E+00  0.00000000000E+00  0.18904286187E+04  0.18904286187E+04  0.25500000000E-02 0.  1.
         -2   -1    0    0    0  501 -0.00000000000E+00 -0.00000000000E+00 -0.36695512964E+03  0.36695512965E+03  0.25500000000E-02 0. -1.
     200001    2    1    2    0    0 -0.26308071593E+03 -0.48570586706E+03  0.92043267726E+03  0.12353520105E+04  0.61137273753E+03 0.  0.
    5000001    2    3    3    0    0  0.15284113716E+03 -0.10764108330E+03  0.99878944549E+02  0.23563535225E+03  0.10296212724E+03 0.  0.
        -11    1    4    4    0    0  0.66892300947E+02 -0.67153523415E+02  0.97494090889E+02  0.13597526757E+03  0.51100000000E-03 0. -1.
     200002    1    4    4    0    0  0.85948836212E+02 -0.40487559886E+02  0.23848536593E+01  0.99660084681E+02  0.30000000000E+02 0. -1.
     200000    1    3    3    0    0 -0.41592185309E+03 -0.37806478376E+03  0.82055373271E+03  0.99971665829E+03  0.10100000000E+03 0. -1.
    -200001    1    1    2    0    0  0.26308071593E+03  0.48570586706E+03  0.60304081183E+03  0.10220317378E+04  0.61300000000E+03 0.  1.
<mgrwt>
<rscale>  0 0.16657761E+04</rscale>
<asrwt>0</asrwt>
<pdfrwt beam="1">  1        2 0.27006123E+00 0.16657761E+04</pdfrwt>
<pdfrwt beam="2">  1       -2 0.52422161E-01 0.16657761E+04</pdfrwt>
<totfact> 0.30004671E+01</totfact>
</mgrwt>
</event>
<event>
 8    1  0.6972317E-052  0.1686741E+04  0.7818608E-02  0.8768963E-01
         -2   -1    0    0    0  501 -0.00000000000E+00  0.00000000000E+00  0.52074272495E+03  0.52074272496E+03  0.25500000000E-02 0. -1.
          2   -1    0    0  501    0  0.00000000000E+00 -0.00000000000E+00 -0.13658825321E+04  0.13658825321E+04  0.25500000000E-02 0.  1.
     200001    2    1    2    0    0  0.53307661045E+03  0.22600428934E+03 -0.43989252915E+03  0.95108104765E+03  0.61302619079E+03 0.  0.
    5000001    2    3    3    0    0  0.55354081352E+01 -0.15398949595E+03 -0.33698833631E+02  0.17784801985E+03  0.82163867792E+02 0.  0.
        -11    1    4    4    0    0  0.73937131239E-01 -0.89699157815E+02  0.15919559356E+02  0.91100915197E+02  0.51100000000E-03 0. -1.
     200002    1    4    4    0    0  0.54614710040E+01 -0.64290338135E+02 -0.49618392988E+02  0.86747104654E+02  0.30000000000E+02 0.  1.
     200000    1    3    3    0    0  0.52754120231E+03  0.37999378529E+03 -0.40619369552E+03  0.77323302780E+03  0.10100000000E+03 0.  1.
    -200001    1    1    2    0    0 -0.53307661045E+03 -0.22600428934E+03 -0.40524727798E+03  0.93554420939E+03  0.61300000000E+03 0.  1.
<mgrwt>
<rscale>  0 0.16867405E+04</rscale>
<asrwt>0</asrwt>
<pdfrwt beam="1">  1        2 0.19512607E+00 0.16867405E+04</pdfrwt>
<pdfrwt beam="2">  1       -2 0.74391818E-01 0.16867405E+04</pdfrwt>
<totfact> 0.26813943E+01</totfact>
</mgrwt>
</event>
<event>
 8    1  0.6972317E-052  0.2657968E+04  0.7818608E-02  0.8348773E-01
          2   -1    0    0  501    0  0.00000000000E+00  0.00000000000E+00  0.16092306804E+04  0.16092306804E+04  0.25500000000E-02 0.  1.
         -2   -1    0    0    0  501 -0.00000000000E+00 -0.00000000000E+00 -0.10975420083E+04  0.10975420083E+04  0.25500000000E-02 0. -1.
     200001    2    1    2    0    0  0.61431140462E+03  0.57854471171E+03 -0.58078570145E+03  0.11963549511E+04  0.61794874602E+03 0.  0.
    5000001    2    3    3    0    0  0.50798730932E+03  0.34635381580E+03 -0.80292991491E+02  0.62546846666E+03  0.82169131444E+02 0.  0.
        -11    1    4    4    0    0  0.22397928186E+03  0.15771686554E+03 -0.10512620411E+00  0.27393674349E+03  0.51100000000E-03 0. -1.
     200002    1    4    4    0    0  0.28400802745E+03  0.18863695026E+03 -0.80187865287E+02  0.35153172318E+03  0.30000000000E+02 0. -1.
     200000    1    3    3    0    0  0.10632409530E+03  0.23219089591E+03 -0.50049270996E+03  0.57088648443E+03  0.10100000000E+03 0. -1.
    -200001    1    1    2    0    0 -0.61431140462E+03 -0.57854471171E+03  0.10924743735E+04  0.15104177376E+04  0.61300000000E+03 0.  1.
<mgrwt>
<rscale>  0 0.26579678E+04</rscale>
<asrwt>0</asrwt>
<pdfrwt beam="1">  1        2 0.22989009E+00 0.26579678E+04</pdfrwt>
<pdfrwt beam="2">  1       -2 0.15679172E+00 0.26579678E+04</pdfrwt>
<totfact> 0.30185738E+00</totfact>
</mgrwt>
</event>
<event>
 8    1  0.6972317E-052  0.1285779E+04  0.7818608E-02  0.9040919E-01
         -2   -1    0    0    0  501 -0.00000000000E+00  0.00000000000E+00  0.20734071396E+03  0.20734071398E+03  0.25500000000E-02 0. -1.
          2   -1    0    0  501    0  0.00000000000E+00 -0.00000000000E+00 -0.19933710193E+04  0.19933710193E+04  0.25500000000E-02 0.  1.
     200001    2    1    2    0    0  0.15793141625E+03 -0.37351387523E+02 -0.71064998506E+03  0.95229301681E+03  0.61278147019E+03 0.  0.
    5000001    2    3    3    0    0 -0.14281112564E+02  0.25255183838E+03 -0.40877809479E+03  0.48858117352E+03  0.87324974056E+02 0.  0.
        -11    1    4    4    0    0 -0.22699988108E+02  0.21894904103E+03 -0.35727619214E+03  0.41964300244E+03  0.51100000000E-03 0. -1.
     200002    1    4    4    0    0  0.84188755441E+01  0.33602797352E+02 -0.51501902650E+02  0.68938171080E+02  0.30000000000E+02 0.  1.
     200000    1    3    3    0    0  0.17221252881E+03 -0.28990322591E+03 -0.30187189027E+03  0.46371184329E+03  0.10100000000E+03 0.  1.
    -200001    1    1    2    0    0 -0.15793141625E+03  0.37351387523E+02 -0.10753803203E+04  0.12484187165E+04  0.61300000000E+03 0.  1.
<mgrwt>
<rscale>  0 0.12857791E+04</rscale>
<asrwt>0</asrwt>
<pdfrwt beam="1">  1        2 0.28476728E+00 0.12857791E+04</pdfrwt>
<pdfrwt beam="2">  1       -2 0.29620103E-01 0.12857791E+04</pdfrwt>
<totfact> 0.83365353E+01</totfact>
</mgrwt>
</event>
<event>
 8    1  0.6972317E-052  0.1464978E+04  0.7818608E-02  0.8908082E-01
          2   -1    0    0  501    0  0.00000000000E+00  0.00000000000E+00  0.16644403319E+04  0.16644403319E+04  0.25500000000E-02 0.  1.
         -2   -1    0    0    0  501 -0.00000000000E+00 -0.00000000000E+00 -0.32235466950E+03  0.32235466951E+03  0.25500000000E-02 0. -1.
     200001    2    1    2    0    0  0.26127697258E+03  0.20373535051E+03  0.37242301811E+03  0.79273118688E+03  0.61640090914E+03 0.  0.
    5000001    2    3    3    0    0  0.24617227195E+03 -0.12410599255E+03  0.14148167022E+03  0.37891600547E+03  0.21807611361E+03 0.  0.
        -11    1    4    4    0    0  0.12929906652E+03 -0.16027409201E+03  0.14670650912E+03  0.25284151754E+03  0.51100000000E-03 0. -1.
     200002    1    4    4    0    0  0.11687320543E+03  0.36168099457E+02 -0.52248388933E+01  0.12607448793E+03  0.30000000000E+02 0. -1.
     200000    1    3    3    0    0  0.15104700628E+02  0.32784134306E+03  0.23094134789E+03  0.41381518141E+03  0.10100000000E+03 0.  1.
    -200001    1    1    2    0    0 -0.26127697258E+03 -0.20373535051E+03  0.96966264426E+03  0.11940638145E+04  0.61300000000E+03 0.  1.
<mgrwt>
<rscale>  0 0.14649780E+04</rscale>
<asrwt>0</asrwt>
<pdfrwt beam="1">  1        2 0.23777719E+00 0.14649780E+04</pdfrwt>
<pdfrwt beam="2">  1       -2 0.46050668E-01 0.14649780E+04</pdfrwt>
<totfact> 0.51904359E+01</totfact>
</mgrwt>
</event>
<event>
 8    1  0.6972317E-052  0.1235713E+04  0.7818608E-02  0.9082159E-01
         -2   -1    0    0    0  501 -0.00000000000E+00  0.00000000000E+00  0.18670215877E+04  0.18670215877E+04  0.25500000000E-02 0. -1.
          2   -1    0    0  501    0  0.00000000000E+00 -0.00000000000E+00 -0.20446818286E+03  0.20446818288E+03  0.25500000000E-02 0.  1.
     200001    2    1    2    0    0  0.57367740912E+02 -0.23511393815E+01  0.69859344273E+03  0.92768716782E+03  0.60767927194E+03 0.  0.
    5000001    2    3    3    0    0  0.14919213295E+03  0.12416455056E+03  0.45796606622E+01  0.20915110854E+03  0.77769433325E+02 0.  0.
        -11    1    4    4    0    0  0.76419030522E+02  0.61149816308E+02  0.34821476029E+02  0.10388312401E+03  0.51100000000E-03 0. -1.
     200002    1    4    4    0    0  0.72773102429E+02  0.63014734257E+02 -0.30241815367E+02  0.10526798453E+03  0.30000000000E+02 0. -1.
     200000    1    3    3    0    0 -0.91824392039E+02 -0.12651568995E+03  0.69401378207E+03  0.71853605928E+03  0.10100000000E+03 0. -1.
    -200001    1    1    2    0    0 -0.57367740912E+02  0.23511393815E+01  0.96395996213E+03  0.11438026028E+04  0.61300000000E+03 0. -1.
<mgrwt>
<rscale>  0 0.12357128E+04</rscale>
<asrwt>0</asrwt>
<pdfrwt beam="1">  1        2 0.29209741E-01 0.12357128E+04</pdfrwt>
<pdfrwt beam="2">  1       -2 0.26671737E+00 0.12357128E+04</pdfrwt>
<totfact> 0.92212710E+00</totfact>
</mgrwt>
</event>
<event>
 8    1  0.6972317E-052  0.1460236E+04  0.7818608E-02  0.8911335E-01
          2   -1    0    0  501    0  0.00000000000E+00  0.00000000000E+00  0.23837044500E+04  0.23837044500E+04  0.25500000000E-02 0.  1.
         -2   -1    0    0    0  501 -0.00000000000E+00 -0.00000000000E+00 -0.22363179706E+03  0.22363179708E+03  0.25500000000E-02 0. -1.
     200001    2    1    2    0    0 -0.25969619861E+03 -0.19906685103E+03  0.67671066899E+03  0.96928817020E+03  0.61197426466E+03 0.  0.
    5000001    2    3    3    0    0  0.16544410704E+03 -0.66660199369E+02  0.67197161055E+02  0.20772168115E+03  0.82568175655E+02 0.  0.
        -11    1    4    4    0    0  0.86771654898E+02  0.10818609041E+00  0.45932994474E+02  0.98179283862E+02  0.51100000000E-03 0. -1.
     200002    1    4    4    0    0  0.78672452141E+02 -0.66768385460E+02  0.21264166581E+02  0.10954239729E+03  0.30000000000E+02 0. -1.
     200000    1    3    3    0    0 -0.42514030565E+03 -0.13240665166E+03  0.60951350793E+03  0.76156648905E+03  0.10100000000E+03 0.  1.
    -200001    1    1    2    0    0  0.25969619861E+03  0.19906685103E+03  0.14833619840E+04  0.16380480769E+04  0.61300000000E+03 0. -1.
<mgrwt>
<rscale>  0 0.14602357E+04</rscale>
<asrwt>0</asrwt>
<pdfrwt beam="1">  1        2 0.34052922E+00 0.14602357E+04</pdfrwt>
<pdfrwt beam="2">  1       -2 0.31947399E-01 0.14602357E+04</pdfrwt>
<totfact> 0.44921524E+01</totfact>
</mgrwt>
</event>
<event>
 8    1  0.6972317E-052  0.1425202E+04  0.7818608E-02  0.8935776E-01
          2   -1    0    0  501    0  0.00000000000E+00  0.00000000000E+00  0.52414380817E+04  0.52414380817E+04  0.25500000000E-02 0.  1.
         -2   -1    0    0    0  501 -0.00000000000E+00 -0.00000000000E+00 -0.96881823968E+02  0.96881824001E+02  0.25500000000E-02 0. -1.
     200001    2    1    2    0    0 -0.14950518500E+03  0.27995385548E+03  0.32234270360E+04  0.32969398705E+04  0.61530861503E+03 0.  0.
    5000001    2    3    3    0    0 -0.95716490697E+02  0.41783067441E+03  0.28063511507E+04  0.28430053653E+04  0.15273705347E+03 0.  0.
        -11    1    4    4    0    0 -0.41388330748E+02  0.38012745389E+03  0.23754500521E+04  0.24060284340E+04  0.51100000000E-03 0. -1.
     200002    1    4    4    0    0 -0.54328159949E+02  0.37703220522E+02  0.43090109851E+03  0.43697693131E+03  0.30000000000E+02 0. -1.
     200000    1    3    3    0    0 -0.53788694302E+02 -0.13787681893E+03  0.41707588532E+03  0.45393450513E+03  0.10100000000E+03 0. -1.
    -200001    1    1    2    0    0  0.14950518500E+03 -0.27995385548E+03  0.19211292218E+04  0.20413800352E+04  0.61300000000E+03 0. -1.
<mgrwt>
<rscale>  0 0.14252019E+04</rscale>
<asrwt>0</asrwt>
<pdfrwt beam="1">  1        2 0.74877671E+00 0.14252019E+04</pdfrwt>
<pdfrwt beam="2">  1       -2 0.13840263E-01 0.14252019E+04</pdfrwt>
<totfact> 0.20570210E+00</totfact>
</mgrwt>
</event>
<event>
 8    1  0.6972317E-052  0.1402735E+04  0.7818608E-02  0.8951842E-01
          2   -1    0    0  501    0  0.00000000000E+00  0.00000000000E+00  0.11759888624E+04  0.11759888624E+04  0.25500000000E-02 0.  1.
         -2   -1    0    0    0  501 -0.00000000000E+00 -0.00000000000E+00 -0.41829992071E+03  0.41829992072E+03  0.25500000000E-02 0. -1.
     200001    2    1    2    0    0  0.33495527861E+03  0.30535804411E+02  0.43698842332E+03  0.82503895601E+03  0.61367982108E+03 0.  0.
    5000001    2    3    3    0    0  0.12443768550E+03 -0.94811408942E+02 -0.11583756176E+03  0.21197521489E+03  0.83911919149E+02 0.  0.
        -11    1    4    4    0    0  0.60421668183E+02 -0.26965907509E+02 -0.86148000638E+01  0.66724455294E+02  0.51100000000E-03 0. -1.
     200002    1    4    4    0    0  0.64016017313E+02 -0.67845501432E+02 -0.10722276169E+03  0.14525075959E+03  0.30000000000E+02 0. -1.
     200000    1    3    3    0    0  0.21051759311E+03  0.12534721335E+03  0.55282598508E+03  0.61306374113E+03  0.10100000000E+03 0.  1.
    -200001    1    1    2    0    0 -0.33495527861E+03 -0.30535804411E+02  0.32070051837E+03  0.76924982711E+03  0.61300000000E+03 0. -1.
<mgrwt>
<rscale>  0 0.14027345E+04</rscale>
<asrwt>0</asrwt>
<pdfrwt beam="1">  1        2 0.16799841E+00 0.14027345E+04</pdfrwt>
<pdfrwt beam="2">  1       -2 0.59757132E-01 0.14027345E+04</pdfrwt>
<totfact> 0.56144409E+01</totfact>
</mgrwt>
</event>
<event>
 8    1  0.6972317E-052  0.1429664E+04  0.7818608E-02  0.8932622E-01
          2   -1    0    0  501    0  0.00000000000E+00  0.00000000000E+00  0.25778545240E+04  0.25778545240E+04  0.25500000000E-02 0.  1.
         -2   -1    0    0    0  501 -0.00000000000E+00 -0.00000000000E+00 -0.19822104297E+03  0.19822104299E+03  0.25500000000E-02 0. -1.
     200001    2    1    2    0    0  0.32143532273E+03  0.13067246210E+03  0.14253545987E+04  0.15899840257E+04  0.61320266708E+03 0.  0.
    5000001    2    3    3    0    0  0.26798738957E+03  0.91756648470E+02  0.44092960768E+03  0.59818531373E+03  0.28839248800E+03 0.  0.
        -11    1    4    4    0    0 -0.19799355573E+02 -0.57344634434E+01 -0.30322671868E+02  0.36665555792E+02  0.51100000000E-03 0. -1.
     200002    1    4    4    0    0  0.28778674514E+03  0.97491111913E+02  0.47125227954E+03  0.56151975794E+03  0.30000000000E+02 0. -1.
     200000    1    3    3    0    0  0.53447933163E+02  0.38915813629E+02  0.98442499107E+03  0.99179871201E+03  0.10100000000E+03 0.  1.
    -200001    1    1    2    0    0 -0.32143532273E+03 -0.13067246210E+03  0.95427888232E+03  0.11860915413E+04  0.61300000000E+03 0.  1.
<mgrwt>
<rscale>  0 0.14296643E+04</rscale>
<asrwt>0</asrwt>
<pdfrwt beam="1">  1        2 0.36826493E+00 0.14296643E+04</pdfrwt>
<pdfrwt beam="2">  1       -2 0.28317292E-01 0.14296643E+04</pdfrwt>
<totfact> 0.44606886E+01</totfact>
</mgrwt>
</event>
<event>
 8    1  0.6972317E-052  0.1303546E+04  0.7818608E-02  0.9026758E-01
          2   -1    0    0  501    0  0.00000000000E+00  0.00000000000E+00  0.10015494605E+04  0.10015494605E+04  0.25500000000E-02 0.  1.
         -2   -1    0    0    0  501 -0.00000000000E+00 -0.00000000000E+00 -0.42415102356E+03  0.42415102356E+03  0.25500000000E-02 0. -1.
     200001    2    1    2    0    0 -0.13062015146E+03 -0.17783552977E+03  0.31743901565E+03  0.72424841848E+03  0.61243868541E+03 0.  0.
    5000001    2    3    3    0    0 -0.21298950778E+03  0.93911455845E+02 -0.19667002045E+02  0.27206195006E+03  0.13945257882E+03 0.  0.
        -11    1    4    4    0    0 -0.21535821712E+03  0.78415141613E+02 -0.39884872160E+02  0.23263469032E+03  0.51100000000E-03 0. -1.
     200002    1    4    4    0    0  0.23687093375E+01  0.15496314231E+02  0.20217870115E+02  0.39427259741E+02  0.30000000000E+02 0. -1.
     200000    1    3    3    0    0  0.82369356319E+02 -0.27174698562E+03  0.33710601769E+03  0.45218646841E+03  0.10100000000E+03 0. -1.
    -200001    1    1    2    0    0  0.13062015146E+03  0.17783552977E+03  0.25995942131E+03  0.70145206561E+03  0.61300000000E+03 0. -1.
<mgrwt>
<rscale>  0 0.13035463E+04</rscale>
<asrwt>0</asrwt>
<pdfrwt beam="1">  1        2 0.14307849E+00 0.13035463E+04</pdfrwt>
<pdfrwt beam="2">  1       -2 0.60593003E-01 0.13035463E+04</pdfrwt>
<totfact> 0.69723702E+01</totfact>
</mgrwt>
</event>
<event>
 8    1  0.6972317E-052  0.2150449E+04  0.7818608E-02  0.8539340E-01
         -2   -1    0    0    0  501 -0.00000000000E+00  0.00000000000E+00  0.58381578981E+03  0.58381578981E+03  0.25500000000E-02 0. -1.
          2   -1    0    0  501    0  0.00000000000E+00 -0.00000000000E+00 -0.19802611728E+04  0.19802611728E+04  0.25500000000E-02 0.  1.
     200001    2    1    2    0    0  0.80515157053E+03  0.30686955824E+03 -0.92362960683E+03  0.14057325684E+04  0.61689093526E+03 0.  0.
    5000001    2    3    3    0    0  0.35589251293E+03  0.43891041908E+03 -0.59889182657E+03  0.82700628105E+03  0.77240742037E+02 0.  0.
        -11    1    4    4    0    0  0.57792027862E+02  0.81856030947E+02 -0.14627106347E+03  0.17730073970E+03  0.51100000000E-03 0. -1.
     200002    1    4    4    0    0  0.29810048507E+03  0.35705438813E+03 -0.45262076309E+03  0.64970554135E+03  0.30000000000E+02 0. -1.
     200000    1    3    3    0    0  0.44925905760E+03 -0.13204086084E+03 -0.32473778027E+03  0.57872628738E+03  0.10100000000E+03 0.  1.
    -200001    1    1    2    0    0 -0.80515157053E+03 -0.30686955824E+03 -0.47281577612E+03  0.11583443941E+04  0.61300000000E+03 0. -1.
<mgrwt>
<rscale>  0 0.21504490E+04</rscale>
<asrwt>0</asrwt>
<pdfrwt beam="1">  1        2 0.28289445E+00 0.21504490E+04</pdfrwt>
<pdfrwt beam="2">  1       -2 0.83402257E-01 0.21504490E+04</pdfrwt>
<totfact> 0.95250628E+00</totfact>
</mgrwt>
</event>
<event>
 8    1  0.6972317E-052  0.2050798E+04  0.7818608E-02  0.8583232E-01
         -2   -1    0    0    0  501 -0.00000000000E+00  0.00000000000E+00  0.78921964158E+03  0.78921964158E+03  0.25500000000E-02 0. -1.
          2   -1    0    0  501    0  0.00000000000E+00 -0.00000000000E+00 -0.13322565213E+04  0.13322565213E+04  0.25500000000E-02 0.  1.
     200001    2    1    2    0    0  0.38506748767E+03  0.31308671767E+03  0.40528892641E+03  0.88802932682E+03  0.61484689848E+03 0.  0.
    5000001    2    3    3    0    0  0.52596815550E+03  0.21988941465E+03  0.21335810513E+03  0.61311629395E+03  0.73457835530E+02 0.  0.
        -11    1    4    4    0    0  0.37316180601E+03  0.17848706757E+03  0.15524726509E+03  0.44182471646E+03  0.51100000000E-03 0. -1.
     200002    1    4    4    0    0  0.15280634949E+03  0.41402347084E+02  0.58110840031E+02  0.17129157748E+03  0.30000000000E+02 0.  1.
     200000    1    3    3    0    0 -0.14090066783E+03  0.93197303020E+02  0.19193082128E+03  0.27491303287E+03  0.10100000000E+03 0.  1.
    -200001    1    1    2    0    0 -0.38506748767E+03 -0.31308671767E+03 -0.94832580616E+03  0.12334468361E+04  0.61300000000E+03 0.  1.
<mgrwt>
<rscale>  0 0.20507979E+04</rscale>
<asrwt>0</asrwt>
<pdfrwt beam="1">  1        2 0.19032236E+00 0.20507979E+04</pdfrwt>
<pdfrwt beam="2">  1       -2 0.11274566E+00 0.20507979E+04</pdfrwt>
<totfact> 0.10361787E+01</totfact>
</mgrwt>
</event>
<event>
 8    1  0.6972317E-052  0.1295153E+04  0.7818608E-02  0.9033418E-01
          2   -1    0    0  501    0  0.00000000000E+00  0.00000000000E+00  0.92790614789E+03  0.92790614789E+03  0.25500000000E-02 0.  1.
         -2   -1    0    0    0  501 -0.00000000000E+00 -0.00000000000E+00 -0.45193720556E+03  0.45193720557E+03  0.25500000000E-02 0. -1.
     200001    2    1    2    0    0 -0.11052668471E+03  0.16015835846E+03  0.15874675973E+03  0.66272009980E+03  0.61329483051E+03 0.  0.
    5000001    2    3    3    0    0  0.23230271108E+03  0.55259943026E+00  0.49041760090E+02  0.25622018605E+03  0.96326707430E+02 0.  0.
        -11    1    4    4    0    0  0.17008228396E+03 -0.18699141962E+02  0.32490083149E+01  0.17113794811E+03  0.51100000000E-03 0. -1.
     200002    1    4    4    0    0  0.62220427116E+02  0.19251741392E+02  0.45792751775E+02  0.85082237936E+02  0.30000000000E+02 0. -1.
     200000    1    3    3    0    0 -0.34282939579E+03  0.15960575903E+03  0.10970499964E+03  0.40649991375E+03  0.10100000000E+03 0.  1.
    -200001    1    1    2    0    0  0.11052668471E+03 -0.16015835846E+03  0.31722218260E+03  0.71712325367E+03  0.61300000000E+03 0.  1.
<mgrwt>
<rscale>  0 0.12951530E+04</rscale>
<asrwt>0</asrwt>
<pdfrwt beam="1">  1        2 0.13255802E+00 0.12951530E+04</pdfrwt>
<pdfrwt beam="2">  1       -2 0.64562459E-01 0.12951530E+04</pdfrwt>
<totfact> 0.67816336E+01</totfact>
</mgrwt>
</event>
<event>
 8    1  0.6972317E-052  0.1688646E+04  0.7818608E-02  0.8767866E-01
         -2   -1    0    0    0  501 -0.00000000000E+00  0.00000000000E+00  0.73541723576E+03  0.73541723577E+03  0.25500000000E-02 0. -1.
          2   -1    0    0  501    0  0.00000000000E+00 -0.00000000000E+00 -0.96935675305E+03  0.96935675305E+03  0.25500000000E-02 0.  1.
     200001    2    1    2    0    0  0.22140793206E+03 -0.49154332331E+03 -0.33387993890E+03  0.88234259414E+03  0.61352777343E+03 0.  0.
    5000001    2    3    3    0    0  0.88662067268E+01 -0.52843591584E+03 -0.92873004701E+02  0.54349101790E+03  0.86220442856E+02 0.  0.
        -11    1    4    4    0    0 -0.33755679017E+02 -0.23387026553E+03 -0.36883102223E+02  0.23915499199E+03  0.51100000000E-03 0. -1.
     200002    1    4    4    0    0  0.42621885744E+02 -0.29456565031E+03 -0.55989902478E+02  0.30433602591E+03  0.30000000000E+02 0. -1.
     200000    1    3    3    0    0  0.21254172533E+03  0.36892592529E+02 -0.24100693420E+03  0.33885157624E+03  0.10100000000E+03 0.  1.
    -200001    1    1    2    0    0 -0.22140793206E+03  0.49154332331E+03  0.99940421616E+02  0.82243139467E+03  0.61300000000E+03 0. -1.
<mgrwt>
<rscale>  0 0.16886464E+04</rscale>
<asrwt>0</asrwt>
<pdfrwt beam="1">  1        2 0.13847953E+00 0.16886464E+04</pdfrwt>
<pdfrwt beam="2">  1       -2 0.10505961E+00 0.16886464E+04</pdfrwt>
<totfact> 0.20578022E+01</totfact>
</mgrwt>
</event>
<event>
 8    1  0.6972317E-052  0.1699505E+04  0.7818608E-02  0.8761647E-01
          2   -1    0    0  501    0  0.00000000000E+00  0.00000000000E+00  0.15431379978E+04  0.15431379978E+04  0.25500000000E-02 0.  1.
         -2   -1    0    0    0  501 -0.00000000000E+00 -0.00000000000E+00 -0.46792920051E+03  0.46792920052E+03  0.25500000000E-02 0. -1.
     200001    2    1    2    0    0 -0.25899127971E+03 -0.48501734629E+03  0.29008018152E+03  0.87329997588E+03  0.61334168862E+03 0.  0.
    5000001    2    3    3    0    0 -0.68886263458E+02  0.15132322880E+02  0.31411889208E+03  0.32826009809E+03  0.64107013261E+02 0.  0.
        -11    1    4    4    0    0 -0.13504868894E+02 -0.17921795757E+02  0.51461512991E+02  0.56141424693E+02  0.51100000000E-03 0. -1.
     200002    1    4    4    0    0 -0.55381394564E+02  0.33054118637E+02  0.26265737909E+03  0.27211867340E+03  0.30000000000E+02 0. -1.
     200000    1    3    3    0    0 -0.19010501625E+03 -0.50014966917E+03 -0.24038710560E+02  0.54503987779E+03  0.10100000000E+03 0. -1.
    -200001    1    1    2    0    0  0.25899127971E+03  0.48501734629E+03  0.78512861580E+03  0.11377672225E+04  0.61300000000E+03 0. -1.
<mgrwt>
<rscale>  0 0.16995050E+04</rscale>
<asrwt>0</asrwt>
<pdfrwt beam="1">  1        2 0.22044829E+00 0.16995050E+04</pdfrwt>
<pdfrwt beam="2">  1       -2 0.66847028E-01 0.16995050E+04</pdfrwt>
<totfact> 0.27183914E+01</totfact>
</mgrwt>
</event>
<event>
 8    1  0.6972317E-052  0.1746028E+04  0.7818608E-02  0.8735540E-01
         -2   -1    0    0    0  501 -0.00000000000E+00  0.00000000000E+00  0.11928025067E+04  0.11928025067E+04  0.25500000000E-02 0. -1.
          2   -1    0    0  501    0  0.00000000000E+00 -0.00000000000E+00 -0.63896020386E+03  0.63896020386E+03  0.25500000000E-02 0.  1.
     200001    2    1    2    0    0 -0.86099764934E+02  0.57619942976E+03  0.50475676759E+03  0.98465153598E+03  0.61265022689E+03 0.  0.
    5000001    2    3    3    0    0  0.17830384854E+03  0.28440299303E+03  0.46173677475E+03  0.57586534359E+03  0.75780735965E+02 0.  0.
        -11    1    4    4    0    0  0.14849727194E+03  0.20246949675E+03  0.35493465981E+03  0.43476884620E+03  0.51100000000E-03 0. -1.
     200002    1    4    4    0    0  0.29806576596E+02  0.81933496276E+02  0.10680211494E+03  0.14109649739E+03  0.30000000000E+02 0.  1.
     200000    1    3    3    0    0 -0.26440361347E+03  0.29179643674E+03  0.43019992838E+02  0.40878619239E+03  0.10100000000E+03 0.  1.
    -200001    1    1    2    0    0  0.86099764934E+02 -0.57619942976E+03  0.49085535282E+02  0.84711117461E+03  0.61300000000E+03 0.  1.
<mgrwt>
<rscale>  0 0.17460279E+04</rscale>
<asrwt>0</asrwt>
<pdfrwt beam="1">  1        2 0.91280030E-01 0.17460279E+04</pdfrwt>
<pdfrwt beam="2">  1       -2 0.17040036E+00 0.17460279E+04</pdfrwt>
<totfact> 0.10123123E+01</totfact>
</mgrwt>
</event>
<event>
 8    1  0.6972317E-052  0.1641903E+04  0.7818608E-02  0.8795211E-01
          2   -1    0    0  501    0  0.00000000000E+00  0.00000000000E+00  0.17266360016E+04  0.17266360016E+04  0.25500000000E-02 0.  1.
         -2   -1    0    0    0  501 -0.00000000000E+00 -0.00000000000E+00 -0.39033217043E+03  0.39033217044E+03  0.25500000000E-02 0. -1.
     200001    2    1    2    0    0 -0.14168417363E+03  0.31539616920E+03  0.12130828619E+04  0.14024742561E+04  0.61303740553E+03 0.  0.
    5000001    2    3    3    0    0 -0.29411591808E+03  0.23592221602E+03  0.38892997288E+03  0.55454705967E+03  0.11871163509E+03 0.  0.
        -11    1    4    4    0    0 -0.46209604491E+01  0.51101164171E+01 -0.82398380508E+01  0.10740646937E+02  0.51100000000E-03 0. -1.
     200002    1    4    4    0    0 -0.28949495764E+03  0.23081209960E+03  0.39716981093E+03  0.54380641274E+03  0.30000000000E+02 0. -1.
     200000    1    3    3    0    0  0.15243174445E+03  0.79473953184E+02  0.82415288903E+03  0.84792719643E+03  0.10100000000E+03 0.  1.
    -200001    1    1    2    0    0  0.14168417363E+03 -0.31539616920E+03  0.12322096923E+03  0.71449391590E+03  0.61300000000E+03 0. -1.
<mgrwt>
<rscale>  0 0.16419033E+04</rscale>
<asrwt>0</asrwt>
<pdfrwt beam="1">  1        2 0.24666229E+00 0.16419033E+04</pdfrwt>
<pdfrwt beam="2">  1       -2 0.55761738E-01 0.16419033E+04</pdfrwt>
<totfact> 0.32147631E+01</totfact>
</mgrwt>
</event>
<event>
 8    1  0.6972317E-052  0.1249325E+04  0.7818608E-02  0.9070746E-01
          2   -1    0    0  501    0  0.00000000000E+00  0.00000000000E+00  0.24772067924E+04  0.24772067924E+04  0.25500000000E-02 0.  1.
         -2   -1    0    0    0  501 -0.00000000000E+00 -0.00000000000E+00 -0.15751732377E+03  0.15751732380E+03  0.25500000000E-02 0. -1.
     200001    2    1    2    0    0 -0.49473190065E+02 -0.82216223405E+02  0.99275073934E+03  0.11698888029E+04  0.61145619359E+03 0.  0.
    5000001    2    3    3    0    0 -0.24830423712E+03 -0.23555070351E+03  0.57543543833E+03  0.67249729860E+03  0.63147009741E+02 0.  0.
        -11    1    4    4    0    0 -0.87428828564E+02 -0.69719923144E+02  0.14566595523E+03  0.18363888003E+03  0.51100000000E-03 0. -1.
     200002    1    4    4    0    0 -0.16087540855E+03 -0.16583078036E+03  0.42976948311E+03  0.48885841857E+03  0.30000000000E+02 0. -1.
     200000    1    3    3    0    0  0.19883104705E+03  0.15333448010E+03  0.41731530101E+03  0.49739150426E+03  0.10100000000E+03 0. -1.
    -200001    1    1    2    0    0  0.49473190065E+02  0.82216223405E+02  0.13269387293E+04  0.14648353134E+04  0.61300000000E+03 0.  1.
<mgrwt>
<rscale>  0 0.12493246E+04</rscale>
<asrwt>0</asrwt>
<pdfrwt beam="1">  1        2 0.35388666E+00 0.12493246E+04</pdfrwt>
<pdfrwt beam="2">  1       -2 0.22502477E-01 0.12493246E+04</pdfrwt>
<totfact> 0.77604343E+01</totfact>
</mgrwt>
</event>
<event>
 8    1  0.6972317E-052  0.2541631E+04  0.7818608E-02  0.8388303E-01
          2   -1    0    0  501    0  0.00000000000E+00  0.00000000000E+00  0.20711562454E+04  0.20711562454E+04  0.25500000000E-02 0. -1.
         -2   -1    0    0    0  501 -0.00000000000E+00 -0.00000000000E+00 -0.77974397559E+03  0.77974397560E+03  0.25500000000E-02 0.  1.
     200001    2    1    2    0    0 -0.38589908243E+03 -0.62034545791E+03 -0.29641966735E+03  0.99867835264E+03  0.61298225413E+03 0.  0.
    5000001    2    3    3    0    0 -0.28366438575E+03 -0.17858053350E+03  0.13437005547E+03  0.36512569743E+03  0.53897796114E+02 0.  0.
        -11    1    4    4    0    0 -0.70743582347E+02 -0.65157278621E+02  0.32216176510E+02  0.10142981529E+03  0.51100000000E-03 0. -1.
     200002    1    4    4    0    0 -0.21292080341E+03 -0.11342325488E+03  0.10215387896E+03  0.26369588214E+03  0.30000000000E+02 0.  1.
     200000    1    3    3    0    0 -0.10223469668E+03 -0.44176492441E+03 -0.43078972282E+03  0.63355265522E+03  0.10100000000E+03 0.  1.
    -200001    1    1    2    0    0  0.38589908243E+03  0.62034545791E+03  0.15878319372E+04  0.18522218684E+04  0.61300000000E+03 0. -1.
<mgrwt>
<rscale>  0 0.25416307E+04</rscale>
<asrwt>0</asrwt>
<pdfrwt beam="1">  1        2 0.29587946E+00 0.25416307E+04</pdfrwt>
<pdfrwt beam="2">  1       -2 0.11139200E+00 0.25416307E+04</pdfrwt>
<totfact> 0.42018626E+00</totfact>
</mgrwt>
</event>
<event>
 8    1  0.6972317E-052  0.1264665E+04  0.7818608E-02  0.9058065E-01
         -2   -1    0    0    0  501 -0.00000000000E+00  0.00000000000E+00  0.15486290752E+03  0.15486290754E+03  0.25500000000E-02 0. -1.
          2   -1    0    0  501    0  0.00000000000E+00 -0.00000000000E+00 -0.25819260540E+04  0.25819260540E+04  0.25500000000E-02 0.  1.
     200001    2    1    2    0    0  0.11052720658E+03  0.91092101477E+02 -0.10960719132E+04  0.12644368646E+04  0.61393233443E+03 0.  0.
    5000001    2    3    3    0    0  0.10407941254E+02 -0.14679013351E+03 -0.94205840699E+02  0.22494253933E+03  0.14166416993E+03 0.  0.
        -11    1    4    4    0    0  0.14559326609E+02 -0.13809140791E+03 -0.14958236900E+02  0.13966015817E+03  0.51100000000E-03 0. -1.
     200002    1    4    4    0    0 -0.41513853556E+01 -0.86987255970E+01 -0.79247603799E+02  0.85282381153E+02  0.30000000000E+02 0. -1.
     200000    1    3    3    0    0  0.10011926533E+03  0.23788223498E+03 -0.10018660725E+04  0.10394943252E+04  0.10100000000E+03 0.  1.
    -200001    1    1    2    0    0 -0.11052720658E+03 -0.91092101477E+02 -0.13309912333E+04  0.14723520969E+04  0.61300000000E+03 0.  1.
<mgrwt>
<rscale>  0 0.12646653E+04</rscale>
<asrwt>0</asrwt>
<pdfrwt beam="1">  1        2 0.36884655E+00 0.12646653E+04</pdfrwt>
<pdfrwt beam="2">  1       -2 0.22123274E-01 0.12646653E+04</pdfrwt>
<totfact> 0.70390632E+01</totfact>
</mgrwt>
</event>
<event>
 8    1  0.6972317E-052  0.4086861E+04  0.7818608E-02  0.7987250E-01
          2   -1    0    0  501    0  0.00000000000E+00  0.00000000000E+00  0.27007601010E+04  0.27007601010E+04  0.25500000000E-02 0.  1.
         -2   -1    0    0    0  501 -0.00000000000E+00 -0.00000000000E+00 -0.15460865380E+04  0.15460865380E+04  0.25500000000E-02 0. -1.
     200001    2    1    2    0    0  0.16521142040E+04  0.90036872735E+03  0.48090345132E+02  0.19795926598E+04  0.61345678664E+03 0.  0.
    5000001    2    3    3    0    0  0.84014727795E+03  0.71263346818E+03 -0.54173127246E+02  0.11339014429E+04  0.26287610358E+03 0.  0.
        -11    1    4    4    0    0  0.18335474523E+03  0.17049558014E+03  0.96851208663E+02  0.26845458101E+03  0.51100000000E-03 0. -1.
     200002    1    4    4    0    0  0.65679253272E+03  0.54213788804E+03 -0.15102433591E+03  0.86544686187E+03  0.30000000000E+02 0. -1.
     200000    1    3    3    0    0  0.81196692607E+03  0.18773525916E+03  0.10226347238E+03  0.84569121691E+03  0.10100000000E+03 0. -1.
    -200001    1    1    2    0    0 -0.16521142040E+04 -0.90036872735E+03  0.11065832178E+04  0.22672539792E+04  0.61300000000E+03 0.  1.
<mgrwt>
<rscale>  0 0.40868613E+04</rscale>
<asrwt>0</asrwt>
<pdfrwt beam="1">  1        2 0.38582287E+00 0.40868613E+04</pdfrwt>
<pdfrwt beam="2">  1       -2 0.22086951E+00 0.40868613E+04</pdfrwt>
<totfact> 0.26640239E-01</totfact>
</mgrwt>
</event>
<event>
 8    1  0.6972317E-052  0.1796041E+04  0.7818608E-02  0.8708408E-01
          2   -1    0    0  501    0  0.00000000000E+00  0.00000000000E+00  0.28075466959E+04  0.28075466959E+04  0.25500000000E-02 0.  1.
         -2   -1    0    0    0  501 -0.00000000000E+00 -0.00000000000E+00 -0.28724024510E+03  0.28724024511E+03  0.25500000000E-02 0. -1.
     200001    2    1    2    0    0 -0.60406604432E+03 -0.22971447130E+03  0.10682909011E+04  0.13913249717E+04  0.61390162349E+03 0.  0.
    5000001    2    3    3    0    0 -0.49755197119E+03  0.11450450220E+03  0.59560239189E+03  0.78844241580E+03  0.78930277775E+02 0.  0.
        -11    1    4    4    0    0 -0.39983028374E+03  0.10443432631E+03  0.46063973935E+03  0.61883742112E+03  0.51100000000E-03 0. -1.
     200002    1    4    4    0    0 -0.97721687454E+02  0.10070175881E+02  0.13496265254E+03  0.16960499468E+03  0.30000000000E+02 0.  1.
     200000    1    3    3    0    0 -0.10651407313E+03 -0.34421897350E+03  0.47268850924E+03  0.60288255594E+03  0.10100000000E+03 0. -1.
    -200001    1    1    2    0    0  0.60406604432E+03  0.22971447130E+03  0.14520155497E+04  0.17034619693E+04  0.61300000000E+03 0.  1.
<mgrwt>
<rscale>  0 0.17960405E+04</rscale>
<asrwt>0</asrwt>
<pdfrwt beam="1">  1        2 0.40107811E+00 0.17960405E+04</pdfrwt>
<pdfrwt beam="2">  1       -2 0.41034320E-01 0.17960405E+04</pdfrwt>
<totfact> 0.16077194E+01</totfact>
</mgrwt>
</event>
<event>
 8    1  0.6972317E-052  0.1421944E+04  0.7818608E-02  0.8938086E-01
         -2   -1    0    0    0  501 -0.00000000000E+00  0.00000000000E+00  0.36144362438E+03  0.36144362439E+03  0.25500000000E-02 0. -1.
          2   -1    0    0  501    0  0.00000000000E+00 -0.00000000000E+00 -0.13985059081E+04  0.13985059081E+04  0.25500000000E-02 0.  1.
     200001    2    1    2    0    0  0.33431062880E+02 -0.29339120142E+03 -0.77404412405E+03  0.10304678087E+04  0.61279977623E+03 0.  0.
    5000001    2    3    3    0    0 -0.54097750943E+02 -0.53137681635E+02 -0.74534248296E+03  0.75404814366E+03  0.85457628000E+02 0.  0.
        -11    1    4    4    0    0 -0.56765043202E+02 -0.17528322218E+02 -0.55073720627E+03  0.55393229061E+03  0.51100000000E-03 0. -1.
     200002    1    4    4    0    0  0.26672922586E+01 -0.35609359417E+02 -0.19460527670E+03  0.20011585306E+03  0.30000000000E+02 0.  1.
     200000    1    3    3    0    0  0.87528813823E+02 -0.24025351979E+03 -0.28701641089E+02  0.27641966504E+03  0.10100000000E+03 0. -1.
    -200001    1    1    2    0    0 -0.33431062880E+02  0.29339120142E+03 -0.26301815969E+03  0.72948172380E+03  0.61300000000E+03 0. -1.
<mgrwt>
<rscale>  0 0.14219438E+04</rscale>
<asrwt>0</asrwt>
<pdfrwt beam="1">  1        2 0.19978656E+00 0.14219438E+04</pdfrwt>
<pdfrwt beam="2">  1       -2 0.51634804E-01 0.14219438E+04</pdfrwt>
<totfact> 0.57122096E+01</totfact>
</mgrwt>
</event>
<event>
 8    1  0.6972317E-052  0.2522152E+04  0.7818608E-02  0.8395136E-01
         -2   -1    0    0    0  501 -0.00000000000E+00  0.00000000000E+00  0.42010207542E+03  0.42010207543E+03  0.25500000000E-02 0. -1.
          2   -1    0    0  501    0  0.00000000000E+00 -0.00000000000E+00 -0.37855382284E+04  0.37855382284E+04  0.25500000000E-02 0.  1.
     200001    2    1    2    0    0 -0.67824418037E+03  0.71882206816E+03 -0.24963267102E+04  0.27537999003E+04  0.61241041207E+03 0.  0.
    5000001    2    3    3    0    0 -0.18360512905E+03 -0.81988138640E+02 -0.50077951672E+03  0.54509566932E+03  0.76917267630E+02 0.  0.
        -11    1    4    4    0    0 -0.15176561188E+03 -0.45995809641E+02 -0.36342513195E+03  0.39651764398E+03  0.51100000000E-03 0. -1.
     200002    1    4    4    0    0 -0.31839517177E+02 -0.35992329000E+02 -0.13735438476E+03  0.14857802534E+03  0.30000000000E+02 0.  1.
     200000    1    3    3    0    0 -0.49463905132E+03  0.80081020680E+03 -0.19955471935E+04  0.22087042310E+04  0.10100000000E+03 0. -1.
    -200001    1    1    2    0    0  0.67824418037E+03 -0.71882206816E+03 -0.86910944278E+03  0.14518404036E+04  0.61300000000E+03 0. -1.
<mgrwt>
<rscale>  0 0.25221518E+04</rscale>
<asrwt>0</asrwt>
<pdfrwt beam="1">  1        2 0.54079116E+00 0.25221518E+04</pdfrwt>
<pdfrwt beam="2">  1       -2 0.60014584E-01 0.25221518E+04</pdfrwt>
<totfact> 0.18388227E+00</totfact>
</mgrwt>
</event>
<event>
 8    1  0.6972317E-052  0.1647897E+04  0.7818608E-02  0.8791651E-01
         -2   -1    0    0    0  501 -0.00000000000E+00  0.00000000000E+00  0.62648863099E+03  0.62648863099E+03  0.25500000000E-02 0. -1.
          2   -1    0    0  501    0  0.00000000000E+00 -0.00000000000E+00 -0.10836451815E+04  0.10836451815E+04  0.25500000000E-02 0.  1.
     200001    2    1    2    0    0  0.23963036699E+03  0.41101144533E+02 -0.74153940110E+03  0.99197322974E+03  0.61238728617E+03 0.  0.
    5000001    2    3    3    0    0  0.16012163586E+03 -0.37521363573E+02  0.36556239013E+02  0.19942230880E+03  0.10670570576E+03 0.  0.
        -11    1    4    4    0    0  0.12934633185E+03 -0.25681261396E+02  0.64509226573E+02  0.14680409076E+03  0.51100000000E-03 0. -1.
     200002    1    4    4    0    0  0.30775304015E+02 -0.11840102177E+02 -0.27952987560E+02  0.52618218046E+02  0.30000000000E+02 0. -1.
     200000    1    3    3    0    0  0.79508731123E+02  0.78622508107E+02 -0.77809564012E+03  0.79255092094E+03  0.10100000000E+03 0.  1.
    -200001    1    1    2    0    0 -0.23963036699E+03 -0.41101144533E+02  0.28438285062E+03  0.71816058273E+03  0.61300000000E+03 0.  1.
<mgrwt>
<rscale>  0 0.16478973E+04</rscale>
<asrwt>0</asrwt>
<pdfrwt beam="1">  1        2 0.15480645E+00 0.16478973E+04</pdfrwt>
<pdfrwt beam="2">  1       -2 0.89498376E-01 0.16478973E+04</pdfrwt>
<totfact> 0.25622563E+01</totfact>
</mgrwt>
</event>
<event>
 8    1  0.6972317E-052  0.1298170E+04  0.7818608E-02  0.9031017E-01
         -2   -1    0    0    0  501 -0.00000000000E+00  0.00000000000E+00  0.35911499244E+03  0.35911499245E+03  0.25500000000E-02 0. -1.
          2   -1    0    0  501    0  0.00000000000E+00 -0.00000000000E+00 -0.11731941813E+04  0.11731941813E+04  0.25500000000E-02 0.  1.
     200001    2    1    2    0    0  0.27049544566E+02 -0.29675859253E+02 -0.65459960408E+03  0.89763203344E+03  0.61288685033E+03 0.  0.
    5000001    2    3    3    0    0  0.87204569704E+02  0.24706004111E+03 -0.16490852821E+03  0.32300194774E+03  0.92152778990E+02 0.  0.
        -11    1    4    4    0    0  0.80723108544E+02  0.22670883196E+03 -0.14760972834E+03  0.28231497772E+03  0.51100000000E-03 0. -1.
     200002    1    4    4    0    0  0.64814611603E+01  0.20351209150E+02 -0.17298799869E+02  0.40686970021E+02  0.30000000000E+02 0.  1.
     200000    1    3    3    0    0 -0.60155025138E+02 -0.27673590037E+03 -0.48969107588E+03  0.57463008570E+03  0.10100000000E+03 0.  1.
    -200001    1    1    2    0    0 -0.27049544566E+02  0.29675859253E+02 -0.15947958479E+03  0.63467714032E+03  0.61300000000E+03 0. -1.
<mgrwt>
<rscale>  0 0.12981704E+04</rscale>
<asrwt>0</asrwt>
<pdfrwt beam="1">  1        2 0.16759917E+00 0.12981704E+04</pdfrwt>
<pdfrwt beam="2">  1       -2 0.51302142E-01 0.12981704E+04</pdfrwt>
<totfact> 0.77959727E+01</totfact>
</mgrwt>
</event>
<event>
 8    1  0.6972317E-052  0.1789400E+04  0.7818608E-02  0.8711957E-01
         -2   -1    0    0    0  501 -0.00000000000E+00  0.00000000000E+00  0.47376168490E+03  0.47376168491E+03  0.25500000000E-02 0. -1.
          2   -1    0    0  501    0  0.00000000000E+00 -0.00000000000E+00 -0.16896431916E+04  0.16896431916E+04  0.25500000000E-02 0.  1.
     200001    2    1    2    0    0 -0.26304243904E+03  0.17266773233E+03  0.81779338067E+02  0.69415399985E+03  0.61331594211E+03 0.  0.
    5000001    2    3    3    0    0 -0.19057257305E+03  0.35686260690E+03 -0.58966041756E+02  0.43111427807E+03  0.13679802948E+03 0.  0.
        -11    1    4    4    0    0 -0.13548902873E+03  0.30134284470E+03 -0.88915103330E+02  0.34215593310E+03  0.51100000000E-03 0. -1.
     200002    1    4    4    0    0 -0.55083544318E+02  0.55519762208E+02  0.29949061574E+02  0.88958344968E+02  0.30000000000E+02 0. -1.
     200000    1    3    3    0    0 -0.72469865993E+02 -0.18419487457E+03  0.14074537982E+03  0.26303972178E+03  0.10100000000E+03 0. -1.
    -200001    1    1    2    0    0  0.26304243904E+03 -0.17266773233E+03 -0.12976608448E+04  0.14692508767E+04  0.61300000000E+03 0.  1.
<mgrwt>
<rscale>  0 0.17894001E+04</rscale>
<asrwt>0</asrwt>
<pdfrwt beam="1">  1        2 0.24137760E+00 0.17894001E+04</pdfrwt>
<pdfrwt beam="2">  1       -2 0.67680241E-01 0.17894001E+04</pdfrwt>
<totfact> 0.22016071E+01</totfact>
</mgrwt>
</event>
<event>
 8    1  0.6972317E-052  0.1421101E+04  0.7818608E-02  0.8938685E-01
          2   -1    0    0  501    0  0.00000000000E+00  0.00000000000E+00  0.47388633888E+03  0.47388633889E+03  0.25500000000E-02 0.  1.
         -2   -1    0    0    0  501 -0.00000000000E+00 -0.00000000000E+00 -0.10654071246E+04  0.10654071246E+04  0.25500000000E-02 0. -1.
     200001    2    1    2    0    0  0.30394860468E+02  0.82538503642E+02  0.81907488156E+02  0.62441036049E+03  0.61273404470E+03 0.  0.
    5000001    2    3    3    0    0  0.18063212179E+02 -0.26255202088E+02 -0.24538201137E+03  0.26481676146E+03  0.94339654314E+02 0.  0.
        -11    1    4    4    0    0 -0.18144580734E+02  0.13600074179E+02 -0.17214219497E+02  0.28469583433E+02  0.51100000000E-03 0. -1.
     200002    1    4    4    0    0  0.36207792914E+02 -0.39855276267E+02 -0.22816779187E+03  0.23634717803E+03  0.30000000000E+02 0. -1.
     200000    1    3    3    0    0  0.12331648289E+02  0.10879370573E+03  0.32728949953E+03  0.35959359902E+03  0.10100000000E+03 0.  1.
    -200001    1    1    2    0    0 -0.30394860468E+02 -0.82538503642E+02 -0.67342827388E+03  0.91488310302E+03  0.61300000000E+03 0. -1.
<mgrwt>
<rscale>  0 0.14211008E+04</rscale>
<asrwt>0</asrwt>
<pdfrwt beam="1">  1        2 0.67698049E-01 0.14211008E+04</pdfrwt>
<pdfrwt beam="2">  1       -2 0.15220102E+00 0.14211008E+04</pdfrwt>
<totfact> 0.20016713E+01</totfact>
</mgrwt>
</event>
<event>
 8    1  0.6972317E-052  0.1471039E+04  0.7818608E-02  0.8903943E-01
          2   -1    0    0  501    0  0.00000000000E+00  0.00000000000E+00  0.22494793657E+04  0.22494793657E+04  0.25500000000E-02 0.  1.
         -2   -1    0    0    0  501 -0.00000000000E+00 -0.00000000000E+00 -0.24049526530E+03  0.24049526532E+03  0.25500000000E-02 0. -1.
     200001    2    1    2    0    0  0.28243965272E+03  0.22221501214E+03  0.13233923068E+04  0.15025756354E+04  0.61417804696E+03 0.  0.
    5000001    2    3    3    0    0  0.15192752633E+03 -0.16687172598E+03  0.77591875239E+03  0.81094697948E+03  0.68241827610E+02 0.  0.
        -11    1    4    4    0    0  0.67847919097E+02 -0.34934102286E+02  0.26503152773E+03  0.27579964162E+03  0.51100000000E-03 0. -1.
     200002    1    4    4    0    0  0.84079607228E+02 -0.13193762370E+03  0.51088722466E+03  0.53514733786E+03  0.30000000000E+02 0. -1.
     200000    1    3    3    0    0  0.13051212639E+03  0.38908673812E+03  0.54747355445E+03  0.69162865596E+03  0.10100000000E+03 0.  1.
    -200001    1    1    2    0    0 -0.28243965272E+03 -0.22221501214E+03  0.68559179351E+03  0.98739899553E+03  0.61300000000E+03 0. -1.
<mgrwt>
<rscale>  0 0.14710393E+04</rscale>
<asrwt>0</asrwt>
<pdfrwt beam="1">  1        2 0.32135420E+00 0.14710393E+04</pdfrwt>
<pdfrwt beam="2">  1       -2 0.34356465E-01 0.14710393E+04</pdfrwt>
<totfact> 0.45908911E+01</totfact>
</mgrwt>
</event>
<event>
 8    1  0.6972317E-052  0.2085921E+04  0.7818608E-02  0.8567471E-01
          2   -1    0    0  501    0  0.00000000000E+00  0.00000000000E+00  0.23590746089E+04  0.23590746089E+04  0.25500000000E-02 0.  1.
         -2   -1    0    0    0  501 -0.00000000000E+00 -0.00000000000E+00 -0.46109871597E+03  0.46109871598E+03  0.25500000000E-02 0. -1.
     200001    2    1    2    0    0  0.31038893284E+03  0.56655554279E+03  0.21463034823E+03  0.91577113639E+03  0.61257172246E+03 0.  0.
    5000001    2    3    3    0    0 -0.16518477335E+03  0.10742922357E+03  0.10846253027E+03  0.23868921181E+03  0.79883489774E+02 0.  0.
        -11    1    4    4    0    0 -0.55561042668E+02  0.76934503801E+02  0.50958892063E+02  0.10771608987E+03  0.51100000000E-03 0. -1.
     200002    1    4    4    0    0 -0.10962373068E+03  0.30494719769E+02  0.57503638206E+02  0.13097312193E+03  0.30000000000E+02 0. -1.
     200000    1    3    3    0    0  0.47557370619E+03  0.45912631922E+03  0.10616781796E+03  0.67708192458E+03  0.10100000000E+03 0. -1.
    -200001    1    1    2    0    0 -0.31038893284E+03 -0.56655554279E+03  0.16833455447E+04  0.19044021885E+04  0.61300000000E+03 0.  1.
<mgrwt>
<rscale>  0 0.20859207E+04</rscale>
<asrwt>0</asrwt>
<pdfrwt beam="1">  1        2 0.33701066E+00 0.20859207E+04</pdfrwt>
<pdfrwt beam="2">  1       -2 0.65871245E-01 0.20859207E+04</pdfrwt>
<totfact> 0.10271427E+01</totfact>
</mgrwt>
</event>
<event>
 8    1  0.6972317E-052  0.1349595E+04  0.7818608E-02  0.8991135E-01
         -2   -1    0    0    0  501 -0.00000000000E+00  0.00000000000E+00  0.55185409346E+03  0.55185409346E+03  0.25500000000E-02 0. -1.
          2   -1    0    0  501    0  0.00000000000E+00 -0.00000000000E+00 -0.82513017403E+03  0.82513017403E+03  0.25500000000E-02 0.  1.
     200001    2    1    2    0    0 -0.10448067785E+03 -0.23603193247E+03 -0.25322672555E+03  0.71155338316E+03  0.61282718393E+03 0.  0.
    5000001    2    3    3    0    0  0.11519897190E+03 -0.34093744746E+03 -0.27340815848E+02  0.36443703409E+03  0.50573564246E+02 0.  0.
        -11    1    4    4    0    0  0.31134795996E+01 -0.30647678237E+02  0.63516946878E+01  0.31453425286E+02  0.51100000000E-03 0. -1.
     200002    1    4    4    0    0  0.11208549230E+03 -0.31028976922E+03 -0.33692510536E+02  0.33298360881E+03  0.30000000000E+02 0. -1.
     200000    1    3    3    0    0 -0.21967964975E+03  0.10490551499E+03 -0.22588590970E+03  0.34711634907E+03  0.10100000000E+03 0. -1.
    -200001    1    1    2    0    0  0.10448067785E+03  0.23603193247E+03 -0.20049355027E+02  0.66543088434E+03  0.61300000000E+03 0. -1.
<mgrwt>
<rscale>  0 0.13495947E+04</rscale>
<asrwt>0</asrwt>
<pdfrwt beam="1">  1        2 0.11787574E+00 0.13495947E+04</pdfrwt>
<pdfrwt beam="2">  1       -2 0.78836300E-01 0.13495947E+04</pdfrwt>
<totfact> 0.51033039E+01</totfact>
</mgrwt>
</event>
<event>
 8    1  0.6972317E-052  0.1345714E+04  0.7818608E-02  0.8994079E-01
         -2   -1    0    0    0  501 -0.00000000000E+00  0.00000000000E+00  0.17025382558E+04  0.17025382558E+04  0.25500000000E-02 0. -1.
          2   -1    0    0  501    0  0.00000000000E+00 -0.00000000000E+00 -0.26591844382E+03  0.26591844383E+03  0.25500000000E-02 0.  1.
     200001    2    1    2    0    0  0.46434506518E+02 -0.22110497970E+03  0.48415425521E+03  0.81346613159E+03  0.61341521742E+03 0.  0.
    5000001    2    3    3    0    0 -0.10644621032E+03 -0.23326503729E+03  0.55661635548E+03  0.61605251363E+03  0.62893235375E+02 0.  0.
        -11    1    4    4    0    0 -0.77629848147E+02 -0.12612307645E+03  0.33934503718E+03  0.37025461238E+03  0.51100000000E-03 0. -1.
     200002    1    4    4    0    0 -0.28816362170E+02 -0.10714196084E+03  0.21727131830E+03  0.24579790125E+03  0.30000000000E+02 0. -1.
     200000    1    3    3    0    0  0.15288071684E+03  0.12160057586E+02 -0.72462100267E+02  0.19741361796E+03  0.10100000000E+03 0.  1.
    -200001    1    1    2    0    0 -0.46434506518E+02  0.22110497970E+03  0.95246555681E+03  0.11549905681E+04  0.61300000000E+03 0. -1.
<mgrwt>
<rscale>  0 0.13457137E+04</rscale>
<asrwt>0</asrwt>
<pdfrwt beam="1">  1        2 0.37988350E-01 0.13457137E+04</pdfrwt>
<pdfrwt beam="2">  1       -2 0.24321974E+00 0.13457137E+04</pdfrwt>
<totfact> 0.94593025E+00</totfact>
</mgrwt>
</event>
<event>
 8    1  0.6972317E-052  0.1693467E+04  0.7818608E-02  0.8765099E-01
         -2   -1    0    0    0  501 -0.00000000000E+00  0.00000000000E+00  0.13772072701E+03  0.13772072703E+03  0.25500000000E-02 0. -1.
          2   -1    0    0  501    0  0.00000000000E+00 -0.00000000000E+00 -0.52058790208E+04  0.52058790208E+04  0.25500000000E-02 0.  1.
     200001    2    1    2    0    0  0.49187138368E+03  0.26073162813E+03 -0.30980554485E+04  0.32065474178E+04  0.61162107637E+03 0.  0.
    5000001    2    3    3    0    0 -0.10680052799E+03 -0.45103160588E+02 -0.34874663044E+03  0.37443814157E+03  0.71687249552E+02 0.  0.
        -11    1    4    4    0    0  0.23449728303E+01 -0.20284730179E+02 -0.53439239989E+02  0.57207705310E+02  0.51100000000E-03 0. -1.
     200002    1    4    4    0    0 -0.10914550082E+03 -0.24818430409E+02 -0.29530739045E+03  0.31723043626E+03  0.30000000000E+02 0. -1.
     200000    1    3    3    0    0  0.59867191167E+03  0.30583478871E+03 -0.27493088180E+04  0.28321092763E+04  0.10100000000E+03 0.  1.
    -200001    1    1    2    0    0 -0.49187138368E+03 -0.26073162813E+03 -0.19701028453E+04  0.21370523300E+04  0.61300000000E+03 0. -1.
<mgrwt>
<rscale>  0 0.16934668E+04</rscale>
<asrwt>0</asrwt>
<pdfrwt beam="1">  1        2 0.74369688E+00 0.16934668E+04</pdfrwt>
<pdfrwt beam="2">  1       -2 0.19674393E-01 0.16934668E+04</pdfrwt>
<totfact> 0.11827260E+00</totfact>
</mgrwt>
</event>
<event>
 8    1  0.6972317E-052  0.1336271E+04  0.7818608E-02  0.9001286E-01
          2   -1    0    0  501    0  0.00000000000E+00  0.00000000000E+00  0.28497384540E+04  0.28497384540E+04  0.25500000000E-02 0.  1.
         -2   -1    0    0    0  501 -0.00000000000E+00 -0.00000000000E+00 -0.15664775990E+03  0.15664775992E+03  0.25500000000E-02 0. -1.
     200001    2    1    2    0    0  0.12362883834E+03  0.23396960973E+03  0.12935478647E+04  0.14557363504E+04  0.61308757581E+03 0.  0.
    5000001    2    3    3    0    0  0.26367802146E+03  0.13243979170E+03  0.11931847937E+04  0.12316921055E+04  0.79429801299E+02 0.  0.
        -11    1    4    4    0    0  0.10571664858E+03  0.91079229273E+02  0.53894170857E+03  0.55671321255E+03  0.51100000000E-03 0. -1.
     200002    1    4    4    0    0  0.15796137288E+03  0.41360562430E+02  0.65424308518E+03  0.67497889297E+03  0.30000000000E+02 0. -1.
     200000    1    3    3    0    0 -0.14004918312E+03  0.10152981802E+03  0.10036307092E+03  0.22404424484E+03  0.10100000000E+03 0.  1.
    -200001    1    1    2    0    0 -0.12362883834E+03 -0.23396960973E+03  0.13995428294E+04  0.15506498636E+04  0.61300000000E+03 0.  1.
<mgrwt>
<rscale>  0 0.13362711E+04</rscale>
<asrwt>0</asrwt>
<pdfrwt beam="1">  1        2 0.40710548E+00 0.13362711E+04</pdfrwt>
<pdfrwt beam="2">  1       -2 0.22378252E-01 0.13362711E+04</pdfrwt>
<totfact> 0.49274540E+01</totfact>
</mgrwt>
</event>
<event>
 8    1  0.6972317E-052  0.1328248E+04  0.7818608E-02  0.9007459E-01
         -2   -1    0    0    0  501 -0.00000000000E+00  0.00000000000E+00  0.82379189718E+03  0.82379189718E+03  0.25500000000E-02 0. -1.
          2   -1    0    0  501    0  0.00000000000E+00 -0.00000000000E+00 -0.53540298387E+03  0.53540298388E+03  0.25500000000E-02 0.  1.
     200001    2    1    2    0    0  0.79620133820E+02 -0.12182696801E+03 -0.71900541071E+02  0.63341346301E+03  0.61225954584E+03 0.  0.
    5000001    2    3    3    0    0 -0.20396110515E+03  0.19699571726E+02  0.11800426457E+03  0.25038224268E+03  0.82328946630E+02 0.  0.
        -11    1    4    4    0    0 -0.19855801571E+02  0.48216074824E+01  0.45179072901E+02  0.49584769670E+02  0.51100000000E-03 0. -1.
     200002    1    4    4    0    0 -0.18410530358E+03  0.14877964243E+02  0.72825191665E+02  0.20079747301E+03  0.30000000000E+02 0.  1.
     200000    1    3    3    0    0  0.28358123897E+03 -0.14152653973E+03 -0.18990480564E+03  0.38303122033E+03  0.10100000000E+03 0.  1.
    -200001    1    1    2    0    0 -0.79620133820E+02  0.12182696801E+03  0.36028945438E+03  0.72578141804E+03  0.61300000000E+03 0. -1.
<mgrwt>
<rscale>  0 0.13282479E+04</rscale>
<asrwt>0</asrwt>
<pdfrwt beam="1">  1        2 0.76486141E-01 0.13282479E+04</pdfrwt>
<pdfrwt beam="2">  1       -2 0.11768456E+00 0.13282479E+04</pdfrwt>
<totfact> 0.33861748E+01</totfact>
</mgrwt>
</event>
<event>
 8    1  0.6972317E-052  0.1287770E+04  0.7818608E-02  0.9039320E-01
         -2   -1    0    0    0  501 -0.00000000000E+00  0.00000000000E+00  0.29828130444E+03  0.29828130445E+03  0.25500000000E-02 0. -1.
          2   -1    0    0  501    0  0.00000000000E+00 -0.00000000000E+00 -0.13899230002E+04  0.13899230002E+04  0.25500000000E-02 0.  1.
     200001    2    1    2    0    0  0.28501087956E+00 -0.11117138378E+03 -0.34637449785E+03  0.71683858872E+03  0.61767557157E+03 0.  0.
    5000001    2    3    3    0    0  0.15680061507E+03 -0.21221788864E+03 -0.14557885796E+02  0.32312448619E+03  0.18594256208E+03 0.  0.
        -11    1    4    4    0    0 -0.10858570653E+02 -0.19181580989E+00 -0.47907388386E+02  0.49122939775E+02  0.51100000000E-03 0. -1.
     200002    1    4    4    0    0  0.16765918572E+03 -0.21202607283E+03  0.33349502590E+02  0.27400154642E+03  0.30000000000E+02 0. -1.
     200000    1    3    3    0    0 -0.15651560419E+03  0.10104650486E+03 -0.33181661205E+03  0.39371410253E+03  0.10100000000E+03 0.  1.
    -200001    1    1    2    0    0 -0.28501087956E+00  0.11117138378E+03 -0.74526719793E+03  0.97136571595E+03  0.61300000000E+03 0.  1.
<mgrwt>
<rscale>  0 0.12877702E+04</rscale>
<asrwt>0</asrwt>
<pdfrwt beam="1">  1        2 0.19856043E+00 0.12877702E+04</pdfrwt>
<pdfrwt beam="2">  1       -2 0.42611616E-01 0.12877702E+04</pdfrwt>
<totfact> 0.85807041E+01</totfact>
</mgrwt>
</event>
<event>
 8    1  0.6972317E-052  0.1582731E+04  0.7818608E-02  0.8831228E-01
          2   -1    0    0  501    0  0.00000000000E+00  0.00000000000E+00  0.38182991296E+04  0.38182991297E+04  0.25500000000E-02 0.  1.
         -2   -1    0    0    0  501 -0.00000000000E+00 -0.00000000000E+00 -0.16401523520E+03  0.16401523522E+03  0.25500000000E-02 0. -1.
     200001    2    1    2    0    0  0.88235222479E+02 -0.47013033577E+03  0.14574646094E+04  0.16519513120E+04  0.61313298918E+03 0.  0.
    5000001    2    3    3    0    0  0.13843107974E+03 -0.46121940521E+03  0.14140554455E+04  0.15307721707E+04  0.33440115451E+03 0.  0.
        -11    1    4    4    0    0  0.12592708500E+03 -0.11006065257E+02  0.42871129112E+03  0.44695876247E+03  0.51100000000E-03 0. -1.
     200002    1    4    4    0    0  0.12503994733E+02 -0.45021333995E+03  0.98534415439E+03  0.10838134083E+04  0.30000000000E+02 0. -1.
     200000    1    3    3    0    0 -0.50195857257E+02 -0.89109305590E+01  0.43409163926E+02  0.12117914128E+03  0.10100000000E+03 0. -1.
    -200001    1    1    2    0    0 -0.88235222479E+02  0.47013033577E+03  0.21968192850E+04  0.23303630529E+04  0.61300000000E+03 0. -1.
<mgrwt>
<rscale>  0 0.15827308E+04</rscale>
<asrwt>0</asrwt>
<pdfrwt beam="1">  1        2 0.54547124E+00 0.15827308E+04</pdfrwt>
<pdfrwt beam="2">  1       -2 0.23430751E-01 0.15827308E+04</pdfrwt>
<totfact> 0.11862645E+01</totfact>
</mgrwt>
</event>
<event>
 8    1  0.6972317E-052  0.1514621E+04  0.7818608E-02  0.8874788E-01
          2   -1    0    0  501    0  0.00000000000E+00  0.00000000000E+00  0.16742418356E+04  0.16742418356E+04  0.25500000000E-02 0.  1.
         -2   -1    0    0    0  501 -0.00000000000E+00 -0.00000000000E+00 -0.34255470766E+03  0.34255470767E+03  0.25500000000E-02 0. -1.
     200001    2    1    2    0    0 -0.11981973247E+03  0.42237228576E+03  0.79666949882E+03  0.10922599136E+04  0.60464395519E+03 0.  0.
    5000001    2    3    3    0    0 -0.24684914379E+03  0.27242774425E+03  0.78574776390E+03  0.87103577129E+03  0.78437177185E+02 0.  0.
        -11    1    4    4    0    0 -0.16855428469E+03  0.20472253139E+03  0.60557430085E+03  0.66109159395E+03  0.51100000000E-03 0. -1.
     200002    1    4    4    0    0 -0.78294859095E+02  0.67705212861E+02  0.18017346305E+03  0.20994417734E+03  0.30000000000E+02 0.  1.
     200000    1    3    3    0    0  0.12702941131E+03  0.14994454152E+03  0.10921734920E+02  0.22122414236E+03  0.10100000000E+03 0. -1.
    -200001    1    1    2    0    0  0.11981973247E+03 -0.42237228576E+03  0.53501762915E+03  0.92453662966E+03  0.61300000000E+03 0. -1.
<mgrwt>
<rscale>  0 0.15146213E+04</rscale>
<asrwt>0</asrwt>
<pdfrwt beam="1">  1        2 0.23917741E+00 0.15146213E+04</pdfrwt>
<pdfrwt beam="2">  1       -2 0.48936386E-01 0.15146213E+04</pdfrwt>
<totfact> 0.45206817E+01</totfact>
</mgrwt>
</event>
<event>
 8    1  0.6972317E-052  0.1764253E+04  0.7818608E-02  0.8725543E-01
         -2   -1    0    0    0  501 -0.00000000000E+00  0.00000000000E+00  0.35642600945E+03  0.35642600946E+03  0.25500000000E-02 0. -1.
          2   -1    0    0  501    0  0.00000000000E+00 -0.00000000000E+00 -0.21831953225E+04  0.21831953225E+04  0.25500000000E-02 0.  1.
     200001    2    1    2    0    0  0.82205849989E+02  0.32549669323E+03 -0.13697123182E+03  0.71099002565E+03  0.61158793247E+03 0.  0.
    5000001    2    3    3    0    0 -0.11255360206E+03 -0.30347692444E+02 -0.22670993438E+03  0.28342657338E+03  0.12387062758E+03 0.  0.
        -11    1    4    4    0    0 -0.56920803149E+02 -0.73233241072E+02 -0.10921401826E+03  0.14328568391E+03  0.51100000000E-03 0. -1.
     200002    1    4    4    0    0 -0.55632798913E+02  0.42885548628E+02 -0.11749591612E+03  0.14014088947E+03  0.30000000000E+02 0. -1.
     200000    1    3    3    0    0  0.19475945205E+03  0.35584438568E+03  0.89738702559E+02  0.42756345227E+03  0.10100000000E+03 0. -1.
    -200001    1    1    2    0    0 -0.82205849989E+02 -0.32549669323E+03 -0.16897980812E+04  0.18286313063E+04  0.61300000000E+03 0.  1.
<mgrwt>
<rscale>  0 0.17642535E+04</rscale>
<asrwt>0</asrwt>
<pdfrwt beam="1">  1        2 0.31188504E+00 0.17642535E+04</pdfrwt>
<pdfrwt beam="2">  1       -2 0.50918002E-01 0.17642535E+04</pdfrwt>
<totfact> 0.22332462E+01</totfact>
</mgrwt>
</event>
<event>
 8    1  0.6972317E-052  0.1448165E+04  0.7818608E-02  0.8919673E-01
          2   -1    0    0  501    0  0.00000000000E+00  0.00000000000E+00  0.16834185187E+04  0.16834185187E+04  0.25500000000E-02 0.  1.
         -2   -1    0    0    0  501 -0.00000000000E+00 -0.00000000000E+00 -0.31144708265E+03  0.31144708266E+03  0.25500000000E-02 0. -1.
     200001    2    1    2    0    0 -0.17406586859E+03 -0.27582150693E+03  0.40474667995E+03  0.80420647336E+03  0.61363812347E+03 0.  0.
    5000001    2    3    3    0    0  0.23202242784E+02 -0.41810628349E+03  0.22932327185E+03  0.48776684640E+03  0.99880553998E+02 0.  0.
        -11    1    4    4    0    0  0.14195886817E+02 -0.22162555153E+03  0.69923949292E+02  0.23282776247E+03  0.51100000000E-03 0. -1.
     200002    1    4    4    0    0  0.90063559664E+01 -0.19648073196E+03  0.15939932256E+03  0.25493908392E+03  0.30000000000E+02 0. -1.
     200000    1    3    3    0    0 -0.19726811137E+03  0.14228477656E+03  0.17542340810E+03  0.31643962697E+03  0.10100000000E+03 0.  1.
    -200001    1    1    2    0    0  0.17406586859E+03  0.27582150693E+03  0.96722475612E+03  0.11906591280E+04  0.61300000000E+03 0. -1.
<mgrwt>
<rscale>  0 0.14481654E+04</rscale>
<asrwt>0</asrwt>
<pdfrwt beam="1">  1        2 0.24048835E+00 0.14481654E+04</pdfrwt>
<pdfrwt beam="2">  1       -2 0.44492442E-01 0.14481654E+04</pdfrwt>
<totfact> 0.54419639E+01</totfact>
</mgrwt>
</event>
<event>
 8    1  0.6972317E-052  0.1403158E+04  0.7818608E-02  0.8951536E-01
          2   -1    0    0  501    0  0.00000000000E+00  0.00000000000E+00  0.15676138062E+04  0.15676138062E+04  0.25500000000E-02 0.  1.
         -2   -1    0    0    0  501 -0.00000000000E+00 -0.00000000000E+00 -0.31398852277E+03  0.31398852278E+03  0.25500000000E-02 0. -1.
     200001    2    1    2    0    0 -0.31484452534E+02 -0.14623511726E+03  0.10389149475E+04  0.12150848809E+04  0.61213643844E+03 0.  0.
    5000001    2    3    3    0    0  0.15896571673E+03  0.14814597129E+02  0.62276879596E+02  0.20205418381E+03  0.10704163712E+03 0.  0.
        -11    1    4    4    0    0  0.21157861166E+02 -0.22390442851E+02 -0.17881445621E+02  0.35619280143E+02  0.51100000000E-03 0. -1.
     200002    1    4    4    0    0  0.13780785557E+03  0.37205039980E+02  0.80158325217E+02  0.16643490366E+03  0.30000000000E+02 0. -1.
     200000    1    3    3    0    0 -0.19045016927E+03 -0.16104971439E+03  0.97663806792E+03  0.10130306971E+04  0.10100000000E+03 0.  1.
    -200001    1    1    2    0    0  0.31484452534E+02  0.14623511726E+03  0.21471033588E+03  0.66651744809E+03  0.61300000000E+03 0. -1.
<mgrwt>
<rscale>  0 0.14031575E+04</rscale>
<asrwt>0</asrwt>
<pdfrwt beam="1">  1        2 0.22394483E+00 0.14031575E+04</pdfrwt>
<pdfrwt beam="2">  1       -2 0.44855503E-01 0.14031575E+04</pdfrwt>
<totfact> 0.61771910E+01</totfact>
</mgrwt>
</event>
<event>
 8    1  0.6972317E-052  0.1423667E+04  0.7818608E-02  0.8936863E-01
         -2   -1    0    0    0  501 -0.00000000000E+00  0.00000000000E+00  0.21913817485E+03  0.21913817486E+03  0.25500000000E-02 0. -1.
          2   -1    0    0  501    0  0.00000000000E+00 -0.00000000000E+00 -0.23122704018E+04  0.23122704018E+04  0.25500000000E-02 0.  1.
     200001    2    1    2    0    0 -0.13395520517E+03 -0.31996106653E+03 -0.86142878055E+03  0.11125423176E+04  0.61267592044E+03 0.  0.
    5000001    2    3    3    0    0 -0.11548694909E+03 -0.47282427236E+02  0.30469756915E+02  0.17425733005E+03  0.11774696452E+03 0.  0.
        -11    1    4    4    0    0 -0.85645038917E+02 -0.32764390463E+02  0.69363750908E+02  0.11497785836E+03  0.51100000000E-03 0. -1.
     200002    1    4    4    0    0 -0.29841910169E+02 -0.14518036772E+02 -0.38893993993E+02  0.59279471682E+02  0.30000000000E+02 0. -1.
     200000    1    3    3    0    0 -0.18468256088E+02 -0.27267863930E+03 -0.89189853746E+03  0.93828498759E+03  0.10100000000E+03 0. -1.
    -200001    1    1    2    0    0  0.13395520517E+03  0.31996106653E+03 -0.12317034464E+04  0.14188662590E+04  0.61300000000E+03 0.  1.
<mgrwt>
<rscale>  0 0.14236667E+04</rscale>
<asrwt>0</asrwt>
<pdfrwt beam="1">  1        2 0.33032433E+00 0.14236667E+04</pdfrwt>
<pdfrwt beam="2">  1       -2 0.31305455E-01 0.14236667E+04</pdfrwt>
<totfact> 0.50978814E+01</totfact>
</mgrwt>
</event>
<event>
 8    1  0.6972317E-052  0.1423196E+04  0.7818608E-02  0.8937197E-01
         -2   -1    0    0    0  501 -0.00000000000E+00  0.00000000000E+00  0.23604669505E+03  0.23604669506E+03  0.25500000000E-02 0. -1.
          2   -1    0    0  501    0  0.00000000000E+00 -0.00000000000E+00 -0.21452176699E+04  0.21452176699E+04  0.25500000000E-02 0.  1.
     200001    2    1    2    0    0 -0.51376583554E+02 -0.27926417903E+03 -0.57802696817E+03  0.88850135579E+03  0.61212045243E+03 0.  0.
    5000001    2    3    3    0    0  0.12874779953E+03 -0.33904263965E+03 -0.13307722813E+03  0.39433586843E+03  0.79153781316E+02 0.  0.
        -11    1    4    4    0    0  0.10694289372E+03 -0.29387198583E+03 -0.11397865621E+03  0.33284930621E+03  0.51100000000E-03 0. -1.
     200002    1    4    4    0    0  0.21804905808E+02 -0.45170653824E+02 -0.19098571918E+02  0.61486562218E+02  0.30000000000E+02 0.  1.
     200000    1    3    3    0    0 -0.18012438308E+03  0.59778460621E+02 -0.44494974004E+03  0.49416548736E+03  0.10100000000E+03 0.  1.
    -200001    1    1    2    0    0  0.51376583554E+02  0.27926417903E+03 -0.13311440067E+04  0.14927630092E+04  0.61300000000E+03 0.  1.
<mgrwt>
<rscale>  0 0.14231958E+04</rscale>
<asrwt>0</asrwt>
<pdfrwt beam="1">  1        2 0.30645966E+00 0.14231958E+04</pdfrwt>
<pdfrwt beam="2">  1       -2 0.33720958E-01 0.14231958E+04</pdfrwt>
<totfact> 0.54038258E+01</totfact>
</mgrwt>
</event>
<event>
 8    1  0.6972317E-052  0.1421866E+04  0.7818608E-02  0.8938141E-01
          2   -1    0    0  501    0  0.00000000000E+00  0.00000000000E+00  0.26438441313E+04  0.26438441313E+04  0.25500000000E-02 0.  1.
         -2   -1    0    0    0  501 -0.00000000000E+00 -0.00000000000E+00 -0.19117076764E+03  0.19117076766E+03  0.25500000000E-02 0. -1.
     200001    2    1    2    0    0  0.33223136261E+03 -0.13561856195E+03  0.11684219206E+04  0.13674179374E+04  0.61306766208E+03 0.  0.
    5000001    2    3    3    0    0  0.25797957106E+03  0.20794627199E+03  0.52418729819E+03  0.62661474328E+03  0.89881042486E+02 0.  0.
        -11    1    4    4    0    0  0.22215628105E+03  0.14733892034E+03  0.41651084485E+03  0.49451335122E+03  0.51100000000E-03 0. -1.
     200002    1    4    4    0    0  0.35823290005E+02  0.60607351650E+02  0.10767645334E+03  0.13210139206E+03  0.30000000000E+02 0.  1.
     200000    1    3    3    0    0  0.74251791548E+02 -0.34356483394E+03  0.64423462240E+03  0.74080319409E+03  0.10100000000E+03 0.  1.
    -200001    1    1    2    0    0 -0.33223136261E+03  0.13561856195E+03  0.12842514430E+04  0.14675969616E+04  0.61300000000E+03 0. -1.
<mgrwt>
<rscale>  0 0.14218660E+04</rscale>
<asrwt>0</asrwt>
<pdfrwt beam="1">  1        2 0.37769203E+00 0.14218660E+04</pdfrwt>
<pdfrwt beam="2">  1       -2 0.27310109E-01 0.14218660E+04</pdfrwt>
<totfact> 0.44021025E+01</totfact>
</mgrwt>
</event>
<event>
 8    1  0.6972317E-052  0.2068966E+04  0.7818608E-02  0.8575038E-01
         -2   -1    0    0    0  501 -0.00000000000E+00  0.00000000000E+00  0.11462699020E+04  0.11462699020E+04  0.25500000000E-02 0. -1.
          2   -1    0    0  501    0  0.00000000000E+00 -0.00000000000E+00 -0.93359821544E+03  0.93359821544E+03  0.25500000000E-02 0.  1.
     200001    2    1    2    0    0 -0.62612565965E+03  0.50257538071E+03  0.33291549602E+03  0.10625958193E+04  0.61127881750E+03 0.  0.
    5000001    2    3    3    0    0 -0.40740599703E+03  0.61563880556E+03  0.24043413120E+03  0.78085936142E+03  0.83318578613E+02 0.  0.
        -11    1    4    4    0    0  0.30165468630E+01  0.13367240579E+01  0.24276931982E+01  0.40963496811E+01  0.51100000000E-03 0. -1.
     200002    1    4    4    0    0 -0.41042254390E+03  0.61430208151E+03  0.23800643800E+03  0.77676301174E+03  0.30000000000E+02 0. -1.
     200000    1    3    3    0    0 -0.21871966262E+03 -0.11306342485E+03  0.92481364816E+02  0.28173645787E+03  0.10100000000E+03 0.  1.
    -200001    1    1    2    0    0  0.62612565965E+03 -0.50257538071E+03 -0.12024380942E+03  0.10172722982E+04  0.61300000000E+03 0. -1.
<mgrwt>
<rscale>  0 0.20689664E+04</rscale>
<asrwt>0</asrwt>
<pdfrwt beam="1">  1        2 0.13337117E+00 0.20689664E+04</pdfrwt>
<pdfrwt beam="2">  1       -2 0.16375284E+00 0.20689664E+04</pdfrwt>
<totfact> 0.67804568E+00</totfact>
</mgrwt>
</event>
<event>
 8    1  0.6972317E-052  0.1375650E+04  0.7818608E-02  0.8971635E-01
          2   -1    0    0  501    0  0.00000000000E+00  0.00000000000E+00  0.21223470743E+04  0.21223470743E+04  0.25500000000E-02 0.  1.
         -2   -1    0    0    0  501 -0.00000000000E+00 -0.00000000000E+00 -0.22291504806E+03  0.22291504807E+03  0.25500000000E-02 0. -1.
     200001    2    1    2    0    0 -0.29651939173E+03  0.90929748869E+02  0.89972030447E+03  0.11322557351E+04  0.61344474446E+03 0.  0.
    5000001    2    3    3    0    0 -0.15640889562E+03  0.33445926379E+03  0.60139245909E+03  0.71019166522E+03  0.79828376713E+02 0.  0.
        -11    1    4    4    0    0 -0.20092398484E+02  0.90280300590E+02  0.10733581672E+03  0.14168703082E+03  0.51100000000E-03 0. -1.
     200002    1    4    4    0    0 -0.13631649713E+03  0.24417896320E+03  0.49405664236E+03  0.56850463439E+03  0.30000000000E+02 0. -1.
     200000    1    3    3    0    0 -0.14011049611E+03 -0.24352951493E+03  0.29832784538E+03  0.42206406989E+03  0.10100000000E+03 0. -1.
    -200001    1    1    2    0    0  0.29651939173E+03 -0.90929748869E+02  0.99971172174E+03  0.12130063872E+04  0.61300000000E+03 0. -1.
<mgrwt>
<rscale>  0 0.13756498E+04</rscale>
<asrwt>0</asrwt>
<pdfrwt beam="1">  1        2 0.30319246E+00 0.13756498E+04</pdfrwt>
<pdfrwt beam="2">  1       -2 0.31845005E-01 0.13756498E+04</pdfrwt>
<totfact> 0.62091548E+01</totfact>
</mgrwt>
</event>
<event>
 8    1  0.6972317E-052  0.1239659E+04  0.7818608E-02  0.9078834E-01
         -2   -1    0    0    0  501 -0.00000000000E+00  0.00000000000E+00  0.38854926249E+03  0.38854926250E+03  0.25500000000E-02 0. -1.
          2   -1    0    0  501    0  0.00000000000E+00 -0.00000000000E+00 -0.98877729425E+03  0.98877729425E+03  0.25500000000E-02 0.  1.
     200001    2    1    2    0    0 -0.38534848574E+02 -0.78495087112E+02 -0.33034417625E+03  0.70186174737E+03  0.61305482984E+03 0.  0.
    5000001    2    3    3    0    0 -0.62573394865E+02 -0.14892164533E+03  0.26066367056E+02  0.32401624033E+03  0.27966762829E+03 0.  0.
        -11    1    4    4    0    0 -0.17211658089E+03 -0.79495782238E+02  0.88790510455E+01  0.18979603357E+03  0.51100000000E-03 0. -1.
     200002    1    4    4    0    0  0.10954318603E+03 -0.69425863091E+02  0.17187316010E+02  0.13422020676E+03  0.30000000000E+02 0. -1.
     200000    1    3    3    0    0  0.24038546290E+02  0.70426558217E+02 -0.35641054331E+03  0.37784550704E+03  0.10100000000E+03 0.  1.
    -200001    1    1    2    0    0  0.38534848574E+02  0.78495087112E+02 -0.26988385550E+03  0.67546480938E+03  0.61300000000E+03 0.  1.
<mgrwt>
<rscale>  0 0.12396591E+04</rscale>
<asrwt>0</asrwt>
<pdfrwt beam="1">  1        2 0.14125390E+00 0.12396591E+04</pdfrwt>
<pdfrwt beam="2">  1       -2 0.55507038E-01 0.12396591E+04</pdfrwt>
<totfact> 0.85718525E+01</totfact>
</mgrwt>
</event>
<event>
 8    1  0.6972317E-052  0.1347931E+04  0.7818608E-02  0.8992396E-01
         -2   -1    0    0    0  501 -0.00000000000E+00  0.00000000000E+00  0.90654692157E+03  0.90654692158E+03  0.25500000000E-02 0. -1.
          2   -1    0    0  501    0  0.00000000000E+00 -0.00000000000E+00 -0.50105432591E+03  0.50105432591E+03  0.25500000000E-02 0.  1.
     200001    2    1    2    0    0 -0.22316478900E+03  0.21270522928E+02  0.37651792587E+03  0.75425333888E+03  0.61390340651E+03 0.  0.
    5000001    2    3    3    0    0 -0.26637783854E+03  0.97026381052E+02 -0.53865011923E+02  0.30365729936E+03  0.94525364096E+02 0.  0.
        -11    1    4    4    0    0 -0.94117100782E+02 -0.56159682274E+01 -0.16984681209E+01  0.94299801447E+02  0.51100000000E-03 0. -1.
     200002    1    4    4    0    0 -0.17226073776E+03  0.10264234928E+03 -0.52166543802E+02  0.20935749791E+03  0.30000000000E+02 0. -1.
     200000    1    3    3    0    0  0.43213049548E+02 -0.75755858124E+02  0.43038293779E+03  0.45059603952E+03  0.10100000000E+03 0. -1.
    -200001    1    1    2    0    0  0.22316478900E+03 -0.21270522928E+02  0.28974669802E+02  0.65334790861E+03  0.61300000000E+03 0.  1.
<mgrwt>
<rscale>  0 0.13479306E+04</rscale>
<asrwt>0</asrwt>
<pdfrwt beam="1">  1        2 0.71579189E-01 0.13479306E+04</pdfrwt>
<pdfrwt beam="2">  1       -2 0.12950670E+00 0.13479306E+04</pdfrwt>
<totfact> 0.28724033E+01</totfact>
</mgrwt>
</event>
<event>
 8    1  0.6972317E-052  0.1570843E+04  0.7818608E-02  0.8838663E-01
          2   -1    0    0  501    0  0.00000000000E+00  0.00000000000E+00  0.14146342752E+04  0.14146342752E+04  0.25500000000E-02 0.  1.
         -2   -1    0    0    0  501 -0.00000000000E+00 -0.00000000000E+00 -0.43607507359E+03  0.43607507360E+03  0.25500000000E-02 0. -1.
     200001    2    1    2    0    0 -0.70983577044E+02  0.27490945063E+03  0.17408245852E+02  0.67589275291E+03  0.61311833454E+03 0.  0.
    5000001    2    3    3    0    0 -0.32631398577E+03  0.18307516327E+03 -0.34248300394E+02  0.38178979012E+03  0.67772893142E+02 0.  0.
        -11    1    4    4    0    0 -0.12633786416E+02  0.92020853372E+01  0.10921547272E+02  0.19067541237E+02  0.51100000000E-03 0. -1.
     200002    1    4    4    0    0 -0.31368019935E+03  0.17387307793E+03 -0.45169847666E+02  0.36272224888E+03  0.30000000000E+02 0. -1.
     200000    1    3    3    0    0  0.25533040872E+03  0.91834287358E+02  0.51656546246E+02  0.29410296279E+03  0.10100000000E+03 0. -1.
    -200001    1    1    2    0    0  0.70983577044E+02 -0.27490945063E+03  0.96115095576E+03  0.11748165959E+04  0.61300000000E+03 0.  1.
<mgrwt>
<rscale>  0 0.15708428E+04</rscale>
<asrwt>0</asrwt>
<pdfrwt beam="1">  1        2 0.20209061E+00 0.15708428E+04</pdfrwt>
<pdfrwt beam="2">  1       -2 0.62296438E-01 0.15708428E+04</pdfrwt>
<totfact> 0.37405656E+01</totfact>
</mgrwt>
</event>
<event>
 8    1  0.6972317E-052  0.1494271E+04  0.7818608E-02  0.8888271E-01
          2   -1    0    0  501    0  0.00000000000E+00  0.00000000000E+00  0.15191296731E+04  0.15191296731E+04  0.25500000000E-02 0.  1.
         -2   -1    0    0    0  501 -0.00000000000E+00 -0.00000000000E+00 -0.36745496053E+03  0.36745496054E+03  0.25500000000E-02 0. -1.
     200001    2    1    2    0    0  0.66293825724E+01  0.11007670742E+03  0.54156246190E+02  0.62465095302E+03  0.61245006644E+03 0.  0.
    5000001    2    3    3    0    0 -0.16268497104E+03  0.18785027000E+03 -0.17432416161E+03  0.31300953388E+03  0.76367082153E+02 0.  0.
        -11    1    4    4    0    0 -0.16834217917E+02  0.38663229942E+00 -0.27261066745E+02  0.32042255504E+02  0.51100000000E-03 0. -1.
     200002    1    4    4    0    0 -0.14585075313E+03  0.18746363770E+03 -0.14706309487E+03  0.28096727838E+03  0.30000000000E+02 0. -1.
     200000    1    3    3    0    0  0.16931435362E+03 -0.77773562572E+02  0.22848040780E+03  0.31164141914E+03  0.10100000000E+03 0. -1.
    -200001    1    1    2    0    0 -0.66293825724E+01 -0.11007670742E+03  0.10975184664E+04  0.12619336806E+04  0.61300000000E+03 0.  1.
<mgrwt>
<rscale>  0 0.14942714E+04</rscale>
<asrwt>0</asrwt>
<pdfrwt beam="1">  1        2 0.21701852E+00 0.14942714E+04</pdfrwt>
<pdfrwt beam="2">  1       -2 0.52493566E-01 0.14942714E+04</pdfrwt>
<totfact> 0.47327946E+01</totfact>
</mgrwt>
</event>
<event>
 8    1  0.6972317E-052  0.1383289E+04  0.7818608E-02  0.8966004E-01
          2   -1    0    0  501    0  0.00000000000E+00  0.00000000000E+00  0.50629008051E+03  0.50629008051E+03  0.25500000000E-02 0.  1.
         -2   -1    0    0    0  501 -0.00000000000E+00 -0.00000000000E+00 -0.94485769994E+03  0.94485769995E+03  0.25500000000E-02 0. -1.
     200001    2    1    2    0    0  0.16502118082E+02 -0.12432457570E+03  0.90291465302E+02  0.63188600817E+03  0.61269768939E+03 0.  0.
    5000001    2    3    3    0    0 -0.68093408825E+02 -0.32029459116E+03 -0.27485923103E+02  0.36800504381E+03  0.16567105615E+03 0.  0.
        -11    1    4    4    0    0  0.69042042812E+01 -0.14932754745E+03  0.58188610427E+02  0.16041290112E+03  0.51100000000E-03 0. -1.
     200002    1    4    4    0    0 -0.74997613106E+02 -0.17096704372E+03 -0.85674533530E+02  0.20759214269E+03  0.30000000000E+02 0. -1.
     200000    1    3    3    0    0  0.84595526907E+02  0.19597001546E+03  0.11777738841E+03  0.26388096436E+03  0.10100000000E+03 0.  1.
    -200001    1    1    2    0    0 -0.16502118082E+02  0.12432457570E+03 -0.52885908474E+03  0.81926177229E+03  0.61300000000E+03 0. -1.
<mgrwt>
<rscale>  0 0.13832890E+04</rscale>
<asrwt>0</asrwt>
<pdfrwt beam="1">  1        2 0.72327154E-01 0.13832890E+04</pdfrwt>
<pdfrwt beam="2">  1       -2 0.13497967E+00 0.13832890E+04</pdfrwt>
<totfact> 0.25481181E+01</totfact>
</mgrwt>
</event>
<event>
 8    1  0.6972317E-052  0.1796337E+04  0.7818608E-02  0.8708250E-01
         -2   -1    0    0    0  501 -0.00000000000E+00  0.00000000000E+00  0.61818110281E+03  0.61818110282E+03  0.25500000000E-02 0. -1.
          2   -1    0    0  501    0  0.00000000000E+00 -0.00000000000E+00 -0.13049685564E+04  0.13049685564E+04  0.25500000000E-02 0.  1.
     200001    2    1    2    0    0 -0.20025066040E+03  0.32506337125E+03  0.22654147573E+03  0.75880209279E+03  0.61538041362E+03 0.  0.
    5000001    2    3    3    0    0  0.17240422169E+03  0.13910544896E+02 -0.45517865975E+02  0.19320061833E+03  0.73060823177E+02 0.  0.
        -11    1    4    4    0    0  0.52801508191E+02  0.20811727218E+02  0.10282601551E+02  0.57678931613E+02  0.51100000000E-03 0. -1.
     200002    1    4    4    0    0  0.11960271350E+03 -0.69011823223E+01 -0.55800467526E+02  0.13552168672E+03  0.30000000000E+02 0.  1.
     200000    1    3    3    0    0 -0.37265488210E+03  0.31115282636E+03  0.27205934170E+03  0.56560147446E+03  0.10100000000E+03 0. -1.
    -200001    1    1    2    0    0  0.20025066040E+03 -0.32506337125E+03 -0.91332892928E+03  0.11643475664E+04  0.61300000000E+03 0.  1.
<mgrwt>
<rscale>  0 0.17963373E+04</rscale>
<asrwt>0</asrwt>
<pdfrwt beam="1">  1        2 0.18642408E+00 0.17963373E+04</pdfrwt>
<pdfrwt beam="2">  1       -2 0.88311586E-01 0.17963373E+04</pdfrwt>
<totfact> 0.19510533E+01</totfact>
</mgrwt>
</event>
<event>
 8    1  0.6972317E-052  0.2130273E+04  0.7818608E-02  0.8548024E-01
         -2   -1    0    0    0  501 -0.00000000000E+00  0.00000000000E+00  0.27333532901E+03  0.27333532902E+03  0.25500000000E-02 0. -1.
          2   -1    0    0  501    0  0.00000000000E+00 -0.00000000000E+00 -0.41506388709E+04  0.41506388709E+04  0.25500000000E-02 0.  1.
     200001    2    1    2    0    0 -0.74217205644E+03 -0.23823197298E+03 -0.11312995513E+04  0.15044056101E+04  0.61304463998E+03 0.  0.
    5000001    2    3    3    0    0 -0.74396622842E+03 -0.35264845739E+03 -0.10298798580E+04  0.13211535838E+04  0.83352183754E+02 0.  0.
        -11    1    4    4    0    0 -0.33786962858E+03 -0.12045973367E+03 -0.43780131109E+03  0.56598270411E+03  0.51100000000E-03 0. -1.
     200002    1    4    4    0    0 -0.40609659983E+03 -0.23218872372E+03 -0.59207854689E+03  0.75517087967E+03  0.30000000000E+02 0. -1.
     200000    1    3    3    0    0  0.17941719789E+01  0.11441648440E+03 -0.10141969332E+03  0.18325202632E+03  0.10100000000E+03 0. -1.
    -200001    1    1    2    0    0  0.74217205644E+03  0.23823197298E+03 -0.27460039906E+04  0.29195685898E+04  0.61300000000E+03 0.  1.
<mgrwt>
<rscale>  0 0.21302734E+04</rscale>
<asrwt>0</asrwt>
<pdfrwt beam="1">  1        2 0.59294837E+00 0.21302734E+04</pdfrwt>
<pdfrwt beam="2">  1       -2 0.39047907E-01 0.21302734E+04</pdfrwt>
<totfact> 0.25689076E+00</totfact>
</mgrwt>
</event>
<event>
 8    1  0.6972317E-052  0.1249054E+04  0.7818608E-02  0.9070971E-01
          2   -1    0    0  501    0  0.00000000000E+00  0.00000000000E+00  0.10657078014E+04  0.10657078014E+04  0.25500000000E-02 0.  1.
         -2   -1    0    0    0  501 -0.00000000000E+00 -0.00000000000E+00 -0.36598564668E+03  0.36598564669E+03  0.25500000000E-02 0. -1.
     200001    2    1    2    0    0 -0.27680885467E+01 -0.57573077869E+02  0.47271079731E+03  0.77547284647E+03  0.61202966931E+03 0.  0.
    5000001    2    3    3    0    0  0.21709963647E+03 -0.20924464439E+02 -0.97231827322E+01  0.23452138611E+03  0.85648437779E+02 0.  0.
        -11    1    4    4    0    0  0.10945108482E+02  0.18411638066E+02 -0.68736097136E+01  0.22495117842E+02  0.51100000000E-03 0. -1.
     200002    1    4    4    0    0  0.20615452798E+03 -0.39336102505E+02 -0.28495730187E+01  0.21202626827E+03  0.30000000000E+02 0. -1.
     200000    1    3    3    0    0 -0.21986772501E+03 -0.36648613430E+02  0.48243398004E+03  0.54095146036E+03  0.10100000000E+03 0.  1.
    -200001    1    1    2    0    0  0.27680885467E+01  0.57573077869E+02  0.22701135743E+03  0.65622060164E+03  0.61300000000E+03 0. -1.
<mgrwt>
<rscale>  0 0.12490537E+04</rscale>
<asrwt>0</asrwt>
<pdfrwt beam="1">  1        2 0.15224397E+00 0.12490537E+04</pdfrwt>
<pdfrwt beam="2">  1       -2 0.52283664E-01 0.12490537E+04</pdfrwt>
<totfact> 0.87004952E+01</totfact>
</mgrwt>
</event>
<event>
 8    1  0.6972317E-052  0.1361758E+04  0.7818608E-02  0.8981975E-01
          2   -1    0    0  501    0  0.00000000000E+00  0.00000000000E+00  0.10130338773E+04  0.10130338773E+04  0.25500000000E-02 0.  1.
         -2   -1    0    0    0  501 -0.00000000000E+00 -0.00000000000E+00 -0.45763142474E+03  0.45763142474E+03  0.25500000000E-02 0. -1.
     200001    2    1    2    0    0  0.15014392401E+03 -0.20069087375E+03  0.46795180516E+03  0.80265584073E+03  0.60204441861E+03 0.  0.
    5000001    2    3    3    0    0  0.18158568950E+03  0.80749663232E+02  0.17347058969E+03  0.38180248534E+03  0.27602032821E+03 0.  0.
        -11    1    4    4    0    0  0.22675496687E+03  0.12276958793E+03  0.17756481216E+03  0.31308057946E+03  0.51100000000E-03 0. -1.
     200002    1    4    4    0    0 -0.45169277371E+02 -0.42019924699E+02 -0.40942224682E+01  0.68721905879E+02  0.30000000000E+02 0. -1.
     200000    1    3    3    0    0 -0.31441765485E+02 -0.28144053698E+03  0.29448121548E+03  0.42085335539E+03  0.10100000000E+03 0.  1.
    -200001    1    1    2    0    0 -0.15014392401E+03  0.20069087375E+03  0.87450647436E+02  0.66800946135E+03  0.61300000000E+03 0. -1.
<mgrwt>
<rscale>  0 0.13617579E+04</rscale>
<asrwt>0</asrwt>
<pdfrwt beam="1">  1        2 0.14471912E+00 0.13617579E+04</pdfrwt>
<pdfrwt beam="2">  1       -2 0.65375919E-01 0.13617579E+04</pdfrwt>
<totfact> 0.58093789E+01</totfact>
</mgrwt>
</event>
<event>
 8    1  0.6972317E-052  0.1378721E+04  0.7818608E-02  0.8969367E-01
          2   -1    0    0  501    0  0.00000000000E+00  0.00000000000E+00  0.13978715313E+04  0.13978715313E+04  0.25500000000E-02 0.  1.
         -2   -1    0    0    0  501 -0.00000000000E+00 -0.00000000000E+00 -0.33995843026E+03  0.33995843027E+03  0.25500000000E-02 0. -1.
     200001    2    1    2    0    0  0.11323460316E+03  0.29118025322E+03  0.51347563847E+03  0.86045366496E+03  0.61572336567E+03 0.  0.
    5000001    2    3    3    0    0  0.24104349713E+03 -0.25271796182E+02  0.42324434073E+03  0.49327564269E+03  0.73786560593E+02 0.  0.
        -11    1    4    4    0    0  0.19311777625E+03 -0.49114165435E+01  0.32777550563E+03  0.38046731739E+03  0.51100000000E-03 0. -1.
     200002    1    4    4    0    0  0.47925720880E+02 -0.20360379638E+02  0.95468835098E+02  0.11280832530E+03  0.30000000000E+02 0. -1.
     200000    1    3    3    0    0 -0.12780889397E+03  0.31645204940E+03  0.90231297739E+02  0.36717802227E+03  0.10100000000E+03 0. -1.
    -200001    1    1    2    0    0 -0.11323460316E+03 -0.29118025322E+03  0.54443746262E+03  0.87737629665E+03  0.61300000000E+03 0. -1.
<mgrwt>
<rscale>  0 0.13787215E+04</rscale>
<asrwt>0</asrwt>
<pdfrwt beam="1">  1        2 0.19969594E+00 0.13787215E+04</pdfrwt>
<pdfrwt beam="2">  1       -2 0.48565489E-01 0.13787215E+04</pdfrwt>
<totfact> 0.64976905E+01</totfact>
</mgrwt>
</event>
<event>
 8    1  0.6972317E-052  0.1300901E+04  0.7818608E-02  0.9028851E-01
          2   -1    0    0  501    0  0.00000000000E+00  0.00000000000E+00  0.89163379624E+03  0.89163379625E+03  0.25500000000E-02 0.  1.
         -2   -1    0    0    0  501 -0.00000000000E+00 -0.00000000000E+00 -0.47450634215E+03  0.47450634216E+03  0.25500000000E-02 0. -1.
     200001    2    1    2    0    0 -0.36636098441E+02 -0.18412379352E+03  0.92352240764E+02  0.64746655865E+03  0.61273177912E+03 0.  0.
    5000001    2    3    3    0    0  0.14007482618E+03 -0.31867274887E+03  0.15172335229E+03  0.39635681938E+03  0.11360226599E+03 0.  0.
        -11    1    4    4    0    0  0.48516609252E+02 -0.34042266267E+02 -0.10034981983E+01  0.59276844339E+02  0.51100000000E-03 0. -1.
     200002    1    4    4    0    0  0.91558216932E+02 -0.28463048261E+03  0.15272685049E+03  0.33707997504E+03  0.30000000000E+02 0. -1.
     200000    1    3    3    0    0 -0.17671092462E+03  0.13454895536E+03 -0.59371111524E+02  0.25110973926E+03  0.10100000000E+03 0. -1.
    -200001    1    1    2    0    0  0.36636098441E+02  0.18412379352E+03  0.32477521333E+03  0.71867357976E+03  0.61300000000E+03 0.  1.
<mgrwt>
<rscale>  0 0.13009011E+04</rscale>
<asrwt>0</asrwt>
<pdfrwt beam="1">  1        2 0.12737626E+00 0.13009011E+04</pdfrwt>
<pdfrwt beam="2">  1       -2 0.67786620E-01 0.13009011E+04</pdfrwt>
<totfact> 0.64434921E+01</totfact>
</mgrwt>
</event>
<event>
 8    1  0.6972317E-052  0.1409045E+04  0.7818608E-02  0.8947297E-01
          2   -1    0    0  501    0  0.00000000000E+00  0.00000000000E+00  0.99816368609E+03  0.99816368609E+03  0.25500000000E-02 0.  1.
         -2   -1    0    0    0  501 -0.00000000000E+00 -0.00000000000E+00 -0.49726520039E+03  0.49726520039E+03  0.25500000000E-02 0. -1.
     200001    2    1    2    0    0 -0.14297931034E+03 -0.22812935194E+03  0.19776015341E+02  0.67096911434E+03  0.61426572199E+03 0.  0.
    5000001    2    3    3    0    0 -0.15750035116E+03  0.17630341576E+03 -0.40653821863E+02  0.24950797800E+03  0.68645777937E+02 0.  0.
        -11    1    4    4    0    0 -0.55912399092E+02  0.40572995561E+02 -0.34522014926E+02  0.77227804939E+02  0.51100000000E-03 0. -1.
     200002    1    4    4    0    0 -0.10158795207E+03  0.13573042020E+03 -0.61318069378E+01  0.17228017306E+03  0.30000000000E+02 0. -1.
     200000    1    3    3    0    0  0.14521040826E+02 -0.40443276770E+03  0.60429837204E+02  0.42146113634E+03  0.10100000000E+03 0. -1.
    -200001    1    1    2    0    0  0.14297931034E+03  0.22812935194E+03  0.48112247036E+03  0.82445977215E+03  0.61300000000E+03 0.  1.
<mgrwt>
<rscale>  0 0.14090452E+04</rscale>
<asrwt>0</asrwt>
<pdfrwt beam="1">  1        2 0.14259481E+00 0.14090452E+04</pdfrwt>
<pdfrwt beam="2">  1       -2 0.71037885E-01 0.14090452E+04</pdfrwt>
<totfact> 0.49380038E+01</totfact>
</mgrwt>
</event>
<event>
 8    1  0.6972317E-052  0.1462758E+04  0.7818608E-02  0.8909603E-01
         -2   -1    0    0    0  501 -0.00000000000E+00  0.00000000000E+00  0.30922898590E+03  0.30922898591E+03  0.25500000000E-02 0. -1.
          2   -1    0    0  501    0  0.00000000000E+00 -0.00000000000E+00 -0.17298350791E+04  0.17298350791E+04  0.25500000000E-02 0.  1.
     200001    2    1    2    0    0 -0.14295048073E+03 -0.34977490468E+03 -0.88853727270E+03  0.11437185710E+04  0.61303862912E+03 0.  0.
    5000001    2    3    3    0    0  0.14490471457E+03 -0.35505573284E+03 -0.64363333074E+03  0.75248022754E+03  0.70004847426E+02 0.  0.
        -11    1    4    4    0    0  0.56449835380E+02 -0.20710150274E+03 -0.34268818910E+03  0.40436717386E+03  0.51100000000E-03 0. -1.
     200002    1    4    4    0    0  0.88454879194E+02 -0.14795423010E+03 -0.30094514165E+03  0.34811305368E+03  0.30000000000E+02 0. -1.
     200000    1    3    3    0    0 -0.28785519530E+03  0.52808281639E+01 -0.24490394195E+03  0.39123834346E+03  0.10100000000E+03 0.  1.
    -200001    1    1    2    0    0  0.14295048073E+03  0.34977490468E+03 -0.53206882047E+03  0.89534549399E+03  0.61300000000E+03 0.  1.
<mgrwt>
<rscale>  0 0.14627579E+04</rscale>
<asrwt>0</asrwt>
<pdfrwt beam="1">  1        2 0.24711929E+00 0.14627579E+04</pdfrwt>
<pdfrwt beam="2">  1       -2 0.44175570E-01 0.14627579E+04</pdfrwt>
<totfact> 0.52160659E+01</totfact>
</mgrwt>
</event>
<event>
 8    1  0.6972317E-052  0.1340767E+04  0.7818608E-02  0.8997847E-01
          2   -1    0    0  501    0  0.00000000000E+00  0.00000000000E+00  0.19716530503E+04  0.19716530503E+04  0.25500000000E-02 0.  1.
         -2   -1    0    0    0  501 -0.00000000000E+00 -0.00000000000E+00 -0.22793781756E+03  0.22793781757E+03  0.25500000000E-02 0. -1.
     200001    2    1    2    0    0 -0.26083040559E+03 -0.24705642635E+02  0.75215801693E+03  0.10047697175E+04  0.61251745560E+03 0.  0.
    5000001    2    3    3    0    0 -0.20296865899E+03 -0.29688298100E+03  0.47618325683E+03  0.60005802568E+03  0.63113858725E+02 0.  0.
        -11    1    4    4    0    0 -0.13324165151E+03 -0.15769049159E+03  0.27752298354E+03  0.34588818313E+03  0.51100000000E-03 0. -1.
     200002    1    4    4    0    0 -0.69727007473E+02 -0.13919248942E+03  0.19866027328E+03  0.25416984255E+03  0.30000000000E+02 0.  1.
     200000    1    3    3    0    0 -0.57861746607E+02  0.27217733837E+03  0.27597476010E+03  0.40471169177E+03  0.10100000000E+03 0. -1.
    -200001    1    1    2    0    0  0.26083040559E+03  0.24705642635E+02  0.99155721583E+03  0.11948211504E+04  0.61300000000E+03 0. -1.
<mgrwt>
<rscale>  0 0.13407674E+04</rscale>
<asrwt>0</asrwt>
<pdfrwt beam="1">  1        2 0.28166470E+00 0.13407674E+04</pdfrwt>
<pdfrwt beam="2">  1       -2 0.32562547E-01 0.13407674E+04</pdfrwt>
<totfact> 0.71337133E+01</totfact>
</mgrwt>
</event>
<event>
 8    1  0.6972317E-052  0.1516324E+04  0.7818608E-02  0.8873670E-01
         -2   -1    0    0    0  501 -0.00000000000E+00  0.00000000000E+00  0.10100518609E+04  0.10100518609E+04  0.25500000000E-02 0. -1.
          2   -1    0    0  501    0  0.00000000000E+00 -0.00000000000E+00 -0.56908919310E+03  0.56908919311E+03  0.25500000000E-02 0.  1.
     200001    2    1    2    0    0  0.25144768761E+01  0.87625852132E+02  0.67601794388E+03  0.91679326368E+03  0.61304568780E+03 0.  0.
    5000001    2    3    3    0    0  0.19270381534E+03  0.12437119641E+02  0.65384492695E+03  0.68762526278E+03  0.89587226310E+02 0.  0.
        -11    1    4    4    0    0  0.12879586884E+03  0.40556229235E+02  0.37333725101E+03  0.39700615430E+03  0.51100000000E-03 0. -1.
     200002    1    4    4    0    0  0.63907946499E+02 -0.28119109594E+02  0.28050767594E+03  0.29061910847E+03  0.30000000000E+02 0.  1.
     200000    1    3    3    0    0 -0.19018933846E+03  0.75188732491E+02  0.22173016932E+02  0.22916800090E+03  0.10100000000E+03 0.  1.
    -200001    1    1    2    0    0 -0.25144768761E+01 -0.87625852132E+02 -0.23505527608E+03  0.66234779034E+03  0.61300000000E+03 0.  1.
<mgrwt>
<rscale>  0 0.15163240E+04</rscale>
<asrwt>0</asrwt>
<pdfrwt beam="1">  1        2 0.81298456E-01 0.15163240E+04</pdfrwt>
<pdfrwt beam="2">  1       -2 0.14429312E+00 0.15163240E+04</pdfrwt>
<totfact> 0.18528907E+01</totfact>
</mgrwt>
</event>
<event>
 8    1  0.6972317E-052  0.1706468E+04  0.7818608E-02  0.8757684E-01
          2   -1    0    0  501    0  0.00000000000E+00  0.00000000000E+00  0.34071262715E+04  0.34071262715E+04  0.25500000000E-02 0.  1.
         -2   -1    0    0    0  501 -0.00000000000E+00 -0.00000000000E+00 -0.21367221010E+03  0.21367221012E+03  0.25500000000E-02 0. -1.
     200001    2    1    2    0    0  0.37575731863E+03  0.31883275336E+03  0.89636672716E+03  0.11927896043E+04  0.61353552750E+03 0.  0.
    5000001    2    3    3    0    0  0.45112425863E+03  0.40683614204E+03  0.81091198700E+03  0.10169252115E+04  0.86774949411E+02 0.  0.
        -11    1    4    4    0    0  0.39138892113E+03  0.35182713427E+03  0.67753874613E+03  0.85791979375E+03  0.51100000000E-03 0. -1.
     200002    1    4    4    0    0  0.59735337501E+02  0.55009007765E+02  0.13337324086E+03  0.15900541771E+03  0.30000000000E+02 0.  1.
     200000    1    3    3    0    0 -0.75366940002E+02 -0.88003388673E+02  0.85454740167E+02  0.17586439287E+03  0.10100000000E+03 0. -1.
    -200001    1    1    2    0    0 -0.37575731863E+03 -0.31883275336E+03  0.22970873343E+04  0.24280088773E+04  0.61300000000E+03 0. -1.
<mgrwt>
<rscale>  0 0.17064679E+04</rscale>
<asrwt>0</asrwt>
<pdfrwt beam="1">  1        2 0.48673230E+00 0.17064679E+04</pdfrwt>
<pdfrwt beam="2">  1       -2 0.30524603E-01 0.17064679E+04</pdfrwt>
<totfact> 0.13029968E+01</totfact>
</mgrwt>
</event>
<event>
 8    1  0.6972317E-052  0.1355664E+04  0.7818608E-02  0.8986552E-01
         -2   -1    0    0    0  501 -0.00000000000E+00  0.00000000000E+00  0.21018741091E+03  0.21018741092E+03  0.25500000000E-02 0. -1.
          2   -1    0    0  501    0  0.00000000000E+00 -0.00000000000E+00 -0.21859349751E+04  0.21859349751E+04  0.25500000000E-02 0.  1.
     200001    2    1    2    0    0 -0.14842361092E+03  0.60458973799E+02 -0.14161166014E+04  0.15507581625E+04  0.61137533007E+03 0.  0.
    5000001    2    3    3    0    0  0.15812408998E+03  0.34027172190E+02 -0.13224487976E+03  0.22667443007E+03  0.87929021045E+02 0.  0.
        -11    1    4    4    0    0  0.98014787726E+02 -0.71248986309E+01 -0.10373150687E+03  0.14289117646E+03  0.51100000000E-03 0. -1.
     200002    1    4    4    0    0  0.60109302257E+02  0.41152070821E+02 -0.28513372897E+02  0.83783253605E+02  0.30000000000E+02 0.  1.
     200000    1    3    3    0    0 -0.30654770090E+03  0.26431801609E+02 -0.12838717216E+04  0.13240837325E+04  0.10100000000E+03 0.  1.
    -200001    1    1    2    0    0  0.14842361092E+03 -0.60458973799E+02 -0.55963096282E+03  0.84536422348E+03  0.61300000000E+03 0. -1.
<mgrwt>
<rscale>  0 0.13556637E+04</rscale>
<asrwt>0</asrwt>
<pdfrwt beam="1">  1        2 0.31227641E+00 0.13556637E+04</pdfrwt>
<pdfrwt beam="2">  1       -2 0.30026774E-01 0.13556637E+04</pdfrwt>
<totfact> 0.64386449E+01</totfact>
</mgrwt>
</event>
<event>
 8    1  0.6972317E-052  0.2070283E+04  0.7818608E-02  0.8574448E-01
          2   -1    0    0  501    0  0.00000000000E+00  0.00000000000E+00  0.21542358235E+04  0.21542358235E+04  0.25500000000E-02 0.  1.
         -2   -1    0    0    0  501 -0.00000000000E+00 -0.00000000000E+00 -0.49740045744E+03  0.49740045745E+03  0.25500000000E-02 0. -1.
     200001    2    1    2    0    0 -0.29477683669E+03 -0.13785706305E+03  0.18141275337E+04  0.19400129401E+04  0.60555226506E+03 0.  0.
    5000001    2    3    3    0    0 -0.37940090651E+02 -0.19200438540E+03  0.15029281712E+04  0.15205572334E+04  0.12245847343E+03 0.  0.
        -11    1    4    4    0    0 -0.56467280315E+02 -0.31719723344E+02  0.34102457002E+03  0.34712022694E+03  0.51100000000E-03 0. -1.
     200002    1    4    4    0    0  0.18527189665E+02 -0.16028466205E+03  0.11619036012E+04  0.11734370064E+04  0.30000000000E+02 0. -1.
     200000    1    3    3    0    0 -0.25683674604E+03  0.54147322348E+02  0.31119936252E+03  0.41945570668E+03  0.10100000000E+03 0. -1.
    -200001    1    1    2    0    0  0.29477683669E+03  0.13785706305E+03 -0.15729216767E+03  0.71162334088E+03  0.61300000000E+03 0. -1.
<mgrwt>
<rscale>  0 0.20702830E+04</rscale>
<asrwt>0</asrwt>
<pdfrwt beam="1">  1        2 0.30774797E+00 0.20702830E+04</pdfrwt>
<pdfrwt beam="2">  1       -2 0.71057208E-01 0.20702830E+04</pdfrwt>
<totfact> 0.11142679E+01</totfact>
</mgrwt>
</event>
<event>
 8    1  0.6972317E-052  0.1502929E+04  0.7818608E-02  0.8882508E-01
         -2   -1    0    0    0  501 -0.00000000000E+00  0.00000000000E+00  0.48908477372E+03  0.48908477373E+03  0.25500000000E-02 0. -1.
          2   -1    0    0  501    0  0.00000000000E+00 -0.00000000000E+00 -0.11546029175E+04  0.11546029175E+04  0.25500000000E-02 0.  1.
     200001    2    1    2    0    0 -0.38638104315E+03  0.90633395437E+02 -0.52591110805E+03  0.90020679211E+03  0.61342077901E+03 0.  0.
    5000001    2    3    3    0    0 -0.42729952326E+03  0.26304607921E+03 -0.43618823223E+03  0.67738029013E+03  0.12963703623E+03 0.  0.
        -11    1    4    4    0    0 -0.32848611306E+03  0.19378628724E+03 -0.25939573153E+03  0.46124006453E+03  0.51100000000E-03 0. -1.
     200002    1    4    4    0    0 -0.98813410197E+02  0.69259791965E+02 -0.17679250070E+03  0.21614022560E+03  0.30000000000E+02 0. -1.
     200000    1    3    3    0    0  0.40918480105E+02 -0.17241268377E+03 -0.89722875819E+02  0.22282650198E+03  0.10100000000E+03 0. -1.
    -200001    1    1    2    0    0  0.38638104315E+03 -0.90633395437E+02 -0.13960703569E+03  0.74348089907E+03  0.61300000000E+03 0. -1.
<mgrwt>
<rscale>  0 0.15029287E+04</rscale>
<asrwt>0</asrwt>
<pdfrwt beam="1">  1        2 0.16494327E+00 0.15029287E+04</pdfrwt>
<pdfrwt beam="2">  1       -2 0.69869254E-01 0.15029287E+04</pdfrwt>
<totfact> 0.40998846E+01</totfact>
</mgrwt>
</event>
<event>
 8    1  0.6972317E-052  0.1248796E+04  0.7818608E-02  0.9071186E-01
         -2   -1    0    0    0  501 -0.00000000000E+00  0.00000000000E+00  0.16704107581E+03  0.16704107583E+03  0.25500000000E-02 0. -1.
          2   -1    0    0  501    0  0.00000000000E+00 -0.00000000000E+00 -0.23339938148E+04  0.23339938148E+04  0.25500000000E-02 0.  1.
     200001    2    1    2    0    0 -0.19454469263E+02 -0.79915934103E+02 -0.12597076025E+04  0.14030240662E+04  0.61224852274E+03 0.  0.
    5000001    2    3    3    0    0  0.10871103094E+03 -0.28918926625E+03 -0.47363101077E+03  0.57336200784E+03  0.94705531588E+02 0.  0.
        -11    1    4    4    0    0  0.53009431142E+02 -0.62395790450E+02 -0.78666074967E+02  0.11354111945E+03  0.51100000000E-03 0. -1.
     200002    1    4    4    0    0  0.55701599796E+02 -0.22679347580E+03 -0.39496493580E+03  0.45982088839E+03  0.30000000000E+02 0. -1.
     200000    1    3    3    0    0 -0.12816550020E+03  0.20927333215E+03 -0.78607659170E+03  0.82966205832E+03  0.10100000000E+03 0.  1.
    -200001    1    1    2    0    0  0.19454469263E+02  0.79915934103E+02 -0.90724513651E+03  0.10980108245E+04  0.61300000000E+03 0. -1.
<mgrwt>
<rscale>  0 0.12487960E+04</rscale>
<asrwt>0</asrwt>
<pdfrwt beam="1">  1        2 0.33342767E+00 0.12487960E+04</pdfrwt>
<pdfrwt beam="2">  1       -2 0.23863012E-01 0.12487960E+04</pdfrwt>
<totfact> 0.82921627E+01</totfact>
</mgrwt>
</event>
<event>
 8    1  0.6972317E-052  0.1928919E+04  0.7818608E-02  0.8640594E-01
         -2   -1    0    0    0  501 -0.00000000000E+00  0.00000000000E+00  0.16502515810E+04  0.16502515810E+04  0.25500000000E-02 0. -1.
          2   -1    0    0  501    0  0.00000000000E+00 -0.00000000000E+00 -0.56366073314E+03  0.56366073314E+03  0.25500000000E-02 0.  1.
     200001    2    1    2    0    0  0.29155245552E+02  0.36936282130E+03  0.12845869981E+04  0.14707767965E+04  0.61297773805E+03 0.  0.
    5000001    2    3    3    0    0  0.21627733814E+03  0.39361423234E+03  0.98580826130E+03  0.11032546311E+04  0.20891338438E+03 0.  0.
        -11    1    4    4    0    0  0.62411982973E+02  0.12540645051E+03  0.12369244026E+03  0.18687389659E+03  0.51100000000E-03 0. -1.
     200002    1    4    4    0    0  0.15386535517E+03  0.26820778183E+03  0.86211582104E+03  0.91638073455E+03  0.30000000000E+02 0. -1.
     200000    1    3    3    0    0 -0.18712209259E+03 -0.24251411047E+02  0.29877873680E+03  0.36752216537E+03  0.10100000000E+03 0. -1.
    -200001    1    1    2    0    0 -0.29155245552E+02 -0.36936282130E+03 -0.19799615022E+03  0.74313551766E+03  0.61300000000E+03 0.  1.
<mgrwt>
<rscale>  0 0.19289189E+04</rscale>
<asrwt>0</asrwt>
<pdfrwt beam="1">  1        2 0.80522961E-01 0.19289189E+04</pdfrwt>
<pdfrwt beam="2">  1       -2 0.23575023E+00 0.19289189E+04</pdfrwt>
<totfact> 0.43089692E+00</totfact>
</mgrwt>
</event>
<event>
 8    1  0.6972317E-052  0.1361461E+04  0.7818608E-02  0.8982197E-01
         -2   -1    0    0    0  501 -0.00000000000E+00  0.00000000000E+00  0.21320221640E+03  0.21320221642E+03  0.25500000000E-02 0. -1.
          2   -1    0    0  501    0  0.00000000000E+00 -0.00000000000E+00 -0.21734968673E+04  0.21734968673E+04  0.25500000000E-02 0.  1.
     200001    2    1    2    0    0  0.41921681696E+02 -0.64202359337E+02 -0.48087241227E+03  0.78347154824E+03  0.61376707282E+03 0.  0.
    5000001    2    3    3    0    0  0.30781638880E+02  0.16103890250E+03 -0.49616771366E+03  0.53589797769E+03  0.11884109139E+03 0.  0.
        -11    1    4    4    0    0 -0.57702965642E+01 -0.89630419389E+01 -0.15811316199E+01  0.10776475337E+02  0.51100000000E-03 0. -1.
     200002    1    4    4    0    0  0.36551935444E+02  0.17000194444E+03 -0.49458658204E+03  0.52512150236E+03  0.30000000000E+02 0. -1.
     200000    1    3    3    0    0  0.11140042816E+02 -0.22524126184E+03  0.15295301395E+02  0.24757357055E+03  0.10100000000E+03 0. -1.
    -200001    1    1    2    0    0 -0.41921681696E+02  0.64202359337E+02 -0.14794222386E+04  0.16032275354E+04  0.61300000000E+03 0.  1.
<mgrwt>
<rscale>  0 0.13614615E+04</rscale>
<asrwt>0</asrwt>
<pdfrwt beam="1">  1        2 0.31049954E+00 0.13614615E+04</pdfrwt>
<pdfrwt beam="2">  1       -2 0.30457461E-01 0.13614615E+04</pdfrwt>
<totfact> 0.63600999E+01</totfact>
</mgrwt>
</event>
<event>
 8    1  0.6972317E-052  0.1776276E+04  0.7818608E-02  0.8719018E-01
         -2   -1    0    0    0  501 -0.00000000000E+00  0.00000000000E+00  0.61407076018E+03  0.61407076018E+03  0.25500000000E-02 0. -1.
          2   -1    0    0  501    0  0.00000000000E+00 -0.00000000000E+00 -0.12845248139E+04  0.12845248139E+04  0.25500000000E-02 0.  1.
     200001    2    1    2    0    0  0.21240293644E+03  0.60347790973E+03 -0.40107161394E+03  0.97250891840E+03  0.61287401797E+03 0.  0.
    5000001    2    3    3    0    0 -0.19500096495E+03  0.11762405363E+03 -0.74173315562E+02  0.25202615952E+03  0.78451959923E+02 0.  0.
        -11    1    4    4    0    0 -0.99347394210E+01  0.23588264329E+01 -0.24309841895E+02  0.26367243366E+02  0.51100000000E-03 0. -1.
     200002    1    4    4    0    0 -0.18506622553E+03  0.11526522720E+03 -0.49863473667E+02  0.22565891615E+03  0.30000000000E+02 0. -1.
     200000    1    3    3    0    0  0.40740390139E+03  0.48585385610E+03 -0.32689829838E+03  0.72048275888E+03  0.10100000000E+03 0. -1.
    -200001    1    1    2    0    0 -0.21240293644E+03 -0.60347790973E+03 -0.26938243975E+03  0.92608665566E+03  0.61300000000E+03 0.  1.
<mgrwt>
<rscale>  0 0.17762760E+04</rscale>
<asrwt>0</asrwt>
<pdfrwt beam="1">  1        2 0.18350355E+00 0.17762760E+04</pdfrwt>
<pdfrwt beam="2">  1       -2 0.87724394E-01 0.17762760E+04</pdfrwt>
<totfact> 0.20367873E+01</totfact>
</mgrwt>
</event>
<event>
 8    1  0.6972317E-052  0.1359121E+04  0.7818608E-02  0.8983952E-01
         -2   -1    0    0    0  501 -0.00000000000E+00  0.00000000000E+00  0.35727736322E+03  0.35727736323E+03  0.25500000000E-02 0. -1.
          2   -1    0    0  501    0  0.00000000000E+00 -0.00000000000E+00 -0.12925606078E+04  0.12925606078E+04  0.25500000000E-02 0.  1.
     200001    2    1    2    0    0  0.14891847285E+03 -0.25314692880E+03 -0.47080821573E+03  0.82657244186E+03  0.61261859793E+03 0.  0.
    5000001    2    3    3    0    0 -0.13694204960E+03  0.10729450425E+03 -0.17936104757E+03  0.27269816300E+03  0.10921843769E+03 0.  0.
        -11    1    4    4    0    0 -0.14167832402E+03  0.94176749353E+02 -0.13402734685E+03  0.21657640065E+03  0.51100000000E-03 0. -1.
     200002    1    4    4    0    0  0.47362744179E+01  0.13117754897E+02 -0.45333700717E+02  0.56121762353E+02  0.30000000000E+02 0. -1.
     200000    1    3    3    0    0  0.28586052245E+03 -0.36044143305E+03 -0.29144716816E+03  0.55387427886E+03  0.10100000000E+03 0. -1.
    -200001    1    1    2    0    0 -0.14891847285E+03  0.25314692880E+03 -0.46447502887E+03  0.82326552919E+03  0.61300000000E+03 0.  1.
<mgrwt>
<rscale>  0 0.13591213E+04</rscale>
<asrwt>0</asrwt>
<pdfrwt beam="1">  1        2 0.18465151E+00 0.13591213E+04</pdfrwt>
<pdfrwt beam="2">  1       -2 0.51039624E-01 0.13591213E+04</pdfrwt>
<totfact> 0.67167675E+01</totfact>
</mgrwt>
</event>
<event>
 8    1  0.6972317E-052  0.1423386E+04  0.7818608E-02  0.8937062E-01
          2   -1    0    0  501    0  0.00000000000E+00  0.00000000000E+00  0.15150083698E+04  0.15150083698E+04  0.25500000000E-02 0.  1.
         -2   -1    0    0    0  501 -0.00000000000E+00 -0.00000000000E+00 -0.33432625976E+03  0.33432625977E+03  0.25500000000E-02 0. -1.
     200001    2    1    2    0    0 -0.29710511544E+03 -0.54948356473E+02  0.33358490346E+03  0.76092595224E+03  0.61354596036E+03 0.  0.
    5000001    2    3    3    0    0 -0.22188491592E+03  0.25113224945E+03  0.20850353968E+03  0.40710429758E+03  0.99799100304E+02 0.  0.
        -11    1    4    4    0    0 -0.12719263549E+03  0.85456423399E+02  0.64940710057E+02  0.16642734945E+03  0.51100000000E-03 0. -1.
     200002    1    4    4    0    0 -0.94692280436E+02  0.16567582605E+03  0.14356282962E+03  0.24067694813E+03  0.30000000000E+02 0. -1.
     200000    1    3    3    0    0 -0.75220199514E+02 -0.30608060593E+03  0.12508136379E+03  0.35382165466E+03  0.10100000000E+03 0. -1.
    -200001    1    1    2    0    0  0.29710511544E+03  0.54948356473E+02  0.84709720654E+03  0.10884086773E+04  0.61300000000E+03 0.  1.
<mgrwt>
<rscale>  0 0.14233862E+04</rscale>
<asrwt>0</asrwt>
<pdfrwt beam="1">  1        2 0.21642977E+00 0.14233862E+04</pdfrwt>
<pdfrwt beam="2">  1       -2 0.47760895E-01 0.14233862E+04</pdfrwt>
<totfact> 0.57974778E+01</totfact>
</mgrwt>
</event>
<event>
 8    1  0.6972317E-052  0.1732599E+04  0.7818608E-02  0.8742987E-01
          2   -1    0    0  501    0  0.00000000000E+00  0.00000000000E+00  0.15885135851E+04  0.15885135851E+04  0.25500000000E-02 0.  1.
         -2   -1    0    0    0  501 -0.00000000000E+00 -0.00000000000E+00 -0.47243845324E+03  0.47243845325E+03  0.25500000000E-02 0. -1.
     200001    2    1    2    0    0  0.28974642110E+03 -0.53654046291E+03  0.50067679938E+03  0.99967320387E+03  0.61387343990E+03 0.  0.
    5000001    2    3    3    0    0  0.19889535671E+03 -0.59269813952E+03  0.55820628762E+03  0.84181807230E+03  0.78822330657E+02 0.  0.
        -11    1    4    4    0    0  0.92870479966E+02 -0.36461998065E+03  0.35104430198E+03  0.51459183660E+03  0.51100000000E-03 0. -1.
     200002    1    4    4    0    0  0.10602487675E+03 -0.22807815886E+03  0.20716198564E+03  0.32722623571E+03  0.30000000000E+02 0. -1.
     200000    1    3    3    0    0  0.90851064389E+02  0.56157676610E+02 -0.57529488243E+02  0.15785513156E+03  0.10100000000E+03 0. -1.
    -200001    1    1    2    0    0 -0.28974642110E+03  0.53654046291E+03  0.61539833244E+03  0.10612788344E+04  0.61300000000E+03 0. -1.
<mgrwt>
<rscale>  0 0.17325991E+04</rscale>
<asrwt>0</asrwt>
<pdfrwt beam="1">  1        2 0.22693052E+00 0.17325991E+04</pdfrwt>
<pdfrwt beam="2">  1       -2 0.67491206E-01 0.17325991E+04</pdfrwt>
<totfact> 0.25132784E+01</totfact>
</mgrwt>
</event>
<event>
 8    1  0.6972317E-052  0.1844779E+04  0.7818608E-02  0.8682842E-01
          2   -1    0    0  501    0  0.00000000000E+00  0.00000000000E+00  0.32876675071E+04  0.32876675071E+04  0.25500000000E-02 0.  1.
         -2   -1    0    0    0  501 -0.00000000000E+00 -0.00000000000E+00 -0.25878609574E+03  0.25878609575E+03  0.25500000000E-02 0. -1.
     200001    2    1    2    0    0  0.10803497569E+03 -0.64679612028E+03  0.11130514602E+04  0.14307527310E+04  0.61494149896E+03 0.  0.
    5000001    2    3    3    0    0  0.22244715402E+03 -0.36067822797E+03  0.99043337307E+03  0.10840687393E+04  0.12114142351E+03 0.  0.
        -11    1    4    4    0    0  0.29562474091E+02 -0.78798404367E+02  0.32213119761E+03  0.33294389449E+03  0.51100000000E-03 0. -1.
     200002    1    4    4    0    0  0.19288467993E+03 -0.28187982360E+03  0.66830217546E+03  0.75112484477E+03  0.30000000000E+02 0. -1.
     200000    1    3    3    0    0 -0.11441217833E+03 -0.28611789231E+03  0.12261808708E+03  0.34668399174E+03  0.10100000000E+03 0. -1.
    -200001    1    1    2    0    0 -0.10803497569E+03  0.64679612028E+03  0.19158299512E+04  0.21157008718E+04  0.61300000000E+03 0. -1.
<mgrwt>
<rscale>  0 0.18447793E+04</rscale>
<asrwt>0</asrwt>
<pdfrwt beam="1">  1        2 0.46966680E+00 0.18447793E+04</pdfrwt>
<pdfrwt beam="2">  1       -2 0.36969441E-01 0.18447793E+04</pdfrwt>
<totfact> 0.10523125E+01</totfact>
</mgrwt>
</event>
<event>
 8    1  0.6972317E-052  0.1444482E+04  0.7818608E-02  0.8922235E-01
         -2   -1    0    0    0  501 -0.00000000000E+00  0.00000000000E+00  0.15470759910E+03  0.15470759912E+03  0.25500000000E-02 0. -1.
          2   -1    0    0  501    0  0.00000000000E+00 -0.00000000000E+00 -0.33717309758E+04  0.33717309758E+04  0.25500000000E-02 0.  1.
     200001    2    1    2    0    0  0.97773586858E+02 -0.18538157802E+03 -0.83151205857E+03  0.10545244881E+04  0.61374554067E+03 0.  0.
    5000001    2    3    3    0    0  0.27072170218E+03 -0.13635985495E+03 -0.78411704717E+03  0.84295542837E+03  0.62048855624E+02 0.  0.
        -11    1    4    4    0    0  0.95145506333E+02 -0.22499652363E+02 -0.26352883877E+03  0.28108068343E+03  0.51100000000E-03 0. -1.
     200002    1    4    4    0    0  0.17557619585E+03 -0.11386020259E+03 -0.52058820840E+03  0.56187474494E+03  0.30000000000E+02 0. -1.
     200000    1    3    3    0    0 -0.17294811532E+03 -0.49021723073E+02 -0.47395011400E+02  0.21156905972E+03  0.10100000000E+03 0.  1.
    -200001    1    1    2    0    0 -0.97773586858E+02  0.18538157802E+03 -0.23855113182E+04  0.24719140869E+04  0.61300000000E+03 0.  1.
<mgrwt>
<rscale>  0 0.14444825E+04</rscale>
<asrwt>0</asrwt>
<pdfrwt beam="1">  1        2 0.48167581E+00 0.14444825E+04</pdfrwt>
<pdfrwt beam="2">  1       -2 0.22101088E-01 0.14444825E+04</pdfrwt>
<totfact> 0.25259674E+01</totfact>
</mgrwt>
</event>
<event>
 8    1  0.6972317E-052  0.1466218E+04  0.7818608E-02  0.8907233E-01
          2   -1    0    0  501    0  0.00000000000E+00  0.00000000000E+00  0.37435921285E+04  0.37435921285E+04  0.25500000000E-02 0.  1.
         -2   -1    0    0    0  501 -0.00000000000E+00 -0.00000000000E+00 -0.14356507264E+03  0.14356507267E+03  0.25500000000E-02 0. -1.
     200001    2    1    2    0    0 -0.17355717165E+03 -0.34435028104E+03  0.20883708215E+04  0.22109791740E+04  0.61517234326E+03 0.  0.
    5000001    2    3    3    0    0  0.12039003929E+03 -0.15432399033E+03  0.15270103757E+04  0.15417695625E+04  0.83564591331E+02 0.  0.
        -11    1    4    4    0    0 -0.99326953135E+01 -0.19657238107E+02  0.21064778931E+03  0.21179602590E+03  0.51100000000E-03 0. -1.
     200002    1    4    4    0    0  0.13032273460E+03 -0.13466675222E+03  0.13163625864E+04  0.13299735366E+04  0.30000000000E+02 0. -1.
     200000    1    3    3    0    0 -0.29394721093E+03 -0.19002629071E+03  0.56136044583E+03  0.66920961150E+03  0.10100000000E+03 0.  1.
    -200001    1    1    2    0    0  0.17355717165E+03  0.34435028104E+03  0.15116562344E+04  0.16761780272E+04  0.61300000000E+03 0.  1.
<mgrwt>
<rscale>  0 0.14662184E+04</rscale>
<asrwt>0</asrwt>
<pdfrwt beam="1">  1        2 0.53479889E+00 0.14662184E+04</pdfrwt>
<pdfrwt beam="2">  1       -2 0.20509295E-01 0.14662184E+04</pdfrwt>
<totfact> 0.17002582E+01</totfact>
</mgrwt>
</event>
<event>
 8    1  0.6972317E-052  0.1656439E+04  0.7818608E-02  0.8786606E-01
          2   -1    0    0  501    0  0.00000000000E+00  0.00000000000E+00  0.96534351067E+03  0.96534351068E+03  0.25500000000E-02 0.  1.
         -2   -1    0    0    0  501 -0.00000000000E+00 -0.00000000000E+00 -0.71057337091E+03  0.71057337091E+03  0.25500000000E-02 0. -1.
     200001    2    1    2    0    0 -0.11778505899E+03 -0.32716478178E+03  0.56816653577E+03  0.90462159729E+03  0.61205956193E+03 0.  0.
    5000001    2    3    3    0    0 -0.30131894241E+03 -0.19042357786E+02  0.31064469409E+03  0.45169487752E+03  0.12795475752E+03 0.  0.
        -11    1    4    4    0    0 -0.21102146758E+03  0.41442711842E+02  0.20943430925E+03  0.30018375712E+03  0.51100000000E-03 0. -1.
     200002    1    4    4    0    0 -0.90297474831E+02 -0.60485069628E+02  0.10121038484E+03  0.15151112041E+03  0.30000000000E+02 0. -1.
     200000    1    3    3    0    0  0.18353388342E+03 -0.30812242399E+03  0.25752184169E+03  0.45292671976E+03  0.10100000000E+03 0. -1.
    -200001    1    1    2    0    0  0.11778505899E+03  0.32716478178E+03 -0.31339639601E+03  0.77129528430E+03  0.61300000000E+03 0. -1.
<mgrwt>
<rscale>  0 0.16564388E+04</rscale>
<asrwt>0</asrwt>
<pdfrwt beam="1">  1        2 0.13790621E+00 0.16564388E+04</pdfrwt>
<pdfrwt beam="2">  1       -2 0.10151048E+00 0.16564388E+04</pdfrwt>
<totfact> 0.22527215E+01</totfact>
</mgrwt>
</event>
<event>
 8    1  0.6972317E-052  0.1535360E+04  0.7818608E-02  0.8861274E-01
         -2   -1    0    0    0  501 -0.00000000000E+00  0.00000000000E+00  0.89444337601E+03  0.89444337601E+03  0.25500000000E-02 0. -1.
          2   -1    0    0  501    0  0.00000000000E+00 -0.00000000000E+00 -0.65888192484E+03  0.65888192485E+03  0.25500000000E-02 0.  1.
     200001    2    1    2    0    0 -0.86457090134E+02  0.40900971894E+03  0.31600998722E+03  0.80699779529E+03  0.61369320589E+03 0.  0.
    5000001    2    3    3    0    0 -0.58079825335E+02  0.55328030849E+03  0.27385203665E+03  0.62370140972E+03  0.67202266528E+02 0.  0.
        -11    1    4    4    0    0 -0.27206766239E+02  0.34141435805E+03  0.19115475728E+03  0.39222966900E+03  0.51100000000E-03 0. -1.
     200002    1    4    4    0    0 -0.30873059096E+02  0.21186595044E+03  0.82697279369E+02  0.23147174071E+03  0.30000000000E+02 0. -1.
     200000    1    3    3    0    0 -0.28377264799E+02 -0.14427058955E+03  0.42157950571E+02  0.18329638557E+03  0.10100000000E+03 0. -1.
    -200001    1    1    2    0    0  0.86457090134E+02 -0.40900971894E+03 -0.80448536054E+02  0.74632750557E+03  0.61300000000E+03 0. -1.
<mgrwt>
<rscale>  0 0.15353600E+04</rscale>
<asrwt>0</asrwt>
<pdfrwt beam="1">  1        2 0.94125989E-01 0.15353600E+04</pdfrwt>
<pdfrwt beam="2">  1       -2 0.12777763E+00 0.15353600E+04</pdfrwt>
<totfact> 0.21234784E+01</totfact>
</mgrwt>
</event>
<event>
 8    1  0.6972317E-052  0.1381437E+04  0.7818608E-02  0.8967366E-01
         -2   -1    0    0    0  501 -0.00000000000E+00  0.00000000000E+00  0.21597872498E+03  0.21597872499E+03  0.25500000000E-02 0. -1.
          2   -1    0    0  501    0  0.00000000000E+00 -0.00000000000E+00 -0.22089770320E+04  0.22089770320E+04  0.25500000000E-02 0.  1.
     200001    2    1    2    0    0  0.13326016405E+03  0.17250602853E+02 -0.15040374303E+04  0.16294008603E+04  0.61217866450E+03 0.  0.
    5000001    2    3    3    0    0 -0.51818953899E+02  0.10331603122E+03 -0.13415622346E+04  0.13496496725E+04  0.91682075459E+02 0.  0.
        -11    1    4    4    0    0  0.22953675512E+02  0.35223520898E+02 -0.38159794263E+03  0.38390696460E+03  0.51100000000E-03 0. -1.
     200002    1    4    4    0    0 -0.74772629411E+02  0.68092510319E+02 -0.95996429197E+03  0.96574270794E+03  0.30000000000E+02 0. -1.
     200000    1    3    3    0    0  0.18507911795E+03 -0.86065428364E+02 -0.16247519571E+03  0.27975118781E+03  0.10100000000E+03 0. -1.
    -200001    1    1    2    0    0 -0.13326016405E+03 -0.17250602853E+02 -0.48896087669E+03  0.79555489663E+03  0.61300000000E+03 0. -1.
<mgrwt>
<rscale>  0 0.13814370E+04</rscale>
<asrwt>0</asrwt>
<pdfrwt beam="1">  1        2 0.31556813E+00 0.13814370E+04</pdfrwt>
<pdfrwt beam="2">  1       -2 0.30854105E-01 0.13814370E+04</pdfrwt>
<totfact> 0.59431381E+01</totfact>
</mgrwt>
</event>
<event>
 8    1  0.6972317E-052  0.2534101E+04  0.7818608E-02  0.8390937E-01
         -2   -1    0    0    0  501 -0.00000000000E+00  0.00000000000E+00  0.11893624561E+04  0.11893624561E+04  0.25500000000E-02 0. -1.
          2   -1    0    0  501    0  0.00000000000E+00 -0.00000000000E+00 -0.13498133858E+04  0.13498133858E+04  0.25500000000E-02 0.  1.
     200001    2    1    2    0    0  0.73603450090E+03 -0.48045671162E+03 -0.75757852851E+03  0.13124257421E+04  0.61314815773E+03 0.  0.
    5000001    2    3    3    0    0  0.38572000150E+02 -0.32816396843E+03 -0.26914944457E+03  0.44155779018E+03  0.11555288481E+03 0.  0.
        -11    1    4    4    0    0 -0.10303523790E+02 -0.10862309651E+03 -0.14936720490E+03  0.18497486748E+03  0.51100000000E-03 0. -1.
     200002    1    4    4    0    0  0.48875523940E+02 -0.21954087192E+03 -0.11978223967E+03  0.25658292270E+03  0.30000000000E+02 0. -1.
     200000    1    3    3    0    0  0.69746250075E+03 -0.15229274319E+03 -0.48842908395E+03  0.87086795189E+03  0.10100000000E+03 0. -1.
    -200001    1    1    2    0    0 -0.73603450090E+03  0.48045671162E+03  0.59712759884E+03  0.12267500999E+04  0.61300000000E+03 0. -1.
<mgrwt>
<rscale>  0 0.25341013E+04</rscale>
<asrwt>0</asrwt>
<pdfrwt beam="1">  1        2 0.19283048E+00 0.25341013E+04</pdfrwt>
<pdfrwt beam="2">  1       -2 0.16990892E+00 0.25341013E+04</pdfrwt>
<totfact> 0.33657412E+00</totfact>
</mgrwt>
</event>
<event>
 8    1  0.6972317E-052  0.1545236E+04  0.7818608E-02  0.8854916E-01
         -2   -1    0    0    0  501 -0.00000000000E+00  0.00000000000E+00  0.39666587971E+03  0.39666587971E+03  0.25500000000E-02 0. -1.
          2   -1    0    0  501    0  0.00000000000E+00 -0.00000000000E+00 -0.15048910081E+04  0.15048910081E+04  0.25500000000E-02 0.  1.
     200001    2    1    2    0    0 -0.45211969236E+03  0.17823849542E+02 -0.71249139970E+03  0.10430092247E+04  0.61277593153E+03 0.  0.
    5000001    2    3    3    0    0 -0.46499257171E+03  0.22895494357E+03 -0.44871515182E+03  0.69013395090E+03  0.79379624448E+02 0.  0.
        -11    1    4    4    0    0 -0.18651736306E+03  0.12203280870E+03 -0.21864201356E+03  0.31222598101E+03  0.51100000000E-03 0. -1.
     200002    1    4    4    0    0 -0.27847520865E+03  0.10692213488E+03 -0.23007313826E+03  0.37790796989E+03  0.30000000000E+02 0.  1.
     200000    1    3    3    0    0  0.12872879351E+02 -0.21113109403E+03 -0.26377624788E+03  0.35287527376E+03  0.10100000000E+03 0. -1.
    -200001    1    1    2    0    0  0.45211969236E+03 -0.17823849542E+02 -0.39573372865E+03  0.85854766311E+03  0.61300000000E+03 0.  1.
<mgrwt>
<rscale>  0 0.15452364E+04</rscale>
<asrwt>0</asrwt>
<pdfrwt beam="1">  1        2 0.21498443E+00 0.15452364E+04</pdfrwt>
<pdfrwt beam="2">  1       -2 0.56666555E-01 0.15452364E+04</pdfrwt>
<totfact> 0.40939370E+01</totfact>
</mgrwt>
</event>
<event>
 8    1  0.6972317E-052  0.1753659E+04  0.7818608E-02  0.8731339E-01
         -2   -1    0    0    0  501 -0.00000000000E+00  0.00000000000E+00  0.71735274012E+03  0.71735274013E+03  0.25500000000E-02 0. -1.
          2   -1    0    0  501    0  0.00000000000E+00 -0.00000000000E+00 -0.10717598346E+04  0.10717598346E+04  0.25500000000E-02 0.  1.
     200001    2    1    2    0    0 -0.38593356252E+03 -0.12898151667E+03  0.30977739239E+03  0.79790574519E+03  0.61246273279E+03 0.  0.
    5000001    2    3    3    0    0 -0.41104730276E+03 -0.17437910591E+03 -0.14195706234E+02  0.45461110543E+03  0.84272067874E+02 0.  0.
        -11    1    4    4    0    0 -0.19782365067E+03 -0.83718237167E+02 -0.43436651093E+02  0.21915675362E+03  0.51100000000E-03 0. -1.
     200002    1    4    4    0    0 -0.21322365208E+03 -0.90660868744E+02  0.29240944859E+02  0.23545435181E+03  0.30000000000E+02 0. -1.
     200000    1    3    3    0    0  0.25113740234E+02  0.45397589244E+02  0.32397309863E+03  0.34329463976E+03  0.10100000000E+03 0.  1.
    -200001    1    1    2    0    0  0.38593356252E+03  0.12898151667E+03 -0.66418448687E+03  0.99120682954E+03  0.61300000000E+03 0.  1.
<mgrwt>
<rscale>  0 0.17536589E+04</rscale>
<asrwt>0</asrwt>
<pdfrwt beam="1">  1        2 0.15310855E+00 0.17536589E+04</pdfrwt>
<pdfrwt beam="2">  1       -2 0.10247896E+00 0.17536589E+04</pdfrwt>
<totfact> 0.18808951E+01</totfact>
</mgrwt>
</event>
<event>
 8    1  0.6972317E-052  0.1381217E+04  0.7818608E-02  0.8967528E-01
         -2   -1    0    0    0  501 -0.00000000000E+00  0.00000000000E+00  0.36829173445E+03  0.36829173446E+03  0.25500000000E-02 0. -1.
          2   -1    0    0  501    0  0.00000000000E+00 -0.00000000000E+00 -0.12950055771E+04  0.12950055771E+04  0.25500000000E-02 0.  1.
     200001    2    1    2    0    0 -0.29532362354E+03 -0.54806823830E+02 -0.58849872185E+03  0.90147167632E+03  0.61327041917E+03 0.  0.
    5000001    2    3    3    0    0 -0.42190302761E+03 -0.72954360025E+01 -0.59316455535E+03  0.73264499741E+03  0.82880120754E+02 0.  0.
        -11    1    4    4    0    0 -0.36961275943E+02  0.12810852448E+02 -0.89652459631E+02  0.97815220584E+02  0.51100000000E-03 0. -1.
     200002    1    4    4    0    0 -0.38494175167E+03 -0.20106288450E+02 -0.50351209572E+03  0.63482977682E+03  0.30000000000E+02 0. -1.
     200000    1    3    3    0    0  0.12657940407E+03 -0.47511387828E+02  0.46658334996E+01  0.16882667891E+03  0.10100000000E+03 0. -1.
    -200001    1    1    2    0    0  0.29532362354E+03  0.54806823830E+02 -0.33821512079E+03  0.76182563523E+03  0.61300000000E+03 0.  1.
<mgrwt>
<rscale>  0 0.13812166E+04</rscale>
<asrwt>0</asrwt>
<pdfrwt beam="1">  1        2 0.18500079E+00 0.13812166E+04</pdfrwt>
<pdfrwt beam="2">  1       -2 0.52613106E-01 0.13812166E+04</pdfrwt>
<totfact> 0.62814456E+01</totfact>
</mgrwt>
</event>
<event>
 8    1  0.6972317E-052  0.1855710E+04  0.7818608E-02  0.8677222E-01
          2   -1    0    0  501    0  0.00000000000E+00  0.00000000000E+00  0.44886901404E+04  0.44886901404E+04  0.25500000000E-02 0.  1.
         -2   -1    0    0    0  501 -0.00000000000E+00 -0.00000000000E+00 -0.19179649346E+03  0.19179649348E+03  0.25500000000E-02 0. -1.
     200001    2    1    2    0    0 -0.46921691150E+03  0.49151366919E+03  0.17860942436E+04  0.20081032705E+04  0.61692455047E+03 0.  0.
    5000001    2    3    3    0    0 -0.27232667448E+03  0.51064875364E+03  0.76371774356E+03  0.96187833068E+03  0.83792386098E+02 0.  0.
        -11    1    4    4    0    0 -0.14514999861E+03  0.21631264610E+03  0.30014340873E+03  0.39742389053E+03  0.51100000000E-03 0. -1.
     200002    1    4    4    0    0 -0.12717667587E+03  0.29433610754E+03  0.46357433484E+03  0.56445444015E+03  0.30000000000E+02 0. -1.
     200000    1    3    3    0    0 -0.19689023702E+03 -0.19135084457E+02  0.10223765000E+04  0.10462249398E+04  0.10100000000E+03 0.  1.
    -200001    1    1    2    0    0  0.46921691150E+03 -0.49151366919E+03  0.25107994033E+04  0.26723833633E+04  0.61300000000E+03 0.  1.
<mgrwt>
<rscale>  0 0.18557101E+04</rscale>
<asrwt>0</asrwt>
<pdfrwt beam="1">  1        2 0.64124139E+00 0.18557101E+04</pdfrwt>
<pdfrwt beam="2">  1       -2 0.27399502E-01 0.18557101E+04</pdfrwt>
<totfact> 0.28759089E+00</totfact>
</mgrwt>
</event>
<event>
 8    1  0.6972317E-052  0.2129326E+04  0.7818608E-02  0.8548434E-01
         -2   -1    0    0    0  501 -0.00000000000E+00  0.00000000000E+00  0.59819645294E+03  0.59819645294E+03  0.25500000000E-02 0. -1.
          2   -1    0    0  501    0  0.00000000000E+00 -0.00000000000E+00 -0.18948741681E+04  0.18948741681E+04  0.25500000000E-02 0.  1.
     200001    2    1    2    0    0 -0.42958946521E+03 -0.54704611821E+03 -0.35118197829E+02  0.92746914563E+03  0.61250237894E+03 0.  0.
    5000001    2    3    3    0    0  0.32320112797E+02 -0.12584393771E+03  0.17243007610E+03  0.26109911244E+03  0.14683095390E+03 0.  0.
        -11    1    4    4    0    0  0.52666385599E+02 -0.13175717451E+03  0.82916561164E+02  0.16434371702E+03  0.51100000000E-03 0. -1.
     200002    1    4    4    0    0 -0.20346272802E+02  0.59132368089E+01  0.89513514939E+02  0.96755395422E+02  0.30000000000E+02 0. -1.
     200000    1    3    3    0    0 -0.46190957800E+03 -0.42120218051E+03 -0.20754827393E+03  0.66637003319E+03  0.10100000000E+03 0. -1.
    -200001    1    1    2    0    0  0.42958946521E+03  0.54704611821E+03 -0.12615595174E+04  0.15656014755E+04  0.61300000000E+03 0.  1.
<mgrwt>
<rscale>  0 0.21293257E+04</rscale>
<asrwt>0</asrwt>
<pdfrwt beam="1">  1        2 0.27069631E+00 0.21293257E+04</pdfrwt>
<pdfrwt beam="2">  1       -2 0.85456637E-01 0.21293257E+04</pdfrwt>
<totfact> 0.99910950E+00</totfact>
</mgrwt>
</event>
<event>
 8    1  0.6972317E-052  0.1730889E+04  0.7818608E-02  0.8743941E-01
          2   -1    0    0  501    0  0.00000000000E+00  0.00000000000E+00  0.93279086888E+03  0.93279086888E+03  0.25500000000E-02 0. -1.
         -2   -1    0    0    0  501 -0.00000000000E+00 -0.00000000000E+00 -0.80296074006E+03  0.80296074006E+03  0.25500000000E-02 0.  1.
     200001    2    1    2    0    0  0.63941439535E+02  0.73932931801E+02  0.66930888043E+03  0.91333996656E+03  0.61372708186E+03 0.  0.
    5000001    2    3    3    0    0  0.30665043526E+03  0.12492508771E+03  0.43238467361E+03  0.55579005907E+03  0.11092933250E+03 0.  0.
        -11    1    4    4    0    0  0.84895343519E+02  0.32329863761E+02  0.51475951103E+02  0.10441366282E+03  0.51100000000E-03 0. -1.
     200002    1    4    4    0    0  0.22175509174E+03  0.92595223947E+02  0.38090872251E+03  0.45137639625E+03  0.30000000000E+02 0. -1.
     200000    1    3    3    0    0 -0.24270899572E+03 -0.50992155908E+02  0.23692420682E+03  0.35754990749E+03  0.10100000000E+03 0. -1.
    -200001    1    1    2    0    0 -0.63941439535E+02 -0.73932931801E+02 -0.53947875160E+03  0.82241164238E+03  0.61300000000E+03 0.  1.
<mgrwt>
<rscale>  0 0.17308893E+04</rscale>
<asrwt>0</asrwt>
<pdfrwt beam="1">  1        2 0.13325584E+00 0.17308893E+04</pdfrwt>
<pdfrwt beam="2">  1       -2 0.11470868E+00 0.17308893E+04</pdfrwt>
<totfact> 0.17490138E+01</totfact>
</mgrwt>
</event>
<event>
 8    1  0.6972317E-052  0.1805797E+04  0.7818608E-02  0.8703223E-01
          2   -1    0    0  501    0  0.00000000000E+00  0.00000000000E+00  0.26366092688E+04  0.26366092688E+04  0.25500000000E-02 0.  1.
         -2   -1    0    0    0  501 -0.00000000000E+00 -0.00000000000E+00 -0.30919484173E+03  0.30919484174E+03  0.25500000000E-02 0. -1.
     200001    2    1    2    0    0 -0.32122147530E+03  0.40767005711E+02  0.21973414226E+03  0.72703635164E+03  0.61274266897E+03 0.  0.
    5000001    2    3    3    0    0 -0.31876109576E+03 -0.16175696183E+03 -0.15693430298E+01  0.41049529033E+03  0.20181667343E+03 0.  0.
        -11    1    4    4    0    0 -0.23380292413E+03 -0.10627358728E+03  0.88393027148E+02  0.27160856013E+03  0.51100000000E-03 0. -1.
     200002    1    4    4    0    0 -0.84958171629E+02 -0.55483374549E+02 -0.89962370177E+02  0.13888673020E+03  0.30000000000E+02 0. -1.
     200000    1    3    3    0    0 -0.24603795457E+01  0.20252396754E+03  0.22130348529E+03  0.31654106131E+03  0.10100000000E+03 0.  1.
    -200001    1    1    2    0    0  0.32122147530E+03 -0.40767005711E+02  0.21076802848E+04  0.22187677589E+04  0.61300000000E+03 0.  1.
<mgrwt>
<rscale>  0 0.18057973E+04</rscale>
<asrwt>0</asrwt>
<pdfrwt beam="1">  1        2 0.37665850E+00 0.18057973E+04</pdfrwt>
<pdfrwt beam="2">  1       -2 0.44170688E-01 0.18057973E+04</pdfrwt>
<totfact> 0.17164977E+01</totfact>
</mgrwt>
</event>
<event>
 8    1  0.6972317E-052  0.1348887E+04  0.7818608E-02  0.8991671E-01
         -2   -1    0    0    0  501 -0.00000000000E+00  0.00000000000E+00  0.27812245872E+03  0.27812245873E+03  0.25500000000E-02 0. -1.
          2   -1    0    0  501    0  0.00000000000E+00 -0.00000000000E+00 -0.16355164836E+04  0.16355164836E+04  0.25500000000E-02 0.  1.
     200001    2    1    2    0    0  0.13222327374E+03 -0.22857751800E+02 -0.10297265147E+04  0.12057261877E+04  0.61272626328E+03 0.  0.
    5000001    2    3    3    0    0  0.49606376439E+02 -0.81918279615E+02 -0.10526739851E+04  0.10606700467E+04  0.87903536690E+02 0.  0.
        -11    1    4    4    0    0  0.61077852321E+01 -0.12012183801E+02 -0.56659992904E+03  0.56676015843E+03  0.51100000000E-03 0. -1.
     200002    1    4    4    0    0  0.43498591207E+02 -0.69906095813E+02 -0.48607405610E+03  0.49390988822E+03  0.30000000000E+02 0. -1.
     200000    1    3    3    0    0  0.82616897303E+02  0.59060527814E+02  0.22947470412E+02  0.14505614108E+03  0.10100000000E+03 0. -1.
    -200001    1    1    2    0    0 -0.13222327374E+03  0.22857751800E+02 -0.32766751019E+03  0.70791275463E+03  0.61300000000E+03 0. -1.
<mgrwt>
<rscale>  0 0.13488867E+04</rscale>
<asrwt>0</asrwt>
<pdfrwt beam="1">  1        2 0.23364521E+00 0.13488867E+04</pdfrwt>
<pdfrwt beam="2">  1       -2 0.39731781E-01 0.13488867E+04</pdfrwt>
<totfact> 0.72586421E+01</totfact>
</mgrwt>
</event>
<event>
 8    1  0.6972317E-052  0.1581536E+04  0.7818608E-02  0.8831972E-01
         -2   -1    0    0    0  501 -0.00000000000E+00  0.00000000000E+00  0.26531483352E+03  0.26531483353E+03  0.25500000000E-02 0. -1.
          2   -1    0    0  501    0  0.00000000000E+00 -0.00000000000E+00 -0.23568758759E+04  0.23568758759E+04  0.25500000000E-02 0.  1.
     200001    2    1    2    0    0  0.29924756435E+03  0.74232405174E+02 -0.16975613823E+04  0.18309484666E+04  0.61286057606E+03 0.  0.
    5000001    2    3    3    0    0  0.35208742534E+03 -0.36968952214E+01 -0.55394357194E+03  0.67902497821E+03  0.17390289827E+03 0.  0.
        -11    1    4    4    0    0  0.73608786070E+02 -0.39572851789E+02 -0.25254419429E+03  0.26601284566E+03  0.51100000000E-03 0. -1.
     200002    1    4    4    0    0  0.27847863927E+03  0.35875956568E+02 -0.30139937764E+03  0.41301213255E+03  0.30000000000E+02 0. -1.
     200000    1    3    3    0    0 -0.52839860991E+02  0.77929300395E+02 -0.11436178104E+04  0.11519234884E+04  0.10100000000E+03 0.  1.
    -200001    1    1    2    0    0 -0.29924756435E+03 -0.74232405174E+02 -0.39399966000E+03  0.79124224283E+03  0.61300000000E+03 0. -1.
<mgrwt>
<rscale>  0 0.15815361E+04</rscale>
<asrwt>0</asrwt>
<pdfrwt beam="1">  1        2 0.33669654E+00 0.15815361E+04</pdfrwt>
<pdfrwt beam="2">  1       -2 0.37902120E-01 0.15815361E+04</pdfrwt>
<totfact> 0.33147991E+01</totfact>
</mgrwt>
</event>
<event>
 8    1  0.6972317E-052  0.1334966E+04  0.7818608E-02  0.9002288E-01
         -2   -1    0    0    0  501 -0.00000000000E+00  0.00000000000E+00  0.21158325030E+03  0.21158325032E+03  0.25500000000E-02 0. -1.
          2   -1    0    0  501    0  0.00000000000E+00 -0.00000000000E+00 -0.21057113430E+04  0.21057113430E+04  0.25500000000E-02 0.  1.
     200001    2    1    2    0    0 -0.42662973903E+02  0.26064311366E+03 -0.92882868744E+03  0.11436988776E+04  0.61283719705E+03 0.  0.
    5000001    2    3    3    0    0  0.95736797318E+02  0.25716249553E+03 -0.92862104995E+03  0.97232894303E+03  0.88252113698E+02 0.  0.
        -11    1    4    4    0    0  0.79443248009E+02  0.14891300664E+03 -0.64805619041E+03  0.66967390507E+03  0.51100000000E-03 0. -1.
     200002    1    4    4    0    0  0.16293549309E+02  0.10824948889E+03 -0.28056485955E+03  0.30265503797E+03  0.30000000000E+02 0. -1.
     200000    1    3    3    0    0 -0.13839977122E+03  0.34806181286E+01 -0.20763748419E+00  0.17136993462E+03  0.10100000000E+03 0. -1.
    -200001    1    1    2    0    0  0.42662973903E+02 -0.26064311366E+03 -0.96529940522E+03  0.11735957156E+04  0.61300000000E+03 0. -1.
<mgrwt>
<rscale>  0 0.13349655E+04</rscale>
<asrwt>0</asrwt>
<pdfrwt beam="1">  1        2 0.30081589E+00 0.13349655E+04</pdfrwt>
<pdfrwt beam="2">  1       -2 0.30226180E-01 0.13349655E+04</pdfrwt>
<totfact> 0.70043234E+01</totfact>
</mgrwt>
</event>
<event>
 8    1  0.6972317E-052  0.1607630E+04  0.7818608E-02  0.8815874E-01
         -2   -1    0    0    0  501 -0.00000000000E+00  0.00000000000E+00  0.18664894898E+03  0.18664894900E+03  0.25500000000E-02 0. -1.
          2   -1    0    0  501    0  0.00000000000E+00 -0.00000000000E+00 -0.34616783403E+04  0.34616783403E+04  0.25500000000E-02 0.  1.
     200001    2    1    2    0    0 -0.20534875954E+02  0.23326440129E+03 -0.26912318081E+04  0.27700206343E+04  0.61274114225E+03 0.  0.
    5000001    2    3    3    0    0 -0.23118439869E+03  0.27905439148E+03 -0.11072048464E+04  0.11682053016E+04  0.86507081769E+02 0.  0.
        -11    1    4    4    0    0 -0.11799439146E+03  0.19201896731E+03 -0.71862326281E+03  0.75313568105E+03  0.51100000000E-03 0. -1.
     200002    1    4    4    0    0 -0.11319000723E+03  0.87035424168E+02 -0.38858158356E+03  0.41506962052E+03  0.30000000000E+02 0.  1.
     200000    1    3    3    0    0  0.21064952273E+03 -0.45789990187E+02 -0.15840269618E+04  0.16018153328E+04  0.10100000000E+03 0.  1.
    -200001    1    1    2    0    0  0.20534875954E+02 -0.23326440129E+03 -0.58379758317E+03  0.87830665496E+03  0.61300000000E+03 0. -1.
<mgrwt>
<rscale>  0 0.16076301E+04</rscale>
<asrwt>0</asrwt>
<pdfrwt beam="1">  1        2 0.49452544E+00 0.16076301E+04</pdfrwt>
<pdfrwt beam="2">  1       -2 0.26664138E-01 0.16076301E+04</pdfrwt>
<totfact> 0.15660164E+01</totfact>
</mgrwt>
</event>
<event>
 8    1  0.6972317E-052  0.2271184E+04  0.7818608E-02  0.8489370E-01
          2   -1    0    0  501    0  0.00000000000E+00  0.00000000000E+00  0.30832800555E+04  0.30832800555E+04  0.25500000000E-02 0.  1.
         -2   -1    0    0    0  501 -0.00000000000E+00 -0.00000000000E+00 -0.41824601809E+03  0.41824601810E+03  0.25500000000E-02 0. -1.
     200001    2    1    2    0    0 -0.56988744941E+03 -0.76400579110E+03  0.14025295540E+04  0.18050110797E+04  0.61846527323E+03 0.  0.
    5000001    2    3    3    0    0 -0.36222154434E+02  0.37682609604E+02  0.40360114302E+03  0.41376634597E+03  0.74677191132E+02 0.  0.
        -11    1    4    4    0    0  0.91771847991E+01  0.34550861546E+02  0.18901860393E+03  0.19236947623E+03  0.51100000000E-03 0. -1.
     200002    1    4    4    0    0 -0.45399339233E+02  0.31317480580E+01  0.21458253909E+03  0.22139686974E+03  0.30000000000E+02 0. -1.
     200000    1    3    3    0    0 -0.53366529497E+03 -0.80168840071E+03  0.99892841102E+03  0.13912447338E+04  0.10100000000E+03 0.  1.
    -200001    1    1    2    0    0  0.56988744941E+03  0.76400579110E+03  0.12625044834E+04  0.16965149938E+04  0.61300000000E+03 0. -1.
<mgrwt>
<rscale>  0 0.22711844E+04</rscale>
<asrwt>0</asrwt>
<pdfrwt beam="1">  1        2 0.44046857E+00 0.22711844E+04</pdfrwt>
<pdfrwt beam="2">  1       -2 0.59749432E-01 0.22711844E+04</pdfrwt>
<totfact> 0.50501589E+00</totfact>
</mgrwt>
</event>
<event>
 8    1  0.6972317E-052  0.1921534E+04  0.7818608E-02  0.8644211E-01
          2   -1    0    0  501    0  0.00000000000E+00  0.00000000000E+00  0.64729654009E+03  0.64729654010E+03  0.25500000000E-02 0.  1.
         -2   -1    0    0    0  501 -0.00000000000E+00 -0.00000000000E+00 -0.14260444366E+04  0.14260444366E+04  0.25500000000E-02 0. -1.
     200001    2    1    2    0    0 -0.56103526711E+03  0.45044069429E+03 -0.20432316450E+03  0.96727128506E+03  0.61335829116E+03 0.  0.
    5000001    2    3    3    0    0 -0.63168320680E+03  0.47766035922E+03 -0.95720151386E+02  0.80075505162E+03  0.69736739216E+02 0.  0.
        -11    1    4    4    0    0 -0.94836838673E+02  0.99386376848E+02 -0.23744300006E+02  0.13941115327E+03  0.51100000000E-03 0. -1.
     200002    1    4    4    0    0 -0.53684636812E+03  0.37827398237E+03 -0.71975851380E+02  0.66134389835E+03  0.30000000000E+02 0. -1.
     200000    1    3    3    0    0  0.70647939687E+02 -0.27219664928E+02 -0.10860301311E+03  0.16651623344E+03  0.10100000000E+03 0. -1.
    -200001    1    1    2    0    0  0.56103526711E+03 -0.45044069429E+03 -0.57442473200E+03  0.11060696916E+04  0.61300000000E+03 0. -1.
<mgrwt>
<rscale>  0 0.19215344E+04</rscale>
<asrwt>0</asrwt>
<pdfrwt beam="1">  1        2 0.92470935E-01 0.19215344E+04</pdfrwt>
<pdfrwt beam="2">  1       -2 0.20372063E+00 0.19215344E+04</pdfrwt>
<totfact> 0.58393997E+00</totfact>
</mgrwt>
</event>
<event>
 8    1  0.6972317E-052  0.1345600E+04  0.7818608E-02  0.8994166E-01
         -2   -1    0    0    0  501 -0.00000000000E+00  0.00000000000E+00  0.13297263032E+03  0.13297263034E+03  0.25500000000E-02 0. -1.
          2   -1    0    0  501    0  0.00000000000E+00 -0.00000000000E+00 -0.34041581128E+04  0.34041581128E+04  0.25500000000E-02 0.  1.
     200001    2    1    2    0    0 -0.29986264183E+02 -0.10356609924E+03 -0.96211998941E+03  0.11456505395E+04  0.61254809750E+03 0.  0.
    5000001    2    3    3    0    0 -0.63110626809E+01 -0.29942025590E+03 -0.82365839667E+03  0.88432319976E+03  0.11799172883E+03 0.  0.
        -11    1    4    4    0    0 -0.32707646703E+02 -0.11556392750E+03 -0.45293182358E+03  0.46858515587E+03  0.51100000000E-03 0. -1.
     200002    1    4    4    0    0  0.26396584023E+02 -0.18385632840E+03 -0.37072657309E+03  0.41573804389E+03  0.30000000000E+02 0. -1.
     200000    1    3    3    0    0 -0.23675201502E+02  0.19585415666E+03 -0.13846159273E+03  0.26132733977E+03  0.10100000000E+03 0.  1.
    -200001    1    1    2    0    0  0.29986264183E+02  0.10356609924E+03 -0.23090654931E+04  0.23914802036E+04  0.61300000000E+03 0.  1.
<mgrwt>
<rscale>  0 0.13456000E+04</rscale>
<asrwt>0</asrwt>
<pdfrwt beam="1">  1        2 0.48630825E+00 0.13456000E+04</pdfrwt>
<pdfrwt beam="2">  1       -2 0.18996092E-01 0.13456000E+04</pdfrwt>
<totfact> 0.31867089E+01</totfact>
</mgrwt>
</event>
<event>
 8    1  0.6972317E-052  0.1608183E+04  0.7818608E-02  0.8815536E-01
          2   -1    0    0  501    0  0.00000000000E+00  0.00000000000E+00  0.33821929335E+04  0.33821929335E+04  0.25500000000E-02 0.  1.
         -2   -1    0    0    0  501 -0.00000000000E+00 -0.00000000000E+00 -0.19116692765E+03  0.19116692767E+03  0.25500000000E-02 0. -1.
     200001    2    1    2    0    0 -0.58175294843E+02  0.93935402928E+02  0.46892535651E+03  0.78090410145E+03  0.61458278598E+03 0.  0.
    5000001    2    3    3    0    0 -0.29678897769E+03  0.16919950223E+03  0.27027795963E+03  0.44584744568E+03  0.94961047429E+02 0.  0.
        -11    1    4    4    0    0 -0.20501108566E+03  0.15494880274E+03  0.19531268704E+03  0.32277813190E+03  0.51100000000E-03 0. -1.
     200002    1    4    4    0    0 -0.91777892026E+02  0.14250699495E+02  0.74965272585E+02  0.12306931378E+03  0.30000000000E+02 0. -1.
     200000    1    3    3    0    0  0.23861368284E+03 -0.75264099303E+02  0.19864739688E+03  0.33505665577E+03  0.10100000000E+03 0.  1.
    -200001    1    1    2    0    0  0.58175294843E+02 -0.93935402928E+02  0.27221006493E+04  0.27924557597E+04  0.61300000000E+03 0.  1.
<mgrwt>
<rscale>  0 0.16081834E+04</rscale>
<asrwt>0</asrwt>
<pdfrwt beam="1">  1        2 0.48317040E+00 0.16081834E+04</pdfrwt>
<pdfrwt beam="2">  1       -2 0.27309562E-01 0.16081834E+04</pdfrwt>
<totfact> 0.16723231E+01</totfact>
</mgrwt>
</event>
<event>
 8    1  0.6972317E-052  0.2813636E+04  0.7818608E-02  0.8299047E-01
          2   -1    0    0  501    0  0.00000000000E+00  0.00000000000E+00  0.25343247779E+04  0.25343247779E+04  0.25500000000E-02 0.  1.
         -2   -1    0    0    0  501 -0.00000000000E+00 -0.00000000000E+00 -0.78093256951E+03  0.78093256952E+03  0.25500000000E-02 0. -1.
     200001    2    1    2    0    0 -0.16663774846E+03  0.12192797942E+04  0.52848689209E+03  0.14739063788E+04  0.61537814595E+03 0.  0.
    5000001    2    3    3    0    0 -0.20142110149E+03  0.86114968939E+03  0.62945323160E+03  0.10867859126E+04  0.52373670623E+02 0.  0.
        -11    1    4    4    0    0 -0.11013566541E+03  0.41432022446E+03  0.31586182174E+03  0.53250333673E+03  0.51100000000E-03 0. -1.
     200002    1    4    4    0    0 -0.91285436081E+02  0.44682946492E+03  0.31359140986E+03  0.55428257586E+03  0.30000000000E+02 0. -1.
     200000    1    3    3    0    0  0.34783353032E+02  0.35813010482E+03 -0.10096633951E+03  0.38712046619E+03  0.10100000000E+03 0. -1.
    -200001    1    1    2    0    0  0.16663774846E+03 -0.12192797942E+04  0.12249053163E+04  0.18413509686E+04  0.61300000000E+03 0.  1.
<mgrwt>
<rscale>  0 0.28136359E+04</rscale>
<asrwt>0</asrwt>
<pdfrwt beam="1">  1        2 0.36204640E+00 0.28136359E+04</pdfrwt>
<pdfrwt beam="2">  1       -2 0.11156180E+00 0.28136359E+04</pdfrwt>
<totfact> 0.23487440E+00</totfact>
</mgrwt>
</event>
<event>
 8    1  0.6972317E-052  0.1807749E+04  0.7818608E-02  0.8702190E-01
         -2   -1    0    0    0  501 -0.00000000000E+00  0.00000000000E+00  0.16832845267E+04  0.16832845267E+04  0.25500000000E-02 0. -1.
          2   -1    0    0  501    0  0.00000000000E+00 -0.00000000000E+00 -0.48535389458E+03  0.48535389459E+03  0.25500000000E-02 0.  1.
     200001    2    1    2    0    0 -0.34660517239E+03  0.47582127785E+03  0.23000683837E+03  0.88054428479E+03  0.61311830653E+03 0.  0.
    5000001    2    3    3    0    0 -0.20828299733E+03 -0.10227624562E+02  0.27878870009E+03  0.36289843126E+03  0.10239980874E+03 0.  0.
        -11    1    4    4    0    0 -0.45069414664E+02  0.31028468284E+02  0.10878947163E+03  0.12177506772E+03  0.51100000000E-03 0. -1.
     200002    1    4    4    0    0 -0.16321358266E+03 -0.41256092846E+02  0.16999922846E+03  0.24112336353E+03  0.30000000000E+02 0. -1.
     200000    1    3    3    0    0 -0.13832217506E+03  0.48604890242E+03 -0.48781861716E+02  0.51764585354E+03  0.10100000000E+03 0.  1.
    -200001    1    1    2    0    0  0.34660517239E+03 -0.47582127785E+03  0.96792379374E+03  0.12880941365E+04  0.61300000000E+03 0. -1.
<mgrwt>
<rscale>  0 0.18077485E+04</rscale>
<asrwt>0</asrwt>
<pdfrwt beam="1">  1        2 0.69336271E-01 0.18077485E+04</pdfrwt>
<pdfrwt beam="2">  1       -2 0.24046922E+00 0.18077485E+04</pdfrwt>
<totfact> 0.48352345E+00</totfact>
</mgrwt>
</event>
<event>
 8    1  0.6972317E-052  0.2208526E+04  0.7818608E-02  0.8514888E-01
         -2   -1    0    0    0  501 -0.00000000000E+00  0.00000000000E+00  0.78120333018E+03  0.78120333019E+03  0.25500000000E-02 0. -1.
          2   -1    0    0  501    0  0.00000000000E+00 -0.00000000000E+00 -0.15609213605E+04  0.15609213605E+04  0.25500000000E-02 0.  1.
     200001    2    1    2    0    0 -0.18202962922E+03  0.76251371367E+03 -0.89727670274E+03  0.13400513446E+04  0.61324560782E+03 0.  0.
    5000001    2    3    3    0    0 -0.31080986071E+03  0.40714079382E+03 -0.76887150891E+03  0.92827087643E+03  0.90316262743E+02 0.  0.
        -11    1    4    4    0    0 -0.63783460509E+01  0.28615011975E+02 -0.76817047060E+02  0.82221414048E+02  0.51100000000E-03 0. -1.
     200002    1    4    4    0    0 -0.30443151465E+03  0.37852578185E+03 -0.69205446185E+03  0.84604946238E+03  0.30000000000E+02 0. -1.
     200000    1    3    3    0    0  0.12878023149E+03  0.35537291985E+03 -0.12840519383E+03  0.41178046819E+03  0.10100000000E+03 0.  1.
    -200001    1    1    2    0    0  0.18202962922E+03 -0.76251371367E+03  0.11755867242E+03  0.10020733461E+04  0.61300000000E+03 0.  1.
<mgrwt>
<rscale>  0 0.22085262E+04</rscale>
<asrwt>0</asrwt>
<pdfrwt beam="1">  1        2 0.22298876E+00 0.22085262E+04</pdfrwt>
<pdfrwt beam="2">  1       -2 0.11160048E+00 0.22085262E+04</pdfrwt>
<totfact> 0.79025353E+00</totfact>
</mgrwt>
</event>
<event>
 8    1  0.6972317E-052  0.1328137E+04  0.7818608E-02  0.9007545E-01
         -2   -1    0    0    0  501 -0.00000000000E+00  0.00000000000E+00  0.11037001507E+04  0.11037001507E+04  0.25500000000E-02 0. -1.
          2   -1    0    0  501    0  0.00000000000E+00 -0.00000000000E+00 -0.39955298750E+03  0.39955298751E+03  0.25500000000E-02 0.  1.
     200001    2    1    2    0    0 -0.78461566050E+02 -0.11537802229E+03  0.59138321622E+03  0.86454114277E+03  0.61500323068E+03 0.  0.
    5000001    2    3    3    0    0 -0.27692454361E+03 -0.60683096521E+02  0.47169072193E+03  0.60587846368E+03  0.25343033469E+03 0.  0.
        -11    1    4    4    0    0 -0.26019994091E+03  0.44051349337E+02  0.37919197699E+03  0.46198602364E+03  0.51100000000E-03 0. -1.
     200002    1    4    4    0    0 -0.16724602698E+02 -0.10473444586E+03  0.92498744937E+02  0.14389244004E+03  0.30000000000E+02 0. -1.
     200000    1    3    3    0    0  0.19846297756E+03 -0.54694925770E+02  0.11969249429E+03  0.25866267909E+03  0.10100000000E+03 0. -1.
    -200001    1    1    2    0    0  0.78461566050E+02  0.11537802229E+03  0.11276394699E+03  0.63871199544E+03  0.61300000000E+03 0.  1.
<mgrwt>
<rscale>  0 0.13281366E+04</rscale>
<asrwt>0</asrwt>
<pdfrwt beam="1">  1        2 0.57078997E-01 0.13281366E+04</pdfrwt>
<pdfrwt beam="2">  1       -2 0.15767145E+00 0.13281366E+04</pdfrwt>
<totfact> 0.22214137E+01</totfact>
</mgrwt>
</event>
<event>
 8    1  0.6972317E-052  0.1560575E+04  0.7818608E-02  0.8845141E-01
         -2   -1    0    0    0  501 -0.00000000000E+00  0.00000000000E+00  0.42660482104E+03  0.42660482104E+03  0.25500000000E-02 0. -1.
          2   -1    0    0  501    0  0.00000000000E+00 -0.00000000000E+00 -0.14271950558E+04  0.14271950558E+04  0.25500000000E-02 0.  1.
     200001    2    1    2    0    0 -0.15979744397E+03 -0.17075020586E+03  0.41388112536E+00  0.65694186691E+03  0.61390682461E+03 0.  0.
    5000001    2    3    3    0    0  0.46649964548E+02  0.29899678154E+02  0.24618701428E+03  0.26516853778E+03  0.81462245732E+02 0.  0.
        -11    1    4    4    0    0  0.50278006003E+02 -0.64569972828E+01  0.14137139054E+03  0.15018468885E+03  0.51100000000E-03 0. -1.
     200002    1    4    4    0    0 -0.36280414555E+01  0.36356675437E+02  0.10481562375E+03  0.11498384893E+03  0.30000000000E+02 0.  1.
     200000    1    3    3    0    0 -0.20644740851E+03 -0.20064988402E+03 -0.24577313316E+03  0.39177332913E+03  0.10100000000E+03 0. -1.
    -200001    1    1    2    0    0  0.15979744397E+03  0.17075020586E+03 -0.10010041159E+04  0.11968580099E+04  0.61300000000E+03 0.  1.
<mgrwt>
<rscale>  0 0.15605746E+04</rscale>
<asrwt>0</asrwt>
<pdfrwt beam="1">  1        2 0.20388501E+00 0.15605746E+04</pdfrwt>
<pdfrwt beam="2">  1       -2 0.60943547E-01 0.15605746E+04</pdfrwt>
<totfact> 0.38614521E+01</totfact>
</mgrwt>
</event>
<event>
 8    1  0.6972317E-052  0.1281879E+04  0.7818608E-02  0.9044060E-01
          2   -1    0    0  501    0  0.00000000000E+00  0.00000000000E+00  0.26650145638E+04  0.26650145638E+04  0.25500000000E-02 0.  1.
         -2   -1    0    0    0  501 -0.00000000000E+00 -0.00000000000E+00 -0.15414674227E+03  0.15414674229E+03  0.25500000000E-02 0. -1.
     200001    2    1    2    0    0  0.43586870936E+02  0.18933201639E+03  0.13285693375E+04  0.14732990794E+04  0.60643817925E+03 0.  0.
    5000001    2    3    3    0    0  0.88109888940E+02  0.17610986029E+03  0.13444458604E+04  0.13610039837E+04  0.77583096368E+02 0.  0.
        -11    1    4    4    0    0  0.27745018282E+02  0.42482171843E+02  0.18122555816E+03  0.18819464364E+03  0.51100000000E-03 0. -1.
     200002    1    4    4    0    0  0.60364870658E+02  0.13362768845E+03  0.11632203022E+04  0.11728093401E+04  0.30000000000E+02 0. -1.
     200000    1    3    3    0    0 -0.44523018004E+02  0.13222156097E+02 -0.15876522884E+02  0.11229509572E+03  0.10100000000E+03 0. -1.
    -200001    1    1    2    0    0 -0.43586870936E+02 -0.18933201639E+03  0.11822984841E+04  0.13458622267E+04  0.61300000000E+03 0. -1.
<mgrwt>
<rscale>  0 0.12818788E+04</rscale>
<asrwt>0</asrwt>
<pdfrwt beam="1">  1        2 0.38071638E+00 0.12818788E+04</pdfrwt>
<pdfrwt beam="2">  1       -2 0.22020962E-01 0.12818788E+04</pdfrwt>
<totfact> 0.64041423E+01</totfact>
</mgrwt>
</event>
<event>
 8    1  0.6972317E-052  0.1650768E+04  0.7818608E-02  0.8789953E-01
          2   -1    0    0  501    0  0.00000000000E+00  0.00000000000E+00  0.20895066861E+04  0.20895066861E+04  0.25500000000E-02 0.  1.
         -2   -1    0    0    0  501 -0.00000000000E+00 -0.00000000000E+00 -0.32603790629E+03  0.32603790630E+03  0.25500000000E-02 0. -1.
     200001    2    1    2    0    0 -0.19800021349E+03 -0.36626191627E+03  0.14140035697E+04  0.15962480594E+04  0.61257644122E+03 0.  0.
    5000001    2    3    3    0    0 -0.23726844131E+03 -0.25305928776E+03  0.13389955044E+04  0.14225125171E+04  0.33211080090E+03 0.  0.
        -11    1    4    4    0    0  0.14930640546E+02  0.67516408644E+02  0.24480147446E+03  0.25437993506E+03  0.51100000000E-03 0. -1.
     200002    1    4    4    0    0 -0.25219908185E+03 -0.32057569640E+03  0.10941940299E+04  0.11681325820E+04  0.30000000000E+02 0. -1.
     200000    1    3    3    0    0  0.39268227818E+02 -0.11320262852E+03  0.75008065257E+02  0.17373554234E+03  0.10100000000E+03 0. -1.
    -200001    1    1    2    0    0  0.19800021349E+03  0.36626191627E+03  0.34946521015E+03  0.81929653299E+03  0.61300000000E+03 0. -1.
<mgrwt>
<rscale>  0 0.16507676E+04</rscale>
<asrwt>0</asrwt>
<pdfrwt beam="1">  1        2 0.29850097E+00 0.16507676E+04</pdfrwt>
<pdfrwt beam="2">  1       -2 0.46576842E-01 0.16507676E+04</pdfrwt>
<totfact> 0.30176790E+01</totfact>
</mgrwt>
</event>
<event>
 8    1  0.6972317E-052  0.1434225E+04  0.7818608E-02  0.8929411E-01
         -2   -1    0    0    0  501 -0.00000000000E+00  0.00000000000E+00  0.31694541738E+03  0.31694541739E+03  0.25500000000E-02 0. -1.
          2   -1    0    0  501    0  0.00000000000E+00 -0.00000000000E+00 -0.16225192208E+04  0.16225192208E+04  0.25500000000E-02 0.  1.
     200001    2    1    2    0    0  0.32605090399E+03 -0.17289022933E+03 -0.71478246877E+03  0.10115618284E+04  0.61330508847E+03 0.  0.
    5000001    2    3    3    0    0  0.18731400884E+03 -0.14854104309E+03  0.25641062010E+02  0.25112194653E+03  0.72483022689E+02 0.  0.
        -11    1    4    4    0    0  0.85504465387E+02 -0.61694800368E+02 -0.18507935014E+02  0.10705048179E+03  0.51100000000E-03 0. -1.
     200002    1    4    4    0    0  0.10180954345E+03 -0.86846242722E+02  0.44148997024E+02  0.14407146474E+03  0.30000000000E+02 0.  1.
     200000    1    3    3    0    0  0.13873689515E+03 -0.24349186237E+02 -0.74042353078E+03  0.76043988183E+03  0.10100000000E+03 0.  1.
    -200001    1    1    2    0    0 -0.32605090399E+03  0.17289022933E+03 -0.59079133463E+03  0.92790280981E+03  0.61300000000E+03 0. -1.
<mgrwt>
<rscale>  0 0.14342246E+04</rscale>
<asrwt>0</asrwt>
<pdfrwt beam="1">  1        2 0.23178846E+00 0.14342246E+04</pdfrwt>
<pdfrwt beam="2">  1       -2 0.45277918E-01 0.14342246E+04</pdfrwt>
<totfact> 0.56601231E+01</totfact>
</mgrwt>
</event>
<event>
 8    1  0.6972317E-052  0.1600899E+04  0.7818608E-02  0.8819996E-01
         -2   -1    0    0    0  501 -0.00000000000E+00  0.00000000000E+00  0.25777183834E+03  0.25777183835E+03  0.25500000000E-02 0. -1.
          2   -1    0    0  501    0  0.00000000000E+00 -0.00000000000E+00 -0.24856057178E+04  0.24856057178E+04  0.25500000000E-02 0.  1.
     200001    2    1    2    0    0  0.91269224383E+02 -0.49682554124E+03 -0.12904105619E+04  0.15146802110E+04  0.61149900531E+03 0.  0.
    5000001    2    3    3    0    0 -0.21979174481E+03 -0.56800669860E+02 -0.32069432376E+03  0.40070920753E+03  0.78665701058E+02 0.  0.
        -11    1    4    4    0    0 -0.19228529638E+03 -0.51136721388E+02 -0.25956499595E+03  0.32705135163E+03  0.51100000000E-03 0. -1.
     200002    1    4    4    0    0 -0.27506448432E+02 -0.56639484722E+01 -0.61129327813E+02  0.73657855905E+02  0.30000000000E+02 0.  1.
     200000    1    3    3    0    0  0.31106096920E+03 -0.44002487138E+03 -0.96971623816E+03  0.11139710035E+04  0.10100000000E+03 0. -1.
    -200001    1    1    2    0    0 -0.91269224383E+02  0.49682554124E+03 -0.93742331751E+03  0.12286973451E+04  0.61300000000E+03 0. -1.
<mgrwt>
<rscale>  0 0.16008987E+04</rscale>
<asrwt>0</asrwt>
<pdfrwt beam="1">  1        2 0.35508652E+00 0.16008987E+04</pdfrwt>
<pdfrwt beam="2">  1       -2 0.36824550E-01 0.16008987E+04</pdfrwt>
<totfact> 0.29970706E+01</totfact>
</mgrwt>
</event>
<event>
 8    1  0.6972317E-052  0.2203817E+04  0.7818608E-02  0.8516841E-01
          2   -1    0    0  501    0  0.00000000000E+00  0.00000000000E+00  0.38909335285E+04  0.38909335285E+04  0.25500000000E-02 0.  1.
         -2   -1    0    0    0  501 -0.00000000000E+00 -0.00000000000E+00 -0.31205927764E+03  0.31205927765E+03  0.25500000000E-02 0. -1.
     200001    2    1    2    0    0 -0.37940494759E+03 -0.35456873958E+03  0.32278369271E+04  0.33262583492E+04  0.61269590517E+03 0.  0.
    5000001    2    3    3    0    0 -0.50893470240E+03 -0.32950326068E+03  0.21476351844E+04  0.22333525708E+04  0.89106059686E+02 0.  0.
        -11    1    4    4    0    0 -0.28547076826E+03 -0.13885144093E+03  0.11312143570E+04  0.11749124238E+04  0.51100000000E-03 0. -1.
     200002    1    4    4    0    0 -0.22346393414E+03 -0.19065181975E+03  0.10164208274E+04  0.10584401470E+04  0.30000000000E+02 0. -1.
     200000    1    3    3    0    0  0.12952975481E+03 -0.25065478899E+02  0.10802017426E+04  0.10929057784E+04  0.10100000000E+03 0. -1.
    -200001    1    1    2    0    0  0.37940494759E+03  0.35456873958E+03  0.35103732375E+03  0.87673445695E+03  0.61300000000E+03 0. -1.
<mgrwt>
<rscale>  0 0.22038166E+04</rscale>
<asrwt>0</asrwt>
<pdfrwt beam="1">  1        2 0.55584764E+00 0.22038166E+04</pdfrwt>
<pdfrwt beam="2">  1       -2 0.44579897E-01 0.22038166E+04</pdfrwt>
<totfact> 0.29683504E+00</totfact>
</mgrwt>
</event>
<event>
 8    1  0.6972317E-052  0.1332302E+04  0.7818608E-02  0.9004334E-01
          2   -1    0    0  501    0  0.00000000000E+00  0.00000000000E+00  0.19443257031E+04  0.19443257031E+04  0.25500000000E-02 0.  1.
         -2   -1    0    0    0  501 -0.00000000000E+00 -0.00000000000E+00 -0.22823203867E+03  0.22823203868E+03  0.25500000000E-02 0. -1.
     200001    2    1    2    0    0  0.59367572414E+02 -0.49065715374E+02  0.45406052273E+03  0.76741411788E+03  0.61385789637E+03 0.  0.
    5000001    2    3    3    0    0 -0.11091651419E+03  0.15727693138E+02  0.50452388886E+03  0.55307231781E+03  0.19696395823E+03 0.  0.
        -11    1    4    4    0    0  0.14676758588E+02  0.62244637160E+02  0.30016198287E+03  0.30689903561E+03  0.51100000000E-03 0. -1.
     200002    1    4    4    0    0 -0.12559327278E+03 -0.46516944022E+02  0.20436190599E+03  0.24617328220E+03  0.30000000000E+02 0. -1.
     200000    1    3    3    0    0  0.17028408660E+03 -0.64793408512E+02 -0.50463366129E+02  0.21434180007E+03  0.10100000000E+03 0. -1.
    -200001    1    1    2    0    0 -0.59367572414E+02  0.49065715374E+02  0.12620331417E+04  0.14051436240E+04  0.61300000000E+03 0.  1.
<mgrwt>
<rscale>  0 0.13323024E+04</rscale>
<asrwt>0</asrwt>
<pdfrwt beam="1">  1        2 0.27776081E+00 0.13323024E+04</pdfrwt>
<pdfrwt beam="2">  1       -2 0.32604577E-01 0.13323024E+04</pdfrwt>
<totfact> 0.73546176E+01</totfact>
</mgrwt>
</event>
<event>
 8    1  0.6972317E-052  0.1298943E+04  0.7818608E-02  0.9030404E-01
          2   -1    0    0  501    0  0.00000000000E+00  0.00000000000E+00  0.53070213820E+03  0.53070213820E+03  0.25500000000E-02 0.  1.
         -2   -1    0    0    0  501 -0.00000000000E+00 -0.00000000000E+00 -0.79482138502E+03  0.79482138502E+03  0.25500000000E-02 0. -1.
     200001    2    1    2    0    0 -0.96396194264E+02  0.10429119368E+03 -0.29551769251E+03  0.69550468086E+03  0.61337360162E+03 0.  0.
    5000001    2    3    3    0    0  0.19229591502E+03  0.18672429050E+03 -0.21435960704E+02  0.27662505003E+03  0.64947966061E+02 0.  0.
        -11    1    4    4    0    0  0.54454864565E+02  0.52733485523E+02  0.18454741092E+02  0.78017499570E+02  0.51100000000E-03 0. -1.
     200002    1    4    4    0    0  0.13784105046E+03  0.13399080498E+03 -0.39890701796E+02  0.19860755046E+03  0.30000000000E+02 0. -1.
     200000    1    3    3    0    0 -0.28869210929E+03 -0.82433096822E+02 -0.27408173181E+03  0.41887963083E+03  0.10100000000E+03 0. -1.
    -200001    1    1    2    0    0  0.96396194264E+02 -0.10429119368E+03  0.31398445688E+02  0.63001884237E+03  0.61300000000E+03 0.  1.
<mgrwt>
<rscale>  0 0.12989433E+04</rscale>
<asrwt>0</asrwt>
<pdfrwt beam="1">  1        2 0.75814591E-01 0.12989433E+04</pdfrwt>
<pdfrwt beam="2">  1       -2 0.11354591E+00 0.12989433E+04</pdfrwt>
<totfact> 0.37417710E+01</totfact>
</mgrwt>
</event>
<event>
 8    1  0.6972317E-052  0.1319273E+04  0.7818608E-02  0.9014420E-01
          2   -1    0    0  501    0  0.00000000000E+00  0.00000000000E+00  0.81487177056E+03  0.81487177057E+03  0.25500000000E-02 0.  1.
         -2   -1    0    0    0  501 -0.00000000000E+00 -0.00000000000E+00 -0.53397370676E+03  0.53397370677E+03  0.25500000000E-02 0. -1.
     200001    2    1    2    0    0  0.15300067821E+03 -0.18794649628E+03  0.12181634627E+03  0.67075323741E+03  0.61346360143E+03 0.  0.
    5000001    2    3    3    0    0  0.93545679368E+02  0.14449765288E+03  0.20066193389E+03  0.30954466070E+03  0.16100409757E+03 0.  0.
        -11    1    4    4    0    0  0.90856751626E+02  0.17213100904E+03  0.17034446158E+03  0.25865279659E+03  0.51100000000E-03 0. -1.
     200002    1    4    4    0    0  0.26889277413E+01 -0.27633356162E+02  0.30317472310E+02  0.50891864109E+02  0.30000000000E+02 0. -1.
     200000    1    3    3    0    0  0.59454998838E+02 -0.33244414917E+03 -0.78845587621E+02  0.36120857671E+03  0.10100000000E+03 0.  1.
    -200001    1    1    2    0    0 -0.15300067821E+03  0.18794649628E+03  0.15908171753E+03  0.67809223993E+03  0.61300000000E+03 0.  1.
<mgrwt>
<rscale>  0 0.13192727E+04</rscale>
<asrwt>0</asrwt>
<pdfrwt beam="1">  1        2 0.11641025E+00 0.13192727E+04</pdfrwt>
<pdfrwt beam="2">  1       -2 0.76281958E-01 0.13192727E+04</pdfrwt>
<totfact> 0.55950437E+01</totfact>
</mgrwt>
</event>
<event>
 8    1  0.6972317E-052  0.1500738E+04  0.7818608E-02  0.8883963E-01
          2   -1    0    0  501    0  0.00000000000E+00  0.00000000000E+00  0.78272249013E+03  0.78272249014E+03  0.25500000000E-02 0.  1.
         -2   -1    0    0    0  501 -0.00000000000E+00 -0.00000000000E+00 -0.71935243736E+03  0.71935243737E+03  0.25500000000E-02 0. -1.
     200001    2    1    2    0    0 -0.43186523203E+03  0.24623640794E+02  0.74140259712E+01  0.74973592197E+03  0.61231942855E+03 0.  0.
    5000001    2    3    3    0    0  0.13605787236E+03  0.60475595837E+02  0.73709174503E+01  0.17178867780E+03  0.85369649598E+02 0.  0.
        -11    1    4    4    0    0  0.18393368097E+02  0.27943217254E+02 -0.25251213396E+02  0.41913758585E+02  0.51100000000E-03 0. -1.
     200002    1    4    4    0    0  0.11766450426E+03  0.32532378583E+02  0.32622130846E+02  0.12987491921E+03  0.30000000000E+02 0. -1.
     200000    1    3    3    0    0 -0.56792310439E+03 -0.35851955043E+02  0.43108520891E-01  0.57794724417E+03  0.10100000000E+03 0.  1.
    -200001    1    1    2    0    0  0.43186523203E+03 -0.24623640794E+02  0.55956026797E+02  0.75233900554E+03  0.61300000000E+03 0.  1.
<mgrwt>
<rscale>  0 0.15007376E+04</rscale>
<asrwt>0</asrwt>
<pdfrwt beam="1">  1        2 0.11181750E+00 0.15007376E+04</pdfrwt>
<pdfrwt beam="2">  1       -2 0.10276463E+00 0.15007376E+04</pdfrwt>
<totfact> 0.29299342E+01</totfact>
</mgrwt>
</event>
<event>
 8    1  0.6972317E-052  0.1532869E+04  0.7818608E-02  0.8862885E-01
          2   -1    0    0  501    0  0.00000000000E+00  0.00000000000E+00  0.12081833562E+04  0.12081833562E+04  0.25500000000E-02 0.  1.
         -2   -1    0    0    0  501 -0.00000000000E+00 -0.00000000000E+00 -0.48620273799E+03  0.48620273800E+03  0.25500000000E-02 0. -1.
     200001    2    1    2    0    0  0.30677038942E+03 -0.33631248034E+03  0.28585762488E+03  0.81507589775E+03  0.61271525289E+03 0.  0.
    5000001    2    3    3    0    0  0.29114689227E+03 -0.36494573461E+03  0.42728466686E+03  0.63825235543E+03  0.82716265545E+02 0.  0.
        -11    1    4    4    0    0  0.20787443895E+03 -0.21719077717E+03  0.29362224697E+03  0.42023521981E+03  0.51100000000E-03 0. -1.
     200002    1    4    4    0    0  0.83272453327E+02 -0.14775495744E+03  0.13366241990E+03  0.21801713562E+03  0.30000000000E+02 0. -1.
     200000    1    3    3    0    0  0.15623497151E+02  0.28633254271E+02 -0.14142704198E+03  0.17682354232E+03  0.10100000000E+03 0. -1.
    -200001    1    1    2    0    0 -0.30677038942E+03  0.33631248034E+03  0.43612299333E+03  0.87931019645E+03  0.61300000000E+03 0.  1.
<mgrwt>
<rscale>  0 0.15328693E+04</rscale>
<asrwt>0</asrwt>
<pdfrwt beam="1">  1        2 0.17259762E+00 0.15328693E+04</pdfrwt>
<pdfrwt beam="2">  1       -2 0.69457534E-01 0.15328693E+04</pdfrwt>
<totfact> 0.38604570E+01</totfact>
</mgrwt>
</event>
<event>
 8    1  0.6972317E-052  0.1499610E+04  0.7818608E-02  0.8884713E-01
         -2   -1    0    0    0  501 -0.00000000000E+00  0.00000000000E+00  0.24965942936E+04  0.24965942936E+04  0.25500000000E-02 0. -1.
          2   -1    0    0  501    0  0.00000000000E+00 -0.00000000000E+00 -0.22518966330E+03  0.22518966331E+03  0.25500000000E-02 0.  1.
     200001    2    1    2    0    0  0.11625463663E+03  0.39044614408E+03  0.87176997737E+03  0.11404207812E+04  0.61205664172E+03 0.  0.
    5000001    2    3    3    0    0 -0.13286771552E+03 -0.92652731942E+02  0.19748726077E+03  0.26846627990E+03  0.82671438303E+02 0.  0.
        -11    1    4    4    0    0 -0.91485972403E+01 -0.12461537302E+02  0.68699730536E+02  0.70417609441E+02  0.51100000000E-03 0. -1.
     200002    1    4    4    0    0 -0.12371911828E+03 -0.80191194640E+02  0.12878753024E+03  0.19804867046E+03  0.30000000000E+02 0. -1.
     200000    1    3    3    0    0  0.24912235215E+03  0.48309887603E+03  0.67428271660E+03  0.87195450126E+03  0.10100000000E+03 0. -1.
    -200001    1    1    2    0    0 -0.11625463663E+03 -0.39044614408E+03  0.13996346529E+04  0.15813631757E+04  0.61300000000E+03 0.  1.
<mgrwt>
<rscale>  0 0.14996096E+04</rscale>
<asrwt>0</asrwt>
<pdfrwt beam="1">  1        2 0.32169953E-01 0.14996096E+04</pdfrwt>
<pdfrwt beam="2">  1       -2 0.35665631E+00 0.14996096E+04</pdfrwt>
<totfact> 0.22665255E+00</totfact>
</mgrwt>
</event>
<event>
 8    1  0.6972317E-052  0.1674080E+04  0.7818608E-02  0.8776287E-01
         -2   -1    0    0    0  501 -0.00000000000E+00  0.00000000000E+00  0.71782605765E+03  0.71782605765E+03  0.25500000000E-02 0. -1.
          2   -1    0    0  501    0  0.00000000000E+00 -0.00000000000E+00 -0.97605200496E+03  0.97605200497E+03  0.25500000000E-02 0.  1.
     200001    2    1    2    0    0  0.73145198815E+02  0.39764479628E+03 -0.53082809814E+03  0.91058211807E+03  0.61960448663E+03 0.  0.
    5000001    2    3    3    0    0  0.12788919609E+03 -0.81739500595E+02 -0.34181783644E+03  0.38263127911E+03  0.80810086072E+02 0.  0.
        -11    1    4    4    0    0  0.83327679414E+02 -0.19183201314E+02 -0.13291381065E+03  0.15804296388E+03  0.51100000000E-03 0. -1.
     200002    1    4    4    0    0  0.44561516677E+02 -0.62556299281E+02 -0.20890402579E+03  0.22458831523E+03  0.30000000000E+02 0. -1.
     200000    1    3    3    0    0 -0.54743997276E+02  0.47938429688E+03 -0.18901026170E+03  0.52795083896E+03  0.10100000000E+03 0. -1.
    -200001    1    1    2    0    0 -0.73145198815E+02 -0.39764479628E+03  0.27260215082E+03  0.78329594455E+03  0.61300000000E+03 0. -1.
<mgrwt>
<rscale>  0 0.16740795E+04</rscale>
<asrwt>0</asrwt>
<pdfrwt beam="1">  1        2 0.13943600E+00 0.16740795E+04</pdfrwt>
<pdfrwt beam="2">  1       -2 0.10254658E+00 0.16740795E+04</pdfrwt>
<totfact> 0.21620881E+01</totfact>
</mgrwt>
</event>
<event>
 8    1  0.6972317E-052  0.1323551E+04  0.7818608E-02  0.9011095E-01
          2   -1    0    0  501    0  0.00000000000E+00  0.00000000000E+00  0.41592585700E+03  0.41592585701E+03  0.25500000000E-02 0.  1.
         -2   -1    0    0    0  501 -0.00000000000E+00 -0.00000000000E+00 -0.10529446100E+04  0.10529446100E+04  0.25500000000E-02 0. -1.
     200001    2    1    2    0    0 -0.10504311803E+03 -0.42905308182E+02 -0.73128623549E+02  0.62826592255E+03  0.61359217053E+03 0.  0.
    5000001    2    3    3    0    0  0.12224754428E+03 -0.82015471583E+02  0.10230799182E+03  0.32139517440E+03  0.26675256939E+03 0.  0.
        -11    1    4    4    0    0  0.13911663803E+03 -0.11723327551E+03  0.16228715700E+03  0.24379130663E+03  0.51100000000E-03 0. -1.
     200002    1    4    4    0    0 -0.16869093748E+02  0.35217803923E+02 -0.59979165176E+02  0.77603867766E+02  0.30000000000E+02 0. -1.
     200000    1    3    3    0    0 -0.22729066231E+03  0.39110163402E+02 -0.17543661537E+03  0.30687074815E+03  0.10100000000E+03 0.  1.
    -200001    1    1    2    0    0  0.10504311803E+03  0.42905308182E+02 -0.56389012949E+03  0.84060454451E+03  0.61300000000E+03 0. -1.
<mgrwt>
<rscale>  0 0.13235511E+04</rscale>
<asrwt>0</asrwt>
<pdfrwt beam="1">  1        2 0.59417980E-01 0.13235511E+04</pdfrwt>
<pdfrwt beam="2">  1       -2 0.15042066E+00 0.13235511E+04</pdfrwt>
<totfact> 0.24100153E+01</totfact>
</mgrwt>
</event>
<event>
 8    1  0.6972317E-052  0.1318253E+04  0.7818608E-02  0.9015214E-01
         -2   -1    0    0    0  501 -0.00000000000E+00  0.00000000000E+00  0.54649818704E+03  0.54649818705E+03  0.25500000000E-02 0. -1.
          2   -1    0    0  501    0  0.00000000000E+00 -0.00000000000E+00 -0.79496691049E+03  0.79496691049E+03  0.25500000000E-02 0.  1.
     200001    2    1    2    0    0  0.47319070850E+02  0.53642466609E+02  0.11087510483E+03  0.62731273592E+03  0.61327919506E+03 0.  0.
    5000001    2    3    3    0    0  0.29687534894E+03  0.11457850736E+03  0.10077782698E+03  0.35109815988E+03  0.10886018695E+03 0.  0.
        -11    1    4    4    0    0  0.25253133994E+03  0.11672615381E+03  0.10498106082E+03  0.29735180471E+03  0.51100000000E-03 0. -1.
     200002    1    4    4    0    0  0.44344009000E+02 -0.21476464472E+01 -0.42032338328E+01  0.53746355170E+02  0.30000000000E+02 0.  1.
     200000    1    3    3    0    0 -0.24955627809E+03 -0.60936040748E+02  0.10097277846E+02  0.27621457604E+03  0.10100000000E+03 0. -1.
    -200001    1    1    2    0    0 -0.47319070850E+02 -0.53642466609E+02 -0.35934382828E+03  0.71415236162E+03  0.61300000000E+03 0.  1.
<mgrwt>
<rscale>  0 0.13182534E+04</rscale>
<asrwt>0</asrwt>
<pdfrwt beam="1">  1        2 0.11356670E+00 0.13182534E+04</pdfrwt>
<pdfrwt beam="2">  1       -2 0.78071170E-01 0.13182534E+04</pdfrwt>
<totfact> 0.54865013E+01</totfact>
</mgrwt>
</event>
<event>
 8    1  0.6972317E-052  0.1239652E+04  0.7818608E-02  0.9078840E-01
          2   -1    0    0  501    0  0.00000000000E+00  0.00000000000E+00  0.87376829753E+03  0.87376829754E+03  0.25500000000E-02 0.  1.
         -2   -1    0    0    0  501 -0.00000000000E+00 -0.00000000000E+00 -0.43968675046E+03  0.43968675047E+03  0.25500000000E-02 0. -1.
     200001    2    1    2    0    0  0.89325592946E+02 -0.20448297699E+02  0.22593896477E+03  0.65962821389E+03  0.61291416228E+03 0.  0.
    5000001    2    3    3    0    0 -0.23224940094E+03  0.84260185144E+02  0.61267920943E+02  0.27015177591E+03  0.90491219747E+02 0.  0.
        -11    1    4    4    0    0 -0.18829924216E+03  0.86889547351E+02  0.33487665348E+02  0.21006623186E+03  0.51100000000E-03 0. -1.
     200002    1    4    4    0    0 -0.43950158776E+02 -0.26293622074E+01  0.27780255595E+02  0.60085544043E+02  0.30000000000E+02 0. -1.
     200000    1    3    3    0    0  0.32157499389E+03 -0.10470848284E+03  0.16467104382E+03  0.38947643798E+03  0.10100000000E+03 0. -1.
    -200001    1    1    2    0    0 -0.89325592946E+02  0.20448297699E+02  0.20814258231E+03  0.65382683411E+03  0.61300000000E+03 0.  1.
<mgrwt>
<rscale>  0 0.12396521E+04</rscale>
<asrwt>0</asrwt>
<pdfrwt beam="1">  1        2 0.12482404E+00 0.12396521E+04</pdfrwt>
<pdfrwt beam="2">  1       -2 0.62812395E-01 0.12396521E+04</pdfrwt>
<totfact> 0.78328407E+01</totfact>
</mgrwt>
</event>
<event>
 8    1  0.6972317E-052  0.1361134E+04  0.7818608E-02  0.8982443E-01
         -2   -1    0    0    0  501 -0.00000000000E+00  0.00000000000E+00  0.31075361484E+03  0.31075361485E+03  0.25500000000E-02 0. -1.
          2   -1    0    0  501    0  0.00000000000E+00 -0.00000000000E+00 -0.14904770173E+04  0.14904770173E+04  0.25500000000E-02 0.  1.
     200001    2    1    2    0    0 -0.20508836297E+03 -0.13108844794E+02 -0.87130040407E+03  0.10849019197E+04  0.61287413284E+03 0.  0.
    5000001    2    3    3    0    0 -0.98092180979E+02 -0.19589681532E+03 -0.11914663134E+03  0.29699588277E+03  0.16128545006E+03 0.  0.
        -11    1    4    4    0    0 -0.12338797945E+03 -0.19366112823E+03 -0.11678573383E+03  0.25762013447E+03  0.51100000000E-03 0. -1.
     200002    1    4    4    0    0  0.25295798475E+02 -0.22356870980E+01 -0.23608975184E+01  0.39375748302E+02  0.30000000000E+02 0. -1.
     200000    1    3    3    0    0 -0.10699618199E+03  0.18278797053E+03 -0.75215377272E+03  0.78790603688E+03  0.10100000000E+03 0.  1.
    -200001    1    1    2    0    0  0.20508836297E+03  0.13108844794E+02 -0.30842299841E+03  0.71632871252E+03  0.61300000000E+03 0. -1.
<mgrwt>
<rscale>  0 0.13611335E+04</rscale>
<asrwt>0</asrwt>
<pdfrwt beam="1">  1        2 0.21292529E+00 0.13611335E+04</pdfrwt>
<pdfrwt beam="2">  1       -2 0.44393374E-01 0.13611335E+04</pdfrwt>
<totfact> 0.69493165E+01</totfact>
</mgrwt>
</event>
<event>
 8    1  0.6972317E-052  0.1318211E+04  0.7818608E-02  0.9015247E-01
         -2   -1    0    0    0  501 -0.00000000000E+00  0.00000000000E+00  0.22842298783E+04  0.22842298783E+04  0.25500000000E-02 0. -1.
          2   -1    0    0  501    0  0.00000000000E+00 -0.00000000000E+00 -0.19018228839E+03  0.19018228840E+03  0.25500000000E-02 0.  1.
     200001    2    1    2    0    0  0.28759504869E+02  0.67613673440E+02  0.64085536729E+03  0.89550895439E+03  0.62116178863E+03 0.  0.
    5000001    2    3    3    0    0  0.72584076927E+02 -0.82303382228E+02  0.68599080754E+03  0.70410904670E+03  0.11464670367E+03 0.  0.
        -11    1    4    4    0    0  0.75715199152E+02 -0.33219987650E+02  0.22838557856E+03  0.24289160433E+03  0.51100000000E-03 0. -1.
     200002    1    4    4    0    0 -0.31311222255E+01 -0.49083394577E+02  0.45760522898E+03  0.46121744237E+03  0.30000000000E+02 0. -1.
     200000    1    3    3    0    0 -0.43824572058E+02  0.14991705567E+03 -0.45135440255E+02  0.19139990769E+03  0.10100000000E+03 0.  1.
    -200001    1    1    2    0    0 -0.28759504869E+02 -0.67613673440E+02  0.14531922226E+04  0.15789032123E+04  0.61300000000E+03 0. -1.
<mgrwt>
<rscale>  0 0.13182110E+04</rscale>
<asrwt>0</asrwt>
<pdfrwt beam="1">  1        2 0.27168900E-01 0.13182110E+04</pdfrwt>
<pdfrwt beam="2">  1       -2 0.32631853E+00 0.13182110E+04</pdfrwt>
<totfact> 0.43146798E+00</totfact>
</mgrwt>
</event>
<event>
 8    1  0.6972317E-052  0.1725007E+04  0.7818608E-02  0.8747229E-01
         -2   -1    0    0    0  501 -0.00000000000E+00  0.00000000000E+00  0.10169327780E+04  0.10169327780E+04  0.25500000000E-02 0. -1.
          2   -1    0    0  501    0  0.00000000000E+00 -0.00000000000E+00 -0.73152550844E+03  0.73152550845E+03  0.25500000000E-02 0.  1.
     200001    2    1    2    0    0 -0.34051669986E+03 -0.47577794644E+02  0.64925750089E+03  0.95702208549E+03  0.61330310633E+03 0.  0.
    5000001    2    3    3    0    0 -0.38837995415E+01  0.21652637855E+03  0.12665583496E+03  0.27409732748E+03  0.11040329657E+03 0.  0.
        -11    1    4    4    0    0  0.23225421261E+01  0.74051772341E+02  0.10235348089E+03  0.12635384537E+03  0.51100000000E-03 0. -1.
     200002    1    4    4    0    0 -0.62063416676E+01  0.14247460621E+03  0.24302354065E+02  0.14774348211E+03  0.30000000000E+02 0. -1.
     200000    1    3    3    0    0 -0.33663290032E+03 -0.26410417320E+03  0.52260166593E+03  0.68292475801E+03  0.10100000000E+03 0. -1.
    -200001    1    1    2    0    0  0.34051669986E+03  0.47577794644E+02 -0.36385023130E+03  0.79143620099E+03  0.61300000000E+03 0.  1.
<mgrwt>
<rscale>  0 0.17250070E+04</rscale>
<asrwt>0</asrwt>
<pdfrwt beam="1">  1        2 0.10450365E+00 0.17250070E+04</pdfrwt>
<pdfrwt beam="2">  1       -2 0.14527611E+00 0.17250070E+04</pdfrwt>
<totfact> 0.13223157E+01</totfact>
</mgrwt>
</event>
<event>
 8    1  0.6972317E-052  0.1632469E+04  0.7818608E-02  0.8800845E-01
         -2   -1    0    0    0  501 -0.00000000000E+00  0.00000000000E+00  0.10709463562E+04  0.10709463562E+04  0.25500000000E-02 0. -1.
          2   -1    0    0  501    0  0.00000000000E+00 -0.00000000000E+00 -0.62210320293E+03  0.62210320294E+03  0.25500000000E-02 0.  1.
     200001    2    1    2    0    0 -0.39894134641E+03  0.36258946334E+03  0.23230072565E+03  0.84848757812E+03  0.61265179857E+03 0.  0.
    5000001    2    3    3    0    0  0.11362949954E+03  0.11784027795E+03 -0.35338488660E+02  0.21251369116E+03  0.13082532582E+03 0.  0.
        -11    1    4    4    0    0  0.78384887101E+02  0.93721851310E+02 -0.78128221356E+02  0.14502411838E+03  0.51100000000E-03 0. -1.
     200002    1    4    4    0    0  0.35244612437E+02  0.24118426641E+02  0.42789732696E+02  0.67489572777E+02  0.30000000000E+02 0.  1.
     200000    1    3    3    0    0 -0.51257084595E+03  0.24474918538E+03  0.26763921431E+03  0.63597388696E+03  0.10100000000E+03 0. -1.
    -200001    1    1    2    0    0  0.39894134641E+03 -0.36258946334E+03  0.21654242759E+03  0.84456198100E+03  0.61300000000E+03 0. -1.
<mgrwt>
<rscale>  0 0.16324695E+04</rscale>
<asrwt>0</asrwt>
<pdfrwt beam="1">  1        2 0.88871887E-01 0.16324695E+04</pdfrwt>
<pdfrwt beam="2">  1       -2 0.15299234E+00 0.16324695E+04</pdfrwt>
<totfact> 0.14156329E+01</totfact>
</mgrwt>
</event>
<event>
 8    1  0.6972317E-052  0.1606061E+04  0.7818608E-02  0.8816833E-01
          2   -1    0    0  501    0  0.00000000000E+00  0.00000000000E+00  0.12299411360E+04  0.12299411360E+04  0.25500000000E-02 0.  1.
         -2   -1    0    0    0  501 -0.00000000000E+00 -0.00000000000E+00 -0.52429983171E+03  0.52429983172E+03  0.25500000000E-02 0. -1.
     200001    2    1    2    0    0 -0.48204306930E+03  0.60505675852E+02  0.15421911933E+03  0.79723423656E+03  0.61300280073E+03 0.  0.
    5000001    2    3    3    0    0 -0.14920089294E+03 -0.14149864792E+03  0.27041628514E+03  0.37855483352E+03  0.16702101931E+03 0.  0.
        -11    1    4    4    0    0 -0.29265145466E+02 -0.13054993533E+03  0.18323561639E+03  0.22688108222E+03  0.51100000000E-03 0. -1.
     200002    1    4    4    0    0 -0.11993574748E+03 -0.10948712593E+02  0.87180668751E+02  0.15167375130E+03  0.30000000000E+02 0. -1.
     200000    1    3    3    0    0 -0.33284217635E+03  0.20200432378E+03 -0.11619716581E+03  0.41867940304E+03  0.10100000000E+03 0. -1.
    -200001    1    1    2    0    0  0.48204306930E+03 -0.60505675852E+02  0.55142218500E+03  0.95700673121E+03  0.61300000000E+03 0.  1.
<mgrwt>
<rscale>  0 0.16060609E+04</rscale>
<asrwt>0</asrwt>
<pdfrwt beam="1">  1        2 0.17570588E+00 0.16060609E+04</pdfrwt>
<pdfrwt beam="2">  1       -2 0.74899976E-01 0.16060609E+04</pdfrwt>
<totfact> 0.31617933E+01</totfact>
</mgrwt>
</event>
<event>
 8    1  0.6972317E-052  0.1519702E+04  0.7818608E-02  0.8871456E-01
          2   -1    0    0  501    0  0.00000000000E+00  0.00000000000E+00  0.11233057352E+04  0.11233057352E+04  0.25500000000E-02 0.  1.
         -2   -1    0    0    0  501 -0.00000000000E+00 -0.00000000000E+00 -0.51399475101E+03  0.51399475102E+03  0.25500000000E-02 0. -1.
     200001    2    1    2    0    0  0.33023743714E+03 -0.30356474049E+03  0.33859721459E+03  0.83091146003E+03  0.61201100000E+03 0.  0.
    5000001    2    3    3    0    0 -0.21633537482E+02 -0.27927949522E+03  0.34827527787E+03  0.46389971522E+03  0.12426677034E+03 0.  0.
        -11    1    4    4    0    0  0.23234321014E+02 -0.26974730904E+01  0.39161407698E+02  0.45614974375E+02  0.51100000000E-03 0. -1.
     200002    1    4    4    0    0 -0.44867858497E+02 -0.27658202213E+03  0.30911387017E+03  0.41828474085E+03  0.30000000000E+02 0. -1.
     200000    1    3    3    0    0  0.35187097462E+03 -0.24285245267E+02 -0.96780632814E+01  0.36701174481E+03  0.10100000000E+03 0. -1.
    -200001    1    1    2    0    0 -0.33023743714E+03  0.30356474049E+03  0.27071376965E+03  0.80638902623E+03  0.61300000000E+03 0. -1.
<mgrwt>
<rscale>  0 0.15197016E+04</rscale>
<asrwt>0</asrwt>
<pdfrwt beam="1">  1        2 0.16047225E+00 0.15197016E+04</pdfrwt>
<pdfrwt beam="2">  1       -2 0.73427821E-01 0.15197016E+04</pdfrwt>
<totfact> 0.38294596E+01</totfact>
</mgrwt>
</event>
<event>
 8    1  0.6972317E-052  0.1923787E+04  0.7818608E-02  0.8643106E-01
         -2   -1    0    0    0  501 -0.00000000000E+00  0.00000000000E+00  0.12978192614E+04  0.12978192614E+04  0.25500000000E-02 0. -1.
          2   -1    0    0  501    0  0.00000000000E+00 -0.00000000000E+00 -0.71291852535E+03  0.71291852535E+03  0.25500000000E-02 0.  1.
     200001    2    1    2    0    0  0.23016502340E+03  0.44408434585E+03  0.86428068851E+03  0.11716853437E+04  0.61292625326E+03 0.  0.
    5000001    2    3    3    0    0  0.20307430687E+03  0.51401807925E+03  0.77581128788E+03  0.10178917521E+04  0.35884077888E+03 0.  0.
        -11    1    4    4    0    0 -0.59661082105E+02 -0.11622497202E+02  0.13418814821E+03  0.14731254624E+03  0.51100000000E-03 0. -1.
     200002    1    4    4    0    0  0.26273538898E+03  0.52564057645E+03  0.64162313967E+03  0.87057920581E+03  0.30000000000E+02 0. -1.
     200000    1    3    3    0    0  0.27090716530E+02 -0.69933733405E+02  0.88469400636E+02  0.15379359167E+03  0.10100000000E+03 0.  1.
    -200001    1    1    2    0    0 -0.23016502340E+03 -0.44408434585E+03 -0.27937995250E+03  0.83905244299E+03  0.61300000000E+03 0.  1.
<mgrwt>
<rscale>  0 0.19237873E+04</rscale>
<asrwt>0</asrwt>
<pdfrwt beam="1">  1        2 0.10184551E+00 0.19237873E+04</pdfrwt>
<pdfrwt beam="2">  1       -2 0.18540275E+00 0.19237873E+04</pdfrwt>
<totfact> 0.68667436E+00</totfact>
</mgrwt>
</event>
<event>
 8    1  0.6972317E-052  0.1386850E+04  0.7818608E-02  0.8963392E-01
          2   -1    0    0  501    0  0.00000000000E+00  0.00000000000E+00  0.26761262560E+04  0.26761262560E+04  0.25500000000E-02 0.  1.
         -2   -1    0    0    0  501 -0.00000000000E+00 -0.00000000000E+00 -0.17967703564E+03  0.17967703566E+03  0.25500000000E-02 0. -1.
     200001    2    1    2    0    0 -0.29149611254E+03  0.43584021320E+02  0.15250856862E+04  0.16699762950E+04  0.61324132688E+03 0.  0.
    5000001    2    3    3    0    0  0.16327546827E+03  0.21865199792E+02  0.48943024180E+03  0.53416288713E+03  0.13656889433E+03 0.  0.
        -11    1    4    4    0    0  0.61988552070E+02  0.13105314889E+02  0.46148115205E+02  0.78383534006E+02  0.51100000000E-03 0. -1.
     200002    1    4    4    0    0  0.10128691620E+03  0.87598849032E+01  0.44328212659E+03  0.45577935312E+03  0.30000000000E+02 0. -1.
     200000    1    3    3    0    0 -0.45477158082E+03  0.21718821527E+02  0.10356554444E+04  0.11358134078E+04  0.10100000000E+03 0.  1.
    -200001    1    1    2    0    0  0.29149611254E+03 -0.43584021320E+02  0.97136353413E+03  0.11858269966E+04  0.61300000000E+03 0. -1.
<mgrwt>
<rscale>  0 0.13868503E+04</rscale>
<asrwt>0</asrwt>
<pdfrwt beam="1">  1        2 0.38230374E+00 0.13868503E+04</pdfrwt>
<pdfrwt beam="2">  1       -2 0.25668148E-01 0.13868503E+04</pdfrwt>
<totfact> 0.47528265E+01</totfact>
</mgrwt>
</event>
<event>
 8    1  0.6972317E-052  0.1298327E+04  0.7818608E-02  0.9030893E-01
         -2   -1    0    0    0  501 -0.00000000000E+00  0.00000000000E+00  0.31229897494E+03  0.31229897495E+03  0.25500000000E-02 0. -1.
          2   -1    0    0  501    0  0.00000000000E+00 -0.00000000000E+00 -0.13493902389E+04  0.13493902389E+04  0.25500000000E-02 0.  1.
     200001    2    1    2    0    0 -0.14616630841E+03 -0.96022638779E+02 -0.37698139593E+03  0.74402970471E+03  0.61715499815E+03 0.  0.
    5000001    2    3    3    0    0  0.21315466701E+03  0.44310435664E+02 -0.19899775899E+03  0.30735578727E+03  0.86424215962E+02 0.  0.
        -11    1    4    4    0    0  0.67243650969E+02  0.47185184846E+02 -0.47597657774E+02  0.94940440753E+02  0.51100000000E-03 0. -1.
     200002    1    4    4    0    0  0.14591101604E+03 -0.28747491816E+01 -0.15140010122E+03  0.21241534651E+03  0.30000000000E+02 0. -1.
     200000    1    3    3    0    0 -0.35932097542E+03 -0.14033307444E+03 -0.17798363694E+03  0.43667391745E+03  0.10100000000E+03 0. -1.
    -200001    1    1    2    0    0  0.14616630841E+03  0.96022638779E+02 -0.66010986807E+03  0.91765950918E+03  0.61300000000E+03 0.  1.
<mgrwt>
<rscale>  0 0.12983269E+04</rscale>
<asrwt>0</asrwt>
<pdfrwt beam="1">  1        2 0.19277003E+00 0.12983269E+04</pdfrwt>
<pdfrwt beam="2">  1       -2 0.44614140E-01 0.12983269E+04</pdfrwt>
<totfact> 0.82356105E+01</totfact>
</mgrwt>
</event>
<event>
 8    1  0.6972317E-052  0.1456528E+04  0.7818608E-02  0.8913887E-01
          2   -1    0    0  501    0  0.00000000000E+00  0.00000000000E+00  0.42654195156E+03  0.42654195157E+03  0.25500000000E-02 0.  1.
         -2   -1    0    0    0  501 -0.00000000000E+00 -0.00000000000E+00 -0.12434150362E+04  0.12434150362E+04  0.25500000000E-02 0. -1.
     200001    2    1    2    0    0  0.21732185005E+03  0.28672598290E+03 -0.22576371792E+03  0.74550046678E+03  0.61266721298E+03 0.  0.
    5000001    2    3    3    0    0  0.23527872030E+03 -0.12695361134E+03 -0.76490119861E+02  0.29390677444E+03  0.95169101985E+02 0.  0.
        -11    1    4    4    0    0  0.43381543385E+02 -0.23401236544E+02  0.20491060010E+02  0.53380330824E+02  0.51100000000E-03 0. -1.
     200002    1    4    4    0    0  0.19189717691E+03 -0.10355237479E+03 -0.96981179871E+02  0.24052644362E+03  0.30000000000E+02 0. -1.
     200000    1    3    3    0    0 -0.17956870244E+02  0.41367959424E+03 -0.14927359806E+03  0.45159369233E+03  0.10100000000E+03 0. -1.
    -200001    1    1    2    0    0 -0.21732185005E+03 -0.28672598290E+03 -0.59110936673E+03  0.92445652100E+03  0.61300000000E+03 0.  1.
<mgrwt>
<rscale>  0 0.14565283E+04</rscale>
<asrwt>0</asrwt>
<pdfrwt beam="1">  1        2 0.60934565E-01 0.14565283E+04</pdfrwt>
<pdfrwt beam="2">  1       -2 0.17763072E+00 0.14565283E+04</pdfrwt>
<totfact> 0.14696984E+01</totfact>
</mgrwt>
</event>
<event>
 8    1  0.6972317E-052  0.1616015E+04  0.7818608E-02  0.8810770E-01
         -2   -1    0    0    0  501 -0.00000000000E+00  0.00000000000E+00  0.20641114990E+03  0.20641114992E+03  0.25500000000E-02 0. -1.
          2   -1    0    0  501    0  0.00000000000E+00 -0.00000000000E+00 -0.31629874047E+04  0.31629874047E+04  0.25500000000E-02 0.  1.
     200001    2    1    2    0    0 -0.41752879909E+03  0.32079402797E+03 -0.14672285533E+04  0.16749474097E+04  0.61273982348E+03 0.  0.
    5000001    2    3    3    0    0 -0.53444802501E+03  0.30342103747E+03 -0.11144657387E+04  0.12894418592E+04  0.20718930445E+03 0.  0.
        -11    1    4    4    0    0 -0.35156064501E+03  0.27107020089E+03 -0.90418204649E+03  0.10072830358E+04  0.51100000000E-03 0. -1.
     200002    1    4    4    0    0 -0.18288738000E+03  0.32350836577E+02 -0.21028369226E+03  0.28215882339E+03  0.30000000000E+02 0. -1.
     200000    1    3    3    0    0  0.11691922592E+03  0.17372990502E+02 -0.35276281455E+03  0.38550555057E+03  0.10100000000E+03 0.  1.
    -200001    1    1    2    0    0  0.41752879909E+03 -0.32079402797E+03 -0.14893477015E+04  0.16944511449E+04  0.61300000000E+03 0. -1.
<mgrwt>
<rscale>  0 0.16160147E+04</rscale>
<asrwt>0</asrwt>
<pdfrwt beam="1">  1        2 0.45185531E+00 0.16160147E+04</pdfrwt>
<pdfrwt beam="2">  1       -2 0.29487309E-01 0.16160147E+04</pdfrwt>
<totfact> 0.19460094E+01</totfact>
</mgrwt>
</event>
<event>
 8    1  0.6972317E-052  0.2965790E+04  0.7818608E-02  0.8253568E-01
         -2   -1    0    0    0  501 -0.00000000000E+00  0.00000000000E+00  0.79915612467E+03  0.79915612467E+03  0.25500000000E-02 0. -1.
          2   -1    0    0  501    0  0.00000000000E+00 -0.00000000000E+00 -0.27516244806E+04  0.27516244806E+04  0.25500000000E-02 0.  1.
     200001    2    1    2    0    0  0.17905607309E+03 -0.10314702984E+04 -0.19955753173E+04  0.23368533982E+04  0.61852316364E+03 0.  0.
    5000001    2    3    3    0    0  0.19450374375E+02 -0.98910853641E+03 -0.18243010153E+04  0.20783879567E+04  0.11361465687E+03 0.  0.
        -11    1    4    4    0    0  0.60471610880E+02 -0.63289984138E+03 -0.11851111407E+04  0.13448819430E+04  0.51100000000E-03 0. -1.
     200002    1    4    4    0    0 -0.41021236505E+02 -0.35620869503E+03 -0.63918987465E+03  0.73350601368E+03  0.30000000000E+02 0. -1.
     200000    1    3    3    0    0  0.15960569871E+03 -0.42361762025E+02 -0.17127430199E+03  0.25846544153E+03  0.10100000000E+03 0. -1.
    -200001    1    1    2    0    0 -0.17905607309E+03  0.10314702984E+04  0.43106961373E+02  0.12139272070E+04  0.61300000000E+03 0. -1.
<mgrwt>
<rscale>  0 0.29657900E+04</rscale>
<asrwt>0</asrwt>
<pdfrwt beam="1">  1        2 0.39308921E+00 0.29657900E+04</pdfrwt>
<pdfrwt beam="2">  1       -2 0.11416516E+00 0.29657900E+04</pdfrwt>
<totfact> 0.16775720E+00</totfact>
</mgrwt>
</event>
<event>
 8    1  0.6972317E-052  0.1481885E+04  0.7818608E-02  0.8896590E-01
         -2   -1    0    0    0  501 -0.00000000000E+00  0.00000000000E+00  0.40863403869E+03  0.40863403869E+03  0.25500000000E-02 0. -1.
          2   -1    0    0  501    0  0.00000000000E+00 -0.00000000000E+00 -0.13434895853E+04  0.13434895853E+04  0.25500000000E-02 0.  1.
     200001    2    1    2    0    0 -0.33883783024E+03  0.23907978414E+03 -0.47474330660E+03  0.88066364684E+03  0.61499352299E+03 0.  0.
    5000001    2    3    3    0    0  0.13000841596E+03  0.20359203054E+03 -0.20010037251E+03  0.32685327815E+03  0.91874932586E+02 0.  0.
        -11    1    4    4    0    0  0.48950741369E+02  0.18366873826E+02 -0.26163188369E+02  0.58463916741E+02  0.51100000000E-03 0. -1.
     200002    1    4    4    0    0  0.81057674588E+02  0.18522515672E+03 -0.17393718414E+03  0.26838936141E+03  0.30000000000E+02 0. -1.
     200000    1    3    3    0    0 -0.46884624619E+03  0.35487753597E+02 -0.27464293409E+03  0.55381036869E+03  0.10100000000E+03 0. -1.
    -200001    1    1    2    0    0  0.33883783024E+03 -0.23907978414E+03 -0.46011224002E+03  0.87145997717E+03  0.61300000000E+03 0.  1.
<mgrwt>
<rscale>  0 0.14818847E+04</rscale>
<asrwt>0</asrwt>
<pdfrwt beam="1">  1        2 0.19192708E+00 0.14818847E+04</pdfrwt>
<pdfrwt beam="2">  1       -2 0.58376292E-01 0.14818847E+04</pdfrwt>
<totfact> 0.47232790E+01</totfact>
</mgrwt>
</event>
<event>
 8    1  0.6972317E-052  0.1272179E+04  0.7818608E-02  0.9051923E-01
         -2   -1    0    0    0  501 -0.00000000000E+00  0.00000000000E+00  0.52986375889E+03  0.52986375889E+03  0.25500000000E-02 0. -1.
          2   -1    0    0  501    0  0.00000000000E+00 -0.00000000000E+00 -0.76361079540E+03  0.76361079540E+03  0.25500000000E-02 0.  1.
     200001    2    1    2    0    0  0.89746257198E+02 -0.99344020735E+01  0.29440329330E+02  0.62028091754E+03  0.61296704696E+03 0.  0.
    5000001    2    3    3    0    0  0.12191380440E+03 -0.20944681750E+03 -0.42503740306E+02  0.38317987546E+03  0.29375041098E+03 0.  0.
        -11    1    4    4    0    0  0.15400409028E+02 -0.15220170872E+03 -0.15321314397E+03  0.21651050834E+03  0.51100000000E-03 0. -1.
     200002    1    4    4    0    0  0.10651339538E+03 -0.57245108779E+02  0.11070940367E+03  0.16666936711E+03  0.30000000000E+02 0. -1.
     200000    1    3    3    0    0 -0.32167547205E+02  0.19951241543E+03  0.71944069636E+02  0.23710104209E+03  0.10100000000E+03 0. -1.
    -200001    1    1    2    0    0 -0.89746257198E+02  0.99344020735E+01 -0.26318736584E+03  0.67319363675E+03  0.61300000000E+03 0.  1.
<mgrwt>
<rscale>  0 0.12721787E+04</rscale>
<asrwt>0</asrwt>
<pdfrwt beam="1">  1        2 0.10908726E+00 0.12721787E+04</pdfrwt>
<pdfrwt beam="2">  1       -2 0.75694823E-01 0.12721787E+04</pdfrwt>
<totfact> 0.62083579E+01</totfact>
</mgrwt>
</event>
<event>
 8    1  0.6972317E-052  0.1790003E+04  0.7818608E-02  0.8711634E-01
          2   -1    0    0  501    0  0.00000000000E+00  0.00000000000E+00  0.10615763415E+04  0.10615763415E+04  0.25500000000E-02 0.  1.
         -2   -1    0    0    0  501 -0.00000000000E+00 -0.00000000000E+00 -0.75456419320E+03  0.75456419321E+03  0.25500000000E-02 0. -1.
     200001    2    1    2    0    0  0.46862921628E+03  0.42150277226E+03  0.32320177810E+03  0.93676062055E+03  0.61301153453E+03 0.  0.
    5000001    2    3    3    0    0  0.96159278738E+02 -0.63858553413E+02  0.28006533701E+03  0.31517295708E+03  0.87022285358E+02 0.  0.
        -11    1    4    4    0    0  0.10351004270E+02  0.15835233229E+01 -0.28833391284E+01  0.10861145441E+02  0.51100000000E-03 0. -1.
     200002    1    4    4    0    0  0.85808274469E+02 -0.65442076736E+02  0.28294867614E+03  0.30431181164E+03  0.30000000000E+02 0. -1.
     200000    1    3    3    0    0  0.37246993754E+03  0.48536132567E+03  0.43136441097E+02  0.62158766347E+03  0.10100000000E+03 0. -1.
    -200001    1    1    2    0    0 -0.46862921628E+03 -0.42150277226E+03 -0.16189629780E+02  0.87937991419E+03  0.61300000000E+03 0. -1.
<mgrwt>
<rscale>  0 0.17900028E+04</rscale>
<asrwt>0</asrwt>
<pdfrwt beam="1">  1        2 0.15165376E+00 0.17900028E+04</pdfrwt>
<pdfrwt beam="2">  1       -2 0.10779489E+00 0.17900028E+04</pdfrwt>
<totfact> 0.16846493E+01</totfact>
</mgrwt>
</event>
<event>
 8    1  0.6972317E-052  0.1375072E+04  0.7818608E-02  0.8972063E-01
         -2   -1    0    0    0  501 -0.00000000000E+00  0.00000000000E+00  0.50035937045E+03  0.50035937045E+03  0.25500000000E-02 0. -1.
          2   -1    0    0  501    0  0.00000000000E+00 -0.00000000000E+00 -0.94473206052E+03  0.94473206052E+03  0.25500000000E-02 0.  1.
     200001    2    1    2    0    0  0.42633790784E+02 -0.25525808616E+03 -0.40660755822E+03  0.77863097764E+03  0.61152445762E+03 0.  0.
    5000001    2    3    3    0    0  0.65888721299E+02  0.12167469069E+03  0.59000065884E+02  0.17067491863E+03  0.80640350496E+02 0.  0.
        -11    1    4    4    0    0  0.61418519082E+02  0.54997110202E+02  0.11185986862E+02  0.83198815611E+02  0.51100000000E-03 0. -1.
     200002    1    4    4    0    0  0.44702022169E+01  0.66677580485E+02  0.47814079023E+02  0.87476103022E+02  0.30000000000E+02 0. -1.
     200000    1    3    3    0    0 -0.23254930515E+02 -0.37693277685E+03 -0.46560762411E+03  0.60795605901E+03  0.10100000000E+03 0.  1.
    -200001    1    1    2    0    0 -0.42633790784E+02  0.25525808616E+03 -0.37765131847E+02  0.66646045333E+03  0.61300000000E+03 0. -1.
<mgrwt>
<rscale>  0 0.13750717E+04</rscale>
<asrwt>0</asrwt>
<pdfrwt beam="1">  1        2 0.13496172E+00 0.13750717E+04</pdfrwt>
<pdfrwt beam="2">  1       -2 0.71479910E-01 0.13750717E+04</pdfrwt>
<totfact> 0.52754591E+01</totfact>
</mgrwt>
</event>
<event>
 8    1  0.6972317E-052  0.2161959E+04  0.7818608E-02  0.8534430E-01
         -2   -1    0    0    0  501 -0.00000000000E+00  0.00000000000E+00  0.18872197710E+04  0.18872197710E+04  0.25500000000E-02 0. -1.
          2   -1    0    0  501    0  0.00000000000E+00 -0.00000000000E+00 -0.61917375216E+03  0.61917375216E+03  0.25500000000E-02 0.  1.
     200001    2    1    2    0    0  0.11509598681E+03  0.30415401270E+03 -0.32437459190E+03  0.76934742385E+03  0.61718703251E+03 0.  0.
    5000001    2    3    3    0    0 -0.16506104825E+03 -0.88544568291E+02 -0.13185877506E+03  0.24023167135E+03  0.72382519538E+02 0.  0.
        -11    1    4    4    0    0 -0.11036896246E+03 -0.30516821038E+02 -0.63063332582E+02  0.13072707507E+03  0.51100000000E-03 0. -1.
     200002    1    4    4    0    0 -0.54692085795E+02 -0.58027747254E+02 -0.68795442480E+02  0.10950459628E+03  0.30000000000E+02 0. -1.
     200000    1    3    3    0    0  0.28015703507E+03  0.39269858099E+03 -0.19251581684E+03  0.52911575250E+03  0.10100000000E+03 0. -1.
    -200001    1    1    2    0    0 -0.11509598681E+03 -0.30415401270E+03  0.15924206107E+04  0.17370460993E+04  0.61300000000E+03 0. -1.
<mgrwt>
<rscale>  0 0.21619592E+04</rscale>
<asrwt>0</asrwt>
<pdfrwt beam="1">  1        2 0.88453392E-01 0.21619592E+04</pdfrwt>
<pdfrwt beam="2">  1       -2 0.26960283E+00 0.21619592E+04</pdfrwt>
<totfact> 0.23446421E+00</totfact>
</mgrwt>
</event>
<event>
 8    1  0.6972317E-052  0.2306358E+04  0.7818608E-02  0.8475418E-01
         -2   -1    0    0    0  501 -0.00000000000E+00  0.00000000000E+00  0.55318244495E+03  0.55318244495E+03  0.25500000000E-02 0. -1.
          2   -1    0    0  501    0  0.00000000000E+00 -0.00000000000E+00 -0.24039486943E+04  0.24039486943E+04  0.25500000000E-02 0.  1.
     200001    2    1    2    0    0  0.64691419837E+03  0.73171176000E+03 -0.93989273171E+03  0.14876551630E+04  0.61304115442E+03 0.  0.
    5000001    2    3    3    0    0  0.51067798188E+03  0.42752270067E+03 -0.27526690721E+03  0.73730872492E+03  0.15583524914E+03 0.  0.
        -11    1    4    4    0    0  0.52246525251E+02  0.10967710169E+03 -0.20063694090E+02  0.12313130332E+03  0.51100000000E-03 0. -1.
     200002    1    4    4    0    0  0.45843145663E+03  0.31784559897E+03 -0.25520321312E+03  0.61417742160E+03  0.30000000000E+02 0. -1.
     200000    1    3    3    0    0  0.13623621649E+03  0.30418905933E+03 -0.66462582450E+03  0.75034643804E+03  0.10100000000E+03 0.  1.
    -200001    1    1    2    0    0 -0.64691419837E+03 -0.73171176000E+03 -0.91087351769E+03  0.14694759763E+04  0.61300000000E+03 0. -1.
<mgrwt>
<rscale>  0 0.23063584E+04</rscale>
<asrwt>0</asrwt>
<pdfrwt beam="1">  1        2 0.34342124E+00 0.23063584E+04</pdfrwt>
<pdfrwt beam="2">  1       -2 0.79026065E-01 0.23063584E+04</pdfrwt>
<totfact> 0.64064796E+00</totfact>
</mgrwt>
</event>
<event>
 8    1  0.6972317E-052  0.1767530E+04  0.7818608E-02  0.8723760E-01
          2   -1    0    0  501    0  0.00000000000E+00  0.00000000000E+00  0.18019191939E+04  0.18019191939E+04  0.25500000000E-02 0.  1.
         -2   -1    0    0    0  501 -0.00000000000E+00 -0.00000000000E+00 -0.43344944207E+03  0.43344944208E+03  0.25500000000E-02 0. -1.
     200001    2    1    2    0    0 -0.14738236867E+03  0.32833357060E+03  0.20076702275E+02  0.71107951896E+03  0.61294902898E+03 0.  0.
    5000001    2    3    3    0    0 -0.25516312374E+03  0.40718774376E+03  0.13841180630E+03  0.50604569582E+03  0.77552174340E+02 0.  0.
        -11    1    4    4    0    0 -0.79427278068E+02  0.17119831430E+03  0.77829535425E+02  0.20414453680E+03  0.51100000000E-03 0. -1.
     200002    1    4    4    0    0 -0.17573584567E+03  0.23598942946E+03  0.60582270879E+02  0.30190115901E+03  0.30000000000E+02 0. -1.
     200000    1    3    3    0    0  0.10778075506E+03 -0.78854173157E+02 -0.11833510403E+03  0.20503382314E+03  0.10100000000E+03 0. -1.
    -200001    1    1    2    0    0  0.14738236867E+03 -0.32833357060E+03  0.13483930495E+04  0.15242891170E+04  0.61300000000E+03 0.  1.
<mgrwt>
<rscale>  0 0.17675303E+04</rscale>
<asrwt>0</asrwt>
<pdfrwt beam="1">  1        2 0.25741703E+00 0.17675303E+04</pdfrwt>
<pdfrwt beam="2">  1       -2 0.61921349E-01 0.17675303E+04</pdfrwt>
<totfact> 0.23341458E+01</totfact>
</mgrwt>
</event>
<event>
 8    1  0.6972317E-052  0.1620448E+04  0.7818608E-02  0.8808083E-01
         -2   -1    0    0    0  501 -0.00000000000E+00  0.00000000000E+00  0.53465473686E+03  0.53465473687E+03  0.25500000000E-02 0. -1.
          2   -1    0    0  501    0  0.00000000000E+00 -0.00000000000E+00 -0.12278262584E+04  0.12278262584E+04  0.25500000000E-02 0.  1.
     200001    2    1    2    0    0  0.29047602822E+03  0.32833639540E+03 -0.31377461456E+02  0.75952462062E+03  0.61944490693E+03 0.  0.
    5000001    2    3    3    0    0 -0.11938256440E+03  0.24628185332E+03 -0.13814810548E+03  0.31644676713E+03  0.78400952944E+02 0.  0.
        -11    1    4    4    0    0 -0.29193208593E+02  0.83681354089E+02 -0.79835552050E+02  0.11928339290E+03  0.51100000000E-03 0. -1.
     200002    1    4    4    0    0 -0.90189355810E+02  0.16260049923E+03 -0.58312553432E+02  0.19716337424E+03  0.30000000000E+02 0. -1.
     200000    1    3    3    0    0  0.40985859263E+03  0.82054542080E+02  0.10677064403E+03  0.44307785349E+03  0.10100000000E+03 0. -1.
    -200001    1    1    2    0    0 -0.29047602822E+03 -0.32833639540E+03 -0.66179406012E+03  0.10029563747E+04  0.61300000000E+03 0.  1.
<mgrwt>
<rscale>  0 0.16204482E+04</rscale>
<asrwt>0</asrwt>
<pdfrwt beam="1">  1        2 0.17540375E+00 0.16204482E+04</pdfrwt>
<pdfrwt beam="2">  1       -2 0.76379249E-01 0.16204482E+04</pdfrwt>
<totfact> 0.30324934E+01</totfact>
</mgrwt>
</event>
<event>
 8    1  0.6972317E-052  0.1253531E+04  0.7818608E-02  0.9067249E-01
         -2   -1    0    0    0  501 -0.00000000000E+00  0.00000000000E+00  0.37740192401E+03  0.37740192402E+03  0.25500000000E-02 0. -1.
          2   -1    0    0  501    0  0.00000000000E+00 -0.00000000000E+00 -0.10408936574E+04  0.10408936574E+04  0.25500000000E-02 0.  1.
     200001    2    1    2    0    0 -0.13825220510E+03 -0.16247958302E+01 -0.37204292558E+03  0.72559960208E+03  0.60742286086E+03 0.  0.
    5000001    2    3    3    0    0  0.90431056653E+02  0.24008903206E+03 -0.12950788938E+03  0.30163515478E+03  0.91602149861E+02 0.  0.
        -11    1    4    4    0    0 -0.19447513640E+01  0.81443543663E+02 -0.13962106376E+02  0.82654541781E+02  0.51100000000E-03 0. -1.
     200002    1    4    4    0    0  0.92375808017E+02  0.15864548840E+03 -0.11554578301E+03  0.21898061299E+03  0.30000000000E+02 0. -1.
     200000    1    3    3    0    0 -0.22868326176E+03 -0.24171382789E+03 -0.24253503619E+03  0.42396444731E+03  0.10100000000E+03 0. -1.
    -200001    1    1    2    0    0  0.13825220510E+03  0.16247958302E+01 -0.29144880777E+03  0.69269597929E+03  0.61300000000E+03 0. -1.
<mgrwt>
<rscale>  0 0.12535314E+04</rscale>
<asrwt>0</asrwt>
<pdfrwt beam="1">  1        2 0.14869909E+00 0.12535314E+04</pdfrwt>
<pdfrwt beam="2">  1       -2 0.53914561E-01 0.12535314E+04</pdfrwt>
<totfact> 0.84504259E+01</totfact>
</mgrwt>
</event>
<event>
 8    1  0.6972317E-052  0.1601839E+04  0.7818608E-02  0.8819419E-01
          2   -1    0    0  501    0  0.00000000000E+00  0.00000000000E+00  0.20722411264E+04  0.20722411264E+04  0.25500000000E-02 0.  1.
         -2   -1    0    0    0  501 -0.00000000000E+00 -0.00000000000E+00 -0.30955478620E+03  0.30955478621E+03  0.25500000000E-02 0. -1.
     200001    2    1    2    0    0  0.18333707757E+03 -0.44683491745E+03  0.11502131292E+04  0.13897443204E+04  0.61247457576E+03 0.  0.
    5000001    2    3    3    0    0  0.33794963996E+02  0.10164860030E+03  0.50020305720E+02  0.14723787700E+03  0.87763454258E+02 0.  0.
        -11    1    4    4    0    0  0.35302262306E+01  0.29196401917E+02 -0.21856535018E+02  0.36641513416E+02  0.51100000000E-03 0. -1.
     200002    1    4    4    0    0  0.30264737765E+02  0.72452198386E+02  0.71876840738E+02  0.11059636358E+03  0.30000000000E+02 0.  1.
     200000    1    3    3    0    0  0.14954211357E+03 -0.54848351775E+03  0.11001928235E+04  0.12425064434E+04  0.10100000000E+03 0. -1.
    -200001    1    1    2    0    0 -0.18333707757E+03  0.44683491745E+03  0.61247321095E+03  0.99205159221E+03  0.61300000000E+03 0.  1.
<mgrwt>
<rscale>  0 0.16018391E+04</rscale>
<asrwt>0</asrwt>
<pdfrwt beam="1">  1        2 0.29603444E+00 0.16018391E+04</pdfrwt>
<pdfrwt beam="2">  1       -2 0.44222113E-01 0.16018391E+04</pdfrwt>
<totfact> 0.34302121E+01</totfact>
</mgrwt>
</event>
<event>
 8    1  0.6972317E-052  0.1532679E+04  0.7818608E-02  0.8863008E-01
          2   -1    0    0  501    0  0.00000000000E+00  0.00000000000E+00  0.21646460378E+04  0.21646460378E+04  0.25500000000E-02 0.  1.
         -2   -1    0    0    0  501 -0.00000000000E+00 -0.00000000000E+00 -0.27130370829E+03  0.27130370831E+03  0.25500000000E-02 0. -1.
     200001    2    1    2    0    0 -0.45314508290E+03  0.69698378947E+02  0.91568419573E+03  0.11942642961E+04  0.61448460719E+03 0.  0.
    5000001    2    3    3    0    0 -0.40299325591E+02  0.13491561487E+03  0.87358921168E+02  0.26098048736E+03  0.20162582895E+03 0.  0.
        -11    1    4    4    0    0  0.77295257150E+02  0.79401111123E+02  0.24618468238E+02  0.11351282837E+03  0.51100000000E-03 0. -1.
     200002    1    4    4    0    0 -0.11759458274E+03  0.55514503743E+02  0.62740452930E+02  0.14746765900E+03  0.30000000000E+02 0. -1.
     200000    1    3    3    0    0 -0.41284575731E+03 -0.65217235919E+02  0.82832527457E+03  0.93328380875E+03  0.10100000000E+03 0.  1.
    -200001    1    1    2    0    0  0.45314508290E+03 -0.69698378947E+02  0.97765813375E+03  0.12416854500E+04  0.61300000000E+03 0. -1.
<mgrwt>
<rscale>  0 0.15326793E+04</rscale>
<asrwt>0</asrwt>
<pdfrwt beam="1">  1        2 0.30923516E+00 0.15326793E+04</pdfrwt>
<pdfrwt beam="2">  1       -2 0.38757671E-01 0.15326793E+04</pdfrwt>
<totfact> 0.40069238E+01</totfact>
</mgrwt>
</event>
<event>
 8    1  0.6972317E-052  0.1319811E+04  0.7818608E-02  0.9014001E-01
         -2   -1    0    0    0  501 -0.00000000000E+00  0.00000000000E+00  0.12307038419E+03  0.12307038421E+03  0.25500000000E-02 0. -1.
          2   -1    0    0  501    0  0.00000000000E+00 -0.00000000000E+00 -0.35384223896E+04  0.35384223896E+04  0.25500000000E-02 0.  1.
     200001    2    1    2    0    0  0.82630370709E+02  0.67592917293E+02 -0.11042264441E+04  0.12680711768E+04  0.61424090477E+03 0.  0.
    5000001    2    3    3    0    0 -0.23934897874E+03  0.12755013632E+03 -0.54395274038E+03  0.61128110943E+03  0.64984921940E+02 0.  0.
        -11    1    4    4    0    0 -0.11675124405E+02  0.11960373503E+02 -0.12373188817E+02  0.20795549187E+02  0.51100000000E-03 0. -1.
     200002    1    4    4    0    0 -0.22767385434E+03  0.11558976282E+03 -0.53157955156E+03  0.59048556024E+03  0.30000000000E+02 0. -1.
     200000    1    3    3    0    0  0.32197934945E+03 -0.59957219026E+02 -0.56027370371E+03  0.65679006742E+03  0.10100000000E+03 0.  1.
    -200001    1    1    2    0    0 -0.82630370709E+02 -0.67592917293E+02 -0.23111255613E+04  0.23934215970E+04  0.61300000000E+03 0.  1.
<mgrwt>
<rscale>  0 0.13198106E+04</rscale>
<asrwt>0</asrwt>
<pdfrwt beam="1">  1        2 0.50548885E+00 0.13198106E+04</pdfrwt>
<pdfrwt beam="2">  1       -2 0.17581486E-01 0.13198106E+04</pdfrwt>
<totfact> 0.30338843E+01</totfact>
</mgrwt>
</event>
<event>
 8    1  0.6972317E-052  0.2179513E+04  0.7818608E-02  0.8527004E-01
          2   -1    0    0  501    0  0.00000000000E+00  0.00000000000E+00  0.21412763398E+04  0.21412763398E+04  0.25500000000E-02 0.  1.
         -2   -1    0    0    0  501 -0.00000000000E+00 -0.00000000000E+00 -0.55460793086E+03  0.55460793087E+03  0.25500000000E-02 0. -1.
     200001    2    1    2    0    0  0.44984624915E+03 -0.35479965064E+03 -0.66287470723E+02  0.84216461008E+03  0.61367968984E+03 0.  0.
    5000001    2    3    3    0    0  0.79555864860E+02 -0.18866511249E+03 -0.29419965181E+03  0.36586573778E+03  0.73352863930E+02 0.  0.
        -11    1    4    4    0    0  0.16427949307E+02 -0.38315114315E+02 -0.21980130496E+02  0.47128034548E+02  0.51100000000E-03 0. -1.
     200002    1    4    4    0    0  0.63127915552E+02 -0.15034999818E+03 -0.27221952132E+03  0.31873770323E+03  0.30000000000E+02 0. -1.
     200000    1    3    3    0    0  0.37029038429E+03 -0.16613453815E+03  0.22791218109E+03  0.47629887230E+03  0.10100000000E+03 0. -1.
    -200001    1    1    2    0    0 -0.44984624915E+03  0.35479965064E+03  0.16529558797E+04  0.18537196606E+04  0.61300000000E+03 0.  1.
<mgrwt>
<rscale>  0 0.21795126E+04</rscale>
<asrwt>0</asrwt>
<pdfrwt beam="1">  1        2 0.30589662E+00 0.21795126E+04</pdfrwt>
<pdfrwt beam="2">  1       -2 0.79229704E-01 0.21795126E+04</pdfrwt>
<totfact> 0.88120284E+00</totfact>
</mgrwt>
</event>
<event>
 8    1  0.6972317E-052  0.1367875E+04  0.7818608E-02  0.8977406E-01
         -2   -1    0    0    0  501 -0.00000000000E+00  0.00000000000E+00  0.44179102637E+03  0.44179102637E+03  0.25500000000E-02 0. -1.
          2   -1    0    0  501    0  0.00000000000E+00 -0.00000000000E+00 -0.10588049297E+04  0.10588049297E+04  0.25500000000E-02 0.  1.
     200001    2    1    2    0    0 -0.10726526324E+03 -0.12302556079E+03 -0.58816051454E+03  0.86558206384E+03  0.61372501422E+03 0.  0.
    5000001    2    3    3    0    0 -0.28095840238E+03 -0.12956463857E+03 -0.58372321404E+03  0.66450308494E+03  0.71462856423E+02 0.  0.
        -11    1    4    4    0    0 -0.35062175253E+02 -0.42104808772E+02 -0.96688414468E+02  0.11113424561E+03  0.51100000000E-03 0. -1.
     200002    1    4    4    0    0 -0.24589622713E+03 -0.87459829801E+02 -0.48703479957E+03  0.55336883933E+03  0.30000000000E+02 0. -1.
     200000    1    3    3    0    0  0.17369313914E+03  0.65390777814E+01 -0.44373004988E+01  0.20107897890E+03  0.10100000000E+03 0. -1.
    -200001    1    1    2    0    0  0.10726526324E+03  0.12302556079E+03 -0.28853388814E+02  0.63501389225E+03  0.61300000000E+03 0. -1.
<mgrwt>
<rscale>  0 0.13678750E+04</rscale>
<asrwt>0</asrwt>
<pdfrwt beam="1">  1        2 0.15125785E+00 0.13678750E+04</pdfrwt>
<pdfrwt beam="2">  1       -2 0.63113005E-01 0.13678750E+04</pdfrwt>
<totfact> 0.58734118E+01</totfact>
</mgrwt>
</event>
<event>
 8    1  0.6972317E-052  0.1235545E+04  0.7818608E-02  0.9082300E-01
          2   -1    0    0  501    0  0.00000000000E+00  0.00000000000E+00  0.11802140944E+04  0.11802140944E+04  0.25500000000E-02 0.  1.
         -2   -1    0    0    0  501 -0.00000000000E+00 -0.00000000000E+00 -0.32336762538E+03  0.32336762539E+03  0.25500000000E-02 0. -1.
     200001    2    1    2    0    0 -0.28878499738E+02 -0.28770779008E+02  0.35174141199E+03  0.70824415364E+03  0.61337267202E+03 0.  0.
    5000001    2    3    3    0    0  0.17919689242E+03  0.14760757151E+03  0.81862192252E+01  0.25809322136E+03  0.11245254692E+03 0.  0.
        -11    1    4    4    0    0  0.15026097325E+03  0.14755442074E+03  0.27080300256E+02  0.21232995507E+03  0.51100000000E-03 0. -1.
     200002    1    4    4    0    0  0.28935919175E+02  0.53150772111E-01 -0.18894081031E+02  0.45763266290E+02  0.30000000000E+02 0. -1.
     200000    1    3    3    0    0 -0.20807539216E+03 -0.17637835052E+03  0.34355519276E+03  0.45015093227E+03  0.10100000000E+03 0. -1.
    -200001    1    1    2    0    0  0.28878499738E+02  0.28770779008E+02  0.50510505701E+03  0.79533756613E+03  0.61300000000E+03 0.  1.
<mgrwt>
<rscale>  0 0.12355453E+04</rscale>
<asrwt>0</asrwt>
<pdfrwt beam="1">  1        2 0.16860202E+00 0.12355453E+04</pdfrwt>
<pdfrwt beam="2">  1       -2 0.46195374E-01 0.12355453E+04</pdfrwt>
<totfact> 0.95936996E+01</totfact>
</mgrwt>
</event>
<event>
 8    1  0.6972317E-052  0.1373484E+04  0.7818608E-02  0.8973239E-01
          2   -1    0    0  501    0  0.00000000000E+00  0.00000000000E+00  0.31228347999E+04  0.31228347999E+04  0.25500000000E-02 0.  1.
         -2   -1    0    0    0  501 -0.00000000000E+00 -0.00000000000E+00 -0.15102139929E+03  0.15102139931E+03  0.25500000000E-02 0. -1.
     200001    2    1    2    0    0  0.29930462820E+02  0.10408329439E+03  0.79622821732E+03  0.10109666627E+04  0.61346968485E+03 0.  0.
    5000001    2    3    3    0    0  0.19624442338E+03 -0.69082849845E+02  0.61420564897E+03  0.69319306030E+03  0.24491575240E+03 0.  0.
        -11    1    4    4    0    0  0.14649165931E+03 -0.10012395410E+03  0.17549819044E+03  0.24956808146E+03  0.51100000000E-03 0. -1.
     200002    1    4    4    0    0  0.49752764065E+02  0.31041104258E+02  0.43870745853E+03  0.44362497884E+03  0.30000000000E+02 0. -1.
     200000    1    3    3    0    0 -0.16631396056E+03  0.17316614424E+03  0.18202256835E+03  0.31777360239E+03  0.10100000000E+03 0. -1.
    -200001    1    1    2    0    0 -0.29930462820E+02 -0.10408329439E+03  0.21755851833E+04  0.22628895366E+04  0.61300000000E+03 0.  1.
<mgrwt>
<rscale>  0 0.13734844E+04</rscale>
<asrwt>0</asrwt>
<pdfrwt beam="1">  1        2 0.44611927E+00 0.13734844E+04</pdfrwt>
<pdfrwt beam="2">  1       -2 0.21574485E-01 0.13734844E+04</pdfrwt>
<totfact> 0.36979687E+01</totfact>
</mgrwt>
</event>
<event>
 8    1  0.6972317E-052  0.1405738E+04  0.7818608E-02  0.8949676E-01
          2   -1    0    0  501    0  0.00000000000E+00  0.00000000000E+00  0.97057634913E+03  0.97057634913E+03  0.25500000000E-02 0.  1.
         -2   -1    0    0    0  501 -0.00000000000E+00 -0.00000000000E+00 -0.50900150471E+03  0.50900150471E+03  0.25500000000E-02 0. -1.
     200001    2    1    2    0    0  0.33877593266E+03 -0.55548721985E+02  0.22977744109E+03  0.73974420413E+03  0.61365219958E+03 0.  0.
    5000001    2    3    3    0    0  0.37448295366E+03  0.13002462979E+03 -0.17046412677E+02  0.41288723996E+03  0.11419897461E+03 0.  0.
        -11    1    4    4    0    0  0.20809180122E+03  0.85736207978E+02 -0.59970958467E+02  0.23291502947E+03  0.51100000000E-03 0. -1.
     200002    1    4    4    0    0  0.16639115244E+03  0.44288421816E+02  0.42924545789E+02  0.17997221049E+03  0.30000000000E+02 0. -1.
     200000    1    3    3    0    0 -0.35707021000E+02 -0.18557335178E+03  0.24682385377E+03  0.32685696417E+03  0.10100000000E+03 0.  1.
    -200001    1    1    2    0    0 -0.33877593266E+03  0.55548721985E+02  0.23179740333E+03  0.73983364972E+03  0.61300000000E+03 0.  1.
<mgrwt>
<rscale>  0 0.14057380E+04</rscale>
<asrwt>0</asrwt>
<pdfrwt beam="1">  1        2 0.13865376E+00 0.14057380E+04</pdfrwt>
<pdfrwt beam="2">  1       -2 0.72714501E-01 0.14057380E+04</pdfrwt>
<totfact> 0.48822312E+01</totfact>
</mgrwt>
</event>
<event>
 8    1  0.6972317E-052  0.1397761E+04  0.7818608E-02  0.8955441E-01
          2   -1    0    0  501    0  0.00000000000E+00  0.00000000000E+00  0.86920925081E+03  0.86920925082E+03  0.25500000000E-02 0.  1.
         -2   -1    0    0    0  501 -0.00000000000E+00 -0.00000000000E+00 -0.56192942075E+03  0.56192942076E+03  0.25500000000E-02 0. -1.
     200001    2    1    2    0    0  0.30056845321E+03 -0.12266152348E+03  0.23059440979E+03  0.73325838235E+03  0.61571651679E+03 0.  0.
    5000001    2    3    3    0    0  0.28105896395E+03  0.71488751038E+02  0.36685242832E+03  0.47471980325E+03  0.81690909506E+02 0.  0.
        -11    1    4    4    0    0  0.18995822536E+03  0.73019936052E+02  0.27311250754E+03  0.34059724047E+03  0.51100000000E-03 0. -1.
     200002    1    4    4    0    0  0.91100738589E+02 -0.15311850141E+01  0.93739920780E+02  0.13412256278E+03  0.30000000000E+02 0. -1.
     200000    1    3    3    0    0  0.19509489261E+02 -0.19415027452E+03 -0.13625801853E+03  0.25853857909E+03  0.10100000000E+03 0. -1.
    -200001    1    1    2    0    0 -0.30056845321E+03  0.12266152348E+03  0.76685420276E+02  0.69788028923E+03  0.61300000000E+03 0.  1.
<mgrwt>
<rscale>  0 0.13977614E+04</rscale>
<asrwt>0</asrwt>
<pdfrwt beam="1">  1        2 0.12417275E+00 0.13977614E+04</pdfrwt>
<pdfrwt beam="2">  1       -2 0.80275631E-01 0.13977614E+04</pdfrwt>
<totfact> 0.45586562E+01</totfact>
</mgrwt>
</event>
<event>
 8    1  0.6972317E-052  0.1638180E+04  0.7818608E-02  0.8797430E-01
          2   -1    0    0  501    0  0.00000000000E+00  0.00000000000E+00  0.39431153375E+04  0.39431153375E+04  0.25500000000E-02 0.  1.
         -2   -1    0    0    0  501 -0.00000000000E+00 -0.00000000000E+00 -0.17014677107E+03  0.17014677109E+03  0.25500000000E-02 0. -1.
     200001    2    1    2    0    0 -0.53501729939E+03  0.83581187400E+02  0.17956058531E+04  0.19734112667E+04  0.61393999895E+03 0.  0.
    5000001    2    3    3    0    0 -0.50111496545E+03  0.28030945058E+03  0.11194426885E+04  0.12611971114E+04  0.88185171092E+02 0.  0.
        -11    1    4    4    0    0 -0.34922614619E+03  0.22985293068E+03  0.80498555669E+03  0.90707938870E+03  0.51100000000E-03 0. -1.
     200002    1    4    4    0    0 -0.15188881926E+03  0.50456519903E+02  0.31445713179E+03  0.35411772273E+03  0.30000000000E+02 0.  1.
     200000    1    3    3    0    0 -0.33902333938E+02 -0.19672826318E+03  0.67616316458E+03  0.71221415524E+03  0.10100000000E+03 0. -1.
    -200001    1    1    2    0    0  0.53501729939E+03 -0.83581187400E+02  0.19773627134E+04  0.21398508420E+04  0.61300000000E+03 0. -1.
<mgrwt>
<rscale>  0 0.16381799E+04</rscale>
<asrwt>0</asrwt>
<pdfrwt beam="1">  1        2 0.56330219E+00 0.16381799E+04</pdfrwt>
<pdfrwt beam="2">  1       -2 0.24306682E-01 0.16381799E+04</pdfrwt>
<totfact> 0.91286731E+00</totfact>
</mgrwt>
</event>
<event>
 8    1  0.6972317E-052  0.1462901E+04  0.7818608E-02  0.8909505E-01
          2   -1    0    0  501    0  0.00000000000E+00  0.00000000000E+00  0.84740286702E+03  0.84740286702E+03  0.25500000000E-02 0.  1.
         -2   -1    0    0    0  501 -0.00000000000E+00 -0.00000000000E+00 -0.63136416758E+03  0.63136416758E+03  0.25500000000E-02 0. -1.
     200001    2    1    2    0    0  0.25857826146E+03 -0.17350985733E+03  0.35927216005E+03  0.77644715582E+03  0.61386098826E+03 0.  0.
    5000001    2    3    3    0    0  0.10513894977E+03 -0.34695503970E+03  0.74655640221E+02  0.39587598375E+03  0.14040061096E+03 0.  0.
        -11    1    4    4    0    0 -0.31000960592E+02 -0.75302492394E+02 -0.46840407491E+00  0.81435522477E+02  0.51100000000E-03 0. -1.
     200002    1    4    4    0    0  0.13613991036E+03 -0.27165254731E+03  0.75124044296E+02  0.31444046127E+03  0.30000000000E+02 0. -1.
     200000    1    3    3    0    0  0.15343931169E+03  0.17344518237E+03  0.28461651983E+03  0.38057117208E+03  0.10100000000E+03 0.  1.
    -200001    1    1    2    0    0 -0.25857826146E+03  0.17350985733E+03 -0.14323346061E+03  0.70231987878E+03  0.61300000000E+03 0.  1.
<mgrwt>
<rscale>  0 0.14629010E+04</rscale>
<asrwt>0</asrwt>
<pdfrwt beam="1">  1        2 0.12105755E+00 0.14629010E+04</pdfrwt>
<pdfrwt beam="2">  1       -2 0.90194882E-01 0.14629010E+04</pdfrwt>
<totfact> 0.35988932E+01</totfact>
</mgrwt>
</event>
<event>
 8    1  0.6972317E-052  0.2455091E+04  0.7818608E-02  0.8419161E-01
         -2   -1    0    0    0  501 -0.00000000000E+00  0.00000000000E+00  0.74170269069E+03  0.74170269069E+03  0.25500000000E-02 0. -1.
          2   -1    0    0  501    0  0.00000000000E+00 -0.00000000000E+00 -0.20316336401E+04  0.20316336401E+04  0.25500000000E-02 0.  1.
     200001    2    1    2    0    0 -0.45142127622E+03 -0.77551863669E+03 -0.15162280376E+00  0.10867688000E+04  0.61307102137E+03 0.  0.
    5000001    2    3    3    0    0 -0.39936136561E+03 -0.78313564051E+03 -0.15313205398E+03  0.89605365809E+03  0.81681089868E+02 0.  0.
        -11    1    4    4    0    0 -0.23895736793E+03 -0.42127348681E+03 -0.11087466762E+03  0.49685527701E+03  0.51100000000E-03 0. -1.
     200002    1    4    4    0    0 -0.16040399768E+03 -0.36186215370E+03 -0.42257386366E+02  0.39919838108E+03  0.30000000000E+02 0. -1.
     200000    1    3    3    0    0 -0.52059910604E+02  0.76170038171E+01  0.15298043118E+03  0.19071514193E+03  0.10100000000E+03 0. -1.
    -200001    1    1    2    0    0  0.45142127622E+03  0.77551863669E+03 -0.12897793266E+04  0.16865675307E+04  0.61300000000E+03 0.  1.
<mgrwt>
<rscale>  0 0.24550911E+04</rscale>
<asrwt>0</asrwt>
<pdfrwt beam="1">  1        2 0.29023337E+00 0.24550911E+04</pdfrwt>
<pdfrwt beam="2">  1       -2 0.10595753E+00 0.24550911E+04</pdfrwt>
<totfact> 0.50038384E+00</totfact>
</mgrwt>
</event>
<event>
 8    1  0.6972317E-052  0.1655378E+04  0.7818608E-02  0.8787231E-01
         -2   -1    0    0    0  501 -0.00000000000E+00  0.00000000000E+00  0.43946204482E+03  0.43946204482E+03  0.25500000000E-02 0. -1.
          2   -1    0    0  501    0  0.00000000000E+00 -0.00000000000E+00 -0.15588813401E+04  0.15588813401E+04  0.25500000000E-02 0.  1.
     200001    2    1    2    0    0 -0.96625734836E+02 -0.11459584967E+03 -0.12062978230E+04  0.13613303396E+04  0.61285978363E+03 0.  0.
    5000001    2    3    3    0    0 -0.72202090402E+02  0.15270118364E+03 -0.88181204154E+02  0.20702102589E+03  0.80938168072E+02 0.  0.
        -11    1    4    4    0    0 -0.40961591217E+02  0.10201640524E+03 -0.87242774513E+02  0.14034422182E+03  0.51100000000E-03 0. -1.
     200002    1    4    4    0    0 -0.31240499185E+02  0.50684778403E+02 -0.93842964091E+00  0.66676804073E+02  0.30000000000E+02 0. -1.
     200000    1    3    3    0    0 -0.24423644434E+02 -0.26729703332E+03 -0.11181166188E+04  0.11543093137E+04  0.10100000000E+03 0.  1.
    -200001    1    1    2    0    0  0.96625734836E+02  0.11459584967E+03  0.86878527654E+02  0.63701304536E+03  0.61300000000E+03 0. -1.
<mgrwt>
<rscale>  0 0.16553781E+04</rscale>
<asrwt>0</asrwt>
<pdfrwt beam="1">  1        2 0.22269733E+00 0.16553781E+04</pdfrwt>
<pdfrwt beam="2">  1       -2 0.62780293E-01 0.16553781E+04</pdfrwt>
<totfact> 0.30618785E+01</totfact>
</mgrwt>
</event>
<event>
 8    1  0.6972317E-052  0.1905138E+04  0.7818608E-02  0.8652303E-01
         -2   -1    0    0    0  501 -0.00000000000E+00  0.00000000000E+00  0.24293240086E+04  0.24293240086E+04  0.25500000000E-02 0. -1.
          2   -1    0    0  501    0  0.00000000000E+00 -0.00000000000E+00 -0.37351434830E+03  0.37351434831E+03  0.25500000000E-02 0.  1.
     200001    2    1    2    0    0  0.49767276318E+03 -0.52428381679E+02  0.24811931581E+03  0.82953141272E+03  0.61329622157E+03 0.  0.
    5000001    2    3    3    0    0  0.37356729280E+03  0.16113906743E+03  0.18281510993E+03  0.55479724593E+03  0.32993984054E+03 0.  0.
        -11    1    4    4    0    0  0.24899633157E+03  0.21076312345E+03  0.24099175360E+03  0.40558265821E+03  0.51100000000E-03 0. -1.
     200002    1    4    4    0    0  0.12457096123E+03 -0.49624056025E+02 -0.58176643674E+02  0.14921458772E+03  0.30000000000E+02 0. -1.
     200000    1    3    3    0    0  0.12410547038E+03 -0.21356744910E+03  0.65304205886E+02  0.27473416679E+03  0.10100000000E+03 0.  1.
    -200001    1    1    2    0    0 -0.49767276318E+03  0.52428381679E+02  0.18076903444E+04  0.19733069441E+04  0.61300000000E+03 0. -1.
<mgrwt>
<rscale>  0 0.19051377E+04</rscale>
<asrwt>0</asrwt>
<pdfrwt beam="1">  1        2 0.53359193E-01 0.19051377E+04</pdfrwt>
<pdfrwt beam="2">  1       -2 0.34704628E+00 0.19051377E+04</pdfrwt>
<totfact> 0.14280312E+00</totfact>
</mgrwt>
</event>
<event>
 8    1  0.6972317E-052  0.1718660E+04  0.7818608E-02  0.8750793E-01
          2   -1    0    0  501    0  0.00000000000E+00  0.00000000000E+00  0.10609293027E+04  0.10609293027E+04  0.25500000000E-02 0.  1.
         -2   -1    0    0    0  501 -0.00000000000E+00 -0.00000000000E+00 -0.69603862033E+03  0.69603862033E+03  0.25500000000E-02 0. -1.
     200001    2    1    2    0    0  0.26406084803E+03  0.34533585955E+03 -0.24386101840E+03  0.78984196404E+03  0.61269661702E+03 0.  0.
    5000001    2    3    3    0    0  0.40902992906E+03  0.32830083893E+03 -0.29182751737E+03  0.60597241407E+03  0.83380711235E+02 0.  0.
        -11    1    4    4    0    0  0.17509842689E+03  0.10186504165E+03 -0.13432249591E+03  0.24306064823E+03  0.51100000000E-03 0. -1.
     200002    1    4    4    0    0  0.23393150217E+03  0.22643579729E+03 -0.15750502146E+03  0.36291176584E+03  0.30000000000E+02 0. -1.
     200000    1    3    3    0    0 -0.14496908103E+03  0.17035020618E+02  0.47966498974E+02  0.18386954997E+03  0.10100000000E+03 0.  1.
    -200001    1    1    2    0    0 -0.26406084803E+03 -0.34533585955E+03  0.60875170073E+03  0.96712595896E+03  0.61300000000E+03 0. -1.
<mgrwt>
<rscale>  0 0.17186597E+04</rscale>
<asrwt>0</asrwt>
<pdfrwt beam="1">  1        2 0.15156133E+00 0.17186597E+04</pdfrwt>
<pdfrwt beam="2">  1       -2 0.99434090E-01 0.17186597E+04</pdfrwt>
<totfact> 0.20568080E+01</totfact>
</mgrwt>
</event>
<event>
 8    1  0.6972317E-052  0.2505480E+04  0.7818608E-02  0.8401036E-01
          2   -1    0    0  501    0  0.00000000000E+00  0.00000000000E+00  0.19579525889E+04  0.19579525889E+04  0.25500000000E-02 0. -1.
         -2   -1    0    0    0  501 -0.00000000000E+00 -0.00000000000E+00 -0.80153000503E+03  0.80153000504E+03  0.25500000000E-02 0.  1.
     200001    2    1    2    0    0  0.58772038289E+03 -0.76874401786E+03  0.23375246991E+02  0.11482880430E+04  0.61776728144E+03 0.  0.
    5000001    2    3    3    0    0  0.89832559365E+02 -0.56979647904E+03 -0.33938583590E+02  0.59969139407E+03  0.16043697959E+03 0.  0.
        -11    1    4    4    0    0  0.15438708982E+02 -0.34655141700E+03  0.44732771789E+02  0.34976743592E+03  0.51100000000E-03 0. -1.
     200002    1    4    4    0    0  0.74393850383E+02 -0.22324506203E+03 -0.78671355379E+02  0.24992395814E+03  0.30000000000E+02 0. -1.
     200000    1    3    3    0    0  0.49788782352E+03 -0.19894753882E+03  0.57313830581E+02  0.54859664891E+03  0.10100000000E+03 0.  1.
    -200001    1    1    2    0    0 -0.58772038289E+03  0.76874401786E+03  0.11330473369E+04  0.16111945510E+04  0.61300000000E+03 0. -1.
<mgrwt>
<rscale>  0 0.25054802E+04</rscale>
<asrwt>0</asrwt>
<pdfrwt beam="1">  1        2 0.27970752E+00 0.25054802E+04</pdfrwt>
<pdfrwt beam="2">  1       -2 0.11450428E+00 0.25054802E+04</pdfrwt>
<totfact> 0.45077730E+00</totfact>
</mgrwt>
</event>
<event>
 8    1  0.6972317E-052  0.1694626E+04  0.7818608E-02  0.8764435E-01
          2   -1    0    0  501    0  0.00000000000E+00  0.00000000000E+00  0.46310233024E+04  0.46310233024E+04  0.25500000000E-02 0.  1.
         -2   -1    0    0    0  501 -0.00000000000E+00 -0.00000000000E+00 -0.15502819682E+03  0.15502819684E+03  0.25500000000E-02 0. -1.
     200001    2    1    2    0    0 -0.23930667983E+03  0.16634628204E+03  0.80398847675E+03  0.10518393394E+04  0.61239672811E+03 0.  0.
    5000001    2    3    3    0    0 -0.38830666306E+03 -0.83592925395E+01  0.38892268172E+03  0.56686135330E+03  0.13863260499E+03 0.  0.
        -11    1    4    4    0    0 -0.96753823485E+02 -0.45654001440E+02  0.52672635146E+02  0.11924762765E+03  0.51100000000E-03 0. -1.
     200002    1    4    4    0    0 -0.29155283957E+03  0.37294708900E+02  0.33625004657E+03  0.44761372565E+03  0.30000000000E+02 0. -1.
     200000    1    3    3    0    0  0.14899998323E+03  0.17470557458E+03  0.41506579504E+03  0.48497798610E+03  0.10100000000E+03 0. -1.
    -200001    1    1    2    0    0  0.23930667983E+03 -0.16634628204E+03  0.36720066288E+04  0.37342121598E+04  0.61300000000E+03 0.  1.
<mgrwt>
<rscale>  0 0.16946258E+04</rscale>
<asrwt>0</asrwt>
<pdfrwt beam="1">  1        2 0.66157486E+00 0.16946258E+04</pdfrwt>
<pdfrwt beam="2">  1       -2 0.22146882E-01 0.16946258E+04</pdfrwt>
<totfact> 0.32999391E+00</totfact>
</mgrwt>
</event>
<event>
 8    1  0.6972317E-052  0.1476776E+04  0.7818608E-02  0.8900045E-01
         -2   -1    0    0    0  501 -0.00000000000E+00  0.00000000000E+00  0.37991224481E+03  0.37991224482E+03  0.25500000000E-02 0. -1.
          2   -1    0    0  501    0  0.00000000000E+00 -0.00000000000E+00 -0.14351135375E+04  0.14351135375E+04  0.25500000000E-02 0.  1.
     200001    2    1    2    0    0 -0.36813826541E+03 -0.10031587576E+03 -0.33677660799E+03  0.79645222829E+03  0.61264068659E+03 0.  0.
    5000001    2    3    3    0    0 -0.11079260707E+03 -0.16629225419E+03  0.13056828813E+03  0.24946783883E+03  0.72512131154E+02 0.  0.
        -11    1    4    4    0    0 -0.40964117354E+02 -0.54538518053E+02  0.11140929923E+02  0.69113162147E+02  0.51100000000E-03 0. -1.
     200002    1    4    4    0    0 -0.69828489712E+02 -0.11175373614E+03  0.11942735820E+03  0.18035467669E+03  0.30000000000E+02 0. -1.
     200000    1    3    3    0    0 -0.25734565834E+03  0.65976378426E+02 -0.46734489612E+03  0.54698438946E+03  0.10100000000E+03 0.  1.
    -200001    1    1    2    0    0  0.36813826541E+03  0.10031587576E+03 -0.71842468469E+03  0.10185735540E+04  0.61300000000E+03 0.  1.
<mgrwt>
<rscale>  0 0.14767765E+04</rscale>
<asrwt>0</asrwt>
<pdfrwt beam="1">  1        2 0.20501622E+00 0.14767765E+04</pdfrwt>
<pdfrwt beam="2">  1       -2 0.54273179E-01 0.14767765E+04</pdfrwt>
<totfact> 0.49054734E+01</totfact>
</mgrwt>
</event>
<event>
 8    1  0.6972317E-052  0.1274510E+04  0.7818608E-02  0.9050027E-01
          2   -1    0    0  501    0  0.00000000000E+00  0.00000000000E+00  0.36797684216E+03  0.36797684217E+03  0.25500000000E-02 0.  1.
         -2   -1    0    0    0  501 -0.00000000000E+00 -0.00000000000E+00 -0.11035854750E+04  0.11035854750E+04  0.25500000000E-02 0. -1.
     200001    2    1    2    0    0  0.82515380543E+02 -0.14742543649E+03 -0.31983291680E+03  0.71183770037E+03  0.61308789716E+03 0.  0.
    5000001    2    3    3    0    0 -0.51282120268E+02 -0.58810754031E+02  0.15591992427E+03  0.19968918777E+03  0.97345715261E+02 0.  0.
        -11    1    4    4    0    0 -0.34786931697E+02 -0.70810929004E+02  0.13861704074E+03  0.15949608856E+03  0.51100000000E-03 0. -1.
     200002    1    4    4    0    0 -0.16495188571E+02  0.12000174974E+02  0.17302883527E+02  0.40193099205E+02  0.30000000000E+02 0.  1.
     200000    1    3    3    0    0  0.13379750081E+03 -0.88614682454E+02 -0.47575284107E+03  0.51214851260E+03  0.10100000000E+03 0.  1.
    -200001    1    1    2    0    0 -0.82515380543E+02  0.14742543649E+03 -0.41577571605E+03  0.75972461682E+03  0.61300000000E+03 0. -1.
<mgrwt>
<rscale>  0 0.12745099E+04</rscale>
<asrwt>0</asrwt>
<pdfrwt beam="1">  1        2 0.52568121E-01 0.12745099E+04</pdfrwt>
<pdfrwt beam="2">  1       -2 0.15765507E+00 0.12745099E+04</pdfrwt>
<totfact> 0.24453725E+01</totfact>
</mgrwt>
</event>
<event>
 8    1  0.6972317E-052  0.1343481E+04  0.7818608E-02  0.8995778E-01
         -2   -1    0    0    0  501 -0.00000000000E+00  0.00000000000E+00  0.33493183757E+03  0.33493183758E+03  0.25500000000E-02 0. -1.
          2   -1    0    0  501    0  0.00000000000E+00 -0.00000000000E+00 -0.13472443089E+04  0.13472443089E+04  0.25500000000E-02 0.  1.
     200001    2    1    2    0    0  0.21608474089E+03  0.33210294133E+02 -0.26334441625E+03  0.68994750024E+03  0.59906738572E+03 0.  0.
    5000001    2    3    3    0    0  0.35099320411E+03 -0.47481895815E+02 -0.33299726268E+03  0.49053826780E+03  0.65496988171E+02 0.  0.
        -11    1    4    4    0    0  0.19293409802E+03 -0.42480120045E+02 -0.15978931922E+03  0.25408808180E+03  0.51100000000E-03 0. -1.
     200002    1    4    4    0    0  0.15805910610E+03 -0.50017757694E+01 -0.17320794346E+03  0.23645018600E+03  0.30000000000E+02 0.  1.
     200000    1    3    3    0    0 -0.13490846322E+03  0.80692189947E+02  0.69652846434E+02  0.19940923244E+03  0.10100000000E+03 0. -1.
    -200001    1    1    2    0    0 -0.21608474089E+03 -0.33210294133E+02 -0.74896805507E+03  0.99222864623E+03  0.61300000000E+03 0.  1.
<mgrwt>
<rscale>  0 0.13434806E+04</rscale>
<asrwt>0</asrwt>
<pdfrwt beam="1">  1        2 0.19246347E+00 0.13434806E+04</pdfrwt>
<pdfrwt beam="2">  1       -2 0.47847406E-01 0.13434806E+04</pdfrwt>
<totfact> 0.71534453E+01</totfact>
</mgrwt>
</event>
<event>
 8    1  0.6972317E-052  0.1326487E+04  0.7818608E-02  0.9008820E-01
          2   -1    0    0  501    0  0.00000000000E+00  0.00000000000E+00  0.31868066705E+03  0.31868066706E+03  0.25500000000E-02 0.  1.
         -2   -1    0    0    0  501 -0.00000000000E+00 -0.00000000000E+00 -0.13803536729E+04  0.13803536729E+04  0.25500000000E-02 0. -1.
     200001    2    1    2    0    0  0.59249857399E+01  0.22100439246E+03 -0.69349165649E+03  0.95056620239E+03  0.61136517774E+03 0.  0.
    5000001    2    3    3    0    0  0.44956994364E+01 -0.18802948644E+03 -0.21704598416E+03  0.31455343865E+03  0.12829500164E+03 0.  0.
        -11    1    4    4    0    0 -0.45111859303E+02 -0.87622274329E+02 -0.48137200337E+02  0.10968105062E+03  0.51100000000E-03 0. -1.
     200002    1    4    4    0    0  0.49607558739E+02 -0.10040721211E+03 -0.16890878382E+03  0.20487238803E+03  0.30000000000E+02 0. -1.
     200000    1    3    3    0    0  0.14292863034E+01  0.40903387890E+03 -0.47644567233E+03  0.63601276373E+03  0.10100000000E+03 0. -1.
    -200001    1    1    2    0    0 -0.59249857399E+01 -0.22100439246E+03 -0.36818134936E+03  0.74846813757E+03  0.61300000000E+03 0.  1.
<mgrwt>
<rscale>  0 0.13264871E+04</rscale>
<asrwt>0</asrwt>
<pdfrwt beam="1">  1        2 0.45525810E-01 0.13264871E+04</pdfrwt>
<pdfrwt beam="2">  1       -2 0.19719338E+00 0.13264871E+04</pdfrwt>
<totfact> 0.15149350E+01</totfact>
</mgrwt>
</event>
<event>
 8    1  0.6972317E-052  0.1539488E+04  0.7818608E-02  0.8858610E-01
         -2   -1    0    0    0  501 -0.00000000000E+00  0.00000000000E+00  0.10322846864E+04  0.10322846864E+04  0.25500000000E-02 0. -1.
          2   -1    0    0  501    0  0.00000000000E+00 -0.00000000000E+00 -0.57397547233E+03  0.57397547234E+03  0.25500000000E-02 0.  1.
     200001    2    1    2    0    0 -0.32008083964E+03  0.16006382174E+03  0.53979214766E+03  0.89178088025E+03  0.61304600543E+03 0.  0.
    5000001    2    3    3    0    0 -0.46678376219E+02  0.10790557456E+03  0.57285124736E+03  0.59384918703E+03  0.10332386709E+03 0.  0.
        -11    1    4    4    0    0 -0.49406058476E+01  0.53976991091E+01  0.26868399560E+03  0.26878361973E+03  0.51100000000E-03 0. -1.
     200002    1    4    4    0    0 -0.41737770371E+02  0.10250787545E+03  0.30416725176E+03  0.32506556730E+03  0.30000000000E+02 0. -1.
     200000    1    3    3    0    0 -0.27340246342E+03  0.52158247181E+02 -0.33059099697E+02  0.29793169322E+03  0.10100000000E+03 0.  1.
    -200001    1    1    2    0    0  0.32008083964E+03 -0.16006382174E+03 -0.81482933584E+02  0.71447927850E+03  0.61300000000E+03 0.  1.
<mgrwt>
<rscale>  0 0.15394883E+04</rscale>
<asrwt>0</asrwt>
<pdfrwt beam="1">  1        2 0.81996497E-01 0.15394883E+04</pdfrwt>
<pdfrwt beam="2">  1       -2 0.14746924E+00 0.15394883E+04</pdfrwt>
<totfact> 0.17292242E+01</totfact>
</mgrwt>
</event>
<event>
 8    1  0.6972317E-052  0.1280741E+04  0.7818608E-02  0.9044979E-01
          2   -1    0    0  501    0  0.00000000000E+00  0.00000000000E+00  0.70210605622E+03  0.70210605622E+03  0.25500000000E-02 0.  1.
         -2   -1    0    0    0  501 -0.00000000000E+00 -0.00000000000E+00 -0.58406346400E+03  0.58406346401E+03  0.25500000000E-02 0. -1.
     200001    2    1    2    0    0  0.15257809273E+03  0.98084252341E+02  0.16677826082E+02  0.63891036753E+03  0.61239506278E+03 0.  0.
    5000001    2    3    3    0    0  0.21613983266E+03  0.58602992174E+01 -0.24619611857E+03  0.33584426403E+03  0.73675440371E+02 0.  0.
        -11    1    4    4    0    0  0.15758559023E+03 -0.87688071863E+01 -0.19686339895E+03  0.25231985271E+03  0.51100000000E-03 0. -1.
     200002    1    4    4    0    0  0.58554242424E+02  0.14629106404E+02 -0.49332719626E+02  0.83524411316E+02  0.30000000000E+02 0.  1.
     200000    1    3    3    0    0 -0.63561739930E+02  0.92223953124E+02  0.26287394466E+03  0.30306610350E+03  0.10100000000E+03 0.  1.
    -200001    1    1    2    0    0 -0.15257809273E+03 -0.98084252341E+02  0.10136476613E+03  0.64725915270E+03  0.61300000000E+03 0.  1.
<mgrwt>
<rscale>  0 0.12807412E+04</rscale>
<asrwt>0</asrwt>
<pdfrwt beam="1">  1        2 0.10030087E+00 0.12807412E+04</pdfrwt>
<pdfrwt beam="2">  1       -2 0.83437637E-01 0.12807412E+04</pdfrwt>
<totfact> 0.55400912E+01</totfact>
</mgrwt>
</event>
<event>
 8    1  0.6972317E-052  0.1523240E+04  0.7818608E-02  0.8869144E-01
          2   -1    0    0  501    0  0.00000000000E+00  0.00000000000E+00  0.24298716919E+04  0.24298716919E+04  0.25500000000E-02 0.  1.
         -2   -1    0    0    0  501 -0.00000000000E+00 -0.00000000000E+00 -0.23872257429E+03  0.23872257431E+03  0.25500000000E-02 0. -1.
     200001    2    1    2    0    0  0.19742306115E+03 -0.52759158618E+02  0.18017374500E+04  0.19141608094E+04  0.61318379921E+03 0.  0.
    5000001    2    3    3    0    0 -0.12716661180E+03 -0.18375126581E+03  0.95913497377E+03  0.99617534062E+03  0.14996511766E+03 0.  0.
        -11    1    4    4    0    0 -0.10520739990E+03 -0.86564878220E+02  0.30812822358E+03  0.33690514586E+03  0.51100000000E-03 0. -1.
     200002    1    4    4    0    0 -0.21959211900E+02 -0.97186387592E+02  0.65100675019E+03  0.65927019477E+03  0.30000000000E+02 0. -1.
     200000    1    3    3    0    0  0.32458967295E+03  0.13099210719E+03  0.84260247627E+03  0.91798546881E+03  0.10100000000E+03 0. -1.
    -200001    1    1    2    0    0 -0.19742306115E+03  0.52759158618E+02  0.38941166762E+03  0.75443345682E+03  0.61300000000E+03 0. -1.
<mgrwt>
<rscale>  0 0.15232403E+04</rscale>
<asrwt>0</asrwt>
<pdfrwt beam="1">  1        2 0.34712451E+00 0.15232403E+04</pdfrwt>
<pdfrwt beam="2">  1       -2 0.34103226E-01 0.15232403E+04</pdfrwt>
<totfact> 0.37366348E+01</totfact>
</mgrwt>
</event>
<event>
 8    1  0.6972317E-052  0.1577165E+04  0.7818608E-02  0.8834701E-01
         -2   -1    0    0    0  501 -0.00000000000E+00  0.00000000000E+00  0.40680602654E+03  0.40680602655E+03  0.25500000000E-02 0. -1.
          2   -1    0    0  501    0  0.00000000000E+00 -0.00000000000E+00 -0.15286451558E+04  0.15286451558E+04  0.25500000000E-02 0.  1.
     200001    2    1    2    0    0 -0.13731120289E+03 -0.43553817508E+03 -0.79863118244E+03  0.11055233269E+04  0.61304338536E+03 0.  0.
    5000001    2    3    3    0    0 -0.22021279214E+03 -0.38841748613E+02 -0.42203791163E+02  0.24144918276E+03  0.80710548328E+02 0.  0.
        -11    1    4    4    0    0 -0.15876342000E+03  0.54848050224E+00 -0.30577239705E+02  0.16168207059E+03  0.51100000000E-03 0. -1.
     200002    1    4    4    0    0 -0.61449372135E+02 -0.39390229115E+02 -0.11626551458E+02  0.79767112172E+02  0.30000000000E+02 0. -1.
     200000    1    3    3    0    0  0.82901589250E+02 -0.39669642647E+03 -0.75642739128E+03  0.86407414413E+03  0.10100000000E+03 0.  1.
    -200001    1    1    2    0    0  0.13731120289E+03  0.43553817508E+03 -0.32320794682E+03  0.82992785547E+03  0.61300000000E+03 0. -1.
<mgrwt>
<rscale>  0 0.15771646E+04</rscale>
<asrwt>0</asrwt>
<pdfrwt beam="1">  1        2 0.21837788E+00 0.15771646E+04</pdfrwt>
<pdfrwt beam="2">  1       -2 0.58115147E-01 0.15771646E+04</pdfrwt>
<totfact> 0.37629254E+01</totfact>
</mgrwt>
</event>
<event>
 8    1  0.6972317E-052  0.1661564E+04  0.7818608E-02  0.8783595E-01
          2   -1    0    0  501    0  0.00000000000E+00  0.00000000000E+00  0.17063948567E+04  0.17063948567E+04  0.25500000000E-02 0.  1.
         -2   -1    0    0    0  501 -0.00000000000E+00 -0.00000000000E+00 -0.40447758842E+03  0.40447758843E+03  0.25500000000E-02 0. -1.
     200001    2    1    2    0    0 -0.54396937768E+03  0.12866894565E+03  0.66547654537E+03  0.10652701425E+04  0.61602196608E+03 0.  0.
    5000001    2    3    3    0    0 -0.10965443576E+03  0.45462857979E+02 -0.10334052698E+03  0.17261488290E+03  0.70891935687E+02 0.  0.
        -11    1    4    4    0    0 -0.73958095630E+02  0.43806425048E+02 -0.89163737070E+02  0.12385061483E+03  0.51100000000E-03 0. -1.
     200002    1    4    4    0    0 -0.35696340126E+02  0.16564329312E+01 -0.14176789910E+02  0.48764268072E+02  0.30000000000E+02 0.  1.
     200000    1    3    3    0    0 -0.43431494192E+03  0.83206087671E+02  0.76881707235E+03  0.89265525962E+03  0.10100000000E+03 0.  1.
    -200001    1    1    2    0    0  0.54396937768E+03 -0.12866894565E+03  0.63644072292E+03  0.10456023026E+04  0.61300000000E+03 0. -1.
<mgrwt>
<rscale>  0 0.16615637E+04</rscale>
<asrwt>0</asrwt>
<pdfrwt beam="1">  1        2 0.24377069E+00 0.16615637E+04</pdfrwt>
<pdfrwt beam="2">  1       -2 0.57782513E-01 0.16615637E+04</pdfrwt>
<totfact> 0.30527975E+01</totfact>
</mgrwt>
</event>
<event>
 8    1  0.6972317E-052  0.1783172E+04  0.7818608E-02  0.8715300E-01
         -2   -1    0    0    0  501 -0.00000000000E+00  0.00000000000E+00  0.38576093774E+03  0.38576093775E+03  0.25500000000E-02 0. -1.
          2   -1    0    0  501    0  0.00000000000E+00 -0.00000000000E+00 -0.20606688024E+04  0.20606688024E+04  0.25500000000E-02 0.  1.
     200001    2    1    2    0    0 -0.54090319648E+03  0.11064075666E+01 -0.34958313160E+03  0.88924248740E+03  0.61316094412E+03 0.  0.
    5000001    2    3    3    0    0 -0.19555506383E+03 -0.27479984125E+03 -0.65206648802E+02  0.35402236929E+03  0.85575669281E+02 0.  0.
        -11    1    4    4    0    0 -0.46296014132E+02 -0.19654432706E+02 -0.16557647647E+02  0.52950668980E+02  0.51100000000E-03 0. -1.
     200002    1    4    4    0    0 -0.14925904969E+03 -0.25514540854E+03 -0.48649001155E+02  0.30107170031E+03  0.30000000000E+02 0. -1.
     200000    1    3    3    0    0 -0.34534813265E+03  0.27590624881E+03 -0.28437648280E+03  0.53522011811E+03  0.10100000000E+03 0. -1.
    -200001    1    1    2    0    0  0.54090319648E+03 -0.11064075666E+01 -0.13253247331E+04  0.15571872528E+04  0.61300000000E+03 0.  1.
<mgrwt>
<rscale>  0 0.17831719E+04</rscale>
<asrwt>0</asrwt>
<pdfrwt beam="1">  1        2 0.29438125E+00 0.17831719E+04</pdfrwt>
<pdfrwt beam="2">  1       -2 0.55108706E-01 0.17831719E+04</pdfrwt>
<totfact> 0.21909214E+01</totfact>
</mgrwt>
</event>
<event>
 8    1  0.6972317E-052  0.1338194E+04  0.7818608E-02  0.8999813E-01
          2   -1    0    0  501    0  0.00000000000E+00  0.00000000000E+00  0.14587644698E+04  0.14587644698E+04  0.25500000000E-02 0.  1.
         -2   -1    0    0    0  501 -0.00000000000E+00 -0.00000000000E+00 -0.30689741636E+03  0.30689741637E+03  0.25500000000E-02 0. -1.
     200001    2    1    2    0    0 -0.17396202929E+03 -0.41181897907E+02  0.83943853734E+03  0.10547896656E+04  0.61316021094E+03 0.  0.
    5000001    2    3    3    0    0  0.14004723312E+03 -0.95766747934E+02  0.62650607926E+03  0.65840279088E+03  0.11045302247E+03 0.  0.
        -11    1    4    4    0    0  0.10262186723E+03 -0.10191199477E+03  0.54274985984E+03  0.56168916018E+03  0.51100000000E-03 0. -1.
     200002    1    4    4    0    0  0.37425365890E+02  0.61452468342E+01  0.83756219420E+02  0.96713630695E+02  0.30000000000E+02 0. -1.
     200000    1    3    3    0    0 -0.31400926240E+03  0.54584850027E+02  0.21293245808E+03  0.39638687470E+03  0.10100000000E+03 0.  1.
    -200001    1    1    2    0    0  0.17396202929E+03  0.41181897907E+02  0.31242851610E+03  0.71087222060E+03  0.61300000000E+03 0. -1.
<mgrwt>
<rscale>  0 0.13381944E+04</rscale>
<asrwt>0</asrwt>
<pdfrwt beam="1">  1        2 0.20839492E+00 0.13381944E+04</pdfrwt>
<pdfrwt beam="2">  1       -2 0.43842489E-01 0.13381944E+04</pdfrwt>
<totfact> 0.74195904E+01</totfact>
</mgrwt>
</event>
<event>
 8    1  0.6972317E-052  0.1470230E+04  0.7818608E-02  0.8904494E-01
         -2   -1    0    0    0  501 -0.00000000000E+00  0.00000000000E+00  0.38850107246E+03  0.38850107247E+03  0.25500000000E-02 0. -1.
          2   -1    0    0  501    0  0.00000000000E+00 -0.00000000000E+00 -0.13909722498E+04  0.13909722498E+04  0.25500000000E-02 0.  1.
     200001    2    1    2    0    0  0.22322123818E+03  0.30923080598E+02 -0.94739899007E+02  0.66120276836E+03  0.61435290700E+03 0.  0.
    5000001    2    3    3    0    0  0.19535908126E+03  0.25599916750E+03  0.35894297202E+02  0.38066428989E+03  0.19979028162E+03 0.  0.
        -11    1    4    4    0    0  0.23063247030E+03  0.21886040128E+03  0.43151182958E+02  0.32086326714E+03  0.51100000000E-03 0. -1.
     200002    1    4    4    0    0 -0.35273389040E+02  0.37138766224E+02 -0.72568857562E+01  0.59801022750E+02  0.30000000000E+02 0. -1.
     200000    1    3    3    0    0  0.27862156914E+02 -0.22507608691E+03 -0.13063419621E+03  0.28053847847E+03  0.10100000000E+03 0.  1.
    -200001    1    1    2    0    0 -0.22322123818E+03 -0.30923080598E+02 -0.90773127835E+03  0.11182705539E+04  0.61300000000E+03 0.  1.
<mgrwt>
<rscale>  0 0.14702302E+04</rscale>
<asrwt>0</asrwt>
<pdfrwt beam="1">  1        2 0.19871032E+00 0.14702302E+04</pdfrwt>
<pdfrwt beam="2">  1       -2 0.55500154E-01 0.14702302E+04</pdfrwt>
<totfact> 0.49498371E+01</totfact>
</mgrwt>
</event>
<event>
 8    1  0.6972317E-052  0.2002043E+04  0.7818608E-02  0.8605666E-01
          2   -1    0    0  501    0  0.00000000000E+00  0.00000000000E+00  0.24291207622E+04  0.24291207622E+04  0.25500000000E-02 0.  1.
         -2   -1    0    0    0  501 -0.00000000000E+00 -0.00000000000E+00 -0.41251295015E+03  0.41251295016E+03  0.25500000000E-02 0. -1.
     200001    2    1    2    0    0  0.57460618328E+03  0.29073575515E+03  0.36016902717E+03  0.96167148050E+03  0.61675826957E+03 0.  0.
    5000001    2    3    3    0    0  0.19694940648E+03  0.56280894410E+02 -0.15790183080E+03  0.27160471803E+03  0.82942913470E+02 0.  0.
        -11    1    4    4    0    0  0.51129298125E+02  0.18794467787E+02 -0.86659530564E+02  0.10235873868E+03  0.51100000000E-03 0. -1.
     200002    1    4    4    0    0  0.14582010836E+03  0.37486426623E+02 -0.71242300236E+02  0.16924597935E+03  0.30000000000E+02 0. -1.
     200000    1    3    3    0    0  0.37765677680E+03  0.23445486074E+03  0.51807085798E+03  0.69006676247E+03  0.10100000000E+03 0.  1.
    -200001    1    1    2    0    0 -0.57460618328E+03 -0.29073575515E+03  0.16564387849E+04  0.18799622319E+04  0.61300000000E+03 0.  1.
<mgrwt>
<rscale>  0 0.20020427E+04</rscale>
<asrwt>0</asrwt>
<pdfrwt beam="1">  1        2 0.34701725E+00 0.20020427E+04</pdfrwt>
<pdfrwt beam="2">  1       -2 0.58930422E-01 0.20020427E+04</pdfrwt>
<totfact> 0.12049193E+01</totfact>
</mgrwt>
</event>
<event>
 8    1  0.6972317E-052  0.1643244E+04  0.7818608E-02  0.8794413E-01
          2   -1    0    0  501    0  0.00000000000E+00  0.00000000000E+00  0.13556108358E+04  0.13556108358E+04  0.25500000000E-02 0.  1.
         -2   -1    0    0    0  501 -0.00000000000E+00 -0.00000000000E+00 -0.49797696895E+03  0.49797696895E+03  0.25500000000E-02 0. -1.
     200001    2    1    2    0    0 -0.20401412322E+03 -0.50591974526E+03  0.46979626953E+03  0.94597359541E+03  0.61366192422E+03 0.  0.
    5000001    2    3    3    0    0 -0.28876952575E+03 -0.95103997874E+02  0.40142866025E+03  0.50913473890E+03  0.75103952436E+02 0.  0.
        -11    1    4    4    0    0 -0.13011418433E+02 -0.23112055598E+02  0.31116389134E+02  0.40886352205E+02  0.51100000000E-03 0. -1.
     200002    1    4    4    0    0 -0.27575810732E+03 -0.71991942275E+02  0.37031227112E+03  0.46824838670E+03  0.30000000000E+02 0. -1.
     200000    1    3    3    0    0  0.84755402536E+02 -0.41081574738E+03  0.68367609275E+02  0.43683885651E+03  0.10100000000E+03 0. -1.
    -200001    1    1    2    0    0  0.20401412322E+03  0.50591974526E+03  0.38783759734E+03  0.90761420935E+03  0.61300000000E+03 0. -1.
<mgrwt>
<rscale>  0 0.16432443E+04</rscale>
<asrwt>0</asrwt>
<pdfrwt beam="1">  1        2 0.19365869E+00 0.16432443E+04</pdfrwt>
<pdfrwt beam="2">  1       -2 0.71139568E-01 0.16432443E+04</pdfrwt>
<totfact> 0.30071287E+01</totfact>
</mgrwt>
</event>
<event>
 8    1  0.6972317E-052  0.1839698E+04  0.7818608E-02  0.8685469E-01
          2   -1    0    0  501    0  0.00000000000E+00  0.00000000000E+00  0.18230237364E+04  0.18230237364E+04  0.25500000000E-02 0.  1.
         -2   -1    0    0    0  501 -0.00000000000E+00 -0.00000000000E+00 -0.46413133193E+03  0.46413133194E+03  0.25500000000E-02 0. -1.
     200001    2    1    2    0    0  0.28790084457E+03 -0.59220742970E+03  0.44155182531E+03  0.10022895990E+04  0.61320460678E+03 0.  0.
    5000001    2    3    3    0    0  0.44232971049E+03 -0.52294197043E+03  0.41037659166E+03  0.80274292861E+03  0.82845550482E+02 0.  0.
        -11    1    4    4    0    0  0.11722812962E+03 -0.18645636690E+03  0.14969349375E+03  0.26630162073E+03  0.51100000000E-03 0. -1.
     200002    1    4    4    0    0  0.32510158087E+03 -0.33648560353E+03  0.26068309791E+03  0.53644130789E+03  0.30000000000E+02 0. -1.
     200000    1    3    3    0    0 -0.15442886592E+03 -0.69265459271E+02  0.31175233647E+02  0.19954667041E+03  0.10100000000E+03 0. -1.
    -200001    1    1    2    0    0 -0.28790084457E+03  0.59220742970E+03  0.91734057919E+03  0.12848654694E+04  0.61300000000E+03 0.  1.
<mgrwt>
<rscale>  0 0.18396983E+04</rscale>
<asrwt>0</asrwt>
<pdfrwt beam="1">  1        2 0.26043196E+00 0.18396983E+04</pdfrwt>
<pdfrwt beam="2">  1       -2 0.66304476E-01 0.18396983E+04</pdfrwt>
<totfact> 0.19548440E+01</totfact>
</mgrwt>
</event>
<event>
 8    1  0.6972317E-052  0.1619126E+04  0.7818608E-02  0.8808883E-01
         -2   -1    0    0    0  501 -0.00000000000E+00  0.00000000000E+00  0.25968553683E+03  0.25968553685E+03  0.25500000000E-02 0. -1.
          2   -1    0    0  501    0  0.00000000000E+00 -0.00000000000E+00 -0.25237933797E+04  0.25237933797E+04  0.25500000000E-02 0.  1.
     200001    2    1    2    0    0  0.95973498093E+02 -0.25645867544E+03 -0.35644411723E+03  0.76112092285E+03  0.61422364490E+03 0.  0.
    5000001    2    3    3    0    0  0.21444124201E+03 -0.23071426570E+03 -0.46719424848E+03  0.56834132706E+03  0.74345676153E+02 0.  0.
        -11    1    4    4    0    0  0.11758525040E+03 -0.85596102143E+02 -0.18690197799E+03  0.23682342196E+03  0.51100000000E-03 0. -1.
     200002    1    4    4    0    0  0.96855991608E+02 -0.14511816356E+03 -0.28029227049E+03  0.33151790510E+03  0.30000000000E+02 0. -1.
     200000    1    3    3    0    0 -0.11846774392E+03 -0.25744409736E+02  0.11075013125E+03  0.19277959579E+03  0.10100000000E+03 0. -1.
    -200001    1    1    2    0    0 -0.95973498093E+02  0.25645867544E+03 -0.19076637256E+04  0.20223579937E+04  0.61300000000E+03 0.  1.
<mgrwt>
<rscale>  0 0.16191265E+04</rscale>
<asrwt>0</asrwt>
<pdfrwt beam="1">  1        2 0.36054190E+00 0.16191265E+04</pdfrwt>
<pdfrwt beam="2">  1       -2 0.37097935E-01 0.16191265E+04</pdfrwt>
<totfact> 0.28168301E+01</totfact>
</mgrwt>
</event>
<event>
 8    1  0.6972317E-052  0.1413023E+04  0.7818608E-02  0.8944445E-01
          2   -1    0    0  501    0  0.00000000000E+00  0.00000000000E+00  0.26794272237E+04  0.26794272237E+04  0.25500000000E-02 0.  1.
         -2   -1    0    0    0  501 -0.00000000000E+00 -0.00000000000E+00 -0.18629307046E+03  0.18629307048E+03  0.25500000000E-02 0. -1.
     200001    2    1    2    0    0 -0.32333481466E+03 -0.11828990069E+03  0.11075569925E+04  0.13119728980E+04  0.61323118831E+03 0.  0.
    5000001    2    3    3    0    0  0.13865460560E+03 -0.13687105179E+02  0.80957746650E+02  0.17685925568E+03  0.72887605770E+02 0.  0.
        -11    1    4    4    0    0  0.14725413110E+01 -0.12433066811E+02 -0.34854425838E+01  0.12996070117E+02  0.51100000000E-03 0. -1.
     200002    1    4    4    0    0  0.13718206429E+03 -0.12540383681E+01  0.84443189233E+02  0.16386318556E+03  0.30000000000E+02 0. -1.
     200000    1    3    3    0    0 -0.46198942026E+03 -0.10460279551E+03  0.10265992459E+04  0.11351136423E+04  0.10100000000E+03 0. -1.
    -200001    1    1    2    0    0  0.32333481466E+03  0.11828990069E+03  0.13855771607E+04  0.15537473962E+04  0.61300000000E+03 0.  1.
<mgrwt>
<rscale>  0 0.14130233E+04</rscale>
<asrwt>0</asrwt>
<pdfrwt beam="1">  1        2 0.38277533E+00 0.14130233E+04</pdfrwt>
<pdfrwt beam="2">  1       -2 0.26613295E-01 0.14130233E+04</pdfrwt>
<totfact> 0.44216926E+01</totfact>
</mgrwt>
</event>
<event>
 8    1  0.6972317E-052  0.1581529E+04  0.7818608E-02  0.8831976E-01
         -2   -1    0    0    0  501 -0.00000000000E+00  0.00000000000E+00  0.35118571916E+03  0.35118571917E+03  0.25500000000E-02 0.  1.
          2   -1    0    0  501    0  0.00000000000E+00 -0.00000000000E+00 -0.17805640329E+04  0.17805640329E+04  0.25500000000E-02 0. -1.
     200001    2    1    2    0    0 -0.17224032534E+03  0.40445034803E+03 -0.39704154258E+03  0.85318218530E+03  0.61402853442E+03 0.  0.
    5000001    2    3    3    0    0 -0.98883406792E+02  0.24020667583E+03 -0.53855139336E+03  0.60301572228E+03  0.78186845270E+02 0.  0.
        -11    1    4    4    0    0 -0.55795008096E+02  0.12450226613E+03 -0.34997494633E+03  0.37562795458E+03  0.51100000000E-03 0. -1.
     200002    1    4    4    0    0 -0.43088398695E+02  0.11570440970E+03 -0.18857644703E+03  0.22738776770E+03  0.30000000000E+02 0. -1.
     200000    1    3    3    0    0 -0.73356918551E+02  0.16424367219E+03  0.14150985077E+03  0.25016646302E+03  0.10100000000E+03 0.  1.
    -200001    1    1    2    0    0  0.17224032534E+03 -0.40445034803E+03 -0.10323367711E+04  0.12785675667E+04  0.61300000000E+03 0. -1.
<mgrwt>
<rscale>  0 0.15815292E+04</rscale>
<asrwt>0</asrwt>
<pdfrwt beam="1">  1        2 0.25436628E+00 0.15815292E+04</pdfrwt>
<pdfrwt beam="2">  1       -2 0.50169390E-01 0.15815292E+04</pdfrwt>
<totfact> 0.37653822E+01</totfact>
</mgrwt>
</event>
<event>
 8    1  0.6972317E-052  0.1484151E+04  0.7818608E-02  0.8895061E-01
          2   -1    0    0  501    0  0.00000000000E+00  0.00000000000E+00  0.17068564017E+04  0.17068564017E+04  0.25500000000E-02 0.  1.
         -2   -1    0    0    0  501 -0.00000000000E+00 -0.00000000000E+00 -0.32262596641E+03  0.32262596642E+03  0.25500000000E-02 0. -1.
     200001    2    1    2    0    0 -0.26218246188E+03 -0.15073915299E+03  0.29919139967E+03  0.74708592225E+03  0.61413349202E+03 0.  0.
    5000001    2    3    3    0    0 -0.26053194152E+03  0.12189036410E+03  0.66949095956E+00  0.33037750167E+03  0.16252597324E+03 0.  0.
        -11    1    4    4    0    0 -0.12477142910E+02 -0.30343826814E+02 -0.17581993105E+02  0.37223022482E+02  0.51100000000E-03 0. -1.
     200002    1    4    4    0    0 -0.24805479861E+03  0.15223419091E+03  0.18251484065E+02  0.29315447918E+03  0.30000000000E+02 0. -1.
     200000    1    3    3    0    0 -0.16505203574E+01 -0.27262951709E+03  0.29852190871E+03  0.41670842058E+03  0.10100000000E+03 0.  1.
    -200001    1    1    2    0    0  0.26218246188E+03  0.15073915299E+03  0.10850390356E+04  0.12823964459E+04  0.61300000000E+03 0.  1.
<mgrwt>
<rscale>  0 0.14841512E+04</rscale>
<asrwt>0</asrwt>
<pdfrwt beam="1">  1        2 0.24383663E+00 0.14841512E+04</pdfrwt>
<pdfrwt beam="2">  1       -2 0.46089424E-01 0.14841512E+04</pdfrwt>
<totfact> 0.49177007E+01</totfact>
</mgrwt>
</event>
<event>
 8    1  0.6972317E-052  0.1550646E+04  0.7818608E-02  0.8851455E-01
         -2   -1    0    0    0  501 -0.00000000000E+00  0.00000000000E+00  0.97177937567E+03  0.97177937567E+03  0.25500000000E-02 0. -1.
          2   -1    0    0  501    0  0.00000000000E+00 -0.00000000000E+00 -0.61858250212E+03  0.61858250213E+03  0.25500000000E-02 0.  1.
     200001    2    1    2    0    0 -0.82792985458E+02  0.36031643089E+03  0.48185986909E+03  0.86303404578E+03  0.61315269054E+03 0.  0.
    5000001    2    3    3    0    0 -0.23469901705E+03  0.27862777558E+03  0.48591103309E+03  0.66311933704E+03  0.26627177310E+03 0.  0.
        -11    1    4    4    0    0 -0.11162330576E+03 -0.17178045741E+02  0.21340251959E+03  0.24144457544E+03  0.51100000000E-03 0. -1.
     200002    1    4    4    0    0 -0.12307571128E+03  0.29580582132E+03  0.27250851350E+03  0.42167476159E+03  0.30000000000E+02 0. -1.
     200000    1    3    3    0    0  0.15190603159E+03  0.81688655314E+02 -0.40511640022E+01  0.19991470874E+03  0.10100000000E+03 0. -1.
    -200001    1    1    2    0    0  0.82792985458E+02 -0.36031643089E+03 -0.12866299554E+03  0.72732783202E+03  0.61300000000E+03 0.  1.
<mgrwt>
<rscale>  0 0.15506460E+04</rscale>
<asrwt>0</asrwt>
<pdfrwt beam="1">  1        2 0.88368928E-01 0.15506460E+04</pdfrwt>
<pdfrwt beam="2">  1       -2 0.13882563E+00 0.15506460E+04</pdfrwt>
<totfact> 0.18519666E+01</totfact>
</mgrwt>
</event>
<event>
 8    1  0.6972317E-052  0.1868224E+04  0.7818608E-02  0.8670837E-01
          2   -1    0    0  501    0  0.00000000000E+00  0.00000000000E+00  0.24372210102E+04  0.24372210102E+04  0.25500000000E-02 0. -1.
         -2   -1    0    0    0  501 -0.00000000000E+00 -0.00000000000E+00 -0.35801661766E+03  0.35801661767E+03  0.25500000000E-02 0.  1.
     200001    2    1    2    0    0  0.63470040651E+03 -0.22144042183E+03  0.13583402498E+04  0.16345074358E+04  0.61208321094E+03 0.  0.
    5000001    2    3    3    0    0  0.53804463379E+03 -0.11725421432E+02  0.49886354994E+03  0.73883790001E+03  0.85948167919E+02 0.  0.
        -11    1    4    4    0    0  0.32928648263E+03 -0.22678516465E+02  0.34562463081E+03  0.47791242731E+03  0.51100000000E-03 0. -1.
     200002    1    4    4    0    0  0.20875815116E+03  0.10953095032E+02  0.15323891913E+03  0.26092547270E+03  0.30000000000E+02 0. -1.
     200000    1    3    3    0    0  0.96655772716E+02 -0.20971500040E+03  0.85947669989E+03  0.89566953584E+03  0.10100000000E+03 0. -1.
    -200001    1    1    2    0    0 -0.63470040651E+03  0.22144042183E+03  0.72086414271E+03  0.11607301920E+04  0.61300000000E+03 0.  1.
<mgrwt>
<rscale>  0 0.18682244E+04</rscale>
<asrwt>0</asrwt>
<pdfrwt beam="1">  1        2 0.34817443E+00 0.18682244E+04</pdfrwt>
<pdfrwt beam="2">  1       -2 0.51145232E-01 0.18682244E+04</pdfrwt>
<totfact> 0.16189698E+01</totfact>
</mgrwt>
</event>
<event>
 8    1  0.6972317E-052  0.1365729E+04  0.7818608E-02  0.8979007E-01
         -2   -1    0    0    0  501 -0.00000000000E+00  0.00000000000E+00  0.14806284909E+03  0.14806284911E+03  0.25500000000E-02 0. -1.
          2   -1    0    0  501    0  0.00000000000E+00 -0.00000000000E+00 -0.31493625200E+04  0.31493625200E+04  0.25500000000E-02 0.  1.
     200001    2    1    2    0    0 -0.28041632380E+02  0.25935784334E+03 -0.18806297395E+04  0.19936911480E+04  0.60826256877E+03 0.  0.
    5000001    2    3    3    0    0 -0.10785127375E+03  0.35088228322E+03 -0.64068118549E+03  0.74372326102E+03  0.88891133466E+02 0.  0.
        -11    1    4    4    0    0 -0.38104933986E+02  0.20558094487E+03 -0.30028636266E+03  0.36590628649E+03  0.51100000000E-03 0. -1.
     200002    1    4    4    0    0 -0.69746339762E+02  0.14530133835E+03 -0.34039482283E+03  0.37781697453E+03  0.30000000000E+02 0. -1.
     200000    1    3    3    0    0  0.79809641368E+02 -0.91524439885E+02 -0.12399485540E+04  0.12499678870E+04  0.10100000000E+03 0.  1.
    -200001    1    1    2    0    0  0.28041632380E+02 -0.25935784334E+03 -0.11206699313E+04  0.13037342210E+04  0.61300000000E+03 0. -1.
<mgrwt>
<rscale>  0 0.13657285E+04</rscale>
<asrwt>0</asrwt>
<pdfrwt beam="1">  1        2 0.44990889E+00 0.13657285E+04</pdfrwt>
<pdfrwt beam="2">  1       -2 0.21151838E-01 0.13657285E+04</pdfrwt>
<totfact> 0.37022045E+01</totfact>
</mgrwt>
</event>
<event>
 8    1  0.6972317E-052  0.1277159E+04  0.7818608E-02  0.9047877E-01
         -2   -1    0    0    0  501 -0.00000000000E+00  0.00000000000E+00  0.70892640522E+03  0.70892640522E+03  0.25500000000E-02 0. -1.
          2   -1    0    0  501    0  0.00000000000E+00 -0.00000000000E+00 -0.57521342990E+03  0.57521342990E+03  0.25500000000E-02 0.  1.
     200001    2    1    2    0    0 -0.87839639584E+02  0.70625470073E+02 -0.61422858740E+02  0.63103130430E+03  0.61783815043E+03 0.  0.
    5000001    2    3    3    0    0 -0.27305473630E+01  0.27513504814E+03  0.13707603864E+03  0.31691263665E+03  0.77052114160E+02 0.  0.
        -11    1    4    4    0    0 -0.18782164513E-01  0.20209003427E+03  0.12322503858E+03  0.23669556912E+03  0.51100000000E-03 0. -1.
     200002    1    4    4    0    0 -0.27117651985E+01  0.73045013868E+02  0.13851000055E+02  0.80217067535E+02  0.30000000000E+02 0.  1.
     200000    1    3    3    0    0 -0.85109092221E+02 -0.20450957807E+03 -0.19849889738E+03  0.31411866764E+03  0.10100000000E+03 0.  1.
    -200001    1    1    2    0    0  0.87839639584E+02 -0.70625470073E+02  0.19513583406E+03  0.65310853083E+03  0.61300000000E+03 0. -1.
<mgrwt>
<rscale>  0 0.12771593E+04</rscale>
<asrwt>0</asrwt>
<pdfrwt beam="1">  1        2 0.82173347E-01 0.12771593E+04</pdfrwt>
<pdfrwt beam="2">  1       -2 0.10127520E+00 0.12771593E+04</pdfrwt>
<totfact> 0.44945788E+01</totfact>
</mgrwt>
</event>
<event>
 8    1  0.6972317E-052  0.2179098E+04  0.7818608E-02  0.8527179E-01
         -2   -1    0    0    0  501 -0.00000000000E+00  0.00000000000E+00  0.47817388715E+03  0.47817388715E+03  0.25500000000E-02 0. -1.
          2   -1    0    0  501    0  0.00000000000E+00 -0.00000000000E+00 -0.24826057068E+04  0.24826057068E+04  0.25500000000E-02 0.  1.
     200001    2    1    2    0    0  0.61487189805E+03  0.48123750628E+03 -0.39216713589E+03  0.10674166074E+04  0.61312817808E+03 0.  0.
    5000001    2    3    3    0    0  0.30359208973E+03  0.34144517775E+02  0.86744791793E+02  0.33506089195E+03  0.10680420109E+03 0.  0.
        -11    1    4    4    0    0  0.99100138540E+02 -0.35064167972E+02  0.19074089560E+02  0.10683704520E+03  0.51100000000E-03 0. -1.
     200002    1    4    4    0    0  0.20449195119E+03  0.69208685747E+02  0.67670702233E+02  0.22822384675E+03  0.30000000000E+02 0. -1.
     200000    1    3    3    0    0  0.31127980832E+03  0.44709298850E+03 -0.47891192768E+03  0.73235571542E+03  0.10100000000E+03 0.  1.
    -200001    1    1    2    0    0 -0.61487189805E+03 -0.48123750628E+03 -0.16122646838E+04  0.18933629866E+04  0.61300000000E+03 0.  1.
<mgrwt>
<rscale>  0 0.21790982E+04</rscale>
<asrwt>0</asrwt>
<pdfrwt beam="1">  1        2 0.35465795E+00 0.21790982E+04</pdfrwt>
<pdfrwt beam="2">  1       -2 0.68310557E-01 0.21790982E+04</pdfrwt>
<totfact> 0.81168839E+00</totfact>
</mgrwt>
</event>
<event>
 8    1  0.6972317E-052  0.1790796E+04  0.7818608E-02  0.8711210E-01
          2   -1    0    0  501    0  0.00000000000E+00  0.00000000000E+00  0.18507467934E+04  0.18507467934E+04  0.25500000000E-02 0.  1.
         -2   -1    0    0    0  501 -0.00000000000E+00 -0.00000000000E+00 -0.43319660128E+03  0.43319660129E+03  0.25500000000E-02 0. -1.
     200001    2    1    2    0    0 -0.32782656611E+03  0.34060739495E+03  0.12814120289E+04  0.14979495942E+04  0.61510368556E+03 0.  0.
    5000001    2    3    3    0    0 -0.16804348319E+03  0.10365568490E+03  0.31561033372E+02  0.21186823693E+03  0.70063811888E+02 0.  0.
        -11    1    4    4    0    0 -0.19526078250E+02  0.31151819231E+02 -0.11396320856E+02  0.38491293854E+02  0.51100000000E-03 0. -1.
     200002    1    4    4    0    0 -0.14851740494E+03  0.72503865671E+02  0.42957354228E+02  0.17337694307E+03  0.30000000000E+02 0. -1.
     200000    1    3    3    0    0 -0.15978308292E+03  0.23695171004E+03  0.12498509955E+04  0.12860813573E+04  0.10100000000E+03 0.  1.
    -200001    1    1    2    0    0  0.32782656611E+03 -0.34060739495E+03  0.13613816321E+03  0.78599380050E+03  0.61300000000E+03 0.  1.
<mgrwt>
<rscale>  0 0.17907956E+04</rscale>
<asrwt>0</asrwt>
<pdfrwt beam="1">  1        2 0.26439240E+00 0.17907956E+04</pdfrwt>
<pdfrwt beam="2">  1       -2 0.61885228E-01 0.17907956E+04</pdfrwt>
<totfact> 0.22011025E+01</totfact>
</mgrwt>
</event>
<event>
 8    1  0.6972317E-052  0.1368879E+04  0.7818608E-02  0.8976658E-01
         -2   -1    0    0    0  501 -0.00000000000E+00  0.00000000000E+00  0.13495128275E+04  0.13495128275E+04  0.25500000000E-02 0. -1.
          2   -1    0    0  501    0  0.00000000000E+00 -0.00000000000E+00 -0.34713100403E+03  0.34713100404E+03  0.25500000000E-02 0.  1.
     200001    2    1    2    0    0 -0.12813355235E+03 -0.27065495719E+03  0.42837335505E+03  0.80505702429E+03  0.61232407103E+03 0.  0.
    5000001    2    3    3    0    0  0.21041634396E+03 -0.22994343546E+03  0.21550921491E+03  0.39058675703E+03  0.94682478524E+02 0.  0.
        -11    1    4    4    0    0  0.12568913439E+02 -0.65552063437E+02  0.46306100646E+02  0.81236109971E+02  0.51100000000E-03 0. -1.
     200002    1    4    4    0    0  0.19784743052E+03 -0.16439137202E+03  0.16920311427E+03  0.30935064706E+03  0.30000000000E+02 0. -1.
     200000    1    3    3    0    0 -0.33854989630E+03 -0.40711521729E+02  0.21286414013E+03  0.41447026726E+03  0.10100000000E+03 0. -1.
    -200001    1    1    2    0    0  0.12813355235E+03  0.27065495719E+03  0.57400846847E+03  0.89158680730E+03  0.61300000000E+03 0.  1.
<mgrwt>
<rscale>  0 0.13688795E+04</rscale>
<asrwt>0</asrwt>
<pdfrwt beam="1">  1        2 0.49590144E-01 0.13688795E+04</pdfrwt>
<pdfrwt beam="2">  1       -2 0.19278754E+00 0.13688795E+04</pdfrwt>
<totfact> 0.14688342E+01</totfact>
</mgrwt>
</event>
<event>
 8    1  0.6972317E-052  0.1362239E+04  0.7818608E-02  0.8981615E-01
         -2   -1    0    0    0  501 -0.00000000000E+00  0.00000000000E+00  0.52737564262E+03  0.52737564262E+03  0.25500000000E-02 0. -1.
          2   -1    0    0  501    0  0.00000000000E+00 -0.00000000000E+00 -0.87968358213E+03  0.87968358214E+03  0.25500000000E-02 0.  1.
     200001    2    1    2    0    0  0.25747259225E+03  0.11195240112E+03 -0.27703582490E+03  0.72863430841E+03  0.61264478391E+03 0.  0.
    5000001    2    3    3    0    0  0.25054583876E+03  0.79086898063E+02 -0.45101269479E+03  0.52468070471E+03  0.53380111184E+02 0.  0.
        -11    1    4    4    0    0  0.67727873558E+02  0.95231597604E+01 -0.90650644405E+02  0.11355745136E+03  0.51100000000E-03 0. -1.
     200002    1    4    4    0    0  0.18281796520E+03  0.69563738302E+02 -0.36036205039E+03  0.41112325335E+03  0.30000000000E+02 0.  1.
     200000    1    3    3    0    0  0.69267534929E+01  0.32865503062E+02  0.17397686989E+03  0.20395360370E+03  0.10100000000E+03 0. -1.
    -200001    1    1    2    0    0 -0.25747259225E+03 -0.11195240112E+03 -0.75272114620E+02  0.67842491634E+03  0.61300000000E+03 0. -1.
<mgrwt>
<rscale>  0 0.13622389E+04</rscale>
<asrwt>0</asrwt>
<pdfrwt beam="1">  1        2 0.12566908E+00 0.13622389E+04</pdfrwt>
<pdfrwt beam="2">  1       -2 0.75339378E-01 0.13622389E+04</pdfrwt>
<totfact> 0.51825734E+01</totfact>
</mgrwt>
</event>
<event>
 8    1  0.6972317E-052  0.2037482E+04  0.7818608E-02  0.8589294E-01
         -2   -1    0    0    0  501 -0.00000000000E+00  0.00000000000E+00  0.30937432413E+03  0.30937432414E+03  0.25500000000E-02 0. -1.
          2   -1    0    0  501    0  0.00000000000E+00 -0.00000000000E+00 -0.33546196163E+04  0.33546196163E+04  0.25500000000E-02 0.  1.
     200001    2    1    2    0    0  0.47092534474E+03 -0.18755121695E+03 -0.37848270627E+03  0.88112890080E+03  0.61334561348E+03 0.  0.
    5000001    2    3    3    0    0  0.31396856333E+03  0.13675802227E+03 -0.80499513470E+01  0.35459937665E+03  0.91634604769E+02 0.  0.
        -11    1    4    4    0    0  0.19067043812E+03  0.96792285678E+02  0.30715692505E+02  0.21602642501E+03  0.51100000000E-03 0. -1.
     200002    1    4    4    0    0  0.12329812521E+03  0.39965736593E+02 -0.38765643852E+02  0.13857295164E+03  0.30000000000E+02 0.  1.
     200000    1    3    3    0    0  0.15695678142E+03 -0.32430923922E+03 -0.37043275492E+03  0.52652952415E+03  0.10100000000E+03 0.  1.
    -200001    1    1    2    0    0 -0.47092534474E+03  0.18755121695E+03 -0.26667625859E+04  0.27828650397E+04  0.61300000000E+03 0.  1.
<mgrwt>
<rscale>  0 0.20374820E+04</rscale>
<asrwt>0</asrwt>
<pdfrwt beam="1">  1        2 0.47923135E+00 0.20374820E+04</pdfrwt>
<pdfrwt beam="2">  1       -2 0.44196334E-01 0.20374820E+04</pdfrwt>
<totfact> 0.66572514E+00</totfact>
</mgrwt>
</event>
<event>
 8    1  0.6972317E-052  0.1262847E+04  0.7818608E-02  0.9059558E-01
          2   -1    0    0  501    0  0.00000000000E+00  0.00000000000E+00  0.50140933481E+04  0.50140933481E+04  0.25500000000E-02 0.  1.
         -2   -1    0    0    0  501 -0.00000000000E+00 -0.00000000000E+00 -0.79515035565E+02  0.79515035606E+02  0.25500000000E-02 0. -1.
     200001    2    1    2    0    0 -0.97995816015E+02 -0.11975859611E+03  0.25265170279E+04  0.26039350212E+04  0.61093698627E+03 0.  0.
    5000001    2    3    3    0    0 -0.11151816382E+03 -0.19667671472E+03  0.98751678978E+03  0.10596481360E+04  0.31071969862E+03 0.  0.
        -11    1    4    4    0    0  0.89110552102E+02 -0.10850879140E+02  0.12203933494E+03  0.15149927837E+03  0.51100000000E-03 0. -1.
     200002    1    4    4    0    0 -0.20062871592E+03 -0.18582583558E+03  0.86547745484E+03  0.90814885765E+03  0.30000000000E+02 0. -1.
     200000    1    3    3    0    0  0.13522347802E+02  0.76918118615E+02  0.15390002381E+04  0.15442868852E+04  0.10100000000E+03 0.  1.
    -200001    1    1    2    0    0  0.97995816015E+02  0.11975859611E+03  0.24080612847E+04  0.24896733625E+04  0.61300000000E+03 0.  1.
<mgrwt>
<rscale>  0 0.12628473E+04</rscale>
<asrwt>0</asrwt>
<pdfrwt beam="1">  1        2 0.71629893E+00 0.12628473E+04</pdfrwt>
<pdfrwt beam="2">  1       -2 0.11359293E-01 0.12628473E+04</pdfrwt>
<totfact> 0.49818817E+00</totfact>
</mgrwt>
</event>
<event>
 8    1  0.6972317E-052  0.1931992E+04  0.7818608E-02  0.8639094E-01
         -2   -1    0    0    0  501 -0.00000000000E+00  0.00000000000E+00  0.51468395999E+03  0.51468396000E+03  0.25500000000E-02 0. -1.
          2   -1    0    0  501    0  0.00000000000E+00 -0.00000000000E+00 -0.18130518245E+04  0.18130518245E+04  0.25500000000E-02 0.  1.
     200001    2    1    2    0    0  0.42893546864E+03  0.92824861452E+02 -0.13769618150E+04  0.15697462725E+04  0.61276213076E+03 0.  0.
    5000001    2    3    3    0    0 -0.11089323638E+03  0.44958507160E+02 -0.58031062353E+03  0.60095303371E+03  0.10032722317E+03 0.  0.
        -11    1    4    4    0    0 -0.96659045887E+02  0.41139544896E+02 -0.28476826473E+03  0.30352660164E+03  0.51100000000E-03 0. -1.
     200002    1    4    4    0    0 -0.14234190497E+02  0.38189622638E+01 -0.29554235880E+03  0.29742643207E+03  0.30000000000E+02 0. -1.
     200000    1    3    3    0    0  0.53982870503E+03  0.47866354292E+02 -0.79665119148E+03  0.96879323879E+03  0.10100000000E+03 0.  1.
    -200001    1    1    2    0    0 -0.42893546864E+03 -0.92824861452E+02  0.78593950546E+02  0.75798951195E+03  0.61300000000E+03 0. -1.
<mgrwt>
<rscale>  0 0.19319924E+04</rscale>
<asrwt>0</asrwt>
<pdfrwt beam="1">  1        2 0.25900740E+00 0.19319924E+04</pdfrwt>
<pdfrwt beam="2">  1       -2 0.73526281E-01 0.19319924E+04</pdfrwt>
<totfact> 0.15673020E+01</totfact>
</mgrwt>
</event>
<event>
 8    1  0.6972317E-052  0.1445296E+04  0.7818608E-02  0.8921668E-01
         -2   -1    0    0    0  501 -0.00000000000E+00  0.00000000000E+00  0.38697539423E+03  0.38697539423E+03  0.25500000000E-02 0. -1.
          2   -1    0    0  501    0  0.00000000000E+00 -0.00000000000E+00 -0.13494916676E+04  0.13494916676E+04  0.25500000000E-02 0.  1.
     200001    2    1    2    0    0  0.12154196335E+03  0.17848562977E+03 -0.96613713266E+02  0.65379175847E+03  0.60949149704E+03 0.  0.
    5000001    2    3    3    0    0  0.10293349760E+03  0.35681812414E+03  0.55763792689E+02  0.39772798152E+03  0.13100941977E+03 0.  0.
        -11    1    4    4    0    0 -0.80033422165E+01 -0.76271518641E+01  0.53485215003E+01  0.12281433739E+02  0.51100000000E-03 0. -1.
     200002    1    4    4    0    0  0.11093683982E+03  0.36444527600E+03  0.50415271189E+02  0.38544654778E+03  0.30000000000E+02 0. -1.
     200000    1    3    3    0    0  0.18608465748E+02 -0.17833249437E+03 -0.15237750596E+03  0.25606377695E+03  0.10100000000E+03 0.  1.
    -200001    1    1    2    0    0 -0.12154196335E+03 -0.17848562977E+03 -0.86590256007E+03  0.10826753033E+04  0.61300000000E+03 0.  1.
<mgrwt>
<rscale>  0 0.14452959E+04</rscale>
<asrwt>0</asrwt>
<pdfrwt beam="1">  1        2 0.19278452E+00 0.14452959E+04</pdfrwt>
<pdfrwt beam="2">  1       -2 0.55282200E-01 0.14452959E+04</pdfrwt>
<totfact> 0.52669031E+01</totfact>
</mgrwt>
</event>
<event>
 8    1  0.6972317E-052  0.1567442E+04  0.7818608E-02  0.8840803E-01
         -2   -1    0    0    0  501 -0.00000000000E+00  0.00000000000E+00  0.29508383331E+03  0.29508383332E+03  0.25500000000E-02 0. -1.
          2   -1    0    0  501    0  0.00000000000E+00 -0.00000000000E+00 -0.20815063115E+04  0.20815063115E+04  0.25500000000E-02 0.  1.
     200001    2    1    2    0    0  0.37670661845E+03  0.18852596638E+03 -0.51692067004E+03  0.90524594399E+03  0.61221999610E+03 0.  0.
    5000001    2    3    3    0    0 -0.29156686518E+01  0.31311335154E+03 -0.15361357120E+03  0.35585706035E+03  0.70630348328E+02 0.  0.
        -11    1    4    4    0    0 -0.21442708053E+02  0.12747705581E+03 -0.85569287495E+02  0.15502352225E+03  0.51100000000E-03 0. -1.
     200002    1    4    4    0    0  0.18527039401E+02  0.18563629573E+03 -0.68044283708E+02  0.20083353810E+03  0.30000000000E+02 0. -1.
     200000    1    3    3    0    0  0.37962228710E+03 -0.12458738517E+03 -0.36330709883E+03  0.54938888364E+03  0.10100000000E+03 0. -1.
    -200001    1    1    2    0    0 -0.37670661845E+03 -0.18852596638E+03 -0.12695018081E+04  0.14713442008E+04  0.61300000000E+03 0.  1.
<mgrwt>
<rscale>  0 0.15674423E+04</rscale>
<asrwt>0</asrwt>
<pdfrwt beam="1">  1        2 0.29735804E+00 0.15674423E+04</pdfrwt>
<pdfrwt beam="2">  1       -2 0.42154835E-01 0.15674423E+04</pdfrwt>
<totfact> 0.37406552E+01</totfact>
</mgrwt>
</event>
<event>
 8    1  0.6972317E-052  0.1764766E+04  0.7818608E-02  0.8725264E-01
         -2   -1    0    0    0  501 -0.00000000000E+00  0.00000000000E+00  0.10776413217E+04  0.10776413217E+04  0.25500000000E-02 0. -1.
          2   -1    0    0  501    0  0.00000000000E+00 -0.00000000000E+00 -0.72250327311E+03  0.72250327312E+03  0.25500000000E-02 0.  1.
     200001    2    1    2    0    0 -0.19808747894E+03 -0.60096322618E+03  0.21059790630E+03  0.90736449799E+03  0.61527506494E+03 0.  0.
    5000001    2    3    3    0    0 -0.10085461403E+03  0.80472771951E+02  0.12992995570E+03  0.20699490426E+03  0.96527596070E+02 0.  0.
        -11    1    4    4    0    0 -0.10172740635E+03  0.63503011061E+02  0.12308129627E+03  0.17184325156E+03  0.51100000000E-03 0. -1.
     200002    1    4    4    0    0  0.87279231813E+00  0.16969760890E+02  0.68486594327E+01  0.35151652694E+02  0.30000000000E+02 0. -1.
     200000    1    3    3    0    0 -0.97232864911E+02 -0.68143599813E+03  0.80667950600E+02  0.70036959373E+03  0.10100000000E+03 0.  1.
    -200001    1    1    2    0    0  0.19808747894E+03  0.60096322618E+03  0.14454014226E+03  0.89278009681E+03  0.61300000000E+03 0.  1.
<mgrwt>
<rscale>  0 0.17647656E+04</rscale>
<asrwt>0</asrwt>
<pdfrwt beam="1">  1        2 0.10321475E+00 0.17647656E+04</pdfrwt>
<pdfrwt beam="2">  1       -2 0.15394876E+00 0.17647656E+04</pdfrwt>
<totfact> 0.11480624E+01</totfact>
</mgrwt>
</event>
<event>
 8    1  0.6972317E-052  0.1317806E+04  0.7818608E-02  0.9015563E-01
         -2   -1    0    0    0  501 -0.00000000000E+00  0.00000000000E+00  0.26336727128E+03  0.26336727129E+03  0.25500000000E-02 0. -1.
          2   -1    0    0  501    0  0.00000000000E+00 -0.00000000000E+00 -0.16484704470E+04  0.16484704470E+04  0.25500000000E-02 0.  1.
     200001    2    1    2    0    0  0.75903559756E+02  0.98169092782E+02 -0.40726745274E+03  0.75109217242E+03  0.61876825407E+03 0.  0.
    5000001    2    3    3    0    0 -0.79105144902E+02 -0.22455718031E+03 -0.21203620583E+03  0.33097768132E+03  0.88900628620E+02 0.  0.
        -11    1    4    4    0    0 -0.26985393866E+02 -0.16141980785E+03 -0.16279978893E+03  0.23084266747E+03  0.51100000000E-03 0. -1.
     200002    1    4    4    0    0 -0.52119751036E+02 -0.63137372461E+02 -0.49236416896E+02  0.10013501385E+03  0.30000000000E+02 0.  1.
     200000    1    3    3    0    0  0.15500870466E+03  0.32272627309E+03 -0.19523124691E+03  0.42011449110E+03  0.10100000000E+03 0.  1.
    -200001    1    1    2    0    0 -0.75903559756E+02 -0.98169092782E+02 -0.97783572302E+03  0.11607455459E+04  0.61300000000E+03 0.  1.
<mgrwt>
<rscale>  0 0.13178060E+04</rscale>
<asrwt>0</asrwt>
<pdfrwt beam="1">  1        2 0.23549577E+00 0.13178060E+04</pdfrwt>
<pdfrwt beam="2">  1       -2 0.37623897E-01 0.13178060E+04</pdfrwt>
<totfact> 0.79625276E+01</totfact>
</mgrwt>
</event>
<event>
 8    1  0.6972317E-052  0.1659403E+04  0.7818608E-02  0.8784863E-01
         -2   -1    0    0    0  501 -0.00000000000E+00  0.00000000000E+00  0.56372576895E+03  0.56372576896E+03  0.25500000000E-02 0. -1.
          2   -1    0    0  501    0  0.00000000000E+00 -0.00000000000E+00 -0.12211699105E+04  0.12211699105E+04  0.25500000000E-02 0.  1.
     200001    2    1    2    0    0  0.11566762523E+03 -0.25061133939E+03  0.19444699141E+03  0.69968945696E+03  0.61283820112E+03 0.  0.
    5000001    2    3    3    0    0  0.12077596840E+02 -0.21587593430E+03  0.38209877384E+03  0.46020744553E+03  0.13799685719E+03 0.  0.
        -11    1    4    4    0    0 -0.31371419718E+02 -0.88702361927E+02  0.25880630231E+03  0.27537788056E+03  0.51100000000E-03 0. -1.
     200002    1    4    4    0    0  0.43449016558E+02 -0.12717357238E+03  0.12329247153E+03  0.18482956497E+03  0.30000000000E+02 0. -1.
     200000    1    3    3    0    0  0.10359002839E+03 -0.34735405088E+02 -0.18765178243E+03  0.23948201143E+03  0.10100000000E+03 0.  1.
    -200001    1    1    2    0    0 -0.11566762523E+03  0.25061133939E+03 -0.85189113300E+03  0.10852062225E+04  0.61300000000E+03 0.  1.
<mgrwt>
<rscale>  0 0.16594034E+04</rscale>
<asrwt>0</asrwt>
<pdfrwt beam="1">  1        2 0.17445284E+00 0.16594034E+04</pdfrwt>
<pdfrwt beam="2">  1       -2 0.80532253E-01 0.16594034E+04</pdfrwt>
<totfact> 0.27090765E+01</totfact>
</mgrwt>
</event>
<event>
 8    1  0.6972317E-052  0.1298269E+04  0.7818608E-02  0.9030939E-01
         -2   -1    0    0    0  501 -0.00000000000E+00  0.00000000000E+00  0.40950673138E+03  0.40950673139E+03  0.25500000000E-02 0. -1.
          2   -1    0    0  501    0  0.00000000000E+00 -0.00000000000E+00 -0.10289830717E+04  0.10289830717E+04  0.25500000000E-02 0.  1.
     200001    2    1    2    0    0 -0.30999625945E+02 -0.80478104131E+02 -0.52534871733E+03  0.81233749614E+03  0.61356599546E+03 0.  0.
    5000001    2    3    3    0    0 -0.49417210340E+02 -0.11538537243E+03 -0.63791245619E+03  0.65603867944E+03  0.87741679386E+02 0.  0.
        -11    1    4    4    0    0 -0.11067348631E+02 -0.10098912273E+03 -0.39304628741E+03  0.40596388160E+03  0.51100000000E-03 0. -1.
     200002    1    4    4    0    0 -0.38349861710E+02 -0.14396249694E+02 -0.24486616878E+03  0.25007479783E+03  0.30000000000E+02 0. -1.
     200000    1    3    3    0    0  0.18417584396E+02  0.34907268297E+02  0.11256373887E+03  0.15629881670E+03  0.10100000000E+03 0. -1.
    -200001    1    1    2    0    0  0.30999625945E+02  0.80478104131E+02 -0.94127622954E+02  0.62615230692E+03  0.61300000000E+03 0. -1.
<mgrwt>
<rscale>  0 0.12982688E+04</rscale>
<asrwt>0</asrwt>
<pdfrwt beam="1">  1        2 0.14699758E+00 0.12982688E+04</pdfrwt>
<pdfrwt beam="2">  1       -2 0.58500962E-01 0.12982688E+04</pdfrwt>
<totfact> 0.72256291E+01</totfact>
</mgrwt>
</event>
<event>
 8    1  0.6972317E-052  0.1556384E+04  0.7818608E-02  0.8847800E-01
         -2   -1    0    0    0  501 -0.00000000000E+00  0.00000000000E+00  0.23241317148E+03  0.23241317150E+03  0.25500000000E-02 0. -1.
          2   -1    0    0  501    0  0.00000000000E+00 -0.00000000000E+00 -0.26056318593E+04  0.26056318593E+04  0.25500000000E-02 0.  1.
     200001    2    1    2    0    0  0.39367371411E+03  0.27092416899E+03 -0.11315503144E+04  0.13731599677E+04  0.61382675436E+03 0.  0.
    5000001    2    3    3    0    0  0.38466028695E+03  0.16275759527E+03 -0.10809974764E+04  0.12165143838E+04  0.36999747394E+03 0.  0.
        -11    1    4    4    0    0  0.30968804986E+03  0.10897128299E+03 -0.35295785718E+03  0.48203804589E+03  0.51100000000E-03 0. -1.
     200002    1    4    4    0    0  0.74972237089E+02  0.53786312285E+02 -0.72803961925E+03  0.73447633789E+03  0.30000000000E+02 0. -1.
     200000    1    3    3    0    0  0.90134271645E+01  0.10816657372E+03 -0.50552837987E+02  0.15664558394E+03  0.10100000000E+03 0. -1.
    -200001    1    1    2    0    0 -0.39367371411E+03 -0.27092416899E+03 -0.12416683734E+04  0.14648850631E+04  0.61300000000E+03 0. -1.
<mgrwt>
<rscale>  0 0.15563845E+04</rscale>
<asrwt>0</asrwt>
<pdfrwt beam="1">  1        2 0.37223310E+00 0.15563845E+04</pdfrwt>
<pdfrwt beam="2">  1       -2 0.33201883E-01 0.15563845E+04</pdfrwt>
<totfact> 0.31684709E+01</totfact>
</mgrwt>
</event>
<event>
 8    1  0.6972317E-052  0.1238196E+04  0.7818608E-02  0.9080065E-01
          2   -1    0    0  501    0  0.00000000000E+00  0.00000000000E+00  0.30609213598E+03  0.30609213599E+03  0.25500000000E-02 0.  1.
         -2   -1    0    0    0  501 -0.00000000000E+00 -0.00000000000E+00 -0.12521803978E+04  0.12521803978E+04  0.25500000000E-02 0. -1.
     200001    2    1    2    0    0  0.15036985327E+02  0.14301780164E+02 -0.36548322911E+03  0.71370053814E+03  0.61266615341E+03 0.  0.
    5000001    2    3    3    0    0  0.48602879535E+02  0.28630043688E+03 -0.85805566363E+02  0.30931145131E+03  0.63093570483E+02 0.  0.
        -11    1    4    4    0    0 -0.11432009496E+02  0.37321758085E+02 -0.68561743893E+01  0.39630942396E+02  0.51100000000E-03 0. -1.
     200002    1    4    4    0    0  0.60034889031E+02  0.24897867879E+03 -0.78949391974E+02  0.26968050891E+03  0.30000000000E+02 0. -1.
     200000    1    3    3    0    0 -0.33565894208E+02 -0.27199865671E+03 -0.27967766275E+03  0.40438908683E+03  0.10100000000E+03 0.  1.
    -200001    1    1    2    0    0 -0.15036985327E+02 -0.14301780164E+02 -0.58060503270E+03  0.84457199565E+03  0.61300000000E+03 0. -1.
<mgrwt>
<rscale>  0 0.12381964E+04</rscale>
<asrwt>0</asrwt>
<pdfrwt beam="1">  1        2 0.43727449E-01 0.12381964E+04</pdfrwt>
<pdfrwt beam="2">  1       -2 0.17888291E+00 0.12381964E+04</pdfrwt>
<totfact> 0.21191478E+01</totfact>
</mgrwt>
</event>
<event>
 8    1  0.6972317E-052  0.1458997E+04  0.7818608E-02  0.8912187E-01
          2   -1    0    0  501    0  0.00000000000E+00  0.00000000000E+00  0.28404773683E+04  0.28404773683E+04  0.25500000000E-02 0.  1.
         -2   -1    0    0    0  501 -0.00000000000E+00 -0.00000000000E+00 -0.18735151575E+03  0.18735151577E+03  0.25500000000E-02 0. -1.
     200001    2    1    2    0    0  0.16681491884E+03  0.37626418631E+02  0.59078784242E+03  0.86953093602E+03  0.61466316745E+03 0.  0.
    5000001    2    3    3    0    0 -0.53865618065E+02 -0.62122574655E+02  0.58004247729E+03  0.60691672486E+03  0.15854941303E+03 0.  0.
        -11    1    4    4    0    0 -0.36496581352E+02 -0.50915827929E+02  0.56338542593E+03  0.56685761893E+03  0.51100000000E-03 0. -1.
     200002    1    4    4    0    0 -0.17369036713E+02 -0.11206746726E+02  0.16657051352E+02  0.40059105935E+02  0.30000000000E+02 0. -1.
     200000    1    3    3    0    0  0.22068053690E+03  0.99748993286E+02  0.10745365134E+02  0.26261421115E+03  0.10100000000E+03 0. -1.
    -200001    1    1    2    0    0 -0.16681491884E+03 -0.37626418631E+02  0.20623380102E+04  0.21582979481E+04  0.61300000000E+03 0.  1.
<mgrwt>
<rscale>  0 0.14589966E+04</rscale>
<asrwt>0</asrwt>
<pdfrwt beam="1">  1        2 0.40578245E+00 0.14589966E+04</pdfrwt>
<pdfrwt beam="2">  1       -2 0.26764504E-01 0.14589966E+04</pdfrwt>
<totfact> 0.35691426E+01</totfact>
</mgrwt>
</event>
<event>
 8    1  0.6972317E-052  0.1363435E+04  0.7818608E-02  0.8980720E-01
         -2   -1    0    0    0  501 -0.00000000000E+00  0.00000000000E+00  0.36311139949E+03  0.36311139950E+03  0.25500000000E-02 0. -1.
          2   -1    0    0  501    0  0.00000000000E+00 -0.00000000000E+00 -0.12798787870E+04  0.12798787870E+04  0.25500000000E-02 0.  1.
     200001    2    1    2    0    0 -0.27644479882E+03  0.37959581061E+02 -0.33608738363E+03  0.75370905913E+03  0.61421491336E+03 0.  0.
    5000001    2    3    3    0    0 -0.35531144949E+03  0.21942531702E+03 -0.32104599675E+03  0.53105011538E+03  0.67453666483E+02 0.  0.
        -11    1    4    4    0    0 -0.23514671002E+03  0.12314257211E+03 -0.21643485514E+03  0.34249396319E+03  0.51100000000E-03 0. -1.
     200002    1    4    4    0    0 -0.12016473947E+03  0.96282744909E+02 -0.10461114161E+03  0.18855615219E+03  0.30000000000E+02 0. -1.
     200000    1    3    3    0    0  0.78866650667E+02 -0.18146573596E+03 -0.15041386883E+02  0.22265894376E+03  0.10100000000E+03 0.  1.
    -200001    1    1    2    0    0  0.27644479882E+03 -0.37959581061E+02 -0.58068000385E+03  0.88928112735E+03  0.61300000000E+03 0. -1.
<mgrwt>
<rscale>  0 0.13634347E+04</rscale>
<asrwt>0</asrwt>
<pdfrwt beam="1">  1        2 0.18283982E+00 0.13634347E+04</pdfrwt>
<pdfrwt beam="2">  1       -2 0.51873058E-01 0.13634347E+04</pdfrwt>
<totfact> 0.66018462E+01</totfact>
</mgrwt>
</event>
<event>
 8    1  0.6972317E-052  0.1764375E+04  0.7818608E-02  0.8725477E-01
         -2   -1    0    0    0  501 -0.00000000000E+00  0.00000000000E+00  0.47585460861E+03  0.47585460861E+03  0.25500000000E-02 0. -1.
          2   -1    0    0  501    0  0.00000000000E+00 -0.00000000000E+00 -0.16354883182E+04  0.16354883182E+04  0.25500000000E-02 0.  1.
     200001    2    1    2    0    0 -0.32884928890E+02 -0.51686859513E+03 -0.13425306173E+03  0.80926419027E+03  0.60716561322E+03 0.  0.
    5000001    2    3    3    0    0  0.17264533839E+03 -0.54922521442E+02  0.35173457864E+01  0.27558024732E+03  0.20762756263E+03 0.  0.
        -11    1    4    4    0    0  0.13905401949E+03  0.26883965639E+02  0.72854651393E+02  0.15926885501E+03  0.51100000000E-03 0. -1.
     200002    1    4    4    0    0  0.33591318902E+02 -0.81806487081E+02 -0.69337305607E+02  0.11631139232E+03  0.30000000000E+02 0. -1.
     200000    1    3    3    0    0 -0.20553026728E+03 -0.46194607369E+03 -0.13777040752E+03  0.53368394294E+03  0.10100000000E+03 0.  1.
    -200001    1    1    2    0    0  0.32884928890E+02  0.51686859513E+03 -0.10253806479E+04  0.13020787366E+04  0.61300000000E+03 0. -1.
<mgrwt>
<rscale>  0 0.17643749E+04</rscale>
<asrwt>0</asrwt>
<pdfrwt beam="1">  1        2 0.23364119E+00 0.17643749E+04</pdfrwt>
<pdfrwt beam="2">  1       -2 0.67979231E-01 0.17643749E+04</pdfrwt>
<totfact> 0.23319867E+01</totfact>
</mgrwt>
</event>
<event>
 8    1  0.6972317E-052  0.1391516E+04  0.7818608E-02  0.8959983E-01
          2   -1    0    0  501    0  0.00000000000E+00  0.00000000000E+00  0.21271131471E+04  0.21271131471E+04  0.25500000000E-02 0.  1.
         -2   -1    0    0    0  501 -0.00000000000E+00 -0.00000000000E+00 -0.22757573007E+03  0.22757573008E+03  0.25500000000E-02 0. -1.
     200001    2    1    2    0    0 -0.21761216948E+03  0.24627908177E+03  0.89888613838E+03  0.11360501186E+04  0.61204994876E+03 0.  0.
    5000001    2    3    3    0    0  0.31325606412E+02  0.38256780508E+03  0.50741669937E+03  0.64209267707E+03  0.86440037286E+02 0.  0.
        -11    1    4    4    0    0  0.21885526051E+02  0.38778964259E+02  0.90001580751E+02  0.10041448530E+03  0.51100000000E-03 0. -1.
     200002    1    4    4    0    0  0.94400803610E+01  0.34378884082E+03  0.41741511861E+03  0.54167819177E+03  0.30000000000E+02 0. -1.
     200000    1    3    3    0    0 -0.24893777589E+03 -0.13628872331E+03  0.39146943902E+03  0.49395744154E+03  0.10100000000E+03 0.  1.
    -200001    1    1    2    0    0  0.21761216948E+03 -0.24627908177E+03  0.10006512786E+04  0.12186387585E+04  0.61300000000E+03 0. -1.
<mgrwt>
<rscale>  0 0.13915162E+04</rscale>
<asrwt>0</asrwt>
<pdfrwt beam="1">  1        2 0.30387331E+00 0.13915162E+04</pdfrwt>
<pdfrwt beam="2">  1       -2 0.32510818E-01 0.13915162E+04</pdfrwt>
<totfact> 0.59309145E+01</totfact>
</mgrwt>
</event>
<event>
 8    1  0.6972317E-052  0.1429808E+04  0.7818608E-02  0.8932520E-01
          2   -1    0    0  501    0  0.00000000000E+00  0.00000000000E+00  0.10724725590E+04  0.10724725591E+04  0.25500000000E-02 0.  1.
         -2   -1    0    0    0  501 -0.00000000000E+00 -0.00000000000E+00 -0.47655107078E+03  0.47655107079E+03  0.25500000000E-02 0. -1.
     200001    2    1    2    0    0  0.30617264976E+03  0.20205489057E+03  0.25926062661E+03  0.75929113967E+03  0.61215936815E+03 0.  0.
    5000001    2    3    3    0    0  0.58512996751E+02  0.23168466566E+03  0.38938063055E+03  0.46038405926E+03  0.56873996485E+02 0.  0.
        -11    1    4    4    0    0  0.89300710884E+01  0.19451428192E+02  0.14964589729E+02  0.26115956317E+02  0.51100000000E-03 0. -1.
     200002    1    4    4    0    0  0.49582925663E+02  0.21223323747E+03  0.37441604082E+03  0.43426810294E+03  0.30000000000E+02 0. -1.
     200000    1    3    3    0    0  0.24765965300E+03 -0.29629775090E+02 -0.13012000394E+03  0.29890708042E+03  0.10100000000E+03 0. -1.
    -200001    1    1    2    0    0 -0.30617264976E+03 -0.20205489057E+03  0.33666086165E+03  0.78973249017E+03  0.61300000000E+03 0.  1.
<mgrwt>
<rscale>  0 0.14298083E+04</rscale>
<asrwt>0</asrwt>
<pdfrwt beam="1">  1        2 0.15321036E+00 0.14298083E+04</pdfrwt>
<pdfrwt beam="2">  1       -2 0.68078726E-01 0.14298083E+04</pdfrwt>
<totfact> 0.48749152E+01</totfact>
</mgrwt>
</event>
<event>
 8    1  0.6972317E-052  0.1619102E+04  0.7818608E-02  0.8808898E-01
          2   -1    0    0  501    0  0.00000000000E+00  0.00000000000E+00  0.20878140202E+04  0.20878140202E+04  0.25500000000E-02 0.  1.
         -2   -1    0    0    0  501 -0.00000000000E+00 -0.00000000000E+00 -0.31390396634E+03  0.31390396635E+03  0.25500000000E-02 0. -1.
     200001    2    1    2    0    0 -0.16926471801E+03 -0.50087674488E+03  0.87609941051E+03  0.11928503306E+04  0.61303643917E+03 0.  0.
    5000001    2    3    3    0    0 -0.20045877319E+03 -0.19829826531E+03  0.79637909069E+03  0.86257297022E+03  0.17408776836E+03 0.  0.
        -11    1    4    4    0    0  0.15990999964E+02 -0.79616433110E+02  0.16245053450E+03  0.18161680721E+03  0.51100000000E-03 0. -1.
     200002    1    4    4    0    0 -0.21644977315E+03 -0.11868183220E+03  0.63392855619E+03  0.68095616301E+03  0.30000000000E+02 0. -1.
     200000    1    3    3    0    0  0.31194055175E+02 -0.30257847957E+03  0.79720319819E+02  0.33027736036E+03  0.10100000000E+03 0. -1.
    -200001    1    1    2    0    0  0.16926471801E+03  0.50087674488E+03  0.89781064332E+03  0.12088676559E+04  0.61300000000E+03 0.  1.
<mgrwt>
<rscale>  0 0.16191023E+04</rscale>
<asrwt>0</asrwt>
<pdfrwt beam="1">  1        2 0.29825915E+00 0.16191023E+04</pdfrwt>
<pdfrwt beam="2">  1       -2 0.44843423E-01 0.16191023E+04</pdfrwt>
<totfact> 0.32706560E+01</totfact>
</mgrwt>
</event>
<event>
 8    1  0.6972317E-052  0.1458673E+04  0.7818608E-02  0.8912410E-01
          2   -1    0    0  501    0  0.00000000000E+00  0.00000000000E+00  0.11165218996E+04  0.11165218996E+04  0.25500000000E-02 0.  1.
         -2   -1    0    0    0  501 -0.00000000000E+00 -0.00000000000E+00 -0.47641862947E+03  0.47641862948E+03  0.25500000000E-02 0. -1.
     200001    2    1    2    0    0 -0.44766456974E+02  0.25793082900E+03  0.64051423715E+03  0.92638106650E+03  0.61594727386E+03 0.  0.
    5000001    2    3    3    0    0  0.10713601227E+03 -0.16453351882E+03  0.19774000548E+03  0.28778846901E+03  0.71914457458E+02 0.  0.
        -11    1    4    4    0    0  0.44076635716E+02 -0.64220129021E+02  0.11957198229E+03  0.14270400743E+03  0.51100000000E-03 0. -1.
     200002    1    4    4    0    0  0.63059376549E+02 -0.10031338980E+03  0.78168023185E+02  0.14508446158E+03  0.30000000000E+02 0. -1.
     200000    1    3    3    0    0 -0.15190246924E+03  0.42246434782E+03  0.44277423167E+03  0.63859259749E+03  0.10100000000E+03 0.  1.
    -200001    1    1    2    0    0  0.44766456974E+02 -0.25793082900E+03 -0.41096704439E+00  0.66655946255E+03  0.61300000000E+03 0. -1.
<mgrwt>
<rscale>  0 0.14586731E+04</rscale>
<asrwt>0</asrwt>
<pdfrwt beam="1">  1        2 0.15950313E+00 0.14586731E+04</pdfrwt>
<pdfrwt beam="2">  1       -2 0.68059806E-01 0.14586731E+04</pdfrwt>
<totfact> 0.45835348E+01</totfact>
</mgrwt>
</event>
<event>
 8    1  0.6972317E-052  0.1502025E+04  0.7818608E-02  0.8883108E-01
          2   -1    0    0  501    0  0.00000000000E+00  0.00000000000E+00  0.89683292861E+03  0.89683292861E+03  0.25500000000E-02 0.  1.
         -2   -1    0    0    0  501 -0.00000000000E+00 -0.00000000000E+00 -0.62890151481E+03  0.62890151481E+03  0.25500000000E-02 0. -1.
     200001    2    1    2    0    0  0.46559173908E+02  0.15007764538E+02 -0.30606075484E+03  0.68452757271E+03  0.61033746606E+03 0.  0.
    5000001    2    3    3    0    0 -0.10130694324E+03 -0.25523950349E+03 -0.11751956344E+03  0.30949856672E+03  0.81044519377E+02 0.  0.
        -11    1    4    4    0    0  0.93047021347E+01 -0.39127391260E+02 -0.60262503028E+01  0.40667504492E+02  0.51100000000E-03 0. -1.
     200002    1    4    4    0    0 -0.11061164538E+03 -0.21611211223E+03 -0.11149331313E+03  0.26883106223E+03  0.30000000000E+02 0. -1.
     200000    1    3    3    0    0  0.14786611715E+03  0.27024726803E+03 -0.18854119140E+03  0.37502900599E+03  0.10100000000E+03 0.  1.
    -200001    1    1    2    0    0 -0.46559173908E+02 -0.15007764538E+02  0.57399216864E+03  0.84120687071E+03  0.61300000000E+03 0.  1.
<mgrwt>
<rscale>  0 0.15020247E+04</rscale>
<asrwt>0</asrwt>
<pdfrwt beam="1">  1        2 0.12811899E+00 0.15020247E+04</pdfrwt>
<pdfrwt beam="2">  1       -2 0.89843074E-01 0.15020247E+04</pdfrwt>
<totfact> 0.33565747E+01</totfact>
</mgrwt>
</event>
<event>
 8    1  0.6972317E-052  0.2041919E+04  0.7818608E-02  0.8587269E-01
          2   -1    0    0  501    0  0.00000000000E+00  0.00000000000E+00  0.12400721246E+04  0.12400721246E+04  0.25500000000E-02 0.  1.
         -2   -1    0    0    0  501 -0.00000000000E+00 -0.00000000000E+00 -0.84056250949E+03  0.84056250949E+03  0.25500000000E-02 0. -1.
     200001    2    1    2    0    0 -0.57172788651E+03 -0.53741603703E+03  0.43168593036E+03  0.10843951607E+04  0.61145020160E+03 0.  0.
    5000001    2    3    3    0    0 -0.55033359649E+03 -0.52348286065E+03  0.53663959471E+03  0.93651642421E+03  0.11036115889E+03 0.  0.
        -11    1    4    4    0    0 -0.38728755132E+03 -0.30917580953E+03  0.36969135942E+03  0.61826614806E+03  0.51100000000E-03 0. -1.
     200002    1    4    4    0    0 -0.16304604517E+03 -0.21430705112E+03  0.16694823529E+03  0.31825027615E+03  0.30000000000E+02 0. -1.
     200000    1    3    3    0    0 -0.21394290027E+02 -0.13933176384E+02 -0.10495366435E+03  0.14787873651E+03  0.10100000000E+03 0. -1.
    -200001    1    1    2    0    0  0.57172788651E+03  0.53741603703E+03 -0.32176315232E+02  0.99623947339E+03  0.61300000000E+03 0. -1.
<mgrwt>
<rscale>  0 0.20419188E+04</rscale>
<asrwt>0</asrwt>
<pdfrwt beam="1">  1        2 0.17715316E+00 0.20419188E+04</pdfrwt>
<pdfrwt beam="2">  1       -2 0.12008036E+00 0.20419188E+04</pdfrwt>
<totfact> 0.99974681E+00</totfact>
</mgrwt>
</event>
<event>
 8    1  0.6972317E-052  0.1866948E+04  0.7818608E-02  0.8671486E-01
          2   -1    0    0  501    0  0.00000000000E+00  0.00000000000E+00  0.16859534357E+04  0.16859534357E+04  0.25500000000E-02 0.  1.
         -2   -1    0    0    0  501 -0.00000000000E+00 -0.00000000000E+00 -0.51684328094E+03  0.51684328095E+03  0.25500000000E-02 0. -1.
     200001    2    1    2    0    0 -0.17765316176E+03 -0.64562342693E+03  0.83622601394E+03  0.12358576769E+04  0.61618178806E+03 0.  0.
    5000001    2    3    3    0    0 -0.38492984582E+03 -0.42860536127E+03  0.45014593355E+03  0.73653884786E+03  0.89356426782E+02 0.  0.
        -11    1    4    4    0    0 -0.79901140639E+02 -0.90321764836E+02  0.13941023305E+03  0.18432966815E+03  0.51100000000E-03 0. -1.
     200002    1    4    4    0    0 -0.30502870518E+03 -0.33828359643E+03  0.31073570049E+03  0.55220917971E+03  0.30000000000E+02 0. -1.
     200000    1    3    3    0    0  0.20727668406E+03 -0.21701806567E+03  0.38608008039E+03  0.49931882906E+03  0.10100000000E+03 0.  1.
    -200001    1    1    2    0    0  0.17765316176E+03  0.64562342693E+03  0.33288414079E+03  0.96693903969E+03  0.61300000000E+03 0.  1.
<mgrwt>
<rscale>  0 0.18669480E+04</rscale>
<asrwt>0</asrwt>
<pdfrwt beam="1">  1        2 0.24085049E+00 0.18669480E+04</pdfrwt>
<pdfrwt beam="2">  1       -2 0.73834756E-01 0.18669480E+04</pdfrwt>
<totfact> 0.18168986E+01</totfact>
</mgrwt>
</event>
<event>
 8    1  0.6972317E-052  0.1368251E+04  0.7818608E-02  0.8977126E-01
          2   -1    0    0  501    0  0.00000000000E+00  0.00000000000E+00  0.17961469535E+04  0.17961469535E+04  0.25500000000E-02 0.  1.
         -2   -1    0    0    0  501 -0.00000000000E+00 -0.00000000000E+00 -0.26057328362E+03  0.26057328364E+03  0.25500000000E-02 0. -1.
     200001    2    1    2    0    0 -0.11485048368E+02  0.10608391943E+03  0.11943894440E+04  0.13470996482E+04  0.61377977633E+03 0.  0.
    5000001    2    3    3    0    0 -0.25629645775E+03  0.41456452798E+00  0.27212698648E+03  0.38176671115E+03  0.77489862888E+02 0.  0.
        -11    1    4    4    0    0 -0.47024238235E+02 -0.23331860135E+02  0.76327742973E+02  0.92636812481E+02  0.51100000000E-03 0. -1.
     200002    1    4    4    0    0 -0.20927221951E+03  0.23746424663E+02  0.19579924351E+03  0.28912989867E+03  0.30000000000E+02 0. -1.
     200000    1    3    3    0    0  0.24481140938E+03  0.10566935490E+03  0.92226245756E+03  0.96533293705E+03  0.10100000000E+03 0.  1.
    -200001    1    1    2    0    0  0.11485048368E+02 -0.10608391943E+03  0.34118422584E+03  0.70962058895E+03  0.61300000000E+03 0. -1.
<mgrwt>
<rscale>  0 0.13682513E+04</rscale>
<asrwt>0</asrwt>
<pdfrwt beam="1">  1        2 0.25659243E+00 0.13682513E+04</pdfrwt>
<pdfrwt beam="2">  1       -2 0.37224754E-01 0.13682513E+04</pdfrwt>
<totfact> 0.67890319E+01</totfact>
</mgrwt>
</event>
<event>
 8    1  0.6972317E-052  0.1482934E+04  0.7818608E-02  0.8895882E-01
          2   -1    0    0  501    0  0.00000000000E+00  0.00000000000E+00  0.27879154729E+04  0.27879154729E+04  0.25500000000E-02 0.  1.
         -2   -1    0    0    0  501 -0.00000000000E+00 -0.00000000000E+00 -0.19719867938E+03  0.19719867939E+03  0.25500000000E-02 0. -1.
     200001    2    1    2    0    0  0.81732881063E+02  0.29491173210E+03  0.18658930823E+04  0.19877217491E+04  0.61304776629E+03 0.  0.
    5000001    2    3    3    0    0 -0.34451714253E+01 -0.68122139103E+02  0.92760330839E+03  0.97301115387E+03  0.28574518856E+03 0.  0.
        -11    1    4    4    0    0  0.13877005271E+03 -0.37455765370E+02  0.50521767017E+03  0.52526655723E+03  0.51100000000E-03 0. -1.
     200002    1    4    4    0    0 -0.14221522413E+03 -0.30666373733E+02  0.42238563822E+03  0.44774459665E+03  0.30000000000E+02 0. -1.
     200000    1    3    3    0    0  0.85178052488E+02  0.36303387121E+03  0.93828977393E+03  0.10147105953E+04  0.10100000000E+03 0. -1.
    -200001    1    1    2    0    0 -0.81732881063E+02 -0.29491173210E+03  0.72482371123E+03  0.99739240319E+03  0.61300000000E+03 0. -1.
<mgrwt>
<rscale>  0 0.14829339E+04</rscale>
<asrwt>0</asrwt>
<pdfrwt beam="1">  1        2 0.39827361E+00 0.14829339E+04</pdfrwt>
<pdfrwt beam="2">  1       -2 0.28171242E-01 0.14829339E+04</pdfrwt>
<totfact> 0.34617542E+01</totfact>
</mgrwt>
</event>
<event>
 8    1  0.6972317E-052  0.1593231E+04  0.7818608E-02  0.8824717E-01
         -2   -1    0    0    0  501 -0.00000000000E+00  0.00000000000E+00  0.61117171440E+03  0.61117171441E+03  0.25500000000E-02 0. -1.
          2   -1    0    0  501    0  0.00000000000E+00 -0.00000000000E+00 -0.10383279033E+04  0.10383279033E+04  0.25500000000E-02 0.  1.
     200001    2    1    2    0    0 -0.23552652870E+03  0.33397253910E+03  0.10078142926E+03  0.74313460778E+03  0.61243917755E+03 0.  0.
    5000001    2    3    3    0    0  0.14058261164E+03  0.50864397044E+02  0.17996133159E+03  0.25520145408E+03  0.10193646902E+03 0.  0.
        -11    1    4    4    0    0  0.27837697366E+01  0.22950890091E+02  0.71411287817E+02  0.75060407392E+02  0.51100000000E-03 0. -1.
     200002    1    4    4    0    0  0.13779884190E+03  0.27913506953E+02  0.10855004377E+03  0.18014104669E+03  0.30000000000E+02 0. -1.
     200000    1    3    3    0    0 -0.37610914033E+03  0.28310814206E+03 -0.79179902323E+02  0.48793315369E+03  0.10100000000E+03 0.  1.
    -200001    1    1    2    0    0  0.23552652870E+03 -0.33397253910E+03 -0.52793761820E+03  0.90636500997E+03  0.61300000000E+03 0.  1.
<mgrwt>
<rscale>  0 0.15932315E+04</rscale>
<asrwt>0</asrwt>
<pdfrwt beam="1">  1        2 0.14833256E+00 0.15932315E+04</pdfrwt>
<pdfrwt beam="2">  1       -2 0.87310245E-01 0.15932315E+04</pdfrwt>
<totfact> 0.28997581E+01</totfact>
</mgrwt>
</event>
<event>
 8    1  0.6972317E-052  0.1403521E+04  0.7818608E-02  0.8951274E-01
         -2   -1    0    0    0  501 -0.00000000000E+00  0.00000000000E+00  0.96366628413E+03  0.96366628413E+03  0.25500000000E-02 0. -1.
          2   -1    0    0  501    0  0.00000000000E+00 -0.00000000000E+00 -0.51103545680E+03  0.51103545681E+03  0.25500000000E-02 0.  1.
     200001    2    1    2    0    0  0.39242747796E+02 -0.29217013638E+03  0.40712546983E+03  0.79298103610E+03  0.61332242221E+03 0.  0.
    5000001    2    3    3    0    0  0.76086121741E+02 -0.19186584563E+03  0.54705295939E+03  0.59000545313E+03  0.78980337483E+02 0.  0.
        -11    1    4    4    0    0 -0.12248273858E+02 -0.44080961827E+02  0.98427989081E+02  0.10854133057E+03  0.51100000000E-03 0. -1.
     200002    1    4    4    0    0  0.88334395599E+02 -0.14778488380E+03  0.44862497031E+03  0.48146412256E+03  0.30000000000E+02 0. -1.
     200000    1    3    3    0    0 -0.36843373946E+02 -0.10030429075E+03 -0.13992748956E+03  0.20297558297E+03  0.10100000000E+03 0.  1.
    -200001    1    1    2    0    0 -0.39242747796E+02  0.29217013638E+03  0.45505357497E+02  0.68172070484E+03  0.61300000000E+03 0.  1.
<mgrwt>
<rscale>  0 0.14035208E+04</rscale>
<asrwt>0</asrwt>
<pdfrwt beam="1">  1        2 0.73005065E-01 0.14035208E+04</pdfrwt>
<pdfrwt beam="2">  1       -2 0.13766661E+00 0.14035208E+04</pdfrwt>
<totfact> 0.23929111E+01</totfact>
</mgrwt>
</event>
<event>
 8    1  0.6972317E-052  0.1450463E+04  0.7818608E-02  0.8918080E-01
         -2   -1    0    0    0  501 -0.00000000000E+00  0.00000000000E+00  0.11562612104E+04  0.11562612104E+04  0.25500000000E-02 0. -1.
          2   -1    0    0  501    0  0.00000000000E+00 -0.00000000000E+00 -0.45488055729E+03  0.45488055730E+03  0.25500000000E-02 0.  1.
     200001    2    1    2    0    0  0.15344821546E+03 -0.33796052741E+03  0.22776976320E+03  0.75216566330E+03  0.61327844174E+03 0.  0.
    5000001    2    3    3    0    0  0.27499984184E+03 -0.79247121912E+02 -0.22066225185E+02  0.35932161644E+03  0.21614829726E+03 0.  0.
        -11    1    4    4    0    0  0.20076934603E+03  0.93606292312E+01  0.65327758759E+02  0.21133780482E+03  0.51100000000E-03 0. -1.
     200002    1    4    4    0    0  0.74230495809E+02 -0.88607751143E+02 -0.87393983945E+02  0.14798381162E+03  0.30000000000E+02 0. -1.
     200000    1    3    3    0    0 -0.12155162637E+03 -0.25871340550E+03  0.24983598839E+03  0.39284404686E+03  0.10100000000E+03 0. -1.
    -200001    1    1    2    0    0 -0.15344821546E+03  0.33796052741E+03  0.47361088995E+03  0.85897610444E+03  0.61300000000E+03 0.  1.
<mgrwt>
<rscale>  0 0.14504630E+04</rscale>
<asrwt>0</asrwt>
<pdfrwt beam="1">  1        2 0.64982937E-01 0.14504630E+04</pdfrwt>
<pdfrwt beam="2">  1       -2 0.16518017E+00 0.14504630E+04</pdfrwt>
<totfact> 0.16757400E+01</totfact>
</mgrwt>
</event>
<event>
 8    1  0.6972317E-052  0.1341580E+04  0.7818608E-02  0.8997227E-01
         -2   -1    0    0    0  501 -0.00000000000E+00  0.00000000000E+00  0.53476426240E+03  0.53476426241E+03  0.25500000000E-02 0. -1.
          2   -1    0    0  501    0  0.00000000000E+00 -0.00000000000E+00 -0.84141542363E+03  0.84141542364E+03  0.25500000000E-02 0.  1.
     200001    2    1    2    0    0 -0.20322676822E+03  0.14415441100E+03 -0.26702284486E+03  0.71329129650E+03  0.61270030232E+03 0.  0.
    5000001    2    3    3    0    0  0.51776030482E+02  0.28314372702E+03  0.19969012177E+01  0.30473642737E+03  0.10004586483E+03 0.  0.
        -11    1    4    4    0    0  0.37639208995E+02  0.28952623247E+02  0.88276999599E+01  0.48300028297E+02  0.51100000000E-03 0. -1.
     200002    1    4    4    0    0  0.14136821487E+02  0.25419110377E+03 -0.68307987422E+01  0.25643639907E+03  0.30000000000E+02 0. -1.
     200000    1    3    3    0    0 -0.25500279870E+03 -0.13898931602E+03 -0.26901974608E+03  0.40855486913E+03  0.10100000000E+03 0.  1.
    -200001    1    1    2    0    0  0.20322676822E+03 -0.14415441100E+03 -0.39628316374E+02  0.66288838954E+03  0.61300000000E+03 0.  1.
<mgrwt>
<rscale>  0 0.13415795E+04</rscale>
<asrwt>0</asrwt>
<pdfrwt beam="1">  1        2 0.12020220E+00 0.13415795E+04</pdfrwt>
<pdfrwt beam="2">  1       -2 0.76394895E-01 0.13415795E+04</pdfrwt>
<totfact> 0.53389552E+01</totfact>
</mgrwt>
</event>
<event>
 8    1  0.6972317E-052  0.1651297E+04  0.7818608E-02  0.8789640E-01
         -2   -1    0    0    0  501 -0.00000000000E+00  0.00000000000E+00  0.93680346464E+03  0.93680346465E+03  0.25500000000E-02 0. -1.
          2   -1    0    0  501    0  0.00000000000E+00 -0.00000000000E+00 -0.72768210880E+03  0.72768210880E+03  0.25500000000E-02 0.  1.
     200001    2    1    2    0    0 -0.17812179350E+03 -0.51365912206E+03  0.20704714893E+03  0.84512828305E+03  0.61302546924E+03 0.  0.
    5000001    2    3    3    0    0 -0.22348339931E+03 -0.21483939208E+03  0.35439878398E+03  0.49403796610E+03  0.14958014474E+03 0.  0.
        -11    1    4    4    0    0 -0.45319647415E+02 -0.24173879413E+02 -0.18795649760E+01  0.51398245616E+02  0.51100000000E-03 0. -1.
     200002    1    4    4    0    0 -0.17816375190E+03 -0.19066551267E+03  0.35627834896E+03  0.44263972048E+03  0.30000000000E+02 0. -1.
     200000    1    3    3    0    0  0.45361605812E+02 -0.29881972998E+03 -0.14735163505E+03  0.35109031695E+03  0.10100000000E+03 0. -1.
    -200001    1    1    2    0    0  0.17812179350E+03  0.51365912206E+03  0.20742069160E+01  0.81935729040E+03  0.61300000000E+03 0.  1.
<mgrwt>
<rscale>  0 0.16512966E+04</rscale>
<asrwt>0</asrwt>
<pdfrwt beam="1">  1        2 0.10395459E+00 0.16512966E+04</pdfrwt>
<pdfrwt beam="2">  1       -2 0.13382907E+00 0.16512966E+04</pdfrwt>
<totfact> 0.16561497E+01</totfact>
</mgrwt>
</event>
<event>
 8    1  0.6972317E-052  0.1672505E+04  0.7818608E-02  0.8777203E-01
          2   -1    0    0  501    0  0.00000000000E+00  0.00000000000E+00  0.15167438260E+04  0.15167438260E+04  0.25500000000E-02 0.  1.
         -2   -1    0    0    0  501 -0.00000000000E+00 -0.00000000000E+00 -0.46106546529E+03  0.46106546530E+03  0.25500000000E-02 0. -1.
     200001    2    1    2    0    0  0.51184985172E+03 -0.65803105891E+02  0.81129896004E+03  0.11400679166E+04  0.61255900324E+03 0.  0.
    5000001    2    3    3    0    0  0.31231086313E+03  0.22914806686E+03  0.27188183776E+03  0.48586318253E+03  0.10998357450E+03 0.  0.
        -11    1    4    4    0    0  0.29358794688E+03  0.21769842297E+03  0.24608651934E+03  0.44061895207E+03  0.51100000000E-03 0. -1.
     200002    1    4    4    0    0  0.18722916248E+02  0.11449643891E+02  0.25795318413E+02  0.45244230462E+02  0.30000000000E+02 0.  1.
     200000    1    3    3    0    0  0.19953898859E+03 -0.29495117275E+03  0.53941712228E+03  0.65420473407E+03  0.10100000000E+03 0. -1.
    -200001    1    1    2    0    0 -0.51184985172E+03  0.65803105891E+02  0.24437940070E+03  0.83774137473E+03  0.61300000000E+03 0. -1.
<mgrwt>
<rscale>  0 0.16725049E+04</rscale>
<asrwt>0</asrwt>
<pdfrwt beam="1">  1        2 0.21667769E+00 0.16725049E+04</pdfrwt>
<pdfrwt beam="2">  1       -2 0.65866494E-01 0.16725049E+04</pdfrwt>
<totfact> 0.29044134E+01</totfact>
</mgrwt>
</event>
<event>
 8    1  0.6972317E-052  0.1901020E+04  0.7818608E-02  0.8654349E-01
          2   -1    0    0  501    0  0.00000000000E+00  0.00000000000E+00  0.26868738377E+04  0.26868738377E+04  0.25500000000E-02 0.  1.
         -2   -1    0    0    0  501 -0.00000000000E+00 -0.00000000000E+00 -0.33625277669E+03  0.33625277670E+03  0.25500000000E-02 0. -1.
     200001    2    1    2    0    0  0.59775734290E+03  0.76515382423E+02  0.52899482612E+03  0.10088625839E+04  0.61220890428E+03 0.  0.
    5000001    2    3    3    0    0 -0.30256792346E+02  0.16717756008E+03  0.24078561448E+03  0.30467018538E+03  0.77345973658E+02 0.  0.
        -11    1    4    4    0    0  0.12117266623E+02  0.29286396791E+01  0.29750456256E+02  0.32256700521E+02  0.51100000000E-03 0. -1.
     200002    1    4    4    0    0 -0.42374058968E+02  0.16424892040E+03  0.21103515823E+03  0.27241348486E+03  0.30000000000E+02 0. -1.
     200000    1    3    3    0    0  0.62801413524E+03 -0.90662177655E+02  0.28820921164E+03  0.70419239856E+03  0.10100000000E+03 0.  1.
    -200001    1    1    2    0    0 -0.59775734290E+03 -0.76515382423E+02  0.18216262349E+04  0.20142640304E+04  0.61300000000E+03 0.  1.
<mgrwt>
<rscale>  0 0.19010195E+04</rscale>
<asrwt>0</asrwt>
<pdfrwt beam="1">  1        2 0.38383911E+00 0.19010195E+04</pdfrwt>
<pdfrwt beam="2">  1       -2 0.48036112E-01 0.19010195E+04</pdfrwt>
<totfact> 0.13525793E+01</totfact>
</mgrwt>
</event>
<event>
 8    1  0.6972317E-052  0.1704157E+04  0.7818608E-02  0.8758997E-01
          2   -1    0    0  501    0  0.00000000000E+00  0.00000000000E+00  0.62198655535E+03  0.62198655535E+03  0.25500000000E-02 0.  1.
         -2   -1    0    0    0  501 -0.00000000000E+00 -0.00000000000E+00 -0.11672889023E+04  0.11672889023E+04  0.25500000000E-02 0. -1.
     200001    2    1    2    0    0 -0.57061068316E+03  0.13376350760E+03 -0.36839594407E+03  0.92293020137E+03  0.61040589552E+03 0.  0.
    5000001    2    3    3    0    0 -0.10180303871E+02 -0.11001467780E+03  0.82676600608E+02  0.15665515005E+03  0.74152193697E+02 0.  0.
        -11    1    4    4    0    0 -0.22311676816E+01 -0.97653285035E+02  0.49232157599E+02  0.10938440259E+03  0.51100000000E-03 0. -1.
     200002    1    4    4    0    0 -0.79491361889E+01 -0.12361392764E+02  0.33444443009E+02  0.47270747460E+02  0.30000000000E+02 0.  1.
     200000    1    3    3    0    0 -0.56043037929E+03  0.24377818540E+03 -0.45107254468E+03  0.76627505132E+03  0.10100000000E+03 0. -1.
    -200001    1    1    2    0    0  0.57061068316E+03 -0.13376350760E+03 -0.17690640288E+03  0.86634525629E+03  0.61300000000E+03 0. -1.
<mgrwt>
<rscale>  0 0.17041573E+04</rscale>
<asrwt>0</asrwt>
<pdfrwt beam="1">  1        2 0.88855223E-01 0.17041573E+04</pdfrwt>
<pdfrwt beam="2">  1       -2 0.16675556E+00 0.17041573E+04</pdfrwt>
<totfact> 0.11138892E+01</totfact>
</mgrwt>
</event>
<event>
 8    1  0.6972317E-052  0.1800435E+04  0.7818608E-02  0.8706068E-01
         -2   -1    0    0    0  501 -0.00000000000E+00  0.00000000000E+00  0.37200081977E+03  0.37200081978E+03  0.25500000000E-02 0. -1.
          2   -1    0    0  501    0  0.00000000000E+00 -0.00000000000E+00 -0.21784682698E+04  0.21784682698E+04  0.25500000000E-02 0.  1.
     200001    2    1    2    0    0  0.60552895528E+03  0.22570931898E+03 -0.10872853302E+04  0.14056538495E+04  0.61324003708E+03 0.  0.
    5000001    2    3    3    0    0  0.41136381714E+03  0.18032182257E+03 -0.21151496716E+03  0.50180936376E+03  0.73060977788E+02 0.  0.
        -11    1    4    4    0    0  0.18789935724E+03  0.10428879451E+03 -0.75766830608E+02  0.22786604340E+03  0.51100000000E-03 0. -1.
     200002    1    4    4    0    0  0.22346445989E+03  0.76033028061E+02 -0.13574813656E+03  0.27394332036E+03  0.30000000000E+02 0. -1.
     200000    1    3    3    0    0  0.19416513814E+03  0.45387496415E+02 -0.87577036301E+03  0.90384448576E+03  0.10100000000E+03 0.  1.
    -200001    1    1    2    0    0 -0.60552895528E+03 -0.22570931898E+03 -0.71918211980E+03  0.11448152400E+04  0.61300000000E+03 0.  1.
<mgrwt>
<rscale>  0 0.18004355E+04</rscale>
<asrwt>0</asrwt>
<pdfrwt beam="1">  1        2 0.31120975E+00 0.18004355E+04</pdfrwt>
<pdfrwt beam="2">  1       -2 0.53142975E-01 0.18004355E+04</pdfrwt>
<totfact> 0.20509171E+01</totfact>
</mgrwt>
</event>
<event>
 8    1  0.6972317E-052  0.1886783E+04  0.7818608E-02  0.8661464E-01
          2   -1    0    0  501    0  0.00000000000E+00  0.00000000000E+00  0.38551130588E+04  0.38551130588E+04  0.25500000000E-02 0.  1.
         -2   -1    0    0    0  501 -0.00000000000E+00 -0.00000000000E+00 -0.23085892652E+03  0.23085892653E+03  0.25500000000E-02 0. -1.
     200001    2    1    2    0    0 -0.66519966969E+02 -0.50958297043E+03  0.72926367633E+03  0.10825009184E+04  0.61309299376E+03 0.  0.
    5000001    2    3    3    0    0 -0.24526088975E+03 -0.44056252750E+02  0.39771786646E+03  0.47522250912E+03  0.74586020284E+02 0.  0.
        -11    1    4    4    0    0 -0.96095336595E+02 -0.48068440493E+02  0.15083160442E+03  0.18518925881E+03  0.51100000000E-03 0. -1.
     200002    1    4    4    0    0 -0.14916555316E+03  0.40121877431E+01  0.24688626204E+03  0.29003325031E+03  0.30000000000E+02 0. -1.
     200000    1    3    3    0    0  0.17874092278E+03 -0.46552671768E+03  0.33154580987E+03  0.60727840929E+03  0.10100000000E+03 0. -1.
    -200001    1    1    2    0    0  0.66519966969E+02  0.50958297043E+03  0.28949904559E+04  0.30034710669E+04  0.61300000000E+03 0.  1.
<mgrwt>
<rscale>  0 0.18867827E+04</rscale>
<asrwt>0</asrwt>
<pdfrwt beam="1">  1        2 0.55073040E+00 0.18867827E+04</pdfrwt>
<pdfrwt beam="2">  1       -2 0.32979849E-01 0.18867827E+04</pdfrwt>
<totfact> 0.58005286E+00</totfact>
</mgrwt>
</event>
<event>
 8    1  0.6972317E-052  0.1602084E+04  0.7818608E-02  0.8819269E-01
          2   -1    0    0  501    0  0.00000000000E+00  0.00000000000E+00  0.26854978151E+04  0.26854978151E+04  0.25500000000E-02 0.  1.
         -2   -1    0    0    0  501 -0.00000000000E+00 -0.00000000000E+00 -0.23893819589E+03  0.23893819590E+03  0.25500000000E-02 0. -1.
     200001    2    1    2    0    0 -0.47314768303E+03 -0.19318008002E+03  0.13477191671E+04  0.15663466868E+04  0.61311313527E+03 0.  0.
    5000001    2    3    3    0    0 -0.98419976810E+02  0.14410873459E+03  0.77507324595E+03  0.79673058168E+03  0.59893772386E+02 0.  0.
        -11    1    4    4    0    0 -0.33999607902E+02  0.81778856727E+02  0.32594586185E+03  0.33776391104E+03  0.51100000000E-03 0. -1.
     200002    1    4    4    0    0 -0.64420368908E+02  0.62329877862E+02  0.44912738410E+03  0.45896667063E+03  0.30000000000E+02 0.  1.
     200000    1    3    3    0    0 -0.37472770622E+03 -0.33728881461E+03  0.57264592113E+03  0.76961610511E+03  0.10100000000E+03 0. -1.
    -200001    1    1    2    0    0  0.47314768303E+03  0.19318008002E+03  0.10988404521E+04  0.13580893242E+04  0.61300000000E+03 0.  1.
<mgrwt>
<rscale>  0 0.16020836E+04</rscale>
<asrwt>0</asrwt>
<pdfrwt beam="1">  1        2 0.38364256E+00 0.16020836E+04</pdfrwt>
<pdfrwt beam="2">  1       -2 0.34134026E-01 0.16020836E+04</pdfrwt>
<totfact> 0.27151599E+01</totfact>
</mgrwt>
</event>
<event>
 8    1  0.6972317E-052  0.1367144E+04  0.7818608E-02  0.8977951E-01
          2   -1    0    0  501    0  0.00000000000E+00  0.00000000000E+00  0.25306267048E+04  0.25306267048E+04  0.25500000000E-02 0.  1.
         -2   -1    0    0    0  501 -0.00000000000E+00 -0.00000000000E+00 -0.18464616070E+03  0.18464616072E+03  0.25500000000E-02 0. -1.
     200001    2    1    2    0    0  0.18278395110E+02 -0.17128985820E+03  0.67966544651E+03  0.93144290734E+03  0.61316103530E+03 0.  0.
    5000001    2    3    3    0    0 -0.17811692749E+03  0.14758142972E+03  0.22344880403E+03  0.33262353067E+03  0.84871237032E+02 0.  0.
        -11    1    4    4    0    0 -0.43562526318E+02  0.83122785365E+02  0.94072477852E+02  0.13287859961E+03  0.51100000000E-03 0. -1.
     200002    1    4    4    0    0 -0.13455440117E+03  0.64458644359E+02  0.12937632617E+03  0.19974493105E+03  0.30000000000E+02 0. -1.
     200000    1    3    3    0    0  0.19639532260E+03 -0.31887128793E+03  0.45621664249E+03  0.59881937668E+03  0.10100000000E+03 0.  1.
    -200001    1    1    2    0    0 -0.18278395110E+02  0.17128985820E+03  0.16663150976E+04  0.17838299582E+04  0.61300000000E+03 0.  1.
<mgrwt>
<rscale>  0 0.13671437E+04</rscale>
<asrwt>0</asrwt>
<pdfrwt beam="1">  1        2 0.36151807E+00 0.13671437E+04</pdfrwt>
<pdfrwt beam="2">  1       -2 0.26378025E-01 0.13671437E+04</pdfrwt>
<totfact> 0.54091145E+01</totfact>
</mgrwt>
</event>
<event>
 8    1  0.6972317E-052  0.1646899E+04  0.7818608E-02  0.8792243E-01
         -2   -1    0    0    0  501 -0.00000000000E+00  0.00000000000E+00  0.32737974613E+03  0.32737974614E+03  0.25500000000E-02 0. -1.
          2   -1    0    0  501    0  0.00000000000E+00 -0.00000000000E+00 -0.20711995278E+04  0.20711995278E+04  0.25500000000E-02 0.  1.
     200001    2    1    2    0    0  0.50482658133E+03 -0.17827818584E+03 -0.68743531436E+03  0.10650313252E+04  0.61244707813E+03 0.  0.
    5000001    2    3    3    0    0  0.11081953215E+03  0.24248633433E+02 -0.43964802001E+03  0.54748112420E+03  0.30590232907E+03 0.  0.
        -11    1    4    4    0    0 -0.15743849934E+02  0.12642000385E+02 -0.41388458918E+03  0.41437681179E+03  0.51100000000E-03 0. -1.
     200002    1    4    4    0    0  0.12656338209E+03  0.11606633048E+02 -0.25763430826E+02  0.13310431242E+03  0.30000000000E+02 0. -1.
     200000    1    3    3    0    0  0.39400704918E+03 -0.20252681928E+03 -0.24778729435E+03  0.51755020102E+03  0.10100000000E+03 0.  1.
    -200001    1    1    2    0    0 -0.50482658133E+03  0.17827818584E+03 -0.10563844673E+04  0.13335479487E+04  0.61300000000E+03 0. -1.
<mgrwt>
<rscale>  0 0.16468986E+04</rscale>
<asrwt>0</asrwt>
<pdfrwt beam="1">  1        2 0.29588564E+00 0.16468986E+04</pdfrwt>
<pdfrwt beam="2">  1       -2 0.46768536E-01 0.16468986E+04</pdfrwt>
<totfact> 0.30594339E+01</totfact>
</mgrwt>
</event>
<event>
 8    1  0.6972317E-052  0.1255047E+04  0.7818608E-02  0.9065993E-01
         -2   -1    0    0    0  501 -0.00000000000E+00  0.00000000000E+00  0.21215543633E+03  0.21215543635E+03  0.25500000000E-02 0.  1.
          2   -1    0    0  501    0  0.00000000000E+00 -0.00000000000E+00 -0.18561190345E+04  0.18561190345E+04  0.25500000000E-02 0. -1.
     200001    2    1    2    0    0 -0.65032782039E+02 -0.10813096293E+03 -0.89828248725E+03  0.10947597627E+04  0.61291593483E+03 0.  0.
    5000001    2    3    3    0    0  0.14792100158E+03  0.12771579008E+03 -0.35924609849E+03  0.46093468169E+03  0.21262896267E+03 0.  0.
        -11    1    4    4    0    0  0.16380708943E+03  0.25927082956E+02 -0.14078120049E+03  0.21754154222E+03  0.51100000000E-03 0. -1.
     200002    1    4    4    0    0 -0.15886087858E+02  0.10178870713E+03 -0.21846489799E+03  0.24339313947E+03  0.30000000000E+02 0. -1.
     200000    1    3    3    0    0 -0.21295378362E+03 -0.23584675302E+03 -0.53903638876E+03  0.63382508098E+03  0.10100000000E+03 0. -1.
    -200001    1    1    2    0    0  0.65032782039E+02  0.10813096293E+03 -0.74568111095E+03  0.97351470822E+03  0.61300000000E+03 0.  1.
<mgrwt>
<rscale>  0 0.12550470E+04</rscale>
<asrwt>0</asrwt>
<pdfrwt beam="1">  1        2 0.26515985E+00 0.12550470E+04</pdfrwt>
<pdfrwt beam="2">  1       -2 0.30307921E-01 0.12550470E+04</pdfrwt>
<totfact> 0.94156180E+01</totfact>
</mgrwt>
</event>
<event>
 8    1  0.6972317E-052  0.1397711E+04  0.7818608E-02  0.8955477E-01
          2   -1    0    0  501    0  0.00000000000E+00  0.00000000000E+00  0.12382157897E+04  0.12382157897E+04  0.25500000000E-02 0.  1.
         -2   -1    0    0    0  501 -0.00000000000E+00 -0.00000000000E+00 -0.39443763891E+03  0.39443763891E+03  0.25500000000E-02 0. -1.
     200001    2    1    2    0    0 -0.97400753308E+02  0.23104611914E+03  0.68132491591E+03  0.95072288270E+03  0.61384130094E+03 0.  0.
    5000001    2    3    3    0    0 -0.24875871104E+03 -0.96949989825E+02  0.39444005858E+03  0.47849984194E+03  0.45814212570E+02 0.  0.
        -11    1    4    4    0    0 -0.12646405402E+03 -0.41435206578E+02  0.20292134549E+03  0.24266665564E+03  0.51100000000E-03 0. -1.
     200002    1    4    4    0    0 -0.12229465702E+03 -0.55514783247E+02  0.19151871309E+03  0.23583318630E+03  0.30000000000E+02 0.  1.
     200000    1    3    3    0    0  0.15135795773E+03  0.32799610897E+03  0.28688485733E+03  0.47222304076E+03  0.10100000000E+03 0.  1.
    -200001    1    1    2    0    0  0.97400753308E+02 -0.23104611914E+03  0.16245323487E+03  0.68193054590E+03  0.61300000000E+03 0. -1.
<mgrwt>
<rscale>  0 0.13977109E+04</rscale>
<asrwt>0</asrwt>
<pdfrwt beam="1">  1        2 0.17688797E+00 0.13977109E+04</pdfrwt>
<pdfrwt beam="2">  1       -2 0.56348234E-01 0.13977109E+04</pdfrwt>
<totfact> 0.58556055E+01</totfact>
</mgrwt>
</event>
<event>
 8    1  0.6972317E-052  0.1428260E+04  0.7818608E-02  0.8933613E-01
         -2   -1    0    0    0  501 -0.00000000000E+00  0.00000000000E+00  0.66988661960E+03  0.66988661961E+03  0.25500000000E-02 0. -1.
          2   -1    0    0  501    0  0.00000000000E+00 -0.00000000000E+00 -0.76129561411E+03  0.76129561411E+03  0.25500000000E-02 0.  1.
     200001    2    1    2    0    0 -0.19056463844E+03 -0.34088479422E+02 -0.35761281579E+03  0.73540182272E+03  0.61274138835E+03 0.  0.
    5000001    2    3    3    0    0  0.11652302818E+03  0.86825328823E+02  0.70674825668E+02  0.18535247235E+03  0.90798426221E+02 0.  0.
        -11    1    4    4    0    0  0.73799597966E+02  0.45928838730E+01  0.29923357508E+02  0.79767678712E+02  0.51100000000E-03 0. -1.
     200002    1    4    4    0    0  0.42723430210E+02  0.82232444950E+02  0.40751468159E+02  0.10558479364E+03  0.30000000000E+02 0. -1.
     200000    1    3    3    0    0 -0.30708766662E+03 -0.12091380825E+03 -0.42828764146E+03  0.55004935037E+03  0.10100000000E+03 0.  1.
    -200001    1    1    2    0    0  0.19056463844E+03  0.34088479422E+02  0.26620382129E+03  0.69578041099E+03  0.61300000000E+03 0. -1.
<mgrwt>
<rscale>  0 0.14282601E+04</rscale>
<asrwt>0</asrwt>
<pdfrwt beam="1">  1        2 0.10875652E+00 0.14282601E+04</pdfrwt>
<pdfrwt beam="2">  1       -2 0.95698088E-01 0.14282601E+04</pdfrwt>
<totfact> 0.36119032E+01</totfact>
</mgrwt>
</event>
<event>
 8    1  0.6972317E-052  0.1709432E+04  0.7818608E-02  0.8756003E-01
          2   -1    0    0  501    0  0.00000000000E+00  0.00000000000E+00  0.22888436213E+04  0.22888436213E+04  0.25500000000E-02 0.  1.
         -2   -1    0    0    0  501 -0.00000000000E+00 -0.00000000000E+00 -0.31917413332E+03  0.31917413333E+03  0.25500000000E-02 0. -1.
     200001    2    1    2    0    0  0.22598742127E+03  0.38868065700E+03  0.15818891533E+04  0.17546212725E+04  0.61170217331E+03 0.  0.
    5000001    2    3    3    0    0  0.26505610967E+03 -0.48249979161E+02  0.44979078870E+03  0.53630996155E+03  0.11284422667E+03 0.  0.
        -11    1    4    4    0    0  0.15148900006E+03 -0.16815142427E+02  0.15481292877E+03  0.21725263880E+03  0.51100000000E-03 0. -1.
     200002    1    4    4    0    0  0.11356710961E+03 -0.31434836734E+02  0.29497785993E+03  0.31905732274E+03  0.30000000000E+02 0. -1.
     200000    1    3    3    0    0 -0.39068688397E+02  0.43693063616E+03  0.11320983647E+04  0.12183113110E+04  0.10100000000E+03 0.  1.
    -200001    1    1    2    0    0 -0.22598742127E+03 -0.38868065700E+03  0.38778033458E+03  0.85339648206E+03  0.61300000000E+03 0. -1.
<mgrwt>
<rscale>  0 0.17094323E+04</rscale>
<asrwt>0</asrwt>
<pdfrwt beam="1">  1        2 0.32697767E+00 0.17094323E+04</pdfrwt>
<pdfrwt beam="2">  1       -2 0.45596304E-01 0.17094323E+04</pdfrwt>
<totfact> 0.24730573E+01</totfact>
</mgrwt>
</event>
<event>
 8    1  0.6972317E-052  0.1276703E+04  0.7818608E-02  0.9048247E-01
          2   -1    0    0  501    0  0.00000000000E+00  0.00000000000E+00  0.89984803880E+03  0.89984803880E+03  0.25500000000E-02 0.  1.
         -2   -1    0    0    0  501 -0.00000000000E+00 -0.00000000000E+00 -0.45284583477E+03  0.45284583477E+03  0.25500000000E-02 0. -1.
     200001    2    1    2    0    0 -0.10953922578E+03  0.79636432441E+02  0.10085048075E+03  0.63580418967E+03  0.61297254815E+03 0.  0.
    5000001    2    3    3    0    0 -0.45573948720E+02  0.25501549481E+03  0.25266478275E+03  0.37484834192E+03  0.97784966131E+02 0.  0.
        -11    1    4    4    0    0 -0.79015800680E+01  0.17833262782E+03  0.12334077153E+03  0.21697443867E+03  0.51100000000E-03 0. -1.
     200002    1    4    4    0    0 -0.37672368652E+02  0.76682866988E+02  0.12932401122E+03  0.15787390325E+03  0.30000000000E+02 0. -1.
     200000    1    3    3    0    0 -0.63965277058E+02 -0.17537906236E+03 -0.15181430200E+03  0.26095584776E+03  0.10100000000E+03 0. -1.
    -200001    1    1    2    0    0  0.10953922578E+03 -0.79636432441E+02  0.34615172328E+03  0.71688968390E+03  0.61300000000E+03 0.  1.
<mgrwt>
<rscale>  0 0.12767027E+04</rscale>
<asrwt>0</asrwt>
<pdfrwt beam="1">  1        2 0.12854972E+00 0.12767027E+04</pdfrwt>
<pdfrwt beam="2">  1       -2 0.64692263E-01 0.12767027E+04</pdfrwt>
<totfact> 0.70504762E+01</totfact>
</mgrwt>
</event>
<event>
 8    1  0.6972317E-052  0.1415976E+04  0.7818608E-02  0.8942335E-01
         -2   -1    0    0    0  501 -0.00000000000E+00  0.00000000000E+00  0.20600760975E+04  0.20600760975E+04  0.25500000000E-02 0. -1.
          2   -1    0    0  501    0  0.00000000000E+00 -0.00000000000E+00 -0.24331494379E+03  0.24331494381E+03  0.25500000000E-02 0.  1.
     200001    2    1    2    0    0 -0.12900022545E+03  0.27745995128E+03  0.62080737718E+03  0.92509516657E+03  0.61381934225E+03 0.  0.
    5000001    2    3    3    0    0 -0.31785459430E+03  0.60427465536E+02  0.15310374881E+03  0.36677916600E+03  0.80019853770E+02 0.  0.
        -11    1    4    4    0    0 -0.33163830806E+02  0.25954755550E+02  0.36605790928E+02  0.55798503018E+02  0.51100000000E-03 0. -1.
     200002    1    4    4    0    0 -0.28469076350E+03  0.34472709987E+02  0.11649795788E+03  0.31098066298E+03  0.30000000000E+02 0. -1.
     200000    1    3    3    0    0  0.18885436886E+03  0.21703248574E+03  0.46770362837E+03  0.55831600058E+03  0.10100000000E+03 0. -1.
    -200001    1    1    2    0    0  0.12900022545E+03 -0.27745995128E+03  0.11959537765E+04  0.13782958747E+04  0.61300000000E+03 0. -1.
<mgrwt>
<rscale>  0 0.14159764E+04</rscale>
<asrwt>0</asrwt>
<pdfrwt beam="1">  1        2 0.34759278E-01 0.14159764E+04</pdfrwt>
<pdfrwt beam="2">  1       -2 0.29429658E+00 0.14159764E+04</pdfrwt>
<totfact> 0.50792207E+00</totfact>
</mgrwt>
</event>
<event>
 8    1  0.6972317E-052  0.1597995E+04  0.7818608E-02  0.8821780E-01
          2   -1    0    0  501    0  0.00000000000E+00  0.00000000000E+00  0.20065588099E+04  0.20065588099E+04  0.25500000000E-02 0.  1.
         -2   -1    0    0    0  501 -0.00000000000E+00 -0.00000000000E+00 -0.31815530171E+03  0.31815530172E+03  0.25500000000E-02 0. -1.
     200001    2    1    2    0    0 -0.39654198944E+03 -0.68257041575E+02  0.38260871130E+03  0.82712484059E+03  0.61305913487E+03 0.  0.
    5000001    2    3    3    0    0 -0.30114148588E+03  0.22174537905E+03  0.13712408842E+03  0.42256784817E+03  0.14107927924E+03 0.  0.
        -11    1    4    4    0    0 -0.57916515108E+02  0.12018269022E+03  0.31822563851E+02  0.13715275178E+03  0.51100000000E-03 0. -1.
     200002    1    4    4    0    0 -0.24322497077E+03  0.10156268883E+03  0.10530152457E+03  0.28541509639E+03  0.30000000000E+02 0. -1.
     200000    1    3    3    0    0 -0.95400503559E+02 -0.29000242063E+03  0.24548462288E+03  0.40455699242E+03  0.10100000000E+03 0.  1.
    -200001    1    1    2    0    0  0.39654198944E+03  0.68257041575E+02  0.13057947969E+04  0.14975892711E+04  0.61300000000E+03 0.  1.
<mgrwt>
<rscale>  0 0.15979954E+04</rscale>
<asrwt>0</asrwt>
<pdfrwt beam="1">  1        2 0.28665125E+00 0.15979954E+04</pdfrwt>
<pdfrwt beam="2">  1       -2 0.45450758E-01 0.15979954E+04</pdfrwt>
<totfact> 0.35113493E+01</totfact>
</mgrwt>
</event>
<event>
 8    1  0.6972317E-052  0.1496361E+04  0.7818608E-02  0.8886876E-01
          2   -1    0    0  501    0  0.00000000000E+00  0.00000000000E+00  0.13622345157E+04  0.13622345157E+04  0.25500000000E-02 0.  1.
         -2   -1    0    0    0  501 -0.00000000000E+00 -0.00000000000E+00 -0.41092358665E+03  0.41092358666E+03  0.25500000000E-02 0. -1.
     200001    2    1    2    0    0 -0.31490534114E+03  0.91409975316E+02  0.80343798846E+03  0.10624144326E+04  0.61293610428E+03 0.  0.
    5000001    2    3    3    0    0 -0.96900688909E+02 -0.23396852168E+03  0.18246528112E+03  0.32133056562E+03  0.76346191413E+02 0.  0.
        -11    1    4    4    0    0 -0.19957549470E+02 -0.12607528222E+03  0.74580908138E+02  0.14783637044E+03  0.51100000000E-03 0. -1.
     200002    1    4    4    0    0 -0.76943139438E+02 -0.10789323946E+03  0.10788437298E+03  0.17349419518E+03  0.30000000000E+02 0. -1.
     200000    1    3    3    0    0 -0.21800465223E+03  0.32537849699E+03  0.62097270734E+03  0.74108386702E+03  0.10100000000E+03 0.  1.
    -200001    1    1    2    0    0  0.31490534114E+03 -0.91409975316E+02  0.14787294058E+03  0.71074366970E+03  0.61300000000E+03 0. -1.
<mgrwt>
<rscale>  0 0.14963613E+04</rscale>
<asrwt>0</asrwt>
<pdfrwt beam="1">  1        2 0.19460494E+00 0.14963613E+04</pdfrwt>
<pdfrwt beam="2">  1       -2 0.58703368E-01 0.14963613E+04</pdfrwt>
<totfact> 0.45542556E+01</totfact>
</mgrwt>
</event>
<event>
 8    1  0.6972317E-052  0.1831405E+04  0.7818608E-02  0.8689775E-01
         -2   -1    0    0    0  501 -0.00000000000E+00  0.00000000000E+00  0.43009967613E+03  0.43009967614E+03  0.25500000000E-02 0. -1.
          2   -1    0    0  501    0  0.00000000000E+00 -0.00000000000E+00 -0.19495737636E+04  0.19495737636E+04  0.25500000000E-02 0.  1.
     200001    2    1    2    0    0 -0.65850417101E+03 -0.17035283615E+03 -0.77463449345E+03  0.11993332969E+04  0.61293876245E+03 0.  0.
    5000001    2    3    3    0    0 -0.26120029964E+03 -0.18209103508E+03 -0.70604585013E+03  0.78352859090E+03  0.11846336424E+03 0.  0.
        -11    1    4    4    0    0 -0.41222034264E+02 -0.49634243495E+02 -0.26087467001E+03  0.26873482783E+03  0.51100000000E-03 0. -1.
     200002    1    4    4    0    0 -0.21997826538E+03 -0.13245679159E+03 -0.44517118012E+03  0.51479376306E+03  0.30000000000E+02 0. -1.
     200000    1    3    3    0    0 -0.39730387137E+03  0.11738198933E+02 -0.68588643312E+02  0.41580470597E+03  0.10100000000E+03 0. -1.
    -200001    1    1    2    0    0  0.65850417101E+03  0.17035283615E+03 -0.74483959398E+03  0.11803401428E+04  0.61300000000E+03 0. -1.
<mgrwt>
<rscale>  0 0.18314050E+04</rscale>
<asrwt>0</asrwt>
<pdfrwt beam="1">  1        2 0.27851053E+00 0.18314050E+04</pdfrwt>
<pdfrwt beam="2">  1       -2 0.61442812E-01 0.18314050E+04</pdfrwt>
<totfact> 0.19811246E+01</totfact>
</mgrwt>
</event>
<event>
 8    1  0.6972317E-052  0.1482334E+04  0.7818608E-02  0.8896286E-01
          2   -1    0    0  501    0  0.00000000000E+00  0.00000000000E+00  0.11787284186E+04  0.11787284186E+04  0.25500000000E-02 0.  1.
         -2   -1    0    0    0  501 -0.00000000000E+00 -0.00000000000E+00 -0.46603472756E+03  0.46603472757E+03  0.25500000000E-02 0. -1.
     200001    2    1    2    0    0  0.23108277176E+03 -0.26917124720E+02  0.74043300392E+03  0.98851452829E+03  0.61220597869E+03 0.  0.
    5000001    2    3    3    0    0 -0.13705885228E+03  0.16232327571E+03  0.31545514900E+03  0.38672772080E+03  0.70088545227E+02 0.  0.
        -11    1    4    4    0    0 -0.41074612212E+02  0.38863496982E+02  0.42558838999E+02  0.70772522515E+02  0.51100000000E-03 0. -1.
     200002    1    4    4    0    0 -0.95984240071E+02  0.12345977873E+03  0.27289631001E+03  0.31595519828E+03  0.30000000000E+02 0. -1.
     200000    1    3    3    0    0  0.36814162404E+03 -0.18924040043E+03  0.42497785491E+03  0.60178680750E+03  0.10100000000E+03 0.  1.
    -200001    1    1    2    0    0 -0.23108277176E+03  0.26917124720E+02 -0.27739312866E+02  0.65624861789E+03  0.61300000000E+03 0.  1.
<mgrwt>
<rscale>  0 0.14823338E+04</rscale>
<asrwt>0</asrwt>
<pdfrwt beam="1">  1        2 0.16838977E+00 0.14823338E+04</pdfrwt>
<pdfrwt beam="2">  1       -2 0.66576390E-01 0.14823338E+04</pdfrwt>
<totfact> 0.44159321E+01</totfact>
</mgrwt>
</event>
<event>
 8    1  0.6972317E-052  0.1360087E+04  0.7818608E-02  0.8983228E-01
         -2   -1    0    0    0  501 -0.00000000000E+00  0.00000000000E+00  0.72304336974E+03  0.72304336975E+03  0.25500000000E-02 0. -1.
          2   -1    0    0  501    0  0.00000000000E+00 -0.00000000000E+00 -0.63960039452E+03  0.63960039453E+03  0.25500000000E-02 0.  1.
     200001    2    1    2    0    0 -0.21595991396E+03 -0.99807546583E+02 -0.13189671881E+03  0.67073306584E+03  0.61309531917E+03 0.  0.
    5000001    2    3    3    0    0 -0.13942637060E+03 -0.18026784779E+03 -0.33420787444E+03  0.41881631962E+03  0.10851726350E+03 0.  0.
        -11    1    4    4    0    0 -0.14081009800E+03 -0.15680469072E+03 -0.30532792573E+03  0.37099910642E+03  0.51100000000E-03 0. -1.
     200002    1    4    4    0    0  0.13837274011E+01 -0.23463157063E+02 -0.28879948712E+02  0.47817213203E+02  0.30000000000E+02 0. -1.
     200000    1    3    3    0    0 -0.76533543362E+02  0.80460301203E+02  0.20231115564E+03  0.25191674622E+03  0.10100000000E+03 0. -1.
    -200001    1    1    2    0    0  0.21595991396E+03  0.99807546583E+02  0.21533969403E+03  0.69191069844E+03  0.61300000000E+03 0.  1.
<mgrwt>
<rscale>  0 0.13600865E+04</rscale>
<asrwt>0</asrwt>
<pdfrwt beam="1">  1        2 0.91371485E-01 0.13600865E+04</pdfrwt>
<pdfrwt beam="2">  1       -2 0.10329191E+00 0.13600865E+04</pdfrwt>
<totfact> 0.37572038E+01</totfact>
</mgrwt>
</event>
<event>
 8    1  0.6972317E-052  0.1644583E+04  0.7818608E-02  0.8793618E-01
          2   -1    0    0  501    0  0.00000000000E+00  0.00000000000E+00  0.35727153907E+04  0.35727153907E+04  0.25500000000E-02 0.  1.
         -2   -1    0    0    0  501 -0.00000000000E+00 -0.00000000000E+00 -0.18925745308E+03  0.18925745310E+03  0.25500000000E-02 0. -1.
     200001    2    1    2    0    0  0.33289557796E+03 -0.13710471846E+03  0.74495833259E+03  0.10293795086E+04  0.61240679769E+03 0.  0.
    5000001    2    3    3    0    0  0.18647182443E+03 -0.31710162432E+02 -0.46856446177E+02  0.21101554809E+03  0.80961467877E+02 0.  0.
        -11    1    4    4    0    0  0.58042027551E+02  0.21915126007E+02 -0.25381954622E+02  0.67032778033E+02  0.51100000000E-03 0. -1.
     200002    1    4    4    0    0  0.12842979688E+03 -0.53625288439E+02 -0.21474491555E+02  0.14398277006E+03  0.30000000000E+02 0. -1.
     200000    1    3    3    0    0  0.14642375353E+03 -0.10539455602E+03  0.79181477877E+03  0.81836396054E+03  0.10100000000E+03 0.  1.
    -200001    1    1    2    0    0 -0.33289557796E+03  0.13710471846E+03  0.26384996050E+04  0.27325933351E+04  0.61300000000E+03 0.  1.
<mgrwt>
<rscale>  0 0.16445826E+04</rscale>
<asrwt>0</asrwt>
<pdfrwt beam="1">  1        2 0.51038787E+00 0.16445826E+04</pdfrwt>
<pdfrwt beam="2">  1       -2 0.27036781E-01 0.16445826E+04</pdfrwt>
<totfact> 0.13015961E+01</totfact>
</mgrwt>
</event>
<event>
 8    1  0.6972317E-052  0.1360150E+04  0.7818608E-02  0.8983180E-01
          2   -1    0    0  501    0  0.00000000000E+00  0.00000000000E+00  0.73506629316E+03  0.73506629317E+03  0.25500000000E-02 0.  1.
         -2   -1    0    0    0  501 -0.00000000000E+00 -0.00000000000E+00 -0.62919723222E+03  0.62919723223E+03  0.25500000000E-02 0. -1.
     200001    2    1    2    0    0  0.11550749463E+03  0.27784053289E+02 -0.21775635981E+03  0.66097386396E+03  0.61266196362E+03 0.  0.
    5000001    2    3    3    0    0  0.16503849087E+03  0.64279593173E+02  0.11205661149E+03  0.31059857936E+03  0.22922744982E+03 0.  0.
        -11    1    4    4    0    0  0.95235608144E+02 -0.81310690747E+02  0.42315875233E+02  0.13218124975E+03  0.51100000000E-03 0. -1.
     200002    1    4    4    0    0  0.69802882730E+02  0.14559028392E+03  0.69740736262E+02  0.17841732961E+03  0.30000000000E+02 0. -1.
     200000    1    3    3    0    0 -0.49530996244E+02 -0.36495539884E+02 -0.32981297130E+03  0.35037528460E+03  0.10100000000E+03 0. -1.
    -200001    1    1    2    0    0 -0.11550749463E+03 -0.27784053289E+02  0.32362542075E+03  0.70328966144E+03  0.61300000000E+03 0.  1.
<mgrwt>
<rscale>  0 0.13601495E+04</rscale>
<asrwt>0</asrwt>
<pdfrwt beam="1">  1        2 0.10500947E+00 0.13601495E+04</pdfrwt>
<pdfrwt beam="2">  1       -2 0.89885320E-01 0.13601495E+04</pdfrwt>
<totfact> 0.43887144E+01</totfact>
</mgrwt>
</event>
<event>
 8    1  0.6972317E-052  0.1862871E+04  0.7818608E-02  0.8673562E-01
         -2   -1    0    0    0  501 -0.00000000000E+00  0.00000000000E+00  0.17939900782E+04  0.17939900782E+04  0.25500000000E-02 0. -1.
          2   -1    0    0  501    0  0.00000000000E+00 -0.00000000000E+00 -0.48359914929E+03  0.48359914930E+03  0.25500000000E-02 0.  1.
     200001    2    1    2    0    0  0.32304812992E+03  0.34033291368E+03  0.12927161195E+04  0.15054053212E+04  0.61232640720E+03 0.  0.
    5000001    2    3    3    0    0  0.25158324283E+03  0.50117894044E+03  0.91839180959E+03  0.10796138659E+04  0.87453559199E+02 0.  0.
        -11    1    4    4    0    0  0.22605198042E+03  0.44218308429E+03  0.80203332183E+03  0.94333600970E+03  0.51100000000E-03 0. -1.
     200002    1    4    4    0    0  0.25531262403E+02  0.58995856151E+02  0.11635848776E+03  0.13627785615E+03  0.30000000000E+02 0.  1.
     200000    1    3    3    0    0  0.71464887093E+02 -0.16084602676E+03  0.37432430993E+03  0.42579145531E+03  0.10100000000E+03 0. -1.
    -200001    1    1    2    0    0 -0.32304812992E+03 -0.34033291368E+03  0.17674809431E+02  0.77218390637E+03  0.61300000000E+03 0.  1.
<mgrwt>
<rscale>  0 0.18628710E+04</rscale>
<asrwt>0</asrwt>
<pdfrwt beam="1">  1        2 0.69085591E-01 0.18628710E+04</pdfrwt>
<pdfrwt beam="2">  1       -2 0.25628430E+00 0.18628710E+04</pdfrwt>
<totfact> 0.38644638E+00</totfact>
</mgrwt>
</event>
<event>
 8    1  0.6972317E-052  0.1409268E+04  0.7818608E-02  0.8947137E-01
         -2   -1    0    0    0  501 -0.00000000000E+00  0.00000000000E+00  0.54939769371E+03  0.54939769372E+03  0.25500000000E-02 0. -1.
          2   -1    0    0  501    0  0.00000000000E+00 -0.00000000000E+00 -0.90373327250E+03  0.90373327251E+03  0.25500000000E-02 0.  1.
     200001    2    1    2    0    0  0.49986884006E+02 -0.14388280591E+03 -0.49836002272E+03  0.80527836658E+03  0.61392962547E+03 0.  0.
    5000001    2    3    3    0    0  0.14222918776E+03 -0.12271231448E+03 -0.59997538721E+03  0.63357072374E+03  0.78447069737E+02 0.  0.
        -11    1    4    4    0    0  0.53380850917E+02 -0.58242499533E+01 -0.15459940225E+03  0.16365944003E+03  0.51100000000E-03 0. -1.
     200002    1    4    4    0    0  0.88848336843E+02 -0.11688806453E+03 -0.44537598496E+03  0.46991128372E+03  0.30000000000E+02 0. -1.
     200000    1    3    3    0    0 -0.92242303754E+02 -0.21170491425E+02  0.10161536449E+03  0.17170764284E+03  0.10100000000E+03 0. -1.
    -200001    1    1    2    0    0 -0.49986884006E+02  0.14388280591E+03  0.14402444393E+03  0.64785259964E+03  0.61300000000E+03 0. -1.
<mgrwt>
<rscale>  0 0.14092679E+04</rscale>
<asrwt>0</asrwt>
<pdfrwt beam="1">  1        2 0.12910475E+00 0.14092679E+04</pdfrwt>
<pdfrwt beam="2">  1       -2 0.78485385E-01 0.14092679E+04</pdfrwt>
<totfact> 0.45464356E+01</totfact>
</mgrwt>
</event>
<event>
 8    1  0.6972317E-052  0.1382280E+04  0.7818608E-02  0.8966746E-01
          2   -1    0    0  501    0  0.00000000000E+00  0.00000000000E+00  0.56434380288E+04  0.56434380288E+04  0.25500000000E-02 0.  1.
         -2   -1    0    0    0  501 -0.00000000000E+00 -0.00000000000E+00 -0.84642419022E+02  0.84642419061E+02  0.25500000000E-02 0. -1.
     200001    2    1    2    0    0 -0.21137025437E+03 -0.12535442881E+03  0.36221653591E+04  0.36819385063E+04  0.61334994752E+03 0.  0.
    5000001    2    3    3    0    0 -0.12830922285E+03 -0.14672975327E+03  0.37053394476E+03  0.42760848396E+03  0.86952482285E+02 0.  0.
        -11    1    4    4    0    0 -0.24938131015E+02  0.40721587709E+01  0.25051962700E+02  0.35582210316E+02  0.51100000000E-03 0. -1.
     200002    1    4    4    0    0 -0.10337109183E+03 -0.15080191204E+03  0.34548198206E+03  0.39202627365E+03  0.30000000000E+02 0. -1.
     200000    1    3    3    0    0 -0.83061031525E+02  0.21375324458E+02  0.32516314143E+04  0.32543300223E+04  0.10100000000E+03 0.  1.
    -200001    1    1    2    0    0  0.21137025437E+03  0.12535442881E+03  0.19366302507E+04  0.20461419416E+04  0.61300000000E+03 0. -1.
<mgrwt>
<rscale>  0 0.13822796E+04</rscale>
<asrwt>0</asrwt>
<pdfrwt beam="1">  1        2 0.80620546E+00 0.13822796E+04</pdfrwt>
<pdfrwt beam="2">  1       -2 0.12091774E-01 0.13822796E+04</pdfrwt>
<totfact> 0.85170325E-01</totfact>
</mgrwt>
</event>
<event>
 8    1  0.6972317E-052  0.2453990E+04  0.7818608E-02  0.8419562E-01
          2   -1    0    0  501    0  0.00000000000E+00  0.00000000000E+00  0.30134403001E+04  0.30134403001E+04  0.25500000000E-02 0.  1.
         -2   -1    0    0    0  501 -0.00000000000E+00 -0.00000000000E+00 -0.49960080080E+03  0.49960080081E+03  0.25500000000E-02 0. -1.
     200001    2    1    2    0    0  0.58757875932E+03 -0.56544837377E+03  0.28124421442E+03  0.10584064299E+04  0.61330677560E+03 0.  0.
    5000001    2    3    3    0    0  0.64068807372E+03 -0.51803235774E+03  0.36091693751E+03  0.91137711092E+03  0.14665766618E+03 0.  0.
        -11    1    4    4    0    0  0.16312699376E+03 -0.81390727083E+02  0.32784384361E+02  0.18522872997E+03  0.51100000000E-03 0. -1.
     200002    1    4    4    0    0  0.47756107995E+03 -0.43664163066E+03  0.32813255314E+03  0.72614838094E+03  0.30000000000E+02 0. -1.
     200000    1    3    3    0    0 -0.53109314392E+02 -0.47416016024E+02 -0.79672723084E+02  0.14702931903E+03  0.10100000000E+03 0. -1.
    -200001    1    1    2    0    0 -0.58757875932E+03  0.56544837377E+03  0.22325952849E+04  0.24546346709E+04  0.61300000000E+03 0.  1.
<mgrwt>
<rscale>  0 0.24539904E+04</rscale>
<asrwt>0</asrwt>
<pdfrwt beam="1">  1        2 0.43049146E+00 0.24539904E+04</pdfrwt>
<pdfrwt beam="2">  1       -2 0.71371545E-01 0.24539904E+04</pdfrwt>
<totfact> 0.37156635E+00</totfact>
</mgrwt>
</event>
<event>
 8    1  0.6972317E-052  0.1861931E+04  0.7818608E-02  0.8674041E-01
         -2   -1    0    0    0  501 -0.00000000000E+00  0.00000000000E+00  0.28050336585E+03  0.28050336586E+03  0.25500000000E-02 0. -1.
          2   -1    0    0  501    0  0.00000000000E+00 -0.00000000000E+00 -0.30897904971E+04  0.30897904971E+04  0.25500000000E-02 0.  1.
     200001    2    1    2    0    0 -0.16627236633E+03 -0.56322068827E+03 -0.71307437230E+03  0.11087145532E+04  0.61311406488E+03 0.  0.
    5000001    2    3    3    0    0  0.66804984615E+02 -0.12211187221E+02 -0.42533370174E+03  0.43719968720E+03  0.74985262470E+02 0.  0.
        -11    1    4    4    0    0  0.68133644793E+02 -0.16709238731E+02 -0.31851898313E+03  0.32615293166E+03  0.51100000000E-03 0. -1.
     200002    1    4    4    0    0 -0.13286601780E+01  0.44980515105E+01 -0.10681471861E+03  0.11104675554E+03  0.30000000000E+02 0.  1.
     200000    1    3    3    0    0 -0.23307735095E+03 -0.55100950105E+03 -0.28774067056E+03  0.67151486601E+03  0.10100000000E+03 0. -1.
    -200001    1    1    2    0    0  0.16627236633E+03  0.56322068827E+03 -0.20962127590E+04  0.22615793098E+04  0.61300000000E+03 0.  1.
<mgrwt>
<rscale>  0 0.18619309E+04</rscale>
<asrwt>0</asrwt>
<pdfrwt beam="1">  1        2 0.44139862E+00 0.18619309E+04</pdfrwt>
<pdfrwt beam="2">  1       -2 0.40071911E-01 0.18619309E+04</pdfrwt>
<totfact> 0.11678746E+01</totfact>
</mgrwt>
</event>
<event>
 8    1  0.6972317E-052  0.1893363E+04  0.7818608E-02  0.8658167E-01
          2   -1    0    0  501    0  0.00000000000E+00  0.00000000000E+00  0.78365968033E+03  0.78365968033E+03  0.25500000000E-02 0.  1.
         -2   -1    0    0    0  501 -0.00000000000E+00 -0.00000000000E+00 -0.11436158574E+04  0.11436158574E+04  0.25500000000E-02 0. -1.
     200001    2    1    2    0    0 -0.61620926952E+03 -0.16650901898E+03  0.16194573189E+03  0.89985657752E+03  0.61325061988E+03 0.  0.
    5000001    2    3    3    0    0 -0.11585337850E+03  0.18111367842E+03 -0.74415733942E+02  0.23859619011E+03  0.71876774112E+02 0.  0.
        -11    1    4    4    0    0 -0.24280596574E+02  0.26982701242E+02  0.10753385271E+02  0.37858272958E+02  0.51100000000E-03 0. -1.
     200002    1    4    4    0    0 -0.91572781926E+02  0.15413097718E+03 -0.85169119213E+02  0.20073791715E+03  0.30000000000E+02 0. -1.
     200000    1    3    3    0    0 -0.50035589102E+03 -0.34762269740E+03  0.23636146584E+03  0.66126038741E+03  0.10100000000E+03 0.  1.
    -200001    1    1    2    0    0  0.61620926952E+03  0.16650901898E+03 -0.52190190896E+03  0.10274189602E+04  0.61300000000E+03 0. -1.
<mgrwt>
<rscale>  0 0.18933628E+04</rscale>
<asrwt>0</asrwt>
<pdfrwt beam="1">  1        2 0.11195138E+00 0.18933628E+04</pdfrwt>
<pdfrwt beam="2">  1       -2 0.16337369E+00 0.18933628E+04</pdfrwt>
<totfact> 0.87281804E+00</totfact>
</mgrwt>
</event>
<event>
 8    1  0.6972317E-052  0.1414990E+04  0.7818608E-02  0.8943039E-01
          2   -1    0    0  501    0  0.00000000000E+00  0.00000000000E+00  0.82920342477E+03  0.82920342478E+03  0.25500000000E-02 0.  1.
         -2   -1    0    0    0  501 -0.00000000000E+00 -0.00000000000E+00 -0.60365098702E+03  0.60365098703E+03  0.25500000000E-02 0. -1.
     200001    2    1    2    0    0  0.43691899998E+02  0.31005984313E+03 -0.52704594988E+02  0.69039763547E+03  0.61304570163E+03 0.  0.
    5000001    2    3    3    0    0 -0.15229225409E+03  0.16311061266E+03  0.73455116734E+01  0.41871605659E+03  0.35421910859E+03 0.  0.
        -11    1    4    4    0    0  0.66888336766E+01  0.15899184374E+02 -0.14890650725E+03  0.14990220966E+03  0.51100000000E-03 0. -1.
     200002    1    4    4    0    0 -0.15898108777E+03  0.14721142828E+03  0.15625201892E+03  0.26881384693E+03  0.30000000000E+02 0. -1.
     200000    1    3    3    0    0  0.19598415409E+03  0.14694923048E+03 -0.60050106661E+02  0.27168157888E+03  0.10100000000E+03 0. -1.
    -200001    1    1    2    0    0 -0.43691899998E+02 -0.31005984313E+03  0.27825703274E+03  0.74245677633E+03  0.61300000000E+03 0.  1.
<mgrwt>
<rscale>  0 0.14149904E+04</rscale>
<asrwt>0</asrwt>
<pdfrwt beam="1">  1        2 0.11845763E+00 0.14149904E+04</pdfrwt>
<pdfrwt beam="2">  1       -2 0.86235856E-01 0.14149904E+04</pdfrwt>
<totfact> 0.41196879E+01</totfact>
</mgrwt>
</event>
<event>
 8    1  0.6972317E-052  0.1386501E+04  0.7818608E-02  0.8963648E-01
          2   -1    0    0  501    0  0.00000000000E+00  0.00000000000E+00  0.58231829116E+03  0.58231829116E+03  0.25500000000E-02 0.  1.
         -2   -1    0    0    0  501 -0.00000000000E+00 -0.00000000000E+00 -0.82531572313E+03  0.82531572313E+03  0.25500000000E-02 0. -1.
     200001    2    1    2    0    0 -0.17683031369E+02 -0.23861371498E+03 -0.33937225166E+03  0.74257288895E+03  0.61562307920E+03 0.  0.
    5000001    2    3    3    0    0  0.11397171745E+03  0.15058130841E+03 -0.22101117004E+03  0.30323693008E+03  0.86269436411E+02 0.  0.
        -11    1    4    4    0    0  0.72330683918E+02  0.58311106154E+02 -0.59670880447E+02  0.11041977590E+03  0.51100000000E-03 0. -1.
     200002    1    4    4    0    0  0.41641033537E+02  0.92270202259E+02 -0.16134028959E+03  0.19281715417E+03  0.30000000000E+02 0. -1.
     200000    1    3    3    0    0 -0.13165474882E+03 -0.38919502339E+03 -0.11836108162E+03  0.43933595888E+03  0.10100000000E+03 0. -1.
    -200001    1    1    2    0    0  0.17683031369E+02  0.23861371498E+03  0.96374819688E+02  0.66506112534E+03  0.61300000000E+03 0.  1.
<mgrwt>
<rscale>  0 0.13865013E+04</rscale>
<asrwt>0</asrwt>
<pdfrwt beam="1">  1        2 0.83188328E-01 0.13865013E+04</pdfrwt>
<pdfrwt beam="2">  1       -2 0.11790225E+00 0.13865013E+04</pdfrwt>
<totfact> 0.30429220E+01</totfact>
</mgrwt>
</event>
<event>
 8    1  0.6972317E-052  0.1424170E+04  0.7818608E-02  0.8936507E-01
          2   -1    0    0  501    0  0.00000000000E+00  0.00000000000E+00  0.93884308140E+03  0.93884308140E+03  0.25500000000E-02 0.  1.
         -2   -1    0    0    0  501 -0.00000000000E+00 -0.00000000000E+00 -0.54009543236E+03  0.54009543236E+03  0.25500000000E-02 0. -1.
     200001    2    1    2    0    0  0.81007061939E+02 -0.91337402159E+02 -0.15488365102E+03  0.64396469290E+03  0.61302276894E+03 0.  0.
    5000001    2    3    3    0    0  0.80835527009E+02  0.33880915678E+02 -0.36192071308E+03  0.38177201258E+03  0.84148488739E+02 0.  0.
        -11    1    4    4    0    0  0.10851786142E+02  0.16325287285E+02 -0.11462814349E+02  0.22708420915E+02  0.51100000000E-03 0. -1.
     200002    1    4    4    0    0  0.69983740867E+02  0.17555628393E+02 -0.35045789874E+03  0.35906359167E+03  0.30000000000E+02 0. -1.
     200000    1    3    3    0    0  0.17153493009E+00 -0.12521831784E+03  0.20703706206E+03  0.26219268032E+03  0.10100000000E+03 0.  1.
    -200001    1    1    2    0    0 -0.81007061939E+02  0.91337402159E+02  0.55363130006E+03  0.83497382086E+03  0.61300000000E+03 0.  1.
<mgrwt>
<rscale>  0 0.14241697E+04</rscale>
<asrwt>0</asrwt>
<pdfrwt beam="1">  1        2 0.13412044E+00 0.14241697E+04</pdfrwt>
<pdfrwt beam="2">  1       -2 0.77156491E-01 0.14241697E+04</pdfrwt>
<totfact> 0.44781143E+01</totfact>
</mgrwt>
</event>
<event>
 8    1  0.6972317E-052  0.1679587E+04  0.7818608E-02  0.8773093E-01
          2   -1    0    0  501    0  0.00000000000E+00  0.00000000000E+00  0.11116809484E+04  0.11116809484E+04  0.25500000000E-02 0.  1.
         -2   -1    0    0    0  501 -0.00000000000E+00 -0.00000000000E+00 -0.63440236524E+03  0.63440236525E+03  0.25500000000E-02 0. -1.
     200001    2    1    2    0    0 -0.90470363011E+02 -0.33626189693E+03 -0.23525293091E+03  0.74372254605E+03  0.61361415734E+03 0.  0.
    5000001    2    3    3    0    0 -0.97371356426E+02  0.11575029282E+03  0.37564980975E+02  0.20614161592E+03  0.13492192808E+03 0.  0.
        -11    1    4    4    0    0 -0.95834822640E+02  0.21680811971E+02 -0.54997840112E+01  0.98410459112E+02  0.51100000000E-03 0. -1.
     200002    1    4    4    0    0 -0.15365337865E+01  0.94069480850E+02  0.43064764986E+02  0.10773115681E+03  0.30000000000E+02 0. -1.
     200000    1    3    3    0    0  0.69009934151E+01 -0.45201218975E+03 -0.27281791189E+03  0.53758093013E+03  0.10100000000E+03 0. -1.
    -200001    1    1    2    0    0  0.90470363011E+02  0.33626189693E+03  0.71253151411E+03  0.10023607676E+04  0.61300000000E+03 0.  1.
<mgrwt>
<rscale>  0 0.16795869E+04</rscale>
<asrwt>0</asrwt>
<pdfrwt beam="1">  1        2 0.15881156E+00 0.16795869E+04</pdfrwt>
<pdfrwt beam="2">  1       -2 0.90628910E-01 0.16795869E+04</pdfrwt>
<totfact> 0.23899975E+01</totfact>
</mgrwt>
</event>
<event>
 8    1  0.6972317E-052  0.1425161E+04  0.7818608E-02  0.8935804E-01
         -2   -1    0    0    0  501 -0.00000000000E+00  0.00000000000E+00  0.49440678667E+03  0.49440678668E+03  0.25500000000E-02 0. -1.
          2   -1    0    0  501    0  0.00000000000E+00 -0.00000000000E+00 -0.10270312838E+04  0.10270312838E+04  0.25500000000E-02 0.  1.
     200001    2    1    2    0    0 -0.32248962196E+03 -0.10853083915E+03 -0.40202651716E+03  0.80827376140E+03  0.61310900626E+03 0.  0.
    5000001    2    3    3    0    0 -0.41356845444E+03 -0.16956279327E+03 -0.46237250335E+03  0.64745432477E+03  0.74955743230E+02 0.  0.
        -11    1    4    4    0    0 -0.57355188938E+02 -0.83924325089E+01 -0.36260906212E+02  0.68373269200E+02  0.51100000000E-03 0. -1.
     200002    1    4    4    0    0 -0.35621326550E+03 -0.16117036076E+03 -0.42611159713E+03  0.57908105557E+03  0.30000000000E+02 0. -1.
     200000    1    3    3    0    0  0.91078832477E+02  0.61031954128E+02  0.60345986188E+02  0.16081943663E+03  0.10100000000E+03 0. -1.
    -200001    1    1    2    0    0  0.32248962196E+03  0.10853083915E+03 -0.13059797993E+03  0.71316430903E+03  0.61300000000E+03 0. -1.
<mgrwt>
<rscale>  0 0.14251614E+04</rscale>
<asrwt>0</asrwt>
<pdfrwt beam="1">  1        2 0.14671875E+00 0.14251614E+04</pdfrwt>
<pdfrwt beam="2">  1       -2 0.70629541E-01 0.14251614E+04</pdfrwt>
<totfact> 0.47948468E+01</totfact>
</mgrwt>
</event>
<event>
 8    1  0.6972317E-052  0.2072862E+04  0.7818608E-02  0.8573293E-01
         -2   -1    0    0    0  501 -0.00000000000E+00  0.00000000000E+00  0.12732824123E+04  0.12732824123E+04  0.25500000000E-02 0. -1.
          2   -1    0    0  501    0  0.00000000000E+00 -0.00000000000E+00 -0.84363785257E+03  0.84363785257E+03  0.25500000000E-02 0.  1.
     200001    2    1    2    0    0 -0.45679150486E+03 -0.44148635064E+03 -0.34001167366E+03  0.94572071127E+03  0.61254473208E+03 0.  0.
    5000001    2    3    3    0    0 -0.29599334570E+03 -0.37381143484E+03  0.65270361208E+02  0.49307242618E+03  0.10729933777E+03 0.  0.
        -11    1    4    4    0    0 -0.47895692973E+02 -0.54796139158E+02 -0.26702642567E+02  0.77521902661E+02  0.51100000000E-03 0. -1.
     200002    1    4    4    0    0 -0.24809765273E+03 -0.31901529568E+03  0.91973003775E+02  0.41555052352E+03  0.30000000000E+02 0. -1.
     200000    1    3    3    0    0 -0.16079815916E+03 -0.67674915799E+02 -0.40528203486E+03  0.45264828510E+03  0.10100000000E+03 0.  1.
    -200001    1    1    2    0    0  0.45679150486E+03  0.44148635064E+03  0.76965623334E+03  0.11711995536E+04  0.61300000000E+03 0. -1.
<mgrwt>
<rscale>  0 0.20728620E+04</rscale>
<asrwt>0</asrwt>
<pdfrwt beam="1">  1        2 0.12051969E+00 0.20728620E+04</pdfrwt>
<pdfrwt beam="2">  1       -2 0.18189749E+00 0.20728620E+04</pdfrwt>
<totfact> 0.57828243E+00</totfact>
</mgrwt>
</event>
<event>
 8    1  0.6972317E-052  0.1774848E+04  0.7818608E-02  0.8719791E-01
         -2   -1    0    0    0  501 -0.00000000000E+00  0.00000000000E+00  0.13542371252E+04  0.13542371252E+04  0.25500000000E-02 0. -1.
          2   -1    0    0  501    0  0.00000000000E+00 -0.00000000000E+00 -0.58152386858E+03  0.58152386859E+03  0.25500000000E-02 0.  1.
     200001    2    1    2    0    0  0.18935775313E+03 -0.61291083251E+03  0.39067782147E+03  0.96971952419E+03  0.61336021075E+03 0.  0.
    5000001    2    3    3    0    0  0.31768131711E+03 -0.19742206017E+03  0.91770808587E+01  0.38248731109E+03  0.79469712812E+02 0.  0.
        -11    1    4    4    0    0  0.26335869023E+03 -0.17272866234E+03 -0.84947155209E+00  0.31495033278E+03  0.51100000000E-03 0. -1.
     200002    1    4    4    0    0  0.54322626872E+02 -0.24693397834E+02  0.10026552411E+02  0.67536978316E+02  0.30000000000E+02 0. -1.
     200000    1    3    3    0    0 -0.12832356398E+03 -0.41548877234E+03  0.38150074061E+03  0.58723221310E+03  0.10100000000E+03 0. -1.
    -200001    1    1    2    0    0 -0.18935775313E+03  0.61291083251E+03  0.38203543516E+03  0.96604146961E+03  0.61300000000E+03 0. -1.
<mgrwt>
<rscale>  0 0.17748478E+04</rscale>
<asrwt>0</asrwt>
<pdfrwt beam="1">  1        2 0.83074838E-01 0.17748478E+04</pdfrwt>
<pdfrwt beam="2">  1       -2 0.19346245E+00 0.17748478E+04</pdfrwt>
<totfact> 0.78432325E+00</totfact>
</mgrwt>
</event>
<event>
 8    1  0.6972317E-052  0.1973346E+04  0.7818608E-02  0.8619184E-01
          2   -1    0    0  501    0  0.00000000000E+00  0.00000000000E+00  0.50511724182E+03  0.50511724183E+03  0.25500000000E-02 0.  1.
         -2   -1    0    0    0  501 -0.00000000000E+00 -0.00000000000E+00 -0.19273228533E+04  0.19273228533E+04  0.25500000000E-02 0. -1.
     200001    2    1    2    0    0  0.57445652295E+02 -0.74054368287E+03 -0.44387704885E+03  0.10596324882E+04  0.61162834002E+03 0.  0.
    5000001    2    3    3    0    0 -0.20092165420E+03 -0.43307864110E+03 -0.42310132975E+03  0.64499885776E+03  0.95300423772E+02 0.  0.
        -11    1    4    4    0    0 -0.62353220075E+02 -0.23384049838E+03 -0.22158790947E+03  0.32813183991E+03  0.51100000000E-03 0. -1.
     200002    1    4    4    0    0 -0.13856843413E+03 -0.19923814273E+03 -0.20151342027E+03  0.31686701785E+03  0.30000000000E+02 0. -1.
     200000    1    3    3    0    0  0.25836730650E+03 -0.30746504177E+03 -0.20775719109E+02  0.41463363043E+03  0.10100000000E+03 0.  1.
    -200001    1    1    2    0    0 -0.57445652295E+02  0.74054368287E+03 -0.97832856259E+03  0.13728076069E+04  0.61300000000E+03 0. -1.
<mgrwt>
<rscale>  0 0.19733464E+04</rscale>
<asrwt>0</asrwt>
<pdfrwt beam="1">  1        2 0.72159607E-01 0.19733464E+04</pdfrwt>
<pdfrwt beam="2">  1       -2 0.27533183E+00 0.19733464E+04</pdfrwt>
<totfact> 0.27885203E+00</totfact>
</mgrwt>
</event>
<event>
 8    1  0.6972317E-052  0.1304009E+04  0.7818608E-02  0.9026392E-01
          2   -1    0    0  501    0  0.00000000000E+00  0.00000000000E+00  0.11797051791E+04  0.11797051791E+04  0.25500000000E-02 0.  1.
         -2   -1    0    0    0  501 -0.00000000000E+00 -0.00000000000E+00 -0.36035257626E+03  0.36035257627E+03  0.25500000000E-02 0. -1.
     200001    2    1    2    0    0 -0.67247902176E+02 -0.21206297045E+03  0.38716583754E+03  0.75772318253E+03  0.61217158690E+03 0.  0.
    5000001    2    3    3    0    0 -0.48244721435E+02  0.37493892171E+02  0.44424376009E+03  0.48186336704E+03  0.17637018178E+03 0.  0.
        -11    1    4    4    0    0  0.40372932875E+02 -0.43890785023E+02  0.18725649479E+03  0.19652320362E+03  0.51100000000E-03 0. -1.
     200002    1    4    4    0    0 -0.88617654310E+02  0.81384677194E+02  0.25698726530E+03  0.28534016343E+03  0.30000000000E+02 0.  1.
     200000    1    3    3    0    0 -0.19003180741E+02 -0.24955686262E+03 -0.57077922550E+02  0.27585981549E+03  0.10100000000E+03 0. -1.
    -200001    1    1    2    0    0  0.67247902176E+02  0.21206297045E+03  0.43218676532E+03  0.78233457287E+03  0.61300000000E+03 0.  1.
<mgrwt>
<rscale>  0 0.13040089E+04</rscale>
<asrwt>0</asrwt>
<pdfrwt beam="1">  1        2 0.16852931E+00 0.13040089E+04</pdfrwt>
<pdfrwt beam="2">  1       -2 0.51478940E-01 0.13040089E+04</pdfrwt>
<totfact> 0.76717063E+01</totfact>
</mgrwt>
</event>
<event>
 8    1  0.6972317E-052  0.1334550E+04  0.7818608E-02  0.9002606E-01
         -2   -1    0    0    0  501 -0.00000000000E+00  0.00000000000E+00  0.23948320130E+03  0.23948320131E+03  0.25500000000E-02 0. -1.
          2   -1    0    0  501    0  0.00000000000E+00 -0.00000000000E+00 -0.18592376072E+04  0.18592376072E+04  0.25500000000E-02 0.  1.
     200001    2    1    2    0    0  0.19284429596E+03  0.12423026357E+02 -0.10900880086E+04  0.12658590274E+04  0.61381101051E+03 0.  0.
    5000001    2    3    3    0    0  0.14844402357E+03 -0.50845754440E+02 -0.71007873906E+02  0.23887331971E+03  0.16552167784E+03 0.  0.
        -11    1    4    4    0    0 -0.64408879451E+00 -0.21383358193E+02 -0.80873651210E+02  0.83655306576E+02  0.51100000000E-03 0. -1.
     200002    1    4    4    0    0  0.14908811236E+03 -0.29462396247E+02  0.98657773039E+01  0.15521801314E+03  0.30000000000E+02 0. -1.
     200000    1    3    3    0    0  0.44400272392E+02  0.63268780797E+02 -0.10190801347E+04  0.10269857077E+04  0.10100000000E+03 0.  1.
    -200001    1    1    2    0    0 -0.19284429596E+03 -0.12423026357E+02 -0.52966639732E+03  0.83286178116E+03  0.61300000000E+03 0. -1.
<mgrwt>
<rscale>  0 0.13345504E+04</rscale>
<asrwt>0</asrwt>
<pdfrwt beam="1">  1        2 0.26560536E+00 0.13345504E+04</pdfrwt>
<pdfrwt beam="2">  1       -2 0.34211887E-01 0.13345504E+04</pdfrwt>
<totfact> 0.74235144E+01</totfact>
</mgrwt>
</event>
<event>
 8    1  0.6972317E-052  0.1412105E+04  0.7818608E-02  0.8945103E-01
          2   -1    0    0  501    0  0.00000000000E+00  0.00000000000E+00  0.30526542059E+04  0.30526542059E+04  0.25500000000E-02 0. -1.
         -2   -1    0    0    0  501 -0.00000000000E+00 -0.00000000000E+00 -0.16330386223E+03  0.16330386225E+03  0.25500000000E-02 0.  1.
     200001    2    1    2    0    0 -0.12043687351E+03 -0.32522805513E+03  0.13511490385E+04  0.15241807236E+04  0.61420259325E+03 0.  0.
    5000001    2    3    3    0    0  0.10349085126E+03 -0.20956334947E+02  0.60272585536E+03  0.67975004752E+03  0.29602727258E+03 0.  0.
        -11    1    4    4    0    0  0.15689548943E+03  0.86249168614E+02  0.44339276318E+03  0.47817596774E+03  0.51100000000E-03 0. -1.
     200002    1    4    4    0    0 -0.53404638171E+02 -0.10720550356E+03  0.15933309218E+03  0.20157407977E+03  0.30000000000E+02 0. -1.
     200000    1    3    3    0    0 -0.22392772476E+03 -0.30427172018E+03  0.74842318315E+03  0.84443067607E+03  0.10100000000E+03 0.  1.
    -200001    1    1    2    0    0  0.12043687351E+03  0.32522805513E+03  0.15382013051E+04  0.16917773445E+04  0.61300000000E+03 0. -1.
<mgrwt>
<rscale>  0 0.14121051E+04</rscale>
<asrwt>0</asrwt>
<pdfrwt beam="1">  1        2 0.43609348E+00 0.14121051E+04</pdfrwt>
<pdfrwt beam="2">  1       -2 0.23329122E-01 0.14121051E+04</pdfrwt>
<totfact> 0.35102870E+01</totfact>
</mgrwt>
</event>
<event>
 8    1  0.6972317E-052  0.1314700E+04  0.7818608E-02  0.9017988E-01
          2   -1    0    0  501    0  0.00000000000E+00  0.00000000000E+00  0.37826590327E+03  0.37826590328E+03  0.25500000000E-02 0.  1.
         -2   -1    0    0    0  501 -0.00000000000E+00 -0.00000000000E+00 -0.11423421914E+04  0.11423421914E+04  0.25500000000E-02 0. -1.
     200001    2    1    2    0    0  0.23319597655E+03  0.18256287385E+02 -0.40295180901E+03  0.77167983049E+03  0.61514709207E+03 0.  0.
    5000001    2    3    3    0    0 -0.15936664674E+03  0.12318594097E+03 -0.50082041321E+02  0.22410908770E+03  0.84523181324E+02 0.  0.
        -11    1    4    4    0    0 -0.93914054855E+02  0.46319191399E+02  0.58096689917E+01  0.10487644848E+03  0.51100000000E-03 0. -1.
     200002    1    4    4    0    0 -0.65452591881E+02  0.76866749574E+02 -0.55891710313E+02  0.11923263922E+03  0.30000000000E+02 0. -1.
     200000    1    3    3    0    0  0.39256262329E+03 -0.10492965359E+03 -0.35286976769E+03  0.54757074279E+03  0.10100000000E+03 0. -1.
    -200001    1    1    2    0    0 -0.23319597655E+03 -0.18256287385E+02 -0.36112447913E+03  0.74892826421E+03  0.61300000000E+03 0.  1.
<mgrwt>
<rscale>  0 0.13147001E+04</rscale>
<asrwt>0</asrwt>
<pdfrwt beam="1">  1        2 0.54037987E-01 0.13147001E+04</pdfrwt>
<pdfrwt beam="2">  1       -2 0.16319174E+00 0.13147001E+04</pdfrwt>
<totfact> 0.21522343E+01</totfact>
</mgrwt>
</event>
<event>
 8    1  0.6972317E-052  0.1487472E+04  0.7818608E-02  0.8892827E-01
          2   -1    0    0  501    0  0.00000000000E+00  0.00000000000E+00  0.31398538696E+03  0.31398538697E+03  0.25500000000E-02 0.  1.
         -2   -1    0    0    0  501 -0.00000000000E+00 -0.00000000000E+00 -0.17616841233E+04  0.17616841233E+04  0.25500000000E-02 0. -1.
     200001    2    1    2    0    0 -0.22859486875E+03 -0.24458911352E+03 -0.10807205891E+04  0.12866692511E+04  0.61276530700E+03 0.  0.
    5000001    2    3    3    0    0  0.54681237671E+02 -0.31960940874E+03 -0.51770793337E+03  0.64397364063E+03  0.20381445887E+03 0.  0.
        -11    1    4    4    0    0  0.96452941227E+02 -0.67827182635E+02 -0.22820123080E+03  0.25686474712E+03  0.51100000000E-03 0. -1.
     200002    1    4    4    0    0 -0.41771703556E+02 -0.25178222610E+03 -0.28950670257E+03  0.38710889351E+03  0.30000000000E+02 0. -1.
     200000    1    3    3    0    0 -0.28327610642E+03  0.75020295215E+02 -0.56301265572E+03  0.64269561043E+03  0.10100000000E+03 0. -1.
    -200001    1    1    2    0    0  0.22859486875E+03  0.24458911352E+03 -0.36697814725E+03  0.78900025921E+03  0.61300000000E+03 0.  1.
<mgrwt>
<rscale>  0 0.14874718E+04</rscale>
<asrwt>0</asrwt>
<pdfrwt beam="1">  1        2 0.44855056E-01 0.14874718E+04</pdfrwt>
<pdfrwt beam="2">  1       -2 0.25166915E+00 0.14874718E+04</pdfrwt>
<totfact> 0.68991832E+00</totfact>
</mgrwt>
</event>
<event>
 8    1  0.6972317E-052  0.1433446E+04  0.7818608E-02  0.8929959E-01
         -2   -1    0    0    0  501 -0.00000000000E+00  0.00000000000E+00  0.67274069316E+03  0.67274069316E+03  0.25500000000E-02 0. -1.
          2   -1    0    0  501    0  0.00000000000E+00 -0.00000000000E+00 -0.76358029484E+03  0.76358029484E+03  0.25500000000E-02 0.  1.
     200001    2    1    2    0    0  0.24386602436E+03 -0.14603204688E+03  0.19375657865E+03  0.70313616655E+03  0.61323964352E+03 0.  0.
    5000001    2    3    3    0    0  0.40105881710E+01 -0.32011290899E+03 -0.72862378606E+01  0.33104210466E+03  0.83948951603E+02 0.  0.
        -11    1    4    4    0    0 -0.18550069862E+02 -0.90637591324E+02 -0.30371107399E+02  0.97373929868E+02  0.51100000000E-03 0. -1.
     200002    1    4    4    0    0  0.22560658033E+02 -0.22947531767E+03  0.23084869538E+02  0.23366817479E+03  0.30000000000E+02 0. -1.
     200000    1    3    3    0    0  0.23985543618E+03  0.17408086211E+03  0.20104281651E+03  0.37209406189E+03  0.10100000000E+03 0. -1.
    -200001    1    1    2    0    0 -0.24386602436E+03  0.14603204688E+03 -0.28459618033E+03  0.73318482145E+03  0.61300000000E+03 0. -1.
<mgrwt>
<rscale>  0 0.14334456E+04</rscale>
<asrwt>0</asrwt>
<pdfrwt beam="1">  1        2 0.10908290E+00 0.14334456E+04</pdfrwt>
<pdfrwt beam="2">  1       -2 0.96105814E-01 0.14334456E+04</pdfrwt>
<totfact> 0.35611728E+01</totfact>
</mgrwt>
</event>
<event>
 8    1  0.6972317E-052  0.1264925E+04  0.7818608E-02  0.9057852E-01
          2   -1    0    0  501    0  0.00000000000E+00  0.00000000000E+00  0.82549842145E+03  0.82549842146E+03  0.25500000000E-02 0.  1.
         -2   -1    0    0    0  501 -0.00000000000E+00 -0.00000000000E+00 -0.48456626088E+03  0.48456626089E+03  0.25500000000E-02 0. -1.
     200001    2    1    2    0    0  0.55081723309E+02 -0.14765143343E+03  0.11560169813E+03  0.63821815274E+03  0.60755552490E+03 0.  0.
    5000001    2    3    3    0    0  0.25521058597E+03  0.90476758020E+02  0.13814746940E+03  0.31039821888E+03  0.62800032233E+02 0.  0.
        -11    1    4    4    0    0  0.96046788002E+02  0.31614828183E+02  0.78591398514E+02  0.12806674341E+03  0.51100000000E-03 0. -1.
     200002    1    4    4    0    0  0.15916379797E+03  0.58861929837E+02  0.59556070884E+02  0.18233147547E+03  0.30000000000E+02 0. -1.
     200000    1    3    3    0    0 -0.20012886266E+03 -0.23812819145E+03 -0.22545771267E+02  0.32781993386E+03  0.10100000000E+03 0. -1.
    -200001    1    1    2    0    0 -0.55081723309E+02  0.14765143343E+03  0.22533046244E+03  0.67184652960E+03  0.61300000000E+03 0.  1.
<mgrwt>
<rscale>  0 0.12649248E+04</rscale>
<asrwt>0</asrwt>
<pdfrwt beam="1">  1        2 0.11792834E+00 0.12649248E+04</pdfrwt>
<pdfrwt beam="2">  1       -2 0.69223753E-01 0.12649248E+04</pdfrwt>
<totfact> 0.68373823E+01</totfact>
</mgrwt>
</event>
<event>
 8    1  0.6972317E-052  0.1277457E+04  0.7818608E-02  0.9047635E-01
         -2   -1    0    0    0  501 -0.00000000000E+00  0.00000000000E+00  0.12671788479E+03  0.12671788481E+03  0.25500000000E-02 0. -1.
          2   -1    0    0  501    0  0.00000000000E+00 -0.00000000000E+00 -0.32195485741E+04  0.32195485741E+04  0.25500000000E-02 0.  1.
     200001    2    1    2    0    0  0.17175660474E+03 -0.65324505913E+02 -0.14951647029E+04  0.16251989918E+04  0.60990708447E+03 0.  0.
    5000001    2    3    3    0    0  0.30737363602E+03  0.15030544027E+03 -0.74906565195E+03  0.83037004998E+03  0.10651193117E+03 0.  0.
        -11    1    4    4    0    0  0.18671531953E+02  0.28806923678E+02 -0.30466317119E+02  0.45898381631E+02  0.51100000000E-03 0. -1.
     200002    1    4    4    0    0  0.28870210406E+03  0.12149851659E+03 -0.71859933483E+03  0.78447166835E+03  0.30000000000E+02 0. -1.
     200000    1    3    3    0    0 -0.13561703128E+03 -0.21562994618E+03 -0.74609905098E+03  0.79482894181E+03  0.10100000000E+03 0.  1.
    -200001    1    1    2    0    0 -0.17175660474E+03  0.65324505913E+02 -0.15976659864E+04  0.17210674671E+04  0.61300000000E+03 0.  1.
<mgrwt>
<rscale>  0 0.12774575E+04</rscale>
<asrwt>0</asrwt>
<pdfrwt beam="1">  1        2 0.45993546E+00 0.12774575E+04</pdfrwt>
<pdfrwt beam="2">  1       -2 0.18102557E-01 0.12774575E+04</pdfrwt>
<totfact> 0.44716614E+01</totfact>
</mgrwt>
</event>
<event>
 8    1  0.6972317E-052  0.1357548E+04  0.7818608E-02  0.8985134E-01
          2   -1    0    0  501    0  0.00000000000E+00  0.00000000000E+00  0.16980274997E+04  0.16980274997E+04  0.25500000000E-02 0.  1.
         -2   -1    0    0    0  501 -0.00000000000E+00 -0.00000000000E+00 -0.27133499895E+03  0.27133499896E+03  0.25500000000E-02 0. -1.
     200001    2    1    2    0    0 -0.15886890319E+03  0.10295796918E+03  0.39106239380E+03  0.75111031204E+03  0.61269668939E+03 0.  0.
    5000001    2    3    3    0    0 -0.29239829163E+03  0.14622578195E+03  0.45376141207E+03  0.56716910379E+03  0.94353764978E+02 0.  0.
        -11    1    4    4    0    0 -0.23146167609E+03  0.11194767657E+03  0.39378453537E+03  0.47029038910E+03  0.51100000000E-03 0. -1.
     200002    1    4    4    0    0 -0.60936615543E+02  0.34278105375E+02  0.59976876696E+02  0.96878714691E+02  0.30000000000E+02 0. -1.
     200000    1    3    3    0    0  0.13352938844E+03 -0.43267812766E+02 -0.62699018269E+02  0.18394120824E+03  0.10100000000E+03 0. -1.
    -200001    1    1    2    0    0  0.15886890319E+03 -0.10295796918E+03  0.10356301070E+04  0.12182521867E+04  0.61300000000E+03 0.  1.
<mgrwt>
<rscale>  0 0.13575482E+04</rscale>
<asrwt>0</asrwt>
<pdfrwt beam="1">  1        2 0.24257535E+00 0.13575482E+04</pdfrwt>
<pdfrwt beam="2">  1       -2 0.38762144E-01 0.13575482E+04</pdfrwt>
<totfact> 0.70617406E+01</totfact>
</mgrwt>
</event>
<event>
 8    1  0.6972317E-052  0.2323899E+04  0.7818608E-02  0.8468557E-01
         -2   -1    0    0    0  501 -0.00000000000E+00  0.00000000000E+00  0.75901138189E+03  0.75901138189E+03  0.25500000000E-02 0. -1.
          2   -1    0    0  501    0  0.00000000000E+00 -0.00000000000E+00 -0.17787957658E+04  0.17787957658E+04  0.25500000000E-02 0.  1.
     200001    2    1    2    0    0  0.52721855065E+02  0.52059380767E+03  0.40425914361E+03  0.90151057467E+03  0.61277920531E+03 0.  0.
    5000001    2    3    3    0    0 -0.17183025077E+03 -0.40948948182E+02  0.66317470830E+02  0.20139666316E+03  0.70428386022E+02 0.  0.
        -11    1    4    4    0    0 -0.11557572181E+03 -0.42260627799E+02  0.25469365129E+02  0.12566780293E+03  0.51100000000E-03 0. -1.
     200002    1    4    4    0    0 -0.56254528966E+02  0.13116796169E+01  0.40848105701E+02  0.75728860231E+02  0.30000000000E+02 0. -1.
     200000    1    3    3    0    0  0.22455210584E+03  0.56154275585E+03  0.33794167279E+03  0.70011391151E+03  0.10100000000E+03 0. -1.
    -200001    1    1    2    0    0 -0.52721855065E+02 -0.52059380767E+03 -0.14240435275E+04  0.16362965730E+04  0.61300000000E+03 0.  1.
<mgrwt>
<rscale>  0 0.23238986E+04</rscale>
<asrwt>0</asrwt>
<pdfrwt beam="1">  1        2 0.25411368E+00 0.23238986E+04</pdfrwt>
<pdfrwt beam="2">  1       -2 0.10843020E+00 0.23238986E+04</pdfrwt>
<totfact> 0.64602165E+00</totfact>
</mgrwt>
</event>
<event>
 8    1  0.6972317E-052  0.1289463E+04  0.7818608E-02  0.9037963E-01
         -2   -1    0    0    0  501 -0.00000000000E+00  0.00000000000E+00  0.55117594052E+03  0.55117594052E+03  0.25500000000E-02 0. -1.
          2   -1    0    0  501    0  0.00000000000E+00 -0.00000000000E+00 -0.75416721889E+03  0.75416721889E+03  0.25500000000E-02 0.  1.
     200001    2    1    2    0    0 -0.40326773589E+02 -0.17459701223E+03 -0.11386297742E+02  0.63856595979E+03  0.61280214741E+03 0.  0.
    5000001    2    3    3    0    0  0.23556932556E+03 -0.21481271316E+03  0.47854576760E+02  0.33616483323E+03  0.95285495769E+02 0.  0.
        -11    1    4    4    0    0 -0.59268916465E+01 -0.13727972179E+02  0.10519001557E+02  0.18282085733E+02  0.51100000000E-03 0. -1.
     200002    1    4    4    0    0  0.24149621721E+03 -0.20108474098E+03  0.37335575203E+02  0.31788274750E+03  0.30000000000E+02 0. -1.
     200000    1    3    3    0    0 -0.27589609915E+03  0.40215700924E+02 -0.59240874502E+02  0.30240112655E+03  0.10100000000E+03 0.  1.
    -200001    1    1    2    0    0  0.40326773589E+02  0.17459701223E+03 -0.19160498063E+03  0.66677719963E+03  0.61300000000E+03 0.  1.
<mgrwt>
<rscale>  0 0.12894632E+04</rscale>
<asrwt>0</asrwt>
<pdfrwt beam="1">  1        2 0.10773817E+00 0.12894632E+04</pdfrwt>
<pdfrwt beam="2">  1       -2 0.78739420E-01 0.12894632E+04</pdfrwt>
<totfact> 0.57692549E+01</totfact>
</mgrwt>
</event>
<event>
 8    1  0.6972317E-052  0.1631574E+04  0.7818608E-02  0.8801382E-01
          2   -1    0    0  501    0  0.00000000000E+00  0.00000000000E+00  0.23778305564E+04  0.23778305564E+04  0.25500000000E-02 0.  1.
         -2   -1    0    0    0  501 -0.00000000000E+00 -0.00000000000E+00 -0.27988056103E+03  0.27988056104E+03  0.25500000000E-02 0. -1.
     200001    2    1    2    0    0 -0.29285515741E+03 -0.40462389959E+03  0.13765994667E+04  0.15873839578E+04  0.61259864075E+03 0.  0.
    5000001    2    3    3    0    0 -0.81897765067E+01  0.20750658432E+02  0.82773773991E+03  0.83013361034E+03  0.58943894298E+02 0.  0.
        -11    1    4    4    0    0  0.14322380675E+02  0.16184383368E+02  0.44793167446E+03  0.44845272865E+03  0.51100000000E-03 0. -1.
     200002    1    4    4    0    0 -0.22512157182E+02  0.45662750637E+01  0.37980606545E+03  0.38168088169E+03  0.30000000000E+02 0. -1.
     200000    1    3    3    0    0 -0.28466538090E+03 -0.42537455803E+03  0.54886172674E+03  0.75725034749E+03  0.10100000000E+03 0. -1.
    -200001    1    1    2    0    0  0.29285515741E+03  0.40462389959E+03  0.72135052874E+03  0.10703271596E+04  0.61300000000E+03 0. -1.
<mgrwt>
<rscale>  0 0.16315741E+04</rscale>
<asrwt>0</asrwt>
<pdfrwt beam="1">  1        2 0.33969007E+00 0.16315741E+04</pdfrwt>
<pdfrwt beam="2">  1       -2 0.39982938E-01 0.16315741E+04</pdfrwt>
<totfact> 0.29014850E+01</totfact>
</mgrwt>
</event>
<event>
 8    1  0.6972317E-052  0.1443087E+04  0.7818608E-02  0.8923207E-01
          2   -1    0    0  501    0  0.00000000000E+00  0.00000000000E+00  0.17524139189E+04  0.17524139189E+04  0.25500000000E-02 0.  1.
         -2   -1    0    0    0  501 -0.00000000000E+00 -0.00000000000E+00 -0.29709011148E+03  0.29709011149E+03  0.25500000000E-02 0. -1.
     200001    2    1    2    0    0  0.10687381033E+03  0.24975061790E+03  0.11058031156E+04  0.12933750094E+04  0.61336856933E+03 0.  0.
    5000001    2    3    3    0    0  0.29787614150E+03  0.22394798949E+03  0.83977869311E+03  0.94969251123E+03  0.24042611093E+03 0.  0.
        -11    1    4    4    0    0  0.52779782230E+02  0.12588178775E+03  0.50041351901E+03  0.51869607663E+03  0.51100000000E-03 0. -1.
     200002    1    4    4    0    0  0.24509635927E+03  0.98066201736E+02  0.33936517409E+03  0.43099643460E+03  0.30000000000E+02 0. -1.
     200000    1    3    3    0    0 -0.19100233117E+03  0.25802628412E+02  0.26602442252E+03  0.34368249813E+03  0.10100000000E+03 0. -1.
    -200001    1    1    2    0    0 -0.10687381033E+03 -0.24975061790E+03  0.34952069183E+03  0.75612902106E+03  0.61300000000E+03 0. -1.
<mgrwt>
<rscale>  0 0.14430868E+04</rscale>
<asrwt>0</asrwt>
<pdfrwt beam="1">  1        2 0.25034485E+00 0.14430868E+04</pdfrwt>
<pdfrwt beam="2">  1       -2 0.42441444E-01 0.14430868E+04</pdfrwt>
<totfact> 0.55052421E+01</totfact>
</mgrwt>
</event>
<event>
 8    1  0.6972317E-052  0.1291840E+04  0.7818608E-02  0.9036061E-01
         -2   -1    0    0    0  501 -0.00000000000E+00  0.00000000000E+00  0.28492421777E+03  0.28492421778E+03  0.25500000000E-02 0. -1.
          2   -1    0    0  501    0  0.00000000000E+00 -0.00000000000E+00 -0.14642936159E+04  0.14642936159E+04  0.25500000000E-02 0.  1.
     200001    2    1    2    0    0 -0.39599360118E+02 -0.98989140721E+02 -0.35491508984E+03  0.71632826274E+03  0.61302079875E+03 0.  0.
    5000001    2    3    3    0    0  0.24623810817E+03  0.88132607055E+01 -0.29147371309E+03  0.38837975411E+03  0.71909863719E+02 0.  0.
        -11    1    4    4    0    0  0.13697335035E+03  0.32421227470E+02 -0.15279539061E+03  0.20774808324E+03  0.51100000000E-03 0. -1.
     200002    1    4    4    0    0  0.10926475782E+03 -0.23607966765E+02 -0.13867832248E+03  0.18063167087E+03  0.30000000000E+02 0. -1.
     200000    1    3    3    0    0 -0.28583746829E+03 -0.10780240143E+03 -0.63441376754E+02  0.32794850863E+03  0.10100000000E+03 0. -1.
    -200001    1    1    2    0    0  0.39599360118E+02  0.98989140721E+02 -0.82445430829E+03  0.10328895709E+04  0.61300000000E+03 0.  1.
<mgrwt>
<rscale>  0 0.12918401E+04</rscale>
<asrwt>0</asrwt>
<pdfrwt beam="1">  1        2 0.20918480E+00 0.12918401E+04</pdfrwt>
<pdfrwt beam="2">  1       -2 0.40703460E-01 0.12918401E+04</pdfrwt>
<totfact> 0.85608830E+01</totfact>
</mgrwt>
</event>
<event>
 8    1  0.6972317E-052  0.1790183E+04  0.7818608E-02  0.8711537E-01
         -2   -1    0    0    0  501 -0.00000000000E+00  0.00000000000E+00  0.51455597124E+03  0.51455597125E+03  0.25500000000E-02 0. -1.
          2   -1    0    0  501    0  0.00000000000E+00 -0.00000000000E+00 -0.15570496228E+04  0.15570496228E+04  0.25500000000E-02 0.  1.
     200001    2    1    2    0    0 -0.58879284001E+03 -0.81711731171E+02 -0.21086020984E+03  0.87965886838E+03  0.61317524507E+03 0.  0.
    5000001    2    3    3    0    0 -0.50568795525E+02 -0.24608498407E+03  0.23826298817E+02  0.26161158405E+03  0.68977575538E+02 0.  0.
        -11    1    4    4    0    0 -0.13387441545E+02 -0.63593451766E+02  0.32722068929E+02  0.72760459687E+02  0.51100000000E-03 0. -1.
     200002    1    4    4    0    0 -0.37181353980E+02 -0.18249153230E+03 -0.88957701113E+01  0.18885112436E+03  0.30000000000E+02 0. -1.
     200000    1    3    3    0    0 -0.53822404449E+03  0.16437325290E+03 -0.23468650866E+03  0.61804728434E+03  0.10100000000E+03 0.  1.
    -200001    1    1    2    0    0  0.58879284001E+03  0.81711731171E+02 -0.83163344175E+03  0.11919467257E+04  0.61300000000E+03 0.  1.
<mgrwt>
<rscale>  0 0.17901834E+04</rscale>
<asrwt>0</asrwt>
<pdfrwt beam="1">  1        2 0.22243566E+00 0.17901834E+04</pdfrwt>
<pdfrwt beam="2">  1       -2 0.73507997E-01 0.17901834E+04</pdfrwt>
<totfact> 0.21568364E+01</totfact>
</mgrwt>
</event>
<event>
 8    1  0.6972317E-052  0.1457159E+04  0.7818608E-02  0.8913452E-01
         -2   -1    0    0    0  501 -0.00000000000E+00  0.00000000000E+00  0.29830048897E+03  0.29830048899E+03  0.25500000000E-02 0. -1.
          2   -1    0    0  501    0  0.00000000000E+00 -0.00000000000E+00 -0.17795086068E+04  0.17795086068E+04  0.25500000000E-02 0.  1.
     200001    2    1    2    0    0 -0.34438201613E+03  0.89597861854E+02 -0.50207035220E+03  0.86904670641E+03  0.61362919543E+03 0.  0.
    5000001    2    3    3    0    0 -0.10262409738E+03  0.32851930833E+03 -0.28071948715E+03  0.45104245485E+03  0.78608042256E+02 0.  0.
        -11    1    4    4    0    0 -0.35766845488E+02  0.15598860783E+03 -0.16935654198E+03  0.23300933741E+03  0.51100000000E-03 0. -1.
     200002    1    4    4    0    0 -0.66857251892E+02  0.17253070050E+03 -0.11136294517E+03  0.21803311744E+03  0.30000000000E+02 0.  1.
     200000    1    3    3    0    0 -0.24175791875E+03 -0.23892144647E+03 -0.22135086505E+03  0.41800425156E+03  0.10100000000E+03 0. -1.
    -200001    1    1    2    0    0  0.34438201613E+03 -0.89597861854E+02 -0.97913776563E+03  0.12087623894E+04  0.61300000000E+03 0.  1.
<mgrwt>
<rscale>  0 0.14571593E+04</rscale>
<asrwt>0</asrwt>
<pdfrwt beam="1">  1        2 0.25421551E+00 0.14571593E+04</pdfrwt>
<pdfrwt beam="2">  1       -2 0.42614356E-01 0.14571593E+04</pdfrwt>
<totfact> 0.52820997E+01</totfact>
</mgrwt>
</event>
<event>
 8    1  0.6972317E-052  0.1327391E+04  0.7818608E-02  0.9008122E-01
          2   -1    0    0  501    0  0.00000000000E+00  0.00000000000E+00  0.29783151243E+04  0.29783151244E+04  0.25500000000E-02 0.  1.
         -2   -1    0    0    0  501 -0.00000000000E+00 -0.00000000000E+00 -0.14789962950E+03  0.14789962953E+03  0.25500000000E-02 0. -1.
     200001    2    1    2    0    0  0.11093493965E+03 -0.20039109653E+03  0.16758553530E+04  0.17990970976E+04  0.61302206330E+03 0.  0.
    5000001    2    3    3    0    0  0.27930337903E+03 -0.17993204276E+01  0.12933715053E+04  0.13255134000E+04  0.78500367619E+02 0.  0.
        -11    1    4    4    0    0  0.92706450578E+01  0.15228862361E+02  0.87035790439E+02  0.88843074723E+02  0.51100000000E-03 0. -1.
     200002    1    4    4    0    0  0.27003273397E+03 -0.17028182789E+02  0.12063357149E+04  0.12366703253E+04  0.30000000000E+02 0. -1.
     200000    1    3    3    0    0 -0.16836843938E+03 -0.19859177611E+03  0.38248384769E+03  0.47358369763E+03  0.10100000000E+03 0. -1.
    -200001    1    1    2    0    0 -0.11093493965E+03  0.20039109653E+03  0.11545601419E+04  0.13271176563E+04  0.61300000000E+03 0.  1.
<mgrwt>
<rscale>  0 0.13273910E+04</rscale>
<asrwt>0</asrwt>
<pdfrwt beam="1">  1        2 0.42547361E+00 0.13273910E+04</pdfrwt>
<pdfrwt beam="2">  1       -2 0.21128517E-01 0.13273910E+04</pdfrwt>
<totfact> 0.46426426E+01</totfact>
</mgrwt>
</event>
<event>
 8    1  0.6972317E-052  0.1682322E+04  0.7818608E-02  0.8771512E-01
         -2   -1    0    0    0  501 -0.00000000000E+00  0.00000000000E+00  0.45974642847E+03  0.45974642847E+03  0.25500000000E-02 0. -1.
          2   -1    0    0  501    0  0.00000000000E+00 -0.00000000000E+00 -0.15390039909E+04  0.15390039909E+04  0.25500000000E-02 0.  1.
     200001    2    1    2    0    0  0.32034560879E+03  0.20967062711E+03 -0.28879714387E+02  0.72374229995E+03  0.61350289151E+03 0.  0.
    5000001    2    3    3    0    0  0.24827813722E+03  0.22951019544E+03  0.24179076908E+03  0.42532842703E+03  0.90136183631E+02 0.  0.
        -11    1    4    4    0    0  0.79786049474E+02  0.57737146543E+02  0.11598310099E+03  0.15215607611E+03  0.51100000000E-03 0. -1.
     200002    1    4    4    0    0  0.16849208775E+03  0.17177304889E+03  0.12580766809E+03  0.27317235092E+03  0.30000000000E+02 0. -1.
     200000    1    3    3    0    0  0.72067471566E+02 -0.19839568330E+02 -0.27067048346E+03  0.29841387291E+03  0.10100000000E+03 0.  1.
    -200001    1    1    2    0    0 -0.32034560879E+03 -0.20967062711E+03 -0.10503778480E+04  0.12750081194E+04  0.61300000000E+03 0.  1.
<mgrwt>
<rscale>  0 0.16823217E+04</rscale>
<asrwt>0</asrwt>
<pdfrwt beam="1">  1        2 0.21985771E+00 0.16823217E+04</pdfrwt>
<pdfrwt beam="2">  1       -2 0.65678062E-01 0.16823217E+04</pdfrwt>
<totfact> 0.28418711E+01</totfact>
</mgrwt>
</event>
<event>
 8    1  0.6972317E-052  0.1418490E+04  0.7818608E-02  0.8940542E-01
         -2   -1    0    0    0  501 -0.00000000000E+00  0.00000000000E+00  0.34428550480E+03  0.34428550481E+03  0.25500000000E-02 0. -1.
          2   -1    0    0  501    0  0.00000000000E+00 -0.00000000000E+00 -0.14610796333E+04  0.14610796333E+04  0.25500000000E-02 0.  1.
     200001    2    1    2    0    0  0.32002478158E+03 -0.98244239472E+02 -0.71556269372E+03  0.99986935558E+03  0.61289556057E+03 0.  0.
    5000001    2    3    3    0    0  0.25628612562E+03 -0.30629978636E+03 -0.62136866181E+03  0.74214228579E+03  0.71930669141E+02 0.  0.
        -11    1    4    4    0    0  0.27948109104E+02 -0.85452867823E+01 -0.50232545569E+02  0.58115637855E+02  0.51100000000E-03 0. -1.
     200002    1    4    4    0    0  0.22833801651E+03 -0.29775449958E+03 -0.57113611624E+03  0.68402664793E+03  0.30000000000E+02 0. -1.
     200000    1    3    3    0    0  0.63738655961E+02  0.20805554689E+03 -0.94194031907E+02  0.25772706979E+03  0.10100000000E+03 0. -1.
    -200001    1    1    2    0    0 -0.32002478158E+03  0.98244239472E+02 -0.40123143475E+03  0.80549578251E+03  0.61300000000E+03 0. -1.
<mgrwt>
<rscale>  0 0.14184901E+04</rscale>
<asrwt>0</asrwt>
<pdfrwt beam="1">  1        2 0.20872566E+00 0.14184901E+04</pdfrwt>
<pdfrwt beam="2">  1       -2 0.49183644E-01 0.14184901E+04</pdfrwt>
<totfact> 0.58387759E+01</totfact>
</mgrwt>
</event>
<event>
 8    1  0.6972317E-052  0.1332711E+04  0.7818608E-02  0.9004020E-01
         -2   -1    0    0    0  501 -0.00000000000E+00  0.00000000000E+00  0.22144530427E+03  0.22144530429E+03  0.25500000000E-02 0. -1.
          2   -1    0    0  501    0  0.00000000000E+00 -0.00000000000E+00 -0.20051422854E+04  0.20051422854E+04  0.25500000000E-02 0.  1.
     200001    2    1    2    0    0  0.62948878029E+02  0.24055179010E+03 -0.76464000437E+03  0.10116497942E+04  0.61394889437E+03 0.  0.
    5000001    2    3    3    0    0  0.26862774518E+03  0.99016733772E+02 -0.61384901984E+03  0.70298348641E+03  0.18817540741E+03 0.  0.
        -11    1    4    4    0    0  0.16741522279E+03  0.11764039189E+03 -0.24673340166E+03  0.32053781387E+03  0.51100000000E-03 0. -1.
     200002    1    4    4    0    0  0.10121252239E+03 -0.18623658114E+02 -0.36711561819E+03  0.38244567254E+03  0.30000000000E+02 0. -1.
     200000    1    3    3    0    0 -0.20567886715E+03  0.14153505633E+03 -0.15079098453E+03  0.30866630781E+03  0.10100000000E+03 0.  1.
    -200001    1    1    2    0    0 -0.62948878029E+02 -0.24055179010E+03 -0.10190569767E+04  0.12149377954E+04  0.61300000000E+03 0.  1.
<mgrwt>
<rscale>  0 0.13327105E+04</rscale>
<asrwt>0</asrwt>
<pdfrwt beam="1">  1        2 0.28644889E+00 0.13327105E+04</pdfrwt>
<pdfrwt beam="2">  1       -2 0.31635045E-01 0.13327105E+04</pdfrwt>
<totfact> 0.72447296E+01</totfact>
</mgrwt>
</event>
<event>
 8    1  0.6972317E-052  0.1351008E+04  0.7818608E-02  0.8990066E-01
         -2   -1    0    0    0  501 -0.00000000000E+00  0.00000000000E+00  0.25550148876E+03  0.25550148878E+03  0.25500000000E-02 0. -1.
          2   -1    0    0  501    0  0.00000000000E+00 -0.00000000000E+00 -0.17859207205E+04  0.17859207205E+04  0.25500000000E-02 0.  1.
     200001    2    1    2    0    0 -0.14428149329E+03  0.23306182714E+03 -0.87641308491E+03  0.11040706185E+04  0.61297395602E+03 0.  0.
    5000001    2    3    3    0    0  0.19911870411E+03  0.21597238991E+03 -0.36797060213E+03  0.48203323805E+03  0.10325379908E+03 0.  0.
        -11    1    4    4    0    0  0.62287225374E+01 -0.77935093497E+01 -0.32598805640E+02  0.34091317104E+02  0.51100000000E-03 0. -1.
     200002    1    4    4    0    0  0.19288998157E+03  0.22376589926E+03 -0.33537179649E+03  0.44794192095E+03  0.30000000000E+02 0. -1.
     200000    1    3    3    0    0 -0.34340019739E+03  0.17089437232E+02 -0.50844248278E+03  0.62203738050E+03  0.10100000000E+03 0. -1.
    -200001    1    1    2    0    0  0.14428149329E+03 -0.23306182714E+03 -0.65400614684E+03  0.93735159075E+03  0.61300000000E+03 0. -1.
<mgrwt>
<rscale>  0 0.13510076E+04</rscale>
<asrwt>0</asrwt>
<pdfrwt beam="1">  1        2 0.25513152E+00 0.13510076E+04</pdfrwt>
<pdfrwt beam="2">  1       -2 0.36500214E-01 0.13510076E+04</pdfrwt>
<totfact> 0.71463748E+01</totfact>
</mgrwt>
</event>
<event>
 8    1  0.6972317E-052  0.1406583E+04  0.7818608E-02  0.8949067E-01
          2   -1    0    0  501    0  0.00000000000E+00  0.00000000000E+00  0.17281664199E+04  0.17281664199E+04  0.25500000000E-02 0.  1.
         -2   -1    0    0    0  501 -0.00000000000E+00 -0.00000000000E+00 -0.28621013360E+03  0.28621013361E+03  0.25500000000E-02 0. -1.
     200001    2    1    2    0    0 -0.39448120894E+02  0.34266947152E+03  0.72424728220E+03  0.10094617633E+04  0.61278087835E+03 0.  0.
    5000001    2    3    3    0    0  0.63613221608E+02 -0.88207600783E+02  0.46298008101E+03  0.48530697495E+03  0.96669962864E+02 0.  0.
        -11    1    4    4    0    0  0.15347694871E+02  0.18764575023E+02  0.69699700919E+02  0.73795049442E+02  0.51100000000E-03 0. -1.
     200002    1    4    4    0    0  0.48265526737E+02 -0.10697217581E+03  0.39328038009E+03  0.41151192550E+03  0.30000000000E+02 0. -1.
     200000    1    3    3    0    0 -0.10306134250E+03  0.43087707231E+03  0.26126720119E+03  0.52415478837E+03  0.10100000000E+03 0. -1.
    -200001    1    1    2    0    0  0.39448120894E+02 -0.34266947152E+03  0.71770900407E+03  0.10049147902E+04  0.61300000000E+03 0.  1.
<mgrwt>
<rscale>  0 0.14065827E+04</rscale>
<asrwt>0</asrwt>
<pdfrwt beam="1">  1        2 0.24688092E+00 0.14065827E+04</pdfrwt>
<pdfrwt beam="2">  1       -2 0.40887162E-01 0.14065827E+04</pdfrwt>
<totfact> 0.61154946E+01</totfact>
</mgrwt>
</event>
<event>
 8    1  0.6972317E-052  0.1283436E+04  0.7818608E-02  0.9042805E-01
          2   -1    0    0  501    0  0.00000000000E+00  0.00000000000E+00  0.77103824795E+03  0.77103824796E+03  0.25500000000E-02 0.  1.
         -2   -1    0    0    0  501 -0.00000000000E+00 -0.00000000000E+00 -0.53408741910E+03  0.53408741910E+03  0.25500000000E-02 0. -1.
     200001    2    1    2    0    0 -0.17037735097E+03 -0.36307368638E+02  0.18402725374E+03  0.66565981845E+03  0.61554065425E+03 0.  0.
    5000001    2    3    3    0    0 -0.10257181804E+03 -0.30274858977E+03  0.14516756053E+03  0.37019477759E+03  0.11744303412E+03 0.  0.
        -11    1    4    4    0    0 -0.60114434878E+02 -0.15274403984E+03  0.14881694553E+02  0.16482096900E+03  0.51100000000E-03 0. -1.
     200002    1    4    4    0    0 -0.42457383160E+02 -0.15000454992E+03  0.13028586598E+03  0.20537380859E+03  0.30000000000E+02 0. -1.
     200000    1    3    3    0    0 -0.67805532930E+02  0.26644122113E+03  0.38859693206E+02  0.29546504086E+03  0.10100000000E+03 0.  1.
    -200001    1    1    2    0    0  0.17037735097E+03  0.36307368638E+02  0.52923575118E+02  0.63946584861E+03  0.61300000000E+03 0.  1.
<mgrwt>
<rscale>  0 0.12834357E+04</rscale>
<asrwt>0</asrwt>
<pdfrwt beam="1">  1        2 0.11014832E+00 0.12834357E+04</pdfrwt>
<pdfrwt beam="2">  1       -2 0.76298203E-01 0.12834357E+04</pdfrwt>
<totfact> 0.60203536E+01</totfact>
</mgrwt>
</event>
<event>
 8    1  0.6972317E-052  0.1483044E+04  0.7818608E-02  0.8895807E-01
         -2   -1    0    0    0  501 -0.00000000000E+00  0.00000000000E+00  0.42088029816E+03  0.42088029816E+03  0.25500000000E-02 0. -1.
          2   -1    0    0  501    0  0.00000000000E+00 -0.00000000000E+00 -0.13064404110E+04  0.13064404110E+04  0.25500000000E-02 0.  1.
     200001    2    1    2    0    0  0.29397625073E+03 -0.14278260255E+03 -0.14060076240E+03  0.70872248543E+03  0.61295193889E+03 0.  0.
    5000001    2    3    3    0    0  0.38899308389E+03  0.95461998551E+02 -0.26816505695E+02  0.41050017639E+03  0.85805928477E+02 0.  0.
        -11    1    4    4    0    0  0.59258028067E+02  0.21450320040E+02  0.24022243112E+02  0.67444038169E+02  0.51100000000E-03 0. -1.
     200002    1    4    4    0    0  0.32973505582E+03  0.74011678512E+02 -0.50838748807E+02  0.34305613822E+03  0.30000000000E+02 0. -1.
     200000    1    3    3    0    0 -0.95016833159E+02 -0.23824460110E+03 -0.11378425671E+03  0.29822230904E+03  0.10100000000E+03 0.  1.
    -200001    1    1    2    0    0 -0.29397625073E+03  0.14278260255E+03 -0.74495935044E+03  0.10185982237E+04  0.61300000000E+03 0.  1.
<mgrwt>
<rscale>  0 0.14830442E+04</rscale>
<asrwt>0</asrwt>
<pdfrwt beam="1">  1        2 0.18663434E+00 0.14830442E+04</pdfrwt>
<pdfrwt beam="2">  1       -2 0.60125758E-01 0.14830442E+04</pdfrwt>
<totfact> 0.46515187E+01</totfact>
</mgrwt>
</event>
<event>
 8    1  0.6972317E-052  0.1412114E+04  0.7818608E-02  0.8945096E-01
         -2   -1    0    0    0  501 -0.00000000000E+00  0.00000000000E+00  0.14010418270E+04  0.14010418270E+04  0.25500000000E-02 0. -1.
          2   -1    0    0  501    0  0.00000000000E+00 -0.00000000000E+00 -0.35581857037E+03  0.35581857038E+03  0.25500000000E-02 0.  1.
     200001    2    1    2    0    0 -0.91138160402E+01 -0.22674753596E+03  0.85465975006E+03  0.10759926006E+04  0.61304101117E+03 0.  0.
    5000001    2    3    3    0    0 -0.11778486927E+03  0.79223080765E+02  0.14928519700E+03  0.29293342258E+03  0.20826509084E+03 0.  0.
        -11    1    4    4    0    0  0.30844692601E+02  0.16266444785E+01  0.11514611616E+03  0.11921689939E+03  0.51100000000E-03 0. -1.
     200002    1    4    4    0    0 -0.14862956187E+03  0.77596436287E+02  0.34139080840E+02  0.17371652318E+03  0.30000000000E+02 0. -1.
     200000    1    3    3    0    0  0.10867105323E+03 -0.30597061673E+03  0.70537455306E+03  0.78305917798E+03  0.10100000000E+03 0. -1.
    -200001    1    1    2    0    0  0.91138160402E+01  0.22674753596E+03  0.19056350656E+03  0.68086779682E+03  0.61300000000E+03 0.  1.
<mgrwt>
<rscale>  0 0.14121143E+04</rscale>
<asrwt>0</asrwt>
<pdfrwt beam="1">  1        2 0.50831225E-01 0.14121143E+04</pdfrwt>
<pdfrwt beam="2">  1       -2 0.20014883E+00 0.14121143E+04</pdfrwt>
<totfact> 0.12733432E+01</totfact>
</mgrwt>
</event>
<event>
 8    1  0.6972317E-052  0.1279453E+04  0.7818608E-02  0.9046020E-01
         -2   -1    0    0    0  501 -0.00000000000E+00  0.00000000000E+00  0.23567798623E+03  0.23567798625E+03  0.25500000000E-02 0. -1.
          2   -1    0    0  501    0  0.00000000000E+00 -0.00000000000E+00 -0.17364783187E+04  0.17364783187E+04  0.25500000000E-02 0.  1.
     200001    2    1    2    0    0 -0.53908390067E+02  0.11571437157E+03 -0.95265178896E+03  0.11399713759E+04  0.61293831389E+03 0.  0.
    5000001    2    3    3    0    0  0.30501277621E+02  0.66456174162E+02 -0.98815824182E+03  0.99501251899E+03  0.90809972254E+02 0.  0.
        -11    1    4    4    0    0 -0.22866758823E+00  0.43672704200E+02 -0.78124899195E+03  0.78246875005E+03  0.51100000000E-03 0. -1.
     200002    1    4    4    0    0  0.30729945209E+02  0.22783469963E+02 -0.20690924987E+03  0.21254376895E+03  0.30000000000E+02 0.  1.
     200000    1    3    3    0    0 -0.84409667688E+02  0.49258197411E+02  0.35506452857E+02  0.14495885694E+03  0.10100000000E+03 0. -1.
    -200001    1    1    2    0    0  0.53908390067E+02 -0.11571437157E+03 -0.54814854347E+03  0.83218492897E+03  0.61300000000E+03 0. -1.
<mgrwt>
<rscale>  0 0.12794526E+04</rscale>
<asrwt>0</asrwt>
<pdfrwt beam="1">  1        2 0.24806832E+00 0.12794526E+04</pdfrwt>
<pdfrwt beam="2">  1       -2 0.33668285E-01 0.12794526E+04</pdfrwt>
<totfact> 0.88898279E+01</totfact>
</mgrwt>
</event>
<event>
 8    1  0.6972317E-052  0.1620621E+04  0.7818608E-02  0.8807979E-01
          2   -1    0    0  501    0  0.00000000000E+00  0.00000000000E+00  0.11105342484E+04  0.11105342484E+04  0.25500000000E-02 0.  1.
         -2   -1    0    0    0  501 -0.00000000000E+00 -0.00000000000E+00 -0.59124991451E+03  0.59124991452E+03  0.25500000000E-02 0. -1.
     200001    2    1    2    0    0 -0.35590726670E+03 -0.22189401125E+03  0.60031104228E+03  0.95462871574E+03  0.61240158615E+03 0.  0.
    5000001    2    3    3    0    0 -0.30299532563E+03 -0.40594424260E+02  0.65970826660E+03  0.73237155837E+03  0.87744104377E+02 0.  0.
        -11    1    4    4    0    0 -0.12305639625E+02  0.14672014506E+02  0.59707674419E+02  0.62703294658E+02  0.51100000000E-03 0. -1.
     200002    1    4    4    0    0 -0.29068968601E+03 -0.55266438766E+02  0.60000059218E+03  0.66966826371E+03  0.30000000000E+02 0. -1.
     200000    1    3    3    0    0 -0.52911941065E+02 -0.18129958699E+03 -0.59397224311E+02  0.22225715738E+03  0.10100000000E+03 0.  1.
    -200001    1    1    2    0    0  0.35590726670E+03  0.22189401125E+03 -0.81026708427E+02  0.74715544714E+03  0.61300000000E+03 0. -1.
<mgrwt>
<rscale>  0 0.16206212E+04</rscale>
<asrwt>0</asrwt>
<pdfrwt beam="1">  1        2 0.15864775E+00 0.16206212E+04</pdfrwt>
<pdfrwt beam="2">  1       -2 0.84464273E-01 0.16206212E+04</pdfrwt>
<totfact> 0.28257750E+01</totfact>
</mgrwt>
</event>
<event>
 8    1  0.6972317E-052  0.1355428E+04  0.7818608E-02  0.8986730E-01
          2   -1    0    0  501    0  0.00000000000E+00  0.00000000000E+00  0.32014840856E+04  0.32014840856E+04  0.25500000000E-02 0.  1.
         -2   -1    0    0    0  501 -0.00000000000E+00 -0.00000000000E+00 -0.14346345064E+03  0.14346345066E+03  0.25500000000E-02 0. -1.
     200001    2    1    2    0    0 -0.47697879627E+02 -0.24524000513E+03  0.11715740508E+04  0.13457308239E+04  0.61317855981E+03 0.  0.
    5000001    2    3    3    0    0 -0.24623012689E+03 -0.30035068215E+03  0.84786013206E+03  0.94893876114E+03  0.17543705769E+03 0.  0.
        -11    1    4    4    0    0 -0.26258440940E+03 -0.28526009013E+03  0.75217876989E+03  0.84622502501E+03  0.51100000000E-03 0. -1.
     200002    1    4    4    0    0  0.16354282507E+02 -0.15090592012E+02  0.95681362169E+02  0.10271373613E+03  0.30000000000E+02 0. -1.
     200000    1    3    3    0    0  0.19853224727E+03  0.55110677016E+02  0.32371391872E+03  0.39679206280E+03  0.10100000000E+03 0. -1.
    -200001    1    1    2    0    0  0.47697879627E+02  0.24524000513E+03  0.18864465842E+04  0.19992167123E+04  0.61300000000E+03 0.  1.
<mgrwt>
<rscale>  0 0.13554275E+04</rscale>
<asrwt>0</asrwt>
<pdfrwt beam="1">  1        2 0.45735489E+00 0.13554275E+04</pdfrwt>
<pdfrwt beam="2">  1       -2 0.20494778E-01 0.13554275E+04</pdfrwt>
<totfact> 0.36588139E+01</totfact>
</mgrwt>
</event>
<event>
 8    1  0.6972317E-052  0.1402038E+04  0.7818608E-02  0.8952345E-01
          2   -1    0    0  501    0  0.00000000000E+00  0.00000000000E+00  0.42311014283E+03  0.42311014284E+03  0.25500000000E-02 0.  1.
         -2   -1    0    0    0  501 -0.00000000000E+00 -0.00000000000E+00 -0.11614645581E+04  0.11614645581E+04  0.25500000000E-02 0. -1.
     200001    2    1    2    0    0 -0.36810613574E+02 -0.13977076525E+03 -0.71690198855E+03  0.95440004686E+03  0.61322108588E+03 0.  0.
    5000001    2    3    3    0    0  0.14351187264E+03 -0.99128967016E+02  0.17035982385E+02  0.19083348134E+03  0.75531339272E+02 0.  0.
        -11    1    4    4    0    0  0.38260023958E+02 -0.59969229472E+02  0.22088072385E+02  0.74485037817E+02  0.51100000000E-03 0. -1.
     200002    1    4    4    0    0  0.10525184868E+03 -0.39159737544E+02 -0.50520899995E+01  0.11634844352E+03  0.30000000000E+02 0. -1.
     200000    1    3    3    0    0 -0.18032248622E+03 -0.40641798232E+02 -0.73393797094E+03  0.76356656552E+03  0.10100000000E+03 0. -1.
    -200001    1    1    2    0    0  0.36810613574E+02  0.13977076525E+03 -0.21452426752E+02  0.63017465413E+03  0.61300000000E+03 0.  1.
<mgrwt>
<rscale>  0 0.14020377E+04</rscale>
<asrwt>0</asrwt>
<pdfrwt beam="1">  1        2 0.60444307E-01 0.14020377E+04</pdfrwt>
<pdfrwt beam="2">  1       -2 0.16592351E+00 0.14020377E+04</pdfrwt>
<totfact> 0.18023338E+01</totfact>
</mgrwt>
</event>
<event>
 8    1  0.6972317E-052  0.1504988E+04  0.7818608E-02  0.8881143E-01
         -2   -1    0    0    0  501 -0.00000000000E+00  0.00000000000E+00  0.64723203293E+03  0.64723203294E+03  0.25500000000E-02 0. -1.
          2   -1    0    0  501    0  0.00000000000E+00 -0.00000000000E+00 -0.87487486648E+03  0.87487486648E+03  0.25500000000E-02 0.  1.
     200001    2    1    2    0    0 -0.42165953968E+03 -0.32541537315E+02 -0.39494187071E+01  0.74450580445E+03  0.61271329013E+03 0.  0.
    5000001    2    3    3    0    0  0.92796996188E+02  0.15080939811E+03  0.17443668201E+02  0.18868051087E+03  0.62779746449E+02 0.  0.
        -11    1    4    4    0    0  0.10277263039E+02  0.21365956061E+02  0.21797754349E+02  0.32206650072E+02  0.51100000000E-03 0. -1.
     200002    1    4    4    0    0  0.82519733149E+02  0.12944344205E+03 -0.43540861481E+01  0.15647386080E+03  0.30000000000E+02 0. -1.
     200000    1    3    3    0    0 -0.51445653587E+03 -0.18335093542E+03 -0.21393086908E+02  0.55582529358E+03  0.10100000000E+03 0.  1.
    -200001    1    1    2    0    0  0.42165953968E+03  0.32541537315E+02 -0.22369341484E+03  0.77760109497E+03  0.61300000000E+03 0.  1.
<mgrwt>
<rscale>  0 0.15049878E+04</rscale>
<asrwt>0</asrwt>
<pdfrwt beam="1">  1        2 0.12498212E+00 0.15049878E+04</pdfrwt>
<pdfrwt beam="2">  1       -2 0.92461720E-01 0.15049878E+04</pdfrwt>
<totfact> 0.32465569E+01</totfact>
</mgrwt>
</event>
<event>
 8    1  0.6972317E-052  0.1962091E+04  0.7818608E-02  0.8624552E-01
          2   -1    0    0  501    0  0.00000000000E+00  0.00000000000E+00  0.30277227588E+04  0.30277227588E+04  0.25500000000E-02 0.  1.
         -2   -1    0    0    0  501 -0.00000000000E+00 -0.00000000000E+00 -0.31787940516E+03  0.31787940517E+03  0.25500000000E-02 0. -1.
     200001    2    1    2    0    0  0.19547039027E+03 -0.66340776528E+03  0.19169053192E+04  0.21278836977E+04  0.61240876214E+03 0.  0.
    5000001    2    3    3    0    0 -0.16423066760E+03 -0.29111670186E+03  0.10664556001E+04  0.11271583550E+04  0.14641640610E+03 0.  0.
        -11    1    4    4    0    0 -0.11635035774E+03 -0.20037603624E+03  0.50502443326E+03  0.55564164696E+03  0.51100000000E-03 0. -1.
     200002    1    4    4    0    0 -0.47880309866E+02 -0.90740665621E+02  0.56143116685E+03  0.57151670805E+03  0.30000000000E+02 0. -1.
     200000    1    3    3    0    0  0.35970105787E+03 -0.37229106342E+03  0.85044971906E+03  0.10007253427E+04  0.10100000000E+03 0. -1.
    -200001    1    1    2    0    0 -0.19547039027E+03  0.66340776528E+03  0.79293803447E+03  0.12177184662E+04  0.61300000000E+03 0. -1.
<mgrwt>
<rscale>  0 0.19620914E+04</rscale>
<asrwt>0</asrwt>
<pdfrwt beam="1">  1        2 0.43253181E+00 0.19620914E+04</pdfrwt>
<pdfrwt beam="2">  1       -2 0.45411345E-01 0.19620914E+04</pdfrwt>
<totfact> 0.97979025E+00</totfact>
</mgrwt>
</event>
<event>
 8    1  0.6972317E-052  0.1630390E+04  0.7818608E-02  0.8802093E-01
         -2   -1    0    0    0  501 -0.00000000000E+00  0.00000000000E+00  0.27495946215E+03  0.27495946216E+03  0.25500000000E-02 0.  1.
          2   -1    0    0  501    0  0.00000000000E+00 -0.00000000000E+00 -0.24168751333E+04  0.24168751333E+04  0.25500000000E-02 0. -1.
     200001    2    1    2    0    0 -0.41675688774E+03  0.29068575883E+03 -0.13616493921E+04  0.15770391075E+04  0.61219177189E+03 0.  0.
    5000001    2    3    3    0    0 -0.46923343665E+03  0.41225164296E+03 -0.10752446309E+04  0.12457375234E+04  0.74696222668E+02 0.  0.
        -11    1    4    4    0    0 -0.38318578741E+03  0.33417361564E+03 -0.89104491658E+03  0.10258968742E+04  0.51100000000E-03 0. -1.
     200002    1    4    4    0    0 -0.86047649237E+02  0.78078027318E+02 -0.18419971429E+03  0.21984064919E+03  0.30000000000E+02 0.  1.
     200000    1    3    3    0    0  0.52476548910E+02 -0.12156588414E+03 -0.28640476124E+03  0.33130158411E+03  0.10100000000E+03 0. -1.
    -200001    1    1    2    0    0  0.41675688774E+03 -0.29068575883E+03 -0.78026627904E+03  0.11147954880E+04  0.61300000000E+03 0.  1.
<mgrwt>
<rscale>  0 0.16303898E+04</rscale>
<asrwt>0</asrwt>
<pdfrwt beam="1">  1        2 0.34526786E+00 0.16303898E+04</pdfrwt>
<pdfrwt beam="2">  1       -2 0.39279925E-01 0.16303898E+04</pdfrwt>
<totfact> 0.28663394E+01</totfact>
</mgrwt>
</event>
<event>
 8    1  0.6972317E-052  0.1548825E+04  0.7818608E-02  0.8852619E-01
          2   -1    0    0  501    0  0.00000000000E+00  0.00000000000E+00  0.21773791321E+04  0.21773791321E+04  0.25500000000E-02 0.  1.
         -2   -1    0    0    0  501 -0.00000000000E+00 -0.00000000000E+00 -0.27542966669E+03  0.27542966670E+03  0.25500000000E-02 0. -1.
     200001    2    1    2    0    0 -0.21313110857E+03 -0.41260610593E+03  0.80724408464E+03  0.11149681735E+04  0.61305982381E+03 0.  0.
    5000001    2    3    3    0    0 -0.48503925969E+01  0.11522622428E+03  0.29636293150E+02  0.14705149170E+03  0.86285701412E+02 0.  0.
        -11    1    4    4    0    0  0.18776146251E+02  0.95806589293E+02  0.52817616814E+01  0.97771893848E+02  0.51100000000E-03 0. -1.
     200002    1    4    4    0    0 -0.23626538848E+02  0.19419634988E+02  0.24354531469E+02  0.49279597848E+02  0.30000000000E+02 0. -1.
     200000    1    3    3    0    0 -0.20828071597E+03 -0.52783233021E+03  0.77760779148E+03  0.96791668177E+03  0.10100000000E+03 0.  1.
    -200001    1    1    2    0    0  0.21313110857E+03  0.41260610593E+03  0.10947053807E+04  0.13378406253E+04  0.61300000000E+03 0.  1.
<mgrwt>
<rscale>  0 0.15488251E+04</rscale>
<asrwt>0</asrwt>
<pdfrwt beam="1">  1        2 0.31105418E+00 0.15488251E+04</pdfrwt>
<pdfrwt beam="2">  1       -2 0.39347092E-01 0.15488251E+04</pdfrwt>
<totfact> 0.38276825E+01</totfact>
</mgrwt>
</event>
<event>
 8    1  0.6972317E-052  0.2396116E+04  0.7818608E-02  0.8440959E-01
          2   -1    0    0  501    0  0.00000000000E+00  0.00000000000E+00  0.67637913271E+03  0.67637913272E+03  0.25500000000E-02 0.  1.
         -2   -1    0    0    0  501 -0.00000000000E+00 -0.00000000000E+00 -0.21220981609E+04  0.21220981609E+04  0.25500000000E-02 0. -1.
     200001    2    1    2    0    0  0.68470303502E+03  0.82256784228E+02  0.16965645735E+03  0.93815705666E+03  0.61300156993E+03 0.  0.
    5000001    2    3    3    0    0  0.88099073072E+02 -0.83038702109E+02  0.25279998704E+03  0.30540692293E+03  0.12127935686E+03 0.  0.
        -11    1    4    4    0    0  0.69495601761E+02 -0.82176229058E+02  0.24725716728E+03  0.26966400957E+03  0.51100000000E-03 0. -1.
     200002    1    4    4    0    0  0.18603471310E+02 -0.86247305147E+00  0.55428197667E+01  0.35742913361E+02  0.30000000000E+02 0.  1.
     200000    1    3    3    0    0  0.59660396194E+03  0.16529548634E+03 -0.83143529691E+02  0.63275013373E+03  0.10100000000E+03 0.  1.
    -200001    1    1    2    0    0 -0.68470303502E+03 -0.82256784228E+02 -0.16153754855E+04  0.18603202369E+04  0.61300000000E+03 0. -1.
<mgrwt>
<rscale>  0 0.23961160E+04</rscale>
<asrwt>0</asrwt>
<pdfrwt beam="1">  1        2 0.96625592E-01 0.23961160E+04</pdfrwt>
<pdfrwt beam="2">  1       -2 0.30315688E+00 0.23961160E+04</pdfrwt>
<totfact> 0.12900658E+00</totfact>
</mgrwt>
</event>
<event>
 8    1  0.6972317E-052  0.2404571E+04  0.7818608E-02  0.8437794E-01
         -2   -1    0    0    0  501 -0.00000000000E+00  0.00000000000E+00  0.25623371429E+04  0.25623371429E+04  0.25500000000E-02 0. -1.
          2   -1    0    0  501    0  0.00000000000E+00 -0.00000000000E+00 -0.56412984900E+03  0.56412984900E+03  0.25500000000E-02 0.  1.
     200001    2    1    2    0    0  0.22226276492E+03 -0.22108819431E+03  0.22808264068E+04  0.23822067623E+04  0.61193074298E+03 0.  0.
    5000001    2    3    3    0    0 -0.59601826599E+01 -0.51497512359E+02  0.18678266223E+04  0.18707221240E+04  0.90207853542E+02 0.  0.
        -11    1    4    4    0    0  0.28970441795E+02 -0.66488217096E+01  0.10318605484E+04  0.10322885665E+04  0.51100000000E-03 0. -1.
     200002    1    4    4    0    0 -0.34930624455E+02 -0.44848690649E+02  0.83596607394E+03  0.83843355751E+03  0.30000000000E+02 0.  1.
     200000    1    3    3    0    0  0.22822294758E+03 -0.16959068195E+03  0.41299978446E+03  0.51148463826E+03  0.10100000000E+03 0.  1.
    -200001    1    1    2    0    0 -0.22226276492E+03  0.22108819431E+03 -0.28261911290E+03  0.74426022956E+03  0.61300000000E+03 0.  1.
<mgrwt>
<rscale>  0 0.24045714E+04</rscale>
<asrwt>0</asrwt>
<pdfrwt beam="1">  1        2 0.80589977E-01 0.24045714E+04</pdfrwt>
<pdfrwt beam="2">  1       -2 0.36604817E+00 0.24045714E+04</pdfrwt>
<totfact> 0.64885656E-01</totfact>
</mgrwt>
</event>
<event>
 8    1  0.6972317E-052  0.1504590E+04  0.7818608E-02  0.8881407E-01
         -2   -1    0    0    0  501 -0.00000000000E+00  0.00000000000E+00  0.33610599656E+03  0.33610599657E+03  0.25500000000E-02 0. -1.
          2   -1    0    0  501    0  0.00000000000E+00 -0.00000000000E+00 -0.16838363475E+04  0.16838363475E+04  0.25500000000E-02 0.  1.
     200001    2    1    2    0    0 -0.18879803033E+03  0.35267882603E+03 -0.90730768595E+03  0.11656776460E+04  0.61283773279E+03 0.  0.
    5000001    2    3    3    0    0 -0.13750376768E+03  0.29362555265E+03 -0.96867150288E+03  0.10239564108E+04  0.70985909701E+02 0.  0.
        -11    1    4    4    0    0 -0.63340207988E+02  0.77192260302E+02 -0.25235188892E+03  0.27138920914E+03  0.51100000000E-03 0. -1.
     200002    1    4    4    0    0 -0.74163559696E+02  0.21643329234E+03 -0.71631961396E+03  0.75256720163E+03  0.30000000000E+02 0. -1.
     200000    1    3    3    0    0 -0.51294262642E+02  0.59053273381E+02  0.61363816927E+02  0.14172123519E+03  0.10100000000E+03 0. -1.
    -200001    1    1    2    0    0  0.18879803033E+03 -0.35267882603E+03 -0.44042266496E+03  0.85426469808E+03  0.61300000000E+03 0. -1.
<mgrwt>
<rscale>  0 0.15045896E+04</rscale>
<asrwt>0</asrwt>
<pdfrwt beam="1">  1        2 0.24054805E+00 0.15045896E+04</pdfrwt>
<pdfrwt beam="2">  1       -2 0.48015143E-01 0.15045896E+04</pdfrwt>
<totfact> 0.46479047E+01</totfact>
</mgrwt>
</event>
<event>
 8    1  0.6972317E-052  0.1527925E+04  0.7818608E-02  0.8866093E-01
          2   -1    0    0  501    0  0.00000000000E+00  0.00000000000E+00  0.12454568475E+04  0.12454568475E+04  0.25500000000E-02 0.  1.
         -2   -1    0    0    0  501 -0.00000000000E+00 -0.00000000000E+00 -0.46861385814E+03  0.46861385815E+03  0.25500000000E-02 0. -1.
     200001    2    1    2    0    0 -0.44618435093E+03 -0.20161382914E+02  0.50986302520E+03  0.90999716568E+03  0.60716355351E+03 0.  0.
    5000001    2    3    3    0    0 -0.14986017423E+03 -0.17321126885E+03  0.50669763687E+03  0.56150999955E+03  0.78043378316E+02 0.  0.
        -11    1    4    4    0    0 -0.71645947784E+02 -0.12584462247E+03  0.32808355230E+03  0.35862073020E+03  0.51100000000E-03 0. -1.
     200002    1    4    4    0    0 -0.78214226446E+02 -0.47366646385E+02  0.17861408457E+03  0.20288926935E+03  0.30000000000E+02 0.  1.
     200000    1    3    3    0    0 -0.29632417670E+03  0.15304988594E+03  0.31653883254E+01  0.34848716614E+03  0.10100000000E+03 0. -1.
    -200001    1    1    2    0    0  0.44618435093E+03  0.20161382914E+02  0.26697996413E+03  0.80407353993E+03  0.61300000000E+03 0. -1.
<mgrwt>
<rscale>  0 0.15279245E+04</rscale>
<asrwt>0</asrwt>
<pdfrwt beam="1">  1        2 0.17792240E+00 0.15279245E+04</pdfrwt>
<pdfrwt beam="2">  1       -2 0.66944838E-01 0.15279245E+04</pdfrwt>
<totfact> 0.39851151E+01</totfact>
</mgrwt>
</event>
<event>
 8    1  0.6972317E-052  0.1330922E+04  0.7818608E-02  0.9005397E-01
          2   -1    0    0  501    0  0.00000000000E+00  0.00000000000E+00  0.14715968103E+04  0.14715968103E+04  0.25500000000E-02 0. -1.
         -2   -1    0    0    0  501 -0.00000000000E+00 -0.00000000000E+00 -0.30092362763E+03  0.30092362764E+03  0.25500000000E-02 0.  1.
     200001    2    1    2    0    0  0.37948133354E+02 -0.10856113617E+03  0.27431300445E+03  0.68052403218E+03  0.61207822446E+03 0.  0.
    5000001    2    3    3    0    0 -0.77823376777E+01 -0.33558269767E+03  0.25161047466E+03  0.42685797173E+03  0.78889703452E+02 0.  0.
        -11    1    4    4    0    0 -0.36354399228E+02 -0.15223392172E+03  0.10500148199E+03  0.18847312934E+03  0.51100000000E-03 0. -1.
     200002    1    4    4    0    0  0.28572061550E+02 -0.18334877596E+03  0.14660899268E+03  0.23838484239E+03  0.30000000000E+02 0. -1.
     200000    1    3    3    0    0  0.45730471032E+02  0.22702156150E+03  0.22702529789E+02  0.25366606045E+03  0.10100000000E+03 0.  1.
    -200001    1    1    2    0    0 -0.37948133354E+02  0.10856113617E+03  0.89636017825E+03  0.10919964058E+04  0.61300000000E+03 0. -1.
<mgrwt>
<rscale>  0 0.13309219E+04</rscale>
<asrwt>0</asrwt>
<pdfrwt beam="1">  1        2 0.21022812E+00 0.13309219E+04</pdfrwt>
<pdfrwt beam="2">  1       -2 0.42989089E-01 0.13309219E+04</pdfrwt>
<totfact> 0.75975730E+01</totfact>
</mgrwt>
</event>
<event>
 8    1  0.6972317E-052  0.1507132E+04  0.7818608E-02  0.8879724E-01
          2   -1    0    0  501    0  0.00000000000E+00  0.00000000000E+00  0.25519116304E+04  0.25519116304E+04  0.25500000000E-02 0.  1.
         -2   -1    0    0    0  501 -0.00000000000E+00 -0.00000000000E+00 -0.22252394298E+03  0.22252394299E+03  0.25500000000E-02 0. -1.
     200001    2    1    2    0    0 -0.38748046570E+03 -0.19963587219E+02  0.78819245290E+03  0.10710297477E+04  0.61263179932E+03 0.  0.
    5000001    2    3    3    0    0 -0.13079878255E+03 -0.22376356365E+03  0.27266298675E+03  0.45184355008E+03  0.25027791647E+03 0.  0.
        -11    1    4    4    0    0  0.63032321847E+02 -0.45986940998E+02  0.95454413071E+01  0.78606537831E+02  0.51100000000E-03 0. -1.
     200002    1    4    4    0    0 -0.19383110440E+03 -0.17777662265E+03  0.26311754544E+03  0.37323701225E+03  0.30000000000E+02 0. -1.
     200000    1    3    3    0    0 -0.25668168315E+03  0.20379997643E+03  0.51552946615E+03  0.61918619762E+03  0.10100000000E+03 0.  1.
    -200001    1    1    2    0    0  0.38748046570E+03  0.19963587219E+02  0.15411952345E+04  0.17034058257E+04  0.61300000000E+03 0.  1.
<mgrwt>
<rscale>  0 0.15071316E+04</rscale>
<asrwt>0</asrwt>
<pdfrwt beam="1">  1        2 0.36455877E+00 0.15071316E+04</pdfrwt>
<pdfrwt beam="2">  1       -2 0.31789138E-01 0.15071316E+04</pdfrwt>
<totfact> 0.36872145E+01</totfact>
</mgrwt>
</event>
<event>
 8    1  0.6972317E-052  0.1327923E+04  0.7818608E-02  0.9007711E-01
         -2   -1    0    0    0  501 -0.00000000000E+00  0.00000000000E+00  0.11798490675E+03  0.11798490678E+03  0.25500000000E-02 0. -1.
          2   -1    0    0  501    0  0.00000000000E+00 -0.00000000000E+00 -0.37364503645E+04  0.37364503645E+04  0.25500000000E-02 0.  1.
     200001    2    1    2    0    0  0.11074870837E+03  0.23358278540E+03 -0.17597952488E+04  0.18802898512E+04  0.60974126705E+03 0.  0.
    5000001    2    3    3    0    0 -0.65777525580E+02  0.39086628723E+03 -0.98433367405E+03  0.10633190652E+04  0.68055236526E+02 0.  0.
        -11    1    4    4    0    0 -0.17920356462E+02  0.10092929882E+03 -0.32640477000E+03  0.34212269205E+03  0.51100000000E-03 0. -1.
     200002    1    4    4    0    0 -0.47857169118E+02  0.28993698841E+03 -0.65792890405E+03  0.72119637317E+03  0.30000000000E+02 0. -1.
     200000    1    3    3    0    0  0.17652623395E+03 -0.15728350183E+03 -0.77546157477E+03  0.81697078600E+03  0.10100000000E+03 0.  1.
    -200001    1    1    2    0    0 -0.11074870837E+03 -0.23358278540E+03 -0.18586702089E+04  0.19741454200E+04  0.61300000000E+03 0.  1.
<mgrwt>
<rscale>  0 0.13279228E+04</rscale>
<asrwt>0</asrwt>
<pdfrwt beam="1">  1        2 0.53377855E+00 0.13279228E+04</pdfrwt>
<pdfrwt beam="2">  1       -2 0.16854989E-01 0.13279228E+04</pdfrwt>
<totfact> 0.24536082E+01</totfact>
</mgrwt>
</event>
<event>
 8    1  0.6972317E-052  0.2164067E+04  0.7818608E-02  0.8533535E-01
         -2   -1    0    0    0  501 -0.00000000000E+00  0.00000000000E+00  0.18933239235E+04  0.18933239235E+04  0.25500000000E-02 0. -1.
          2   -1    0    0  501    0  0.00000000000E+00 -0.00000000000E+00 -0.61838158166E+03  0.61838158167E+03  0.25500000000E-02 0.  1.
     200001    2    1    2    0    0  0.24170884999E+03  0.53231454162E+03  0.14194542623E+04  0.16523833103E+04  0.61134136296E+03 0.  0.
    5000001    2    3    3    0    0 -0.17403822303E+03  0.65388526534E+02  0.37221790678E+03  0.42854896016E+03  0.10267949480E+03 0.  0.
        -11    1    4    4    0    0 -0.16462627447E+03  0.70978499952E+02  0.29828673260E+03  0.34801541998E+03  0.51100000000E-03 0. -1.
     200002    1    4    4    0    0 -0.94119485616E+01 -0.55899734181E+01  0.73931174185E+02  0.80533540186E+02  0.30000000000E+02 0.  1.
     200000    1    3    3    0    0  0.41574707302E+03  0.46692601509E+03  0.10472363555E+04  0.12238343501E+04  0.10100000000E+03 0. -1.
    -200001    1    1    2    0    0 -0.24170884999E+03 -0.53231454162E+03 -0.14451192048E+03  0.85932219484E+03  0.61300000000E+03 0.  1.
<mgrwt>
<rscale>  0 0.21640671E+04</rscale>
<asrwt>0</asrwt>
<pdfrwt beam="1">  1        2 0.88340227E-01 0.21640671E+04</pdfrwt>
<pdfrwt beam="2">  1       -2 0.27047484E+00 0.21640671E+04</pdfrwt>
<totfact> 0.23192529E+00</totfact>
</mgrwt>
</event>
<event>
 8    1  0.6972317E-052  0.1718054E+04  0.7818608E-02  0.8751134E-01
          2   -1    0    0  501    0  0.00000000000E+00  0.00000000000E+00  0.25901990444E+04  0.25901990445E+04  0.25500000000E-02 0.  1.
         -2   -1    0    0    0  501 -0.00000000000E+00 -0.00000000000E+00 -0.28489208801E+03  0.28489208802E+03  0.25500000000E-02 0. -1.
     200001    2    1    2    0    0  0.29065738234E+03  0.18083233220E+03  0.30847910720E+03  0.75842571116E+03  0.60238538618E+03 0.  0.
    5000001    2    3    3    0    0  0.11427856654E+03  0.26504240686E+02  0.44608122965E+03  0.46849125202E+03  0.82058053996E+02 0.  0.
        -11    1    4    4    0    0  0.10692699026E+01  0.23648056175E+02  0.47844483817E+02  0.53380413364E+02  0.51100000000E-03 0. -1.
     200002    1    4    4    0    0  0.11320929664E+03  0.28561845108E+01  0.39823674583E+03  0.41511083865E+03  0.30000000000E+02 0. -1.
     200000    1    3    3    0    0  0.17637881580E+03  0.15432809152E+03 -0.13760212245E+03  0.28993445914E+03  0.10100000000E+03 0. -1.
    -200001    1    1    2    0    0 -0.29065738234E+03 -0.18083233220E+03  0.19968278492E+04  0.21166654213E+04  0.61300000000E+03 0.  1.
<mgrwt>
<rscale>  0 0.17180538E+04</rscale>
<asrwt>0</asrwt>
<pdfrwt beam="1">  1        2 0.37002846E+00 0.17180538E+04</pdfrwt>
<pdfrwt beam="2">  1       -2 0.40698867E-01 0.17180538E+04</pdfrwt>
<totfact> 0.21518055E+01</totfact>
</mgrwt>
</event>
<event>
 8    1  0.6972317E-052  0.1583011E+04  0.7818608E-02  0.8831053E-01
         -2   -1    0    0    0  501 -0.00000000000E+00  0.00000000000E+00  0.21552217773E+03  0.21552217775E+03  0.25500000000E-02 0. -1.
          2   -1    0    0  501    0  0.00000000000E+00 -0.00000000000E+00 -0.29068063826E+04  0.29068063826E+04  0.25500000000E-02 0.  1.
     200001    2    1    2    0    0  0.14352194471E+02  0.19487046513E+03 -0.22508279704E+04  0.23426163197E+04  0.61922870212E+03 0.  0.
    5000001    2    3    3    0    0 -0.18083995562E+02  0.22917475343E+03 -0.29562764249E+03  0.38423989708E+03  0.86002889448E+02 0.  0.
        -11    1    4    4    0    0 -0.34125905834E+02  0.37999887536E+02 -0.67929107497E+02  0.84987837643E+02  0.51100000000E-03 0. -1.
     200002    1    4    4    0    0  0.16041910272E+02  0.19117486590E+03 -0.22769853500E+03  0.29925205943E+03  0.30000000000E+02 0. -1.
     200000    1    3    3    0    0  0.32436190034E+02 -0.34304288303E+02 -0.19552003279E+04  0.19583764226E+04  0.10100000000E+03 0.  1.
    -200001    1    1    2    0    0 -0.14352194471E+02 -0.19487046513E+03 -0.44045623446E+03  0.77971224060E+03  0.61300000000E+03 0. -1.
<mgrwt>
<rscale>  0 0.15830114E+04</rscale>
<asrwt>0</asrwt>
<pdfrwt beam="1">  1        2 0.41525803E+00 0.15830114E+04</pdfrwt>
<pdfrwt beam="2">  1       -2 0.30788884E-01 0.15830114E+04</pdfrwt>
<totfact> 0.25060346E+01</totfact>
</mgrwt>
</event>
<event>
 8    1  0.6972317E-052  0.1268336E+04  0.7818608E-02  0.9055059E-01
          2   -1    0    0  501    0  0.00000000000E+00  0.00000000000E+00  0.39073790582E+04  0.39073790582E+04  0.25500000000E-02 0.  1.
         -2   -1    0    0    0  501 -0.00000000000E+00 -0.00000000000E+00 -0.10292553016E+03  0.10292553019E+03  0.25500000000E-02 0. -1.
     200001    2    1    2    0    0  0.92511915932E+02 -0.11908449357E+02  0.23230392142E+04  0.24043601202E+04  0.61297318943E+03 0.  0.
    5000001    2    3    3    0    0  0.28109690299E+03 -0.60000846234E+02  0.62307087446E+03  0.69030920724E+03  0.75458045168E+02 0.  0.
        -11    1    4    4    0    0  0.94682876937E+02 -0.49987178649E+02  0.25336252003E+03  0.27505659739E+03  0.51100000000E-03 0. -1.
     200002    1    4    4    0    0  0.18641402605E+03 -0.10013667585E+02  0.36970835443E+03  0.41525260984E+03  0.30000000000E+02 0. -1.
     200000    1    3    3    0    0 -0.18858498705E+03  0.48092396877E+02  0.16999683398E+04  0.17140509129E+04  0.10100000000E+03 0.  1.
    -200001    1    1    2    0    0 -0.92511915932E+02  0.11908449357E+02  0.14814143138E+04  0.16059444682E+04  0.61300000000E+03 0. -1.
<mgrwt>
<rscale>  0 0.12683360E+04</rscale>
<asrwt>0</asrwt>
<pdfrwt beam="1">  1        2 0.55819705E+00 0.12683360E+04</pdfrwt>
<pdfrwt beam="2">  1       -2 0.14703646E-01 0.12683360E+04</pdfrwt>
<totfact> 0.24142995E+01</totfact>
</mgrwt>
</event>
<event>
 8    1  0.6972317E-052  0.1876725E+04  0.7818608E-02  0.8666529E-01
          2   -1    0    0  501    0  0.00000000000E+00  0.00000000000E+00  0.74983866346E+03  0.74983866347E+03  0.25500000000E-02 0.  1.
         -2   -1    0    0    0  501 -0.00000000000E+00 -0.00000000000E+00 -0.11742847607E+04  0.11742847607E+04  0.25500000000E-02 0. -1.
     200001    2    1    2    0    0  0.29910791992E+03  0.33820015571E+03 -0.77493207191E+03  0.10859979494E+04  0.61239442925E+03 0.  0.
    5000001    2    3    3    0    0  0.67649049820E+02 -0.77334952130E+02  0.41721560704E+02  0.13554185360E+03  0.77934695024E+02 0.  0.
        -11    1    4    4    0    0  0.25049439322E+02  0.40703470930E+01  0.28218249541E+02  0.37951439277E+02  0.51100000000E-03 0. -1.
     200002    1    4    4    0    0  0.42599610498E+02 -0.81405299223E+02  0.13503311163E+02  0.97590414327E+02  0.30000000000E+02 0. -1.
     200000    1    3    3    0    0  0.23145887010E+03  0.41553510784E+03 -0.81665363261E+03  0.95045609581E+03  0.10100000000E+03 0.  1.
    -200001    1    1    2    0    0 -0.29910791992E+03 -0.33820015571E+03  0.35048597464E+03  0.83812547479E+03  0.61300000000E+03 0.  1.
<mgrwt>
<rscale>  0 0.18767249E+04</rscale>
<asrwt>0</asrwt>
<pdfrwt beam="1">  1        2 0.10711981E+00 0.18767249E+04</pdfrwt>
<pdfrwt beam="2">  1       -2 0.16775497E+00 0.18767249E+04</pdfrwt>
<totfact> 0.85931142E+00</totfact>
</mgrwt>
</event>
<event>
 8    1  0.6972317E-052  0.1279847E+04  0.7818608E-02  0.9045701E-01
          2   -1    0    0  501    0  0.00000000000E+00  0.00000000000E+00  0.45188099907E+03  0.45188099907E+03  0.25500000000E-02 0.  1.
         -2   -1    0    0    0  501 -0.00000000000E+00 -0.00000000000E+00 -0.90621603515E+03  0.90621603515E+03  0.25500000000E-02 0. -1.
     200001    2    1    2    0    0  0.10406742600E+03  0.14877135855E+03 -0.25590328781E+03  0.68868900843E+03  0.61306044672E+03 0.  0.
    5000001    2    3    3    0    0 -0.10384991399E+03 -0.17508180590E+03 -0.16711303803E+01  0.21651797769E+03  0.73748210791E+02 0.  0.
        -11    1    4    4    0    0 -0.16942005364E+02 -0.51320420103E+02 -0.26773787233E+02  0.60312956720E+02  0.51100000000E-03 0. -1.
     200002    1    4    4    0    0 -0.86907908630E+02 -0.12376138580E+03  0.25102656852E+02  0.15620502097E+03  0.30000000000E+02 0. -1.
     200000    1    3    3    0    0  0.20791734000E+03  0.32385316445E+03 -0.25423215743E+03  0.47217103073E+03  0.10100000000E+03 0. -1.
    -200001    1    1    2    0    0 -0.10406742600E+03 -0.14877135855E+03 -0.19843174827E+03  0.66940802580E+03  0.61300000000E+03 0.  1.
<mgrwt>
<rscale>  0 0.12798466E+04</rscale>
<asrwt>0</asrwt>
<pdfrwt beam="1">  1        2 0.64554428E-01 0.12798466E+04</pdfrwt>
<pdfrwt beam="2">  1       -2 0.12945943E+00 0.12798466E+04</pdfrwt>
<totfact> 0.32493828E+01</totfact>
</mgrwt>
</event>
<event>
 8    1  0.6972317E-052  0.1304225E+04  0.7818608E-02  0.9026221E-01
         -2   -1    0    0    0  501 -0.00000000000E+00  0.00000000000E+00  0.30708204754E+03  0.30708204755E+03  0.25500000000E-02 0. -1.
          2   -1    0    0  501    0  0.00000000000E+00 -0.00000000000E+00 -0.13848118356E+04  0.13848118356E+04  0.25500000000E-02 0.  1.
     200001    2    1    2    0    0 -0.13112325291E+03  0.10003276048E+03 -0.34378978014E+03  0.72151416580E+03  0.61252870781E+03 0.  0.
    5000001    2    3    3    0    0 -0.35643889362E+02 -0.24738400576E+03 -0.14566402747E+03  0.29811183679E+03  0.71995313610E+02 0.  0.
        -11    1    4    4    0    0 -0.35258526981E+02 -0.87637508482E+02 -0.31861379694E+02  0.99692748653E+02  0.51100000000E-03 0. -1.
     200002    1    4    4    0    0 -0.38536238110E+00 -0.15974649728E+03 -0.11380264778E+03  0.19841908814E+03  0.30000000000E+02 0. -1.
     200000    1    3    3    0    0 -0.95479363551E+02  0.34741676625E+03 -0.19812575267E+03  0.42340232900E+03  0.10100000000E+03 0.  1.
    -200001    1    1    2    0    0  0.13112325291E+03 -0.10003276048E+03 -0.73394000789E+03  0.97037971733E+03  0.61300000000E+03 0.  1.
<mgrwt>
<rscale>  0 0.13042252E+04</rscale>
<asrwt>0</asrwt>
<pdfrwt beam="1">  1        2 0.19783026E+00 0.13042252E+04</pdfrwt>
<pdfrwt beam="2">  1       -2 0.43868865E-01 0.13042252E+04</pdfrwt>
<totfact> 0.81427387E+01</totfact>
</mgrwt>
</event>
<event>
 8    1  0.6972317E-052  0.1428986E+04  0.7818608E-02  0.8933100E-01
          2   -1    0    0  501    0  0.00000000000E+00  0.00000000000E+00  0.26972744647E+03  0.26972744649E+03  0.25500000000E-02 0.  1.
         -2   -1    0    0    0  501 -0.00000000000E+00 -0.00000000000E+00 -0.18926519431E+04  0.18926519431E+04  0.25500000000E-02 0. -1.
     200001    2    1    2    0    0 -0.25684947993E+03  0.10044009242E+03 -0.44594183533E+03  0.80697647808E+03  0.61342240600E+03 0.  0.
    5000001    2    3    3    0    0 -0.25351715413E+03 -0.49522167294E+02  0.55713321935E+02  0.27372355447E+03  0.71394800498E+02 0.  0.
        -11    1    4    4    0    0 -0.85086842959E+02 -0.57364792497E+01  0.45918843846E+02  0.96856689285E+02  0.51100000000E-03 0. -1.
     200002    1    4    4    0    0 -0.16843031117E+03 -0.43785688045E+02  0.97944780890E+01  0.17686686518E+03  0.30000000000E+02 0. -1.
     200000    1    3    3    0    0 -0.33323257992E+01  0.14996225972E+03 -0.50165515726E+03  0.53325292361E+03  0.10100000000E+03 0. -1.
    -200001    1    1    2    0    0  0.25684947993E+03 -0.10044009242E+03 -0.11769826613E+04  0.13554029115E+04  0.61300000000E+03 0. -1.
<mgrwt>
<rscale>  0 0.14289859E+04</rscale>
<asrwt>0</asrwt>
<pdfrwt beam="1">  1        2 0.38532493E-01 0.14289859E+04</pdfrwt>
<pdfrwt beam="2">  1       -2 0.27037884E+00 0.14289859E+04</pdfrwt>
<totfact> 0.63149185E+00</totfact>
</mgrwt>
</event>
<event>
 8    1  0.6972317E-052  0.1371614E+04  0.7818608E-02  0.8974626E-01
         -2   -1    0    0    0  501 -0.00000000000E+00  0.00000000000E+00  0.23619339705E+03  0.23619339706E+03  0.25500000000E-02 0. -1.
          2   -1    0    0  501    0  0.00000000000E+00 -0.00000000000E+00 -0.19912969253E+04  0.19912969253E+04  0.25500000000E-02 0.  1.
     200001    2    1    2    0    0 -0.13300540425E+03  0.27685367296E+03 -0.79269868150E+03  0.10458260372E+04  0.60913258541E+03 0.  0.
    5000001    2    3    3    0    0  0.17084268572E+03  0.29982044101E+03 -0.33710128466E+03  0.48849209580E+03  0.76861768297E+02 0.  0.
        -11    1    4    4    0    0  0.10064396020E+03  0.12516114952E+03 -0.12653597337E+03  0.20446484449E+03  0.51100000000E-03 0. -1.
     200002    1    4    4    0    0  0.70198725518E+02  0.17465929149E+03 -0.21056531129E+03  0.28402725131E+03  0.30000000000E+02 0.  1.
     200000    1    3    3    0    0 -0.30384808997E+03 -0.22966768042E+02 -0.45559739684E+03  0.55733394139E+03  0.10100000000E+03 0.  1.
    -200001    1    1    2    0    0  0.13300540425E+03 -0.27685367296E+03 -0.96240484671E+03  0.11816642851E+04  0.61300000000E+03 0.  1.
<mgrwt>
<rscale>  0 0.13716139E+04</rscale>
<asrwt>0</asrwt>
<pdfrwt beam="1">  1        2 0.28447098E+00 0.13716139E+04</pdfrwt>
<pdfrwt beam="2">  1       -2 0.33741915E-01 0.13716139E+04</pdfrwt>
<totfact> 0.65009758E+01</totfact>
</mgrwt>
</event>
<event>
 8    1  0.6972317E-052  0.1239965E+04  0.7818608E-02  0.9078577E-01
         -2   -1    0    0    0  501 -0.00000000000E+00  0.00000000000E+00  0.19783507379E+03  0.19783507381E+03  0.25500000000E-02 0. -1.
          2   -1    0    0  501    0  0.00000000000E+00 -0.00000000000E+00 -0.19429215560E+04  0.19429215560E+04  0.25500000000E-02 0.  1.
     200001    2    1    2    0    0 -0.32169604652E+02  0.45419366978E+02 -0.79896070556E+03  0.10120313366E+04  0.61868523078E+03 0.  0.
    5000001    2    3    3    0    0  0.40627026831E+02 -0.24275238244E+03 -0.17882820027E+03  0.31697189246E+03  0.88951564966E+02 0.  0.
        -11    1    4    4    0    0 -0.94400543168E+01 -0.15922452688E+02 -0.41551650120E+02  0.45488226532E+02  0.51100000000E-03 0. -1.
     200002    1    4    4    0    0  0.50067081148E+02 -0.22682992975E+03 -0.13727655015E+03  0.27148366593E+03  0.30000000000E+02 0. -1.
     200000    1    3    3    0    0 -0.72796631483E+02  0.28817174941E+03 -0.62013250529E+03  0.69505944410E+03  0.10100000000E+03 0. -1.
    -200001    1    1    2    0    0  0.32169604652E+02 -0.45419366978E+02 -0.94612577660E+03  0.11287252932E+04  0.61300000000E+03 0.  1.
<mgrwt>
<rscale>  0 0.12399646E+04</rscale>
<asrwt>0</asrwt>
<pdfrwt beam="1">  1        2 0.27756021E+00 0.12399646E+04</pdfrwt>
<pdfrwt beam="2">  1       -2 0.28262155E-01 0.12399646E+04</pdfrwt>
<totfact> 0.96843265E+01</totfact>
</mgrwt>
</event>
<event>
 8    1  0.6972317E-052  0.1592165E+04  0.7818608E-02  0.8825376E-01
          2   -1    0    0  501    0  0.00000000000E+00  0.00000000000E+00  0.22435806272E+04  0.22435806272E+04  0.25500000000E-02 0.  1.
         -2   -1    0    0    0  501 -0.00000000000E+00 -0.00000000000E+00 -0.28247122977E+03  0.28247122978E+03  0.25500000000E-02 0. -1.
     200001    2    1    2    0    0 -0.68983904345E+02 -0.46988390341E+03  0.69327027023E+03  0.10398706048E+04  0.61250105754E+03 0.  0.
    5000001    2    3    3    0    0  0.60462167668E+01 -0.26667585698E+03 -0.24361875158E+02  0.28348450945E+03  0.92829934306E+02 0.  0.
        -11    1    4    4    0    0 -0.24898615145E+02 -0.65323926787E+02 -0.33180256403E+02  0.77382723280E+02  0.51100000000E-03 0. -1.
     200002    1    4    4    0    0  0.30944831912E+02 -0.20135193019E+03  0.88183812444E+01  0.20610178617E+03  0.30000000000E+02 0. -1.
     200000    1    3    3    0    0 -0.75030121112E+02 -0.20320804643E+03  0.71763214538E+03  0.75638609539E+03  0.10100000000E+03 0.  1.
    -200001    1    1    2    0    0  0.68983904345E+02  0.46988390341E+03  0.12678391272E+04  0.14861812521E+04  0.61300000000E+03 0.  1.
<mgrwt>
<rscale>  0 0.15921645E+04</rscale>
<asrwt>0</asrwt>
<pdfrwt beam="1">  1        2 0.32051154E+00 0.15921645E+04</pdfrwt>
<pdfrwt beam="2">  1       -2 0.40353030E-01 0.15921645E+04</pdfrwt>
<totfact> 0.33561465E+01</totfact>
</mgrwt>
</event>
<event>
 8    1  0.6972317E-052  0.2287716E+04  0.7818608E-02  0.8482780E-01
         -2   -1    0    0    0  501 -0.00000000000E+00  0.00000000000E+00  0.46477876522E+03  0.46477876523E+03  0.25500000000E-02 0. -1.
          2   -1    0    0  501    0  0.00000000000E+00 -0.00000000000E+00 -0.28151270495E+04  0.28151270495E+04  0.25500000000E-02 0.  1.
     200001    2    1    2    0    0 -0.30902575153E+02 -0.60963675068E+03 -0.22482335940E+04  0.24088097540E+04  0.61253424496E+03 0.  0.
    5000001    2    3    3    0    0 -0.11059608837E+03 -0.25344997955E+03 -0.17865265218E+04  0.18116544204E+04  0.11809461927E+03 0.  0.
        -11    1    4    4    0    0  0.12594385437E+02 -0.26480521333E+02 -0.39237373284E+03  0.39346789295E+03  0.51100000000E-03 0. -1.
     200002    1    4    4    0    0 -0.12319047381E+03 -0.22696945822E+03 -0.13941527889E+04  0.14181865275E+04  0.30000000000E+02 0. -1.
     200000    1    3    3    0    0  0.79693513217E+02 -0.35618677113E+03 -0.46170707218E+03  0.59715533363E+03  0.10100000000E+03 0. -1.
    -200001    1    1    2    0    0  0.30902575153E+02  0.60963675068E+03 -0.10211469030E+03  0.87109606067E+03  0.61300000000E+03 0. -1.
<mgrwt>
<rscale>  0 0.22877161E+04</rscale>
<asrwt>0</asrwt>
<pdfrwt beam="1">  1        2 0.40216100E+00 0.22877161E+04</pdfrwt>
<pdfrwt beam="2">  1       -2 0.66396968E-01 0.22877161E+04</pdfrwt>
<totfact> 0.56761201E+00</totfact>
</mgrwt>
</event>
<event>
 8    1  0.6972317E-052  0.1643169E+04  0.7818608E-02  0.8794458E-01
          2   -1    0    0  501    0  0.00000000000E+00  0.00000000000E+00  0.15053666332E+04  0.15053666332E+04  0.25500000000E-02 0.  1.
         -2   -1    0    0    0  501 -0.00000000000E+00 -0.00000000000E+00 -0.44839664429E+03  0.44839664430E+03  0.25500000000E-02 0. -1.
     200001    2    1    2    0    0 -0.31077704327E+03  0.12913076382E+03  0.10371953675E+04  0.12541797153E+04  0.61962521186E+03 0.  0.
    5000001    2    3    3    0    0  0.10638766457E+03 -0.14221034513E+03  0.34635930606E+03  0.39679540555E+03  0.77069498070E+02 0.  0.
        -11    1    4    4    0    0  0.22485772975E+01 -0.76082870917E+01  0.72764187086E+02  0.73195416898E+02  0.51100000000E-03 0. -1.
     200002    1    4    4    0    0  0.10413908727E+03 -0.13460205804E+03  0.27359511898E+03  0.32359998865E+03  0.30000000000E+02 0. -1.
     200000    1    3    3    0    0 -0.41716470783E+03  0.27134110895E+03  0.69083606145E+03  0.85738430979E+03  0.10100000000E+03 0.  1.
    -200001    1    1    2    0    0  0.31077704327E+03 -0.12913076382E+03  0.19774621375E+02  0.69958356215E+03  0.61300000000E+03 0. -1.
<mgrwt>
<rscale>  0 0.16431693E+04</rscale>
<asrwt>0</asrwt>
<pdfrwt beam="1">  1        2 0.21505238E+00 0.16431693E+04</pdfrwt>
<pdfrwt beam="2">  1       -2 0.64056662E-01 0.16431693E+04</pdfrwt>
<totfact> 0.31338374E+01</totfact>
</mgrwt>
</event>
<event>
 8    1  0.6972317E-052  0.1391805E+04  0.7818608E-02  0.8959772E-01
          2   -1    0    0  501    0  0.00000000000E+00  0.00000000000E+00  0.42159030466E+03  0.42159030467E+03  0.25500000000E-02 0.  1.
         -2   -1    0    0    0  501 -0.00000000000E+00 -0.00000000000E+00 -0.11486995471E+04  0.11486995471E+04  0.25500000000E-02 0. -1.
     200001    2    1    2    0    0 -0.87057891430E+02  0.31630149683E+03 -0.35072557180E+03  0.77968288184E+03  0.61422410907E+03 0.  0.
    5000001    2    3    3    0    0 -0.23193511169E+03 -0.69262835307E+02 -0.47112345179E+02  0.25811672635E+03  0.76245884908E+02 0.  0.
        -11    1    4    4    0    0 -0.24228181475E+02 -0.55653782177E+01  0.16409560160E+02  0.29786773528E+02  0.51100000000E-03 0. -1.
     200002    1    4    4    0    0 -0.20770693022E+03 -0.63697457090E+02 -0.63521905339E+02  0.22832995283E+03  0.30000000000E+02 0. -1.
     200000    1    3    3    0    0  0.14487722026E+03  0.38556433213E+03 -0.30361322662E+03  0.52156615548E+03  0.10100000000E+03 0. -1.
    -200001    1    1    2    0    0  0.87057891430E+02 -0.31630149683E+03 -0.37638367060E+03  0.79060696989E+03  0.61300000000E+03 0. -1.
<mgrwt>
<rscale>  0 0.13918054E+04</rscale>
<asrwt>0</asrwt>
<pdfrwt beam="1">  1        2 0.60227187E-01 0.13918054E+04</pdfrwt>
<pdfrwt beam="2">  1       -2 0.16409993E+00 0.13918054E+04</pdfrwt>
<totfact> 0.18669592E+01</totfact>
</mgrwt>
</event>
<event>
 8    1  0.6972317E-052  0.2679736E+04  0.7818608E-02  0.8341610E-01
          2   -1    0    0  501    0  0.00000000000E+00  0.00000000000E+00  0.17291879425E+04  0.17291879425E+04  0.25500000000E-02 0.  1.
         -2   -1    0    0    0  501 -0.00000000000E+00 -0.00000000000E+00 -0.10382019319E+04  0.10382019319E+04  0.25500000000E-02 0. -1.
     200001    2    1    2    0    0  0.84874700026E+03 -0.79784011713E+03  0.60161545303E+03  0.14480429073E+04  0.61479003342E+03 0.  0.
    5000001    2    3    3    0    0  0.49469511810E+03 -0.78954337998E+02  0.23699256925E+03  0.56187117111E+03  0.92610408072E+02 0.  0.
        -11    1    4    4    0    0  0.25732457683E+03 -0.37817614448E+02  0.16747538142E+03  0.30934465113E+03  0.51100000000E-03 0. -1.
     200002    1    4    4    0    0  0.23737054127E+03 -0.41136723550E+02  0.69517187835E+02  0.25252651998E+03  0.30000000000E+02 0. -1.
     200000    1    3    3    0    0  0.35405188216E+03 -0.71888577913E+03  0.36462288377E+03  0.88617173622E+03  0.10100000000E+03 0.  1.
    -200001    1    1    2    0    0 -0.84874700026E+03  0.79784011713E+03  0.89370557554E+02  0.13193469671E+04  0.61300000000E+03 0.  1.
<mgrwt>
<rscale>  0 0.26797360E+04</rscale>
<asrwt>0</asrwt>
<pdfrwt beam="1">  1        2 0.24702685E+00 0.26797360E+04</pdfrwt>
<pdfrwt beam="2">  1       -2 0.14831456E+00 0.26797360E+04</pdfrwt>
<totfact> 0.30257654E+00</totfact>
</mgrwt>
</event>
<event>
 8    1  0.6972317E-052  0.1242691E+04  0.7818608E-02  0.9076288E-01
          2   -1    0    0  501    0  0.00000000000E+00  0.00000000000E+00  0.22474567948E+04  0.22474567948E+04  0.25500000000E-02 0.  1.
         -2   -1    0    0    0  501 -0.00000000000E+00 -0.00000000000E+00 -0.17178098332E+03  0.17178098334E+03  0.25500000000E-02 0. -1.
     200001    2    1    2    0    0  0.29670328003E+02 -0.91589576698E+02  0.97647713749E+03  0.11569875241E+04  0.61306080608E+03 0.  0.
    5000001    2    3    3    0    0 -0.17180118658E+03  0.17004777386E+03  0.32050186790E+03  0.41567151273E+03  0.10784000215E+03 0.  0.
        -11    1    4    4    0    0 -0.94253802578E+02  0.12136674176E+03  0.12641003731E+03  0.19898030767E+03  0.51100000000E-03 0. -1.
     200002    1    4    4    0    0 -0.77547384003E+02  0.48681032101E+02  0.19409183059E+03  0.21669120507E+03  0.30000000000E+02 0. -1.
     200000    1    3    3    0    0  0.20147151458E+03 -0.26163735056E+03  0.65597526959E+03  0.74131601137E+03  0.10100000000E+03 0. -1.
    -200001    1    1    2    0    0 -0.29670328003E+02  0.91589576698E+02  0.10991986740E+04  0.12622502540E+04  0.61300000000E+03 0. -1.
<mgrwt>
<rscale>  0 0.12426912E+04</rscale>
<asrwt>0</asrwt>
<pdfrwt beam="1">  1        2 0.32106526E+00 0.12426912E+04</pdfrwt>
<pdfrwt beam="2">  1       -2 0.24540140E-01 0.12426912E+04</pdfrwt>
<totfact> 0.87426100E+01</totfact>
</mgrwt>
</event>
<event>
 8    1  0.6972317E-052  0.1608745E+04  0.7818608E-02  0.8815193E-01
          2   -1    0    0  501    0  0.00000000000E+00  0.00000000000E+00  0.31158625412E+04  0.31158625412E+04  0.25500000000E-02 0.  1.
         -2   -1    0    0    0  501 -0.00000000000E+00 -0.00000000000E+00 -0.20765213114E+03  0.20765213116E+03  0.25500000000E-02 0. -1.
     200001    2    1    2    0    0  0.28563606116E+03  0.24190648817E+03  0.22021961416E+04  0.23163742374E+04  0.61303756263E+03 0.  0.
    5000001    2    3    3    0    0  0.35785943728E+03  0.52562161054E+02  0.66005657066E+03  0.75770078010E+03  0.87233239442E+02 0.  0.
        -11    1    4    4    0    0  0.16019128398E+03  0.50489095790E+02  0.35831276484E+03  0.39572519973E+03  0.51100000000E-03 0. -1.
     200002    1    4    4    0    0  0.19766815330E+03  0.20730652634E+01  0.30174380582E+03  0.36197558037E+03  0.30000000000E+02 0. -1.
     200000    1    3    3    0    0 -0.72223376121E+02  0.18934432711E+03  0.15421395709E+04  0.15586734573E+04  0.10100000000E+03 0.  1.
    -200001    1    1    2    0    0 -0.28563606116E+03 -0.24190648817E+03  0.70601426845E+03  0.10071404349E+04  0.61300000000E+03 0. -1.
<mgrwt>
<rscale>  0 0.16087455E+04</rscale>
<asrwt>0</asrwt>
<pdfrwt beam="1">  1        2 0.44512324E+00 0.16087455E+04</pdfrwt>
<pdfrwt beam="2">  1       -2 0.29664589E-01 0.16087455E+04</pdfrwt>
<totfact> 0.20484371E+01</totfact>
</mgrwt>
</event>
<event>
 8    1  0.6972317E-052  0.1299263E+04  0.7818608E-02  0.9030150E-01
         -2   -1    0    0    0  501 -0.00000000000E+00  0.00000000000E+00  0.22265188941E+03  0.22265188942E+03  0.25500000000E-02 0. -1.
          2   -1    0    0  501    0  0.00000000000E+00 -0.00000000000E+00 -0.18954294720E+04  0.18954294720E+04  0.25500000000E-02 0.  1.
     200001    2    1    2    0    0  0.94255609312E+01 -0.12433754520E+03 -0.11156088083E+04  0.12803733518E+04  0.61581185479E+03 0.  0.
    5000001    2    3    3    0    0  0.15990925055E+03  0.63038495572E+02 -0.95540059075E+03  0.97439493024E+03  0.84323015481E+02 0.  0.
        -11    1    4    4    0    0  0.14270283251E+03  0.35422765828E+02 -0.71686558282E+03  0.73178899594E+03  0.51100000000E-03 0. -1.
     200002    1    4    4    0    0  0.17206418047E+02  0.27615729744E+02 -0.23853500793E+03  0.24260593430E+03  0.30000000000E+02 0. -1.
     200000    1    3    3    0    0 -0.15048368962E+03 -0.18737604077E+03 -0.16020821759E+03  0.30597842159E+03  0.10100000000E+03 0. -1.
    -200001    1    1    2    0    0 -0.94255609312E+01  0.12433754520E+03 -0.55716877428E+03  0.83770800962E+03  0.61300000000E+03 0. -1.
<mgrwt>
<rscale>  0 0.12992628E+04</rscale>
<asrwt>0</asrwt>
<pdfrwt beam="1">  1        2 0.27077563E+00 0.12992628E+04</pdfrwt>
<pdfrwt beam="2">  1       -2 0.31807414E-01 0.12992628E+04</pdfrwt>
<totfact> 0.81842569E+01</totfact>
</mgrwt>
</event>
<event>
 8    1  0.6972317E-052  0.1736955E+04  0.7818608E-02  0.8740564E-01
         -2   -1    0    0    0  501 -0.00000000000E+00  0.00000000000E+00  0.17071518742E+03  0.17071518743E+03  0.25500000000E-02 0. -1.
          2   -1    0    0  501    0  0.00000000000E+00 -0.00000000000E+00 -0.44181943160E+04  0.44181943160E+04  0.25500000000E-02 0.  1.
     200001    2    1    2    0    0  0.22154906583E+03 -0.53177112022E+03 -0.15533835985E+04  0.17665374092E+04  0.61301655874E+03 0.  0.
    5000001    2    3    3    0    0 -0.73223704093E+01  0.91289649287E+02 -0.46905925594E+03  0.49117583828E+03  0.11335652318E+03 0.  0.
        -11    1    4    4    0    0  0.26360586318E+02  0.51163695688E+02 -0.37512325698E+03  0.37951292758E+03  0.51100000000E-03 0. -1.
     200002    1    4    4    0    0 -0.33682956727E+02  0.40125953600E+02 -0.93935998960E+02  0.11166291070E+03  0.30000000000E+02 0. -1.
     200000    1    3    3    0    0  0.22887143624E+03 -0.62306076950E+03 -0.10843243425E+04  0.12753615709E+04  0.10100000000E+03 0. -1.
    -200001    1    1    2    0    0 -0.22154906583E+03  0.53177112022E+03 -0.26940955302E+04  0.28223720943E+04  0.61300000000E+03 0.  1.
<mgrwt>
<rscale>  0 0.17369547E+04</rscale>
<asrwt>0</asrwt>
<pdfrwt beam="1">  1        2 0.63117054E+00 0.17369547E+04</pdfrwt>
<pdfrwt beam="2">  1       -2 0.24387887E-01 0.17369547E+04</pdfrwt>
<totfact> 0.40886165E+00</totfact>
</mgrwt>
</event>
<event>
 8    1  0.6972317E-052  0.1933711E+04  0.7818608E-02  0.8638256E-01
          2   -1    0    0  501    0  0.00000000000E+00  0.00000000000E+00  0.28500299308E+04  0.28500299308E+04  0.25500000000E-02 0.  1.
         -2   -1    0    0    0  501 -0.00000000000E+00 -0.00000000000E+00 -0.32799999449E+03  0.32799999450E+03  0.25500000000E-02 0. -1.
     200001    2    1    2    0    0 -0.60438805883E+03  0.27443351573E+03  0.18256961465E+04  0.20373071601E+04  0.61388546566E+03 0.  0.
    5000001    2    3    3    0    0 -0.29255701467E+03 -0.68901745647E+02  0.27248609207E+03  0.41318272672E+03  0.78321375821E+02 0.  0.
        -11    1    4    4    0    0  0.11937588762E+01  0.43002877619E+01  0.11573570972E+02  0.12404236389E+02  0.51100000000E-03 0. -1.
     200002    1    4    4    0    0 -0.29375077354E+03 -0.73202033409E+02  0.26091252109E+03  0.40077849034E+03  0.30000000000E+02 0. -1.
     200000    1    3    3    0    0 -0.31183104416E+03  0.34333526138E+03  0.15532100545E+04  0.16241244334E+04  0.10100000000E+03 0. -1.
    -200001    1    1    2    0    0  0.60438805883E+03 -0.27443351573E+03  0.69633378976E+03  0.11407227652E+04  0.61300000000E+03 0. -1.
<mgrwt>
<rscale>  0 0.19337113E+04</rscale>
<asrwt>0</asrwt>
<pdfrwt beam="1">  1        2 0.40714713E+00 0.19337113E+04</pdfrwt>
<pdfrwt beam="2">  1       -2 0.46857142E-01 0.19337113E+04</pdfrwt>
<totfact> 0.11570008E+01</totfact>
</mgrwt>
</event>
<event>
 8    1  0.6972317E-052  0.2181889E+04  0.7818608E-02  0.8526004E-01
          2   -1    0    0  501    0  0.00000000000E+00  0.00000000000E+00  0.25367748539E+04  0.25367748539E+04  0.25500000000E-02 0.  1.
         -2   -1    0    0    0  501 -0.00000000000E+00 -0.00000000000E+00 -0.46916243550E+03  0.46916243551E+03  0.25500000000E-02 0. -1.
     200001    2    1    2    0    0 -0.37934520842E+03 -0.40203200710E+03  0.20169011538E+04  0.21789710541E+04  0.61195757084E+03 0.  0.
    5000001    2    3    3    0    0 -0.14916044054E+03 -0.26202225277E+03  0.17186827554E+04  0.17645763488E+04  0.26259241973E+03 0.  0.
        -11    1    4    4    0    0 -0.12547118395E+03 -0.16999750111E+03  0.51334227061E+03  0.55512381968E+03  0.51100000000E-03 0. -1.
     200002    1    4    4    0    0 -0.23689256593E+02 -0.92024751660E+02  0.12053404848E+04  0.12094525291E+04  0.30000000000E+02 0. -1.
     200000    1    3    3    0    0 -0.23018476788E+03 -0.14000975433E+03  0.29821839840E+03  0.41439470534E+03  0.10100000000E+03 0.  1.
    -200001    1    1    2    0    0  0.37934520842E+03  0.40203200710E+03  0.50711264527E+02  0.82696623525E+03  0.61300000000E+03 0. -1.
<mgrwt>
<rscale>  0 0.21818886E+04</rscale>
<asrwt>0</asrwt>
<pdfrwt beam="1">  1        2 0.36239642E+00 0.21818886E+04</pdfrwt>
<pdfrwt beam="2">  1       -2 0.67023203E-01 0.21818886E+04</pdfrwt>
<totfact> 0.79174243E+00</totfact>
</mgrwt>
</event>
<event>
 8    1  0.6972317E-052  0.2125925E+04  0.7818608E-02  0.8549908E-01
          2   -1    0    0  501    0  0.00000000000E+00  0.00000000000E+00  0.23416488792E+04  0.23416488792E+04  0.25500000000E-02 0.  1.
         -2   -1    0    0    0  501 -0.00000000000E+00 -0.00000000000E+00 -0.48251886668E+03  0.48251886668E+03  0.25500000000E-02 0. -1.
     200001    2    1    2    0    0  0.64813627284E+03  0.48019298340E+03  0.13562373182E+04  0.16930903871E+04  0.61360367204E+03 0.  0.
    5000001    2    3    3    0    0  0.37306738486E+03  0.40684483458E+03  0.44244904606E+03  0.73067007859E+03  0.18279937722E+03 0.  0.
        -11    1    4    4    0    0  0.19622427587E+03  0.11119312741E+03  0.24269744278E+03  0.33131544902E+03  0.51100000000E-03 0. -1.
     200002    1    4    4    0    0  0.17684310899E+03  0.29565170717E+03  0.19975160328E+03  0.39935462957E+03  0.30000000000E+02 0. -1.
     200000    1    3    3    0    0  0.27506888798E+03  0.73348148823E+02  0.91378827209E+03  0.96242030854E+03  0.10100000000E+03 0.  1.
    -200001    1    1    2    0    0 -0.64813627284E+03 -0.48019298340E+03  0.50289269440E+03  0.11310773588E+04  0.61300000000E+03 0.  1.
<mgrwt>
<rscale>  0 0.21259255E+04</rscale>
<asrwt>0</asrwt>
<pdfrwt beam="1">  1        2 0.33452128E+00 0.21259255E+04</pdfrwt>
<pdfrwt beam="2">  1       -2 0.68931265E-01 0.21259255E+04</pdfrwt>
<totfact> 0.94756038E+00</totfact>
</mgrwt>
</event>
<event>
 8    1  0.6972317E-052  0.1302379E+04  0.7818608E-02  0.9027681E-01
         -2   -1    0    0    0  501 -0.00000000000E+00  0.00000000000E+00  0.24835249861E+03  0.24835249862E+03  0.25500000000E-02 0. -1.
          2   -1    0    0  501    0  0.00000000000E+00 -0.00000000000E+00 -0.17074435021E+04  0.17074435021E+04  0.25500000000E-02 0.  1.
     200001    2    1    2    0    0 -0.83408667341E+02  0.15559260314E+03 -0.92919479205E+03  0.11265040987E+04  0.61191703588E+03 0.  0.
    5000001    2    3    3    0    0 -0.32757407538E+02  0.27365304405E+03 -0.23063103689E+03  0.40908083597E+03  0.19544159975E+03 0.  0.
        -11    1    4    4    0    0 -0.84633749673E+02  0.14986914048E+03 -0.44718335201E+02  0.17782958234E+03  0.51100000000E-03 0. -1.
     200002    1    4    4    0    0  0.51876342135E+02  0.12378390358E+03 -0.18591270169E+03  0.23125125363E+03  0.30000000000E+02 0. -1.
     200000    1    3    3    0    0 -0.50651259804E+02 -0.11806044091E+03 -0.69856375517E+03  0.71742326270E+03  0.10100000000E+03 0.  1.
    -200001    1    1    2    0    0  0.83408667341E+02 -0.15559260314E+03 -0.52989621149E+03  0.82929190210E+03  0.61300000000E+03 0. -1.
<mgrwt>
<rscale>  0 0.13023791E+04</rscale>
<asrwt>0</asrwt>
<pdfrwt beam="1">  1        2 0.24392049E+00 0.13023791E+04</pdfrwt>
<pdfrwt beam="2">  1       -2 0.35478929E-01 0.13023791E+04</pdfrwt>
<totfact> 0.83153854E+01</totfact>
</mgrwt>
</event>
<event>
 8    1  0.6972317E-052  0.1726894E+04  0.7818608E-02  0.8746173E-01
         -2   -1    0    0    0  501 -0.00000000000E+00  0.00000000000E+00  0.26367730552E+03  0.26367730554E+03  0.25500000000E-02 0. -1.
          2   -1    0    0  501    0  0.00000000000E+00 -0.00000000000E+00 -0.28274735611E+04  0.28274735611E+04  0.25500000000E-02 0.  1.
     200001    2    1    2    0    0  0.52329686841E+03  0.20915350019E+03 -0.16911132352E+04  0.18849463014E+04  0.61284075078E+03 0.  0.
    5000001    2    3    3    0    0  0.59804390934E+03  0.18445407467E+02 -0.12542693052E+04  0.13920058223E+04  0.80572754904E+02 0.  0.
        -11    1    4    4    0    0  0.20439720849E+03 -0.94043572020E+01 -0.49908204438E+03  0.53939739320E+03  0.51100000000E-03 0. -1.
     200002    1    4    4    0    0  0.39364670085E+03  0.27849764670E+02 -0.75518726080E+03  0.85260842909E+03  0.30000000000E+02 0. -1.
     200000    1    3    3    0    0 -0.74747040934E+02  0.19070809272E+03 -0.43684393004E+03  0.49294047913E+03  0.10100000000E+03 0.  1.
    -200001    1    1    2    0    0 -0.52329686841E+03 -0.20915350019E+03 -0.87268302039E+03  0.12062045652E+04  0.61300000000E+03 0. -1.
<mgrwt>
<rscale>  0 0.17268939E+04</rscale>
<asrwt>0</asrwt>
<pdfrwt beam="1">  1        2 0.40392478E+00 0.17268939E+04</pdfrwt>
<pdfrwt beam="2">  1       -2 0.37668188E-01 0.17268939E+04</pdfrwt>
<totfact> 0.18638659E+01</totfact>
</mgrwt>
</event>
<event>
 8    1  0.6972317E-052  0.1782252E+04  0.7818608E-02  0.8715795E-01
         -2   -1    0    0    0  501 -0.00000000000E+00  0.00000000000E+00  0.29733651102E+03  0.29733651103E+03  0.25500000000E-02 0. -1.
          2   -1    0    0  501    0  0.00000000000E+00 -0.00000000000E+00 -0.26707310239E+04  0.26707310239E+04  0.25500000000E-02 0.  1.
     200001    2    1    2    0    0  0.53524505306E+03 -0.15121024623E+03 -0.63726667250E+03  0.10447213145E+04  0.61317371744E+03 0.  0.
    5000001    2    3    3    0    0  0.12132668018E+03  0.49181469291E+02 -0.54044583338E+03  0.56403375078E+03  0.94410767162E+02 0.  0.
        -11    1    4    4    0    0  0.81344755206E+02  0.61307218989E+02 -0.43426125543E+03  0.44604751122E+03  0.51100000000E-03 0. -1.
     200002    1    4    4    0    0  0.39981924977E+02 -0.12125749699E+02 -0.10618457794E+03  0.11798623955E+03  0.30000000000E+02 0. -1.
     200000    1    3    3    0    0  0.41391837288E+03 -0.20039171552E+03 -0.96820839126E+02  0.48068756375E+03  0.10100000000E+03 0. -1.
    -200001    1    1    2    0    0 -0.53524505306E+03  0.15121024623E+03 -0.17361278404E+04  0.19233462204E+04  0.61300000000E+03 0. -1.
<mgrwt>
<rscale>  0 0.17822523E+04</rscale>
<asrwt>0</asrwt>
<pdfrwt beam="1">  1        2 0.38153299E+00 0.17822523E+04</pdfrwt>
<pdfrwt beam="2">  1       -2 0.42476646E-01 0.17822523E+04</pdfrwt>
<totfact> 0.17822559E+01</totfact>
</mgrwt>
</event>
<event>
 8    1  0.6972317E-052  0.1544744E+04  0.7818608E-02  0.8855232E-01
         -2   -1    0    0    0  501 -0.00000000000E+00  0.00000000000E+00  0.51037291732E+03  0.51037291733E+03  0.25500000000E-02 0. -1.
          2   -1    0    0  501    0  0.00000000000E+00 -0.00000000000E+00 -0.11688686297E+04  0.11688686297E+04  0.25500000000E-02 0.  1.
     200001    2    1    2    0    0 -0.43757461111E+03  0.16271889001E+03 -0.38413610485E+03  0.86132274197E+03  0.61348784938E+03 0.  0.
    5000001    2    3    3    0    0  0.10499449634E+03 -0.92309726422E+02 -0.70947619364E+02  0.17743030964E+03  0.83084416301E+02 0.  0.
        -11    1    4    4    0    0  0.41989928447E+02 -0.64919269533E+02 -0.67090041180E+02  0.10236571337E+03  0.51100000000E-03 0. -1.
     200002    1    4    4    0    0  0.63004567897E+02 -0.27390456889E+02 -0.38575781845E+01  0.75064596275E+02  0.30000000000E+02 0. -1.
     200000    1    3    3    0    0 -0.54256910745E+03  0.25502861643E+03 -0.31318848548E+03  0.68389243233E+03  0.10100000000E+03 0. -1.
    -200001    1    1    2    0    0  0.43757461111E+03 -0.16271889001E+03 -0.27435960755E+03  0.81791880508E+03  0.61300000000E+03 0. -1.
<mgrwt>
<rscale>  0 0.15447445E+04</rscale>
<asrwt>0</asrwt>
<pdfrwt beam="1">  1        2 0.16698123E+00 0.15447445E+04</pdfrwt>
<pdfrwt beam="2">  1       -2 0.72910417E-01 0.15447445E+04</pdfrwt>
<totfact> 0.36527047E+01</totfact>
</mgrwt>
</event>
<event>
 8    1  0.6972317E-052  0.2298789E+04  0.7818608E-02  0.8478399E-01
         -2   -1    0    0    0  501 -0.00000000000E+00  0.00000000000E+00  0.50152703458E+03  0.50152703459E+03  0.25500000000E-02 0. -1.
          2   -1    0    0  501    0  0.00000000000E+00 -0.00000000000E+00 -0.26341712922E+04  0.26341712922E+04  0.25500000000E-02 0.  1.
     200001    2    1    2    0    0  0.92040931358E+03  0.12898266937E+03 -0.14562863387E+04  0.18330015593E+04  0.61264588682E+03 0.  0.
    5000001    2    3    3    0    0  0.23441580279E+03 -0.37737775629E+02 -0.70029707452E+02  0.27406241640E+03  0.11760586657E+03 0.  0.
        -11    1    4    4    0    0  0.83962536872E+02 -0.68508012383E+02 -0.32856146332E+02  0.11323683902E+03  0.51100000000E-03 0. -1.
     200002    1    4    4    0    0  0.15045326591E+03  0.30770236754E+02 -0.37173561120E+02  0.16082557738E+03  0.30000000000E+02 0. -1.
     200000    1    3    3    0    0  0.68599351080E+03  0.16672044500E+03 -0.13862566312E+04  0.15589391429E+04  0.10100000000E+03 0.  1.
    -200001    1    1    2    0    0 -0.92040931358E+03 -0.12898266937E+03 -0.67635791895E+03  0.13026967675E+04  0.61300000000E+03 0. -1.
<mgrwt>
<rscale>  0 0.22987893E+04</rscale>
<asrwt>0</asrwt>
<pdfrwt beam="1">  1        2 0.37631018E+00 0.22987893E+04</pdfrwt>
<pdfrwt beam="2">  1       -2 0.71646720E-01 0.22987893E+04</pdfrwt>
<totfact> 0.60186865E+00</totfact>
</mgrwt>
</event>
<event>
 8    1  0.6972317E-052  0.1351027E+04  0.7818608E-02  0.8990051E-01
          2   -1    0    0  501    0  0.00000000000E+00  0.00000000000E+00  0.84716271212E+03  0.84716271212E+03  0.25500000000E-02 0.  1.
         -2   -1    0    0    0  501 -0.00000000000E+00 -0.00000000000E+00 -0.53864337537E+03  0.53864337537E+03  0.25500000000E-02 0. -1.
     200001    2    1    2    0    0 -0.26845012087E+03  0.79025723115E+02  0.20265067218E+03  0.70368607867E+03  0.61302224272E+03 0.  0.
    5000001    2    3    3    0    0 -0.26554011486E+03  0.30360894234E+03  0.19218775745E+03  0.45719761428E+03  0.96972067752E+02 0.  0.
        -11    1    4    4    0    0 -0.71998472729E+02  0.11944342226E+03  0.10500011791E+03  0.17457243757E+03  0.51100000000E-03 0. -1.
     200002    1    4    4    0    0 -0.19354164213E+03  0.18416552008E+03  0.87187639535E+02  0.28262517671E+03  0.30000000000E+02 0. -1.
     200000    1    3    3    0    0 -0.29100060039E+01 -0.22458321922E+03  0.10462914735E+02  0.24648846439E+03  0.10100000000E+03 0. -1.
    -200001    1    1    2    0    0  0.26845012087E+03 -0.79025723115E+02  0.10586866457E+03  0.68212000883E+03  0.61300000000E+03 0. -1.
<mgrwt>
<rscale>  0 0.13510271E+04</rscale>
<asrwt>0</asrwt>
<pdfrwt beam="1">  1        2 0.12102324E+00 0.13510271E+04</pdfrwt>
<pdfrwt beam="2">  1       -2 0.76949054E-01 0.13510271E+04</pdfrwt>
<totfact> 0.52032268E+01</totfact>
</mgrwt>
</event>
<event>
 8    1  0.6972317E-052  0.1863108E+04  0.7818608E-02  0.8673441E-01
         -2   -1    0    0    0  501 -0.00000000000E+00  0.00000000000E+00  0.65028055731E+03  0.65028055732E+03  0.25500000000E-02 0. -1.
          2   -1    0    0  501    0  0.00000000000E+00 -0.00000000000E+00 -0.13344894256E+04  0.13344894256E+04  0.25500000000E-02 0.  1.
     200001    2    1    2    0    0  0.25195905922E+03  0.28175159000E+03  0.28765147693E+03  0.77516308124E+03  0.61259048665E+03 0.  0.
    5000001    2    3    3    0    0  0.16889340183E+03  0.17205900998E+03 -0.15783988641E+03  0.29809293926E+03  0.76267205243E+02 0.  0.
        -11    1    4    4    0    0  0.11340337931E+03  0.13600475681E+03 -0.89788262007E+02  0.19854357786E+03  0.51100000000E-03 0. -1.
     200002    1    4    4    0    0  0.55490022523E+02  0.36054253168E+02 -0.68051624404E+02  0.99549361400E+02  0.30000000000E+02 0.  1.
     200000    1    3    3    0    0  0.83065657386E+02  0.10969258003E+03  0.44549136335E+03  0.47707014198E+03  0.10100000000E+03 0. -1.
    -200001    1    1    2    0    0 -0.25195905922E+03 -0.28175159000E+03 -0.97186034521E+03  0.12096069017E+04  0.61300000000E+03 0.  1.
<mgrwt>
<rscale>  0 0.18631076E+04</rscale>
<asrwt>0</asrwt>
<pdfrwt beam="1">  1        2 0.19064134E+00 0.18631076E+04</pdfrwt>
<pdfrwt beam="2">  1       -2 0.92897224E-01 0.18631076E+04</pdfrwt>
<totfact> 0.16631444E+01</totfact>
</mgrwt>
</event>
<event>
 8    1  0.6972317E-052  0.1297772E+04  0.7818608E-02  0.9031334E-01
          2   -1    0    0  501    0  0.00000000000E+00  0.00000000000E+00  0.30443567194E+04  0.30443567194E+04  0.25500000000E-02 0.  1.
         -2   -1    0    0    0  501 -0.00000000000E+00 -0.00000000000E+00 -0.13830598164E+03  0.13830598166E+03  0.25500000000E-02 0. -1.
     200001    2    1    2    0    0 -0.31359499850E+02  0.15632188027E+03  0.18017698377E+04  0.19096248954E+04  0.61226852319E+03 0.  0.
    5000001    2    3    3    0    0 -0.19084639109E+03  0.10317300230E+03  0.22698659393E+03  0.32267683807E+03  0.74366757389E+02 0.  0.
        -11    1    4    4    0    0 -0.84409674501E+02  0.40638748831E+02  0.14095178254E+03  0.16924510645E+03  0.51100000000E-03 0. -1.
     200002    1    4    4    0    0 -0.10643671659E+03  0.62534253471E+02  0.86034811385E+02  0.15343173161E+03  0.30000000000E+02 0. -1.
     200000    1    3    3    0    0  0.15948689124E+03  0.53148877964E+02  0.15747832438E+04  0.15869480573E+04  0.10100000000E+03 0.  1.
    -200001    1    1    2    0    0  0.31359499850E+02 -0.15632188027E+03  0.11042809000E+04  0.12730378057E+04  0.61300000000E+03 0. -1.
<mgrwt>
<rscale>  0 0.12977715E+04</rscale>
<asrwt>0</asrwt>
<pdfrwt beam="1">  1        2 0.43490808E+00 0.12977715E+04</pdfrwt>
<pdfrwt beam="2">  1       -2 0.19757998E-01 0.12977715E+04</pdfrwt>
<totfact> 0.48144392E+01</totfact>
</mgrwt>
</event>
<event>
 8    1  0.6972317E-052  0.1266230E+04  0.7818608E-02  0.9056782E-01
          2   -1    0    0  501    0  0.00000000000E+00  0.00000000000E+00  0.16474422741E+04  0.16474422741E+04  0.25500000000E-02 0.  1.
         -2   -1    0    0    0  501 -0.00000000000E+00 -0.00000000000E+00 -0.24330711179E+03  0.24330711181E+03  0.25500000000E-02 0. -1.
     200001    2    1    2    0    0  0.17099324097E+03  0.10487539214E+02  0.77062882411E+03  0.99272491103E+03  0.60190139350E+03 0.  0.
    5000001    2    3    3    0    0 -0.86211778238E+02  0.14367446233E+03  0.49213386668E+03  0.57841389294E+03  0.25355880380E+03 0.  0.
        -11    1    4    4    0    0  0.51597807615E+02  0.15269132817E+03  0.23419403134E+03  0.28429530381E+03  0.51100000000E-03 0. -1.
     200002    1    4    4    0    0 -0.13780958585E+03 -0.90168658382E+01  0.25793983533E+03  0.29411858913E+03  0.30000000000E+02 0. -1.
     200000    1    3    3    0    0  0.25720501921E+03 -0.13318692312E+03  0.27849495743E+03  0.41431101809E+03  0.10100000000E+03 0. -1.
    -200001    1    1    2    0    0 -0.17099324097E+03 -0.10487539214E+02  0.63350633819E+03  0.89802447487E+03  0.61300000000E+03 0. -1.
<mgrwt>
<rscale>  0 0.12662297E+04</rscale>
<asrwt>0</asrwt>
<pdfrwt beam="1">  1        2 0.23534891E+00 0.12662297E+04</pdfrwt>
<pdfrwt beam="2">  1       -2 0.34758157E-01 0.12662297E+04</pdfrwt>
<totfact> 0.93161962E+01</totfact>
</mgrwt>
</event>
<event>
 8    1  0.6972317E-052  0.1425054E+04  0.7818608E-02  0.8935880E-01
          2   -1    0    0  501    0  0.00000000000E+00  0.00000000000E+00  0.13185735284E+04  0.13185735284E+04  0.25500000000E-02 0.  1.
         -2   -1    0    0    0  501 -0.00000000000E+00 -0.00000000000E+00 -0.38503328055E+03  0.38503328056E+03  0.25500000000E-02 0. -1.
     200001    2    1    2    0    0 -0.43457067741E+02  0.34228851143E+03  0.60137008727E+03  0.92568910291E+03  0.61335502899E+03 0.  0.
    5000001    2    3    3    0    0 -0.11196612532E+03 -0.14397499643E+03  0.20789728765E+03  0.28837635858E+03  0.81697179606E+02 0.  0.
        -11    1    4    4    0    0 -0.59793512746E+02 -0.12162383889E+03  0.14574139674E+03  0.19901803204E+03  0.51100000000E-03 0. -1.
     200002    1    4    4    0    0 -0.52172612571E+02 -0.22351157540E+02  0.62155890915E+02  0.89358326536E+02  0.30000000000E+02 0.  1.
     200000    1    3    3    0    0  0.68509057576E+02  0.48626350787E+03  0.39347279962E+03  0.63731274434E+03  0.10100000000E+03 0.  1.
    -200001    1    1    2    0    0  0.43457067741E+02 -0.34228851143E+03  0.33217016057E+03  0.77791770604E+03  0.61300000000E+03 0. -1.
<mgrwt>
<rscale>  0 0.14250540E+04</rscale>
<asrwt>0</asrwt>
<pdfrwt beam="1">  1        2 0.18836764E+00 0.14250540E+04</pdfrwt>
<pdfrwt beam="2">  1       -2 0.55004756E-01 0.14250540E+04</pdfrwt>
<totfact> 0.55428245E+01</totfact>
</mgrwt>
</event>
<event>
 8    1  0.6972317E-052  0.2007700E+04  0.7818608E-02  0.8603029E-01
          2   -1    0    0  501    0  0.00000000000E+00  0.00000000000E+00  0.32451531935E+04  0.32451531935E+04  0.25500000000E-02 0.  1.
         -2   -1    0    0    0  501 -0.00000000000E+00 -0.00000000000E+00 -0.31052907809E+03  0.31052907810E+03  0.25500000000E-02 0. -1.
     200001    2    1    2    0    0 -0.72315347426E+03 -0.28258917597E+03  0.17732626754E+04  0.20301210686E+04  0.61165631491E+03 0.  0.
    5000001    2    3    3    0    0 -0.42881333087E+03 -0.10979765773E+03  0.15408492286E+04  0.16050210344E+04  0.77069951940E+02 0.  0.
        -11    1    4    4    0    0 -0.33539412462E+02 -0.46811258840E+01  0.20030118096E+03  0.20314371322E+03  0.51100000000E-03 0. -1.
     200002    1    4    4    0    0 -0.39527391841E+03 -0.10511653185E+03  0.13405480476E+04  0.14018773212E+04  0.30000000000E+02 0. -1.
     200000    1    3    3    0    0 -0.29434014339E+03 -0.17279151824E+03  0.23241344686E+03  0.42510003419E+03  0.10100000000E+03 0. -1.
    -200001    1    1    2    0    0  0.72315347426E+03  0.28258917597E+03  0.11613614400E+04  0.15255612030E+04  0.61300000000E+03 0.  1.
<mgrwt>
<rscale>  0 0.20076996E+04</rscale>
<asrwt>0</asrwt>
<pdfrwt beam="1">  1        2 0.46359332E+00 0.20076996E+04</pdfrwt>
<pdfrwt beam="2">  1       -2 0.44361296E-01 0.20076996E+04</pdfrwt>
<totfact> 0.76827163E+00</totfact>
</mgrwt>
</event>
<event>
 8    1  0.6972317E-052  0.2766029E+04  0.7818608E-02  0.8313893E-01
         -2   -1    0    0    0  501 -0.00000000000E+00  0.00000000000E+00  0.11191705490E+04  0.11191705490E+04  0.25500000000E-02 0. -1.
          2   -1    0    0  501    0  0.00000000000E+00 -0.00000000000E+00 -0.17090594930E+04  0.17090594930E+04  0.25500000000E-02 0.  1.
     200001    2    1    2    0    0 -0.42730419309E+03 -0.10521162715E+04  0.21961139371E+03  0.13048793539E+04  0.60410548891E+03 0.  0.
    5000001    2    3    3    0    0 -0.42103309694E+03 -0.98192716583E+03  0.20399034219E+02  0.10706734586E+04  0.66900722294E+02 0.  0.
        -11    1    4    4    0    0 -0.10546763282E+03 -0.31195816542E+03  0.64412807386E+01  0.32936728533E+03  0.51100000000E-03 0. -1.
     200002    1    4    4    0    0 -0.31556546412E+03 -0.66996900041E+03  0.13957753481E+02  0.74130617327E+03  0.30000000000E+02 0.  1.
     200000    1    3    3    0    0 -0.62710961537E+01 -0.70189105644E+02  0.19921235949E+03  0.23420589525E+03  0.10100000000E+03 0. -1.
    -200001    1    1    2    0    0  0.42730419309E+03  0.10521162715E+04 -0.80950033770E+03  0.15233506881E+04  0.61300000000E+03 0.  1.
<mgrwt>
<rscale>  0 0.27660290E+04</rscale>
<asrwt>0</asrwt>
<pdfrwt beam="1">  1        2 0.24415135E+00 0.27660290E+04</pdfrwt>
<pdfrwt beam="2">  1       -2 0.15988151E+00 0.27660290E+04</pdfrwt>
<totfact> 0.25170923E+00</totfact>
</mgrwt>
</event>
<event>
 8    1  0.6972317E-052  0.1312102E+04  0.7818608E-02  0.9020023E-01
          2   -1    0    0  501    0  0.00000000000E+00  0.00000000000E+00  0.85125378066E+03  0.85125378066E+03  0.25500000000E-02 0.  1.
         -2   -1    0    0    0  501 -0.00000000000E+00 -0.00000000000E+00 -0.50561037617E+03  0.50561037617E+03  0.25500000000E-02 0. -1.
     200001    2    1    2    0    0 -0.10363173820E+03  0.85877949139E+02 -0.26034125634E+02  0.62746183595E+03  0.61230386294E+03 0.  0.
    5000001    2    3    3    0    0  0.16883110832E+03 -0.12215468336E+03 -0.12444114040E+03  0.25678877316E+03  0.83840126399E+02 0.  0.
        -11    1    4    4    0    0  0.12996492029E+02 -0.27642157883E+02  0.53892787386E+01  0.31016802270E+02  0.51100000000E-03 0. -1.
     200002    1    4    4    0    0  0.15583461629E+03 -0.94512525479E+02 -0.12983041914E+03  0.22577197089E+03  0.30000000000E+02 0. -1.
     200000    1    3    3    0    0 -0.27246284652E+03  0.20803263250E+03  0.98407014769E+02  0.37067306279E+03  0.10100000000E+03 0. -1.
    -200001    1    1    2    0    0  0.10363173820E+03 -0.85877949139E+02  0.37167753012E+03  0.72940232088E+03  0.61300000000E+03 0.  1.
<mgrwt>
<rscale>  0 0.13121017E+04</rscale>
<asrwt>0</asrwt>
<pdfrwt beam="1">  1        2 0.12160768E+00 0.13121017E+04</pdfrwt>
<pdfrwt beam="2">  1       -2 0.72230054E-01 0.13121017E+04</pdfrwt>
<totfact> 0.59637752E+01</totfact>
</mgrwt>
</event>
<event>
 8    1  0.6972317E-052  0.1411925E+04  0.7818608E-02  0.8945231E-01
          2   -1    0    0  501    0  0.00000000000E+00  0.00000000000E+00  0.24763643086E+04  0.24763643086E+04  0.25500000000E-02 0.  1.
         -2   -1    0    0    0  501 -0.00000000000E+00 -0.00000000000E+00 -0.20125603629E+03  0.20125603631E+03  0.25500000000E-02 0. -1.
     200001    2    1    2    0    0 -0.32984308451E+03  0.10514531422E+03  0.12429362138E+04  0.14282204266E+04  0.61243053312E+03 0.  0.
    5000001    2    3    3    0    0 -0.35536519169E+02  0.27404325442E+03  0.85428015002E+03  0.90248531791E+03  0.91228421173E+02 0.  0.
        -11    1    4    4    0    0  0.16223172812E+02  0.16266738504E+03  0.44232193022E+03  0.47156395054E+03  0.51100000000E-03 0. -1.
     200002    1    4    4    0    0 -0.51759691981E+02  0.11137586937E+03  0.41195821980E+03  0.43092136737E+03  0.30000000000E+02 0.  1.
     200000    1    3    3    0    0 -0.29430656534E+03 -0.16889794019E+03  0.38865606375E+03  0.52573510868E+03  0.10100000000E+03 0. -1.
    -200001    1    1    2    0    0  0.32984308451E+03 -0.10514531422E+03  0.10321720585E+04  0.12493999183E+04  0.61300000000E+03 0. -1.
<mgrwt>
<rscale>  0 0.14119253E+04</rscale>
<asrwt>0</asrwt>
<pdfrwt beam="1">  1        2 0.35376633E+00 0.14119253E+04</pdfrwt>
<pdfrwt beam="2">  1       -2 0.28750862E-01 0.14119253E+04</pdfrwt>
<totfact> 0.49117185E+01</totfact>
</mgrwt>
</event>
<event>
 8    1  0.6972317E-052  0.1278098E+04  0.7818608E-02  0.9047116E-01
          2   -1    0    0  501    0  0.00000000000E+00  0.00000000000E+00  0.10628893846E+04  0.10628893846E+04  0.25500000000E-02 0.  1.
         -2   -1    0    0    0  501 -0.00000000000E+00 -0.00000000000E+00 -0.38422043290E+03  0.38422043291E+03  0.25500000000E-02 0. -1.
     200001    2    1    2    0    0 -0.72584599740E+02 -0.15964851385E+02  0.52404878939E+03  0.81055675987E+03  0.61388250237E+03 0.  0.
    5000001    2    3    3    0    0 -0.25908448501E+03 -0.19692682559E+03  0.31387735932E+03  0.46141141288E+03  0.92068182481E+02 0.  0.
        -11    1    4    4    0    0 -0.20406085936E+03 -0.13501951240E+03  0.19195582243E+03  0.31099540321E+03  0.51100000000E-03 0. -1.
     200002    1    4    4    0    0 -0.55023625653E+02 -0.61907313189E+02  0.12192153689E+03  0.15041600967E+03  0.30000000000E+02 0. -1.
     200000    1    3    3    0    0  0.18649988527E+03  0.18096197421E+03  0.21017143006E+03  0.34914534700E+03  0.10100000000E+03 0. -1.
    -200001    1    1    2    0    0  0.72584599740E+02  0.15964851385E+02  0.15462016232E+03  0.63655305764E+03  0.61300000000E+03 0. -1.
<mgrwt>
<rscale>  0 0.12780983E+04</rscale>
<asrwt>0</asrwt>
<pdfrwt beam="1">  1        2 0.15184134E+00 0.12780983E+04</pdfrwt>
<pdfrwt beam="2">  1       -2 0.54888634E-01 0.12780983E+04</pdfrwt>
<totfact> 0.78843716E+01</totfact>
</mgrwt>
</event>
<event>
 8    1  0.6972317E-052  0.1717730E+04  0.7818608E-02  0.8751316E-01
          2   -1    0    0  501    0  0.00000000000E+00  0.00000000000E+00  0.18321257055E+04  0.18321257055E+04  0.25500000000E-02 0.  1.
         -2   -1    0    0    0  501 -0.00000000000E+00 -0.00000000000E+00 -0.40261931750E+03  0.40261931751E+03  0.25500000000E-02 0. -1.
     200001    2    1    2    0    0 -0.92362346239E+01  0.27354532875E+02  0.14965217722E+04  0.16174172007E+04  0.61288449813E+03 0.  0.
    5000001    2    3    3    0    0  0.60297265928E+02  0.10147663488E+03  0.33964926350E+02  0.14785858637E+03  0.82312074665E+02 0.  0.
        -11    1    4    4    0    0  0.28023014007E+02  0.91486709397E+02  0.36970855455E+02  0.10257656391E+03  0.51100000000E-03 0. -1.
     200002    1    4    4    0    0  0.32274251921E+02  0.99899254872E+01 -0.30059291051E+01  0.45282022460E+02  0.30000000000E+02 0. -1.
     200000    1    3    3    0    0 -0.69533500552E+02 -0.74122102010E+02  0.14625568458E+04  0.14695586143E+04  0.10100000000E+03 0.  1.
    -200001    1    1    2    0    0  0.92362346239E+01 -0.27354532875E+02 -0.67015384151E+02  0.61732782232E+03  0.61300000000E+03 0. -1.
<mgrwt>
<rscale>  0 0.17177301E+04</rscale>
<asrwt>0</asrwt>
<pdfrwt beam="1">  1        2 0.26173224E+00 0.17177301E+04</pdfrwt>
<pdfrwt beam="2">  1       -2 0.57517046E-01 0.17177301E+04</pdfrwt>
<totfact> 0.26415014E+01</totfact>
</mgrwt>
</event>
<event>
 8    1  0.6972317E-052  0.1250729E+04  0.7818608E-02  0.9069576E-01
         -2   -1    0    0    0  501 -0.00000000000E+00  0.00000000000E+00  0.75052073461E+03  0.75052073461E+03  0.25500000000E-02 0. -1.
          2   -1    0    0  501    0  0.00000000000E+00 -0.00000000000E+00 -0.52107956879E+03  0.52107956880E+03  0.25500000000E-02 0.  1.
     200001    2    1    2    0    0  0.80924857504E+01  0.12598835307E+03  0.67030635555E+02  0.62500558198E+03  0.60844089111E+03 0.  0.
    5000001    2    3    3    0    0  0.11017879533E+03  0.33823019927E+03  0.62274821886E+02  0.36870140011E+03  0.74320484124E+02 0.  0.
        -11    1    4    4    0    0 -0.21715858234E+01  0.37055435168E+02 -0.87495227398E+01  0.38136271566E+02  0.51100000000E-03 0. -1.
     200002    1    4    4    0    0  0.11235038116E+03  0.30117476410E+03  0.71024344626E+02  0.33056512854E+03  0.30000000000E+02 0. -1.
     200000    1    3    3    0    0 -0.10208630958E+03 -0.21224184620E+03  0.47558136693E+01  0.25630418188E+03  0.10100000000E+03 0.  1.
    -200001    1    1    2    0    0 -0.80924857504E+01 -0.12598835307E+03  0.16241053026E+03  0.64659472143E+03  0.61300000000E+03 0.  1.
<mgrwt>
<rscale>  0 0.12507294E+04</rscale>
<asrwt>0</asrwt>
<pdfrwt beam="1">  1        2 0.74439939E-01 0.12507294E+04</pdfrwt>
<pdfrwt beam="2">  1       -2 0.10721725E+00 0.12507294E+04</pdfrwt>
<totfact> 0.44065899E+01</totfact>
</mgrwt>
</event>
<event>
 8    1  0.6972317E-052  0.1333197E+04  0.7818608E-02  0.9003646E-01
          2   -1    0    0  501    0  0.00000000000E+00  0.00000000000E+00  0.53458498071E+03  0.53458498071E+03  0.25500000000E-02 0.  1.
         -2   -1    0    0    0  501 -0.00000000000E+00 -0.00000000000E+00 -0.83121231918E+03  0.83121231918E+03  0.25500000000E-02 0. -1.
     200001    2    1    2    0    0 -0.11349003885E+03  0.68923918953E+02  0.82591568454E+02  0.63285359476E+03  0.61323063337E+03 0.  0.
    5000001    2    3    3    0    0 -0.55582630301E+02 -0.41020604977E+02 -0.24551265055E+03  0.26775847724E+03  0.81523136185E+02 0.  0.
        -11    1    4    4    0    0 -0.22951935268E+02  0.20584322903E+02 -0.77064556052E+02  0.83002719724E+02  0.51100000000E-03 0. -1.
     200002    1    4    4    0    0 -0.32630695033E+02 -0.61604927880E+02 -0.16844809450E+03  0.18475575752E+03  0.30000000000E+02 0. -1.
     200000    1    3    3    0    0 -0.57907408553E+02  0.10994452393E+03  0.32810421900E+03  0.36509511752E+03  0.10100000000E+03 0.  1.
    -200001    1    1    2    0    0  0.11349003885E+03 -0.68923918953E+02 -0.37921890693E+03  0.73294370513E+03  0.61300000000E+03 0. -1.
<mgrwt>
<rscale>  0 0.13331971E+04</rscale>
<asrwt>0</asrwt>
<pdfrwt beam="1">  1        2 0.76369283E-01 0.13331971E+04</pdfrwt>
<pdfrwt beam="2">  1       -2 0.11874462E+00 0.13331971E+04</pdfrwt>
<totfact> 0.33168587E+01</totfact>
</mgrwt>
</event>
<event>
 8    1  0.6972317E-052  0.1342246E+04  0.7818608E-02  0.8996718E-01
          2   -1    0    0  501    0  0.00000000000E+00  0.00000000000E+00  0.10427632973E+04  0.10427632973E+04  0.25500000000E-02 0.  1.
         -2   -1    0    0    0  501 -0.00000000000E+00 -0.00000000000E+00 -0.43193541459E+03  0.43193541460E+03  0.25500000000E-02 0. -1.
     200001    2    1    2    0    0  0.56389761536E+02 -0.25956818939E+03  0.37508013944E+03  0.76624867934E+03  0.61310396952E+03 0.  0.
    5000001    2    3    3    0    0  0.30677975450E+03 -0.59631402513E+02  0.19674357457E+03  0.38588727529E+03  0.11194299068E+03 0.  0.
        -11    1    4    4    0    0  0.14264068871E+03  0.24993518338E+02  0.82190768196E+02  0.16651235513E+03  0.51100000000E-03 0. -1.
     200002    1    4    4    0    0  0.16413906579E+03 -0.84624920851E+02  0.11455280637E+03  0.21937492016E+03  0.30000000000E+02 0. -1.
     200000    1    3    3    0    0 -0.25038999296E+03 -0.19993678688E+03  0.17833656487E+03  0.38036140405E+03  0.10100000000E+03 0. -1.
    -200001    1    1    2    0    0 -0.56389761536E+02  0.25956818939E+03  0.23574774325E+03  0.70845003253E+03  0.61300000000E+03 0. -1.
<mgrwt>
<rscale>  0 0.13422465E+04</rscale>
<asrwt>0</asrwt>
<pdfrwt beam="1">  1        2 0.14896618E+00 0.13422465E+04</pdfrwt>
<pdfrwt beam="2">  1       -2 0.61705060E-01 0.13422465E+04</pdfrwt>
<totfact> 0.63129670E+01</totfact>
</mgrwt>
</event>
<event>
 8    1  0.6972317E-052  0.1565995E+04  0.7818608E-02  0.8841716E-01
          2   -1    0    0  501    0  0.00000000000E+00  0.00000000000E+00  0.17621795755E+04  0.17621795755E+04  0.25500000000E-02 0.  1.
         -2   -1    0    0    0  501 -0.00000000000E+00 -0.00000000000E+00 -0.34791273201E+03  0.34791273202E+03  0.25500000000E-02 0. -1.
     200001    2    1    2    0    0 -0.43246667676E+03 -0.15363936232E+03  0.48866147218E+03  0.90878186324E+03  0.61356496020E+03 0.  0.
    5000001    2    3    3    0    0 -0.44972266697E+03 -0.85907980721E+02  0.67181462985E+02  0.46976966818E+03  0.80867384280E+02 0.  0.
        -11    1    4    4    0    0 -0.31912298387E+03 -0.85468531630E+02  0.37227719995E+02  0.33246090277E+03  0.51100000000E-03 0. -1.
     200002    1    4    4    0    0 -0.13059968310E+03 -0.43944909037E+00  0.29953742990E+02  0.13730876542E+03  0.30000000000E+02 0.  1.
     200000    1    3    3    0    0  0.17255990209E+02 -0.67731381602E+02  0.42148000920E+03  0.43901219505E+03  0.10100000000E+03 0.  1.
    -200001    1    1    2    0    0  0.43246667676E+03  0.15363936232E+03  0.92560537128E+03  0.12013104443E+04  0.61300000000E+03 0.  1.
<mgrwt>
<rscale>  0 0.15659945E+04</rscale>
<asrwt>0</asrwt>
<pdfrwt beam="1">  1        2 0.25173994E+00 0.15659945E+04</pdfrwt>
<pdfrwt beam="2">  1       -2 0.49701818E-01 0.15659945E+04</pdfrwt>
<totfact> 0.39276064E+01</totfact>
</mgrwt>
</event>
<event>
 8    1  0.6972317E-052  0.1354980E+04  0.7818608E-02  0.8987067E-01
          2   -1    0    0  501    0  0.00000000000E+00  0.00000000000E+00  0.26283393923E+04  0.26283393923E+04  0.25500000000E-02 0.  1.
         -2   -1    0    0    0  501 -0.00000000000E+00 -0.00000000000E+00 -0.17463213417E+03  0.17463213419E+03  0.25500000000E-02 0. -1.
     200001    2    1    2    0    0  0.11833628596E+02 -0.28242264513E+03  0.13452717212E+04  0.15051653296E+04  0.61307754830E+03 0.  0.
    5000001    2    3    3    0    0  0.10176275482E+03  0.40746459851E+02  0.45159439744E+03  0.54527696254E+03  0.28526046662E+03 0.  0.
        -11    1    4    4    0    0 -0.17880227825E+02 -0.13042757857E+02  0.40085245447E+03  0.40146295761E+03  0.51100000000E-03 0. -1.
     200002    1    4    4    0    0  0.11964298264E+03  0.53789217707E+02  0.50741942972E+02  0.14381400493E+03  0.30000000000E+02 0. -1.
     200000    1    3    3    0    0 -0.89929126223E+02 -0.32316910498E+03  0.89367732377E+03  0.95988836704E+03  0.10100000000E+03 0. -1.
    -200001    1    1    2    0    0 -0.11833628596E+02  0.28242264513E+03  0.11084355369E+04  0.12978061969E+04  0.61300000000E+03 0.  1.
<mgrwt>
<rscale>  0 0.13549797E+04</rscale>
<asrwt>0</asrwt>
<pdfrwt beam="1">  1        2 0.37547708E+00 0.13549797E+04</pdfrwt>
<pdfrwt beam="2">  1       -2 0.24947446E-01 0.13549797E+04</pdfrwt>
<totfact> 0.53209709E+01</totfact>
</mgrwt>
</event>
<event>
 8    1  0.6972317E-052  0.1347528E+04  0.7818608E-02  0.8992702E-01
          2   -1    0    0  501    0  0.00000000000E+00  0.00000000000E+00  0.28953009191E+03  0.28953009192E+03  0.25500000000E-02 0.  1.
         -2   -1    0    0    0  501 -0.00000000000E+00 -0.00000000000E+00 -0.15679117588E+04  0.15679117588E+04  0.25500000000E-02 0. -1.
     200001    2    1    2    0    0 -0.19690064522E+03 -0.11338757119E+03 -0.86328381571E+03  0.10830376724E+04  0.61325773372E+03 0.  0.
    5000001    2    3    3    0    0 -0.25676906967E+03 -0.25119082349E+02 -0.74592501411E+02  0.28078425631E+03  0.81941649293E+02 0.  0.
        -11    1    4    4    0    0 -0.11168599552E+03 -0.37644568806E+02 -0.57457917607E+02  0.13111936337E+03  0.51100000000E-03 0. -1.
     200002    1    4    4    0    0 -0.14508307415E+03  0.12525486457E+02 -0.17134583804E+02  0.14966489294E+03  0.30000000000E+02 0. -1.
     200000    1    3    3    0    0  0.59868424450E+02 -0.88268488843E+02 -0.78869131429E+03  0.80225341608E+03  0.10100000000E+03 0. -1.
    -200001    1    1    2    0    0  0.19690064522E+03  0.11338757119E+03 -0.41509785123E+03  0.77440417838E+03  0.61300000000E+03 0.  1.
<mgrwt>
<rscale>  0 0.13475276E+04</rscale>
<asrwt>0</asrwt>
<pdfrwt beam="1">  1        2 0.41361443E-01 0.13475276E+04</pdfrwt>
<pdfrwt beam="2">  1       -2 0.22398739E+00 0.13475276E+04</pdfrwt>
<totfact> 0.11323667E+01</totfact>
</mgrwt>
</event>
<event>
 8    1  0.6972317E-052  0.1594378E+04  0.7818608E-02  0.8824009E-01
          2   -1    0    0  501    0  0.00000000000E+00  0.00000000000E+00  0.79938839005E+03  0.79938839005E+03  0.25500000000E-02 0.  1.
         -2   -1    0    0    0  501 -0.00000000000E+00 -0.00000000000E+00 -0.79499607701E+03  0.79499607701E+03  0.25500000000E-02 0. -1.
     200001    2    1    2    0    0 -0.49536667833E+03  0.11987812304E+03 -0.34247273676E+01  0.79714609837E+03  0.61292027459E+03 0.  0.
    5000001    2    3    3    0    0 -0.55311460065E+03 -0.59685259430E+02 -0.91109558035E+02  0.56591577946E+03  0.49614778271E+02 0.  0.
        -11    1    4    4    0    0 -0.22430385403E+03 -0.23982836144E+02 -0.21561396716E+02  0.22661043487E+03  0.51100000000E-03 0. -1.
     200002    1    4    4    0    0 -0.32881074662E+03 -0.35702423286E+02 -0.69548161319E+02  0.33930534459E+03  0.30000000000E+02 0.  1.
     200000    1    3    3    0    0  0.57747922321E+02  0.17956338247E+03  0.87684830667E+02  0.23123031892E+03  0.10100000000E+03 0.  1.
    -200001    1    1    2    0    0  0.49536667833E+03 -0.11987812304E+03  0.78170404075E+01  0.79723836869E+03  0.61300000000E+03 0.  1.
<mgrwt>
<rscale>  0 0.15943784E+04</rscale>
<asrwt>0</asrwt>
<pdfrwt beam="1">  1        2 0.11419834E+00 0.15943784E+04</pdfrwt>
<pdfrwt beam="2">  1       -2 0.11357087E+00 0.15943784E+04</pdfrwt>
<totfact> 0.22243237E+01</totfact>
</mgrwt>
</event>
<event>
 8    1  0.6972317E-052  0.1427448E+04  0.7818608E-02  0.8934186E-01
         -2   -1    0    0    0  501 -0.00000000000E+00  0.00000000000E+00  0.14103922600E+03  0.14103922603E+03  0.25500000000E-02 0. -1.
          2   -1    0    0  501    0  0.00000000000E+00 -0.00000000000E+00 -0.36117766921E+04  0.36117766921E+04  0.25500000000E-02 0.  1.
     200001    2    1    2    0    0 -0.34564257104E+03  0.11258508089E+03 -0.18689918649E+04  0.19996752626E+04  0.61108622726E+03 0.  0.
    5000001    2    3    3    0    0 -0.23515175325E+03 -0.12198410835E+01 -0.25254690776E+03  0.37232923892E+03  0.13982591487E+03 0.  0.
        -11    1    4    4    0    0 -0.21325943811E+03 -0.42304262920E+02 -0.21222391016E+03  0.30382268949E+03  0.51100000000E-03 0. -1.
     200002    1    4    4    0    0 -0.21892315133E+02  0.41084421837E+02 -0.40322997606E+02  0.68506549435E+02  0.30000000000E+02 0. -1.
     200000    1    3    3    0    0 -0.11049081780E+03  0.11380492197E+03 -0.16164449572E+04  0.16273460236E+04  0.10100000000E+03 0.  1.
    -200001    1    1    2    0    0  0.34564257104E+03 -0.11258508089E+03 -0.16017456012E+04  0.17531406556E+04  0.61300000000E+03 0.  1.
<mgrwt>
<rscale>  0 0.14274483E+04</rscale>
<asrwt>0</asrwt>
<pdfrwt beam="1">  1        2 0.51596804E+00 0.14274483E+04</pdfrwt>
<pdfrwt beam="2">  1       -2 0.20148463E-01 0.14274483E+04</pdfrwt>
<totfact> 0.21324024E+01</totfact>
</mgrwt>
</event>
<event>
 8    1  0.6972317E-052  0.1571355E+04  0.7818608E-02  0.8838342E-01
          2   -1    0    0  501    0  0.00000000000E+00  0.00000000000E+00  0.15570476704E+04  0.15570476704E+04  0.25500000000E-02 0.  1.
         -2   -1    0    0    0  501 -0.00000000000E+00 -0.00000000000E+00 -0.39644848808E+03  0.39644848809E+03  0.25500000000E-02 0. -1.
     200001    2    1    2    0    0  0.28850378579E+03  0.39208595449E+03  0.48840818006E+03  0.92171344221E+03  0.61159405579E+03 0.  0.
    5000001    2    3    3    0    0  0.35835585945E+02  0.41974540942E+03  0.29690759534E+03  0.58782762549E+03  0.28269559454E+03 0.  0.
        -11    1    4    4    0    0 -0.81746065606E+01  0.39720468473E+03  0.14104897060E+03  0.42158415277E+03  0.51100000000E-03 0. -1.
     200002    1    4    4    0    0  0.44010192505E+02  0.22540724688E+02  0.15585862474E+03  0.16624347272E+03  0.30000000000E+02 0. -1.
     200000    1    3    3    0    0  0.25266819984E+03 -0.27659454927E+02  0.19150058472E+03  0.33388581672E+03  0.10100000000E+03 0.  1.
    -200001    1    1    2    0    0 -0.28850378579E+03 -0.39208595449E+03  0.67219100231E+03  0.10317827163E+04  0.61300000000E+03 0.  1.
<mgrwt>
<rscale>  0 0.15713551E+04</rscale>
<asrwt>0</asrwt>
<pdfrwt beam="1">  1        2 0.22243538E+00 0.15713551E+04</pdfrwt>
<pdfrwt beam="2">  1       -2 0.56635498E-01 0.15713551E+04</pdfrwt>
<totfact> 0.38383322E+01</totfact>
</mgrwt>
</event>
<event>
 8    1  0.6972317E-052  0.1355533E+04  0.7818608E-02  0.8986650E-01
         -2   -1    0    0    0  501 -0.00000000000E+00  0.00000000000E+00  0.63660935559E+03  0.63660935559E+03  0.25500000000E-02 0. -1.
          2   -1    0    0  501    0  0.00000000000E+00 -0.00000000000E+00 -0.72158418233E+03  0.72158418234E+03  0.25500000000E-02 0.  1.
     200001    2    1    2    0    0 -0.24201104311E+03 -0.75352295949E+02 -0.18273388700E+03  0.68769137734E+03  0.61260137407E+03 0.  0.
    5000001    2    3    3    0    0 -0.11976466244E+03 -0.75396453201E+02  0.20840214656E+03  0.26563382642E+03  0.84271439536E+02 0.  0.
        -11    1    4    4    0    0 -0.85198083124E+01 -0.62525597774E+01 -0.63334202742E+01  0.12320464686E+02  0.51100000000E-03 0. -1.
     200002    1    4    4    0    0 -0.11124485412E+03 -0.69143893424E+02  0.21473556684E+03  0.25331336173E+03  0.30000000000E+02 0. -1.
     200000    1    3    3    0    0 -0.12224638068E+03  0.44157251931E-01 -0.39113603356E+03  0.42205755092E+03  0.10100000000E+03 0.  1.
    -200001    1    1    2    0    0  0.24201104311E+03  0.75352295949E+02  0.97759060259E+02  0.67050216059E+03  0.61300000000E+03 0. -1.
<mgrwt>
<rscale>  0 0.13555327E+04</rscale>
<asrwt>0</asrwt>
<pdfrwt beam="1">  1        2 0.10308345E+00 0.13555327E+04</pdfrwt>
<pdfrwt beam="2">  1       -2 0.90944194E-01 0.13555327E+04</pdfrwt>
<totfact> 0.43731528E+01</totfact>
</mgrwt>
</event>
<event>
 8    1  0.6972317E-052  0.1308316E+04  0.7818608E-02  0.9022996E-01
          2   -1    0    0  501    0  0.00000000000E+00  0.00000000000E+00  0.72002837776E+03  0.72002837776E+03  0.25500000000E-02 0.  1.
         -2   -1    0    0    0  501 -0.00000000000E+00 -0.00000000000E+00 -0.59431353148E+03  0.59431353148E+03  0.25500000000E-02 0. -1.
     200001    2    1    2    0    0 -0.12345418176E+03 -0.12306547315E+02  0.25732583542E+03  0.67521528755E+03  0.61180610724E+03 0.  0.
    5000001    2    3    3    0    0 -0.16231076037E+03 -0.67273907555E+02 -0.11930873895E+03  0.27950599147E+03  0.18170983052E+03 0.  0.
        -11    1    4    4    0    0 -0.74462493799E+02 -0.69849522606E+02  0.27551115363E+02  0.10574820447E+03  0.51100000000E-03 0. -1.
     200002    1    4    4    0    0 -0.87848266575E+02  0.25756150514E+01 -0.14685985431E+03  0.17375778699E+03  0.30000000000E+02 0. -1.
     200000    1    3    3    0    0  0.38856578615E+02  0.54967360239E+02  0.37663457437E+03  0.39570929608E+03  0.10100000000E+03 0. -1.
    -200001    1    1    2    0    0  0.12345418176E+03  0.12306547315E+02 -0.13161098914E+03  0.63912662170E+03  0.61300000000E+03 0. -1.
<mgrwt>
<rscale>  0 0.13083159E+04</rscale>
<asrwt>0</asrwt>
<pdfrwt beam="1">  1        2 0.10286120E+00 0.13083159E+04</pdfrwt>
<pdfrwt beam="2">  1       -2 0.84901934E-01 0.13083159E+04</pdfrwt>
<totfact> 0.51513292E+01</totfact>
</mgrwt>
</event>
<event>
 8    1  0.6972317E-052  0.2264574E+04  0.7818608E-02  0.8492022E-01
         -2   -1    0    0    0  501 -0.00000000000E+00  0.00000000000E+00  0.85293930581E+03  0.85293930582E+03  0.25500000000E-02 0. -1.
          2   -1    0    0  501    0  0.00000000000E+00 -0.00000000000E+00 -0.15031238755E+04  0.15031238755E+04  0.25500000000E-02 0.  1.
     200001    2    1    2    0    0 -0.73623127585E+02 -0.72860363884E+03 -0.95792537478E+03  0.13526903540E+04  0.61307955661E+03 0.  0.
    5000001    2    3    3    0    0 -0.17443720628E+03 -0.76088963706E+03 -0.90217565091E+03  0.11961180197E+04  0.86000193920E+02 0.  0.
        -11    1    4    4    0    0 -0.72923809358E+02 -0.43697805331E+03 -0.47232917033E+03  0.64758207679E+03  0.51100000000E-03 0. -1.
     200002    1    4    4    0    0 -0.10151339692E+03 -0.32391158375E+03 -0.42984648058E+03  0.54853594296E+03  0.30000000000E+02 0. -1.
     200000    1    3    3    0    0  0.10081407869E+03  0.32285998219E+02 -0.55749723873E+02  0.15657233426E+03  0.10100000000E+03 0. -1.
    -200001    1    1    2    0    0  0.73623127585E+02  0.72860363884E+03  0.30774080510E+03  0.10033728273E+04  0.61300000000E+03 0. -1.
<mgrwt>
<rscale>  0 0.22645736E+04</rscale>
<asrwt>0</asrwt>
<pdfrwt beam="1">  1        2 0.21473198E+00 0.22645736E+04</pdfrwt>
<pdfrwt beam="2">  1       -2 0.12184847E+00 0.22645736E+04</pdfrwt>
<totfact> 0.68039741E+00</totfact>
</mgrwt>
</event>
<event>
 8    1  0.6972317E-052  0.1562492E+04  0.7818608E-02  0.8843928E-01
         -2   -1    0    0    0  501 -0.00000000000E+00  0.00000000000E+00  0.16936898602E+04  0.16936898602E+04  0.25500000000E-02 0.  1.
          2   -1    0    0  501    0  0.00000000000E+00 -0.00000000000E+00 -0.36036444930E+03  0.36036444931E+03  0.25500000000E-02 0. -1.
     200001    2    1    2    0    0  0.13592808378E+03 -0.29906976278E+03  0.11341142715E+04  0.13306089107E+04  0.61350283249E+03 0.  0.
    5000001    2    3    3    0    0 -0.88913291948E+02  0.36194921763E+02  0.95356412859E+01  0.13151168844E+03  0.89379806971E+02 0.  0.
        -11    1    4    4    0    0 -0.37471936589E+02  0.56187113052E+02  0.12243149362E+02  0.68636960972E+02  0.51100000000E-03 0. -1.
     200002    1    4    4    0    0 -0.51441355359E+02 -0.19992191289E+02 -0.27075080762E+01  0.62874727464E+02  0.30000000000E+02 0.  1.
     200000    1    3    3    0    0  0.22484137573E+03 -0.33526468454E+03  0.11245786302E+04  0.11990972223E+04  0.10100000000E+03 0.  1.
    -200001    1    1    2    0    0 -0.13592808378E+03  0.29906976278E+03  0.19921113939E+03  0.72344539879E+03  0.61300000000E+03 0. -1.
<mgrwt>
<rscale>  0 0.15624924E+04</rscale>
<asrwt>0</asrwt>
<pdfrwt beam="1">  1        2 0.51480635E-01 0.15624924E+04</pdfrwt>
<pdfrwt beam="2">  1       -2 0.24195570E+00 0.15624924E+04</pdfrwt>
<totfact> 0.67492339E+00</totfact>
</mgrwt>
</event>
<event>
 8    1  0.6972317E-052  0.1577317E+04  0.7818608E-02  0.8834606E-01
         -2   -1    0    0    0  501 -0.00000000000E+00  0.00000000000E+00  0.33401953209E+03  0.33401953210E+03  0.25500000000E-02 0. -1.
          2   -1    0    0  501    0  0.00000000000E+00 -0.00000000000E+00 -0.18621127790E+04  0.18621127790E+04  0.25500000000E-02 0.  1.
     200001    2    1    2    0    0  0.96051860249E+02  0.46310446211E+03 -0.96935118307E+03  0.12413268877E+04  0.61445831693E+03 0.  0.
    5000001    2    3    3    0    0  0.27162497240E+03  0.32401633446E+03 -0.30393456976E+03  0.53199502300E+03  0.10897601194E+03 0.  0.
        -11    1    4    4    0    0  0.13224407751E+03  0.12844938503E+03 -0.75576151865E+02  0.19924732190E+03  0.51100000000E-03 0. -1.
     200002    1    4    4    0    0  0.13938089488E+03  0.19556694943E+03 -0.22835841790E+03  0.33274770111E+03  0.30000000000E+02 0. -1.
     200000    1    3    3    0    0 -0.17557311215E+03  0.13908812766E+03 -0.66541661330E+03  0.70933186466E+03  0.10100000000E+03 0.  1.
    -200001    1    1    2    0    0 -0.96051860249E+02 -0.46310446211E+03 -0.55874206381E+03  0.95480542340E+03  0.61300000000E+03 0.  1.
<mgrwt>
<rscale>  0 0.15773168E+04</rscale>
<asrwt>0</asrwt>
<pdfrwt beam="1">  1        2 0.26601611E+00 0.15773168E+04</pdfrwt>
<pdfrwt beam="2">  1       -2 0.47717077E-01 0.15773168E+04</pdfrwt>
<totfact> 0.37845852E+01</totfact>
</mgrwt>
</event>
<event>
 8    1  0.6972317E-052  0.1241420E+04  0.7818608E-02  0.9077355E-01
          2   -1    0    0  501    0  0.00000000000E+00  0.00000000000E+00  0.73413952000E+03  0.73413952001E+03  0.25500000000E-02 0.  1.
         -2   -1    0    0    0  501 -0.00000000000E+00 -0.00000000000E+00 -0.52480572737E+03  0.52480572737E+03  0.25500000000E-02 0. -1.
     200001    2    1    2    0    0  0.91629665905E+02 -0.86726491891E+02  0.55295478626E+02  0.61441884587E+03  0.59877829631E+03 0.  0.
    5000001    2    3    3    0    0 -0.19173647320E+03  0.37198703461E+02  0.16856738058E+03  0.26991144884E+03  0.79313364081E+02 0.  0.
        -11    1    4    4    0    0 -0.14049220314E+03  0.29729279544E+02  0.14902213263E+03  0.20695285748E+03  0.51100000000E-03 0. -1.
     200002    1    4    4    0    0 -0.51244270066E+02  0.74694239171E+01  0.19545247947E+02  0.62958591356E+02  0.30000000000E+02 0.  1.
     200000    1    3    3    0    0  0.28336613911E+03 -0.12392519535E+03 -0.11327190196E+03  0.34450739703E+03  0.10100000000E+03 0. -1.
    -200001    1    1    2    0    0 -0.91629665905E+02  0.86726491891E+02  0.15403831401E+03  0.64452640152E+03  0.61300000000E+03 0.  1.
<mgrwt>
<rscale>  0 0.12414196E+04</rscale>
<asrwt>0</asrwt>
<pdfrwt beam="1">  1        2 0.10487707E+00 0.12414196E+04</pdfrwt>
<pdfrwt beam="2">  1       -2 0.74972247E-01 0.12414196E+04</pdfrwt>
<totfact> 0.66791692E+01</totfact>
</mgrwt>
</event>
<event>
 8    1  0.6972317E-052  0.1343525E+04  0.7818608E-02  0.8995744E-01
          2   -1    0    0  501    0  0.00000000000E+00  0.00000000000E+00  0.27197192189E+04  0.27197192189E+04  0.25500000000E-02 0.  1.
         -2   -1    0    0    0  501 -0.00000000000E+00 -0.00000000000E+00 -0.16592337805E+03  0.16592337807E+03  0.25500000000E-02 0. -1.
     200001    2    1    2    0    0 -0.18777463763E+03 -0.80399957773E+02  0.16692677632E+04  0.17902511656E+04  0.61385739631E+03 0.  0.
    5000001    2    3    3    0    0  0.47727293300E+02  0.35928348630E+02  0.16598293731E+02  0.11379334937E+03  0.95418458624E+02 0.  0.
        -11    1    4    4    0    0  0.26312842746E+02  0.38333747746E+02  0.46882098086E+02  0.66028577381E+02  0.51100000000E-03 0. -1.
     200002    1    4    4    0    0  0.21414450553E+02 -0.24053991162E+01 -0.30283804356E+02  0.47764771994E+02  0.30000000000E+02 0. -1.
     200000    1    3    3    0    0 -0.23550193093E+03 -0.11632830640E+03  0.16526694694E+04  0.16764578162E+04  0.10100000000E+03 0.  1.
    -200001    1    1    2    0    0  0.18777463763E+03  0.80399957773E+02  0.88452807770E+03  0.10953914314E+04  0.61300000000E+03 0. -1.
<mgrwt>
<rscale>  0 0.13435252E+04</rscale>
<asrwt>0</asrwt>
<pdfrwt beam="1">  1        2 0.38853126E+00 0.13435252E+04</pdfrwt>
<pdfrwt beam="2">  1       -2 0.23703343E-01 0.13435252E+04</pdfrwt>
<totfact> 0.52214166E+01</totfact>
</mgrwt>
</event>
<event>
 8    1  0.6972317E-052  0.1361214E+04  0.7818608E-02  0.8982382E-01
         -2   -1    0    0    0  501 -0.00000000000E+00  0.00000000000E+00  0.10746531602E+04  0.10746531602E+04  0.25500000000E-02 0. -1.
          2   -1    0    0  501    0  0.00000000000E+00 -0.00000000000E+00 -0.43104719351E+03  0.43104719352E+03  0.25500000000E-02 0.  1.
     200001    2    1    2    0    0  0.16224279190E+03  0.17322242888E+03  0.12405732456E+03  0.66782892866E+03  0.61178143547E+03 0.  0.
    5000001    2    3    3    0    0  0.22287342993E+03  0.72497526221E+02  0.32569776020E+03  0.41350345694E+03  0.99888041463E+02 0.  0.
        -11    1    4    4    0    0  0.13599916634E+03  0.10701816680E+02  0.22862151250E+03  0.26622940879E+03  0.51100000000E-03 0. -1.
     200002    1    4    4    0    0  0.86874263590E+02  0.61795709542E+02  0.97076247693E+02  0.14727404815E+03  0.30000000000E+02 0.  1.
     200000    1    3    3    0    0 -0.60630638030E+02  0.10072490266E+03 -0.20164043564E+03  0.25432547172E+03  0.10100000000E+03 0.  1.
    -200001    1    1    2    0    0 -0.16224279190E+03 -0.17322242888E+03  0.51954864214E+03  0.83787142507E+03  0.61300000000E+03 0. -1.
<mgrwt>
<rscale>  0 0.13612145E+04</rscale>
<asrwt>0</asrwt>
<pdfrwt beam="1">  1        2 0.61578170E-01 0.13612145E+04</pdfrwt>
<pdfrwt beam="2">  1       -2 0.15352188E+00 0.13612145E+04</pdfrwt>
<totfact> 0.21868365E+01</totfact>
</mgrwt>
</event>
<event>
 8    1  0.6972317E-052  0.1714584E+04  0.7818608E-02  0.8753090E-01
          2   -1    0    0  501    0  0.00000000000E+00  0.00000000000E+00  0.60890058836E+03  0.60890058837E+03  0.25500000000E-02 0.  1.
         -2   -1    0    0    0  501 -0.00000000000E+00 -0.00000000000E+00 -0.12070114713E+04  0.12070114713E+04  0.25500000000E-02 0. -1.
     200001    2    1    2    0    0 -0.40937397413E+03  0.24763202712E+03 -0.68157976401E+03  0.10338348732E+04  0.61266214075E+03 0.  0.
    5000001    2    3    3    0    0 -0.48545813439E+03  0.28214633505E+03 -0.32415754559E+03  0.65313593815E+03  0.78944820734E+02 0.  0.
        -11    1    4    4    0    0 -0.27216421664E+02  0.27038377075E+02 -0.55995772793E+01  0.38770642360E+02  0.51100000000E-03 0. -1.
     200002    1    4    4    0    0 -0.45824171272E+03  0.25510795797E+03 -0.31855796831E+03  0.61436529579E+03  0.30000000000E+02 0.  1.
     200000    1    3    3    0    0  0.76084160258E+02 -0.34514307928E+02 -0.35742221843E+03  0.38069893501E+03  0.10100000000E+03 0. -1.
    -200001    1    1    2    0    0  0.40937397413E+03 -0.24763202712E+03  0.83468881080E+02  0.78207718651E+03  0.61300000000E+03 0.  1.
<mgrwt>
<rscale>  0 0.17145845E+04</rscale>
<asrwt>0</asrwt>
<pdfrwt beam="1">  1        2 0.86985798E-01 0.17145845E+04</pdfrwt>
<pdfrwt beam="2">  1       -2 0.17243021E+00 0.17145845E+04</pdfrwt>
<totfact> 0.10400525E+01</totfact>
</mgrwt>
</event>
<event>
 8    1  0.6972317E-052  0.1451326E+04  0.7818608E-02  0.8917482E-01
         -2   -1    0    0    0  501 -0.00000000000E+00  0.00000000000E+00  0.13126841057E+03  0.13126841060E+03  0.25500000000E-02 0. -1.
          2   -1    0    0  501    0  0.00000000000E+00 -0.00000000000E+00 -0.40115275188E+04  0.40115275188E+04  0.25500000000E-02 0.  1.
     200001    2    1    2    0    0 -0.13196419001E+03  0.27811242903E+03 -0.26165908048E+04  0.27049546128E+04  0.61275684159E+03 0.  0.
    5000001    2    3    3    0    0 -0.20296549853E+03  0.35017468447E+03 -0.24063356507E+04  0.24507059465E+04  0.22735670070E+03 0.  0.
        -11    1    4    4    0    0 -0.17918568762E+03  0.23816740610E+03 -0.11214596721E+04  0.11603891675E+04  0.51100000000E-03 0. -1.
     200002    1    4    4    0    0 -0.23779810904E+02  0.11200727837E+03 -0.12848759786E+04  0.12903167790E+04  0.30000000000E+02 0. -1.
     200000    1    3    3    0    0  0.71001308512E+02 -0.72062255435E+02 -0.21025515410E+03  0.25424866626E+03  0.10100000000E+03 0.  1.
    -200001    1    1    2    0    0  0.13196419001E+03 -0.27811242903E+03 -0.12636683034E+04  0.14378413166E+04  0.61300000000E+03 0. -1.
<mgrwt>
<rscale>  0 0.14513261E+04</rscale>
<asrwt>0</asrwt>
<pdfrwt beam="1">  1        2 0.57307528E+00 0.14513261E+04</pdfrwt>
<pdfrwt beam="2">  1       -2 0.18752633E-01 0.14513261E+04</pdfrwt>
<totfact> 0.13256605E+01</totfact>
</mgrwt>
</event>
<event>
 8    1  0.6972317E-052  0.1674762E+04  0.7818608E-02  0.8775891E-01
         -2   -1    0    0    0  501 -0.00000000000E+00  0.00000000000E+00  0.51142648870E+03  0.51142648870E+03  0.25500000000E-02 0. -1.
          2   -1    0    0  501    0  0.00000000000E+00 -0.00000000000E+00 -0.13710803763E+04  0.13710803763E+04  0.25500000000E-02 0.  1.
     200001    2    1    2    0    0  0.50251092636E+03  0.21850693105E+02 -0.73339360458E+03  0.10795714112E+04  0.61205683450E+03 0.  0.
    5000001    2    3    3    0    0  0.55246548260E+03  0.18762308958E+03 -0.48421321578E+03  0.75977802273E+03  0.48781884755E+02 0.  0.
        -11    1    4    4    0    0  0.14678804742E+02  0.66200376623E+01 -0.62779365249E+01  0.17283075379E+02  0.51100000000E-03 0. -1.
     200002    1    4    4    0    0  0.53778667786E+03  0.18100305192E+03 -0.47793527925E+03  0.74249494735E+03  0.30000000000E+02 0. -1.
     200000    1    3    3    0    0 -0.49954556236E+02 -0.16577239647E+03 -0.24918038881E+03  0.31979338844E+03  0.10100000000E+03 0. -1.
    -200001    1    1    2    0    0 -0.50251092636E+03 -0.21850693105E+02 -0.12626028297E+03  0.80293545379E+03  0.61300000000E+03 0. -1.
<mgrwt>
<rscale>  0 0.16747619E+04</rscale>
<asrwt>0</asrwt>
<pdfrwt beam="1">  1        2 0.19586862E+00 0.16747619E+04</pdfrwt>
<pdfrwt beam="2">  1       -2 0.73060927E-01 0.16747619E+04</pdfrwt>
<totfact> 0.27747977E+01</totfact>
</mgrwt>
</event>
<event>
 8    1  0.6972317E-052  0.1505280E+04  0.7818608E-02  0.8880950E-01
          2   -1    0    0  501    0  0.00000000000E+00  0.00000000000E+00  0.24863868716E+04  0.24863868716E+04  0.25500000000E-02 0.  1.
         -2   -1    0    0    0  501 -0.00000000000E+00 -0.00000000000E+00 -0.22782728420E+03  0.22782728421E+03  0.25500000000E-02 0. -1.
     200001    2    1    2    0    0 -0.37753660568E+03 -0.71822794341E+02  0.14993669393E+04  0.16654840287E+04  0.61485236360E+03 0.  0.
    5000001    2    3    3    0    0 -0.45993292727E+03 -0.16708629239E+03  0.75047680579E+03  0.89938891723E+03  0.78923137963E+02 0.  0.
        -11    1    4    4    0    0 -0.10234421755E+02 -0.10609359376E+02  0.48059612241E+02  0.50269555638E+02  0.51100000000E-03 0. -1.
     200002    1    4    4    0    0 -0.44969850552E+03 -0.15647693301E+03  0.70241719355E+03  0.84911936159E+03  0.30000000000E+02 0. -1.
     200000    1    3    3    0    0  0.82396321596E+02  0.95263498047E+02  0.74889013346E+03  0.76609511150E+03  0.10100000000E+03 0.  1.
    -200001    1    1    2    0    0  0.37753660568E+03  0.71822794341E+02  0.75919264811E+03  0.10487301270E+04  0.61300000000E+03 0. -1.
<mgrwt>
<rscale>  0 0.15052797E+04</rscale>
<asrwt>0</asrwt>
<pdfrwt beam="1">  1        2 0.35519811E+00 0.15052797E+04</pdfrwt>
<pdfrwt beam="2">  1       -2 0.32546756E-01 0.15052797E+04</pdfrwt>
<totfact> 0.38192190E+01</totfact>
</mgrwt>
</event>
<event>
 8    1  0.6972317E-052  0.1753162E+04  0.7818608E-02  0.8731612E-01
         -2   -1    0    0    0  501 -0.00000000000E+00  0.00000000000E+00  0.18260285766E+03  0.18260285767E+03  0.25500000000E-02 0. -1.
          2   -1    0    0  501    0  0.00000000000E+00 -0.00000000000E+00 -0.42080066593E+04  0.42080066593E+04  0.25500000000E-02 0.  1.
     200001    2    1    2    0    0  0.15665167098E+03 -0.52159284920E+03 -0.12378788808E+04  0.14849834174E+04  0.61337817047E+03 0.  0.
    5000001    2    3    3    0    0  0.73146430412E+01  0.90619248900E+02 -0.52166006732E+02  0.13842438759E+03  0.90413862584E+02 0.  0.
        -11    1    4    4    0    0  0.25525698622E+02  0.72696144215E+02 -0.60722536318E+02  0.98099526457E+02  0.51100000000E-03 0. -1.
     200002    1    4    4    0    0 -0.18211055580E+02  0.17923104685E+02  0.85565295855E+01  0.40324861134E+02  0.30000000000E+02 0. -1.
     200000    1    3    3    0    0  0.14933702794E+03 -0.61221209810E+03 -0.11857128741E+04  0.13465590298E+04  0.10100000000E+03 0. -1.
    -200001    1    1    2    0    0 -0.15665167098E+03  0.52159284920E+03 -0.27875249208E+04  0.29056260995E+04  0.61300000000E+03 0.  1.
<mgrwt>
<rscale>  0 0.17531618E+04</rscale>
<asrwt>0</asrwt>
<pdfrwt beam="1">  1        2 0.60114375E+00 0.17531618E+04</pdfrwt>
<pdfrwt beam="2">  1       -2 0.26086125E-01 0.17531618E+04</pdfrwt>
<totfact> 0.51859874E+00</totfact>
</mgrwt>
</event>
<event>
 8    1  0.6972317E-052  0.1592837E+04  0.7818608E-02  0.8824960E-01
         -2   -1    0    0    0  501 -0.00000000000E+00  0.00000000000E+00  0.35863091463E+03  0.35863091464E+03  0.25500000000E-02 0. -1.
          2   -1    0    0  501    0  0.00000000000E+00 -0.00000000000E+00 -0.17686223931E+04  0.17686223931E+04  0.25500000000E-02 0.  1.
     200001    2    1    2    0    0 -0.26211599689E+03  0.28005446490E+03 -0.11507746257E+04  0.13590751540E+04  0.61291739728E+03 0.  0.
    5000001    2    3    3    0    0 -0.26014624409E+03 -0.12587762562E+03 -0.39757471526E+03  0.49750922666E+03  0.76996957421E+02 0.  0.
        -11    1    4    4    0    0 -0.20532603269E+03 -0.10782446720E+03 -0.33343913616E+03  0.40616074767E+03  0.51100000000E-03 0. -1.
     200002    1    4    4    0    0 -0.54820211396E+02 -0.18053158420E+02 -0.64135579105E+02  0.91348478989E+02  0.30000000000E+02 0.  1.
     200000    1    3    3    0    0 -0.19697527990E+01  0.40593209052E+03 -0.75319991042E+03  0.86156592731E+03  0.10100000000E+03 0.  1.
    -200001    1    1    2    0    0  0.26211599689E+03 -0.28005446490E+03 -0.25921685276E+03  0.76817815374E+03  0.61300000000E+03 0. -1.
<mgrwt>
<rscale>  0 0.15928373E+04</rscale>
<asrwt>0</asrwt>
<pdfrwt beam="1">  1        2 0.25266034E+00 0.15928373E+04</pdfrwt>
<pdfrwt beam="2">  1       -2 0.51232988E-01 0.15928373E+04</pdfrwt>
<totfact> 0.36558853E+01</totfact>
</mgrwt>
</event>
<event>
 8    1  0.6972317E-052  0.2567886E+04  0.7818608E-02  0.8379192E-01
         -2   -1    0    0    0  501 -0.00000000000E+00  0.00000000000E+00  0.10662323960E+04  0.10662323960E+04  0.25500000000E-02 0. -1.
          2   -1    0    0  501    0  0.00000000000E+00 -0.00000000000E+00 -0.15461070770E+04  0.15461070770E+04  0.25500000000E-02 0.  1.
     200001    2    1    2    0    0  0.77946613725E+03  0.36350532459E+03  0.50270937152E+03  0.11697917267E+04  0.61318218467E+03 0.  0.
    5000001    2    3    3    0    0 -0.52359159101E+02  0.15671553077E+03  0.12781453091E+03  0.22881219242E+03  0.93366085717E+02 0.  0.
        -11    1    4    4    0    0  0.13520351927E+02  0.31671471575E+02  0.60052913306E+02  0.69225966405E+02  0.51100000000E-03 0. -1.
     200002    1    4    4    0    0 -0.65879511028E+02  0.12504405919E+03  0.67761617602E+02  0.15958622601E+03  0.30000000000E+02 0. -1.
     200000    1    3    3    0    0  0.83182529636E+03  0.20678979382E+03  0.37489484062E+03  0.94097953432E+03  0.10100000000E+03 0. -1.
    -200001    1    1    2    0    0 -0.77946613725E+03 -0.36350532459E+03 -0.98258405248E+03  0.14425477463E+04  0.61300000000E+03 0.  1.
<mgrwt>
<rscale>  0 0.25678859E+04</rscale>
<asrwt>0</asrwt>
<pdfrwt beam="1">  1        2 0.22087244E+00 0.25678859E+04</pdfrwt>
<pdfrwt beam="2">  1       -2 0.15231891E+00 0.25678859E+04</pdfrwt>
<totfact> 0.35474869E+00</totfact>
</mgrwt>
</event>
<event>
 8    1  0.6972317E-052  0.1469379E+04  0.7818608E-02  0.8905075E-01
          2   -1    0    0  501    0  0.00000000000E+00  0.00000000000E+00  0.72947280037E+03  0.72947280038E+03  0.25500000000E-02 0.  1.
         -2   -1    0    0    0  501 -0.00000000000E+00 -0.00000000000E+00 -0.73994354485E+03  0.73994354485E+03  0.25500000000E-02 0. -1.
     200001    2    1    2    0    0  0.32419535880E+02 -0.40089525029E+03  0.41452454711E+02  0.73441087136E+03  0.61308481792E+03 0.  0.
    5000001    2    3    3    0    0  0.13903744386E+03 -0.51854933024E+03  0.20786182482E+02  0.54510171776E+03  0.92081478240E+02 0.  0.
        -11    1    4    4    0    0  0.11257999779E+03 -0.41952570850E+03 -0.81809702562E+01  0.43444562867E+03  0.51100000000E-03 0. -1.
     200002    1    4    4    0    0  0.26457446065E+02 -0.99023621737E+02  0.28967152738E+02  0.11065608909E+03  0.30000000000E+02 0.  1.
     200000    1    3    3    0    0 -0.10661790798E+03  0.11765407995E+03  0.20666272229E+02  0.18930915360E+03  0.10100000000E+03 0. -1.
    -200001    1    1    2    0    0 -0.32419535880E+02  0.40089525029E+03 -0.51923199188E+02  0.73500547387E+03  0.61300000000E+03 0. -1.
<mgrwt>
<rscale>  0 0.14693790E+04</rscale>
<asrwt>0</asrwt>
<pdfrwt beam="1">  1        2 0.10421040E+00 0.14693790E+04</pdfrwt>
<pdfrwt beam="2">  1       -2 0.10570622E+00 0.14693790E+04</pdfrwt>
<totfact> 0.30008219E+01</totfact>
</mgrwt>
</event>
