<event>
 4    1  0.1760335E-005  0.8300336E+03  0.7818608E-02  0.9517534E-01
         -2   -1    0    0    0  501 -0.00000000000E+00  0.00000000000E+00  0.40791591610E+02  0.40791591690E+02  0.25500000000E-02 0.  1.
          2   -1    0    0  501    0  0.00000000000E+00 -0.00000000000E+00 -0.42224130215E+04  0.42224130215E+04  0.25500000000E-02 0. -1.
    5000001    1    1    2    0    0  0.31709628700E+03 -0.62627553147E+02 -0.29527975567E+04  0.29770936627E+04  0.19900000000E+03 0.  0.
   -5000001    1    1    2    0    0 -0.31709628700E+03  0.62627553147E+02 -0.12288238732E+04  0.12861109505E+04  0.19900000000E+03 0.  0.
<mgrwt>
<rscale>  0 0.83003361E+03</rscale>
<asrwt>0</asrwt>
<pdfrwt beam="1">  1        2 0.60320159E+00 0.83003361E+03</pdfrwt>
<pdfrwt beam="2">  1       -2 0.58273729E-02 0.83003361E+03</pdfrwt>
<totfact> 0.69780790E+01</totfact>
</mgrwt>
</event>
<event>
 4    1  0.1760335E-005  0.4617817E+03  0.7818608E-02  0.1024266E+00
         -2   -1    0    0    0  501 -0.00000000000E+00  0.00000000000E+00  0.31751302556E+02  0.31751302659E+02  0.25500000000E-02 0. -1.
          2   -1    0    0  501    0  0.00000000000E+00 -0.00000000000E+00 -0.16790048165E+04  0.16790048165E+04  0.25500000000E-02 0.  1.
    5000001    1    1    2    0    0  0.33771123856E+02  0.11206410003E+03 -0.83576698883E+03  0.86706765073E+03  0.19900000000E+03 0.  0.
   -5000001    1    1    2    0    0 -0.33771123856E+02 -0.11206410003E+03 -0.81148652511E+03  0.84368846843E+03  0.19900000000E+03 0.  0.
<mgrwt>
<rscale>  0 0.46178172E+03</rscale>
<asrwt>0</asrwt>
<pdfrwt beam="1">  1        2 0.23985778E+00 0.46178172E+03</pdfrwt>
<pdfrwt beam="2">  1       -2 0.45359014E-02 0.46178172E+03</pdfrwt>
<totfact> 0.28762413E+03</totfact>
</mgrwt>
</event>
<event>
 4    1  0.1760335E-005  0.8403336E+03  0.7818608E-02  0.9503403E-01
          2   -1    0    0  501    0  0.00000000000E+00  0.00000000000E+00  0.21828931719E+04  0.21828931719E+04  0.25500000000E-02 0.  1.
         -2   -1    0    0    0  501 -0.00000000000E+00 -0.00000000000E+00 -0.80874389966E+02  0.80874390006E+02  0.25500000000E-02 0. -1.
    5000001    1    1    2    0    0  0.17917041112E+03  0.30145848564E+03  0.73272068889E+03  0.83633717047E+03  0.19900000000E+03 0.  0.
   -5000001    1    1    2    0    0 -0.17917041112E+03 -0.30145848564E+03  0.13692980930E+04  0.14274303914E+04  0.19900000000E+03 0.  0.
<mgrwt>
<rscale>  0 0.84033363E+03</rscale>
<asrwt>0</asrwt>
<pdfrwt beam="1">  1        2 0.31184185E+00 0.84033363E+03</pdfrwt>
<pdfrwt beam="2">  1       -2 0.11553485E-01 0.84033363E+03</pdfrwt>
<totfact> 0.35584831E+02</totfact>
</mgrwt>
</event>
<event>
 4    1  0.1760335E-005  0.6637207E+03  0.7818608E-02  0.9781369E-01
         -2   -1    0    0    0  501 -0.00000000000E+00  0.00000000000E+00  0.60450510261E+03  0.60450510262E+03  0.25500000000E-02 0. -1.
          2   -1    0    0  501    0  0.00000000000E+00 -0.00000000000E+00 -0.18218421593E+03  0.18218421595E+03  0.25500000000E-02 0.  1.
    5000001    1    1    2    0    0 -0.24010485636E+03 -0.14685641953E+02  0.34454578835E+03  0.46495033111E+03  0.19900000000E+03 0.  0.
   -5000001    1    1    2    0    0  0.24010485636E+03  0.14685641953E+02  0.77775098326E+02  0.32173898745E+03  0.19900000000E+03 0.  0.
<mgrwt>
<rscale>  0 0.66372069E+03</rscale>
<asrwt>0</asrwt>
<pdfrwt beam="1">  1        2 0.26026316E-01 0.66372069E+03</pdfrwt>
<pdfrwt beam="2">  1       -2 0.86357873E-01 0.66372069E+03</pdfrwt>
<totfact> 0.24564928E+02</totfact>
</mgrwt>
</event>
<event>
 4    1  0.1760335E-005  0.7620694E+03  0.7818608E-02  0.9616603E-01
          2   -1    0    0  501    0  0.00000000000E+00  0.00000000000E+00  0.23665723209E+04  0.23665723209E+04  0.25500000000E-02 0.  1.
         -2   -1    0    0    0  501 -0.00000000000E+00 -0.00000000000E+00 -0.61349250266E+02  0.61349250319E+02  0.25500000000E-02 0. -1.
    5000001    1    1    2    0    0  0.25773070801E+03  0.19709752753E+03  0.10961665929E+04  0.11603683694E+04  0.19900000000E+03 0.  0.
   -5000001    1    1    2    0    0 -0.25773070801E+03 -0.19709752753E+03  0.12090564777E+04  0.12675532019E+04  0.19900000000E+03 0.  0.
<mgrwt>
<rscale>  0 0.76206939E+03</rscale>
<asrwt>0</asrwt>
<pdfrwt beam="1">  1        2 0.33808179E+00 0.76206939E+03</pdfrwt>
<pdfrwt beam="2">  1       -2 0.87641779E-02 0.76206939E+03</pdfrwt>
<totfact> 0.45261733E+02</totfact>
</mgrwt>
</event>
<event>
 4    1  0.1760335E-005  0.4811546E+03  0.7818608E-02  0.1018818E+00
          2   -1    0    0  501    0  0.00000000000E+00  0.00000000000E+00  0.31400729276E+03  0.31400729277E+03  0.25500000000E-02 0.  1.
         -2   -1    0    0    0  501 -0.00000000000E+00 -0.00000000000E+00 -0.18431877135E+03  0.18431877136E+03  0.25500000000E-02 0. -1.
    5000001    1    1    2    0    0  0.63439704679E+02 -0.11176215219E+03  0.10830693830E+03  0.26047412093E+03  0.19900000000E+03 0.  0.
   -5000001    1    1    2    0    0 -0.63439704679E+02  0.11176215219E+03  0.21381583121E+02  0.23785194321E+03  0.19900000000E+03 0.  0.
<mgrwt>
<rscale>  0 0.48115460E+03</rscale>
<asrwt>0</asrwt>
<pdfrwt beam="1">  1        2 0.44858184E-01 0.48115460E+03</pdfrwt>
<pdfrwt beam="2">  1       -2 0.26331253E-01 0.48115460E+03</pdfrwt>
<totfact> 0.14728695E+03</totfact>
</mgrwt>
</event>
<event>
 4    1  0.1760335E-005  0.5166564E+03  0.7818608E-02  0.1009521E+00
         -2   -1    0    0    0  501 -0.00000000000E+00  0.00000000000E+00  0.44426404836E+02  0.44426404909E+02  0.25500000000E-02 0. -1.
          2   -1    0    0  501    0  0.00000000000E+00 -0.00000000000E+00 -0.15021127170E+04  0.15021127170E+04  0.25500000000E-02 0.  1.
    5000001    1    1    2    0    0 -0.13599767735E+03  0.88037529173E+02 -0.81796757472E+03  0.85727354332E+03  0.19900000000E+03 0.  0.
   -5000001    1    1    2    0    0  0.13599767735E+03 -0.88037529173E+02 -0.63971873744E+03  0.68926557859E+03  0.19900000000E+03 0.  0.
<mgrwt>
<rscale>  0 0.51665643E+03</rscale>
<asrwt>0</asrwt>
<pdfrwt beam="1">  1        2 0.21458750E+00 0.51665643E+03</pdfrwt>
<pdfrwt beam="2">  1       -2 0.63466302E-02 0.51665643E+03</pdfrwt>
<totfact> 0.21019810E+03</totfact>
</mgrwt>
</event>
<event>
 4    1  0.1760335E-005  0.1239586E+04  0.7818608E-02  0.9078896E-01
          2   -1    0    0  501    0  0.00000000000E+00  0.00000000000E+00  0.10902081906E+04  0.10902081906E+04  0.25500000000E-02 0.  1.
         -2   -1    0    0    0  501 -0.00000000000E+00 -0.00000000000E+00 -0.35235756578E+03  0.35235756579E+03  0.25500000000E-02 0. -1.
    5000001    1    1    2    0    0 -0.30897887639E+03  0.39043874938E+03  0.71665954191E+01  0.53624875120E+03  0.19900000000E+03 0.  0.
   -5000001    1    1    2    0    0  0.30897887639E+03 -0.39043874938E+03  0.73068402940E+03  0.90631700519E+03  0.19900000000E+03 0.  0.
<mgrwt>
<rscale>  0 0.12395856E+04</rscale>
<asrwt>0</asrwt>
<pdfrwt beam="1">  1        2 0.15574403E+00 0.12395856E+04</pdfrwt>
<pdfrwt beam="2">  1       -2 0.50336796E-01 0.12395856E+04</pdfrwt>
<totfact> 0.90979910E+01</totfact>
</mgrwt>
</event>
<event>
 4    1  0.1760335E-005  0.5421532E+03  0.7818608E-02  0.1003327E+00
          2   -1    0    0  501    0  0.00000000000E+00  0.00000000000E+00  0.45651492308E+03  0.45651492309E+03  0.25500000000E-02 0.  1.
         -2   -1    0    0    0  501 -0.00000000000E+00 -0.00000000000E+00 -0.16096414915E+03  0.16096414917E+03  0.25500000000E-02 0. -1.
    5000001    1    1    2    0    0 -0.41850724232E+02  0.17426196430E+03  0.99955970846E+02  0.28585120505E+03  0.19900000000E+03 0.  0.
   -5000001    1    1    2    0    0  0.41850724232E+02 -0.17426196430E+03  0.19559480308E+03  0.33162786721E+03  0.19900000000E+03 0.  0.
<mgrwt>
<rscale>  0 0.54215325E+03</rscale>
<asrwt>0</asrwt>
<pdfrwt beam="1">  1        2 0.65216417E-01 0.54215325E+03</pdfrwt>
<pdfrwt beam="2">  1       -2 0.22994879E-01 0.54215325E+03</pdfrwt>
<totfact> 0.12409986E+03</totfact>
</mgrwt>
</event>
<event>
 4    1  0.1760335E-005  0.4623724E+03  0.7818608E-02  0.1024095E+00
          2   -1    0    0  501    0  0.00000000000E+00  0.00000000000E+00  0.65043686786E+03  0.65043686787E+03  0.25500000000E-02 0.  1.
         -2   -1    0    0    0  501 -0.00000000000E+00 -0.00000000000E+00 -0.82171033118E+02  0.82171033158E+02  0.25500000000E-02 0. -1.
    5000001    1    1    2    0    0 -0.86796369240E+02 -0.79370927301E+02  0.28978291548E+03  0.37068651435E+03  0.19900000000E+03 0.  0.
   -5000001    1    1    2    0    0  0.86796369240E+02  0.79370927301E+02  0.27848291926E+03  0.36192138668E+03  0.19900000000E+03 0.  0.
<mgrwt>
<rscale>  0 0.46237244E+03</rscale>
<asrwt>0</asrwt>
<pdfrwt beam="1">  1        2 0.92919555E-01 0.46237244E+03</pdfrwt>
<pdfrwt beam="2">  1       -2 0.11738719E-01 0.46237244E+03</pdfrwt>
<totfact> 0.25830213E+03</totfact>
</mgrwt>
</event>
<event>
 4    1  0.1760335E-005  0.6080070E+03  0.7818608E-02  0.9888932E-01
         -2   -1    0    0    0  501 -0.00000000000E+00  0.00000000000E+00  0.86850014875E+03  0.86850014876E+03  0.25500000000E-02 0. -1.
          2   -1    0    0  501    0  0.00000000000E+00 -0.00000000000E+00 -0.10641118518E+03  0.10641118521E+03  0.25500000000E-02 0.  1.
    5000001    1    1    2    0    0 -0.19085667358E+03 -0.11678744753E+03  0.46515405528E+03  0.55320418735E+03  0.19900000000E+03 0.  0.
   -5000001    1    1    2    0    0  0.19085667358E+03  0.11678744753E+03  0.29693490829E+03  0.42170714662E+03  0.19900000000E+03 0.  0.
<mgrwt>
<rscale>  0 0.60800701E+03</rscale>
<asrwt>0</asrwt>
<pdfrwt beam="1">  1        2 0.15201598E-01 0.60800701E+03</pdfrwt>
<pdfrwt beam="2">  1       -2 0.12407145E+00 0.60800701E+03</pdfrwt>
<totfact> 0.19532614E+02</totfact>
</mgrwt>
</event>
<event>
 4    1  0.1760335E-005  0.5784023E+03  0.7818608E-02  0.9951256E-01
         -2   -1    0    0    0  501 -0.00000000000E+00  0.00000000000E+00  0.26005015559E+03  0.26005015560E+03  0.25500000000E-02 0. -1.
          2   -1    0    0  501    0  0.00000000000E+00 -0.00000000000E+00 -0.32161989952E+03  0.32161989953E+03  0.25500000000E-02 0.  1.
    5000001    1    1    2    0    0  0.10144533604E+03  0.18320898622E+03 -0.44262681133E+02  0.29226165294E+03  0.19900000000E+03 0.  0.
   -5000001    1    1    2    0    0 -0.10144533604E+03 -0.18320898622E+03 -0.17307062800E+02  0.28940840219E+03  0.19900000000E+03 0.  0.
<mgrwt>
<rscale>  0 0.57840230E+03</rscale>
<asrwt>0</asrwt>
<pdfrwt beam="1">  1        2 0.45945700E-01 0.57840230E+03</pdfrwt>
<pdfrwt beam="2">  1       -2 0.37150022E-01 0.57840230E+03</pdfrwt>
<totfact> 0.75727840E+02</totfact>
</mgrwt>
</event>
<event>
 4    1  0.1760335E-005  0.7038737E+03  0.7818608E-02  0.9710630E-01
          2   -1    0    0  501    0  0.00000000000E+00  0.00000000000E+00  0.23517225434E+04  0.23517225434E+04  0.25500000000E-02 0.  1.
         -2   -1    0    0    0  501 -0.00000000000E+00 -0.00000000000E+00 -0.52667584296E+02  0.52667584358E+02  0.25500000000E-02 0. -1.
    5000001    1    1    2    0    0  0.18156120729E+03  0.76098037037E+02  0.18781976457E+04  0.18989425425E+04  0.19900000000E+03 0.  0.
   -5000001    1    1    2    0    0 -0.18156120729E+03 -0.76098037037E+02  0.42085731335E+03  0.50544758525E+03  0.19900000000E+03 0.  0.
<mgrwt>
<rscale>  0 0.70387370E+03</rscale>
<asrwt>0</asrwt>
<pdfrwt beam="1">  1        2 0.33596047E+00 0.70387370E+03</pdfrwt>
<pdfrwt beam="2">  1       -2 0.75239383E-02 0.70387370E+03</pdfrwt>
<totfact> 0.59065326E+02</totfact>
</mgrwt>
</event>
<event>
 4    1  0.1760335E-005  0.6586627E+03  0.7818608E-02  0.9790659E-01
          2   -1    0    0  501    0  0.00000000000E+00  0.00000000000E+00  0.33490164030E+04  0.33490164030E+04  0.25500000000E-02 0.  1.
         -2   -1    0    0    0  501 -0.00000000000E+00 -0.00000000000E+00 -0.32385367760E+02  0.32385367861E+02  0.25500000000E-02 0. -1.
    5000001    1    1    2    0    0 -0.15700606134E+03  0.18054161458E+03  0.11051102501E+04  0.11480922623E+04  0.19900000000E+03 0.  0.
   -5000001    1    1    2    0    0  0.15700606134E+03 -0.18054161458E+03  0.22115207852E+04  0.22333095086E+04  0.19900000000E+03 0.  0.
<mgrwt>
<rscale>  0 0.65866267E+03</rscale>
<asrwt>0</asrwt>
<pdfrwt beam="1">  1        2 0.47843050E+00 0.65866267E+03</pdfrwt>
<pdfrwt beam="2">  1       -2 0.46264851E-02 0.65866267E+03</pdfrwt>
<totfact> 0.36987610E+02</totfact>
</mgrwt>
</event>
<event>
 4    1  0.1760335E-005  0.4963813E+03  0.7818608E-02  0.1014728E+00
         -2   -1    0    0    0  501 -0.00000000000E+00  0.00000000000E+00  0.10412069879E+03  0.10412069882E+03  0.25500000000E-02 0. -1.
          2   -1    0    0  501    0  0.00000000000E+00 -0.00000000000E+00 -0.59160758898E+03  0.59160758899E+03  0.25500000000E-02 0.  1.
    5000001    1    1    2    0    0  0.10001785659E+03 -0.17728042684E+01 -0.39722274498E+03  0.45540490072E+03  0.19900000000E+03 0.  0.
   -5000001    1    1    2    0    0 -0.10001785659E+03  0.17728042684E+01 -0.90264145211E+02  0.24032338709E+03  0.19900000000E+03 0.  0.
<mgrwt>
<rscale>  0 0.49638129E+03</rscale>
<asrwt>0</asrwt>
<pdfrwt beam="1">  1        2 0.84515368E-01 0.49638129E+03</pdfrwt>
<pdfrwt beam="2">  1       -2 0.14874386E-01 0.49638129E+03</pdfrwt>
<totfact> 0.19532453E+03</totfact>
</mgrwt>
</event>
<event>
 4    1  0.1760335E-005  0.8720474E+03  0.7818608E-02  0.9461214E-01
         -2   -1    0    0    0  501 -0.00000000000E+00  0.00000000000E+00  0.13489010489E+03  0.13489010491E+03  0.25500000000E-02 0. -1.
          2   -1    0    0  501    0  0.00000000000E+00 -0.00000000000E+00 -0.14094190167E+04  0.14094190167E+04  0.25500000000E-02 0.  1.
    5000001    1    1    2    0    0 -0.37934202237E+03  0.77946738014E+02 -0.67840179343E+03  0.80610548766E+03  0.19900000000E+03 0.  0.
   -5000001    1    1    2    0    0  0.37934202237E+03 -0.77946738014E+02 -0.59612711834E+03  0.73820363391E+03  0.19900000000E+03 0.  0.
<mgrwt>
<rscale>  0 0.87204743E+03</rscale>
<asrwt>0</asrwt>
<pdfrwt beam="1">  1        2 0.20134557E+00 0.87204743E+03</pdfrwt>
<pdfrwt beam="2">  1       -2 0.19270016E-01 0.87204743E+03</pdfrwt>
<totfact> 0.37344477E+02</totfact>
</mgrwt>
</event>
<event>
 4    1  0.1760335E-005  0.6258211E+03  0.7818608E-02  0.9853238E-01
          2   -1    0    0  501    0  0.00000000000E+00  0.00000000000E+00  0.25156481344E+03  0.25156481346E+03  0.25500000000E-02 0.  1.
         -2   -1    0    0    0  501 -0.00000000000E+00 -0.00000000000E+00 -0.38921582868E+03  0.38921582869E+03  0.25500000000E-02 0. -1.
    5000001    1    1    2    0    0 -0.40121545002E+02 -0.21985620476E+03 -0.16247504079E+03  0.34050789715E+03  0.19900000000E+03 0.  0.
   -5000001    1    1    2    0    0  0.40121545002E+02  0.21985620476E+03  0.24824025550E+02  0.30027274500E+03  0.19900000000E+03 0.  0.
<mgrwt>
<rscale>  0 0.62582108E+03</rscale>
<asrwt>0</asrwt>
<pdfrwt beam="1">  1        2 0.35937830E-01 0.62582108E+03</pdfrwt>
<pdfrwt beam="2">  1       -2 0.55602261E-01 0.62582108E+03</pdfrwt>
<totfact> 0.44506422E+02</totfact>
</mgrwt>
</event>
<event>
 4    1  0.1760335E-005  0.5526442E+03  0.7818608E-02  0.1000884E+00
          2   -1    0    0  501    0  0.00000000000E+00  0.00000000000E+00  0.36373317416E+04  0.36373317416E+04  0.25500000000E-02 0.  1.
         -2   -1    0    0    0  501 -0.00000000000E+00 -0.00000000000E+00 -0.20991737538E+02  0.20991737693E+02  0.25500000000E-02 0. -1.
    5000001    1    1    2    0    0  0.18315805057E+03  0.17157495165E+02  0.14509736886E+04  0.14760646653E+04  0.19900000000E+03 0.  0.
   -5000001    1    1    2    0    0 -0.18315805057E+03 -0.17157495165E+02  0.21653663155E+04  0.21822588140E+04  0.19900000000E+03 0.  0.
<mgrwt>
<rscale>  0 0.55264424E+03</rscale>
<asrwt>0</asrwt>
<pdfrwt beam="1">  1        2 0.51961872E+00 0.55264424E+03</pdfrwt>
<pdfrwt beam="2">  1       -2 0.29988203E-02 0.55264424E+03</pdfrwt>
<totfact> 0.49089269E+02</totfact>
</mgrwt>
</event>
<event>
 4    1  0.1760335E-005  0.4560984E+03  0.7818608E-02  0.1025919E+00
         -2   -1    0    0    0  501 -0.00000000000E+00  0.00000000000E+00  0.14035939980E+02  0.14035940212E+02  0.25500000000E-02 0. -1.
          2   -1    0    0  501    0  0.00000000000E+00 -0.00000000000E+00 -0.37052334536E+04  0.37052334536E+04  0.25500000000E-02 0.  1.
    5000001    1    1    2    0    0  0.30871744709E+02 -0.10699817750E+03 -0.18297861265E+04  0.18439414154E+04  0.19900000000E+03 0.  0.
   -5000001    1    1    2    0    0 -0.30871744709E+02  0.10699817750E+03 -0.18614113872E+04  0.18753279785E+04  0.19900000000E+03 0.  0.
<mgrwt>
<rscale>  0 0.45609839E+03</rscale>
<asrwt>0</asrwt>
<pdfrwt beam="1">  1        2 0.52931844E+00 0.45609839E+03</pdfrwt>
<pdfrwt beam="2">  1       -2 0.20051367E-02 0.45609839E+03</pdfrwt>
<totfact> 0.82778021E+02</totfact>
</mgrwt>
</event>
<event>
 4    1  0.1760335E-005  0.4711972E+03  0.7818608E-02  0.1021583E+00
         -2   -1    0    0    0  501 -0.00000000000E+00  0.00000000000E+00  0.32016636776E+02  0.32016636877E+02  0.25500000000E-02 0. -1.
          2   -1    0    0  501    0  0.00000000000E+00 -0.00000000000E+00 -0.17336827500E+04  0.17336827500E+04  0.25500000000E-02 0.  1.
    5000001    1    1    2    0    0  0.11828095819E+03 -0.42830539585E+02 -0.81713877227E+03  0.85037733586E+03  0.19900000000E+03 0.  0.
   -5000001    1    1    2    0    0 -0.11828095819E+03  0.42830539585E+02 -0.88452734090E+03  0.91532205097E+03  0.19900000000E+03 0.  0.
<mgrwt>
<rscale>  0 0.47119716E+03</rscale>
<asrwt>0</asrwt>
<pdfrwt beam="1">  1        2 0.24766890E+00 0.47119716E+03</pdfrwt>
<pdfrwt beam="2">  1       -2 0.45738064E-02 0.47119716E+03</pdfrwt>
<totfact> 0.26647029E+03</totfact>
</mgrwt>
</event>
<event>
 4    1  0.1760335E-005  0.6102873E+03  0.7818608E-02  0.9884290E-01
         -2   -1    0    0    0  501 -0.00000000000E+00  0.00000000000E+00  0.57662471342E+02  0.57662471399E+02  0.25500000000E-02 0. -1.
          2   -1    0    0  501    0  0.00000000000E+00 -0.00000000000E+00 -0.16147876459E+04  0.16147876459E+04  0.25500000000E-02 0.  1.
    5000001    1    1    2    0    0 -0.10637618956E+03  0.17588714756E+03 -0.10693514048E+04  0.11069623342E+04  0.19900000000E+03 0.  0.
   -5000001    1    1    2    0    0  0.10637618956E+03 -0.17588714756E+03 -0.48777376978E+03  0.56548778313E+03  0.19900000000E+03 0.  0.
<mgrwt>
<rscale>  0 0.61028730E+03</rscale>
<asrwt>0</asrwt>
<pdfrwt beam="1">  1        2 0.23068392E+00 0.61028730E+03</pdfrwt>
<pdfrwt beam="2">  1       -2 0.82374969E-02 0.61028730E+03</pdfrwt>
<totfact> 0.12136690E+03</totfact>
</mgrwt>
</event>
<event>
 4    1  0.1760335E-005  0.5272129E+03  0.7818608E-02  0.1006910E+00
          2   -1    0    0  501    0  0.00000000000E+00  0.00000000000E+00  0.66278570356E+03  0.66278570356E+03  0.25500000000E-02 0.  1.
         -2   -1    0    0    0  501 -0.00000000000E+00 -0.00000000000E+00 -0.10484286126E+03  0.10484286129E+03  0.25500000000E-02 0. -1.
    5000001    1    1    2    0    0 -0.15716947197E+03 -0.50724740793E+02  0.35338644790E+03  0.43790207102E+03  0.19900000000E+03 0.  0.
   -5000001    1    1    2    0    0  0.15716947197E+03  0.50724740793E+02  0.20455639439E+03  0.32972649383E+03  0.19900000000E+03 0.  0.
<mgrwt>
<rscale>  0 0.52721286E+03</rscale>
<asrwt>0</asrwt>
<pdfrwt beam="1">  1        2 0.94683671E-01 0.52721286E+03</pdfrwt>
<pdfrwt beam="2">  1       -2 0.14977552E-01 0.52721286E+03</pdfrwt>
<totfact> 0.16882924E+03</totfact>
</mgrwt>
</event>
<event>
 4    1  0.1760335E-005  0.4749471E+03  0.7818608E-02  0.1020533E+00
         -2   -1    0    0    0  501 -0.00000000000E+00  0.00000000000E+00  0.13126128401E+03  0.13126128403E+03  0.25500000000E-02 0. -1.
          2   -1    0    0  501    0  0.00000000000E+00 -0.00000000000E+00 -0.42962929277E+03  0.42962929278E+03  0.25500000000E-02 0.  1.
    5000001    1    1    2    0    0  0.44218316981E+02  0.11176639848E+03 -0.20638052367E+03  0.31087120795E+03  0.19900000000E+03 0.  0.
   -5000001    1    1    2    0    0 -0.44218316981E+02 -0.11176639848E+03 -0.91987485097E+02  0.25001936885E+03  0.19900000000E+03 0.  0.
<mgrwt>
<rscale>  0 0.47494712E+03</rscale>
<asrwt>0</asrwt>
<pdfrwt beam="1">  1        2 0.61375612E-01 0.47494712E+03</pdfrwt>
<pdfrwt beam="2">  1       -2 0.18751612E-01 0.47494712E+03</pdfrwt>
<totfact> 0.18946118E+03</totfact>
</mgrwt>
</event>
<event>
 4    1  0.1760335E-005  0.5010309E+03  0.7818608E-02  0.1013510E+00
         -2   -1    0    0    0  501 -0.00000000000E+00  0.00000000000E+00  0.36392893746E+02  0.36392893835E+02  0.25500000000E-02 0.  1.
          2   -1    0    0  501    0  0.00000000000E+00 -0.00000000000E+00 -0.17244574814E+04  0.17244574814E+04  0.25500000000E-02 0. -1.
    5000001    1    1    2    0    0 -0.88381423136E+02  0.10780332920E+03 -0.62955944017E+03  0.67481769571E+03  0.19900000000E+03 0.  0.
   -5000001    1    1    2    0    0  0.88381423136E+02 -0.10780332920E+03 -0.10585051475E+04  0.10860326795E+04  0.19900000000E+03 0.  0.
<mgrwt>
<rscale>  0 0.50103093E+03</rscale>
<asrwt>0</asrwt>
<pdfrwt beam="1">  1        2 0.24635102E+00 0.50103093E+03</pdfrwt>
<pdfrwt beam="2">  1       -2 0.51989859E-02 0.50103093E+03</pdfrwt>
<totfact> 0.22087543E+03</totfact>
</mgrwt>
</event>
<event>
 4    1  0.1760335E-005  0.8215180E+03  0.7818608E-02  0.9529382E-01
         -2   -1    0    0    0  501 -0.00000000000E+00  0.00000000000E+00  0.11654100636E+03  0.11654100639E+03  0.25500000000E-02 0. -1.
          2   -1    0    0  501    0  0.00000000000E+00 -0.00000000000E+00 -0.14477562414E+04  0.14477562414E+04  0.25500000000E-02 0.  1.
    5000001    1    1    2    0    0  0.13155589810E+03  0.33113540178E+03 -0.57702122770E+03  0.70676170373E+03  0.19900000000E+03 0.  0.
   -5000001    1    1    2    0    0 -0.13155589810E+03 -0.33113540178E+03 -0.75419400735E+03  0.85753554408E+03  0.19900000000E+03 0.  0.
<mgrwt>
<rscale>  0 0.82151803E+03</rscale>
<asrwt>0</asrwt>
<pdfrwt beam="1">  1        2 0.20682231E+00 0.82151803E+03</pdfrwt>
<pdfrwt beam="2">  1       -2 0.16648716E-01 0.82151803E+03</pdfrwt>
<totfact> 0.45984638E+02</totfact>
</mgrwt>
</event>
<event>
 4    1  0.1760335E-005  0.4928535E+03  0.7818608E-02  0.1015661E+00
         -2   -1    0    0    0  501 -0.00000000000E+00  0.00000000000E+00  0.93948495937E+02  0.93948495972E+02  0.25500000000E-02 0. -1.
          2   -1    0    0  501    0  0.00000000000E+00 -0.00000000000E+00 -0.64637702843E+03  0.64637702843E+03  0.25500000000E-02 0.  1.
    5000001    1    1    2    0    0  0.13659844872E+03  0.35685607811E+02 -0.22434103433E+03  0.33145512288E+03  0.19900000000E+03 0.  0.
   -5000001    1    1    2    0    0 -0.13659844872E+03 -0.35685607811E+02 -0.32808749816E+03  0.40887040153E+03  0.19900000000E+03 0.  0.
<mgrwt>
<rscale>  0 0.49285353E+03</rscale>
<asrwt>0</asrwt>
<pdfrwt beam="1">  1        2 0.92339573E-01 0.49285353E+03</pdfrwt>
<pdfrwt beam="2">  1       -2 0.13421214E-01 0.49285353E+03</pdfrwt>
<totfact> 0.20886682E+03</totfact>
</mgrwt>
</event>
<event>
 4    1  0.1760335E-005  0.8135194E+03  0.7818608E-02  0.9540652E-01
         -2   -1    0    0    0  501 -0.00000000000E+00  0.00000000000E+00  0.74527737799E+02  0.74527737842E+02  0.25500000000E-02 0. -1.
          2   -1    0    0  501    0  0.00000000000E+00 -0.00000000000E+00 -0.22200251862E+04  0.22200251862E+04  0.25500000000E-02 0.  1.
    5000001    1    1    2    0    0 -0.18383265433E+03 -0.19515383436E+03 -0.17280158900E+04  0.17599770965E+04  0.19900000000E+03 0.  0.
   -5000001    1    1    2    0    0  0.18383265433E+03  0.19515383436E+03 -0.41748155839E+03  0.53457582760E+03  0.19900000000E+03 0.  0.
<mgrwt>
<rscale>  0 0.81351940E+03</rscale>
<asrwt>0</asrwt>
<pdfrwt beam="1">  1        2 0.31714642E+00 0.81351940E+03</pdfrwt>
<pdfrwt beam="2">  1       -2 0.10646821E-01 0.81351940E+03</pdfrwt>
<totfact> 0.39045147E+02</totfact>
</mgrwt>
</event>
<event>
 4    1  0.1760335E-005  0.9015453E+03  0.7818608E-02  0.9423652E-01
          2   -1    0    0  501    0  0.00000000000E+00  0.00000000000E+00  0.35621805295E+03  0.35621805296E+03  0.25500000000E-02 0.  1.
         -2   -1    0    0    0  501 -0.00000000000E+00 -0.00000000000E+00 -0.57042584754E+03  0.57042584755E+03  0.25500000000E-02 0. -1.
    5000001    1    1    2    0    0 -0.90677705621E+02 -0.39416852564E+03 -0.10908415468E+03  0.46377971679E+03  0.19900000000E+03 0.  0.
   -5000001    1    1    2    0    0  0.90677705621E+02  0.39416852564E+03 -0.10512363991E+03  0.46286418372E+03  0.19900000000E+03 0.  0.
<mgrwt>
<rscale>  0 0.90154531E+03</rscale>
<asrwt>0</asrwt>
<pdfrwt beam="1">  1        2 0.50888294E-01 0.90154531E+03</pdfrwt>
<pdfrwt beam="2">  1       -2 0.81489406E-01 0.90154531E+03</pdfrwt>
<totfact> 0.13106501E+02</totfact>
</mgrwt>
</event>
<event>
 4    1  0.1760335E-005  0.5869001E+03  0.7818608E-02  0.9932963E-01
          2   -1    0    0  501    0  0.00000000000E+00  0.00000000000E+00  0.59114300374E+03  0.59114300375E+03  0.25500000000E-02 0.  1.
         -2   -1    0    0    0  501 -0.00000000000E+00 -0.00000000000E+00 -0.14567193455E+03  0.14567193457E+03  0.25500000000E-02 0. -1.
    5000001    1    1    2    0    0 -0.35040277036E+02  0.20528522226E+03  0.29310824992E+03  0.41095412111E+03  0.19900000000E+03 0.  0.
   -5000001    1    1    2    0    0  0.35040277036E+02 -0.20528522226E+03  0.15236281928E+03  0.32586081721E+03  0.19900000000E+03 0.  0.
<mgrwt>
<rscale>  0 0.58690014E+03</rscale>
<asrwt>0</asrwt>
<pdfrwt beam="1">  1        2 0.84449002E-01 0.58690014E+03</pdfrwt>
<pdfrwt beam="2">  1       -2 0.20810276E-01 0.58690014E+03</pdfrwt>
<totfact> 0.11004596E+03</totfact>
</mgrwt>
</event>
<event>
 4    1  0.1760335E-005  0.4448977E+03  0.7818608E-02  0.1029255E+00
         -2   -1    0    0    0  501 -0.00000000000E+00  0.00000000000E+00  0.12162814399E+03  0.12162814401E+03  0.25500000000E-02 0. -1.
          2   -1    0    0  501    0  0.00000000000E+00 -0.00000000000E+00 -0.40684249042E+03  0.40684249043E+03  0.25500000000E-02 0.  1.
    5000001    1    1    2    0    0  0.84713446509E+02  0.39268685755E+02 -0.18313522142E+03  0.28610820859E+03  0.19900000000E+03 0.  0.
   -5000001    1    1    2    0    0 -0.84713446509E+02 -0.39268685755E+02 -0.10207912502E+03  0.24236242585E+03  0.19900000000E+03 0.  0.
<mgrwt>
<rscale>  0 0.44489773E+03</rscale>
<asrwt>0</asrwt>
<pdfrwt beam="1">  1        2 0.58120355E-01 0.44489773E+03</pdfrwt>
<pdfrwt beam="2">  1       -2 0.17375449E-01 0.44489773E+03</pdfrwt>
<totfact> 0.22907537E+03</totfact>
</mgrwt>
</event>
<event>
 4    1  0.1760335E-005  0.4388991E+03  0.7818608E-02  0.1031085E+00
          2   -1    0    0  501    0  0.00000000000E+00  0.00000000000E+00  0.21956247244E+04  0.21956247244E+04  0.25500000000E-02 0.  1.
         -2   -1    0    0    0  501 -0.00000000000E+00 -0.00000000000E+00 -0.21933671606E+02  0.21933671754E+02  0.25500000000E-02 0. -1.
    5000001    1    1    2    0    0  0.79435784760E+02  0.14831207478E+02  0.13143281751E+04  0.13317618257E+04  0.19900000000E+03 0.  0.
   -5000001    1    1    2    0    0 -0.79435784760E+02 -0.14831207478E+02  0.85936287770E+03  0.88579657043E+03  0.19900000000E+03 0.  0.
<mgrwt>
<rscale>  0 0.43889913E+03</rscale>
<asrwt>0</asrwt>
<pdfrwt beam="1">  1        2 0.31366042E+00 0.43889913E+03</pdfrwt>
<pdfrwt beam="2">  1       -2 0.31333842E-02 0.43889913E+03</pdfrwt>
<totfact> 0.27929286E+03</totfact>
</mgrwt>
</event>
<event>
 4    1  0.1760335E-005  0.6618677E+03  0.7818608E-02  0.9784762E-01
          2   -1    0    0  501    0  0.00000000000E+00  0.00000000000E+00  0.33202774518E+03  0.33202774519E+03  0.25500000000E-02 0.  1.
         -2   -1    0    0    0  501 -0.00000000000E+00 -0.00000000000E+00 -0.32984358275E+03  0.32984358276E+03  0.25500000000E-02 0. -1.
    5000001    1    1    2    0    0  0.13148562134E+03 -0.15384202377E+03  0.17127051561E+03  0.33149724948E+03  0.19900000000E+03 0.  0.
   -5000001    1    1    2    0    0 -0.13148562134E+03  0.15384202377E+03 -0.16908635317E+03  0.33037407847E+03  0.19900000000E+03 0.  0.
<mgrwt>
<rscale>  0 0.66186772E+03</rscale>
<asrwt>0</asrwt>
<pdfrwt beam="1">  1        2 0.47432535E-01 0.66186772E+03</pdfrwt>
<pdfrwt beam="2">  1       -2 0.47120512E-01 0.66186772E+03</pdfrwt>
<totfact> 0.45824645E+02</totfact>
</mgrwt>
</event>
<event>
 4    1  0.1760335E-005  0.5622037E+03  0.7818608E-02  0.9987081E-01
          2   -1    0    0  501    0  0.00000000000E+00  0.00000000000E+00  0.10467126078E+04  0.10467126078E+04  0.25500000000E-02 0.  1.
         -2   -1    0    0    0  501 -0.00000000000E+00 -0.00000000000E+00 -0.75491829620E+02  0.75491829663E+02  0.25500000000E-02 0. -1.
    5000001    1    1    2    0    0 -0.16093415747E+03  0.35283772989E+01  0.25364374738E+03  0.36034483911E+03  0.19900000000E+03 0.  0.
   -5000001    1    1    2    0    0  0.16093415747E+03 -0.35283772989E+01  0.71757703083E+03  0.76185959839E+03  0.19900000000E+03 0.  0.
<mgrwt>
<rscale>  0 0.56220370E+03</rscale>
<asrwt>0</asrwt>
<pdfrwt beam="1">  1        2 0.14953037E+00 0.56220370E+03</pdfrwt>
<pdfrwt beam="2">  1       -2 0.10784548E-01 0.56220370E+03</pdfrwt>
<totfact> 0.16032205E+03</totfact>
</mgrwt>
</event>
<event>
 4    1  0.1760335E-005  0.5845392E+03  0.7818608E-02  0.9938012E-01
         -2   -1    0    0    0  501 -0.00000000000E+00  0.00000000000E+00  0.26844109327E+02  0.26844109448E+02  0.25500000000E-02 0. -1.
          2   -1    0    0  501    0  0.00000000000E+00 -0.00000000000E+00 -0.31821330305E+04  0.31821330305E+04  0.25500000000E-02 0.  1.
    5000001    1    1    2    0    0  0.69914783699E+02 -0.16551053506E+03 -0.93887866552E+03  0.97640973098E+03  0.19900000000E+03 0.  0.
   -5000001    1    1    2    0    0 -0.69914783699E+02  0.16551053506E+03 -0.22164102557E+04  0.22325674090E+04  0.19900000000E+03 0.  0.
<mgrwt>
<rscale>  0 0.58453923E+03</rscale>
<asrwt>0</asrwt>
<pdfrwt beam="1">  1        2 0.45459019E+00 0.58453923E+03</pdfrwt>
<pdfrwt beam="2">  1       -2 0.38348748E-02 0.58453923E+03</pdfrwt>
<totfact> 0.61936124E+02</totfact>
</mgrwt>
</event>
<event>
 4    1  0.1760335E-005  0.6888434E+03  0.7818608E-02  0.9736504E-01
         -2   -1    0    0    0  501 -0.00000000000E+00  0.00000000000E+00  0.19104961336E+03  0.19104961337E+03  0.25500000000E-02 0. -1.
          2   -1    0    0  501    0  0.00000000000E+00 -0.00000000000E+00 -0.62091887979E+03  0.62091887980E+03  0.25500000000E-02 0.  1.
    5000001    1    1    2    0    0 -0.19930959930E+03  0.17472401443E+03 -0.10453167487E+03  0.34753513296E+03  0.19900000000E+03 0.  0.
   -5000001    1    1    2    0    0  0.19930959930E+03 -0.17472401443E+03 -0.32533759156E+03  0.46443336021E+03  0.19900000000E+03 0.  0.
<mgrwt>
<rscale>  0 0.68884341E+03</rscale>
<asrwt>0</asrwt>
<pdfrwt beam="1">  1        2 0.88702696E-01 0.68884341E+03</pdfrwt>
<pdfrwt beam="2">  1       -2 0.27292802E-01 0.68884341E+03</pdfrwt>
<totfact> 0.63860985E+02</totfact>
</mgrwt>
</event>
<event>
 4    1  0.1760335E-005  0.4194143E+03  0.7818608E-02  0.1037257E+00
         -2   -1    0    0    0  501 -0.00000000000E+00  0.00000000000E+00  0.18177211445E+02  0.18177211624E+02  0.25500000000E-02 0. -1.
          2   -1    0    0  501    0  0.00000000000E+00 -0.00000000000E+00 -0.24193525120E+04  0.24193525120E+04  0.25500000000E-02 0.  1.
    5000001    1    1    2    0    0 -0.29291353121E+02 -0.51829581562E+02 -0.10329720338E+04  0.10536491406E+04  0.19900000000E+03 0.  0.
   -5000001    1    1    2    0    0  0.29291353121E+02  0.51829581562E+02 -0.13682032667E+04  0.13838805830E+04  0.19900000000E+03 0.  0.
<mgrwt>
<rscale>  0 0.41941427E+03</rscale>
<asrwt>0</asrwt>
<pdfrwt beam="1">  1        2 0.34562158E+00 0.41941427E+03</pdfrwt>
<pdfrwt beam="2">  1       -2 0.25967460E-02 0.41941427E+03</pdfrwt>
<totfact> 0.28657743E+03</totfact>
</mgrwt>
</event>
<event>
 4    1  0.1760335E-005  0.6472200E+03  0.7818608E-02  0.9812010E-01
          2   -1    0    0  501    0  0.00000000000E+00  0.00000000000E+00  0.64403278046E+02  0.64403278096E+02  0.25500000000E-02 0. -1.
         -2   -1    0    0    0  501 -0.00000000000E+00 -0.00000000000E+00 -0.16260572306E+04  0.16260572306E+04  0.25500000000E-02 0.  1.
    5000001    1    1    2    0    0 -0.12445508145E+03  0.99390192982E+02 -0.13016002349E+04  0.13263226037E+04  0.19900000000E+03 0.  0.
   -5000001    1    1    2    0    0  0.12445508145E+03 -0.99390192982E+02 -0.26005371773E+03  0.36413790501E+03  0.19900000000E+03 0.  0.
<mgrwt>
<rscale>  0 0.64721995E+03</rscale>
<asrwt>0</asrwt>
<pdfrwt beam="1">  1        2 0.92004693E-02 0.64721995E+03</pdfrwt>
<pdfrwt beam="2">  1       -2 0.23229387E+00 0.64721995E+03</pdfrwt>
<totfact> 0.63074675E+01</totfact>
</mgrwt>
</event>
<event>
 4    1  0.1760335E-005  0.7260758E+03  0.7818608E-02  0.9673650E-01
         -2   -1    0    0    0  501 -0.00000000000E+00  0.00000000000E+00  0.56133307992E+02  0.56133308050E+02  0.25500000000E-02 0. -1.
          2   -1    0    0  501    0  0.00000000000E+00 -0.00000000000E+00 -0.23479201385E+04  0.23479201385E+04  0.25500000000E-02 0.  1.
    5000001    1    1    2    0    0  0.26148017922E+03  0.14218779304E+03 -0.13447277443E+04  0.13915757108E+04  0.19900000000E+03 0.  0.
   -5000001    1    1    2    0    0 -0.26148017922E+03 -0.14218779304E+03 -0.94705908624E+03  0.10124777358E+04  0.19900000000E+03 0.  0.
<mgrwt>
<rscale>  0 0.72607582E+03</rscale>
<asrwt>0</asrwt>
<pdfrwt beam="1">  1        2 0.33541710E+00 0.72607582E+03</pdfrwt>
<pdfrwt beam="2">  1       -2 0.80190455E-02 0.72607582E+03</pdfrwt>
<totfact> 0.53503374E+02</totfact>
</mgrwt>
</event>
<event>
 4    1  0.1760335E-005  0.6700441E+03  0.7818608E-02  0.9769878E-01
         -2   -1    0    0    0  501 -0.00000000000E+00  0.00000000000E+00  0.29434726635E+02  0.29434726746E+02  0.25500000000E-02 0. -1.
          2   -1    0    0  501    0  0.00000000000E+00 -0.00000000000E+00 -0.38131756174E+04  0.38131756174E+04  0.25500000000E-02 0.  1.
    5000001    1    1    2    0    0 -0.16461704605E+03 -0.79550655139E+02 -0.75625628404E+03  0.80308881559E+03  0.19900000000E+03 0.  0.
   -5000001    1    1    2    0    0  0.16461704605E+03  0.79550655139E+02 -0.30274846067E+04  0.30395215285E+04  0.19900000000E+03 0.  0.
<mgrwt>
<rscale>  0 0.67004412E+03</rscale>
<asrwt>0</asrwt>
<pdfrwt beam="1">  1        2 0.54473906E+00 0.67004412E+03</pdfrwt>
<pdfrwt beam="2">  1       -2 0.42049634E-02 0.67004412E+03</pdfrwt>
<totfact> 0.22392465E+02</totfact>
</mgrwt>
</event>
<event>
 4    1  0.1760335E-005  0.5882223E+03  0.7818608E-02  0.9930147E-01
          2   -1    0    0  501    0  0.00000000000E+00  0.00000000000E+00  0.86690163112E+03  0.86690163112E+03  0.25500000000E-02 0.  1.
         -2   -1    0    0    0  501 -0.00000000000E+00 -0.00000000000E+00 -0.99782230042E+02  0.99782230075E+02  0.25500000000E-02 0. -1.
    5000001    1    1    2    0    0  0.72509306656E+02  0.20388858390E+03  0.39752605736E+03  0.49442504030E+03  0.19900000000E+03 0.  0.
   -5000001    1    1    2    0    0 -0.72509306656E+02 -0.20388858390E+03  0.36959334371E+03  0.47225882089E+03  0.19900000000E+03 0.  0.
<mgrwt>
<rscale>  0 0.58822233E+03</rscale>
<asrwt>0</asrwt>
<pdfrwt beam="1">  1        2 0.12384309E+00 0.58822233E+03</pdfrwt>
<pdfrwt beam="2">  1       -2 0.14254604E-01 0.58822233E+03</pdfrwt>
<totfact> 0.13095276E+03</totfact>
</mgrwt>
</event>
<event>
 4    1  0.1760335E-005  0.4679855E+03  0.7818608E-02  0.1022490E+00
          2   -1    0    0  501    0  0.00000000000E+00  0.00000000000E+00  0.24010201719E+02  0.24010201855E+02  0.25500000000E-02 0.  1.
         -2   -1    0    0    0  501 -0.00000000000E+00 -0.00000000000E+00 -0.22803892152E+04  0.22803892152E+04  0.25500000000E-02 0. -1.
    5000001    1    1    2    0    0 -0.66579037318E+02 -0.84622982142E+02 -0.14218972480E+04  0.14397869986E+04  0.19900000000E+03 0.  0.
   -5000001    1    1    2    0    0  0.66579037318E+02  0.84622982142E+02 -0.83448176543E+03  0.86461241846E+03  0.19900000000E+03 0.  0.
<mgrwt>
<rscale>  0 0.46798549E+03</rscale>
<asrwt>0</asrwt>
<pdfrwt beam="1">  1        2 0.34300303E-02 0.46798549E+03</pdfrwt>
<pdfrwt beam="2">  1       -2 0.32576975E+00 0.46798549E+03</pdfrwt>
<totfact> 0.65821709E+01</totfact>
</mgrwt>
</event>
<event>
 4    1  0.1760335E-005  0.4296246E+03  0.7818608E-02  0.1033979E+00
          2   -1    0    0  501    0  0.00000000000E+00  0.00000000000E+00  0.68525908388E+03  0.68525908388E+03  0.25500000000E-02 0.  1.
         -2   -1    0    0    0  501 -0.00000000000E+00 -0.00000000000E+00 -0.67338495854E+02  0.67338495903E+02  0.25500000000E-02 0. -1.
    5000001    1    1    2    0    0  0.74279943487E+02  0.31868485724E+02  0.31455649419E+03  0.38089355262E+03  0.19900000000E+03 0.  0.
   -5000001    1    1    2    0    0 -0.74279943487E+02 -0.31868485724E+02  0.30336409383E+03  0.37170402717E+03  0.19900000000E+03 0.  0.
<mgrwt>
<rscale>  0 0.42962456E+03</rscale>
<asrwt>0</asrwt>
<pdfrwt beam="1">  1        2 0.97894151E-01 0.42962456E+03</pdfrwt>
<pdfrwt beam="2">  1       -2 0.96197855E-02 0.42962456E+03</pdfrwt>
<totfact> 0.33466296E+03</totfact>
</mgrwt>
</event>
<event>
 4    1  0.1760335E-005  0.6633493E+03  0.7818608E-02  0.9782048E-01
          2   -1    0    0  501    0  0.00000000000E+00  0.00000000000E+00  0.25527297979E+04  0.25527297979E+04  0.25500000000E-02 0.  1.
         -2   -1    0    0    0  501 -0.00000000000E+00 -0.00000000000E+00 -0.43094291218E+02  0.43094291294E+02  0.25500000000E-02 0. -1.
    5000001    1    1    2    0    0 -0.26092046231E+03  0.35005774193E+02  0.11249022115E+04  0.11723100603E+04  0.19900000000E+03 0.  0.
   -5000001    1    1    2    0    0  0.26092046231E+03 -0.35005774193E+02  0.13847332951E+04  0.14235140289E+04  0.19900000000E+03 0.  0.
<mgrwt>
<rscale>  0 0.66334932E+03</rscale>
<asrwt>0</asrwt>
<pdfrwt beam="1">  1        2 0.36467584E+00 0.66334932E+03</pdfrwt>
<pdfrwt beam="2">  1       -2 0.61563247E-02 0.66334932E+03</pdfrwt>
<totfact> 0.64165405E+02</totfact>
</mgrwt>
</event>
<event>
 4    1  0.1760335E-005  0.6165632E+03  0.7818608E-02  0.9871626E-01
          2   -1    0    0  501    0  0.00000000000E+00  0.00000000000E+00  0.31530271504E+03  0.31530271505E+03  0.25500000000E-02 0.  1.
         -2   -1    0    0    0  501 -0.00000000000E+00 -0.00000000000E+00 -0.30141683827E+03  0.30141683828E+03  0.25500000000E-02 0. -1.
    5000001    1    1    2    0    0  0.21027422175E+03  0.10482124579E+03  0.22237517756E+02  0.30870414493E+03  0.19900000000E+03 0.  0.
   -5000001    1    1    2    0    0 -0.21027422175E+03 -0.10482124579E+03 -0.83516409936E+01  0.30801540840E+03  0.19900000000E+03 0.  0.
<mgrwt>
<rscale>  0 0.61656321E+03</rscale>
<asrwt>0</asrwt>
<pdfrwt beam="1">  1        2 0.45043245E-01 0.61656321E+03</pdfrwt>
<pdfrwt beam="2">  1       -2 0.43059548E-01 0.61656321E+03</pdfrwt>
<totfact> 0.58088515E+02</totfact>
</mgrwt>
</event>
<event>
 4    1  0.1760335E-005  0.7265543E+03  0.7818608E-02  0.9672868E-01
         -2   -1    0    0    0  501 -0.00000000000E+00  0.00000000000E+00  0.57705461049E+02  0.57705461106E+02  0.25500000000E-02 0. -1.
          2   -1    0    0  501    0  0.00000000000E+00 -0.00000000000E+00 -0.22869636059E+04  0.22869636059E+04  0.25500000000E-02 0.  1.
    5000001    1    1    2    0    0  0.30390406615E+02 -0.29976918056E+03 -0.98618568514E+03  0.10502134754E+04  0.19900000000E+03 0.  0.
   -5000001    1    1    2    0    0 -0.30390406615E+02  0.29976918056E+03 -0.12430724597E+04  0.12944555915E+04  0.19900000000E+03 0.  0.
<mgrwt>
<rscale>  0 0.72655430E+03</rscale>
<asrwt>0</asrwt>
<pdfrwt beam="1">  1        2 0.32670903E+00 0.72655430E+03</pdfrwt>
<pdfrwt beam="2">  1       -2 0.82436387E-02 0.72655430E+03</pdfrwt>
<totfact> 0.54982128E+02</totfact>
</mgrwt>
</event>
<event>
 4    1  0.1760335E-005  0.4610422E+03  0.7818608E-02  0.1024479E+00
          2   -1    0    0  501    0  0.00000000000E+00  0.00000000000E+00  0.73591406826E+03  0.73591406826E+03  0.25500000000E-02 0.  1.
         -2   -1    0    0    0  501 -0.00000000000E+00 -0.00000000000E+00 -0.72209487420E+02  0.72209487465E+02  0.25500000000E-02 0. -1.
    5000001    1    1    2    0    0 -0.18745829657E+02 -0.57355490235E+02  0.15746732461E+03  0.26084097973E+03  0.19900000000E+03 0.  0.
   -5000001    1    1    2    0    0  0.18745829657E+02  0.57355490235E+02  0.50623725623E+03  0.54728257599E+03  0.19900000000E+03 0.  0.
<mgrwt>
<rscale>  0 0.46104220E+03</rscale>
<asrwt>0</asrwt>
<pdfrwt beam="1">  1        2 0.10513059E+00 0.46104220E+03</pdfrwt>
<pdfrwt beam="2">  1       -2 0.10315640E-01 0.46104220E+03</pdfrwt>
<totfact> 0.27444274E+03</totfact>
</mgrwt>
</event>
<event>
 4    1  0.1760335E-005  0.4835820E+03  0.7818608E-02  0.1018155E+00
          2   -1    0    0  501    0  0.00000000000E+00  0.00000000000E+00  0.13937079297E+04  0.13937079297E+04  0.25500000000E-02 0.  1.
         -2   -1    0    0    0  501 -0.00000000000E+00 -0.00000000000E+00 -0.41947740146E+02  0.41947740223E+02  0.25500000000E-02 0. -1.
    5000001    1    1    2    0    0 -0.82877503494E+02 -0.10144194857E+03  0.79838553987E+03  0.83317442339E+03  0.19900000000E+03 0.  0.
   -5000001    1    1    2    0    0  0.82877503494E+02  0.10144194857E+03  0.55337464969E+03  0.60248124654E+03  0.19900000000E+03 0.  0.
<mgrwt>
<rscale>  0 0.48358204E+03</rscale>
<asrwt>0</asrwt>
<pdfrwt beam="1">  1        2 0.19910113E+00 0.48358204E+03</pdfrwt>
<pdfrwt beam="2">  1       -2 0.59925343E-02 0.48358204E+03</pdfrwt>
<totfact> 0.26210671E+03</totfact>
</mgrwt>
</event>
<event>
 4    1  0.1760335E-005  0.5325383E+03  0.7818608E-02  0.1005618E+00
         -2   -1    0    0    0  501 -0.00000000000E+00  0.00000000000E+00  0.29983064993E+03  0.29983064994E+03  0.25500000000E-02 0. -1.
          2   -1    0    0  501    0  0.00000000000E+00 -0.00000000000E+00 -0.23646431092E+03  0.23646431093E+03  0.25500000000E-02 0.  1.
    5000001    1    1    2    0    0 -0.95179266803E+02  0.18546683368E+02  0.18069718704E+03  0.28575434502E+03  0.19900000000E+03 0.  0.
   -5000001    1    1    2    0    0  0.95179266803E+02 -0.18546683368E+02 -0.11733084803E+03  0.25054061585E+03  0.19900000000E+03 0.  0.
<mgrwt>
<rscale>  0 0.53253825E+03</rscale>
<asrwt>0</asrwt>
<pdfrwt beam="1">  1        2 0.33780616E-01 0.53253825E+03</pdfrwt>
<pdfrwt beam="2">  1       -2 0.42832950E-01 0.53253825E+03</pdfrwt>
<totfact> 0.80766902E+02</totfact>
</mgrwt>
</event>
<event>
 4    1  0.1760335E-005  0.4884839E+03  0.7818608E-02  0.1016829E+00
          2   -1    0    0  501    0  0.00000000000E+00  0.00000000000E+00  0.28997546333E+04  0.28997546333E+04  0.25500000000E-02 0.  1.
         -2   -1    0    0    0  501 -0.00000000000E+00 -0.00000000000E+00 -0.20572131537E+02  0.20572131695E+02  0.25500000000E-02 0. -1.
    5000001    1    1    2    0    0  0.41513201293E+01  0.68116088822E+02  0.69779176592E+03  0.72881505446E+03  0.19900000000E+03 0.  0.
   -5000001    1    1    2    0    0 -0.41513201293E+01 -0.68116088822E+02  0.21813907359E+04  0.21915117106E+04  0.19900000000E+03 0.  0.
<mgrwt>
<rscale>  0 0.48848392E+03</rscale>
<asrwt>0</asrwt>
<pdfrwt beam="1">  1        2 0.41425039E+00 0.48848392E+03</pdfrwt>
<pdfrwt beam="2">  1       -2 0.29388779E-02 0.48848392E+03</pdfrwt>
<totfact> 0.13363791E+03</totfact>
</mgrwt>
</event>
<event>
 4    1  0.1760335E-005  0.6154279E+03  0.7818608E-02  0.9873905E-01
          2   -1    0    0  501    0  0.00000000000E+00  0.00000000000E+00  0.32914331263E+03  0.32914331264E+03  0.25500000000E-02 0.  1.
         -2   -1    0    0    0  501 -0.00000000000E+00 -0.00000000000E+00 -0.28767974818E+03  0.28767974819E+03  0.25500000000E-02 0. -1.
    5000001    1    1    2    0    0  0.74746312984E+02 -0.15209195754E+03 -0.14201826991E+03  0.29747128238E+03  0.19900000000E+03 0.  0.
   -5000001    1    1    2    0    0 -0.74746312984E+02  0.15209195754E+03  0.18348183436E+03  0.31935177844E+03  0.19900000000E+03 0.  0.
<mgrwt>
<rscale>  0 0.61542787E+03</rscale>
<asrwt>0</asrwt>
<pdfrwt beam="1">  1        2 0.47020473E-01 0.61542787E+03</pdfrwt>
<pdfrwt beam="2">  1       -2 0.41097107E-01 0.61542787E+03</pdfrwt>
<totfact> 0.60702415E+02</totfact>
</mgrwt>
</event>
<event>
 4    1  0.1760335E-005  0.6361104E+03  0.7818608E-02  0.9833197E-01
         -2   -1    0    0    0  501 -0.00000000000E+00  0.00000000000E+00  0.50226914349E+03  0.50226914349E+03  0.25500000000E-02 0. -1.
          2   -1    0    0  501    0  0.00000000000E+00 -0.00000000000E+00 -0.20140419240E+03  0.20140419242E+03  0.25500000000E-02 0.  1.
    5000001    1    1    2    0    0  0.11959515601E+03  0.20616624048E+03  0.22667766099E+03  0.38443631728E+03  0.19900000000E+03 0.  0.
   -5000001    1    1    2    0    0 -0.11959515601E+03 -0.20616624048E+03  0.74187290099E+02  0.31923701863E+03  0.19900000000E+03 0.  0.
<mgrwt>
<rscale>  0 0.63611040E+03</rscale>
<asrwt>0</asrwt>
<pdfrwt beam="1">  1        2 0.28772028E-01 0.63611040E+03</pdfrwt>
<pdfrwt beam="2">  1       -2 0.71752734E-01 0.63611040E+03</pdfrwt>
<totfact> 0.33178643E+02</totfact>
</mgrwt>
</event>
<event>
 4    1  0.1760335E-005  0.5026422E+03  0.7818608E-02  0.1013092E+00
         -2   -1    0    0    0  501 -0.00000000000E+00  0.00000000000E+00  0.12843839970E+03  0.12843839973E+03  0.25500000000E-02 0. -1.
          2   -1    0    0  501    0  0.00000000000E+00 -0.00000000000E+00 -0.49177114124E+03  0.49177114124E+03  0.25500000000E-02 0.  1.
    5000001    1    1    2    0    0 -0.95479283859E+02 -0.11459331633E+03 -0.13694921994E+03  0.28390845467E+03  0.19900000000E+03 0.  0.
   -5000001    1    1    2    0    0  0.95479283859E+02  0.11459331633E+03 -0.22638352160E+03  0.33630108630E+03  0.19900000000E+03 0.  0.
<mgrwt>
<rscale>  0 0.50264221E+03</rscale>
<asrwt>0</asrwt>
<pdfrwt beam="1">  1        2 0.70253019E-01 0.50264221E+03</pdfrwt>
<pdfrwt beam="2">  1       -2 0.18348343E-01 0.50264221E+03</pdfrwt>
<totfact> 0.16914665E+03</totfact>
</mgrwt>
</event>
<event>
 4    1  0.1760335E-005  0.7550650E+03  0.7818608E-02  0.9627438E-01
          2   -1    0    0  501    0  0.00000000000E+00  0.00000000000E+00  0.13036510372E+04  0.13036510372E+04  0.25500000000E-02 0.  1.
         -2   -1    0    0    0  501 -0.00000000000E+00 -0.00000000000E+00 -0.10933200059E+03  0.10933200062E+03  0.25500000000E-02 0. -1.
    5000001    1    1    2    0    0 -0.22004491082E+03  0.23080088065E+03  0.53123716648E+03  0.65077087852E+03  0.19900000000E+03 0.  0.
   -5000001    1    1    2    0    0  0.22004491082E+03 -0.23080088065E+03  0.66308187009E+03  0.76221215926E+03  0.19900000000E+03 0.  0.
<mgrwt>
<rscale>  0 0.75506497E+03</rscale>
<asrwt>0</asrwt>
<pdfrwt beam="1">  1        2 0.18623586E+00 0.75506497E+03</pdfrwt>
<pdfrwt beam="2">  1       -2 0.15618857E-01 0.75506497E+03</pdfrwt>
<totfact> 0.61512708E+02</totfact>
</mgrwt>
</event>
<event>
 4    1  0.1760335E-005  0.5081923E+03  0.7818608E-02  0.1011662E+00
          2   -1    0    0  501    0  0.00000000000E+00  0.00000000000E+00  0.58379549426E+03  0.58379549427E+03  0.25500000000E-02 0.  1.
         -2   -1    0    0    0  501 -0.00000000000E+00 -0.00000000000E+00 -0.11059497507E+03  0.11059497510E+03  0.25500000000E-02 0. -1.
    5000001    1    1    2    0    0 -0.42959493912E+01 -0.12869156313E+03  0.36171200252E+03  0.43245409741E+03  0.19900000000E+03 0.  0.
   -5000001    1    1    2    0    0  0.42959493912E+01  0.12869156313E+03  0.11148851667E+03  0.26193637195E+03  0.19900000000E+03 0.  0.
<mgrwt>
<rscale>  0 0.50819228E+03</rscale>
<asrwt>0</asrwt>
<pdfrwt beam="1">  1        2 0.83399357E-01 0.50819228E+03</pdfrwt>
<pdfrwt beam="2">  1       -2 0.15799282E-01 0.50819228E+03</pdfrwt>
<totfact> 0.17925515E+03</totfact>
</mgrwt>
</event>
<event>
 4    1  0.1760335E-005  0.5099821E+03  0.7818608E-02  0.1011206E+00
         -2   -1    0    0    0  501 -0.00000000000E+00  0.00000000000E+00  0.28813258914E+02  0.28813259027E+02  0.25500000000E-02 0. -1.
          2   -1    0    0  501    0  0.00000000000E+00 -0.00000000000E+00 -0.22566154396E+04  0.22566154396E+04  0.25500000000E-02 0.  1.
    5000001    1    1    2    0    0 -0.10876896285E+03  0.77124548370E+02 -0.15056207415E+04  0.15245568866E+04  0.19900000000E+03 0.  0.
   -5000001    1    1    2    0    0  0.10876896285E+03 -0.77124548370E+02 -0.72218143924E+03  0.76087181208E+03  0.19900000000E+03 0.  0.
<mgrwt>
<rscale>  0 0.50998214E+03</rscale>
<asrwt>0</asrwt>
<pdfrwt beam="1">  1        2 0.32237352E+00 0.50998214E+03</pdfrwt>
<pdfrwt beam="2">  1       -2 0.41161813E-02 0.50998214E+03</pdfrwt>
<totfact> 0.17132756E+03</totfact>
</mgrwt>
</event>
<event>
 4    1  0.1760335E-005  0.4965711E+03  0.7818608E-02  0.1014678E+00
          2   -1    0    0  501    0  0.00000000000E+00  0.00000000000E+00  0.10689686166E+03  0.10689686169E+03  0.25500000000E-02 0. -1.
         -2   -1    0    0    0  501 -0.00000000000E+00 -0.00000000000E+00 -0.57668400393E+03  0.57668400393E+03  0.25500000000E-02 0.  1.
    5000001    1    1    2    0    0  0.14204055531E+03  0.37219883122E+02 -0.20461235341E+03  0.32097983460E+03  0.19900000000E+03 0.  0.
   -5000001    1    1    2    0    0 -0.14204055531E+03 -0.37219883122E+02 -0.26517478886E+03  0.36260103102E+03  0.19900000000E+03 0.  0.
<mgrwt>
<rscale>  0 0.49657108E+03</rscale>
<asrwt>0</asrwt>
<pdfrwt beam="1">  1        2 0.15270981E-01 0.49657108E+03</pdfrwt>
<pdfrwt beam="2">  1       -2 0.82383427E-01 0.49657108E+03</pdfrwt>
<totfact> 0.51192338E+02</totfact>
</mgrwt>
</event>
<event>
 4    1  0.1760335E-005  0.1570290E+04  0.7818608E-02  0.8839010E-01
         -2   -1    0    0    0  501 -0.00000000000E+00  0.00000000000E+00  0.86533343649E+03  0.86533343649E+03  0.25500000000E-02 0. -1.
          2   -1    0    0  501    0  0.00000000000E+00 -0.00000000000E+00 -0.71238786956E+03  0.71238786956E+03  0.25500000000E-02 0.  1.
    5000001    1    1    2    0    0  0.52688830794E+03 -0.44173388569E+03  0.40066347425E+03  0.82028795822E+03  0.19900000000E+03 0.  0.
   -5000001    1    1    2    0    0 -0.52688830794E+03  0.44173388569E+03 -0.24771790732E+03  0.75743334783E+03  0.19900000000E+03 0.  0.
<mgrwt>
<rscale>  0 0.15702905E+04</rscale>
<asrwt>0</asrwt>
<pdfrwt beam="1">  1        2 0.10176970E+00 0.15702905E+04</pdfrwt>
<pdfrwt beam="2">  1       -2 0.12361906E+00 0.15702905E+04</pdfrwt>
<totfact> 0.20912210E+01</totfact>
</mgrwt>
</event>
<event>
 4    1  0.1760335E-005  0.5485212E+03  0.7818608E-02  0.1001837E+00
         -2   -1    0    0    0  501 -0.00000000000E+00  0.00000000000E+00  0.31212051499E+02  0.31212051603E+02  0.25500000000E-02 0. -1.
          2   -1    0    0  501    0  0.00000000000E+00 -0.00000000000E+00 -0.24099302740E+04  0.24099302740E+04  0.25500000000E-02 0.  1.
    5000001    1    1    2    0    0  0.11290471468E+03  0.21587042041E+01 -0.51639442396E+03  0.56481531114E+03  0.19900000000E+03 0.  0.
   -5000001    1    1    2    0    0 -0.11290471468E+03 -0.21587042041E+01 -0.18623237986E+04  0.18763270145E+04  0.19900000000E+03 0.  0.
<mgrwt>
<rscale>  0 0.54852117E+03</rscale>
<asrwt>0</asrwt>
<pdfrwt beam="1">  1        2 0.34427564E+00 0.54852117E+03</pdfrwt>
<pdfrwt beam="2">  1       -2 0.44588660E-02 0.54852117E+03</pdfrwt>
<totfact> 0.12648634E+03</totfact>
</mgrwt>
</event>
<event>
 4    1  0.1760335E-005  0.6985300E+03  0.7818608E-02  0.9719749E-01
         -2   -1    0    0    0  501 -0.00000000000E+00  0.00000000000E+00  0.14004657193E+03  0.14004657195E+03  0.25500000000E-02 0. -1.
          2   -1    0    0  501    0  0.00000000000E+00 -0.00000000000E+00 -0.87103911277E+03  0.87103911278E+03  0.25500000000E-02 0.  1.
    5000001    1    1    2    0    0  0.27518722243E+03  0.43549994971E+02 -0.26562832998E+03  0.43334053485E+03  0.19900000000E+03 0.  0.
   -5000001    1    1    2    0    0 -0.27518722243E+03 -0.43549994971E+02 -0.46536421087E+03  0.57774514988E+03  0.19900000000E+03 0.  0.
<mgrwt>
<rscale>  0 0.69853000E+03</rscale>
<asrwt>0</asrwt>
<pdfrwt beam="1">  1        2 0.12443416E+00 0.69853000E+03</pdfrwt>
<pdfrwt beam="2">  1       -2 0.20006654E-01 0.69853000E+03</pdfrwt>
<totfact> 0.72731975E+02</totfact>
</mgrwt>
</event>
<event>
 4    1  0.1760335E-005  0.6757493E+03  0.7818608E-02  0.9759627E-01
          2   -1    0    0  501    0  0.00000000000E+00  0.00000000000E+00  0.21037748174E+04  0.21037748174E+04  0.25500000000E-02 0.  1.
         -2   -1    0    0    0  501 -0.00000000000E+00 -0.00000000000E+00 -0.54264013295E+02  0.54264013355E+02  0.25500000000E-02 0. -1.
    5000001    1    1    2    0    0  0.65463200637E+02 -0.25175503829E+03  0.75962855352E+03  0.82722582724E+03  0.19900000000E+03 0.  0.
   -5000001    1    1    2    0    0 -0.65463200637E+02  0.25175503829E+03  0.12898822506E+04  0.13308130035E+04  0.19900000000E+03 0.  0.
<mgrwt>
<rscale>  0 0.67574926E+03</rscale>
<asrwt>0</asrwt>
<pdfrwt beam="1">  1        2 0.30053927E+00 0.67574926E+03</pdfrwt>
<pdfrwt beam="2">  1       -2 0.77520018E-02 0.67574926E+03</pdfrwt>
<totfact> 0.75367750E+02</totfact>
</mgrwt>
</event>
<event>
 4    1  0.1760335E-005  0.1189850E+04  0.7818608E-02  0.9121787E-01
         -2   -1    0    0    0  501 -0.00000000000E+00  0.00000000000E+00  0.77967866929E+03  0.77967866929E+03  0.25500000000E-02 0. -1.
          2   -1    0    0  501    0  0.00000000000E+00 -0.00000000000E+00 -0.45395097803E+03  0.45395097804E+03  0.25500000000E-02 0.  1.
    5000001    1    1    2    0    0  0.43065699624E+02  0.50026183897E+03  0.42147763720E+03  0.68509923417E+03  0.19900000000E+03 0.  0.
   -5000001    1    1    2    0    0 -0.43065699624E+02 -0.50026183897E+03 -0.95749945937E+02  0.54853041316E+03  0.19900000000E+03 0.  0.
<mgrwt>
<rscale>  0 0.11898502E+04</rscale>
<asrwt>0</asrwt>
<pdfrwt beam="1">  1        2 0.64850140E-01 0.11898502E+04</pdfrwt>
<pdfrwt beam="2">  1       -2 0.11138267E+00 0.11898502E+04</pdfrwt>
<totfact> 0.47231757E+01</totfact>
</mgrwt>
</event>
<event>
 4    1  0.1760335E-005  0.5825780E+03  0.7818608E-02  0.9942225E-01
          2   -1    0    0  501    0  0.00000000000E+00  0.00000000000E+00  0.17262104567E+04  0.17262104567E+04  0.25500000000E-02 0.  1.
         -2   -1    0    0    0  501 -0.00000000000E+00 -0.00000000000E+00 -0.49153502062E+02  0.49153502129E+02  0.25500000000E-02 0. -1.
    5000001    1    1    2    0    0  0.17331217112E+03  0.97245572567E+02  0.10697010539E+04  0.11060538662E+04  0.19900000000E+03 0.  0.
   -5000001    1    1    2    0    0 -0.17331217112E+03 -0.97245572567E+02  0.60735590073E+03  0.66931009270E+03  0.19900000000E+03 0.  0.
<mgrwt>
<rscale>  0 0.58257803E+03</rscale>
<asrwt>0</asrwt>
<pdfrwt beam="1">  1        2 0.24660150E+00 0.58257803E+03</pdfrwt>
<pdfrwt beam="2">  1       -2 0.70219287E-02 0.58257803E+03</pdfrwt>
<totfact> 0.13737809E+03</totfact>
</mgrwt>
</event>
<event>
 4    1  0.1760335E-005  0.4810350E+03  0.7818608E-02  0.1018851E+00
          2   -1    0    0  501    0  0.00000000000E+00  0.00000000000E+00  0.71361418055E+03  0.71361418055E+03  0.25500000000E-02 0.  1.
         -2   -1    0    0    0  501 -0.00000000000E+00 -0.00000000000E+00 -0.81064356374E+02  0.81064356414E+02  0.25500000000E-02 0. -1.
    5000001    1    1    2    0    0 -0.11128575944E+03 -0.63031560786E+02  0.24445151448E+03  0.34016913564E+03  0.19900000000E+03 0.  0.
   -5000001    1    1    2    0    0  0.11128575944E+03  0.63031560786E+02  0.38809830969E+03  0.45450940132E+03  0.19900000000E+03 0.  0.
<mgrwt>
<rscale>  0 0.48103503E+03</rscale>
<asrwt>0</asrwt>
<pdfrwt beam="1">  1        2 0.10194488E+00 0.48103503E+03</pdfrwt>
<pdfrwt beam="2">  1       -2 0.11580622E-01 0.48103503E+03</pdfrwt>
<totfact> 0.23625806E+03</totfact>
</mgrwt>
</event>
<event>
 4    1  0.1760335E-005  0.1071738E+04  0.7818608E-02  0.9233185E-01
         -2   -1    0    0    0  501 -0.00000000000E+00  0.00000000000E+00  0.43533068872E+03  0.43533068873E+03  0.25500000000E-02 0. -1.
          2   -1    0    0  501    0  0.00000000000E+00 -0.00000000000E+00 -0.65962574390E+03  0.65962574390E+03  0.25500000000E-02 0.  1.
    5000001    1    1    2    0    0 -0.49032323117E+03 -0.23715851458E+02 -0.29304333451E+02  0.53050830021E+03  0.19900000000E+03 0.  0.
   -5000001    1    1    2    0    0  0.49032323117E+03  0.23715851458E+02 -0.19499072173E+03  0.56444813242E+03  0.19900000000E+03 0.  0.
<mgrwt>
<rscale>  0 0.10717375E+04</rscale>
<asrwt>0</asrwt>
<pdfrwt beam="1">  1        2 0.94232249E-01 0.10717375E+04</pdfrwt>
<pdfrwt beam="2">  1       -2 0.62190098E-01 0.10717375E+04</pdfrwt>
<totfact> 0.11563794E+02</totfact>
</mgrwt>
</event>
<event>
 4    1  0.1760335E-005  0.6659893E+03  0.7818608E-02  0.9777230E-01
         -2   -1    0    0    0  501 -0.00000000000E+00  0.00000000000E+00  0.59502253363E+02  0.59502253417E+02  0.25500000000E-02 0. -1.
          2   -1    0    0  501    0  0.00000000000E+00 -0.00000000000E+00 -0.18635504731E+04  0.18635504731E+04  0.25500000000E-02 0.  1.
    5000001    1    1    2    0    0 -0.23194531690E+03 -0.12821284964E+03 -0.99546928761E+03  0.10491888617E+04  0.19900000000E+03 0.  0.
   -5000001    1    1    2    0    0  0.23194531690E+03  0.12821284964E+03 -0.80857893216E+03  0.87386386489E+03  0.19900000000E+03 0.  0.
<mgrwt>
<rscale>  0 0.66598935E+03</rscale>
<asrwt>0</asrwt>
<pdfrwt beam="1">  1        2 0.26622146E+00 0.66598935E+03</pdfrwt>
<pdfrwt beam="2">  1       -2 0.85003231E-02 0.66598935E+03</pdfrwt>
<totfact> 0.86019438E+02</totfact>
</mgrwt>
</event>
<event>
 4    1  0.1760335E-005  0.5632418E+03  0.7818608E-02  0.9984746E-01
          2   -1    0    0  501    0  0.00000000000E+00  0.00000000000E+00  0.53583715966E+03  0.53583715967E+03  0.25500000000E-02 0.  1.
         -2   -1    0    0    0  501 -0.00000000000E+00 -0.00000000000E+00 -0.14801201078E+03  0.14801201080E+03  0.25500000000E-02 0. -1.
    5000001    1    1    2    0    0  0.18327348008E+03 -0.35127630318E+02  0.27878210314E+03  0.39005586772E+03  0.19900000000E+03 0.  0.
   -5000001    1    1    2    0    0 -0.18327348008E+03  0.35127630318E+02  0.10904304575E+03  0.29379330275E+03  0.19900000000E+03 0.  0.
<mgrwt>
<rscale>  0 0.56324181E+03</rscale>
<asrwt>0</asrwt>
<pdfrwt beam="1">  1        2 0.76548166E-01 0.56324181E+03</pdfrwt>
<pdfrwt beam="2">  1       -2 0.21144573E-01 0.56324181E+03</pdfrwt>
<totfact> 0.11995470E+03</totfact>
</mgrwt>
</event>
<event>
 4    1  0.1760335E-005  0.5560491E+03  0.7818608E-02  0.1000103E+00
          2   -1    0    0  501    0  0.00000000000E+00  0.00000000000E+00  0.10744228359E+04  0.10744228359E+04  0.25500000000E-02 0.  1.
         -2   -1    0    0    0  501 -0.00000000000E+00 -0.00000000000E+00 -0.71943409510E+02  0.71943409555E+02  0.25500000000E-02 0. -1.
    5000001    1    1    2    0    0  0.10563914940E+03 -0.12283672921E+03  0.72182570529E+03  0.76608213708E+03  0.19900000000E+03 0.  0.
   -5000001    1    1    2    0    0 -0.10563914940E+03  0.12283672921E+03  0.28065372114E+03  0.38028410843E+03  0.19900000000E+03 0.  0.
<mgrwt>
<rscale>  0 0.55604907E+03</rscale>
<asrwt>0</asrwt>
<pdfrwt beam="1">  1        2 0.15348897E+00 0.55604907E+03</pdfrwt>
<pdfrwt beam="2">  1       -2 0.10277630E-01 0.55604907E+03</pdfrwt>
<totfact> 0.16697750E+03</totfact>
</mgrwt>
</event>
<event>
 4    1  0.1760335E-005  0.4576284E+03  0.7818608E-02  0.1025471E+00
          2   -1    0    0  501    0  0.00000000000E+00  0.00000000000E+00  0.58124761313E+03  0.58124761314E+03  0.25500000000E-02 0.  1.
         -2   -1    0    0    0  501 -0.00000000000E+00 -0.00000000000E+00 -0.90075111721E+02  0.90075111757E+02  0.25500000000E-02 0. -1.
    5000001    1    1    2    0    0 -0.93985118453E+02  0.60689102614E+02  0.26824468765E+03  0.35223938184E+03  0.19900000000E+03 0.  0.
   -5000001    1    1    2    0    0  0.93985118453E+02 -0.60689102614E+02  0.22292781376E+03  0.31908334306E+03  0.19900000000E+03 0.  0.
<mgrwt>
<rscale>  0 0.45762842E+03</rscale>
<asrwt>0</asrwt>
<pdfrwt beam="1">  1        2 0.83035376E-01 0.45762842E+03</pdfrwt>
<pdfrwt beam="2">  1       -2 0.12867873E-01 0.45762842E+03</pdfrwt>
<totfact> 0.25347834E+03</totfact>
</mgrwt>
</event>
<event>
 4    1  0.1760335E-005  0.7893201E+03  0.7818608E-02  0.9575606E-01
          2   -1    0    0  501    0  0.00000000000E+00  0.00000000000E+00  0.35843399549E+04  0.35843399549E+04  0.25500000000E-02 0.  1.
         -2   -1    0    0    0  501 -0.00000000000E+00 -0.00000000000E+00 -0.43454741500E+02  0.43454741575E+02  0.25500000000E-02 0. -1.
    5000001    1    1    2    0    0 -0.33880682702E+03 -0.24898210091E+02  0.16449447003E+04  0.16914059401E+04  0.19900000000E+03 0.  0.
   -5000001    1    1    2    0    0  0.33880682702E+03  0.24898210091E+02  0.18959405131E+04  0.19363887564E+04  0.19900000000E+03 0.  0.
<mgrwt>
<rscale>  0 0.78932013E+03</rscale>
<asrwt>0</asrwt>
<pdfrwt beam="1">  1        2 0.51204870E+00 0.78932013E+03</pdfrwt>
<pdfrwt beam="2">  1       -2 0.62078185E-02 0.78932013E+03</pdfrwt>
<totfact> 0.16691820E+02</totfact>
</mgrwt>
</event>
<event>
 4    1  0.1760335E-005  0.9681611E+03  0.7818608E-02  0.9344171E-01
         -2   -1    0    0    0  501 -0.00000000000E+00  0.00000000000E+00  0.64438058269E+02  0.64438058320E+02  0.25500000000E-02 0. -1.
          2   -1    0    0  501    0  0.00000000000E+00 -0.00000000000E+00 -0.36365776478E+04  0.36365776478E+04  0.25500000000E-02 0.  1.
    5000001    1    1    2    0    0 -0.21201280722E+03 -0.38433985659E+03 -0.16122955625E+04  0.16827847565E+04  0.19900000000E+03 0.  0.
   -5000001    1    1    2    0    0  0.21201280722E+03  0.38433985659E+03 -0.19598440269E+04  0.20182309496E+04  0.19900000000E+03 0.  0.
<mgrwt>
<rscale>  0 0.96816115E+03</rscale>
<asrwt>0</asrwt>
<pdfrwt beam="1">  1        2 0.51951096E+00 0.96816115E+03</pdfrwt>
<pdfrwt beam="2">  1       -2 0.92054392E-02 0.96816115E+03</pdfrwt>
<totfact> 0.80898626E+01</totfact>
</mgrwt>
</event>
<event>
 4    1  0.1760335E-005  0.7516011E+03  0.7818608E-02  0.9632842E-01
          2   -1    0    0  501    0  0.00000000000E+00  0.00000000000E+00  0.13986476222E+04  0.13986476222E+04  0.25500000000E-02 0.  1.
         -2   -1    0    0    0  501 -0.00000000000E+00 -0.00000000000E+00 -0.10097329359E+03  0.10097329362E+03  0.25500000000E-02 0. -1.
    5000001    1    1    2    0    0 -0.31795080487E+03 -0.63241971733E+00  0.69485503453E+03  0.78963132744E+03  0.19900000000E+03 0.  0.
   -5000001    1    1    2    0    0  0.31795080487E+03  0.63241971733E+00  0.60281929404E+03  0.70998958833E+03  0.19900000000E+03 0.  0.
<mgrwt>
<rscale>  0 0.75160111E+03</rscale>
<asrwt>0</asrwt>
<pdfrwt beam="1">  1        2 0.19980680E+00 0.75160111E+03</pdfrwt>
<pdfrwt beam="2">  1       -2 0.14424757E-01 0.75160111E+03</pdfrwt>
<totfact> 0.62519841E+02</totfact>
</mgrwt>
</event>
<event>
 4    1  0.1760335E-005  0.6587204E+03  0.7818608E-02  0.9790552E-01
          2   -1    0    0  501    0  0.00000000000E+00  0.00000000000E+00  0.81643633783E+03  0.81643633783E+03  0.25500000000E-02 0.  1.
         -2   -1    0    0    0  501 -0.00000000000E+00 -0.00000000000E+00 -0.13286785877E+03  0.13286785879E+03  0.25500000000E-02 0. -1.
    5000001    1    1    2    0    0 -0.25906381733E+03 -0.25551229381E+01  0.28138443777E+03  0.43115982178E+03  0.19900000000E+03 0.  0.
   -5000001    1    1    2    0    0  0.25906381733E+03  0.25551229381E+01  0.40218404130E+03  0.51814437484E+03  0.19900000000E+03 0.  0.
<mgrwt>
<rscale>  0 0.65872042E+03</rscale>
<asrwt>0</asrwt>
<pdfrwt beam="1">  1        2 0.11663376E+00 0.65872042E+03</pdfrwt>
<pdfrwt beam="2">  1       -2 0.18981123E-01 0.65872042E+03</pdfrwt>
<totfact> 0.86845276E+02</totfact>
</mgrwt>
</event>
<event>
 4    1  0.1760335E-005  0.4573385E+03  0.7818608E-02  0.1025556E+00
          2   -1    0    0  501    0  0.00000000000E+00  0.00000000000E+00  0.29573867863E+03  0.29573867864E+03  0.25500000000E-02 0.  1.
         -2   -1    0    0    0  501 -0.00000000000E+00 -0.00000000000E+00 -0.17681025405E+03  0.17681025407E+03  0.25500000000E-02 0. -1.
    5000001    1    1    2    0    0 -0.13706769352E+02 -0.10474659881E+03  0.99865881930E+02  0.24644252852E+03  0.19900000000E+03 0.  0.
   -5000001    1    1    2    0    0  0.13706769352E+02  0.10474659881E+03  0.19062542649E+02  0.22610640420E+03  0.19900000000E+03 0.  0.
<mgrwt>
<rscale>  0 0.45733852E+03</rscale>
<asrwt>0</asrwt>
<pdfrwt beam="1">  1        2 0.42248382E-01 0.45733852E+03</pdfrwt>
<pdfrwt beam="2">  1       -2 0.25258608E-01 0.45733852E+03</pdfrwt>
<totfact> 0.16940825E+03</totfact>
</mgrwt>
</event>
<event>
 4    1  0.1760335E-005  0.7233617E+03  0.7818608E-02  0.9678094E-01
         -2   -1    0    0    0  501 -0.00000000000E+00  0.00000000000E+00  0.77984435203E+02  0.77984435245E+02  0.25500000000E-02 0.  1.
          2   -1    0    0  501    0  0.00000000000E+00 -0.00000000000E+00 -0.16774251390E+04  0.16774251390E+04  0.25500000000E-02 0. -1.
    5000001    1    1    2    0    0 -0.90837715832E+02 -0.28068598455E+03 -0.95653983927E+03  0.10205907978E+04  0.19900000000E+03 0.  0.
   -5000001    1    1    2    0    0  0.90837715832E+02  0.28068598455E+03 -0.64290086453E+03  0.73481877640E+03  0.19900000000E+03 0.  0.
<mgrwt>
<rscale>  0 0.72336174E+03</rscale>
<asrwt>0</asrwt>
<pdfrwt beam="1">  1        2 0.23963214E+00 0.72336174E+03</pdfrwt>
<pdfrwt beam="2">  1       -2 0.11140635E-01 0.72336174E+03</pdfrwt>
<totfact> 0.68764980E+02</totfact>
</mgrwt>
</event>
<event>
 4    1  0.1760335E-005  0.6595730E+03  0.7818608E-02  0.9788980E-01
          2   -1    0    0  501    0  0.00000000000E+00  0.00000000000E+00  0.14514502095E+04  0.14514502095E+04  0.25500000000E-02 0.  1.
         -2   -1    0    0    0  501 -0.00000000000E+00 -0.00000000000E+00 -0.74931357797E+02  0.74931357840E+02  0.25500000000E-02 0. -1.
    5000001    1    1    2    0    0  0.19736601331E+03 -0.15387909601E+03  0.50130992976E+03  0.59459630429E+03  0.19900000000E+03 0.  0.
   -5000001    1    1    2    0    0 -0.19736601331E+03  0.15387909601E+03  0.87520892196E+03  0.93178526307E+03  0.19900000000E+03 0.  0.
<mgrwt>
<rscale>  0 0.65957300E+03</rscale>
<asrwt>0</asrwt>
<pdfrwt beam="1">  1        2 0.20735004E+00 0.65957300E+03</pdfrwt>
<pdfrwt beam="2">  1       -2 0.10704479E-01 0.65957300E+03</pdfrwt>
<totfact> 0.96473472E+02</totfact>
</mgrwt>
</event>
<event>
 4    1  0.1760335E-005  0.5304847E+03  0.7818608E-02  0.1006115E+00
         -2   -1    0    0    0  501 -0.00000000000E+00  0.00000000000E+00  0.30660370529E+02  0.30660370635E+02  0.25500000000E-02 0. -1.
          2   -1    0    0  501    0  0.00000000000E+00 -0.00000000000E+00 -0.22946069593E+04  0.22946069593E+04  0.25500000000E-02 0.  1.
    5000001    1    1    2    0    0 -0.79801334834E+02  0.14683778780E+03 -0.89908448816E+03  0.93588648126E+03  0.19900000000E+03 0.  0.
   -5000001    1    1    2    0    0  0.79801334834E+02 -0.14683778780E+03 -0.13648621006E+04  0.13893808486E+04  0.19900000000E+03 0.  0.
<mgrwt>
<rscale>  0 0.53048468E+03</rscale>
<asrwt>0</asrwt>
<pdfrwt beam="1">  1        2 0.32780089E+00 0.53048468E+03</pdfrwt>
<pdfrwt beam="2">  1       -2 0.43800544E-02 0.53048468E+03</pdfrwt>
<totfact> 0.14886459E+03</totfact>
</mgrwt>
</event>
<event>
 4    1  0.1760335E-005  0.6141261E+03  0.7818608E-02  0.9876525E-01
         -2   -1    0    0    0  501 -0.00000000000E+00  0.00000000000E+00  0.87405962031E+02  0.87405962068E+02  0.25500000000E-02 0. -1.
          2   -1    0    0  501    0  0.00000000000E+00 -0.00000000000E+00 -0.10787331883E+04  0.10787331883E+04  0.25500000000E-02 0.  1.
    5000001    1    1    2    0    0 -0.12989732721E+03 -0.15973751863E+03 -0.28509283707E+03  0.40406474262E+03  0.19900000000E+03 0.  0.
   -5000001    1    1    2    0    0  0.12989732721E+03  0.15973751863E+03 -0.70623438923E+03  0.76207440779E+03  0.19900000000E+03 0.  0.
<mgrwt>
<rscale>  0 0.61412609E+03</rscale>
<asrwt>0</asrwt>
<pdfrwt beam="1">  1        2 0.15410473E+00 0.61412609E+03</pdfrwt>
<pdfrwt beam="2">  1       -2 0.12486567E-01 0.61412609E+03</pdfrwt>
<totfact> 0.12056009E+03</totfact>
</mgrwt>
</event>
<event>
 4    1  0.1760335E-005  0.6340377E+03  0.7818608E-02  0.9837201E-01
          2   -1    0    0  501    0  0.00000000000E+00  0.00000000000E+00  0.10391030464E+03  0.10391030467E+03  0.25500000000E-02 0.  1.
         -2   -1    0    0    0  501 -0.00000000000E+00 -0.00000000000E+00 -0.96718948141E+03  0.96718948142E+03  0.25500000000E-02 0. -1.
    5000001    1    1    2    0    0 -0.16969652103E+03 -0.15390232884E+03 -0.27665213480E+03  0.41063394862E+03  0.19900000000E+03 0.  0.
   -5000001    1    1    2    0    0  0.16969652103E+03  0.15390232884E+03 -0.58662704198E+03  0.66046583746E+03  0.19900000000E+03 0.  0.
<mgrwt>
<rscale>  0 0.63403771E+03</rscale>
<asrwt>0</asrwt>
<pdfrwt beam="1">  1        2 0.14844330E-01 0.63403771E+03</pdfrwt>
<pdfrwt beam="2">  1       -2 0.13816992E+00 0.63403771E+03</pdfrwt>
<totfact> 0.15307392E+02</totfact>
</mgrwt>
</event>
<event>
 4    1  0.1760335E-005  0.6550904E+03  0.7818608E-02  0.9797274E-01
          2   -1    0    0  501    0  0.00000000000E+00  0.00000000000E+00  0.16518354117E+03  0.16518354119E+03  0.25500000000E-02 0.  1.
         -2   -1    0    0    0  501 -0.00000000000E+00 -0.00000000000E+00 -0.64949488643E+03  0.64949488643E+03  0.25500000000E-02 0. -1.
    5000001    1    1    2    0    0 -0.22315226584E+03 -0.10251255679E+03 -0.13532723460E+03  0.34383167172E+03  0.19900000000E+03 0.  0.
   -5000001    1    1    2    0    0  0.22315226584E+03  0.10251255679E+03 -0.34898411066E+03  0.47084675590E+03  0.19900000000E+03 0.  0.
<mgrwt>
<rscale>  0 0.65509042E+03</rscale>
<asrwt>0</asrwt>
<pdfrwt beam="1">  1        2 0.23597649E-01 0.65509042E+03</pdfrwt>
<pdfrwt beam="2">  1       -2 0.92784982E-01 0.65509042E+03</pdfrwt>
<totfact> 0.23312787E+02</totfact>
</mgrwt>
</event>
<event>
 4    1  0.1760335E-005  0.5262624E+03  0.7818608E-02  0.1007143E+00
         -2   -1    0    0    0  501 -0.00000000000E+00  0.00000000000E+00  0.48345989613E+02  0.48345989680E+02  0.25500000000E-02 0. -1.
          2   -1    0    0  501    0  0.00000000000E+00 -0.00000000000E+00 -0.14321361660E+04  0.14321361660E+04  0.25500000000E-02 0.  1.
    5000001    1    1    2    0    0  0.16576041610E+03  0.12959196394E+02 -0.81747180100E+03  0.85761623221E+03  0.19900000000E+03 0.  0.
   -5000001    1    1    2    0    0 -0.16576041610E+03 -0.12959196394E+02 -0.56631837534E+03  0.62286592342E+03  0.19900000000E+03 0.  0.
<mgrwt>
<rscale>  0 0.52626245E+03</rscale>
<asrwt>0</asrwt>
<pdfrwt beam="1">  1        2 0.20459086E+00 0.52626245E+03</pdfrwt>
<pdfrwt beam="2">  1       -2 0.69065708E-02 0.52626245E+03</pdfrwt>
<totfact> 0.20015913E+03</totfact>
</mgrwt>
</event>
<event>
 4    1  0.1760335E-005  0.6718819E+03  0.7818608E-02  0.9766564E-01
          2   -1    0    0  501    0  0.00000000000E+00  0.00000000000E+00  0.10642252693E+04  0.10642252693E+04  0.25500000000E-02 0.  1.
         -2   -1    0    0    0  501 -0.00000000000E+00 -0.00000000000E+00 -0.10604553095E+03  0.10604553098E+03  0.25500000000E-02 0. -1.
    5000001    1    1    2    0    0 -0.21278497007E+03 -0.74010246010E+02  0.21782063604E+03  0.37121663417E+03  0.19900000000E+03 0.  0.
   -5000001    1    1    2    0    0  0.21278497007E+03  0.74010246010E+02  0.74035910231E+03  0.79905416611E+03  0.19900000000E+03 0.  0.
<mgrwt>
<rscale>  0 0.67188194E+03</rscale>
<asrwt>0</asrwt>
<pdfrwt beam="1">  1        2 0.15203218E+00 0.67188194E+03</pdfrwt>
<pdfrwt beam="2">  1       -2 0.15149362E-01 0.67188194E+03</pdfrwt>
<totfact> 0.88877210E+02</totfact>
</mgrwt>
</event>
<event>
 4    1  0.1760335E-005  0.7698610E+03  0.7818608E-02  0.9604697E-01
         -2   -1    0    0    0  501 -0.00000000000E+00  0.00000000000E+00  0.55393463664E+03  0.55393463665E+03  0.25500000000E-02 0. -1.
          2   -1    0    0  501    0  0.00000000000E+00 -0.00000000000E+00 -0.26748911748E+03  0.26748911749E+03  0.25500000000E-02 0.  1.
    5000001    1    1    2    0    0 -0.50778312897E+02  0.31749003179E+03  0.22010529749E+03  0.43752222724E+03  0.19900000000E+03 0.  0.
   -5000001    1    1    2    0    0  0.50778312897E+02 -0.31749003179E+03  0.66340221674E+02  0.38390152690E+03  0.19900000000E+03 0.  0.
<mgrwt>
<rscale>  0 0.76986099E+03</rscale>
<asrwt>0</asrwt>
<pdfrwt beam="1">  1        2 0.38212731E-01 0.76986099E+03</pdfrwt>
<pdfrwt beam="2">  1       -2 0.79133521E-01 0.76986099E+03</pdfrwt>
<totfact> 0.19357190E+02</totfact>
</mgrwt>
</event>
<event>
 4    1  0.1760335E-005  0.5127093E+03  0.7818608E-02  0.1010514E+00
         -2   -1    0    0    0  501 -0.00000000000E+00  0.00000000000E+00  0.73427716443E+02  0.73427716487E+02  0.25500000000E-02 0. -1.
          2   -1    0    0  501    0  0.00000000000E+00 -0.00000000000E+00 -0.89499854481E+03  0.89499854481E+03  0.25500000000E-02 0.  1.
    5000001    1    1    2    0    0 -0.69156875098E+02 -0.13486529614E+03 -0.30485228461E+03  0.39434405905E+03  0.19900000000E+03 0.  0.
   -5000001    1    1    2    0    0  0.69156875098E+02  0.13486529614E+03 -0.51671854376E+03  0.57408220225E+03  0.19900000000E+03 0.  0.
<mgrwt>
<rscale>  0 0.51270927E+03</rscale>
<asrwt>0</asrwt>
<pdfrwt beam="1">  1        2 0.12785693E+00 0.51270927E+03</pdfrwt>
<pdfrwt beam="2">  1       -2 0.10489674E-01 0.51270927E+03</pdfrwt>
<totfact> 0.20816770E+03</totfact>
</mgrwt>
</event>
<event>
 4    1  0.1760335E-005  0.5763013E+03  0.7818608E-02  0.9955831E-01
         -2   -1    0    0    0  501 -0.00000000000E+00  0.00000000000E+00  0.13215888291E+03  0.13215888293E+03  0.25500000000E-02 0. -1.
          2   -1    0    0  501    0  0.00000000000E+00 -0.00000000000E+00 -0.62826493712E+03  0.62826493712E+03  0.25500000000E-02 0.  1.
    5000001    1    1    2    0    0 -0.17709339643E+03 -0.50294010544E+02 -0.37691954861E+03  0.46428536987E+03  0.19900000000E+03 0.  0.
   -5000001    1    1    2    0    0  0.17709339643E+03  0.50294010544E+02 -0.11918650560E+03  0.29613845018E+03  0.19900000000E+03 0.  0.
<mgrwt>
<rscale>  0 0.57630128E+03</rscale>
<asrwt>0</asrwt>
<pdfrwt beam="1">  1        2 0.89752132E-01 0.57630128E+03</pdfrwt>
<pdfrwt beam="2">  1       -2 0.18879841E-01 0.57630128E+03</pdfrwt>
<totfact> 0.12131903E+03</totfact>
</mgrwt>
</event>
<event>
 4    1  0.1760335E-005  0.5678830E+03  0.7818608E-02  0.9974374E-01
         -2   -1    0    0    0  501 -0.00000000000E+00  0.00000000000E+00  0.31721170272E+02  0.31721170374E+02  0.25500000000E-02 0. -1.
          2   -1    0    0  501    0  0.00000000000E+00 -0.00000000000E+00 -0.25416081530E+04  0.25416081530E+04  0.25500000000E-02 0.  1.
    5000001    1    1    2    0    0  0.15038329372E+03 -0.13121048036E+03 -0.10985949383E+04  0.11341706943E+04  0.19900000000E+03 0.  0.
   -5000001    1    1    2    0    0 -0.15038329372E+03  0.13121048036E+03 -0.14112920444E+04  0.14391586291E+04  0.19900000000E+03 0.  0.
<mgrwt>
<rscale>  0 0.56788303E+03</rscale>
<asrwt>0</asrwt>
<pdfrwt beam="1">  1        2 0.36308675E+00 0.56788303E+03</pdfrwt>
<pdfrwt beam="2">  1       -2 0.45315974E-02 0.56788303E+03</pdfrwt>
<totfact> 0.10552024E+03</totfact>
</mgrwt>
</event>
<event>
 4    1  0.1760335E-005  0.5532002E+03  0.7818608E-02  0.1000756E+00
         -2   -1    0    0    0  501 -0.00000000000E+00  0.00000000000E+00  0.29053579551E+02  0.29053579663E+02  0.25500000000E-02 0. -1.
          2   -1    0    0  501    0  0.00000000000E+00 -0.00000000000E+00 -0.26333283780E+04  0.26333283780E+04  0.25500000000E-02 0.  1.
    5000001    1    1    2    0    0  0.13108209807E+02 -0.17381487873E+03 -0.16908401922E+04  0.17114102351E+04  0.19900000000E+03 0.  0.
   -5000001    1    1    2    0    0 -0.13108209807E+02  0.17381487873E+03 -0.91343460622E+03  0.95097172254E+03  0.19900000000E+03 0.  0.
<mgrwt>
<rscale>  0 0.55320020E+03</rscale>
<asrwt>0</asrwt>
<pdfrwt beam="1">  1        2 0.37618962E+00 0.55320020E+03</pdfrwt>
<pdfrwt beam="2">  1       -2 0.41505130E-02 0.55320020E+03</pdfrwt>
<totfact> 0.10844271E+03</totfact>
</mgrwt>
</event>
<event>
 4    1  0.1760335E-005  0.4314372E+03  0.7818608E-02  0.1033407E+00
         -2   -1    0    0    0  501 -0.00000000000E+00  0.00000000000E+00  0.48330617596E+03  0.48330617596E+03  0.25500000000E-02 0. -1.
          2   -1    0    0  501    0  0.00000000000E+00 -0.00000000000E+00 -0.96283732458E+02  0.96283732492E+02  0.25500000000E-02 0.  1.
    5000001    1    1    2    0    0  0.30708883593E+02 -0.45765775334E+02  0.10965957542E+03  0.23380283190E+03  0.19900000000E+03 0.  0.
   -5000001    1    1    2    0    0 -0.30708883593E+02  0.45765775334E+02  0.27736286808E+03  0.34578707655E+03  0.19900000000E+03 0.  0.
<mgrwt>
<rscale>  0 0.43143724E+03</rscale>
<asrwt>0</asrwt>
<pdfrwt beam="1">  1        2 0.13754819E-01 0.43143724E+03</pdfrwt>
<pdfrwt beam="2">  1       -2 0.69043741E-01 0.43143724E+03</pdfrwt>
<totfact> 0.85660317E+02</totfact>
</mgrwt>
</event>
<event>
 4    1  0.1760335E-005  0.4552570E+03  0.7818608E-02  0.1026166E+00
          2   -1    0    0  501    0  0.00000000000E+00  0.00000000000E+00  0.59858874283E+03  0.59858874284E+03  0.25500000000E-02 0.  1.
         -2   -1    0    0    0  501 -0.00000000000E+00 -0.00000000000E+00 -0.86561503677E+02  0.86561503715E+02  0.25500000000E-02 0. -1.
    5000001    1    1    2    0    0 -0.59483818288E+02  0.93103418049E+02  0.26004363346E+03  0.34558683770E+03  0.19900000000E+03 0.  0.
   -5000001    1    1    2    0    0  0.59483818288E+02 -0.93103418049E+02  0.25198360570E+03  0.33956340885E+03  0.19900000000E+03 0.  0.
<mgrwt>
<rscale>  0 0.45525703E+03</rscale>
<asrwt>0</asrwt>
<pdfrwt beam="1">  1        2 0.85512680E-01 0.45525703E+03</pdfrwt>
<pdfrwt beam="2">  1       -2 0.12365929E-01 0.45525703E+03</pdfrwt>
<totfact> 0.26151497E+03</totfact>
</mgrwt>
</event>
<event>
 4    1  0.1760335E-005  0.8269879E+03  0.7818608E-02  0.9521754E-01
          2   -1    0    0  501    0  0.00000000000E+00  0.00000000000E+00  0.10521978213E+04  0.10521978213E+04  0.25500000000E-02 0.  1.
         -2   -1    0    0    0  501 -0.00000000000E+00 -0.00000000000E+00 -0.16249533339E+03  0.16249533341E+03  0.25500000000E-02 0. -1.
    5000001    1    1    2    0    0  0.33427598809E+03  0.26619477363E+02  0.64692534829E+03  0.75535583605E+03  0.19900000000E+03 0.  0.
   -5000001    1    1    2    0    0 -0.33427598809E+03 -0.26619477363E+02  0.24277713960E+03  0.45933731865E+03  0.19900000000E+03 0.  0.
<mgrwt>
<rscale>  0 0.82698787E+03</rscale>
<asrwt>0</asrwt>
<pdfrwt beam="1">  1        2 0.15031398E+00 0.82698787E+03</pdfrwt>
<pdfrwt beam="2">  1       -2 0.23213619E-01 0.82698787E+03</pdfrwt>
<totfact> 0.42834167E+02</totfact>
</mgrwt>
</event>
<event>
 4    1  0.1760335E-005  0.8826704E+03  0.7818608E-02  0.9447507E-01
          2   -1    0    0  501    0  0.00000000000E+00  0.00000000000E+00  0.81252504453E+03  0.81252504453E+03  0.25500000000E-02 0.  1.
         -2   -1    0    0    0  501 -0.00000000000E+00 -0.00000000000E+00 -0.23971783799E+03  0.23971783800E+03  0.25500000000E-02 0. -1.
    5000001    1    1    2    0    0 -0.31922484619E+03  0.19868011131E+03  0.42643228052E+03  0.60234855269E+03  0.19900000000E+03 0.  0.
   -5000001    1    1    2    0    0  0.31922484619E+03 -0.19868011131E+03  0.14637492602E+03  0.44989432984E+03  0.19900000000E+03 0.  0.
<mgrwt>
<rscale>  0 0.88267037E+03</rscale>
<asrwt>0</asrwt>
<pdfrwt beam="1">  1        2 0.11607501E+00 0.88267037E+03</pdfrwt>
<pdfrwt beam="2">  1       -2 0.34245405E-01 0.88267037E+03</pdfrwt>
<totfact> 0.29780378E+02</totfact>
</mgrwt>
</event>
<event>
 4    1  0.1760335E-005  0.1023309E+04  0.7818608E-02  0.9283343E-01
          2   -1    0    0  501    0  0.00000000000E+00  0.00000000000E+00  0.71746199364E+03  0.71746199365E+03  0.25500000000E-02 0.  1.
         -2   -1    0    0    0  501 -0.00000000000E+00 -0.00000000000E+00 -0.36488411109E+03  0.36488411109E+03  0.25500000000E-02 0. -1.
    5000001    1    1    2    0    0 -0.28687901514E+03 -0.13688738846E+03 -0.19186045457E+03  0.42124714892E+03  0.19900000000E+03 0.  0.
   -5000001    1    1    2    0    0  0.28687901514E+03  0.13688738846E+03  0.54443833712E+03  0.66109895581E+03  0.19900000000E+03 0.  0.
<mgrwt>
<rscale>  0 0.10233093E+04</rscale>
<asrwt>0</asrwt>
<pdfrwt beam="1">  1        2 0.10249457E+00 0.10233093E+04</pdfrwt>
<pdfrwt beam="2">  1       -2 0.52126302E-01 0.10233093E+04</pdfrwt>
<totfact> 0.15122414E+02</totfact>
</mgrwt>
</event>
<event>
 4    1  0.1760335E-005  0.7972852E+03  0.7818608E-02  0.9563955E-01
          2   -1    0    0  501    0  0.00000000000E+00  0.00000000000E+00  0.12109776397E+04  0.12109776397E+04  0.25500000000E-02 0.  1.
         -2   -1    0    0    0  501 -0.00000000000E+00 -0.00000000000E+00 -0.13122944084E+03  0.13122944087E+03  0.25500000000E-02 0. -1.
    5000001    1    1    2    0    0 -0.21130507827E+03 -0.27279932877E+03  0.51349088674E+03  0.64987937392E+03  0.19900000000E+03 0.  0.
   -5000001    1    1    2    0    0  0.21130507827E+03  0.27279932877E+03  0.56625731217E+03  0.69232770670E+03  0.19900000000E+03 0.  0.
<mgrwt>
<rscale>  0 0.79728519E+03</rscale>
<asrwt>0</asrwt>
<pdfrwt beam="1">  1        2 0.17299680E+00 0.79728519E+03</pdfrwt>
<pdfrwt beam="2">  1       -2 0.18747064E-01 0.79728519E+03</pdfrwt>
<totfact> 0.50529839E+02</totfact>
</mgrwt>
</event>
<event>
 4    1  0.1760335E-005  0.1536069E+04  0.7818608E-02  0.8860816E-01
         -2   -1    0    0    0  501 -0.00000000000E+00  0.00000000000E+00  0.75294157954E+03  0.75294157954E+03  0.25500000000E-02 0. -1.
          2   -1    0    0  501    0  0.00000000000E+00 -0.00000000000E+00 -0.78342967319E+03  0.78342967319E+03  0.25500000000E-02 0.  1.
    5000001    1    1    2    0    0 -0.54126307826E+03 -0.40781410380E+03 -0.31696173083E+03  0.77417297935E+03  0.19900000000E+03 0.  0.
   -5000001    1    1    2    0    0  0.54126307826E+03  0.40781410380E+03  0.28647363718E+03  0.76219827338E+03  0.19900000000E+03 0.  0.
<mgrwt>
<rscale>  0 0.15360687E+04</rscale>
<asrwt>0</asrwt>
<pdfrwt beam="1">  1        2 0.11191852E+00 0.15360687E+04</pdfrwt>
<pdfrwt beam="2">  1       -2 0.10756308E+00 0.15360687E+04</pdfrwt>
<totfact> 0.26158241E+01</totfact>
</mgrwt>
</event>
<event>
 4    1  0.1760335E-005  0.4755571E+03  0.7818608E-02  0.1020363E+00
         -2   -1    0    0    0  501 -0.00000000000E+00  0.00000000000E+00  0.35140118661E+02  0.35140118754E+02  0.25500000000E-02 0. -1.
          2   -1    0    0  501    0  0.00000000000E+00 -0.00000000000E+00 -0.16089481615E+04  0.16089481615E+04  0.25500000000E-02 0.  1.
    5000001    1    1    2    0    0  0.24724261901E+02  0.11844910143E+03 -0.62124210243E+03  0.66346381106E+03  0.19900000000E+03 0.  0.
   -5000001    1    1    2    0    0 -0.24724261901E+02 -0.11844910143E+03 -0.95256594040E+03  0.98062446918E+03  0.19900000000E+03 0.  0.
<mgrwt>
<rscale>  0 0.47555706E+03</rscale>
<asrwt>0</asrwt>
<pdfrwt beam="1">  1        2 0.22984969E+00 0.47555706E+03</pdfrwt>
<pdfrwt beam="2">  1       -2 0.50200180E-02 0.47555706E+03</pdfrwt>
<totfact> 0.26694868E+03</totfact>
</mgrwt>
</event>
<event>
 4    1  0.1760335E-005  0.6634686E+03  0.7818608E-02  0.9781830E-01
          2   -1    0    0  501    0  0.00000000000E+00  0.00000000000E+00  0.59576437699E+03  0.59576437700E+03  0.25500000000E-02 0. -1.
         -2   -1    0    0    0  501 -0.00000000000E+00 -0.00000000000E+00 -0.18471670828E+03  0.18471670830E+03  0.25500000000E-02 0.  1.
    5000001    1    1    2    0    0 -0.24057347710E+03  0.97254798850E+02  0.13989426405E+03  0.35567611517E+03  0.19900000000E+03 0.  0.
   -5000001    1    1    2    0    0  0.24057347710E+03 -0.97254798850E+02  0.27115340466E+03  0.42480497013E+03  0.19900000000E+03 0.  0.
<mgrwt>
<rscale>  0 0.66346857E+03</rscale>
<asrwt>0</asrwt>
<pdfrwt beam="1">  1        2 0.85109197E-01 0.66346857E+03</pdfrwt>
<pdfrwt beam="2">  1       -2 0.26388101E-01 0.66346857E+03</pdfrwt>
<totfact> 0.71349199E+02</totfact>
</mgrwt>
</event>
<event>
 4    1  0.1760335E-005  0.5333582E+03  0.7818608E-02  0.1005421E+00
          2   -1    0    0  501    0  0.00000000000E+00  0.00000000000E+00  0.81126060683E+02  0.81126060724E+02  0.25500000000E-02 0.  1.
         -2   -1    0    0    0  501 -0.00000000000E+00 -0.00000000000E+00 -0.87663265265E+03  0.87663265265E+03  0.25500000000E-02 0. -1.
    5000001    1    1    2    0    0 -0.85641077815E+02 -0.14006315290E+03 -0.51907595665E+03  0.57964897117E+03  0.19900000000E+03 0.  0.
   -5000001    1    1    2    0    0  0.85641077815E+02  0.14006315290E+03 -0.27643063531E+03  0.37810974220E+03  0.19900000000E+03 0.  0.
<mgrwt>
<rscale>  0 0.53335824E+03</rscale>
<asrwt>0</asrwt>
<pdfrwt beam="1">  1        2 0.11589438E-01 0.53335824E+03</pdfrwt>
<pdfrwt beam="2">  1       -2 0.12523323E+00 0.53335824E+03</pdfrwt>
<totfact> 0.26684206E+02</totfact>
</mgrwt>
</event>
<event>
 4    1  0.1760335E-005  0.5262710E+03  0.7818608E-02  0.1007141E+00
          2   -1    0    0  501    0  0.00000000000E+00  0.00000000000E+00  0.59020213400E+03  0.59020213400E+03  0.25500000000E-02 0.  1.
         -2   -1    0    0    0  501 -0.00000000000E+00 -0.00000000000E+00 -0.11731623312E+03  0.11731623315E+03  0.25500000000E-02 0. -1.
    5000001    1    1    2    0    0  0.12655865619E+03 -0.90205747839E+02  0.33601131568E+03  0.42030795218E+03  0.19900000000E+03 0.  0.
   -5000001    1    1    2    0    0 -0.12655865619E+03  0.90205747839E+02  0.13687458519E+03  0.28721041498E+03  0.19900000000E+03 0.  0.
<mgrwt>
<rscale>  0 0.52627100E+03</rscale>
<asrwt>0</asrwt>
<pdfrwt beam="1">  1        2 0.84314592E-01 0.52627100E+03</pdfrwt>
<pdfrwt beam="2">  1       -2 0.16759462E-01 0.52627100E+03</pdfrwt>
<totfact> 0.16017348E+03</totfact>
</mgrwt>
</event>
<event>
 4    1  0.1760335E-005  0.6393449E+03  0.7818608E-02  0.9826981E-01
         -2   -1    0    0    0  501 -0.00000000000E+00  0.00000000000E+00  0.54738889347E+02  0.54738889407E+02  0.25500000000E-02 0. -1.
          2   -1    0    0  501    0  0.00000000000E+00 -0.00000000000E+00 -0.18668714846E+04  0.18668714846E+04  0.25500000000E-02 0.  1.
    5000001    1    1    2    0    0 -0.36267937827E+02  0.24120965137E+03 -0.73893770578E+03  0.80319822724E+03  0.19900000000E+03 0.  0.
   -5000001    1    1    2    0    0  0.36267937827E+02 -0.24120965137E+03 -0.10731948895E+04  0.11184121468E+04  0.19900000000E+03 0.  0.
<mgrwt>
<rscale>  0 0.63934489E+03</rscale>
<asrwt>0</asrwt>
<pdfrwt beam="1">  1        2 0.26669589E+00 0.63934489E+03</pdfrwt>
<pdfrwt beam="2">  1       -2 0.78198425E-02 0.63934489E+03</pdfrwt>
<totfact> 0.98055884E+02</totfact>
</mgrwt>
</event>
<event>
 4    1  0.1760335E-005  0.9527776E+03  0.7818608E-02  0.9361910E-01
         -2   -1    0    0    0  501 -0.00000000000E+00  0.00000000000E+00  0.13316689277E+03  0.13316689279E+03  0.25500000000E-02 0. -1.
          2   -1    0    0  501    0  0.00000000000E+00 -0.00000000000E+00 -0.17042246029E+04  0.17042246029E+04  0.25500000000E-02 0.  1.
    5000001    1    1    2    0    0 -0.71614572961E+02 -0.39378237510E+03 -0.11032980413E+04  0.11904036181E+04  0.19900000000E+03 0.  0.
   -5000001    1    1    2    0    0  0.71614572961E+02  0.39378237510E+03 -0.46775966882E+03  0.64698787761E+03  0.19900000000E+03 0.  0.
<mgrwt>
<rscale>  0 0.95277761E+03</rscale>
<asrwt>0</asrwt>
<pdfrwt beam="1">  1        2 0.24346064E+00 0.95277761E+03</pdfrwt>
<pdfrwt beam="2">  1       -2 0.19023843E-01 0.95277761E+03</pdfrwt>
<totfact> 0.26623947E+02</totfact>
</mgrwt>
</event>
<event>
 4    1  0.1760335E-005  0.1407580E+04  0.7818608E-02  0.8948350E-01
          2   -1    0    0  501    0  0.00000000000E+00  0.00000000000E+00  0.14816135639E+04  0.14816135639E+04  0.25500000000E-02 0. -1.
         -2   -1    0    0    0  501 -0.00000000000E+00 -0.00000000000E+00 -0.33431139889E+03  0.33431139890E+03  0.25500000000E-02 0.  1.
    5000001    1    1    2    0    0  0.66333929957E+03 -0.13423331357E+02  0.73437183971E+03  0.10095059243E+04  0.19900000000E+03 0.  0.
   -5000001    1    1    2    0    0 -0.66333929957E+03  0.13423331357E+02  0.41293032534E+03  0.80641903857E+03  0.19900000000E+03 0.  0.
<mgrwt>
<rscale>  0 0.14075799E+04</rscale>
<asrwt>0</asrwt>
<pdfrwt beam="1">  1        2 0.21165908E+00 0.14075799E+04</pdfrwt>
<pdfrwt beam="2">  1       -2 0.47758770E-01 0.14075799E+04</pdfrwt>
<totfact> 0.60471807E+01</totfact>
</mgrwt>
</event>
<event>
 4    1  0.1760335E-005  0.8032713E+03  0.7818608E-02  0.9555294E-01
         -2   -1    0    0    0  501 -0.00000000000E+00  0.00000000000E+00  0.17452383603E+04  0.17452383603E+04  0.25500000000E-02 0. -1.
          2   -1    0    0  501    0  0.00000000000E+00 -0.00000000000E+00 -0.92429319693E+02  0.92429319728E+02  0.25500000000E-02 0.  1.
    5000001    1    1    2    0    0 -0.25443741171E+03  0.23121357792E+03  0.69082725042E+03  0.79689485192E+03  0.19900000000E+03 0.  0.
   -5000001    1    1    2    0    0  0.25443741171E+03 -0.23121357792E+03  0.96198179020E+03  0.10407728281E+04  0.19900000000E+03 0.  0.
<mgrwt>
<rscale>  0 0.80327130E+03</rscale>
<asrwt>0</asrwt>
<pdfrwt beam="1">  1        2 0.13204188E-01 0.80327130E+03</pdfrwt>
<pdfrwt beam="2">  1       -2 0.24931977E+00 0.80327130E+03</pdfrwt>
<totfact> 0.31149104E+01</totfact>
</mgrwt>
</event>
<event>
 4    1  0.1760335E-005  0.1324521E+04  0.7818608E-02  0.9010342E-01
          2   -1    0    0  501    0  0.00000000000E+00  0.00000000000E+00  0.15577585774E+04  0.15577585774E+04  0.25500000000E-02 0.  1.
         -2   -1    0    0    0  501 -0.00000000000E+00 -0.00000000000E+00 -0.28155150535E+03  0.28155150536E+03  0.25500000000E-02 0. -1.
    5000001    1    1    2    0    0 -0.51982423439E+03  0.37162540698E+02  0.14246667951E+03  0.57575693123E+03  0.19900000000E+03 0.  0.
   -5000001    1    1    2    0    0  0.51982423439E+03 -0.37162540698E+02  0.11337403926E+04  0.12635531516E+04  0.19900000000E+03 0.  0.
<mgrwt>
<rscale>  0 0.13245215E+04</rscale>
<asrwt>0</asrwt>
<pdfrwt beam="1">  1        2 0.22253694E+00 0.13245215E+04</pdfrwt>
<pdfrwt beam="2">  1       -2 0.40221644E-01 0.13245215E+04</pdfrwt>
<totfact> 0.77987839E+01</totfact>
</mgrwt>
</event>
<event>
 4    1  0.1760335E-005  0.6400836E+03  0.7818608E-02  0.9825567E-01
         -2   -1    0    0    0  501 -0.00000000000E+00  0.00000000000E+00  0.24090967235E+03  0.24090967237E+03  0.25500000000E-02 0. -1.
          2   -1    0    0  501    0  0.00000000000E+00 -0.00000000000E+00 -0.42516661678E+03  0.42516661679E+03  0.25500000000E-02 0.  1.
    5000001    1    1    2    0    0  0.12796634955E+03  0.58628817892E+01 -0.31632097837E+03  0.39505660525E+03  0.19900000000E+03 0.  0.
   -5000001    1    1    2    0    0 -0.12796634955E+03 -0.58628817892E+01  0.13206403394E+03  0.27101968390E+03  0.19900000000E+03 0.  0.
<mgrwt>
<rscale>  0 0.64008359E+03</rscale>
<asrwt>0</asrwt>
<pdfrwt beam="1">  1        2 0.60738088E-01 0.64008359E+03</pdfrwt>
<pdfrwt beam="2">  1       -2 0.34415668E-01 0.64008359E+03</pdfrwt>
<totfact> 0.64213933E+02</totfact>
</mgrwt>
</event>
<event>
 4    1  0.1760335E-005  0.8051558E+03  0.7818608E-02  0.9552584E-01
          2   -1    0    0  501    0  0.00000000000E+00  0.00000000000E+00  0.20094601328E+04  0.20094601328E+04  0.25500000000E-02 0.  1.
         -2   -1    0    0    0  501 -0.00000000000E+00 -0.00000000000E+00 -0.80652983333E+02  0.80652983374E+02  0.25500000000E-02 0. -1.
    5000001    1    1    2    0    0 -0.34250491060E+03 -0.25616995328E+02  0.79022370949E+03  0.88431914786E+03  0.19900000000E+03 0.  0.
   -5000001    1    1    2    0    0  0.34250491060E+03  0.25616995328E+02  0.11385834400E+04  0.12057939684E+04  0.19900000000E+03 0.  0.
<mgrwt>
<rscale>  0 0.80515577E+03</rscale>
<asrwt>0</asrwt>
<pdfrwt beam="1">  1        2 0.28706575E+00 0.80515577E+03</pdfrwt>
<pdfrwt beam="2">  1       -2 0.11521854E-01 0.80515577E+03</pdfrwt>
<totfact> 0.43885828E+02</totfact>
</mgrwt>
</event>
<event>
 4    1  0.1760335E-005  0.5807298E+03  0.7818608E-02  0.9946212E-01
          2   -1    0    0  501    0  0.00000000000E+00  0.00000000000E+00  0.39293965785E+03  0.39293965786E+03  0.25500000000E-02 0.  1.
         -2   -1    0    0    0  501 -0.00000000000E+00 -0.00000000000E+00 -0.21456669326E+03  0.21456669327E+03  0.25500000000E-02 0. -1.
    5000001    1    1    2    0    0 -0.11919455143E+03 -0.17342532039E+03  0.11080527614E+03  0.31010077727E+03  0.19900000000E+03 0.  0.
   -5000001    1    1    2    0    0  0.11919455143E+03  0.17342532039E+03  0.67567688452E+02  0.29740557386E+03  0.19900000000E+03 0.  0.
<mgrwt>
<rscale>  0 0.58072976E+03</rscale>
<asrwt>0</asrwt>
<pdfrwt beam="1">  1        2 0.56134237E-01 0.58072976E+03</pdfrwt>
<pdfrwt beam="2">  1       -2 0.30652385E-01 0.58072976E+03</pdfrwt>
<totfact> 0.87153205E+02</totfact>
</mgrwt>
</event>
<event>
 4    1  0.1760335E-005  0.4264472E+03  0.7818608E-02  0.1034988E+00
         -2   -1    0    0    0  501 -0.00000000000E+00  0.00000000000E+00  0.45387024080E+02  0.45387024152E+02  0.25500000000E-02 0. -1.
          2   -1    0    0  501    0  0.00000000000E+00 -0.00000000000E+00 -0.10017027116E+04  0.10017027116E+04  0.25500000000E-02 0.  1.
    5000001    1    1    2    0    0 -0.70081643014E+02 -0.23801466045E+02 -0.52635830422E+03  0.56756674577E+03  0.19900000000E+03 0.  0.
   -5000001    1    1    2    0    0  0.70081643014E+02  0.23801466045E+02 -0.42995738325E+03  0.47952298994E+03  0.19900000000E+03 0.  0.
<mgrwt>
<rscale>  0 0.42644721E+03</rscale>
<asrwt>0</asrwt>
<pdfrwt beam="1">  1        2 0.14310037E+00 0.42644721E+03</pdfrwt>
<pdfrwt beam="2">  1       -2 0.64838612E-02 0.42644721E+03</pdfrwt>
<totfact> 0.38350038E+03</totfact>
</mgrwt>
</event>
<event>
 4    1  0.1760335E-005  0.6433661E+03  0.7818608E-02  0.9819308E-01
          2   -1    0    0  501    0  0.00000000000E+00  0.00000000000E+00  0.14580493438E+04  0.14580493438E+04  0.25500000000E-02 0.  1.
         -2   -1    0    0    0  501 -0.00000000000E+00 -0.00000000000E+00 -0.70971515693E+02  0.70971515739E+02  0.25500000000E-02 0. -1.
    5000001    1    1    2    0    0 -0.25043331369E+03 -0.31132383413E+02  0.72654725189E+03  0.79445451671E+03  0.19900000000E+03 0.  0.
   -5000001    1    1    2    0    0  0.25043331369E+03  0.31132383413E+02  0.66053057627E+03  0.73456634288E+03  0.19900000000E+03 0.  0.
<mgrwt>
<rscale>  0 0.64336606E+03</rscale>
<asrwt>0</asrwt>
<pdfrwt beam="1">  1        2 0.20829276E+00 0.64336606E+03</pdfrwt>
<pdfrwt beam="2">  1       -2 0.10138788E-01 0.64336606E+03</pdfrwt>
<totfact> 0.10462223E+03</totfact>
</mgrwt>
</event>
<event>
 4    1  0.1760335E-005  0.1250173E+04  0.7818608E-02  0.9070039E-01
          2   -1    0    0  501    0  0.00000000000E+00  0.00000000000E+00  0.65011486467E+03  0.65011486467E+03  0.25500000000E-02 0.  1.
         -2   -1    0    0    0  501 -0.00000000000E+00 -0.00000000000E+00 -0.60102208240E+03  0.60102208240E+03  0.25500000000E-02 0. -1.
    5000001    1    1    2    0    0 -0.27522308127E+03 -0.34482867023E+03 -0.37133127695E+03  0.61003481336E+03  0.19900000000E+03 0.  0.
   -5000001    1    1    2    0    0  0.27522308127E+03  0.34482867023E+03  0.42042405922E+03  0.64110213371E+03  0.19900000000E+03 0.  0.
<mgrwt>
<rscale>  0 0.12501734E+04</rscale>
<asrwt>0</asrwt>
<pdfrwt beam="1">  1        2 0.92873552E-01 0.12501734E+04</pdfrwt>
<pdfrwt beam="2">  1       -2 0.85860297E-01 0.12501734E+04</pdfrwt>
<totfact> 0.57153866E+01</totfact>
</mgrwt>
</event>
<event>
 4    1  0.1760335E-005  0.7346222E+03  0.7818608E-02  0.9659789E-01
         -2   -1    0    0    0  501 -0.00000000000E+00  0.00000000000E+00  0.81824088995E+02  0.81824089035E+02  0.25500000000E-02 0. -1.
          2   -1    0    0  501    0  0.00000000000E+00 -0.00000000000E+00 -0.16488719230E+04  0.16488719230E+04  0.25500000000E-02 0.  1.
    5000001    1    1    2    0    0  0.23733854290E+03  0.16693053973E+02 -0.32001484343E+03  0.44566662654E+03  0.19900000000E+03 0.  0.
   -5000001    1    1    2    0    0 -0.23733854290E+03 -0.16693053973E+02 -0.12470329906E+04  0.12850293855E+04  0.19900000000E+03 0.  0.
<mgrwt>
<rscale>  0 0.73462220E+03</rscale>
<asrwt>0</asrwt>
<pdfrwt beam="1">  1        2 0.23555311E+00 0.73462220E+03</pdfrwt>
<pdfrwt beam="2">  1       -2 0.11689157E-01 0.73462220E+03</pdfrwt>
<totfact> 0.65682018E+02</totfact>
</mgrwt>
</event>
<event>
 4    1  0.1760335E-005  0.7250125E+03  0.7818608E-02  0.9675388E-01
         -2   -1    0    0    0  501 -0.00000000000E+00  0.00000000000E+00  0.36300774968E+03  0.36300774969E+03  0.25500000000E-02 0. -1.
          2   -1    0    0  501    0  0.00000000000E+00 -0.00000000000E+00 -0.36200541589E+03  0.36200541590E+03  0.25500000000E-02 0.  1.
    5000001    1    1    2    0    0 -0.16983684429E+03 -0.16573846303E+03 -0.18790278063E+03  0.36224611354E+03  0.19900000000E+03 0.  0.
   -5000001    1    1    2    0    0  0.16983684429E+03  0.16573846303E+03  0.18890511441E+03  0.36276705205E+03  0.19900000000E+03 0.  0.
<mgrwt>
<rscale>  0 0.72501247E+03</rscale>
<asrwt>0</asrwt>
<pdfrwt beam="1">  1        2 0.51715059E-01 0.72501247E+03</pdfrwt>
<pdfrwt beam="2">  1       -2 0.51858250E-01 0.72501247E+03</pdfrwt>
<totfact> 0.34232946E+02</totfact>
</mgrwt>
</event>
<event>
 4    1  0.1760335E-005  0.1300121E+04  0.7818608E-02  0.9029469E-01
          2   -1    0    0  501    0  0.00000000000E+00  0.00000000000E+00  0.58077154975E+03  0.58077154976E+03  0.25500000000E-02 0.  1.
         -2   -1    0    0    0  501 -0.00000000000E+00 -0.00000000000E+00 -0.72761607246E+03  0.72761607246E+03  0.25500000000E-02 0. -1.
    5000001    1    1    2    0    0  0.57862543126E+03 -0.21947188705E+03 -0.74986211388E+02  0.65436933822E+03  0.19900000000E+03 0.  0.
   -5000001    1    1    2    0    0 -0.57862543126E+03  0.21947188705E+03 -0.71858311319E+02  0.65401828400E+03  0.19900000000E+03 0.  0.
<mgrwt>
<rscale>  0 0.13001211E+04</rscale>
<asrwt>0</asrwt>
<pdfrwt beam="1">  1        2 0.82967364E-01 0.13001211E+04</pdfrwt>
<pdfrwt beam="2">  1       -2 0.10394515E+00 0.13001211E+04</pdfrwt>
<totfact> 0.41693679E+01</totfact>
</mgrwt>
</event>
<event>
 4    1  0.1760335E-005  0.5320126E+03  0.7818608E-02  0.1005745E+00
          2   -1    0    0  501    0  0.00000000000E+00  0.00000000000E+00  0.10186493137E+04  0.10186493137E+04  0.25500000000E-02 0.  1.
         -2   -1    0    0    0  501 -0.00000000000E+00 -0.00000000000E+00 -0.69463897497E+02  0.69463897544E+02  0.25500000000E-02 0. -1.
    5000001    1    1    2    0    0 -0.94680893643E+02 -0.11445290366E+03  0.66963980749E+03  0.71420053945E+03  0.19900000000E+03 0.  0.
   -5000001    1    1    2    0    0  0.94680893643E+02  0.11445290366E+03  0.27954560870E+03  0.37391267178E+03  0.19900000000E+03 0.  0.
<mgrwt>
<rscale>  0 0.53201260E+03</rscale>
<asrwt>0</asrwt>
<pdfrwt beam="1">  1        2 0.14552132E+00 0.53201260E+03</pdfrwt>
<pdfrwt beam="2">  1       -2 0.99234143E-02 0.53201260E+03</pdfrwt>
<totfact> 0.19078851E+03</totfact>
</mgrwt>
</event>
<event>
 4    1  0.1760335E-005  0.1464541E+04  0.7818608E-02  0.8908381E-01
          2   -1    0    0  501    0  0.00000000000E+00  0.00000000000E+00  0.12092882203E+04  0.12092882203E+04  0.25500000000E-02 0.  1.
         -2   -1    0    0    0  501 -0.00000000000E+00 -0.00000000000E+00 -0.44341801687E+03  0.44341801687E+03  0.25500000000E-02 0. -1.
    5000001    1    1    2    0    0 -0.29364929051E+03  0.63335688142E+03  0.27441105712E+03  0.77606267359E+03  0.19900000000E+03 0.  0.
   -5000001    1    1    2    0    0  0.29364929051E+03 -0.63335688142E+03  0.49145914627E+03  0.87664356355E+03  0.19900000000E+03 0.  0.
<mgrwt>
<rscale>  0 0.14645411E+04</rscale>
<asrwt>0</asrwt>
<pdfrwt beam="1">  1        2 0.17275546E+00 0.14645411E+04</pdfrwt>
<pdfrwt beam="2">  1       -2 0.63345431E-01 0.14645411E+04</pdfrwt>
<totfact> 0.47263667E+01</totfact>
</mgrwt>
</event>
<event>
 4    1  0.1760335E-005  0.9830949E+03  0.7818608E-02  0.9327283E-01
          2   -1    0    0  501    0  0.00000000000E+00  0.00000000000E+00  0.15129682637E+04  0.15129682637E+04  0.25500000000E-02 0.  1.
         -2   -1    0    0    0  501 -0.00000000000E+00 -0.00000000000E+00 -0.15969858324E+03  0.15969858326E+03  0.25500000000E-02 0. -1.
    5000001    1    1    2    0    0  0.75179228934E+02  0.42507603779E+03  0.46360704894E+03  0.66398347132E+03  0.19900000000E+03 0.  0.
   -5000001    1    1    2    0    0 -0.75179228934E+02 -0.42507603779E+03  0.88966263148E+03  0.10086833756E+04  0.19900000000E+03 0.  0.
<mgrwt>
<rscale>  0 0.98309488E+03</rscale>
<asrwt>0</asrwt>
<pdfrwt beam="1">  1        2 0.21613832E+00 0.98309488E+03</pdfrwt>
<pdfrwt beam="2">  1       -2 0.22814083E-01 0.98309488E+03</pdfrwt>
<totfact> 0.24266882E+02</totfact>
</mgrwt>
</event>
<event>
 4    1  0.1760335E-005  0.6593632E+03  0.7818608E-02  0.9789367E-01
         -2   -1    0    0    0  501 -0.00000000000E+00  0.00000000000E+00  0.21459506572E+03  0.21459506573E+03  0.25500000000E-02 0. -1.
          2   -1    0    0  501    0  0.00000000000E+00 -0.00000000000E+00 -0.50648857535E+03  0.50648857536E+03  0.25500000000E-02 0.  1.
    5000001    1    1    2    0    0  0.15016826387E+03  0.21303493078E+03 -0.10878731212E+03  0.34549973732E+03  0.19900000000E+03 0.  0.
   -5000001    1    1    2    0    0 -0.15016826387E+03 -0.21303493078E+03 -0.18310619751E+03  0.37558390377E+03  0.19900000000E+03 0.  0.
<mgrwt>
<rscale>  0 0.65936317E+03</rscale>
<asrwt>0</asrwt>
<pdfrwt beam="1">  1        2 0.72355510E-01 0.65936317E+03</pdfrwt>
<pdfrwt beam="2">  1       -2 0.30656438E-01 0.65936317E+03</pdfrwt>
<totfact> 0.65423222E+02</totfact>
</mgrwt>
</event>
<event>
 4    1  0.1760335E-005  0.5626411E+03  0.7818608E-02  0.9986096E-01
          2   -1    0    0  501    0  0.00000000000E+00  0.00000000000E+00  0.52249818638E+03  0.52249818639E+03  0.25500000000E-02 0.  1.
         -2   -1    0    0    0  501 -0.00000000000E+00 -0.00000000000E+00 -0.15146702761E+03  0.15146702763E+03  0.25500000000E-02 0. -1.
    5000001    1    1    2    0    0  0.15538624281E+02  0.15804507416E+03  0.42169462119E+02  0.25806773887E+03  0.19900000000E+03 0.  0.
   -5000001    1    1    2    0    0 -0.15538624281E+02 -0.15804507416E+03  0.32886169666E+03  0.41589747515E+03  0.19900000000E+03 0.  0.
<mgrwt>
<rscale>  0 0.56264108E+03</rscale>
<asrwt>0</asrwt>
<pdfrwt beam="1">  1        2 0.74642598E-01 0.56264108E+03</pdfrwt>
<pdfrwt beam="2">  1       -2 0.21638147E-01 0.56264108E+03</pdfrwt>
<totfact> 0.11857180E+03</totfact>
</mgrwt>
</event>
<event>
 4    1  0.1760335E-005  0.6312687E+03  0.7818608E-02  0.9842576E-01
          2   -1    0    0  501    0  0.00000000000E+00  0.00000000000E+00  0.99920868102E+03  0.99920868102E+03  0.25500000000E-02 0.  1.
         -2   -1    0    0    0  501 -0.00000000000E+00 -0.00000000000E+00 -0.99703937180E+02  0.99703937213E+02  0.25500000000E-02 0. -1.
    5000001    1    1    2    0    0  0.45662932234E+02  0.20912410404E+03  0.24226794345E+03  0.37962185223E+03  0.19900000000E+03 0.  0.
   -5000001    1    1    2    0    0 -0.45662932234E+02 -0.20912410404E+03  0.65723680039E+03  0.71929076600E+03  0.19900000000E+03 0.  0.
<mgrwt>
<rscale>  0 0.63126869E+03</rscale>
<asrwt>0</asrwt>
<pdfrwt beam="1">  1        2 0.14274410E+00 0.63126869E+03</pdfrwt>
<pdfrwt beam="2">  1       -2 0.14243420E-01 0.63126869E+03</pdfrwt>
<totfact> 0.10801074E+03</totfact>
</mgrwt>
</event>
<event>
 4    1  0.1760335E-005  0.6095566E+03  0.7818608E-02  0.9885775E-01
         -2   -1    0    0    0  501 -0.00000000000E+00  0.00000000000E+00  0.80231838464E+02  0.80231838505E+02  0.25500000000E-02 0. -1.
          2   -1    0    0  501    0  0.00000000000E+00 -0.00000000000E+00 -0.11577676393E+04  0.11577676393E+04  0.25500000000E-02 0.  1.
    5000001    1    1    2    0    0 -0.62279693503E+02 -0.17081654211E+03 -0.82765183026E+03  0.87043989076E+03  0.19900000000E+03 0.  0.
   -5000001    1    1    2    0    0  0.62279693503E+02  0.17081654211E+03 -0.24988397056E+03  0.36755958704E+03  0.19900000000E+03 0.  0.
<mgrwt>
<rscale>  0 0.60955665E+03</rscale>
<asrwt>0</asrwt>
<pdfrwt beam="1">  1        2 0.16539537E+00 0.60955665E+03</pdfrwt>
<pdfrwt beam="2">  1       -2 0.11461692E-01 0.60955665E+03</pdfrwt>
<totfact> 0.12497073E+03</totfact>
</mgrwt>
</event>
<event>
 4    1  0.1760335E-005  0.6355773E+03  0.7818608E-02  0.9834225E-01
         -2   -1    0    0    0  501 -0.00000000000E+00  0.00000000000E+00  0.11429161125E+03  0.11429161128E+03  0.25500000000E-02 0. -1.
          2   -1    0    0  501    0  0.00000000000E+00 -0.00000000000E+00 -0.88361377097E+03  0.88361377097E+03  0.25500000000E-02 0.  1.
    5000001    1    1    2    0    0 -0.20025984568E+03  0.14545854418E+03 -0.40231643728E+03  0.51256385902E+03  0.19900000000E+03 0.  0.
   -5000001    1    1    2    0    0  0.20025984568E+03 -0.14545854418E+03 -0.36700572244E+03  0.48534152323E+03  0.19900000000E+03 0.  0.
<mgrwt>
<rscale>  0 0.63557735E+03</rscale>
<asrwt>0</asrwt>
<pdfrwt beam="1">  1        2 0.12623054E+00 0.63557735E+03</pdfrwt>
<pdfrwt beam="2">  1       -2 0.16327374E-01 0.63557735E+03</pdfrwt>
<totfact> 0.10145085E+03</totfact>
</mgrwt>
</event>
<event>
 4    1  0.1760335E-005  0.5381507E+03  0.7818608E-02  0.1004274E+00
          2   -1    0    0  501    0  0.00000000000E+00  0.00000000000E+00  0.95896999883E+03  0.95896999884E+03  0.25500000000E-02 0.  1.
         -2   -1    0    0    0  501 -0.00000000000E+00 -0.00000000000E+00 -0.75499286305E+02  0.75499286348E+02  0.25500000000E-02 0. -1.
    5000001    1    1    2    0    0  0.17186288262E+03  0.11656800311E+02  0.33422891512E+03  0.42542061436E+03  0.19900000000E+03 0.  0.
   -5000001    1    1    2    0    0 -0.17186288262E+03 -0.11656800311E+02  0.54924179741E+03  0.60904867083E+03  0.19900000000E+03 0.  0.
<mgrwt>
<rscale>  0 0.53815072E+03</rscale>
<asrwt>0</asrwt>
<pdfrwt beam="1">  1        2 0.13699571E+00 0.53815072E+03</pdfrwt>
<pdfrwt beam="2">  1       -2 0.10785613E-01 0.53815072E+03</pdfrwt>
<totfact> 0.18125954E+03</totfact>
</mgrwt>
</event>
<event>
 4    1  0.1760335E-005  0.6951361E+03  0.7818608E-02  0.9725587E-01
          2   -1    0    0  501    0  0.00000000000E+00  0.00000000000E+00  0.44494246936E+03  0.44494246937E+03  0.25500000000E-02 0.  1.
         -2   -1    0    0    0  501 -0.00000000000E+00 -0.00000000000E+00 -0.27150371687E+03  0.27150371688E+03  0.25500000000E-02 0. -1.
    5000001    1    1    2    0    0 -0.23369930601E+03 -0.15362849401E+03  0.30405038289E+02  0.34459040346E+03  0.19900000000E+03 0.  0.
   -5000001    1    1    2    0    0  0.23369930601E+03  0.15362849401E+03  0.14303371420E+03  0.37185578280E+03  0.19900000000E+03 0.  0.
<mgrwt>
<rscale>  0 0.69513606E+03</rscale>
<asrwt>0</asrwt>
<pdfrwt beam="1">  1        2 0.63563210E-01 0.69513606E+03</pdfrwt>
<pdfrwt beam="2">  1       -2 0.38786245E-01 0.69513606E+03</pdfrwt>
<totfact> 0.48485939E+02</totfact>
</mgrwt>
</event>
<event>
 4    1  0.1760335E-005  0.6675321E+03  0.7818608E-02  0.9774426E-01
          2   -1    0    0  501    0  0.00000000000E+00  0.00000000000E+00  0.14922137086E+04  0.14922137086E+04  0.25500000000E-02 0. -1.
         -2   -1    0    0    0  501 -0.00000000000E+00 -0.00000000000E+00 -0.74654033769E+02  0.74654033812E+02  0.25500000000E-02 0.  1.
    5000001    1    1    2    0    0  0.13967984111E+03 -0.15909590850E+03  0.10943074246E+04  0.11322242294E+04  0.19900000000E+03 0.  0.
   -5000001    1    1    2    0    0 -0.13967984111E+03  0.15909590850E+03  0.32325225019E+03  0.43464351298E+03  0.19900000000E+03 0.  0.
<mgrwt>
<rscale>  0 0.66753209E+03</rscale>
<asrwt>0</asrwt>
<pdfrwt beam="1">  1        2 0.21317338E+00 0.66753209E+03</pdfrwt>
<pdfrwt beam="2">  1       -2 0.10664862E-01 0.66753209E+03</pdfrwt>
<totfact> 0.92356324E+02</totfact>
</mgrwt>
</event>
<event>
 4    1  0.1760335E-005  0.5553244E+03  0.7818608E-02  0.1000269E+00
         -2   -1    0    0    0  501 -0.00000000000E+00  0.00000000000E+00  0.47504664284E+02  0.47504664352E+02  0.25500000000E-02 0.  1.
          2   -1    0    0  501    0  0.00000000000E+00 -0.00000000000E+00 -0.16229204980E+04  0.16229204980E+04  0.25500000000E-02 0. -1.
    5000001    1    1    2    0    0  0.23669365942E+02 -0.18330670161E+03 -0.96138560899E+03  0.99901194933E+03  0.19900000000E+03 0.  0.
   -5000001    1    1    2    0    0 -0.23669365942E+02  0.18330670161E+03 -0.61403022473E+03  0.67141321302E+03  0.19900000000E+03 0.  0.
<mgrwt>
<rscale>  0 0.55532439E+03</rscale>
<asrwt>0</asrwt>
<pdfrwt beam="1">  1        2 0.23184575E+00 0.55532439E+03</pdfrwt>
<pdfrwt beam="2">  1       -2 0.67863816E-02 0.55532439E+03</pdfrwt>
<totfact> 0.16379794E+03</totfact>
</mgrwt>
</event>
<event>
 4    1  0.1760335E-005  0.4356911E+03  0.7818608E-02  0.1032077E+00
         -2   -1    0    0    0  501 -0.00000000000E+00  0.00000000000E+00  0.16659967113E+02  0.16659967308E+02  0.25500000000E-02 0. -1.
          2   -1    0    0  501    0  0.00000000000E+00 -0.00000000000E+00 -0.28485459316E+04  0.28485459316E+04  0.25500000000E-02 0.  1.
    5000001    1    1    2    0    0 -0.50240955696E+02 -0.62959433410E+02 -0.16591425093E+04  0.16729742706E+04  0.19900000000E+03 0.  0.
   -5000001    1    1    2    0    0  0.50240955696E+02  0.62959433410E+02 -0.11727434551E+04  0.11922316283E+04  0.19900000000E+03 0.  0.
<mgrwt>
<rscale>  0 0.43569109E+03</rscale>
<asrwt>0</asrwt>
<pdfrwt beam="1">  1        2 0.40693482E+00 0.43569109E+03</pdfrwt>
<pdfrwt beam="2">  1       -2 0.23799971E-02 0.43569109E+03</pdfrwt>
<totfact> 0.19624487E+03</totfact>
</mgrwt>
</event>
<event>
 4    1  0.1760335E-005  0.7213562E+03  0.7818608E-02  0.9681392E-01
         -2   -1    0    0    0  501 -0.00000000000E+00  0.00000000000E+00  0.15417333751E+03  0.15417333753E+03  0.25500000000E-02 0. -1.
          2   -1    0    0  501    0  0.00000000000E+00 -0.00000000000E+00 -0.84378204998E+03  0.84378204998E+03  0.25500000000E-02 0.  1.
    5000001    1    1    2    0    0  0.21516679123E+03  0.16179637461E+03 -0.15912957113E+03  0.37067240968E+03  0.19900000000E+03 0.  0.
   -5000001    1    1    2    0    0 -0.21516679123E+03 -0.16179637461E+03 -0.53047914134E+03  0.62728297784E+03  0.19900000000E+03 0.  0.
<mgrwt>
<rscale>  0 0.72135621E+03</rscale>
<asrwt>0</asrwt>
<pdfrwt beam="1">  1        2 0.12054029E+00 0.72135621E+03</pdfrwt>
<pdfrwt beam="2">  1       -2 0.22024763E-01 0.72135621E+03</pdfrwt>
<totfact> 0.64011179E+02</totfact>
</mgrwt>
</event>
<event>
 4    1  0.1760335E-005  0.5705440E+03  0.7818608E-02  0.9968476E-01
         -2   -1    0    0    0  501 -0.00000000000E+00  0.00000000000E+00  0.13220468869E+03  0.13220468871E+03  0.25500000000E-02 0. -1.
          2   -1    0    0  501    0  0.00000000000E+00 -0.00000000000E+00 -0.61556148079E+03  0.61556148079E+03  0.25500000000E-02 0.  1.
    5000001    1    1    2    0    0  0.26532571794E+02 -0.18803326908E+03 -0.34078954919E+03  0.43794863225E+03  0.19900000000E+03 0.  0.
   -5000001    1    1    2    0    0 -0.26532571794E+02  0.18803326908E+03 -0.14256724290E+03  0.30981753726E+03  0.19900000000E+03 0.  0.
<mgrwt>
<rscale>  0 0.57054400E+03</rscale>
<asrwt>0</asrwt>
<pdfrwt beam="1">  1        2 0.87937353E-01 0.57054400E+03</pdfrwt>
<pdfrwt beam="2">  1       -2 0.18886384E-01 0.57054400E+03</pdfrwt>
<totfact> 0.12422153E+03</totfact>
</mgrwt>
</event>
<event>
 4    1  0.1760335E-005  0.6778185E+03  0.7818608E-02  0.9755936E-01
          2   -1    0    0  501    0  0.00000000000E+00  0.00000000000E+00  0.14860637862E+03  0.14860637864E+03  0.25500000000E-02 0.  1.
         -2   -1    0    0    0  501 -0.00000000000E+00 -0.00000000000E+00 -0.77291072220E+03  0.77291072220E+03  0.25500000000E-02 0. -1.
    5000001    1    1    2    0    0  0.51510489363E+02  0.15788337891E+03 -0.15294076254E+02  0.25964475851E+03  0.19900000000E+03 0.  0.
   -5000001    1    1    2    0    0 -0.51510489363E+02 -0.15788337891E+03 -0.60901026732E+03  0.66187234234E+03  0.19900000000E+03 0.  0.
<mgrwt>
<rscale>  0 0.67781845E+03</rscale>
<asrwt>0</asrwt>
<pdfrwt beam="1">  1        2 0.21229483E-01 0.67781845E+03</pdfrwt>
<pdfrwt beam="2">  1       -2 0.11041582E+00 0.67781845E+03</pdfrwt>
<totfact> 0.17438905E+02</totfact>
</mgrwt>
</event>
<event>
 4    1  0.1760335E-005  0.1018632E+04  0.7818608E-02  0.9288342E-01
          2   -1    0    0  501    0  0.00000000000E+00  0.00000000000E+00  0.24477639668E+04  0.24477639668E+04  0.25500000000E-02 0.  1.
         -2   -1    0    0    0  501 -0.00000000000E+00 -0.00000000000E+00 -0.10597545857E+03  0.10597545860E+03  0.25500000000E-02 0. -1.
    5000001    1    1    2    0    0 -0.46137505943E+02 -0.45263311900E+03  0.88729521924E+03  0.10168083477E+04  0.19900000000E+03 0.  0.
   -5000001    1    1    2    0    0  0.46137505943E+02  0.45263311900E+03  0.14544932890E+04  0.15369310777E+04  0.19900000000E+03 0.  0.
<mgrwt>
<rscale>  0 0.10186322E+04</rscale>
<asrwt>0</asrwt>
<pdfrwt beam="1">  1        2 0.34968056E+00 0.10186322E+04</pdfrwt>
<pdfrwt beam="2">  1       -2 0.15139351E-01 0.10186322E+04</pdfrwt>
<totfact> 0.16324143E+02</totfact>
</mgrwt>
</event>
<event>
 4    1  0.1760335E-005  0.7228013E+03  0.7818608E-02  0.9679014E-01
          2   -1    0    0  501    0  0.00000000000E+00  0.00000000000E+00  0.18915570766E+04  0.18915570766E+04  0.25500000000E-02 0.  1.
         -2   -1    0    0    0  501 -0.00000000000E+00 -0.00000000000E+00 -0.69049154008E+02  0.69049154055E+02  0.25500000000E-02 0. -1.
    5000001    1    1    2    0    0  0.23882848962E+03 -0.15100913661E+03  0.11978908851E+04  0.12467503276E+04  0.19900000000E+03 0.  0.
   -5000001    1    1    2    0    0 -0.23882848962E+03  0.15100913661E+03  0.62461703752E+03  0.71385590308E+03  0.19900000000E+03 0.  0.
<mgrwt>
<rscale>  0 0.72280126E+03</rscale>
<asrwt>0</asrwt>
<pdfrwt beam="1">  1        2 0.27022237E+00 0.72280126E+03</pdfrwt>
<pdfrwt beam="2">  1       -2 0.98641673E-02 0.72280126E+03</pdfrwt>
<totfact> 0.65266395E+02</totfact>
</mgrwt>
</event>
<event>
 4    1  0.1760335E-005  0.4385460E+03  0.7818608E-02  0.1031194E+00
          2   -1    0    0  501    0  0.00000000000E+00  0.00000000000E+00  0.19146042535E+04  0.19146042535E+04  0.25500000000E-02 0.  1.
         -2   -1    0    0    0  501 -0.00000000000E+00 -0.00000000000E+00 -0.25112579439E+02  0.25112579569E+02  0.25500000000E-02 0. -1.
    5000001    1    1    2    0    0  0.90288643565E+02 -0.86017137701E+01  0.87430615298E+03  0.90124262980E+03  0.19900000000E+03 0.  0.
   -5000001    1    1    2    0    0 -0.90288643565E+02  0.86017137701E+01  0.10151855211E+04  0.10384742032E+04  0.19900000000E+03 0.  0.
<mgrwt>
<rscale>  0 0.43854601E+03</rscale>
<asrwt>0</asrwt>
<pdfrwt beam="1">  1        2 0.27351482E+00 0.43854601E+03</pdfrwt>
<pdfrwt beam="2">  1       -2 0.35875123E-02 0.43854601E+03</pdfrwt>
<totfact> 0.31382210E+03</totfact>
</mgrwt>
</event>
<event>
 4    1  0.1760335E-005  0.7047874E+03  0.7818608E-02  0.9709080E-01
         -2   -1    0    0    0  501 -0.00000000000E+00  0.00000000000E+00  0.18083712528E+03  0.18083712530E+03  0.25500000000E-02 0. -1.
          2   -1    0    0  501    0  0.00000000000E+00 -0.00000000000E+00 -0.68670257893E+03  0.68670257894E+03  0.25500000000E-02 0.  1.
    5000001    1    1    2    0    0  0.20797149386E+03 -0.15603952721E+03 -0.92535049239E+02  0.34024140202E+03  0.19900000000E+03 0.  0.
   -5000001    1    1    2    0    0 -0.20797149386E+03  0.15603952721E+03 -0.41333040441E+03  0.52729830222E+03  0.19900000000E+03 0.  0.
<mgrwt>
<rscale>  0 0.70478740E+03</rscale>
<asrwt>0</asrwt>
<pdfrwt beam="1">  1        2 0.98100367E-01 0.70478740E+03</pdfrwt>
<pdfrwt beam="2">  1       -2 0.25833875E-01 0.70478740E+03</pdfrwt>
<totfact> 0.62463675E+02</totfact>
</mgrwt>
</event>
<event>
 4    1  0.1760335E-005  0.6169333E+03  0.7818608E-02  0.9870885E-01
          2   -1    0    0  501    0  0.00000000000E+00  0.00000000000E+00  0.65593955375E+03  0.65593955376E+03  0.25500000000E-02 0.  1.
         -2   -1    0    0    0  501 -0.00000000000E+00 -0.00000000000E+00 -0.14506163991E+03  0.14506163993E+03  0.25500000000E-02 0. -1.
    5000001    1    1    2    0    0  0.19889227677E+03  0.12344718529E+03  0.21980325606E+03  0.37777217564E+03  0.19900000000E+03 0.  0.
   -5000001    1    1    2    0    0 -0.19889227677E+03 -0.12344718529E+03  0.29107465778E+03  0.42322901805E+03  0.19900000000E+03 0.  0.
<mgrwt>
<rscale>  0 0.61693328E+03</rscale>
<asrwt>0</asrwt>
<pdfrwt beam="1">  1        2 0.93705651E-01 0.61693328E+03</pdfrwt>
<pdfrwt beam="2">  1       -2 0.20723091E-01 0.61693328E+03</pdfrwt>
<totfact> 0.97941451E+02</totfact>
</mgrwt>
</event>
<event>
 4    1  0.1760335E-005  0.7770101E+03  0.7818608E-02  0.9593903E-01
         -2   -1    0    0    0  501 -0.00000000000E+00  0.00000000000E+00  0.58310201375E+02  0.58310201431E+02  0.25500000000E-02 0. -1.
          2   -1    0    0  501    0  0.00000000000E+00 -0.00000000000E+00 -0.25885034268E+04  0.25885034268E+04  0.25500000000E-02 0.  1.
    5000001    1    1    2    0    0  0.31846004268E+03  0.84623104963E+02 -0.14439667117E+04  0.14943957752E+04  0.19900000000E+03 0.  0.
   -5000001    1    1    2    0    0 -0.31846004268E+03 -0.84623104963E+02 -0.10862265137E+04  0.11524178530E+04  0.19900000000E+03 0.  0.
<mgrwt>
<rscale>  0 0.77701005E+03</rscale>
<asrwt>0</asrwt>
<pdfrwt beam="1">  1        2 0.36978613E+00 0.77701005E+03</pdfrwt>
<pdfrwt beam="2">  1       -2 0.83300304E-02 0.77701005E+03</pdfrwt>
<totfact> 0.37681864E+02</totfact>
</mgrwt>
</event>
<event>
 4    1  0.1760335E-005  0.9165149E+03  0.7818608E-02  0.9405169E-01
         -2   -1    0    0    0  501 -0.00000000000E+00  0.00000000000E+00  0.30438322870E+03  0.30438322871E+03  0.25500000000E-02 0. -1.
          2   -1    0    0  501    0  0.00000000000E+00 -0.00000000000E+00 -0.68991935094E+03  0.68991935095E+03  0.25500000000E-02 0.  1.
    5000001    1    1    2    0    0 -0.27970009890E+03  0.24937843175E+03 -0.49341125754E+01  0.42431956473E+03  0.19900000000E+03 0.  0.
   -5000001    1    1    2    0    0  0.27970009890E+03 -0.24937843175E+03 -0.38060200967E+03  0.56998301493E+03  0.19900000000E+03 0.  0.
<mgrwt>
<rscale>  0 0.91651488E+03</rscale>
<asrwt>0</asrwt>
<pdfrwt beam="1">  1        2 0.98559907E-01 0.91651488E+03</pdfrwt>
<pdfrwt beam="2">  1       -2 0.43483318E-01 0.91651488E+03</pdfrwt>
<totfact> 0.23008285E+02</totfact>
</mgrwt>
</event>
<event>
 4    1  0.1760335E-005  0.4871447E+03  0.7818608E-02  0.1017190E+00
          2   -1    0    0  501    0  0.00000000000E+00  0.00000000000E+00  0.38018941867E+04  0.38018941867E+04  0.25500000000E-02 0.  1.
         -2   -1    0    0    0  501 -0.00000000000E+00 -0.00000000000E+00 -0.15604719106E+02  0.15604719314E+02  0.25500000000E-02 0. -1.
    5000001    1    1    2    0    0  0.32824607708E+02 -0.12161029044E+03  0.23800148326E+04  0.23916392121E+04  0.19900000000E+03 0.  0.
   -5000001    1    1    2    0    0 -0.32824607708E+02  0.12161029044E+03  0.14062746350E+04  0.14258596938E+04  0.19900000000E+03 0.  0.
<mgrwt>
<rscale>  0 0.48714471E+03</rscale>
<asrwt>0</asrwt>
<pdfrwt beam="1">  1        2 0.54312755E+00 0.48714471E+03</pdfrwt>
<pdfrwt beam="2">  1       -2 0.22292464E-02 0.48714471E+03</pdfrwt>
<totfact> 0.61225455E+02</totfact>
</mgrwt>
</event>
<event>
 4    1  0.1760335E-005  0.4359036E+03  0.7818608E-02  0.1032011E+00
          2   -1    0    0  501    0  0.00000000000E+00  0.00000000000E+00  0.87936737707E+03  0.87936737707E+03  0.25500000000E-02 0.  1.
         -2   -1    0    0    0  501 -0.00000000000E+00 -0.00000000000E+00 -0.54019506117E+02  0.54019506177E+02  0.25500000000E-02 0. -1.
    5000001    1    1    2    0    0  0.36425738473E+02  0.81013238951E+02  0.42009525539E+03  0.47325574789E+03  0.19900000000E+03 0.  0.
   -5000001    1    1    2    0    0 -0.36425738473E+02 -0.81013238951E+02  0.40525261556E+03  0.46013113536E+03  0.19900000000E+03 0.  0.
<mgrwt>
<rscale>  0 0.43590362E+03</rscale>
<asrwt>0</asrwt>
<pdfrwt beam="1">  1        2 0.12562391E+00 0.43590362E+03</pdfrwt>
<pdfrwt beam="2">  1       -2 0.77170723E-02 0.43590362E+03</pdfrwt>
<totfact> 0.34782179E+03</totfact>
</mgrwt>
</event>
<event>
 4    1  0.1760335E-005  0.7496155E+03  0.7818608E-02  0.9635954E-01
         -2   -1    0    0    0  501 -0.00000000000E+00  0.00000000000E+00  0.59412925033E+02  0.59412925088E+02  0.25500000000E-02 0. -1.
          2   -1    0    0  501    0  0.00000000000E+00 -0.00000000000E+00 -0.23644827950E+04  0.23644827951E+04  0.25500000000E-02 0.  1.
    5000001    1    1    2    0    0 -0.27734262471E+03 -0.91662380475E+02 -0.15558691388E+04  0.15955095426E+04  0.19900000000E+03 0.  0.
   -5000001    1    1    2    0    0  0.27734262471E+03  0.91662380475E+02 -0.74920073127E+03  0.82838617758E+03  0.19900000000E+03 0.  0.
<mgrwt>
<rscale>  0 0.74961547E+03</rscale>
<asrwt>0</asrwt>
<pdfrwt beam="1">  1        2 0.33778320E+00 0.74961547E+03</pdfrwt>
<pdfrwt beam="2">  1       -2 0.84875622E-02 0.74961547E+03</pdfrwt>
<totfact> 0.47820991E+02</totfact>
</mgrwt>
</event>
<event>
 4    1  0.1760335E-005  0.4964493E+03  0.7818608E-02  0.1014710E+00
          2   -1    0    0  501    0  0.00000000000E+00  0.00000000000E+00  0.66706065185E+03  0.66706065185E+03  0.25500000000E-02 0.  1.
         -2   -1    0    0    0  501 -0.00000000000E+00 -0.00000000000E+00 -0.92368637091E+02  0.92368637126E+02  0.25500000000E-02 0. -1.
    5000001    1    1    2    0    0  0.14002297585E+03 -0.21408710088E+02  0.35489177906E+03  0.43082936469E+03  0.19900000000E+03 0.  0.
   -5000001    1    1    2    0    0 -0.14002297585E+03  0.21408710088E+02  0.21980023570E+03  0.32859992429E+03  0.19900000000E+03 0.  0.
<mgrwt>
<rscale>  0 0.49644933E+03</rscale>
<asrwt>0</asrwt>
<pdfrwt beam="1">  1        2 0.95294378E-01 0.49644933E+03</pdfrwt>
<pdfrwt beam="2">  1       -2 0.13195520E-01 0.49644933E+03</pdfrwt>
<totfact> 0.20689042E+03</totfact>
</mgrwt>
</event>
<event>
 4    1  0.1760335E-005  0.6140885E+03  0.7818608E-02  0.9876600E-01
          2   -1    0    0  501    0  0.00000000000E+00  0.00000000000E+00  0.26732644758E+04  0.26732644758E+04  0.25500000000E-02 0.  1.
         -2   -1    0    0    0  501 -0.00000000000E+00 -0.00000000000E+00 -0.35266312930E+02  0.35266313022E+02  0.25500000000E-02 0. -1.
    5000001    1    1    2    0    0  0.51479659534E+02 -0.21982775949E+03  0.10506812293E+04  0.10929347852E+04  0.19900000000E+03 0.  0.
   -5000001    1    1    2    0    0 -0.51479659534E+02  0.21982775949E+03  0.15873169337E+04  0.16155960037E+04  0.19900000000E+03 0.  0.
<mgrwt>
<rscale>  0 0.61408853E+03</rscale>
<asrwt>0</asrwt>
<pdfrwt beam="1">  1        2 0.38189478E+00 0.61408853E+03</pdfrwt>
<pdfrwt beam="2">  1       -2 0.50380466E-02 0.61408853E+03</pdfrwt>
<totfact> 0.76269939E+02</totfact>
</mgrwt>
</event>
<event>
 4    1  0.1760335E-005  0.5549956E+03  0.7818608E-02  0.1000344E+00
         -2   -1    0    0    0  501 -0.00000000000E+00  0.00000000000E+00  0.50190413889E+03  0.50190413889E+03  0.25500000000E-02 0. -1.
          2   -1    0    0  501    0  0.00000000000E+00 -0.00000000000E+00 -0.15342577779E+03  0.15342577781E+03  0.25500000000E-02 0.  1.
    5000001    1    1    2    0    0  0.14424330305E+03 -0.11657684905E+02  0.32573887355E+03  0.40822646390E+03  0.19900000000E+03 0.  0.
   -5000001    1    1    2    0    0 -0.14424330305E+03  0.11657684905E+02  0.22739487552E+02  0.24710345280E+03  0.19900000000E+03 0.  0.
<mgrwt>
<rscale>  0 0.55499561E+03</rscale>
<asrwt>0</asrwt>
<pdfrwt beam="1">  1        2 0.21917968E-01 0.55499561E+03</pdfrwt>
<pdfrwt beam="2">  1       -2 0.71700592E-01 0.55499561E+03</pdfrwt>
<totfact> 0.45423574E+02</totfact>
</mgrwt>
</event>
<event>
 4    1  0.1760335E-005  0.4749255E+03  0.7818608E-02  0.1020539E+00
          2   -1    0    0  501    0  0.00000000000E+00  0.00000000000E+00  0.10315455703E+03  0.10315455706E+03  0.25500000000E-02 0.  1.
         -2   -1    0    0    0  501 -0.00000000000E+00 -0.00000000000E+00 -0.54664152664E+03  0.54664152665E+03  0.25500000000E-02 0. -1.
    5000001    1    1    2    0    0  0.86840326217E+02  0.78134537439E+02 -0.29842795326E+03  0.37723532640E+03  0.19900000000E+03 0.  0.
   -5000001    1    1    2    0    0 -0.86840326217E+02 -0.78134537439E+02 -0.14505901635E+03  0.27256075730E+03  0.19900000000E+03 0.  0.
<mgrwt>
<rscale>  0 0.47492553E+03</rscale>
<asrwt>0</asrwt>
<pdfrwt beam="1">  1        2 0.14736366E-01 0.47492553E+03</pdfrwt>
<pdfrwt beam="2">  1       -2 0.78091645E-01 0.47492553E+03</pdfrwt>
<totfact> 0.60220967E+02</totfact>
</mgrwt>
</event>
<event>
 4    1  0.1760335E-005  0.1992620E+04  0.7818608E-02  0.8610079E-01
         -2   -1    0    0    0  501 -0.00000000000E+00  0.00000000000E+00  0.69474293590E+03  0.69474293590E+03  0.25500000000E-02 0. -1.
          2   -1    0    0  501    0  0.00000000000E+00 -0.00000000000E+00 -0.14287777602E+04  0.14287777602E+04  0.25500000000E-02 0.  1.
    5000001    1    1    2    0    0 -0.95237151637E+03 -0.18422034227E+03 -0.24987057902E+03  0.10212663443E+04  0.19900000000E+03 0.  0.
   -5000001    1    1    2    0    0  0.95237151637E+03  0.18422034227E+03 -0.48416424528E+03  0.11022543518E+04  0.19900000000E+03 0.  0.
<mgrwt>
<rscale>  0 0.19926196E+04</rscale>
<asrwt>0</asrwt>
<pdfrwt beam="1">  1        2 0.20411111E+00 0.19926196E+04</pdfrwt>
<pdfrwt beam="2">  1       -2 0.99248991E-01 0.19926196E+04</pdfrwt>
<totfact> 0.12529423E+01</totfact>
</mgrwt>
</event>
<event>
 4    1  0.1760335E-005  0.7043314E+03  0.7818608E-02  0.9709853E-01
          2   -1    0    0  501    0  0.00000000000E+00  0.00000000000E+00  0.33625152929E+03  0.33625152930E+03  0.25500000000E-02 0.  1.
         -2   -1    0    0    0  501 -0.00000000000E+00 -0.00000000000E+00 -0.36883308351E+03  0.36883308351E+03  0.25500000000E-02 0. -1.
    5000001    1    1    2    0    0 -0.15404155118E+03  0.61032915053E+02 -0.25522125302E+03  0.36358314621E+03  0.19900000000E+03 0.  0.
   -5000001    1    1    2    0    0  0.15404155118E+03 -0.61032915053E+02  0.22263969881E+03  0.34150146661E+03  0.19900000000E+03 0.  0.
<mgrwt>
<rscale>  0 0.70433142E+03</rscale>
<asrwt>0</asrwt>
<pdfrwt beam="1">  1        2 0.48035933E-01 0.70433142E+03</pdfrwt>
<pdfrwt beam="2">  1       -2 0.52690440E-01 0.70433142E+03</pdfrwt>
<totfact> 0.35983797E+02</totfact>
</mgrwt>
</event>
<event>
 4    1  0.1760335E-005  0.4743813E+03  0.7818608E-02  0.1020691E+00
          2   -1    0    0  501    0  0.00000000000E+00  0.00000000000E+00  0.50108011799E+03  0.50108011800E+03  0.25500000000E-02 0.  1.
         -2   -1    0    0    0  501 -0.00000000000E+00 -0.00000000000E+00 -0.11227627413E+03  0.11227627415E+03  0.25500000000E-02 0. -1.
    5000001    1    1    2    0    0  0.10609956503E+03  0.45669482998E+02  0.26885209033E+03  0.35387182122E+03  0.19900000000E+03 0.  0.
   -5000001    1    1    2    0    0 -0.10609956503E+03 -0.45669482998E+02  0.11995175353E+03  0.25948457093E+03  0.19900000000E+03 0.  0.
<mgrwt>
<rscale>  0 0.47438132E+03</rscale>
<asrwt>0</asrwt>
<pdfrwt beam="1">  1        2 0.71582873E-01 0.47438132E+03</pdfrwt>
<pdfrwt beam="2">  1       -2 0.16039468E-01 0.47438132E+03</pdfrwt>
<totfact> 0.20810070E+03</totfact>
</mgrwt>
</event>
<event>
 4    1  0.1760335E-005  0.7866564E+03  0.7818608E-02  0.9579535E-01
         -2   -1    0    0    0  501 -0.00000000000E+00  0.00000000000E+00  0.10986628167E+03  0.10986628170E+03  0.25500000000E-02 0. -1.
          2   -1    0    0  501    0  0.00000000000E+00 -0.00000000000E+00 -0.14081397313E+04  0.14081397313E+04  0.25500000000E-02 0.  1.
    5000001    1    1    2    0    0  0.32971605956E+03 -0.59400655229E+02 -0.75242418110E+03  0.84733952232E+03  0.19900000000E+03 0.  0.
   -5000001    1    1    2    0    0 -0.32971605956E+03  0.59400655229E+02 -0.54584926853E+03  0.67066649068E+03  0.19900000000E+03 0.  0.
<mgrwt>
<rscale>  0 0.78665641E+03</rscale>
<asrwt>0</asrwt>
<pdfrwt beam="1">  1        2 0.20116281E+00 0.78665641E+03</pdfrwt>
<pdfrwt beam="2">  1       -2 0.15695184E-01 0.78665641E+03</pdfrwt>
<totfact> 0.53480810E+02</totfact>
</mgrwt>
</event>
<event>
 4    1  0.1760335E-005  0.8815935E+03  0.7818608E-02  0.9448887E-01
         -2   -1    0    0    0  501 -0.00000000000E+00  0.00000000000E+00  0.17551923742E+03  0.17551923743E+03  0.25500000000E-02 0. -1.
          2   -1    0    0  501    0  0.00000000000E+00 -0.00000000000E+00 -0.11070112859E+04  0.11070112859E+04  0.25500000000E-02 0.  1.
    5000001    1    1    2    0    0 -0.27461311802E+03  0.23662506615E+03 -0.24369681199E+03  0.47999262775E+03  0.19900000000E+03 0.  0.
   -5000001    1    1    2    0    0  0.27461311802E+03 -0.23662506615E+03 -0.68779523647E+03  0.80253789557E+03  0.19900000000E+03 0.  0.
<mgrwt>
<rscale>  0 0.88159350E+03</rscale>
<asrwt>0</asrwt>
<pdfrwt beam="1">  1        2 0.15814447E+00 0.88159350E+03</pdfrwt>
<pdfrwt beam="2">  1       -2 0.25074177E-01 0.88159350E+03</pdfrwt>
<totfact> 0.34515740E+02</totfact>
</mgrwt>
</event>
<event>
 4    1  0.1760335E-005  0.4567381E+03  0.7818608E-02  0.1025732E+00
         -2   -1    0    0    0  501 -0.00000000000E+00  0.00000000000E+00  0.27708296426E+03  0.27708296427E+03  0.25500000000E-02 0. -1.
          2   -1    0    0  501    0  0.00000000000E+00 -0.00000000000E+00 -0.18821951221E+03  0.18821951223E+03  0.25500000000E-02 0.  1.
    5000001    1    1    2    0    0  0.10628906686E+03 -0.24909131099E+02  0.18788525138E+02  0.22775390057E+03  0.19900000000E+03 0.  0.
   -5000001    1    1    2    0    0 -0.10628906686E+03  0.24909131099E+02  0.70074926914E+02  0.23754857593E+03  0.19900000000E+03 0.  0.
<mgrwt>
<rscale>  0 0.45673809E+03</rscale>
<asrwt>0</asrwt>
<pdfrwt beam="1">  1        2 0.26888502E-01 0.45673809E+03</pdfrwt>
<pdfrwt beam="2">  1       -2 0.39583281E-01 0.45673809E+03</pdfrwt>
<totfact> 0.12149167E+03</totfact>
</mgrwt>
</event>
<event>
 4    1  0.1760335E-005  0.7455200E+03  0.7818608E-02  0.9642405E-01
         -2   -1    0    0    0  501 -0.00000000000E+00  0.00000000000E+00  0.37685838054E+02  0.37685838140E+02  0.25500000000E-02 0. -1.
          2   -1    0    0  501    0  0.00000000000E+00 -0.00000000000E+00 -0.36870618120E+04  0.36870618120E+04  0.25500000000E-02 0.  1.
    5000001    1    1    2    0    0  0.55577195655E+02 -0.30498057320E+03 -0.15399919861E+04  0.15834387554E+04  0.19900000000E+03 0.  0.
   -5000001    1    1    2    0    0 -0.55577195655E+02  0.30498057320E+03 -0.21093839878E+04  0.21413088947E+04  0.19900000000E+03 0.  0.
<mgrwt>
<rscale>  0 0.74551999E+03</rscale>
<asrwt>0</asrwt>
<pdfrwt beam="1">  1        2 0.52672289E+00 0.74551999E+03</pdfrwt>
<pdfrwt beam="2">  1       -2 0.53836935E-02 0.74551999E+03</pdfrwt>
<totfact> 0.18142381E+02</totfact>
</mgrwt>
</event>
<event>
 4    1  0.1760335E-005  0.7525177E+03  0.7818608E-02  0.9631409E-01
         -2   -1    0    0    0  501 -0.00000000000E+00  0.00000000000E+00  0.71395701659E+02  0.71395701704E+02  0.25500000000E-02 0. -1.
          2   -1    0    0  501    0  0.00000000000E+00 -0.00000000000E+00 -0.19829024122E+04  0.19829024122E+04  0.25500000000E-02 0.  1.
    5000001    1    1    2    0    0  0.12410391867E+03 -0.26914932917E+03 -0.12802162624E+04  0.13290589989E+04  0.19900000000E+03 0.  0.
   -5000001    1    1    2    0    0 -0.12410391867E+03  0.26914932917E+03 -0.63129044808E+03  0.72523911496E+03  0.19900000000E+03 0.  0.
<mgrwt>
<rscale>  0 0.75251767E+03</rscale>
<asrwt>0</asrwt>
<pdfrwt beam="1">  1        2 0.28327174E+00 0.75251767E+03</pdfrwt>
<pdfrwt beam="2">  1       -2 0.10199387E-01 0.75251767E+03</pdfrwt>
<totfact> 0.55470219E+02</totfact>
</mgrwt>
</event>
<event>
 4    1  0.1760335E-005  0.6875745E+03  0.7818608E-02  0.9738721E-01
          2   -1    0    0  501    0  0.00000000000E+00  0.00000000000E+00  0.86760691587E+03  0.86760691588E+03  0.25500000000E-02 0.  1.
         -2   -1    0    0    0  501 -0.00000000000E+00 -0.00000000000E+00 -0.13622492598E+03  0.13622492600E+03  0.25500000000E-02 0. -1.
    5000001    1    1    2    0    0 -0.21239259776E+03 -0.17644428535E+03  0.43639721928E+03  0.55343177936E+03  0.19900000000E+03 0.  0.
   -5000001    1    1    2    0    0  0.21239259776E+03  0.17644428535E+03  0.29498477062E+03  0.45040006251E+03  0.19900000000E+03 0.  0.
<mgrwt>
<rscale>  0 0.68757454E+03</rscale>
<asrwt>0</asrwt>
<pdfrwt beam="1">  1        2 0.12394384E+00 0.68757454E+03</pdfrwt>
<pdfrwt beam="2">  1       -2 0.19460704E-01 0.68757454E+03</pdfrwt>
<totfact> 0.76750967E+02</totfact>
</mgrwt>
</event>
<event>
 4    1  0.1760335E-005  0.6174620E+03  0.7818608E-02  0.9869826E-01
          2   -1    0    0  501    0  0.00000000000E+00  0.00000000000E+00  0.17702193763E+04  0.17702193763E+04  0.25500000000E-02 0.  1.
         -2   -1    0    0    0  501 -0.00000000000E+00 -0.00000000000E+00 -0.53843507401E+02  0.53843507461E+02  0.25500000000E-02 0. -1.
    5000001    1    1    2    0    0 -0.24167469518E+02 -0.21371209791E+03  0.57090896995E+03  0.64171253638E+03  0.19900000000E+03 0.  0.
   -5000001    1    1    2    0    0  0.24167469518E+02  0.21371209791E+03  0.11454668990E+04  0.11823503474E+04  0.19900000000E+03 0.  0.
<mgrwt>
<rscale>  0 0.61746197E+03</rscale>
<asrwt>0</asrwt>
<pdfrwt beam="1">  1        2 0.25288850E+00 0.61746197E+03</pdfrwt>
<pdfrwt beam="2">  1       -2 0.76919291E-02 0.61746197E+03</pdfrwt>
<totfact> 0.11277245E+03</totfact>
</mgrwt>
</event>
<event>
 4    1  0.1760335E-005  0.5640721E+03  0.7818608E-02  0.9982883E-01
         -2   -1    0    0    0  501 -0.00000000000E+00  0.00000000000E+00  0.28110066384E+03  0.28110066385E+03  0.25500000000E-02 0. -1.
          2   -1    0    0  501    0  0.00000000000E+00 -0.00000000000E+00 -0.28297456307E+03  0.28297456308E+03  0.25500000000E-02 0.  1.
    5000001    1    1    2    0    0 -0.10181400262E+03  0.98878185844E+02  0.13977754606E+03  0.28157014960E+03  0.19900000000E+03 0.  0.
   -5000001    1    1    2    0    0  0.10181400262E+03 -0.98878185844E+02 -0.14165144529E+03  0.28250507733E+03  0.19900000000E+03 0.  0.
<mgrwt>
<rscale>  0 0.56407211E+03</rscale>
<asrwt>0</asrwt>
<pdfrwt beam="1">  1        2 0.40424938E-01 0.56407211E+03</pdfrwt>
<pdfrwt beam="2">  1       -2 0.40157238E-01 0.56407211E+03</pdfrwt>
<totfact> 0.75068212E+02</totfact>
</mgrwt>
</event>
<event>
 4    1  0.1760335E-005  0.5482992E+03  0.7818608E-02  0.1001888E+00
          2   -1    0    0  501    0  0.00000000000E+00  0.00000000000E+00  0.67748154602E+02  0.67748154650E+02  0.25500000000E-02 0.  1.
         -2   -1    0    0    0  501 -0.00000000000E+00 -0.00000000000E+00 -0.11093732556E+04  0.11093732556E+04  0.25500000000E-02 0. -1.
    5000001    1    1    2    0    0 -0.15441706146E+03  0.52687796809E+02 -0.31786493022E+03  0.40897401710E+03  0.19900000000E+03 0.  0.
   -5000001    1    1    2    0    0  0.15441706146E+03 -0.52687796809E+02 -0.72376017079E+03  0.76814739316E+03  0.19900000000E+03 0.  0.
<mgrwt>
<rscale>  0 0.54829916E+03</rscale>
<asrwt>0</asrwt>
<pdfrwt beam="1">  1        2 0.96783085E-02 0.54829916E+03</pdfrwt>
<pdfrwt beam="2">  1       -2 0.15848188E+00 0.54829916E+03</pdfrwt>
<totfact> 0.18243328E+02</totfact>
</mgrwt>
</event>
<event>
 4    1  0.1760335E-005  0.5804164E+03  0.7818608E-02  0.9946890E-01
         -2   -1    0    0    0  501 -0.00000000000E+00  0.00000000000E+00  0.11900565215E+03  0.11900565218E+03  0.25500000000E-02 0.  1.
          2   -1    0    0  501    0  0.00000000000E+00 -0.00000000000E+00 -0.70770427482E+03  0.70770427483E+03  0.25500000000E-02 0. -1.
    5000001    1    1    2    0    0  0.14205800851E+03  0.14408650802E+03 -0.38073533276E+03  0.47487029091E+03  0.19900000000E+03 0.  0.
   -5000001    1    1    2    0    0 -0.14205800851E+03 -0.14408650802E+03 -0.20796328991E+03  0.35183963609E+03  0.19900000000E+03 0.  0.
<mgrwt>
<rscale>  0 0.58041643E+03</rscale>
<asrwt>0</asrwt>
<pdfrwt beam="1">  1        2 0.10110061E+00 0.58041643E+03</pdfrwt>
<pdfrwt beam="2">  1       -2 0.17000808E-01 0.58041643E+03</pdfrwt>
<totfact> 0.12579762E+03</totfact>
</mgrwt>
</event>
<event>
 4    1  0.1760335E-005  0.5615559E+03  0.7818608E-02  0.9988540E-01
         -2   -1    0    0    0  501 -0.00000000000E+00  0.00000000000E+00  0.26903486757E+02  0.26903486878E+02  0.25500000000E-02 0. -1.
          2   -1    0    0  501    0  0.00000000000E+00 -0.00000000000E+00 -0.29303362971E+04  0.29303362971E+04  0.25500000000E-02 0.  1.
    5000001    1    1    2    0    0 -0.58845783604E+02  0.17987706053E+03 -0.17595356227E+04  0.17808383393E+04  0.19900000000E+03 0.  0.
   -5000001    1    1    2    0    0  0.58845783604E+02 -0.17987706053E+03 -0.11438971876E+04  0.11764014447E+04  0.19900000000E+03 0.  0.
<mgrwt>
<rscale>  0 0.56155592E+03</rscale>
<asrwt>0</asrwt>
<pdfrwt beam="1">  1        2 0.41861927E+00 0.56155592E+03</pdfrwt>
<pdfrwt beam="2">  1       -2 0.38433571E-02 0.56155592E+03</pdfrwt>
<totfact> 0.85009847E+02</totfact>
</mgrwt>
</event>
<event>
 4    1  0.1760335E-005  0.4805482E+03  0.7818608E-02  0.1018985E+00
         -2   -1    0    0    0  501 -0.00000000000E+00  0.00000000000E+00  0.84122632524E+02  0.84122632563E+02  0.25500000000E-02 0. -1.
          2   -1    0    0  501    0  0.00000000000E+00 -0.00000000000E+00 -0.68627943468E+03  0.68627943469E+03  0.25500000000E-02 0.  1.
    5000001    1    1    2    0    0 -0.11812949430E+03 -0.52210894120E+02 -0.24002973501E+03  0.33748456050E+03  0.19900000000E+03 0.  0.
   -5000001    1    1    2    0    0  0.11812949430E+03  0.52210894120E+02 -0.36212706715E+03  0.43291750675E+03  0.19900000000E+03 0.  0.
<mgrwt>
<rscale>  0 0.48054816E+03</rscale>
<asrwt>0</asrwt>
<pdfrwt beam="1">  1        2 0.98039916E-01 0.48054816E+03</pdfrwt>
<pdfrwt beam="2">  1       -2 0.12017519E-01 0.48054816E+03</pdfrwt>
<totfact> 0.23317183E+03</totfact>
</mgrwt>
</event>
<event>
 4    1  0.1760335E-005  0.6818622E+03  0.7818608E-02  0.9748763E-01
          2   -1    0    0  501    0  0.00000000000E+00  0.00000000000E+00  0.75975106472E+03  0.75975106472E+03  0.25500000000E-02 0.  1.
         -2   -1    0    0    0  501 -0.00000000000E+00 -0.00000000000E+00 -0.15298961017E+03  0.15298961019E+03  0.25500000000E-02 0. -1.
    5000001    1    1    2    0    0 -0.23693528019E+03  0.97738808952E+02  0.16335897320E+03  0.36328825456E+03  0.19900000000E+03 0.  0.
   -5000001    1    1    2    0    0  0.23693528019E+03 -0.97738808952E+02  0.44340248134E+03  0.54945242035E+03  0.19900000000E+03 0.  0.
<mgrwt>
<rscale>  0 0.68186221E+03</rscale>
<asrwt>0</asrwt>
<pdfrwt beam="1">  1        2 0.10853587E+00 0.68186221E+03</pdfrwt>
<pdfrwt beam="2">  1       -2 0.21855659E-01 0.68186221E+03</pdfrwt>
<totfact> 0.74336512E+02</totfact>
</mgrwt>
</event>
<event>
 4    1  0.1760335E-005  0.5000289E+03  0.7818608E-02  0.1013771E+00
          2   -1    0    0  501    0  0.00000000000E+00  0.00000000000E+00  0.59174338308E+02  0.59174338363E+02  0.25500000000E-02 0.  1.
         -2   -1    0    0    0  501 -0.00000000000E+00 -0.00000000000E+00 -0.10563231091E+04  0.10563231091E+04  0.25500000000E-02 0. -1.
    5000001    1    1    2    0    0  0.44920259316E+02  0.12835527547E+03 -0.35037174758E+03  0.42526964145E+03  0.19900000000E+03 0.  0.
   -5000001    1    1    2    0    0 -0.44920259316E+02 -0.12835527547E+03 -0.64677702320E+03  0.69022780601E+03  0.19900000000E+03 0.  0.
<mgrwt>
<rscale>  0 0.50002888E+03</rscale>
<asrwt>0</asrwt>
<pdfrwt beam="1">  1        2 0.84534775E-02 0.50002888E+03</pdfrwt>
<pdfrwt beam="2">  1       -2 0.15090329E+00 0.50002888E+03</pdfrwt>
<totfact> 0.24735550E+02</totfact>
</mgrwt>
</event>
<event>
 4    1  0.1760335E-005  0.5707927E+03  0.7818608E-02  0.9967926E-01
          2   -1    0    0  501    0  0.00000000000E+00  0.00000000000E+00  0.19487665708E+03  0.19487665710E+03  0.25500000000E-02 0.  1.
         -2   -1    0    0    0  501 -0.00000000000E+00 -0.00000000000E+00 -0.41796214595E+03  0.41796214596E+03  0.25500000000E-02 0. -1.
    5000001    1    1    2    0    0 -0.18881523262E+03 -0.23170111760E+02 -0.19233199143E+03  0.33582829106E+03  0.19900000000E+03 0.  0.
   -5000001    1    1    2    0    0  0.18881523262E+03  0.23170111760E+02 -0.30753497437E+02  0.27701051199E+03  0.19900000000E+03 0.  0.
<mgrwt>
<rscale>  0 0.57079266E+03</rscale>
<asrwt>0</asrwt>
<pdfrwt beam="1">  1        2 0.27839523E-01 0.57079266E+03</pdfrwt>
<pdfrwt beam="2">  1       -2 0.59708878E-01 0.57079266E+03</pdfrwt>
<totfact> 0.51110442E+02</totfact>
</mgrwt>
</event>
<event>
 4    1  0.1760335E-005  0.4454775E+03  0.7818608E-02  0.1029079E+00
          2   -1    0    0  501    0  0.00000000000E+00  0.00000000000E+00  0.11586275717E+04  0.11586275717E+04  0.25500000000E-02 0.  1.
         -2   -1    0    0    0  501 -0.00000000000E+00 -0.00000000000E+00 -0.42820108507E+02  0.42820108583E+02  0.25500000000E-02 0. -1.
    5000001    1    1    2    0    0 -0.92938947231E+02  0.61537506880E+01  0.65648379283E+03  0.69227703039E+03  0.19900000000E+03 0.  0.
   -5000001    1    1    2    0    0  0.92938947231E+02 -0.61537506880E+01  0.45932367039E+03  0.50917064992E+03  0.19900000000E+03 0.  0.
<mgrwt>
<rscale>  0 0.44547753E+03</rscale>
<asrwt>0</asrwt>
<pdfrwt beam="1">  1        2 0.16551821E+00 0.44547753E+03</pdfrwt>
<pdfrwt beam="2">  1       -2 0.61171587E-02 0.44547753E+03</pdfrwt>
<totfact> 0.34059723E+03</totfact>
</mgrwt>
</event>
<event>
 4    1  0.1760335E-005  0.5847872E+03  0.7818608E-02  0.9937480E-01
          2   -1    0    0  501    0  0.00000000000E+00  0.00000000000E+00  0.58174698651E+03  0.58174698652E+03  0.25500000000E-02 0.  1.
         -2   -1    0    0    0  501 -0.00000000000E+00 -0.00000000000E+00 -0.14696084190E+03  0.14696084193E+03  0.25500000000E-02 0. -1.
    5000001    1    1    2    0    0  0.99005717718E+02 -0.10321097208E+03  0.41613997236E+03  0.48293696638E+03  0.19900000000E+03 0.  0.
   -5000001    1    1    2    0    0 -0.99005717718E+02  0.10321097208E+03  0.18646172244E+02  0.24577086206E+03  0.19900000000E+03 0.  0.
<mgrwt>
<rscale>  0 0.58478723E+03</rscale>
<asrwt>0</asrwt>
<pdfrwt beam="1">  1        2 0.83106715E-01 0.58478723E+03</pdfrwt>
<pdfrwt beam="2">  1       -2 0.20994405E-01 0.58478723E+03</pdfrwt>
<totfact> 0.11041410E+03</totfact>
</mgrwt>
</event>
<event>
 4    1  0.1760335E-005  0.7673389E+03  0.7818608E-02  0.9608534E-01
          2   -1    0    0  501    0  0.00000000000E+00  0.00000000000E+00  0.64582058630E+03  0.64582058631E+03  0.25500000000E-02 0. -1.
         -2   -1    0    0    0  501 -0.00000000000E+00 -0.00000000000E+00 -0.22793053511E+03  0.22793053512E+03  0.25500000000E-02 0.  1.
    5000001    1    1    2    0    0  0.14254544074E+03  0.14197999136E+03 -0.86066194184E+02  0.29578017243E+03  0.19900000000E+03 0.  0.
   -5000001    1    1    2    0    0 -0.14254544074E+03 -0.14197999136E+03  0.50395624538E+03  0.57797094899E+03  0.19900000000E+03 0.  0.
<mgrwt>
<rscale>  0 0.76733886E+03</rscale>
<asrwt>0</asrwt>
<pdfrwt beam="1">  1        2 0.92260086E-01 0.76733886E+03</pdfrwt>
<pdfrwt beam="2">  1       -2 0.32561504E-01 0.76733886E+03</pdfrwt>
<totfact> 0.43835650E+02</totfact>
</mgrwt>
</event>
<event>
 4    1  0.1760335E-005  0.4534640E+03  0.7818608E-02  0.1026694E+00
          2   -1    0    0  501    0  0.00000000000E+00  0.00000000000E+00  0.15504585286E+04  0.15504585286E+04  0.25500000000E-02 0.  1.
         -2   -1    0    0    0  501 -0.00000000000E+00 -0.00000000000E+00 -0.33156249453E+02  0.33156249551E+02  0.25500000000E-02 0. -1.
    5000001    1    1    2    0    0  0.85772821820E+02  0.60619123766E+02  0.85585494680E+03  0.88494087096E+03  0.19900000000E+03 0.  0.
   -5000001    1    1    2    0    0 -0.85772821820E+02 -0.60619123766E+02  0.66144733238E+03  0.69867390723E+03  0.19900000000E+03 0.  0.
<mgrwt>
<rscale>  0 0.45346396E+03</rscale>
<asrwt>0</asrwt>
<pdfrwt beam="1">  1        2 0.22149408E+00 0.45346396E+03</pdfrwt>
<pdfrwt beam="2">  1       -2 0.47366069E-02 0.45346396E+03</pdfrwt>
<totfact> 0.31281835E+03</totfact>
</mgrwt>
</event>
<event>
 4    1  0.1760335E-005  0.5317547E+03  0.7818608E-02  0.1005807E+00
          2   -1    0    0  501    0  0.00000000000E+00  0.00000000000E+00  0.44751587228E+03  0.44751587228E+03  0.25500000000E-02 0.  1.
         -2   -1    0    0    0  501 -0.00000000000E+00 -0.00000000000E+00 -0.15796261686E+03  0.15796261688E+03  0.25500000000E-02 0. -1.
    5000001    1    1    2    0    0 -0.52035878744E+02 -0.15184982916E+03  0.22785598117E+03  0.34246963581E+03  0.19900000000E+03 0.  0.
   -5000001    1    1    2    0    0  0.52035878744E+02  0.15184982916E+03  0.61697274248E+02  0.26300885336E+03  0.19900000000E+03 0.  0.
<mgrwt>
<rscale>  0 0.53175475E+03</rscale>
<asrwt>0</asrwt>
<pdfrwt beam="1">  1        2 0.63930840E-01 0.53175475E+03</pdfrwt>
<pdfrwt beam="2">  1       -2 0.22566088E-01 0.53175475E+03</pdfrwt>
<totfact> 0.13119202E+03</totfact>
</mgrwt>
</event>
<event>
 4    1  0.1760335E-005  0.4324390E+03  0.7818608E-02  0.1033092E+00
         -2   -1    0    0    0  501 -0.00000000000E+00  0.00000000000E+00  0.43633443614E+03  0.43633443615E+03  0.25500000000E-02 0. -1.
          2   -1    0    0  501    0  0.00000000000E+00 -0.00000000000E+00 -0.10714459833E+03  0.10714459836E+03  0.25500000000E-02 0.  1.
    5000001    1    1    2    0    0 -0.83348390788E+02 -0.13303774299E+02  0.17099501353E+03  0.27561610858E+03  0.19900000000E+03 0.  0.
   -5000001    1    1    2    0    0  0.83348390788E+02  0.13303774299E+02  0.15819482428E+03  0.26786292593E+03  0.19900000000E+03 0.  0.
<mgrwt>
<rscale>  0 0.43243903E+03</rscale>
<asrwt>0</asrwt>
<pdfrwt beam="1">  1        2 0.15306371E-01 0.43243903E+03</pdfrwt>
<pdfrwt beam="2">  1       -2 0.62333492E-01 0.43243903E+03</pdfrwt>
<totfact> 0.93622530E+02</totfact>
</mgrwt>
</event>
<event>
 4    1  0.1760335E-005  0.5926538E+03  0.7818608E-02  0.9920765E-01
          2   -1    0    0  501    0  0.00000000000E+00  0.00000000000E+00  0.14875888348E+04  0.14875888348E+04  0.25500000000E-02 0.  1.
         -2   -1    0    0    0  501 -0.00000000000E+00 -0.00000000000E+00 -0.59028161038E+02  0.59028161093E+02  0.25500000000E-02 0. -1.
    5000001    1    1    2    0    0 -0.97461376405E+02 -0.18480241308E+03  0.53809572126E+03  0.61057240112E+03  0.19900000000E+03 0.  0.
   -5000001    1    1    2    0    0  0.97461376405E+02  0.18480241308E+03  0.89046495253E+03  0.93604459480E+03  0.19900000000E+03 0.  0.
<mgrwt>
<rscale>  0 0.59265381E+03</rscale>
<asrwt>0</asrwt>
<pdfrwt beam="1">  1        2 0.21251268E+00 0.59265381E+03</pdfrwt>
<pdfrwt beam="2">  1       -2 0.84325948E-02 0.59265381E+03</pdfrwt>
<totfact> 0.13613138E+03</totfact>
</mgrwt>
</event>
<event>
 4    1  0.1760335E-005  0.5484970E+03  0.7818608E-02  0.1001842E+00
         -2   -1    0    0    0  501 -0.00000000000E+00  0.00000000000E+00  0.44016239495E+02  0.44016239569E+02  0.25500000000E-02 0. -1.
          2   -1    0    0  501    0  0.00000000000E+00 -0.00000000000E+00 -0.17087382849E+04  0.17087382849E+04  0.25500000000E-02 0.  1.
    5000001    1    1    2    0    0  0.11186639270E+03  0.13409524801E+03 -0.60380351094E+03  0.65929910145E+03  0.19900000000E+03 0.  0.
   -5000001    1    1    2    0    0 -0.11186639270E+03 -0.13409524801E+03 -0.10609185345E+04  0.10934554231E+04  0.19900000000E+03 0.  0.
<mgrwt>
<rscale>  0 0.54849698E+03</rscale>
<asrwt>0</asrwt>
<pdfrwt beam="1">  1        2 0.24410543E+00 0.54849698E+03</pdfrwt>
<pdfrwt beam="2">  1       -2 0.62880353E-02 0.54849698E+03</pdfrwt>
<totfact> 0.16702777E+03</totfact>
</mgrwt>
</event>
<event>
 4    1  0.1760335E-005  0.6340579E+03  0.7818608E-02  0.9837162E-01
         -2   -1    0    0    0  501 -0.00000000000E+00  0.00000000000E+00  0.55051238910E+02  0.55051238969E+02  0.25500000000E-02 0. -1.
          2   -1    0    0  501    0  0.00000000000E+00 -0.00000000000E+00 -0.18257055091E+04  0.18257055091E+04  0.25500000000E-02 0.  1.
    5000001    1    1    2    0    0 -0.17255495890E+03  0.75926286347E+02 -0.41290244507E+03  0.49561017337E+03  0.19900000000E+03 0.  0.
   -5000001    1    1    2    0    0  0.17255495890E+03 -0.75926286347E+02 -0.13577518251E+04  0.13851465747E+04  0.19900000000E+03 0.  0.
<mgrwt>
<rscale>  0 0.63405788E+03</rscale>
<asrwt>0</asrwt>
<pdfrwt beam="1">  1        2 0.26081503E+00 0.63405788E+03</pdfrwt>
<pdfrwt beam="2">  1       -2 0.78644639E-02 0.63405788E+03</pdfrwt>
<totfact> 0.10196271E+03</totfact>
</mgrwt>
</event>
<event>
 4    1  0.1760335E-005  0.4387516E+03  0.7818608E-02  0.1031131E+00
         -2   -1    0    0    0  501 -0.00000000000E+00  0.00000000000E+00  0.74193942083E+02  0.74193942127E+02  0.25500000000E-02 0. -1.
          2   -1    0    0  501    0  0.00000000000E+00 -0.00000000000E+00 -0.64864795436E+03  0.64864795437E+03  0.25500000000E-02 0.  1.
    5000001    1    1    2    0    0  0.74257523699E+02 -0.54394832217E+02 -0.29908110636E+03  0.37084159122E+03  0.19900000000E+03 0.  0.
   -5000001    1    1    2    0    0 -0.74257523699E+02  0.54394832217E+02 -0.27537290592E+03  0.35200030527E+03  0.19900000000E+03 0.  0.
<mgrwt>
<rscale>  0 0.43875163E+03</rscale>
<asrwt>0</asrwt>
<pdfrwt beam="1">  1        2 0.92663990E-01 0.43875163E+03</pdfrwt>
<pdfrwt beam="2">  1       -2 0.10599135E-01 0.43875163E+03</pdfrwt>
<totfact> 0.30576195E+03</totfact>
</mgrwt>
</event>
<event>
 4    1  0.1760335E-005  0.5581124E+03  0.7818608E-02  0.9996335E-01
          2   -1    0    0  501    0  0.00000000000E+00  0.00000000000E+00  0.15735663442E+03  0.15735663444E+03  0.25500000000E-02 0.  1.
         -2   -1    0    0    0  501 -0.00000000000E+00 -0.00000000000E+00 -0.49487808902E+03  0.49487808903E+03  0.25500000000E-02 0. -1.
    5000001    1    1    2    0    0 -0.65657446267E+02 -0.10470462731E+03 -0.34598433202E+03  0.41782785598E+03  0.19900000000E+03 0.  0.
   -5000001    1    1    2    0    0  0.65657446267E+02  0.10470462731E+03  0.84628774180E+01  0.23440686748E+03  0.19900000000E+03 0.  0.
<mgrwt>
<rscale>  0 0.55811236E+03</rscale>
<asrwt>0</asrwt>
<pdfrwt beam="1">  1        2 0.22479519E-01 0.55811236E+03</pdfrwt>
<pdfrwt beam="2">  1       -2 0.70696869E-01 0.55811236E+03</pdfrwt>
<totfact> 0.45488951E+02</totfact>
</mgrwt>
</event>
<event>
 4    1  0.1760335E-005  0.1413690E+04  0.7818608E-02  0.8943968E-01
          2   -1    0    0  501    0  0.00000000000E+00  0.00000000000E+00  0.33063614540E+04  0.33063614540E+04  0.25500000000E-02 0.  1.
         -2   -1    0    0    0  501 -0.00000000000E+00 -0.00000000000E+00 -0.15111167594E+03  0.15111167596E+03  0.25500000000E-02 0. -1.
    5000001    1    1    2    0    0 -0.52168500637E+03  0.21709136679E+02  0.26363716308E+04  0.26949365314E+04  0.19900000000E+03 0.  0.
   -5000001    1    1    2    0    0  0.52168500637E+03 -0.21709136679E+02  0.51887814729E+03  0.76253659861E+03  0.19900000000E+03 0.  0.
<mgrwt>
<rscale>  0 0.14136900E+04</rscale>
<asrwt>0</asrwt>
<pdfrwt beam="1">  1        2 0.47233736E+00 0.14136900E+04</pdfrwt>
<pdfrwt beam="2">  1       -2 0.21587382E-01 0.14136900E+04</pdfrwt>
<totfact> 0.28861515E+01</totfact>
</mgrwt>
</event>
<event>
 4    1  0.1760335E-005  0.8651641E+03  0.7818608E-02  0.9470207E-01
          2   -1    0    0  501    0  0.00000000000E+00  0.00000000000E+00  0.29200636583E+04  0.29200636583E+04  0.25500000000E-02 0.  1.
         -2   -1    0    0    0  501 -0.00000000000E+00 -0.00000000000E+00 -0.64083275319E+02  0.64083275370E+02  0.25500000000E-02 0. -1.
    5000001    1    1    2    0    0 -0.29708576742E+03 -0.14389481484E+03  0.21053094652E+04  0.21403024589E+04  0.19900000000E+03 0.  0.
   -5000001    1    1    2    0    0  0.29708576742E+03  0.14389481484E+03  0.75067091776E+03  0.84384447484E+03  0.19900000000E+03 0.  0.
<mgrwt>
<rscale>  0 0.86516413E+03</rscale>
<asrwt>0</asrwt>
<pdfrwt beam="1">  1        2 0.41715191E+00 0.86516413E+03</pdfrwt>
<pdfrwt beam="2">  1       -2 0.91547546E-02 0.86516413E+03</pdfrwt>
<totfact> 0.21393380E+02</totfact>
</mgrwt>
</event>
<event>
 4    1  0.1760335E-005  0.5927071E+03  0.7818608E-02  0.9920653E-01
         -2   -1    0    0    0  501 -0.00000000000E+00  0.00000000000E+00  0.13294827691E+03  0.13294827693E+03  0.25500000000E-02 0.  1.
          2   -1    0    0  501    0  0.00000000000E+00 -0.00000000000E+00 -0.66059853853E+03  0.66059853854E+03  0.25500000000E-02 0. -1.
    5000001    1    1    2    0    0  0.17299937094E+03 -0.86325026819E+02 -0.12440674859E+03  0.30407043871E+03  0.19900000000E+03 0.  0.
   -5000001    1    1    2    0    0 -0.17299937094E+03  0.86325026819E+02 -0.40324351304E+03  0.48947637676E+03  0.19900000000E+03 0.  0.
<mgrwt>
<rscale>  0 0.59270714E+03</rscale>
<asrwt>0</asrwt>
<pdfrwt beam="1">  1        2 0.94371218E-01 0.59270714E+03</pdfrwt>
<pdfrwt beam="2">  1       -2 0.18992611E-01 0.59270714E+03</pdfrwt>
<totfact> 0.11306508E+03</totfact>
</mgrwt>
</event>
<event>
 4    1  0.1760335E-005  0.1094008E+04  0.7818608E-02  0.9211052E-01
         -2   -1    0    0    0  501 -0.00000000000E+00  0.00000000000E+00  0.16494230615E+03  0.16494230617E+03  0.25500000000E-02 0. -1.
          2   -1    0    0  501    0  0.00000000000E+00 -0.00000000000E+00 -0.18140481059E+04  0.18140481059E+04  0.25500000000E-02 0.  1.
    5000001    1    1    2    0    0  0.98493608015E+02  0.43728306785E+03 -0.38630171548E+03  0.62429759541E+03  0.19900000000E+03 0.  0.
   -5000001    1    1    2    0    0 -0.98493608015E+02 -0.43728306785E+03 -0.12628040842E+04  0.13546928166E+04  0.19900000000E+03 0.  0.
<mgrwt>
<rscale>  0 0.10940078E+04</rscale>
<asrwt>0</asrwt>
<pdfrwt beam="1">  1        2 0.25914972E+00 0.10940078E+04</pdfrwt>
<pdfrwt beam="2">  1       -2 0.23563188E-01 0.10940078E+04</pdfrwt>
<totfact> 0.15861920E+02</totfact>
</mgrwt>
</event>
<event>
 4    1  0.1760335E-005  0.5511284E+03  0.7818608E-02  0.1001233E+00
         -2   -1    0    0    0  501 -0.00000000000E+00  0.00000000000E+00  0.49093660001E+03  0.49093660002E+03  0.25500000000E-02 0. -1.
          2   -1    0    0  501    0  0.00000000000E+00 -0.00000000000E+00 -0.15467501735E+03  0.15467501737E+03  0.25500000000E-02 0.  1.
    5000001    1    1    2    0    0 -0.35869660211E+02 -0.17615689070E+03  0.93887767662E+02  0.28413693104E+03  0.19900000000E+03 0.  0.
   -5000001    1    1    2    0    0  0.35869660211E+02  0.17615689070E+03  0.24237381500E+03  0.36147468634E+03  0.19900000000E+03 0.  0.
<mgrwt>
<rscale>  0 0.55112840E+03</rscale>
<asrwt>0</asrwt>
<pdfrwt beam="1">  1        2 0.22096431E-01 0.55112840E+03</pdfrwt>
<pdfrwt beam="2">  1       -2 0.70133800E-01 0.55112840E+03</pdfrwt>
<totfact> 0.47218926E+02</totfact>
</mgrwt>
</event>
<event>
 4    1  0.1760335E-005  0.5054660E+03  0.7818608E-02  0.1012362E+00
          2   -1    0    0  501    0  0.00000000000E+00  0.00000000000E+00  0.99817535665E+03  0.99817535666E+03  0.25500000000E-02 0.  1.
         -2   -1    0    0    0  501 -0.00000000000E+00 -0.00000000000E+00 -0.63990733183E+02  0.63990733234E+02  0.25500000000E-02 0. -1.
    5000001    1    1    2    0    0 -0.15245524800E+03  0.19596564286E+02  0.41366877216E+03  0.48409656168E+03  0.19900000000E+03 0.  0.
   -5000001    1    1    2    0    0  0.15245524800E+03 -0.19596564286E+02  0.52051585131E+03  0.57806952821E+03  0.19900000000E+03 0.  0.
<mgrwt>
<rscale>  0 0.50546601E+03</rscale>
<asrwt>0</asrwt>
<pdfrwt beam="1">  1        2 0.14259647E+00 0.50546601E+03</pdfrwt>
<pdfrwt beam="2">  1       -2 0.91415337E-02 0.50546601E+03</pdfrwt>
<totfact> 0.22405379E+03</totfact>
</mgrwt>
</event>
<event>
 4    1  0.1760335E-005  0.5937827E+03  0.7818608E-02  0.9918390E-01
          2   -1    0    0  501    0  0.00000000000E+00  0.00000000000E+00  0.33407617506E+04  0.33407617506E+04  0.25500000000E-02 0. -1.
         -2   -1    0    0    0  501 -0.00000000000E+00 -0.00000000000E+00 -0.26384541693E+02  0.26384541816E+02  0.25500000000E-02 0.  1.
    5000001    1    1    2    0    0  0.46116949105E+02 -0.16358026819E+03  0.24522601891E+04  0.24661845657E+04  0.19900000000E+03 0.  0.
   -5000001    1    1    2    0    0 -0.46116949105E+02  0.16358026819E+03  0.86211701980E+03  0.90096172669E+03  0.19900000000E+03 0.  0.
<mgrwt>
<rscale>  0 0.59378268E+03</rscale>
<asrwt>0</asrwt>
<pdfrwt beam="1">  1        2 0.47725163E+00 0.59378268E+03</pdfrwt>
<pdfrwt beam="2">  1       -2 0.37692206E-02 0.59378268E+03</pdfrwt>
<totfact> 0.51641438E+02</totfact>
</mgrwt>
</event>
<event>
 4    1  0.1760335E-005  0.7727722E+03  0.7818608E-02  0.9600287E-01
          2   -1    0    0  501    0  0.00000000000E+00  0.00000000000E+00  0.11480580022E+04  0.11480580022E+04  0.25500000000E-02 0.  1.
         -2   -1    0    0    0  501 -0.00000000000E+00 -0.00000000000E+00 -0.13004065368E+03  0.13004065371E+03  0.25500000000E-02 0. -1.
    5000001    1    1    2    0    0  0.29310709857E+03  0.29007729438E+02  0.25850763001E+03  0.43952293953E+03  0.19900000000E+03 0.  0.
   -5000001    1    1    2    0    0 -0.29310709857E+03 -0.29007729438E+02  0.75950971853E+03  0.83857571640E+03  0.19900000000E+03 0.  0.
<mgrwt>
<rscale>  0 0.77277219E+03</rscale>
<asrwt>0</asrwt>
<pdfrwt beam="1">  1        2 0.16400829E+00 0.77277219E+03</pdfrwt>
<pdfrwt beam="2">  1       -2 0.18577236E-01 0.77277219E+03</pdfrwt>
<totfact> 0.55808285E+02</totfact>
</mgrwt>
</event>
<event>
 4    1  0.1760335E-005  0.5191527E+03  0.7818608E-02  0.1008897E+00
          2   -1    0    0  501    0  0.00000000000E+00  0.00000000000E+00  0.14348140096E+03  0.14348140099E+03  0.25500000000E-02 0.  1.
         -2   -1    0    0    0  501 -0.00000000000E+00 -0.00000000000E+00 -0.46960716008E+03  0.46960716009E+03  0.25500000000E-02 0. -1.
    5000001    1    1    2    0    0 -0.11199493172E+03 -0.64455887243E+02 -0.38746976500E+02  0.24041579465E+03  0.19900000000E+03 0.  0.
   -5000001    1    1    2    0    0  0.11199493172E+03  0.64455887243E+02 -0.28737878262E+03  0.37267276642E+03  0.19900000000E+03 0.  0.
<mgrwt>
<rscale>  0 0.51915275E+03</rscale>
<asrwt>0</asrwt>
<pdfrwt beam="1">  1        2 0.20497343E-01 0.51915275E+03</pdfrwt>
<pdfrwt beam="2">  1       -2 0.67086736E-01 0.51915275E+03</pdfrwt>
<totfact> 0.56723008E+02</totfact>
</mgrwt>
</event>
<event>
 4    1  0.1760335E-005  0.5114772E+03  0.7818608E-02  0.1010826E+00
         -2   -1    0    0    0  501 -0.00000000000E+00  0.00000000000E+00  0.38991170529E+02  0.38991170613E+02  0.25500000000E-02 0. -1.
          2   -1    0    0  501    0  0.00000000000E+00 -0.00000000000E+00 -0.16773602610E+04  0.16773602610E+04  0.25500000000E-02 0.  1.
    5000001    1    1    2    0    0  0.11144818574E+03 -0.11428286667E+03 -0.87920971637E+03  0.91547364631E+03  0.19900000000E+03 0.  0.
   -5000001    1    1    2    0    0 -0.11144818574E+03  0.11428286667E+03 -0.75915937410E+03  0.80087778531E+03  0.19900000000E+03 0.  0.
<mgrwt>
<rscale>  0 0.51147723E+03</rscale>
<asrwt>0</asrwt>
<pdfrwt beam="1">  1        2 0.23962285E+00 0.51147723E+03</pdfrwt>
<pdfrwt beam="2">  1       -2 0.55701683E-02 0.51147723E+03</pdfrwt>
<totfact> 0.20959036E+03</totfact>
</mgrwt>
</event>
<event>
 4    1  0.1760335E-005  0.1078571E+04  0.7818608E-02  0.9226333E-01
         -2   -1    0    0    0  501 -0.00000000000E+00  0.00000000000E+00  0.15063480088E+03  0.15063480090E+03  0.25500000000E-02 0. -1.
          2   -1    0    0  501    0  0.00000000000E+00 -0.00000000000E+00 -0.19306896697E+04  0.19306896697E+04  0.25500000000E-02 0.  1.
    5000001    1    1    2    0    0  0.18523630779E+03  0.45559343916E+03 -0.10766228383E+04  0.12002481441E+04  0.19900000000E+03 0.  0.
   -5000001    1    1    2    0    0 -0.18523630779E+03 -0.45559343916E+03 -0.70343203054E+03  0.88107632650E+03  0.19900000000E+03 0.  0.
<mgrwt>
<rscale>  0 0.10785714E+04</rscale>
<asrwt>0</asrwt>
<pdfrwt beam="1">  1        2 0.27581280E+00 0.10785714E+04</pdfrwt>
<pdfrwt beam="2">  1       -2 0.21519258E-01 0.10785714E+04</pdfrwt>
<totfact> 0.16268042E+02</totfact>
</mgrwt>
</event>
<event>
 4    1  0.1760335E-005  0.5246586E+03  0.7818608E-02  0.1007536E+00
         -2   -1    0    0    0  501 -0.00000000000E+00  0.00000000000E+00  0.11461815121E+03  0.11461815124E+03  0.25500000000E-02 0. -1.
          2   -1    0    0  501    0  0.00000000000E+00 -0.00000000000E+00 -0.60039931134E+03  0.60039931135E+03  0.25500000000E-02 0.  1.
    5000001    1    1    2    0    0  0.13169956495E+03  0.21768829646E+02 -0.38838125795E+03  0.45635475113E+03  0.19900000000E+03 0.  0.
   -5000001    1    1    2    0    0 -0.13169956495E+03 -0.21768829646E+02 -0.97399902175E+02  0.25866271145E+03  0.19900000000E+03 0.  0.
<mgrwt>
<rscale>  0 0.52465859E+03</rscale>
<asrwt>0</asrwt>
<pdfrwt beam="1">  1        2 0.85771328E-01 0.52465859E+03</pdfrwt>
<pdfrwt beam="2">  1       -2 0.16374022E-01 0.52465859E+03</pdfrwt>
<totfact> 0.16331989E+03</totfact>
</mgrwt>
</event>
<event>
 4    1  0.1760335E-005  0.7062911E+03  0.7818608E-02  0.9706534E-01
         -2   -1    0    0    0  501 -0.00000000000E+00  0.00000000000E+00  0.39425604092E+03  0.39425604093E+03  0.25500000000E-02 0. -1.
          2   -1    0    0  501    0  0.00000000000E+00 -0.00000000000E+00 -0.31632179307E+03  0.31632179308E+03  0.25500000000E-02 0.  1.
    5000001    1    1    2    0    0 -0.16613890100E+03  0.23954277803E+03  0.27589157042E+02  0.35404101248E+03  0.19900000000E+03 0.  0.
   -5000001    1    1    2    0    0  0.16613890100E+03 -0.23954277803E+03  0.50345090810E+02  0.35653682152E+03  0.19900000000E+03 0.  0.
<mgrwt>
<rscale>  0 0.70629110E+03</rscale>
<asrwt>0</asrwt>
<pdfrwt beam="1">  1        2 0.45188828E-01 0.70629110E+03</pdfrwt>
<pdfrwt beam="2">  1       -2 0.56322291E-01 0.70629110E+03</pdfrwt>
<totfact> 0.33547286E+02</totfact>
</mgrwt>
</event>
<event>
 4    1  0.1760335E-005  0.7155184E+03  0.7818608E-02  0.9691056E-01
          2   -1    0    0  501    0  0.00000000000E+00  0.00000000000E+00  0.14267684563E+04  0.14267684563E+04  0.25500000000E-02 0.  1.
         -2   -1    0    0    0  501 -0.00000000000E+00 -0.00000000000E+00 -0.89707370980E+02  0.89707371016E+02  0.25500000000E-02 0. -1.
    5000001    1    1    2    0    0 -0.15759452674E+03 -0.23190446774E+03  0.45898833503E+03  0.57348671189E+03  0.19900000000E+03 0.  0.
   -5000001    1    1    2    0    0  0.15759452674E+03  0.23190446774E+03  0.87807275024E+03  0.94298911538E+03  0.19900000000E+03 0.  0.
<mgrwt>
<rscale>  0 0.71551841E+03</rscale>
<asrwt>0</asrwt>
<pdfrwt beam="1">  1        2 0.20382405E+00 0.71551841E+03</pdfrwt>
<pdfrwt beam="2">  1       -2 0.12815340E-01 0.71551841E+03</pdfrwt>
<totfact> 0.73737414E+02</totfact>
</mgrwt>
</event>
<event>
 4    1  0.1760335E-005  0.9393658E+03  0.7818608E-02  0.9377667E-01
          2   -1    0    0  501    0  0.00000000000E+00  0.00000000000E+00  0.27726069590E+04  0.27726069590E+04  0.25500000000E-02 0.  1.
         -2   -1    0    0    0  501 -0.00000000000E+00 -0.00000000000E+00 -0.79564831996E+02  0.79564832037E+02  0.25500000000E-02 0. -1.
    5000001    1    1    2    0    0 -0.10285588870E+03 -0.39707834672E+03  0.16893708441E+04  0.17498072454E+04  0.19900000000E+03 0.  0.
   -5000001    1    1    2    0    0  0.10285588870E+03  0.39707834672E+03  0.10036712829E+04  0.11023645456E+04  0.19900000000E+03 0.  0.
<mgrwt>
<rscale>  0 0.93936576E+03</rscale>
<asrwt>0</asrwt>
<pdfrwt beam="1">  1        2 0.39608669E+00 0.93936576E+03</pdfrwt>
<pdfrwt beam="2">  1       -2 0.11366405E-01 0.93936576E+03</pdfrwt>
<totfact> 0.17914412E+02</totfact>
</mgrwt>
</event>
<event>
 4    1  0.1760335E-005  0.7419898E+03  0.7818608E-02  0.9648002E-01
         -2   -1    0    0    0  501 -0.00000000000E+00  0.00000000000E+00  0.21831034533E+03  0.21831034534E+03  0.25500000000E-02 0. -1.
          2   -1    0    0  501    0  0.00000000000E+00 -0.00000000000E+00 -0.63046582086E+03  0.63046582087E+03  0.25500000000E-02 0.  1.
    5000001    1    1    2    0    0  0.19514478827E+03 -0.24475155905E+03 -0.19787678550E+03  0.42040579953E+03  0.19900000000E+03 0.  0.
   -5000001    1    1    2    0    0 -0.19514478827E+03  0.24475155905E+03 -0.21427869004E+03  0.42837036668E+03  0.19900000000E+03 0.  0.
<mgrwt>
<rscale>  0 0.74198979E+03</rscale>
<asrwt>0</asrwt>
<pdfrwt beam="1">  1        2 0.90066545E-01 0.74198979E+03</pdfrwt>
<pdfrwt beam="2">  1       -2 0.31187193E-01 0.74198979E+03</pdfrwt>
<totfact> 0.48956757E+02</totfact>
</mgrwt>
</event>
<event>
 4    1  0.1760335E-005  0.5690424E+03  0.7818608E-02  0.9971800E-01
         -2   -1    0    0    0  501 -0.00000000000E+00  0.00000000000E+00  0.96368058681E+02  0.96368058715E+02  0.25500000000E-02 0. -1.
          2   -1    0    0  501    0  0.00000000000E+00 -0.00000000000E+00 -0.84003250558E+03  0.84003250558E+03  0.25500000000E-02 0.  1.
    5000001    1    1    2    0    0  0.19232120601E+03  0.63811348378E+02 -0.34371423739E+03  0.44586972475E+03  0.19900000000E+03 0.  0.
   -5000001    1    1    2    0    0 -0.19232120601E+03 -0.63811348378E+02 -0.39995020951E+03  0.49053083955E+03  0.19900000000E+03 0.  0.
<mgrwt>
<rscale>  0 0.56904236E+03</rscale>
<asrwt>0</asrwt>
<pdfrwt beam="1">  1        2 0.12000464E+00 0.56904236E+03</pdfrwt>
<pdfrwt beam="2">  1       -2 0.13766866E-01 0.56904236E+03</pdfrwt>
<totfact> 0.14466320E+03</totfact>
</mgrwt>
</event>
<event>
 4    1  0.1760335E-005  0.7740852E+03  0.7818608E-02  0.9598304E-01
          2   -1    0    0  501    0  0.00000000000E+00  0.00000000000E+00  0.35510616052E+03  0.35510616053E+03  0.25500000000E-02 0.  1.
         -2   -1    0    0    0  501 -0.00000000000E+00 -0.00000000000E+00 -0.42185126214E+03  0.42185126215E+03  0.25500000000E-02 0. -1.
    5000001    1    1    2    0    0  0.11863013106E+02  0.18495045896E+03 -0.30980974876E+03  0.41222625314E+03  0.19900000000E+03 0.  0.
   -5000001    1    1    2    0    0 -0.11863013106E+02 -0.18495045896E+03  0.24306464714E+03  0.36473116954E+03  0.19900000000E+03 0.  0.
<mgrwt>
<rscale>  0 0.77408522E+03</rscale>
<asrwt>0</asrwt>
<pdfrwt beam="1">  1        2 0.50729452E-01 0.77408522E+03</pdfrwt>
<pdfrwt beam="2">  1       -2 0.60264466E-01 0.77408522E+03</pdfrwt>
<totfact> 0.25550055E+02</totfact>
</mgrwt>
</event>
<event>
 4    1  0.1760335E-005  0.9127281E+03  0.7818608E-02  0.9409809E-01
          2   -1    0    0  501    0  0.00000000000E+00  0.00000000000E+00  0.71171496683E+03  0.71171496684E+03  0.25500000000E-02 0.  1.
         -2   -1    0    0    0  501 -0.00000000000E+00 -0.00000000000E+00 -0.29262860614E+03  0.29262860615E+03  0.25500000000E-02 0. -1.
    5000001    1    1    2    0    0  0.11740572726E+03 -0.39312375149E+03  0.18934986956E+03  0.49374564493E+03  0.19900000000E+03 0.  0.
   -5000001    1    1    2    0    0 -0.11740572726E+03  0.39312375149E+03  0.22973649113E+03  0.51059792806E+03  0.19900000000E+03 0.  0.
<mgrwt>
<rscale>  0 0.91272813E+03</rscale>
<asrwt>0</asrwt>
<pdfrwt beam="1">  1        2 0.10167356E+00 0.91272813E+03</pdfrwt>
<pdfrwt beam="2">  1       -2 0.41804087E-01 0.91272813E+03</pdfrwt>
<totfact> 0.23934444E+02</totfact>
</mgrwt>
</event>
<event>
 4    1  0.1760335E-005  0.4544756E+03  0.7818608E-02  0.1026396E+00
          2   -1    0    0  501    0  0.00000000000E+00  0.00000000000E+00  0.71856191475E+03  0.71856191476E+03  0.25500000000E-02 0.  1.
         -2   -1    0    0    0  501 -0.00000000000E+00 -0.00000000000E+00 -0.71861615573E+02  0.71861615618E+02  0.25500000000E-02 0. -1.
    5000001    1    1    2    0    0  0.63387498870E+02 -0.89495207803E+02  0.31823416332E+03  0.39102602207E+03  0.19900000000E+03 0.  0.
   -5000001    1    1    2    0    0 -0.63387498870E+02  0.89495207803E+02  0.32846613586E+03  0.39939750830E+03  0.19900000000E+03 0.  0.
<mgrwt>
<rscale>  0 0.45447561E+03</rscale>
<asrwt>0</asrwt>
<pdfrwt beam="1">  1        2 0.10265170E+00 0.45447561E+03</pdfrwt>
<pdfrwt beam="2">  1       -2 0.10265945E-01 0.45447561E+03</pdfrwt>
<totfact> 0.28476574E+03</totfact>
</mgrwt>
</event>
<event>
 4    1  0.1760335E-005  0.6523893E+03  0.7818608E-02  0.9802306E-01
         -2   -1    0    0    0  501 -0.00000000000E+00  0.00000000000E+00  0.16538378117E+03  0.16538378119E+03  0.25500000000E-02 0.  1.
          2   -1    0    0  501    0  0.00000000000E+00 -0.00000000000E+00 -0.64336995055E+03  0.64336995055E+03  0.25500000000E-02 0. -1.
    5000001    1    1    2    0    0 -0.18335545099E+03  0.12020782571E+03 -0.69320784100E+02  0.30409786891E+03  0.19900000000E+03 0.  0.
   -5000001    1    1    2    0    0  0.18335545099E+03 -0.12020782571E+03 -0.40866538528E+03  0.50465586283E+03  0.19900000000E+03 0.  0.
<mgrwt>
<rscale>  0 0.65238932E+03</rscale>
<asrwt>0</asrwt>
<pdfrwt beam="1">  1        2 0.91909992E-01 0.65238932E+03</pdfrwt>
<pdfrwt beam="2">  1       -2 0.23626255E-01 0.65238932E+03</pdfrwt>
<totfact> 0.79460711E+02</totfact>
</mgrwt>
</event>
<event>
 4    1  0.1760335E-005  0.9061249E+03  0.7818608E-02  0.9417957E-01
          2   -1    0    0  501    0  0.00000000000E+00  0.00000000000E+00  0.52078179734E+03  0.52078179734E+03  0.25500000000E-02 0.  1.
         -2   -1    0    0    0  501 -0.00000000000E+00 -0.00000000000E+00 -0.39414893780E+03  0.39414893780E+03  0.25500000000E-02 0. -1.
    5000001    1    1    2    0    0 -0.19087406371E+03  0.35809871903E+03  0.95198452496E+02  0.46187806413E+03  0.19900000000E+03 0.  0.
   -5000001    1    1    2    0    0  0.19087406371E+03 -0.35809871903E+03  0.31434407045E+02  0.45305267102E+03  0.19900000000E+03 0.  0.
<mgrwt>
<rscale>  0 0.90612492E+03</rscale>
<asrwt>0</asrwt>
<pdfrwt beam="1">  1        2 0.74397399E-01 0.90612492E+03</pdfrwt>
<pdfrwt beam="2">  1       -2 0.56306991E-01 0.90612492E+03</pdfrwt>
<totfact> 0.19022659E+02</totfact>
</mgrwt>
</event>
<event>
 4    1  0.1760335E-005  0.6077335E+03  0.7818608E-02  0.9889490E-01
         -2   -1    0    0    0  501 -0.00000000000E+00  0.00000000000E+00  0.97616138154E+02  0.97616138187E+02  0.25500000000E-02 0. -1.
          2   -1    0    0  501    0  0.00000000000E+00 -0.00000000000E+00 -0.94589901512E+03  0.94589901513E+03  0.25500000000E-02 0.  1.
    5000001    1    1    2    0    0 -0.42345259410E+02  0.96854534438E+02 -0.77418636800E+03  0.80631225603E+03  0.19900000000E+03 0.  0.
   -5000001    1    1    2    0    0  0.42345259410E+02 -0.96854534438E+02 -0.74096508970E+02  0.23720289728E+03  0.19900000000E+03 0.  0.
<mgrwt>
<rscale>  0 0.60773352E+03</rscale>
<asrwt>0</asrwt>
<pdfrwt beam="1">  1        2 0.13512843E+00 0.60773352E+03</pdfrwt>
<pdfrwt beam="2">  1       -2 0.13945163E-01 0.60773352E+03</pdfrwt>
<totfact> 0.12080763E+03</totfact>
</mgrwt>
</event>
<event>
 4    1  0.1760335E-005  0.1674951E+04  0.7818608E-02  0.8775781E-01
         -2   -1    0    0    0  501 -0.00000000000E+00  0.00000000000E+00  0.16118731691E+04  0.16118731691E+04  0.25500000000E-02 0. -1.
          2   -1    0    0  501    0  0.00000000000E+00 -0.00000000000E+00 -0.43512423228E+03  0.43512423229E+03  0.25500000000E-02 0.  1.
    5000001    1    1    2    0    0 -0.63073232186E+03 -0.30408168348E+03  0.10944505531E+04  0.13144245681E+04  0.19900000000E+03 0.  0.
   -5000001    1    1    2    0    0  0.63073232186E+03  0.30408168348E+03  0.82298383697E+02  0.73257283326E+03  0.19900000000E+03 0.  0.
<mgrwt>
<rscale>  0 0.16749508E+04</rscale>
<asrwt>0</asrwt>
<pdfrwt beam="1">  1        2 0.62160605E-01 0.16749508E+04</pdfrwt>
<pdfrwt beam="2">  1       -2 0.23026759E+00 0.16749508E+04</pdfrwt>
<totfact> 0.64001979E+00</totfact>
</mgrwt>
</event>
<event>
 4    1  0.1760335E-005  0.4127418E+03  0.7818608E-02  0.1039455E+00
         -2   -1    0    0    0  501 -0.00000000000E+00  0.00000000000E+00  0.17380848931E+02  0.17380849118E+02  0.25500000000E-02 0. -1.
          2   -1    0    0  501    0  0.00000000000E+00 -0.00000000000E+00 -0.24503378724E+04  0.24503378724E+04  0.25500000000E-02 0.  1.
    5000001    1    1    2    0    0  0.38361030753E+02 -0.38938846659E+02 -0.12187953574E+04  0.12361435700E+04  0.19900000000E+03 0.  0.
   -5000001    1    1    2    0    0 -0.38361030753E+02  0.38938846659E+02 -0.12141616661E+04  0.12315751516E+04  0.19900000000E+03 0.  0.
<mgrwt>
<rscale>  0 0.41274182E+03</rscale>
<asrwt>0</asrwt>
<pdfrwt beam="1">  1        2 0.35004805E+00 0.41274182E+03</pdfrwt>
<pdfrwt beam="2">  1       -2 0.24829800E-02 0.41274182E+03</pdfrwt>
<totfact> 0.29574343E+03</totfact>
</mgrwt>
</event>
<event>
 4    1  0.1760335E-005  0.6606062E+03  0.7818608E-02  0.9787079E-01
         -2   -1    0    0    0  501 -0.00000000000E+00  0.00000000000E+00  0.92338296890E+02  0.92338296926E+02  0.25500000000E-02 0. -1.
          2   -1    0    0  501    0  0.00000000000E+00 -0.00000000000E+00 -0.11815263078E+04  0.11815263078E+04  0.25500000000E-02 0.  1.
    5000001    1    1    2    0    0 -0.23687396119E+03 -0.11451313000E+03 -0.51252362915E+03  0.60951128035E+03  0.19900000000E+03 0.  0.
   -5000001    1    1    2    0    0  0.23687396119E+03  0.11451313000E+03 -0.57666438176E+03  0.66435332438E+03  0.19900000000E+03 0.  0.
<mgrwt>
<rscale>  0 0.66060617E+03</rscale>
<asrwt>0</asrwt>
<pdfrwt beam="1">  1        2 0.16878946E+00 0.66060617E+03</pdfrwt>
<pdfrwt beam="2">  1       -2 0.13191186E-01 0.66060617E+03</pdfrwt>
<totfact> 0.95903287E+02</totfact>
</mgrwt>
</event>
<event>
 4    1  0.1760335E-005  0.4664865E+03  0.7818608E-02  0.1022917E+00
          2   -1    0    0  501    0  0.00000000000E+00  0.00000000000E+00  0.36245896448E+03  0.36245896449E+03  0.25500000000E-02 0.  1.
         -2   -1    0    0    0  501 -0.00000000000E+00 -0.00000000000E+00 -0.15009260121E+03  0.15009260123E+03  0.25500000000E-02 0. -1.
    5000001    1    1    2    0    0  0.85776794748E+02 -0.49531232328E+02  0.18380190609E+03  0.28843568117E+03  0.19900000000E+03 0.  0.
   -5000001    1    1    2    0    0 -0.85776794748E+02  0.49531232328E+02  0.28564457186E+02  0.22411588455E+03  0.19900000000E+03 0.  0.
<mgrwt>
<rscale>  0 0.46648648E+03</rscale>
<asrwt>0</asrwt>
<pdfrwt beam="1">  1        2 0.51779852E-01 0.46648648E+03</pdfrwt>
<pdfrwt beam="2">  1       -2 0.21441800E-01 0.46648648E+03</pdfrwt>
<totfact> 0.18112388E+03</totfact>
</mgrwt>
</event>
<event>
 4    1  0.1760335E-005  0.7601232E+03  0.7818608E-02  0.9619601E-01
          2   -1    0    0  501    0  0.00000000000E+00  0.00000000000E+00  0.72281177082E+03  0.72281177083E+03  0.25500000000E-02 0. -1.
         -2   -1    0    0    0  501 -0.00000000000E+00 -0.00000000000E+00 -0.19984013632E+03  0.19984013633E+03  0.25500000000E-02 0.  1.
    5000001    1    1    2    0    0 -0.14047841790E+03 -0.22381732090E+03  0.48862707035E+03  0.59007270138E+03  0.19900000000E+03 0.  0.
   -5000001    1    1    2    0    0  0.14047841790E+03  0.22381732090E+03  0.34344564156E+02  0.33257920578E+03  0.19900000000E+03 0.  0.
<mgrwt>
<rscale>  0 0.76012316E+03</rscale>
<asrwt>0</asrwt>
<pdfrwt beam="1">  1        2 0.10325882E+00 0.76012316E+03</pdfrwt>
<pdfrwt beam="2">  1       -2 0.28548591E-01 0.76012316E+03</pdfrwt>
<totfact> 0.48781425E+02</totfact>
</mgrwt>
</event>
<event>
 4    1  0.1760335E-005  0.4912902E+03  0.7818608E-02  0.1016078E+00
          2   -1    0    0  501    0  0.00000000000E+00  0.00000000000E+00  0.73266448302E+03  0.73266448303E+03  0.25500000000E-02 0.  1.
         -2   -1    0    0    0  501 -0.00000000000E+00 -0.00000000000E+00 -0.82358988623E+02  0.82358988663E+02  0.25500000000E-02 0. -1.
    5000001    1    1    2    0    0 -0.56686823163E+02  0.12928516017E+03  0.37243871868E+03  0.44524111190E+03  0.19900000000E+03 0.  0.
   -5000001    1    1    2    0    0  0.56686823163E+02 -0.12928516017E+03  0.27786677572E+03  0.36978235979E+03  0.19900000000E+03 0.  0.
<mgrwt>
<rscale>  0 0.49129016E+03</rscale>
<asrwt>0</asrwt>
<pdfrwt beam="1">  1        2 0.10466636E+00 0.49129016E+03</pdfrwt>
<pdfrwt beam="2">  1       -2 0.11765570E-01 0.49129016E+03</pdfrwt>
<totfact> 0.22292323E+03</totfact>
</mgrwt>
</event>
<event>
 4    1  0.1760335E-005  0.5818389E+03  0.7818608E-02  0.9943818E-01
          2   -1    0    0  501    0  0.00000000000E+00  0.00000000000E+00  0.36409984615E+04  0.36409984615E+04  0.25500000000E-02 0.  1.
         -2   -1    0    0    0  501 -0.00000000000E+00 -0.00000000000E+00 -0.23244757659E+02  0.23244757799E+02  0.25500000000E-02 0. -1.
    5000001    1    1    2    0    0  0.11442899487E+01 -0.14996640203E+03  0.86334370484E+03  0.89858476719E+03  0.19900000000E+03 0.  0.
   -5000001    1    1    2    0    0 -0.11442899487E+01  0.14996640203E+03  0.27544099990E+04  0.27656584521E+04  0.19900000000E+03 0.  0.
<mgrwt>
<rscale>  0 0.58183890E+03</rscale>
<asrwt>0</asrwt>
<pdfrwt beam="1">  1        2 0.52014202E+00 0.58183890E+03</pdfrwt>
<pdfrwt beam="2">  1       -2 0.33206836E-02 0.58183890E+03</pdfrwt>
<totfact> 0.41665062E+02</totfact>
</mgrwt>
</event>
<event>
 4    1  0.1760335E-005  0.5448830E+03  0.7818608E-02  0.1002685E+00
         -2   -1    0    0    0  501 -0.00000000000E+00  0.00000000000E+00  0.11449105537E+04  0.11449105537E+04  0.25500000000E-02 0. -1.
          2   -1    0    0  501    0  0.00000000000E+00 -0.00000000000E+00 -0.64829831814E+02  0.64829831865E+02  0.25500000000E-02 0.  1.
    5000001    1    1    2    0    0 -0.13425104849E+03 -0.39676975907E+02  0.26789115700E+03  0.36188987059E+03  0.19900000000E+03 0.  0.
   -5000001    1    1    2    0    0  0.13425104849E+03  0.39676975907E+02  0.81218956488E+03  0.84785051497E+03  0.19900000000E+03 0.  0.
<mgrwt>
<rscale>  0 0.54488296E+03</rscale>
<asrwt>0</asrwt>
<pdfrwt beam="1">  1        2 0.92614051E-02 0.54488296E+03</pdfrwt>
<pdfrwt beam="2">  1       -2 0.16355864E+00 0.54488296E+03</pdfrwt>
<totfact> 0.17725369E+02</totfact>
</mgrwt>
</event>
<event>
 4    1  0.1760335E-005  0.6228526E+03  0.7818608E-02  0.9859097E-01
          2   -1    0    0  501    0  0.00000000000E+00  0.00000000000E+00  0.28272177320E+04  0.28272177320E+04  0.25500000000E-02 0.  1.
         -2   -1    0    0    0  501 -0.00000000000E+00 -0.00000000000E+00 -0.34304517290E+02  0.34304517385E+02  0.25500000000E-02 0. -1.
    5000001    1    1    2    0    0  0.98787524526E+01 -0.22314521073E+03  0.17941676722E+04  0.18189365054E+04  0.19900000000E+03 0.  0.
   -5000001    1    1    2    0    0 -0.98787524526E+01  0.22314521073E+03  0.99874554256E+03  0.10425857440E+04  0.19900000000E+03 0.  0.
<mgrwt>
<rscale>  0 0.62285260E+03</rscale>
<asrwt>0</asrwt>
<pdfrwt beam="1">  1        2 0.40388825E+00 0.62285260E+03</pdfrwt>
<pdfrwt beam="2">  1       -2 0.49006453E-02 0.62285260E+03</pdfrwt>
<totfact> 0.66001444E+02</totfact>
</mgrwt>
</event>
<event>
 4    1  0.1760335E-005  0.6014167E+03  0.7818608E-02  0.9902471E-01
          2   -1    0    0  501    0  0.00000000000E+00  0.00000000000E+00  0.38111815593E+03  0.38111815594E+03  0.25500000000E-02 0.  1.
         -2   -1    0    0    0  501 -0.00000000000E+00 -0.00000000000E+00 -0.23726371124E+03  0.23726371125E+03  0.25500000000E-02 0. -1.
    5000001    1    1    2    0    0  0.16011751117E+03 -0.15485196390E+03  0.36194048468E+02  0.30087830970E+03  0.19900000000E+03 0.  0.
   -5000001    1    1    2    0    0 -0.16011751117E+03  0.15485196390E+03  0.10766039622E+03  0.31750355749E+03  0.19900000000E+03 0.  0.
<mgrwt>
<rscale>  0 0.60141669E+03</rscale>
<asrwt>0</asrwt>
<pdfrwt beam="1">  1        2 0.54445451E-01 0.60141669E+03</pdfrwt>
<pdfrwt beam="2">  1       -2 0.33894816E-01 0.60141669E+03</pdfrwt>
<totfact> 0.74697895E+02</totfact>
</mgrwt>
</event>
<event>
 4    1  0.1760335E-005  0.9430773E+03  0.7818608E-02  0.9373279E-01
          2   -1    0    0  501    0  0.00000000000E+00  0.00000000000E+00  0.19340657496E+04  0.19340657496E+04  0.25500000000E-02 0.  1.
         -2   -1    0    0    0  501 -0.00000000000E+00 -0.00000000000E+00 -0.11496438505E+03  0.11496438507E+03  0.25500000000E-02 0. -1.
    5000001    1    1    2    0    0 -0.38063419834E+03  0.15248644369E+03  0.11721982042E+04  0.12576900009E+04  0.19900000000E+03 0.  0.
   -5000001    1    1    2    0    0  0.38063419834E+03 -0.15248644369E+03  0.64690316042E+03  0.79134013383E+03  0.19900000000E+03 0.  0.
<mgrwt>
<rscale>  0 0.94307726E+03</rscale>
<asrwt>0</asrwt>
<pdfrwt beam="1">  1        2 0.27629509E+00 0.94307726E+03</pdfrwt>
<pdfrwt beam="2">  1       -2 0.16423485E-01 0.94307726E+03</pdfrwt>
<totfact> 0.26187005E+02</totfact>
</mgrwt>
</event>
<event>
 4    1  0.1760335E-005  0.6773959E+03  0.7818608E-02  0.9756689E-01
          2   -1    0    0  501    0  0.00000000000E+00  0.00000000000E+00  0.12189181421E+04  0.12189181421E+04  0.25500000000E-02 0.  1.
         -2   -1    0    0    0  501 -0.00000000000E+00 -0.00000000000E+00 -0.94113206206E+02  0.94113206240E+02  0.25500000000E-02 0. -1.
    5000001    1    1    2    0    0  0.23960386038E+03 -0.13231144223E+03  0.53506093346E+03  0.63309361880E+03  0.19900000000E+03 0.  0.
   -5000001    1    1    2    0    0 -0.23960386038E+03  0.13231144223E+03  0.58974400246E+03  0.67993772957E+03  0.19900000000E+03 0.  0.
<mgrwt>
<rscale>  0 0.67739588E+03</rscale>
<asrwt>0</asrwt>
<pdfrwt beam="1">  1        2 0.17413116E+00 0.67739588E+03</pdfrwt>
<pdfrwt beam="2">  1       -2 0.13444744E-01 0.67739588E+03</pdfrwt>
<totfact> 0.88463717E+02</totfact>
</mgrwt>
</event>
<event>
 4    1  0.1760335E-005  0.7357809E+03  0.7818608E-02  0.9657926E-01
          2   -1    0    0  501    0  0.00000000000E+00  0.00000000000E+00  0.11993817111E+04  0.11993817111E+04  0.25500000000E-02 0.  1.
         -2   -1    0    0    0  501 -0.00000000000E+00 -0.00000000000E+00 -0.11284430956E+03  0.11284430959E+03  0.25500000000E-02 0. -1.
    5000001    1    1    2    0    0 -0.27645116230E+03 -0.38463299198E+02  0.30507520031E+03  0.45888620416E+03  0.19900000000E+03 0.  0.
   -5000001    1    1    2    0    0  0.27645116230E+03  0.38463299198E+02  0.78146220125E+03  0.85333981654E+03  0.19900000000E+03 0.  0.
<mgrwt>
<rscale>  0 0.73578095E+03</rscale>
<asrwt>0</asrwt>
<pdfrwt beam="1">  1        2 0.17134025E+00 0.73578095E+03</pdfrwt>
<pdfrwt beam="2">  1       -2 0.16120615E-01 0.73578095E+03</pdfrwt>
<totfact> 0.66666473E+02</totfact>
</mgrwt>
</event>
<event>
 4    1  0.1760335E-005  0.5418162E+03  0.7818608E-02  0.1003406E+00
          2   -1    0    0  501    0  0.00000000000E+00  0.00000000000E+00  0.98226219566E+02  0.98226219599E+02  0.25500000000E-02 0.  1.
         -2   -1    0    0    0  501 -0.00000000000E+00 -0.00000000000E+00 -0.74716501866E+03  0.74716501866E+03  0.25500000000E-02 0. -1.
    5000001    1    1    2    0    0 -0.14242503870E+03  0.11372421999E+03 -0.28714921669E+03  0.39404791905E+03  0.19900000000E+03 0.  0.
   -5000001    1    1    2    0    0  0.14242503870E+03 -0.11372421999E+03 -0.36178958240E+03  0.45134331921E+03  0.19900000000E+03 0.  0.
<mgrwt>
<rscale>  0 0.54181619E+03</rscale>
<asrwt>0</asrwt>
<pdfrwt beam="1">  1        2 0.14032318E-01 0.54181619E+03</pdfrwt>
<pdfrwt beam="2">  1       -2 0.10673786E+00 0.54181619E+03</pdfrwt>
<totfact> 0.31110272E+02</totfact>
</mgrwt>
</event>
<event>
 4    1  0.1760335E-005  0.8313838E+03  0.7818608E-02  0.9515669E-01
         -2   -1    0    0    0  501 -0.00000000000E+00  0.00000000000E+00  0.52616368047E+03  0.52616368048E+03  0.25500000000E-02 0.  1.
          2   -1    0    0  501    0  0.00000000000E+00 -0.00000000000E+00 -0.32841447539E+03  0.32841447540E+03  0.25500000000E-02 0. -1.
    5000001    1    1    2    0    0  0.30104974098E+03  0.30753100219E+02  0.30858117757E+03  0.47581513518E+03  0.19900000000E+03 0.  0.
   -5000001    1    1    2    0    0 -0.30104974098E+03 -0.30753100219E+02 -0.11083197249E+03  0.37876302069E+03  0.19900000000E+03 0.  0.
<mgrwt>
<rscale>  0 0.83138383E+03</rscale>
<asrwt>0</asrwt>
<pdfrwt beam="1">  1        2 0.46916353E-01 0.83138383E+03</pdfrwt>
<pdfrwt beam="2">  1       -2 0.75166240E-01 0.83138383E+03</pdfrwt>
<totfact> 0.17241473E+02</totfact>
</mgrwt>
</event>
<event>
 4    1  0.1760335E-005  0.4679654E+03  0.7818608E-02  0.1022496E+00
         -2   -1    0    0    0  501 -0.00000000000E+00  0.00000000000E+00  0.49034766193E+02  0.49034766260E+02  0.25500000000E-02 0. -1.
          2   -1    0    0  501    0  0.00000000000E+00 -0.00000000000E+00 -0.11165121110E+04  0.11165121110E+04  0.25500000000E-02 0.  1.
    5000001    1    1    2    0    0  0.63424775707E+02 -0.95835467408E+02 -0.64343478770E+03  0.68323968343E+03  0.19900000000E+03 0.  0.
   -5000001    1    1    2    0    0 -0.63424775707E+02  0.95835467408E+02 -0.42404255710E+03  0.48230719382E+03  0.19900000000E+03 0.  0.
<mgrwt>
<rscale>  0 0.46796543E+03</rscale>
<asrwt>0</asrwt>
<pdfrwt beam="1">  1        2 0.15950171E+00 0.46796543E+03</pdfrwt>
<pdfrwt beam="2">  1       -2 0.70049673E-02 0.46796543E+03</pdfrwt>
<totfact> 0.29116685E+03</totfact>
</mgrwt>
</event>
<event>
 4    1  0.1760335E-005  0.4180763E+03  0.7818608E-02  0.1037694E+00
          2   -1    0    0  501    0  0.00000000000E+00  0.00000000000E+00  0.37441005105E+03  0.37441005106E+03  0.25500000000E-02 0.  1.
         -2   -1    0    0    0  501 -0.00000000000E+00 -0.00000000000E+00 -0.11670881636E+03  0.11670881639E+03  0.25500000000E-02 0. -1.
    5000001    1    1    2    0    0  0.40698957618E+02 -0.49373024727E+02  0.13044976959E+03  0.24639854527E+03  0.19900000000E+03 0.  0.
   -5000001    1    1    2    0    0 -0.40698957618E+02  0.49373024727E+02  0.12725146510E+03  0.24472032219E+03  0.19900000000E+03 0.  0.
<mgrwt>
<rscale>  0 0.41807633E+03</rscale>
<asrwt>0</asrwt>
<pdfrwt beam="1">  1        2 0.53487150E-01 0.41807633E+03</pdfrwt>
<pdfrwt beam="2">  1       -2 0.16672688E-01 0.41807633E+03</pdfrwt>
<totfact> 0.26895127E+03</totfact>
</mgrwt>
</event>
<event>
 4    1  0.1760335E-005  0.6396461E+03  0.7818608E-02  0.9826404E-01
         -2   -1    0    0    0  501 -0.00000000000E+00  0.00000000000E+00  0.82545148918E+02  0.82545148957E+02  0.25500000000E-02 0. -1.
          2   -1    0    0  501    0  0.00000000000E+00 -0.00000000000E+00 -0.12391615653E+04  0.12391615653E+04  0.25500000000E-02 0.  1.
    5000001    1    1    2    0    0  0.18599100865E+03  0.12944512235E+03 -0.79832001094E+03  0.85338416605E+03  0.19900000000E+03 0.  0.
   -5000001    1    1    2    0    0 -0.18599100865E+03 -0.12944512235E+03 -0.35829640539E+03  0.46832254816E+03  0.19900000000E+03 0.  0.
<mgrwt>
<rscale>  0 0.63964608E+03</rscale>
<asrwt>0</asrwt>
<pdfrwt beam="1">  1        2 0.17702307E+00 0.63964608E+03</pdfrwt>
<pdfrwt beam="2">  1       -2 0.11792165E-01 0.63964608E+03</pdfrwt>
<totfact> 0.10725650E+03</totfact>
</mgrwt>
</event>
<event>
 4    1  0.1760335E-005  0.6791685E+03  0.7818608E-02  0.9753535E-01
         -2   -1    0    0    0  501 -0.00000000000E+00  0.00000000000E+00  0.63975034679E+02  0.63975034730E+02  0.25500000000E-02 0. -1.
          2   -1    0    0  501    0  0.00000000000E+00 -0.00000000000E+00 -0.18025386828E+04  0.18025386828E+04  0.25500000000E-02 0.  1.
    5000001    1    1    2    0    0  0.15169768838E+03  0.22882090229E+03 -0.81821488258E+03  0.88569057128E+03  0.19900000000E+03 0.  0.
   -5000001    1    1    2    0    0 -0.15169768838E+03 -0.22882090229E+03 -0.92034876555E+03  0.98082314626E+03  0.19900000000E+03 0.  0.
<mgrwt>
<rscale>  0 0.67916854E+03</rscale>
<asrwt>0</asrwt>
<pdfrwt beam="1">  1        2 0.25750549E+00 0.67916854E+03</pdfrwt>
<pdfrwt beam="2">  1       -2 0.91392918E-02 0.67916854E+03</pdfrwt>
<totfact> 0.82136281E+02</totfact>
</mgrwt>
</event>
<event>
 4    1  0.1760335E-005  0.8489209E+03  0.7818608E-02  0.9491786E-01
         -2   -1    0    0    0  501 -0.00000000000E+00  0.00000000000E+00  0.74819525456E+02  0.74819525499E+02  0.25500000000E-02 0.  1.
          2   -1    0    0  501    0  0.00000000000E+00 -0.00000000000E+00 -0.24080165314E+04  0.24080165314E+04  0.25500000000E-02 0. -1.
    5000001    1    1    2    0    0  0.97922095803E+02  0.32119326705E+03 -0.16543464054E+04  0.16997696551E+04  0.19900000000E+03 0.  0.
   -5000001    1    1    2    0    0 -0.97922095803E+02 -0.32119326705E+03 -0.67885060063E+03  0.78306640179E+03  0.19900000000E+03 0.  0.
<mgrwt>
<rscale>  0 0.84892085E+03</rscale>
<asrwt>0</asrwt>
<pdfrwt beam="1">  1        2 0.34400232E+00 0.84892085E+03</pdfrwt>
<pdfrwt beam="2">  1       -2 0.10688505E-01 0.84892085E+03</pdfrwt>
<totfact> 0.31004224E+02</totfact>
</mgrwt>
</event>
<event>
 4    1  0.1760335E-005  0.1363845E+04  0.7818608E-02  0.8980413E-01
          2   -1    0    0  501    0  0.00000000000E+00  0.00000000000E+00  0.47922436689E+03  0.47922436690E+03  0.25500000000E-02 0.  1.
         -2   -1    0    0    0  501 -0.00000000000E+00 -0.00000000000E+00 -0.97035654716E+03  0.97035654716E+03  0.25500000000E-02 0. -1.
    5000001    1    1    2    0    0 -0.36369925130E+01  0.63991123722E+03 -0.37966338002E+03  0.77022392936E+03  0.19900000000E+03 0.  0.
   -5000001    1    1    2    0    0  0.36369925130E+01 -0.63991123722E+03 -0.11146880025E+03  0.67935698470E+03  0.19900000000E+03 0.  0.
<mgrwt>
<rscale>  0 0.13638453E+04</rscale>
<asrwt>0</asrwt>
<pdfrwt beam="1">  1        2 0.68460625E-01 0.13638453E+04</pdfrwt>
<pdfrwt beam="2">  1       -2 0.13862236E+00 0.13638453E+04</pdfrwt>
<totfact> 0.25370905E+01</totfact>
</mgrwt>
</event>
<event>
 4    1  0.1760335E-005  0.4796064E+03  0.7818608E-02  0.1019243E+00
         -2   -1    0    0    0  501 -0.00000000000E+00  0.00000000000E+00  0.43301066401E+02  0.43301066476E+02  0.25500000000E-02 0. -1.
          2   -1    0    0  501    0  0.00000000000E+00 -0.00000000000E+00 -0.13280408334E+04  0.13280408334E+04  0.25500000000E-02 0.  1.
    5000001    1    1    2    0    0 -0.74650056927E+02 -0.31686285014E+02 -0.33804597738E+03  0.40056551833E+03  0.19900000000E+03 0.  0.
   -5000001    1    1    2    0    0  0.74650056927E+02  0.31686285014E+02 -0.94669378961E+03  0.97077638153E+03  0.19900000000E+03 0.  0.
<mgrwt>
<rscale>  0 0.47960644E+03</rscale>
<asrwt>0</asrwt>
<pdfrwt beam="1">  1        2 0.18972009E+00 0.47960644E+03</pdfrwt>
<pdfrwt beam="2">  1       -2 0.61858674E-02 0.47960644E+03</pdfrwt>
<totfact> 0.27032290E+03</totfact>
</mgrwt>
</event>
<event>
 4    1  0.1760335E-005  0.5654370E+03  0.7818608E-02  0.9979827E-01
         -2   -1    0    0    0  501 -0.00000000000E+00  0.00000000000E+00  0.55287069238E+02  0.55287069296E+02  0.25500000000E-02 0. -1.
          2   -1    0    0  501    0  0.00000000000E+00 -0.00000000000E+00 -0.14457225164E+04  0.14457225164E+04  0.25500000000E-02 0.  1.
    5000001    1    1    2    0    0 -0.19804533393E+03  0.26548101670E+02 -0.64199281880E+03  0.70120078108E+03  0.19900000000E+03 0.  0.
   -5000001    1    1    2    0    0  0.19804533393E+03 -0.26548101670E+02 -0.74844262833E+03  0.79980880458E+03  0.19900000000E+03 0.  0.
<mgrwt>
<rscale>  0 0.56543704E+03</rscale>
<asrwt>0</asrwt>
<pdfrwt beam="1">  1        2 0.20653177E+00 0.56543704E+03</pdfrwt>
<pdfrwt beam="2">  1       -2 0.78981536E-02 0.56543704E+03</pdfrwt>
<totfact> 0.15907706E+03</totfact>
</mgrwt>
</event>
<event>
 4    1  0.1760335E-005  0.4940546E+03  0.7818608E-02  0.1015342E+00
          2   -1    0    0  501    0  0.00000000000E+00  0.00000000000E+00  0.55315804623E+03  0.55315804624E+03  0.25500000000E-02 0.  1.
         -2   -1    0    0    0  501 -0.00000000000E+00 -0.00000000000E+00 -0.11031656738E+03  0.11031656741E+03  0.25500000000E-02 0. -1.
    5000001    1    1    2    0    0  0.31355361376E+02  0.11267861168E+03  0.10326026457E+03  0.25287014545E+03  0.19900000000E+03 0.  0.
   -5000001    1    1    2    0    0 -0.31355361376E+02 -0.11267861168E+03  0.33958121428E+03  0.41060446820E+03  0.19900000000E+03 0.  0.
<mgrwt>
<rscale>  0 0.49405464E+03</rscale>
<asrwt>0</asrwt>
<pdfrwt beam="1">  1        2 0.79022576E-01 0.49405464E+03</pdfrwt>
<pdfrwt beam="2">  1       -2 0.15759510E-01 0.49405464E+03</pdfrwt>
<totfact> 0.19158282E+03</totfact>
</mgrwt>
</event>
<event>
 4    1  0.1760335E-005  0.6494944E+03  0.7818608E-02  0.9807728E-01
         -2   -1    0    0    0  501 -0.00000000000E+00  0.00000000000E+00  0.14182472252E+03  0.14182472254E+03  0.25500000000E-02 0. -1.
          2   -1    0    0  501    0  0.00000000000E+00 -0.00000000000E+00 -0.74359913321E+03  0.74359913322E+03  0.25500000000E-02 0.  1.
    5000001    1    1    2    0    0 -0.80858723633E+01  0.25604894072E+03 -0.28006471832E+03  0.42856001659E+03  0.19900000000E+03 0.  0.
   -5000001    1    1    2    0    0  0.80858723633E+01 -0.25604894072E+03 -0.32170969237E+03  0.45686383917E+03  0.19900000000E+03 0.  0.
<mgrwt>
<rscale>  0 0.64949439E+03</rscale>
<asrwt>0</asrwt>
<pdfrwt beam="1">  1        2 0.10622845E+00 0.64949439E+03</pdfrwt>
<pdfrwt beam="2">  1       -2 0.20260675E-01 0.64949439E+03</pdfrwt>
<totfact> 0.87310356E+02</totfact>
</mgrwt>
</event>
<event>
 4    1  0.1760335E-005  0.1114554E+04  0.7818608E-02  0.9191122E-01
         -2   -1    0    0    0  501 -0.00000000000E+00  0.00000000000E+00  0.26533982762E+03  0.26533982763E+03  0.25500000000E-02 0. -1.
          2   -1    0    0  501    0  0.00000000000E+00 -0.00000000000E+00 -0.11704145608E+04  0.11704145608E+04  0.25500000000E-02 0.  1.
    5000001    1    1    2    0    0 -0.40583067084E+03 -0.15247836115E+03 -0.81395339970E+02  0.48391568003E+03  0.19900000000E+03 0.  0.
   -5000001    1    1    2    0    0  0.40583067084E+03  0.15247836115E+03 -0.82367939317E+03  0.95183870837E+03  0.19900000000E+03 0.  0.
<mgrwt>
<rscale>  0 0.11145539E+04</rscale>
<asrwt>0</asrwt>
<pdfrwt beam="1">  1        2 0.16720208E+00 0.11145539E+04</pdfrwt>
<pdfrwt beam="2">  1       -2 0.37905691E-01 0.11145539E+04</pdfrwt>
<totfact> 0.14461238E+02</totfact>
</mgrwt>
</event>
<event>
 4    1  0.1760335E-005  0.7463073E+03  0.7818608E-02  0.9641162E-01
         -2   -1    0    0    0  501 -0.00000000000E+00  0.00000000000E+00  0.22020100392E+03  0.22020100393E+03  0.25500000000E-02 0. -1.
          2   -1    0    0  501    0  0.00000000000E+00 -0.00000000000E+00 -0.63234787520E+03  0.63234787520E+03  0.25500000000E-02 0.  1.
    5000001    1    1    2    0    0  0.77774853891E+02  0.27823417487E+03 -0.60767441479E+02  0.35602930485E+03  0.19900000000E+03 0.  0.
   -5000001    1    1    2    0    0 -0.77774853891E+02 -0.27823417487E+03 -0.35137942980E+03  0.49651957429E+03  0.19900000000E+03 0.  0.
<mgrwt>
<rscale>  0 0.74630727E+03</rscale>
<asrwt>0</asrwt>
<pdfrwt beam="1">  1        2 0.90335410E-01 0.74630727E+03</pdfrwt>
<pdfrwt beam="2">  1       -2 0.31457287E-01 0.74630727E+03</pdfrwt>
<totfact> 0.47996670E+02</totfact>
</mgrwt>
</event>
<event>
 4    1  0.1760335E-005  0.5138078E+03  0.7818608E-02  0.1010236E+00
          2   -1    0    0  501    0  0.00000000000E+00  0.00000000000E+00  0.19239950958E+04  0.19239950958E+04  0.25500000000E-02 0.  1.
         -2   -1    0    0    0  501 -0.00000000000E+00 -0.00000000000E+00 -0.34303425295E+02  0.34303425390E+02  0.25500000000E-02 0. -1.
    5000001    1    1    2    0    0 -0.86954639762E+02 -0.22901081186E+02  0.42907289343E+03  0.48144586069E+03  0.19900000000E+03 0.  0.
   -5000001    1    1    2    0    0  0.86954639762E+02  0.22901081186E+02  0.14606187771E+04  0.14768526605E+04  0.19900000000E+03 0.  0.
<mgrwt>
<rscale>  0 0.51380783E+03</rscale>
<asrwt>0</asrwt>
<pdfrwt beam="1">  1        2 0.27485645E+00 0.51380783E+03</pdfrwt>
<pdfrwt beam="2">  1       -2 0.49004892E-02 0.51380783E+03</pdfrwt>
<totfact> 0.19211761E+03</totfact>
</mgrwt>
</event>
<event>
 4    1  0.1760335E-005  0.4942481E+03  0.7818608E-02  0.1015291E+00
         -2   -1    0    0    0  501 -0.00000000000E+00  0.00000000000E+00  0.20588903176E+02  0.20588903334E+02  0.25500000000E-02 0. -1.
          2   -1    0    0  501    0  0.00000000000E+00 -0.00000000000E+00 -0.29661749891E+04  0.29661749891E+04  0.25500000000E-02 0.  1.
    5000001    1    1    2    0    0  0.50000654317E+01 -0.84446089891E+02 -0.21957683658E+04  0.22063897795E+04  0.19900000000E+03 0.  0.
   -5000001    1    1    2    0    0 -0.50000654317E+01  0.84446089891E+02 -0.74981772006E+03  0.78037411289E+03  0.19900000000E+03 0.  0.
<mgrwt>
<rscale>  0 0.49424807E+03</rscale>
<asrwt>0</asrwt>
<pdfrwt beam="1">  1        2 0.42373901E+00 0.49424807E+03</pdfrwt>
<pdfrwt beam="2">  1       -2 0.29412738E-02 0.49424807E+03</pdfrwt>
<totfact> 0.12291395E+03</totfact>
</mgrwt>
</event>
<event>
 4    1  0.1760335E-005  0.5856246E+03  0.7818608E-02  0.9935688E-01
         -2   -1    0    0    0  501 -0.00000000000E+00  0.00000000000E+00  0.33031395361E+02  0.33031395459E+02  0.25500000000E-02 0. -1.
          2   -1    0    0  501    0  0.00000000000E+00 -0.00000000000E+00 -0.25956831394E+04  0.25956831394E+04  0.25500000000E-02 0.  1.
    5000001    1    1    2    0    0  0.19550773189E+03  0.86437423926E+02 -0.11868132148E+04  0.12222198281E+04  0.19900000000E+03 0.  0.
   -5000001    1    1    2    0    0 -0.19550773189E+03 -0.86437423926E+02 -0.13758385292E+04  0.14064947067E+04  0.19900000000E+03 0.  0.
<mgrwt>
<rscale>  0 0.58562458E+03</rscale>
<asrwt>0</asrwt>
<pdfrwt beam="1">  1        2 0.37081175E+00 0.58562458E+03</pdfrwt>
<pdfrwt beam="2">  1       -2 0.47187724E-02 0.58562458E+03</pdfrwt>
<totfact> 0.92834830E+02</totfact>
</mgrwt>
</event>
<event>
 4    1  0.1760335E-005  0.6462657E+03  0.7818608E-02  0.9813812E-01
         -2   -1    0    0    0  501 -0.00000000000E+00  0.00000000000E+00  0.55797777019E+02  0.55797777077E+02  0.25500000000E-02 0. -1.
          2   -1    0    0  501    0  0.00000000000E+00 -0.00000000000E+00 -0.18713084352E+04  0.18713084352E+04  0.25500000000E-02 0.  1.
    5000001    1    1    2    0    0  0.23617516240E+03  0.24723473761E+01 -0.62441062996E+03  0.69661643294E+03  0.19900000000E+03 0.  0.
   -5000001    1    1    2    0    0 -0.23617516240E+03 -0.24723473761E+01 -0.11911000283E+04  0.12304897794E+04  0.19900000000E+03 0.  0.
<mgrwt>
<rscale>  0 0.64626574E+03</rscale>
<asrwt>0</asrwt>
<pdfrwt beam="1">  1        2 0.26732974E+00 0.64626574E+03</pdfrwt>
<pdfrwt beam="2">  1       -2 0.79711122E-02 0.64626574E+03</pdfrwt>
<totfact> 0.94581387E+02</totfact>
</mgrwt>
</event>
<event>
 4    1  0.1760335E-005  0.9602002E+03  0.7818608E-02  0.9353307E-01
         -2   -1    0    0    0  501 -0.00000000000E+00  0.00000000000E+00  0.27366438254E+03  0.27366438255E+03  0.25500000000E-02 0. -1.
          2   -1    0    0  501    0  0.00000000000E+00 -0.00000000000E+00 -0.84225827052E+03  0.84225827052E+03  0.25500000000E-02 0.  1.
    5000001    1    1    2    0    0  0.70107997249E+02 -0.27948510541E+03  0.97400014335E+02  0.36347602151E+03  0.19900000000E+03 0.  0.
   -5000001    1    1    2    0    0 -0.70107997249E+02  0.27948510541E+03 -0.66599390231E+03  0.75244663156E+03  0.19900000000E+03 0.  0.
<mgrwt>
<rscale>  0 0.96020017E+03</rscale>
<asrwt>0</asrwt>
<pdfrwt beam="1">  1        2 0.12032261E+00 0.96020017E+03</pdfrwt>
<pdfrwt beam="2">  1       -2 0.39094912E-01 0.96020017E+03</pdfrwt>
<totfact> 0.21948923E+02</totfact>
</mgrwt>
</event>
<event>
 4    1  0.1760335E-005  0.7265427E+03  0.7818608E-02  0.9672887E-01
         -2   -1    0    0    0  501 -0.00000000000E+00  0.00000000000E+00  0.26597627689E+03  0.26597627690E+03  0.25500000000E-02 0. -1.
          2   -1    0    0  501    0  0.00000000000E+00 -0.00000000000E+00 -0.49615734973E+03  0.49615734974E+03  0.25500000000E-02 0.  1.
    5000001    1    1    2    0    0 -0.19320125627E+02 -0.24069088476E+03  0.78502828974E+02  0.32259737045E+03  0.19900000000E+03 0.  0.
   -5000001    1    1    2    0    0  0.19320125627E+02  0.24069088476E+03 -0.30868390182E+03  0.43953625619E+03  0.19900000000E+03 0.  0.
<mgrwt>
<rscale>  0 0.72654273E+03</rscale>
<asrwt>0</asrwt>
<pdfrwt beam="1">  1        2 0.70879621E-01 0.72654273E+03</pdfrwt>
<pdfrwt beam="2">  1       -2 0.37996611E-01 0.72654273E+03</pdfrwt>
<totfact> 0.44550824E+02</totfact>
</mgrwt>
</event>
<event>
 4    1  0.1760335E-005  0.9916526E+03  0.7818608E-02  0.9317748E-01
          2   -1    0    0  501    0  0.00000000000E+00  0.00000000000E+00  0.30382028798E+03  0.30382028799E+03  0.25500000000E-02 0.  1.
         -2   -1    0    0    0  501 -0.00000000000E+00 -0.00000000000E+00 -0.80917485707E+03  0.80917485708E+03  0.25500000000E-02 0. -1.
    5000001    1    1    2    0    0 -0.19328122487E+03 -0.38626199061E+03 -0.95198863358E+02  0.48499461941E+03  0.19900000000E+03 0.  0.
   -5000001    1    1    2    0    0  0.19328122487E+03  0.38626199061E+03 -0.41015570573E+03  0.62800052565E+03  0.19900000000E+03 0.  0.
<mgrwt>
<rscale>  0 0.99165264E+03</rscale>
<asrwt>0</asrwt>
<pdfrwt beam="1">  1        2 0.43402898E-01 0.99165264E+03</pdfrwt>
<pdfrwt beam="2">  1       -2 0.11559641E+00 0.99165264E+03</pdfrwt>
<totfact> 0.68399203E+01</totfact>
</mgrwt>
</event>
<event>
 4    1  0.1760335E-005  0.5535394E+03  0.7818608E-02  0.1000678E+00
          2   -1    0    0  501    0  0.00000000000E+00  0.00000000000E+00  0.23310957137E+04  0.23310957137E+04  0.25500000000E-02 0.  1.
         -2   -1    0    0    0  501 -0.00000000000E+00 -0.00000000000E+00 -0.32860709279E+02  0.32860709378E+02  0.25500000000E-02 0. -1.
    5000001    1    1    2    0    0 -0.16902472470E+03 -0.76336847409E+02  0.93119922107E+03  0.97011837482E+03  0.19900000000E+03 0.  0.
   -5000001    1    1    2    0    0  0.16902472470E+03  0.76336847409E+02  0.13670357834E+04  0.13938380483E+04  0.19900000000E+03 0.  0.
<mgrwt>
<rscale>  0 0.55353937E+03</rscale>
<asrwt>0</asrwt>
<pdfrwt beam="1">  1        2 0.33301372E+00 0.55353937E+03</pdfrwt>
<pdfrwt beam="2">  1       -2 0.46943864E-02 0.55353937E+03</pdfrwt>
<totfact> 0.12804910E+03</totfact>
</mgrwt>
</event>
<event>
 4    1  0.1760335E-005  0.8781693E+03  0.7818608E-02  0.9453290E-01
         -2   -1    0    0    0  501 -0.00000000000E+00  0.00000000000E+00  0.25079806644E+03  0.25079806645E+03  0.25500000000E-02 0. -1.
          2   -1    0    0  501    0  0.00000000000E+00 -0.00000000000E+00 -0.76872736527E+03  0.76872736528E+03  0.25500000000E-02 0.  1.
    5000001    1    1    2    0    0 -0.31383543286E+03 -0.21878829618E+03 -0.16299447144E+03  0.46100888840E+03  0.19900000000E+03 0.  0.
   -5000001    1    1    2    0    0  0.31383543286E+03  0.21878829618E+03 -0.35493482740E+03  0.55851654332E+03  0.19900000000E+03 0.  0.
<mgrwt>
<rscale>  0 0.87816932E+03</rscale>
<asrwt>0</asrwt>
<pdfrwt beam="1">  1        2 0.10981819E+00 0.87816932E+03</pdfrwt>
<pdfrwt beam="2">  1       -2 0.35828295E-01 0.87816932E+03</pdfrwt>
<totfact> 0.29346819E+02</totfact>
</mgrwt>
</event>
<event>
 4    1  0.1760335E-005  0.7363635E+03  0.7818608E-02  0.9656990E-01
         -2   -1    0    0    0  501 -0.00000000000E+00  0.00000000000E+00  0.12779478372E+03  0.12779478374E+03  0.25500000000E-02 0. -1.
          2   -1    0    0  501    0  0.00000000000E+00 -0.00000000000E+00 -0.10607460942E+04  0.10607460942E+04  0.25500000000E-02 0.  1.
    5000001    1    1    2    0    0  0.85274638703E+02 -0.28880480734E+03 -0.58372452920E+03  0.68630554911E+03  0.19900000000E+03 0.  0.
   -5000001    1    1    2    0    0 -0.85274638703E+02  0.28880480734E+03 -0.34922678124E+03  0.50223532879E+03  0.19900000000E+03 0.  0.
<mgrwt>
<rscale>  0 0.73636355E+03</rscale>
<asrwt>0</asrwt>
<pdfrwt beam="1">  1        2 0.15153515E+00 0.73636355E+03</pdfrwt>
<pdfrwt beam="2">  1       -2 0.18256398E-01 0.73636355E+03</pdfrwt>
<totfact> 0.64793099E+02</totfact>
</mgrwt>
</event>
<event>
 4    1  0.1760335E-005  0.4430389E+03  0.7818608E-02  0.1029818E+00
         -2   -1    0    0    0  501 -0.00000000000E+00  0.00000000000E+00  0.17741802483E+02  0.17741802666E+02  0.25500000000E-02 0.  1.
          2   -1    0    0  501    0  0.00000000000E+00 -0.00000000000E+00 -0.27658328793E+04  0.27658328793E+04  0.25500000000E-02 0. -1.
    5000001    1    1    2    0    0  0.46017358576E+02  0.56734551383E+02 -0.17779862379E+04  0.17905788083E+04  0.19900000000E+03 0.  0.
   -5000001    1    1    2    0    0 -0.46017358576E+02 -0.56734551383E+02 -0.97010483896E+03  0.99299587370E+03  0.19900000000E+03 0.  0.
<mgrwt>
<rscale>  0 0.44303887E+03</rscale>
<asrwt>0</asrwt>
<pdfrwt beam="1">  1        2 0.39511871E+00 0.44303887E+03</pdfrwt>
<pdfrwt beam="2">  1       -2 0.25345450E-02 0.44303887E+03</pdfrwt>
<totfact> 0.19723500E+03</totfact>
</mgrwt>
</event>
<event>
 4    1  0.1760335E-005  0.1217507E+04  0.7818608E-02  0.9097669E-01
         -2   -1    0    0    0  501 -0.00000000000E+00  0.00000000000E+00  0.10263285485E+04  0.10263285485E+04  0.25500000000E-02 0. -1.
          2   -1    0    0  501    0  0.00000000000E+00 -0.00000000000E+00 -0.36107446757E+03  0.36107446758E+03  0.25500000000E-02 0.  1.
    5000001    1    1    2    0    0  0.16020028862E+03  0.49350860194E+03  0.61583329148E+03  0.82949774898E+03  0.19900000000E+03 0.  0.
   -5000001    1    1    2    0    0 -0.16020028862E+03 -0.49350860194E+03  0.49420789476E+02  0.55790526714E+03  0.19900000000E+03 0.  0.
<mgrwt>
<rscale>  0 0.12175073E+04</rscale>
<asrwt>0</asrwt>
<pdfrwt beam="1">  1        2 0.51582067E-01 0.12175073E+04</pdfrwt>
<pdfrwt beam="2">  1       -2 0.14661836E+00 0.12175073E+04</pdfrwt>
<totfact> 0.30428710E+01</totfact>
</mgrwt>
</event>
<event>
 4    1  0.1760335E-005  0.1872582E+04  0.7818608E-02  0.8668626E-01
          2   -1    0    0  501    0  0.00000000000E+00  0.00000000000E+00  0.14425907629E+04  0.14425907629E+04  0.25500000000E-02 0.  1.
         -2   -1    0    0    0  501 -0.00000000000E+00 -0.00000000000E+00 -0.60768522224E+03  0.60768522224E+03  0.25500000000E-02 0. -1.
    5000001    1    1    2    0    0 -0.33829880835E+03 -0.83128651822E+03  0.61195178704E+03  0.11043411379E+04  0.19900000000E+03 0.  0.
   -5000001    1    1    2    0    0  0.33829880835E+03  0.83128651822E+03  0.22295375365E+03  0.94593484732E+03  0.19900000000E+03 0.  0.
<mgrwt>
<rscale>  0 0.18725823E+04</rscale>
<asrwt>0</asrwt>
<pdfrwt beam="1">  1        2 0.20608440E+00 0.18725823E+04</pdfrwt>
<pdfrwt beam="2">  1       -2 0.86812173E-01 0.18725823E+04</pdfrwt>
<totfact> 0.16970416E+01</totfact>
</mgrwt>
</event>
<event>
 4    1  0.1760335E-005  0.1573283E+04  0.7818608E-02  0.8837131E-01
          2   -1    0    0  501    0  0.00000000000E+00  0.00000000000E+00  0.16868376491E+04  0.16868376491E+04  0.25500000000E-02 0.  1.
         -2   -1    0    0    0  501 -0.00000000000E+00 -0.00000000000E+00 -0.36684324287E+03  0.36684324288E+03  0.25500000000E-02 0. -1.
    5000001    1    1    2    0    0 -0.16504341908E+03 -0.29292980489E+03  0.15512318683E+04  0.15996776269E+04  0.19900000000E+03 0.  0.
   -5000001    1    1    2    0    0  0.16504341908E+03  0.29292980489E+03 -0.23123746211E+03  0.45400326503E+03  0.19900000000E+03 0.  0.
<mgrwt>
<rscale>  0 0.15732832E+04</rscale>
<asrwt>0</asrwt>
<pdfrwt beam="1">  1        2 0.24097681E+00 0.15732832E+04</pdfrwt>
<pdfrwt beam="2">  1       -2 0.52406176E-01 0.15732832E+04</pdfrwt>
<totfact> 0.38540891E+01</totfact>
</mgrwt>
</event>
<event>
 4    1  0.1760335E-005  0.6668488E+03  0.7818608E-02  0.9775667E-01
         -2   -1    0    0    0  501 -0.00000000000E+00  0.00000000000E+00  0.84646962572E+02  0.84646962610E+02  0.25500000000E-02 0. -1.
          2   -1    0    0  501    0  0.00000000000E+00 -0.00000000000E+00 -0.13133586117E+04  0.13133586117E+04  0.25500000000E-02 0.  1.
    5000001    1    1    2    0    0 -0.26447059689E+03 -0.27907009963E+02 -0.55333119619E+03  0.64536804267E+03  0.19900000000E+03 0.  0.
   -5000001    1    1    2    0    0  0.26447059689E+03  0.27907009963E+02 -0.67538045292E+03  0.75263753162E+03  0.19900000000E+03 0.  0.
<mgrwt>
<rscale>  0 0.66684876E+03</rscale>
<asrwt>0</asrwt>
<pdfrwt beam="1">  1        2 0.18762265E+00 0.66684876E+03</pdfrwt>
<pdfrwt beam="2">  1       -2 0.12092424E-01 0.66684876E+03</pdfrwt>
<totfact> 0.93597752E+02</totfact>
</mgrwt>
</event>
<event>
 4    1  0.1760335E-005  0.5188901E+03  0.7818608E-02  0.1008963E+00
          2   -1    0    0  501    0  0.00000000000E+00  0.00000000000E+00  0.61475253238E+03  0.61475253238E+03  0.25500000000E-02 0.  1.
         -2   -1    0    0    0  501 -0.00000000000E+00 -0.00000000000E+00 -0.10949404411E+03  0.10949404414E+03  0.25500000000E-02 0. -1.
    5000001    1    1    2    0    0 -0.48381812647E+02  0.93817721611E+02  0.72970484714E+02  0.23678736521E+03  0.19900000000E+03 0.  0.
   -5000001    1    1    2    0    0  0.48381812647E+02 -0.93817721611E+02  0.43228800355E+03  0.48745921131E+03  0.19900000000E+03 0.  0.
<mgrwt>
<rscale>  0 0.51889013E+03</rscale>
<asrwt>0</asrwt>
<pdfrwt beam="1">  1        2 0.87821790E-01 0.51889013E+03</pdfrwt>
<pdfrwt beam="2">  1       -2 0.15642006E-01 0.51889013E+03</pdfrwt>
<totfact> 0.17161678E+03</totfact>
</mgrwt>
</event>
<event>
 4    1  0.1760335E-005  0.6765838E+03  0.7818608E-02  0.9758137E-01
         -2   -1    0    0    0  501 -0.00000000000E+00  0.00000000000E+00  0.34677152048E+03  0.34677152049E+03  0.25500000000E-02 0. -1.
          2   -1    0    0  501    0  0.00000000000E+00 -0.00000000000E+00 -0.33001960888E+03  0.33001960889E+03  0.25500000000E-02 0.  1.
    5000001    1    1    2    0    0 -0.56464047792E+02 -0.26184734179E+03 -0.47212492973E+02  0.33701964125E+03  0.19900000000E+03 0.  0.
   -5000001    1    1    2    0    0  0.56464047792E+02  0.26184734179E+03  0.63964404577E+02  0.33977148813E+03  0.19900000000E+03 0.  0.
<mgrwt>
<rscale>  0 0.67658378E+03</rscale>
<asrwt>0</asrwt>
<pdfrwt beam="1">  1        2 0.47145658E-01 0.67658378E+03</pdfrwt>
<pdfrwt beam="2">  1       -2 0.49538789E-01 0.67658378E+03</pdfrwt>
<totfact> 0.41691585E+02</totfact>
</mgrwt>
</event>
<event>
 4    1  0.1760335E-005  0.5154872E+03  0.7818608E-02  0.1009814E+00
          2   -1    0    0  501    0  0.00000000000E+00  0.00000000000E+00  0.42308597541E+03  0.42308597542E+03  0.25500000000E-02 0.  1.
         -2   -1    0    0    0  501 -0.00000000000E+00 -0.00000000000E+00 -0.15701714177E+03  0.15701714179E+03  0.25500000000E-02 0. -1.
    5000001    1    1    2    0    0  0.78947826819E+02 -0.14043441821E+03  0.99723973922E+02  0.27477346334E+03  0.19900000000E+03 0.  0.
   -5000001    1    1    2    0    0 -0.78947826819E+02  0.14043441821E+03  0.16634485972E+03  0.30532965387E+03  0.19900000000E+03 0.  0.
<mgrwt>
<rscale>  0 0.51548715E+03</rscale>
<asrwt>0</asrwt>
<pdfrwt beam="1">  1        2 0.60440854E-01 0.51548715E+03</pdfrwt>
<pdfrwt beam="2">  1       -2 0.22431020E-01 0.51548715E+03</pdfrwt>
<totfact> 0.14114225E+03</totfact>
</mgrwt>
</event>
<event>
 4    1  0.1760335E-005  0.6138697E+03  0.7818608E-02  0.9877041E-01
         -2   -1    0    0    0  501 -0.00000000000E+00  0.00000000000E+00  0.13336389486E+03  0.13336389488E+03  0.25500000000E-02 0. -1.
          2   -1    0    0  501    0  0.00000000000E+00 -0.00000000000E+00 -0.70640564366E+03  0.70640564366E+03  0.25500000000E-02 0.  1.
    5000001    1    1    2    0    0 -0.15416113844E+03  0.17365279578E+03 -0.32237842167E+03  0.44435323431E+03  0.19900000000E+03 0.  0.
   -5000001    1    1    2    0    0  0.15416113844E+03 -0.17365279578E+03 -0.25066332713E+03  0.39541630423E+03  0.19900000000E+03 0.  0.
<mgrwt>
<rscale>  0 0.61386972E+03</rscale>
<asrwt>0</asrwt>
<pdfrwt beam="1">  1        2 0.10091509E+00 0.61386972E+03</pdfrwt>
<pdfrwt beam="2">  1       -2 0.19051985E-01 0.61386972E+03</pdfrwt>
<totfact> 0.10362062E+03</totfact>
</mgrwt>
</event>
<event>
 4    1  0.1760335E-005  0.6166653E+03  0.7818608E-02  0.9871422E-01
          2   -1    0    0  501    0  0.00000000000E+00  0.00000000000E+00  0.25737867291E+03  0.25737867292E+03  0.25500000000E-02 0.  1.
         -2   -1    0    0    0  501 -0.00000000000E+00 -0.00000000000E+00 -0.36937408445E+03  0.36937408446E+03  0.25500000000E-02 0. -1.
    5000001    1    1    2    0    0  0.17812691253E+03 -0.15311940213E+03 -0.38592638941E+02  0.31026624060E+03  0.19900000000E+03 0.  0.
   -5000001    1    1    2    0    0 -0.17812691253E+03  0.15311940213E+03 -0.73402772602E+02  0.31648651678E+03  0.19900000000E+03 0.  0.
<mgrwt>
<rscale>  0 0.61666526E+03</rscale>
<asrwt>0</asrwt>
<pdfrwt beam="1">  1        2 0.36768382E-01 0.61666526E+03</pdfrwt>
<pdfrwt beam="2">  1       -2 0.52767726E-01 0.61666526E+03</pdfrwt>
<totfact> 0.48338634E+02</totfact>
</mgrwt>
</event>
<event>
 4    1  0.1760335E-005  0.7775116E+03  0.7818608E-02  0.9593151E-01
         -2   -1    0    0    0  501 -0.00000000000E+00  0.00000000000E+00  0.26724726643E+03  0.26724726644E+03  0.25500000000E-02 0. -1.
          2   -1    0    0  501    0  0.00000000000E+00 -0.00000000000E+00 -0.56551027056E+03  0.56551027056E+03  0.25500000000E-02 0.  1.
    5000001    1    1    2    0    0 -0.57107048337E+02  0.30750012628E+03 -0.23710430111E+02  0.37145757110E+03  0.19900000000E+03 0.  0.
   -5000001    1    1    2    0    0  0.57107048337E+02 -0.30750012628E+03 -0.27455257402E+03  0.46129996590E+03  0.19900000000E+03 0.  0.
<mgrwt>
<rscale>  0 0.77751160E+03</rscale>
<asrwt>0</asrwt>
<pdfrwt beam="1">  1        2 0.80787182E-01 0.77751160E+03</pdfrwt>
<pdfrwt beam="2">  1       -2 0.38178181E-01 0.77751160E+03</pdfrwt>
<totfact> 0.37884971E+02</totfact>
</mgrwt>
</event>
<event>
 4    1  0.1760335E-005  0.9463423E+03  0.7818608E-02  0.9369436E-01
          2   -1    0    0  501    0  0.00000000000E+00  0.00000000000E+00  0.22922365263E+04  0.22922365263E+04  0.25500000000E-02 0.  1.
         -2   -1    0    0    0  501 -0.00000000000E+00 -0.00000000000E+00 -0.97673566051E+02  0.97673566084E+02  0.25500000000E-02 0. -1.
    5000001    1    1    2    0    0 -0.15337217140E+03 -0.30485494263E+03  0.43955491670E+03  0.59098991853E+03  0.19900000000E+03 0.  0.
   -5000001    1    1    2    0    0  0.15337217140E+03  0.30485494263E+03  0.17550080436E+04  0.17989201739E+04  0.19900000000E+03 0.  0.
<mgrwt>
<rscale>  0 0.94634225E+03</rscale>
<asrwt>0</asrwt>
<pdfrwt beam="1">  1        2 0.32746229E+00 0.94634225E+03</pdfrwt>
<pdfrwt beam="2">  1       -2 0.13953370E-01 0.94634225E+03</pdfrwt>
<totfact> 0.22668378E+02</totfact>
</mgrwt>
</event>
<event>
 4    1  0.1760335E-005  0.6602409E+03  0.7818608E-02  0.9787750E-01
          2   -1    0    0  501    0  0.00000000000E+00  0.00000000000E+00  0.19810578227E+04  0.19810578227E+04  0.25500000000E-02 0.  1.
         -2   -1    0    0    0  501 -0.00000000000E+00 -0.00000000000E+00 -0.55010761051E+02  0.55010761110E+02  0.25500000000E-02 0. -1.
    5000001    1    1    2    0    0 -0.20220102509E+03  0.16878776550E+03  0.95690677809E+03  0.10122480656E+04  0.19900000000E+03 0.  0.
   -5000001    1    1    2    0    0  0.20220102509E+03 -0.16878776550E+03  0.96914028361E+03  0.10238205183E+04  0.19900000000E+03 0.  0.
<mgrwt>
<rscale>  0 0.66024086E+03</rscale>
<asrwt>0</asrwt>
<pdfrwt beam="1">  1        2 0.28300828E+00 0.66024086E+03</pdfrwt>
<pdfrwt beam="2">  1       -2 0.78586796E-02 0.66024086E+03</pdfrwt>
<totfact> 0.85110067E+02</totfact>
</mgrwt>
</event>
<event>
 4    1  0.1760335E-005  0.6250604E+03  0.7818608E-02  0.9854736E-01
          2   -1    0    0  501    0  0.00000000000E+00  0.00000000000E+00  0.12283866306E+04  0.12283866306E+04  0.25500000000E-02 0.  1.
         -2   -1    0    0    0  501 -0.00000000000E+00 -0.00000000000E+00 -0.79514966691E+02  0.79514966732E+02  0.25500000000E-02 0. -1.
    5000001    1    1    2    0    0  0.23501389082E+03  0.18842779166E+02  0.67879686698E+03  0.74562240164E+03  0.19900000000E+03 0.  0.
   -5000001    1    1    2    0    0 -0.23501389082E+03 -0.18842779166E+02  0.47007479696E+03  0.56227919573E+03  0.19900000000E+03 0.  0.
<mgrwt>
<rscale>  0 0.62506039E+03</rscale>
<asrwt>0</asrwt>
<pdfrwt beam="1">  1        2 0.17548380E+00 0.62506039E+03</pdfrwt>
<pdfrwt beam="2">  1       -2 0.11359282E-01 0.62506039E+03</pdfrwt>
<totfact> 0.11568806E+03</totfact>
</mgrwt>
</event>
<event>
 4    1  0.1760335E-005  0.5675199E+03  0.7818608E-02  0.9975182E-01
         -2   -1    0    0    0  501 -0.00000000000E+00  0.00000000000E+00  0.21563159943E+02  0.21563160093E+02  0.25500000000E-02 0. -1.
          2   -1    0    0  501    0  0.00000000000E+00 -0.00000000000E+00 -0.37341331773E+04  0.37341331773E+04  0.25500000000E-02 0.  1.
    5000001    1    1    2    0    0 -0.30392780050E+02 -0.18818672998E+03 -0.14083887652E+04  0.14350950772E+04  0.19900000000E+03 0.  0.
   -5000001    1    1    2    0    0  0.30392780050E+02  0.18818672998E+03 -0.23041812521E+04  0.23206012602E+04  0.19900000000E+03 0.  0.
<mgrwt>
<rscale>  0 0.56751991E+03</rscale>
<asrwt>0</asrwt>
<pdfrwt beam="1">  1        2 0.53344718E+00 0.56751991E+03</pdfrwt>
<pdfrwt beam="2">  1       -2 0.30804538E-02 0.56751991E+03</pdfrwt>
<totfact> 0.40995133E+02</totfact>
</mgrwt>
</event>
<event>
 4    1  0.1760335E-005  0.5541217E+03  0.7818608E-02  0.1000544E+00
          2   -1    0    0  501    0  0.00000000000E+00  0.00000000000E+00  0.21668027713E+04  0.21668027713E+04  0.25500000000E-02 0.  1.
         -2   -1    0    0    0  501 -0.00000000000E+00 -0.00000000000E+00 -0.35426721733E+02  0.35426721825E+02  0.25500000000E-02 0. -1.
    5000001    1    1    2    0    0 -0.87251304873E+01  0.17737768301E+03  0.76767740724E+03  0.81269217538E+03  0.19900000000E+03 0.  0.
   -5000001    1    1    2    0    0  0.87251304873E+01 -0.17737768301E+03  0.13636986423E+04  0.13895373177E+04  0.19900000000E+03 0.  0.
<mgrwt>
<rscale>  0 0.55412172E+03</rscale>
<asrwt>0</asrwt>
<pdfrwt beam="1">  1        2 0.30954330E+00 0.55412172E+03</pdfrwt>
<pdfrwt beam="2">  1       -2 0.50609595E-02 0.55412172E+03</pdfrwt>
<totfact> 0.13790393E+03</totfact>
</mgrwt>
</event>
<event>
 4    1  0.1760335E-005  0.1252587E+04  0.7818608E-02  0.9068033E-01
         -2   -1    0    0    0  501 -0.00000000000E+00  0.00000000000E+00  0.19966147056E+03  0.19966147058E+03  0.25500000000E-02 0. -1.
          2   -1    0    0  501    0  0.00000000000E+00 -0.00000000000E+00 -0.19645419542E+04  0.19645419542E+04  0.25500000000E-02 0.  1.
    5000001    1    1    2    0    0 -0.45450437923E+03  0.16174633590E+03 -0.14807294478E+04  0.15699989826E+04  0.19900000000E+03 0.  0.
   -5000001    1    1    2    0    0  0.45450437923E+03 -0.16174633590E+03 -0.28415103589E+03  0.59420444218E+03  0.19900000000E+03 0.  0.
<mgrwt>
<rscale>  0 0.12525867E+04</rscale>
<asrwt>0</asrwt>
<pdfrwt beam="1">  1        2 0.28064884E+00 0.12525867E+04</pdfrwt>
<pdfrwt beam="2">  1       -2 0.28523068E-01 0.12525867E+04</pdfrwt>
<totfact> 0.92727693E+01</totfact>
</mgrwt>
</event>
<event>
 4    1  0.1760335E-005  0.4896129E+03  0.7818608E-02  0.1016526E+00
         -2   -1    0    0    0  501 -0.00000000000E+00  0.00000000000E+00  0.36745726923E+02  0.36745727011E+02  0.25500000000E-02 0. -1.
          2   -1    0    0  501    0  0.00000000000E+00 -0.00000000000E+00 -0.16309435060E+04  0.16309435060E+04  0.25500000000E-02 0.  1.
    5000001    1    1    2    0    0 -0.13868646776E+03  0.32633486189E+02 -0.81585555282E+03  0.85177471424E+03  0.19900000000E+03 0.  0.
   -5000001    1    1    2    0    0  0.13868646776E+03 -0.32633486189E+02 -0.77834222624E+03  0.81591451875E+03  0.19900000000E+03 0.  0.
<mgrwt>
<rscale>  0 0.48961293E+03</rscale>
<asrwt>0</asrwt>
<pdfrwt beam="1">  1        2 0.23299188E+00 0.48961293E+03</pdfrwt>
<pdfrwt beam="2">  1       -2 0.52493906E-02 0.48961293E+03</pdfrwt>
<totfact> 0.24273079E+03</totfact>
</mgrwt>
</event>
<event>
 4    1  0.1760335E-005  0.6752140E+03  0.7818608E-02  0.9760584E-01
          2   -1    0    0  501    0  0.00000000000E+00  0.00000000000E+00  0.11399226124E+04  0.11399226124E+04  0.25500000000E-02 0.  1.
         -2   -1    0    0    0  501 -0.00000000000E+00 -0.00000000000E+00 -0.99987909929E+02  0.99987909961E+02  0.25500000000E-02 0. -1.
    5000001    1    1    2    0    0  0.11457024528E+03 -0.10198768263E+03  0.93405560249E+03  0.96725834040E+03  0.19900000000E+03 0.  0.
   -5000001    1    1    2    0    0 -0.11457024528E+03  0.10198768263E+03  0.10587909995E+03  0.27265218194E+03  0.19900000000E+03 0.  0.
<mgrwt>
<rscale>  0 0.67521398E+03</rscale>
<asrwt>0</asrwt>
<pdfrwt beam="1">  1        2 0.16284608E+00 0.67521398E+03</pdfrwt>
<pdfrwt beam="2">  1       -2 0.14283987E-01 0.67521398E+03</pdfrwt>
<totfact> 0.88627204E+02</totfact>
</mgrwt>
</event>
<event>
 4    1  0.1760335E-005  0.7877084E+03  0.7818608E-02  0.9577981E-01
          2   -1    0    0  501    0  0.00000000000E+00  0.00000000000E+00  0.58604489311E+03  0.58604489312E+03  0.25500000000E-02 0.  1.
         -2   -1    0    0    0  501 -0.00000000000E+00 -0.00000000000E+00 -0.26469156085E+03  0.26469156086E+03  0.25500000000E-02 0. -1.
    5000001    1    1    2    0    0  0.26422581435E+03 -0.34463788897E+02  0.38854973837E+03  0.51144396849E+03  0.19900000000E+03 0.  0.
   -5000001    1    1    2    0    0 -0.26422581435E+03  0.34463788897E+02 -0.67196406110E+02  0.33929248549E+03  0.19900000000E+03 0.  0.
<mgrwt>
<rscale>  0 0.78770842E+03</rscale>
<asrwt>0</asrwt>
<pdfrwt beam="1">  1        2 0.83720699E-01 0.78770842E+03</pdfrwt>
<pdfrwt beam="2">  1       -2 0.37813080E-01 0.78770842E+03</pdfrwt>
<totfact> 0.36997231E+02</totfact>
</mgrwt>
</event>
<event>
 4    1  0.1760335E-005  0.4644742E+03  0.7818608E-02  0.1023492E+00
         -2   -1    0    0    0  501 -0.00000000000E+00  0.00000000000E+00  0.45651571590E+02  0.45651571662E+02  0.25500000000E-02 0. -1.
          2   -1    0    0  501    0  0.00000000000E+00 -0.00000000000E+00 -0.11814285979E+04  0.11814285979E+04  0.25500000000E-02 0.  1.
    5000001    1    1    2    0    0 -0.29591996447E+02  0.81514592856E+02 -0.78594689749E+03  0.81537343639E+03  0.19900000000E+03 0.  0.
   -5000001    1    1    2    0    0  0.29591996447E+02 -0.81514592856E+02 -0.34983012877E+03  0.41170673312E+03  0.19900000000E+03 0.  0.
<mgrwt>
<rscale>  0 0.46447421E+03</rscale>
<asrwt>0</asrwt>
<pdfrwt beam="1">  1        2 0.16877549E+00 0.46447421E+03</pdfrwt>
<pdfrwt beam="2">  1       -2 0.65216538E-02 0.46447421E+03</pdfrwt>
<totfact> 0.29930562E+03</totfact>
</mgrwt>
</event>
<event>
 4    1  0.1760335E-005  0.5049143E+03  0.7818608E-02  0.1012504E+00
          2   -1    0    0  501    0  0.00000000000E+00  0.00000000000E+00  0.22336750468E+04  0.22336750468E+04  0.25500000000E-02 0.  1.
         -2   -1    0    0    0  501 -0.00000000000E+00 -0.00000000000E+00 -0.28533518644E+02  0.28533518758E+02  0.25500000000E-02 0. -1.
    5000001    1    1    2    0    0 -0.13679712888E+03 -0.55778785603E+02  0.13178567651E+04  0.13409594255E+04  0.19900000000E+03 0.  0.
   -5000001    1    1    2    0    0  0.13679712888E+03  0.55778785603E+02  0.88728476305E+03  0.92124914010E+03  0.19900000000E+03 0.  0.
<mgrwt>
<rscale>  0 0.50491428E+03</rscale>
<asrwt>0</asrwt>
<pdfrwt beam="1">  1        2 0.31909656E+00 0.50491428E+03</pdfrwt>
<pdfrwt beam="2">  1       -2 0.40762154E-02 0.50491428E+03</pdfrwt>
<totfact> 0.17862643E+03</totfact>
</mgrwt>
</event>
<event>
 4    1  0.1760335E-005  0.7778152E+03  0.7818608E-02  0.9592696E-01
         -2   -1    0    0    0  501 -0.00000000000E+00  0.00000000000E+00  0.57705364264E+02  0.57705364320E+02  0.25500000000E-02 0. -1.
          2   -1    0    0  501    0  0.00000000000E+00 -0.00000000000E+00 -0.26210583668E+04  0.26210583668E+04  0.25500000000E-02 0.  1.
    5000001    1    1    2    0    0  0.29151266089E+03  0.16756714757E+02 -0.18411233315E+04  0.18747257241E+04  0.19900000000E+03 0.  0.
   -5000001    1    1    2    0    0 -0.29151266089E+03 -0.16756714757E+02 -0.72222967101E+03  0.80403800696E+03  0.19900000000E+03 0.  0.
<mgrwt>
<rscale>  0 0.77781522E+03</rscale>
<asrwt>0</asrwt>
<pdfrwt beam="1">  1        2 0.37443684E+00 0.77781522E+03</pdfrwt>
<pdfrwt beam="2">  1       -2 0.82436251E-02 0.77781522E+03</pdfrwt>
<totfact> 0.36844537E+02</totfact>
</mgrwt>
</event>
<event>
 4    1  0.1760335E-005  0.6315702E+03  0.7818608E-02  0.9841989E-01
          2   -1    0    0  501    0  0.00000000000E+00  0.00000000000E+00  0.52599801596E+03  0.52599801596E+03  0.25500000000E-02 0.  1.
         -2   -1    0    0    0  501 -0.00000000000E+00 -0.00000000000E+00 -0.18958291800E+03  0.18958291802E+03  0.25500000000E-02 0. -1.
    5000001    1    1    2    0    0 -0.22760008890E+03  0.67809662503E+02  0.99109304904E+02  0.32530540283E+03  0.19900000000E+03 0.  0.
   -5000001    1    1    2    0    0  0.22760008890E+03 -0.67809662503E+02  0.23730579305E+03  0.39027553115E+03  0.19900000000E+03 0.  0.
<mgrwt>
<rscale>  0 0.63157023E+03</rscale>
<asrwt>0</asrwt>
<pdfrwt beam="1">  1        2 0.75142572E-01 0.63157023E+03</pdfrwt>
<pdfrwt beam="2">  1       -2 0.27083275E-01 0.63157023E+03</pdfrwt>
<totfact> 0.78717423E+02</totfact>
</mgrwt>
</event>
<event>
 4    1  0.1760335E-005  0.4558210E+03  0.7818608E-02  0.1026000E+00
          2   -1    0    0  501    0  0.00000000000E+00  0.00000000000E+00  0.21730321964E+03  0.21730321965E+03  0.25500000000E-02 0.  1.
         -2   -1    0    0    0  501 -0.00000000000E+00 -0.00000000000E+00 -0.23903556574E+03  0.23903556576E+03  0.25500000000E-02 0. -1.
    5000001    1    1    2    0    0 -0.73128708583E+02  0.82346680213E+02  0.37591272118E+01  0.22747288805E+03  0.19900000000E+03 0.  0.
   -5000001    1    1    2    0    0  0.73128708583E+02 -0.82346680213E+02 -0.25491473321E+02  0.22886589736E+03  0.19900000000E+03 0.  0.
<mgrwt>
<rscale>  0 0.45582101E+03</rscale>
<asrwt>0</asrwt>
<pdfrwt beam="1">  1        2 0.31043317E-01 0.45582101E+03</pdfrwt>
<pdfrwt beam="2">  1       -2 0.34147938E-01 0.45582101E+03</pdfrwt>
<totfact> 0.13699070E+03</totfact>
</mgrwt>
</event>
<event>
 4    1  0.1760335E-005  0.4129615E+03  0.7818608E-02  0.1039382E+00
         -2   -1    0    0    0  501 -0.00000000000E+00  0.00000000000E+00  0.18012953094E+02  0.18012953274E+02  0.25500000000E-02 0. -1.
          2   -1    0    0  501    0  0.00000000000E+00 -0.00000000000E+00 -0.23668691775E+04  0.23668691775E+04  0.25500000000E-02 0.  1.
    5000001    1    1    2    0    0  0.96639140178E+01  0.50213045779E+02 -0.10562770883E+04  0.10760748247E+04  0.19900000000E+03 0.  0.
   -5000001    1    1    2    0    0 -0.96639140178E+01 -0.50213045779E+02 -0.12925791361E+04  0.13088073061E+04  0.19900000000E+03 0.  0.
<mgrwt>
<rscale>  0 0.41296152E+03</rscale>
<asrwt>0</asrwt>
<pdfrwt beam="1">  1        2 0.33812397E+00 0.41296152E+03</pdfrwt>
<pdfrwt beam="2">  1       -2 0.25732805E-02 0.41296152E+03</pdfrwt>
<totfact> 0.30878180E+03</totfact>
</mgrwt>
</event>
<event>
 4    1  0.1760335E-005  0.5932283E+03  0.7818608E-02  0.9919556E-01
          2   -1    0    0  501    0  0.00000000000E+00  0.00000000000E+00  0.62211444335E+03  0.62211444336E+03  0.25500000000E-02 0.  1.
         -2   -1    0    0    0  501 -0.00000000000E+00 -0.00000000000E+00 -0.14142085538E+03  0.14142085540E+03  0.25500000000E-02 0. -1.
    5000001    1    1    2    0    0  0.21054386031E+03  0.31298450268E+02  0.31166857376E+03  0.42666920439E+03  0.19900000000E+03 0.  0.
   -5000001    1    1    2    0    0 -0.21054386031E+03 -0.31298450268E+02  0.16902501421E+03  0.33686609437E+03  0.19900000000E+03 0.  0.
<mgrwt>
<rscale>  0 0.59322831E+03</rscale>
<asrwt>0</asrwt>
<pdfrwt beam="1">  1        2 0.88873492E-01 0.59322831E+03</pdfrwt>
<pdfrwt beam="2">  1       -2 0.20202979E-01 0.59322831E+03</pdfrwt>
<totfact> 0.10911145E+03</totfact>
</mgrwt>
</event>
<event>
 4    1  0.1760335E-005  0.6834200E+03  0.7818608E-02  0.9746014E-01
          2   -1    0    0  501    0  0.00000000000E+00  0.00000000000E+00  0.22639468258E+04  0.22639468258E+04  0.25500000000E-02 0. -1.
         -2   -1    0    0    0  501 -0.00000000000E+00 -0.00000000000E+00 -0.51576172333E+02  0.51576172396E+02  0.25500000000E-02 0.  1.
    5000001    1    1    2    0    0  0.47542255394E+02  0.27128768897E+03  0.98367531807E+03  0.10407090889E+04  0.19900000000E+03 0.  0.
   -5000001    1    1    2    0    0 -0.47542255394E+02 -0.27128768897E+03  0.12286953354E+04  0.12748139093E+04  0.19900000000E+03 0.  0.
<mgrwt>
<rscale>  0 0.68341996E+03</rscale>
<asrwt>0</asrwt>
<pdfrwt beam="1">  1        2 0.32342092E+00 0.68341996E+03</pdfrwt>
<pdfrwt beam="2">  1       -2 0.73680259E-02 0.68341996E+03</pdfrwt>
<totfact> 0.67778313E+02</totfact>
</mgrwt>
</event>
<event>
 4    1  0.1760335E-005  0.8047402E+03  0.7818608E-02  0.9553181E-01
          2   -1    0    0  501    0  0.00000000000E+00  0.00000000000E+00  0.18308372901E+04  0.18308372901E+04  0.25500000000E-02 0.  1.
         -2   -1    0    0    0  501 -0.00000000000E+00 -0.00000000000E+00 -0.88430402832E+02  0.88430402869E+02  0.25500000000E-02 0. -1.
    5000001    1    1    2    0    0  0.25278624737E+03  0.23699390190E+03  0.75848613162E+03  0.85730345168E+03  0.19900000000E+03 0.  0.
   -5000001    1    1    2    0    0 -0.25278624737E+03 -0.23699390190E+03  0.98392075564E+03  0.10619642413E+04  0.19900000000E+03 0.  0.
<mgrwt>
<rscale>  0 0.80474015E+03</rscale>
<asrwt>0</asrwt>
<pdfrwt beam="1">  1        2 0.26154816E+00 0.80474015E+03</pdfrwt>
<pdfrwt beam="2">  1       -2 0.12632916E-01 0.80474015E+03</pdfrwt>
<totfact> 0.46432409E+02</totfact>
</mgrwt>
</event>
<event>
 4    1  0.1760335E-005  0.2251583E+04  0.7818608E-02  0.8497260E-01
          2   -1    0    0  501    0  0.00000000000E+00  0.00000000000E+00  0.39897571915E+04  0.39897571915E+04  0.25500000000E-02 0.  1.
         -2   -1    0    0    0  501 -0.00000000000E+00 -0.00000000000E+00 -0.31766514640E+03  0.31766514641E+03  0.25500000000E-02 0. -1.
    5000001    1    1    2    0    0 -0.86737362361E+03  0.68693510251E+03  0.17214382643E+04  0.20560076692E+04  0.19900000000E+03 0.  0.
   -5000001    1    1    2    0    0  0.86737362361E+03 -0.68693510251E+03  0.19506537808E+04  0.22514146688E+04  0.19900000000E+03 0.  0.
<mgrwt>
<rscale>  0 0.22515833E+04</rscale>
<asrwt>0</asrwt>
<pdfrwt beam="1">  1        2 0.56996529E+00 0.22515833E+04</pdfrwt>
<pdfrwt beam="2">  1       -2 0.45380737E-01 0.22515833E+04</pdfrwt>
<totfact> 0.24454910E+00</totfact>
</mgrwt>
</event>
<event>
 4    1  0.1760335E-005  0.1669806E+04  0.7818608E-02  0.8778775E-01
         -2   -1    0    0    0  501 -0.00000000000E+00  0.00000000000E+00  0.40358148291E+03  0.40358148292E+03  0.25500000000E-02 0. -1.
          2   -1    0    0  501    0  0.00000000000E+00 -0.00000000000E+00 -0.17271934711E+04  0.17271934711E+04  0.25500000000E-02 0.  1.
    5000001    1    1    2    0    0  0.32755877531E+03  0.60208040717E+03 -0.12146022925E+04  0.14087779445E+04  0.19900000000E+03 0.  0.
   -5000001    1    1    2    0    0 -0.32755877531E+03 -0.60208040717E+03 -0.10900969566E+03  0.72199700950E+03  0.19900000000E+03 0.  0.
<mgrwt>
<rscale>  0 0.16698063E+04</rscale>
<asrwt>0</asrwt>
<pdfrwt beam="1">  1        2 0.24674192E+00 0.16698063E+04</pdfrwt>
<pdfrwt beam="2">  1       -2 0.57654498E-01 0.16698063E+04</pdfrwt>
<totfact> 0.29897131E+01</totfact>
</mgrwt>
</event>
<event>
 4    1  0.1760335E-005  0.5187040E+03  0.7818608E-02  0.1009009E+00
          2   -1    0    0  501    0  0.00000000000E+00  0.00000000000E+00  0.12123595068E+04  0.12123595069E+04  0.25500000000E-02 0.  1.
         -2   -1    0    0    0  501 -0.00000000000E+00 -0.00000000000E+00 -0.55481453135E+02  0.55481453194E+02  0.25500000000E-02 0. -1.
    5000001    1    1    2    0    0 -0.98212359123E+02  0.13274285889E+03  0.52979094275E+03  0.58953013247E+03  0.19900000000E+03 0.  0.
   -5000001    1    1    2    0    0  0.98212359123E+02 -0.13274285889E+03  0.62708711096E+03  0.67831082757E+03  0.19900000000E+03 0.  0.
<mgrwt>
<rscale>  0 0.51870403E+03</rscale>
<asrwt>0</asrwt>
<pdfrwt beam="1">  1        2 0.17319420E+00 0.51870403E+03</pdfrwt>
<pdfrwt beam="2">  1       -2 0.79259228E-02 0.51870403E+03</pdfrwt>
<totfact> 0.21149559E+03</totfact>
</mgrwt>
</event>
<event>
 4    1  0.1760335E-005  0.5421882E+03  0.7818608E-02  0.1003318E+00
          2   -1    0    0  501    0  0.00000000000E+00  0.00000000000E+00  0.18226245590E+03  0.18226245592E+03  0.25500000000E-02 0.  1.
         -2   -1    0    0    0  501 -0.00000000000E+00 -0.00000000000E+00 -0.40322074091E+03  0.40322074092E+03  0.25500000000E-02 0. -1.
    5000001    1    1    2    0    0  0.10539779349E+03  0.70762864590E+02  0.33489623851E+02  0.23840854176E+03  0.19900000000E+03 0.  0.
   -5000001    1    1    2    0    0 -0.10539779349E+03 -0.70762864590E+02 -0.25444790885E+03  0.34707465508E+03  0.19900000000E+03 0.  0.
<mgrwt>
<rscale>  0 0.54218817E+03</rscale>
<asrwt>0</asrwt>
<pdfrwt beam="1">  1        2 0.26037494E-01 0.54218817E+03</pdfrwt>
<pdfrwt beam="2">  1       -2 0.57602963E-01 0.54218817E+03</pdfrwt>
<totfact> 0.59451804E+02</totfact>
</mgrwt>
</event>
<event>
 4    1  0.1760335E-005  0.5336357E+03  0.7818608E-02  0.1005354E+00
          2   -1    0    0  501    0  0.00000000000E+00  0.00000000000E+00  0.26227420231E+04  0.26227420231E+04  0.25500000000E-02 0.  1.
         -2   -1    0    0    0  501 -0.00000000000E+00 -0.00000000000E+00 -0.27144021138E+02  0.27144021258E+02  0.25500000000E-02 0. -1.
    5000001    1    1    2    0    0 -0.15141290289E+03 -0.47543467082E+02  0.90040116163E+03  0.93568664642E+03  0.19900000000E+03 0.  0.
   -5000001    1    1    2    0    0  0.15141290289E+03  0.47543467082E+02  0.16951968403E+04  0.17141993979E+04  0.19900000000E+03 0.  0.
<mgrwt>
<rscale>  0 0.53363570E+03</rscale>
<asrwt>0</asrwt>
<pdfrwt beam="1">  1        2 0.37467746E+00 0.53363570E+03</pdfrwt>
<pdfrwt beam="2">  1       -2 0.38777170E-02 0.53363570E+03</pdfrwt>
<totfact> 0.12206261E+03</totfact>
</mgrwt>
</event>
<event>
 4    1  0.1760335E-005  0.4918834E+03  0.7818608E-02  0.1015919E+00
          2   -1    0    0  501    0  0.00000000000E+00  0.00000000000E+00  0.23601750199E+04  0.23601750199E+04  0.25500000000E-02 0.  1.
         -2   -1    0    0    0  501 -0.00000000000E+00 -0.00000000000E+00 -0.25628324346E+02  0.25628324473E+02  0.25500000000E-02 0. -1.
    5000001    1    1    2    0    0 -0.23180923258E+02  0.10371109995E+03  0.16423342483E+04  0.16577563544E+04  0.19900000000E+03 0.  0.
   -5000001    1    1    2    0    0  0.23180923258E+02 -0.10371109995E+03  0.69221244722E+03  0.72804698993E+03  0.19900000000E+03 0.  0.
<mgrwt>
<rscale>  0 0.49188345E+03</rscale>
<asrwt>0</asrwt>
<pdfrwt beam="1">  1        2 0.33716792E+00 0.49188345E+03</pdfrwt>
<pdfrwt beam="2">  1       -2 0.36611885E-02 0.49188345E+03</pdfrwt>
<totfact> 0.18191715E+03</totfact>
</mgrwt>
</event>
<event>
 4    1  0.1760335E-005  0.7751821E+03  0.7818608E-02  0.9596651E-01
         -2   -1    0    0    0  501 -0.00000000000E+00  0.00000000000E+00  0.10827235387E+03  0.10827235390E+03  0.25500000000E-02 0. -1.
          2   -1    0    0  501    0  0.00000000000E+00 -0.00000000000E+00 -0.13874901623E+04  0.13874901623E+04  0.25500000000E-02 0.  1.
    5000001    1    1    2    0    0  0.74301205171E+02 -0.24847163301E+03 -0.23778236571E+03  0.40422799871E+03  0.19900000000E+03 0.  0.
   -5000001    1    1    2    0    0 -0.74301205171E+02  0.24847163301E+03 -0.10414354427E+04  0.10915345175E+04  0.19900000000E+03 0.  0.
<mgrwt>
<rscale>  0 0.77518211E+03</rscale>
<asrwt>0</asrwt>
<pdfrwt beam="1">  1        2 0.19821287E+00 0.77518211E+03</pdfrwt>
<pdfrwt beam="2">  1       -2 0.15467480E-01 0.77518211E+03</pdfrwt>
<totfact> 0.56271318E+02</totfact>
</mgrwt>
</event>
<event>
 4    1  0.1760335E-005  0.5356836E+03  0.7818608E-02  0.1004863E+00
         -2   -1    0    0    0  501 -0.00000000000E+00  0.00000000000E+00  0.52262608546E+03  0.52262608547E+03  0.25500000000E-02 0. -1.
          2   -1    0    0  501    0  0.00000000000E+00 -0.00000000000E+00 -0.13726684919E+03  0.13726684921E+03  0.25500000000E-02 0.  1.
    5000001    1    1    2    0    0 -0.16802082570E+03 -0.15190540426E+02  0.11798633516E+03  0.28632765439E+03  0.19900000000E+03 0.  0.
   -5000001    1    1    2    0    0  0.16802082570E+03  0.15190540426E+02  0.26737290112E+03  0.37356528029E+03  0.19900000000E+03 0.  0.
<mgrwt>
<rscale>  0 0.53568362E+03</rscale>
<asrwt>0</asrwt>
<pdfrwt beam="1">  1        2 0.19609550E-01 0.53568362E+03</pdfrwt>
<pdfrwt beam="2">  1       -2 0.74660869E-01 0.53568362E+03</pdfrwt>
<totfact> 0.47329862E+02</totfact>
</mgrwt>
</event>
<event>
 4    1  0.1760335E-005  0.6175318E+03  0.7818608E-02  0.9869686E-01
          2   -1    0    0  501    0  0.00000000000E+00  0.00000000000E+00  0.49951735020E+03  0.49951735021E+03  0.25500000000E-02 0.  1.
         -2   -1    0    0    0  501 -0.00000000000E+00 -0.00000000000E+00 -0.19085696649E+03  0.19085696651E+03  0.25500000000E-02 0. -1.
    5000001    1    1    2    0    0 -0.20107255076E+02 -0.91113153239E+02 -0.88113182156E+02  0.23679282352E+03  0.19900000000E+03 0.  0.
   -5000001    1    1    2    0    0  0.20107255076E+02  0.91113153239E+02  0.39677356587E+03  0.45358149320E+03  0.19900000000E+03 0.  0.
<mgrwt>
<rscale>  0 0.61753175E+03</rscale>
<asrwt>0</asrwt>
<pdfrwt beam="1">  1        2 0.71359621E-01 0.61753175E+03</pdfrwt>
<pdfrwt beam="2">  1       -2 0.27265281E-01 0.61753175E+03</pdfrwt>
<totfact> 0.82516722E+02</totfact>
</mgrwt>
</event>
<event>
 4    1  0.1760335E-005  0.1749694E+04  0.7818608E-02  0.8733519E-01
          2   -1    0    0  501    0  0.00000000000E+00  0.00000000000E+00  0.93435261476E+03  0.93435261476E+03  0.25500000000E-02 0.  1.
         -2   -1    0    0    0  501 -0.00000000000E+00 -0.00000000000E+00 -0.81913070115E+03  0.81913070116E+03  0.25500000000E-02 0. -1.
    5000001    1    1    2    0    0  0.28525482126E+03  0.80253877717E+03  0.75457124881E+02  0.87791433500E+03  0.19900000000E+03 0.  0.
   -5000001    1    1    2    0    0 -0.28525482126E+03 -0.80253877717E+03  0.39764788722E+02  0.87556898091E+03  0.19900000000E+03 0.  0.
<mgrwt>
<rscale>  0 0.17496936E+04</rscale>
<asrwt>0</asrwt>
<pdfrwt beam="1">  1        2 0.13347895E+00 0.17496936E+04</pdfrwt>
<pdfrwt beam="2">  1       -2 0.11701867E+00 0.17496936E+04</pdfrwt>
<totfact> 0.16595034E+01</totfact>
</mgrwt>
</event>
<event>
 4    1  0.1760335E-005  0.5776894E+03  0.7818608E-02  0.9952806E-01
          2   -1    0    0  501    0  0.00000000000E+00  0.00000000000E+00  0.69488919823E+03  0.69488919824E+03  0.25500000000E-02 0.  1.
         -2   -1    0    0    0  501 -0.00000000000E+00 -0.00000000000E+00 -0.12006414166E+03  0.12006414169E+03  0.25500000000E-02 0. -1.
    5000001    1    1    2    0    0  0.56177034549E+02  0.11937761129E+03  0.58097418069E+02  0.24572989902E+03  0.19900000000E+03 0.  0.
   -5000001    1    1    2    0    0 -0.56177034549E+02 -0.11937761129E+03  0.51672763850E+03  0.56922344091E+03  0.19900000000E+03 0.  0.
<mgrwt>
<rscale>  0 0.57768945E+03</rscale>
<asrwt>0</asrwt>
<pdfrwt beam="1">  1        2 0.99269885E-01 0.57768945E+03</pdfrwt>
<pdfrwt beam="2">  1       -2 0.17152020E-01 0.57768945E+03</pdfrwt>
<totfact> 0.12671512E+03</totfact>
</mgrwt>
</event>
<event>
 4    1  0.1760335E-005  0.1018952E+04  0.7818608E-02  0.9287999E-01
         -2   -1    0    0    0  501 -0.00000000000E+00  0.00000000000E+00  0.10463307866E+04  0.10463307866E+04  0.25500000000E-02 0. -1.
          2   -1    0    0  501    0  0.00000000000E+00 -0.00000000000E+00 -0.24807254715E+03  0.24807254716E+03  0.25500000000E-02 0.  1.
    5000001    1    1    2    0    0  0.38986293807E+03 -0.49018191104E+02  0.72441500391E+03  0.84780539715E+03  0.19900000000E+03 0.  0.
   -5000001    1    1    2    0    0 -0.38986293807E+03  0.49018191104E+02  0.73843235520E+02  0.44659793660E+03  0.19900000000E+03 0.  0.
<mgrwt>
<rscale>  0 0.10189523E+04</rscale>
<asrwt>0</asrwt>
<pdfrwt beam="1">  1        2 0.35438936E-01 0.10189523E+04</pdfrwt>
<pdfrwt beam="2">  1       -2 0.14947583E+00 0.10189523E+04</pdfrwt>
<totfact> 0.44483411E+01</totfact>
</mgrwt>
</event>
<event>
 4    1  0.1760335E-005  0.5973517E+03  0.7818608E-02  0.9910916E-01
          2   -1    0    0  501    0  0.00000000000E+00  0.00000000000E+00  0.95693819041E+03  0.95693819041E+03  0.25500000000E-02 0.  1.
         -2   -1    0    0    0  501 -0.00000000000E+00 -0.00000000000E+00 -0.93221555711E+02  0.93221555746E+02  0.25500000000E-02 0. -1.
    5000001    1    1    2    0    0  0.14658509112E+03  0.14454089630E+03  0.58131126971E+03  0.64799926847E+03  0.19900000000E+03 0.  0.
   -5000001    1    1    2    0    0 -0.14658509112E+03 -0.14454089630E+03  0.28240536499E+03  0.40216047769E+03  0.19900000000E+03 0.  0.
<mgrwt>
<rscale>  0 0.59735171E+03</rscale>
<asrwt>0</asrwt>
<pdfrwt beam="1">  1        2 0.13670546E+00 0.59735171E+03</pdfrwt>
<pdfrwt beam="2">  1       -2 0.13317364E-01 0.59735171E+03</pdfrwt>
<totfact> 0.12841917E+03</totfact>
</mgrwt>
</event>
<event>
 4    1  0.1760335E-005  0.5334143E+03  0.7818608E-02  0.1005407E+00
          2   -1    0    0  501    0  0.00000000000E+00  0.00000000000E+00  0.45322522885E+03  0.45322522886E+03  0.25500000000E-02 0.  1.
         -2   -1    0    0    0  501 -0.00000000000E+00 -0.00000000000E+00 -0.15694782885E+03  0.15694782887E+03  0.25500000000E-02 0. -1.
    5000001    1    1    2    0    0 -0.13169244065E+03 -0.87986619300E+02  0.56290013375E+02  0.26048821414E+03  0.19900000000E+03 0.  0.
   -5000001    1    1    2    0    0  0.13169244065E+03  0.87986619300E+02  0.23998738662E+03  0.34968484359E+03  0.19900000000E+03 0.  0.
<mgrwt>
<rscale>  0 0.53341434E+03</rscale>
<asrwt>0</asrwt>
<pdfrwt beam="1">  1        2 0.64746460E-01 0.53341434E+03</pdfrwt>
<pdfrwt beam="2">  1       -2 0.22421119E-01 0.53341434E+03</pdfrwt>
<totfact> 0.13082416E+03</totfact>
</mgrwt>
</event>
<event>
 4    1  0.1760335E-005  0.5551184E+03  0.7818608E-02  0.1000316E+00
          2   -1    0    0  501    0  0.00000000000E+00  0.00000000000E+00  0.22381758845E+03  0.22381758846E+03  0.25500000000E-02 0.  1.
         -2   -1    0    0    0  501 -0.00000000000E+00 -0.00000000000E+00 -0.34420487051E+03  0.34420487051E+03  0.25500000000E-02 0. -1.
    5000001    1    1    2    0    0 -0.22576602105E+02  0.13024802172E+03 -0.20477160085E+03  0.31465323554E+03  0.19900000000E+03 0.  0.
   -5000001    1    1    2    0    0  0.22576602105E+02 -0.13024802172E+03  0.84384318789E+02  0.25336922343E+03  0.19900000000E+03 0.  0.
<mgrwt>
<rscale>  0 0.55511838E+03</rscale>
<asrwt>0</asrwt>
<pdfrwt beam="1">  1        2 0.31973941E-01 0.55511838E+03</pdfrwt>
<pdfrwt beam="2">  1       -2 0.49172124E-01 0.55511838E+03</pdfrwt>
<totfact> 0.65243619E+02</totfact>
</mgrwt>
</event>
<event>
 4    1  0.1760335E-005  0.5664999E+03  0.7818608E-02  0.9977454E-01
          2   -1    0    0  501    0  0.00000000000E+00  0.00000000000E+00  0.18285386474E+04  0.18285386474E+04  0.25500000000E-02 0.  1.
         -2   -1    0    0    0  501 -0.00000000000E+00 -0.00000000000E+00 -0.43876861824E+02  0.43876861898E+02  0.25500000000E-02 0. -1.
    5000001    1    1    2    0    0  0.13993257367E+03 -0.71061150347E+02  0.47426467568E+03  0.53773487414E+03  0.19900000000E+03 0.  0.
   -5000001    1    1    2    0    0 -0.13993257367E+03  0.71061150347E+02  0.13103971099E+04  0.13346806352E+04  0.19900000000E+03 0.  0.
<mgrwt>
<rscale>  0 0.56649991E+03</rscale>
<asrwt>0</asrwt>
<pdfrwt beam="1">  1        2 0.26121984E+00 0.56649991E+03</pdfrwt>
<pdfrwt beam="2">  1       -2 0.62681223E-02 0.56649991E+03</pdfrwt>
<totfact> 0.14593490E+03</totfact>
</mgrwt>
</event>
<event>
 4    1  0.1760335E-005  0.6191494E+03  0.7818608E-02  0.9866455E-01
         -2   -1    0    0    0  501 -0.00000000000E+00  0.00000000000E+00  0.10289612850E+03  0.10289612853E+03  0.25500000000E-02 0.  1.
          2   -1    0    0  501    0  0.00000000000E+00 -0.00000000000E+00 -0.93139066224E+03  0.93139066225E+03  0.25500000000E-02 0. -1.
    5000001    1    1    2    0    0 -0.15589615610E+03 -0.16259447892E+03 -0.53807733241E+03  0.61633496713E+03  0.19900000000E+03 0.  0.
   -5000001    1    1    2    0    0  0.15589615610E+03  0.16259447892E+03 -0.29041720134E+03  0.41795182365E+03  0.19900000000E+03 0.  0.
<mgrwt>
<rscale>  0 0.61914939E+03</rscale>
<asrwt>0</asrwt>
<pdfrwt beam="1">  1        2 0.13305580E+00 0.61914939E+03</pdfrwt>
<pdfrwt beam="2">  1       -2 0.14699447E-01 0.61914939E+03</pdfrwt>
<totfact> 0.11292649E+03</totfact>
</mgrwt>
</event>
<event>
 4    1  0.1760335E-005  0.4311939E+03  0.7818608E-02  0.1033483E+00
          2   -1    0    0  501    0  0.00000000000E+00  0.00000000000E+00  0.22580782044E+04  0.22580782044E+04  0.25500000000E-02 0.  1.
         -2   -1    0    0    0  501 -0.00000000000E+00 -0.00000000000E+00 -0.20584784460E+02  0.20584784618E+02  0.25500000000E-02 0. -1.
    5000001    1    1    2    0    0  0.45775326969E+02  0.58280521608E+02  0.13157016806E+04  0.13327279963E+04  0.19900000000E+03 0.  0.
   -5000001    1    1    2    0    0 -0.45775326969E+02 -0.58280521608E+02  0.92179173932E+03  0.94593499271E+03  0.19900000000E+03 0.  0.
<mgrwt>
<rscale>  0 0.43119394E+03</rscale>
<asrwt>0</asrwt>
<pdfrwt beam="1">  1        2 0.32258267E+00 0.43119394E+03</pdfrwt>
<pdfrwt beam="2">  1       -2 0.29406829E-02 0.43119394E+03</pdfrwt>
<totfact> 0.28618413E+03</totfact>
</mgrwt>
</event>
<event>
 4    1  0.1760335E-005  0.4388260E+03  0.7818608E-02  0.1031108E+00
          2   -1    0    0  501    0  0.00000000000E+00  0.00000000000E+00  0.13418564371E+04  0.13418564371E+04  0.25500000000E-02 0.  1.
         -2   -1    0    0    0  501 -0.00000000000E+00 -0.00000000000E+00 -0.35877206281E+02  0.35877206372E+02  0.25500000000E-02 0. -1.
    5000001    1    1    2    0    0  0.46658991334E+02 -0.46968493832E+02  0.45054181952E+03  0.49696280749E+03  0.19900000000E+03 0.  0.
   -5000001    1    1    2    0    0 -0.46658991334E+02  0.46968493832E+02  0.85543741133E+03  0.88077083602E+03  0.19900000000E+03 0.  0.
<mgrwt>
<rscale>  0 0.43882598E+03</rscale>
<asrwt>0</asrwt>
<pdfrwt beam="1">  1        2 0.19169378E+00 0.43882598E+03</pdfrwt>
<pdfrwt beam="2">  1       -2 0.51253152E-02 0.43882598E+03</pdfrwt>
<totfact> 0.35581378E+03</totfact>
</mgrwt>
</event>
<event>
 4    1  0.1760335E-005  0.4705657E+03  0.7818608E-02  0.1021761E+00
         -2   -1    0    0    0  501 -0.00000000000E+00  0.00000000000E+00  0.12246424609E+03  0.12246424611E+03  0.25500000000E-02 0. -1.
          2   -1    0    0  501    0  0.00000000000E+00 -0.00000000000E+00 -0.45203408110E+03  0.45203408110E+03  0.25500000000E-02 0.  1.
    5000001    1    1    2    0    0  0.67934208728E+01 -0.91659610812E+02 -0.26916286228E+03  0.34712718310E+03  0.19900000000E+03 0.  0.
   -5000001    1    1    2    0    0 -0.67934208728E+01  0.91659610812E+02 -0.60406972732E+02  0.22737114411E+03  0.19900000000E+03 0.  0.
<mgrwt>
<rscale>  0 0.47056567E+03</rscale>
<asrwt>0</asrwt>
<pdfrwt beam="1">  1        2 0.64576297E-01 0.47056567E+03</pdfrwt>
<pdfrwt beam="2">  1       -2 0.17494892E-01 0.47056567E+03</pdfrwt>
<totfact> 0.20159649E+03</totfact>
</mgrwt>
</event>
<event>
 4    1  0.1760335E-005  0.6255549E+03  0.7818608E-02  0.9853762E-01
         -2   -1    0    0    0  501 -0.00000000000E+00  0.00000000000E+00  0.10838771317E+03  0.10838771320E+03  0.25500000000E-02 0. -1.
          2   -1    0    0  501    0  0.00000000000E+00 -0.00000000000E+00 -0.90259069283E+03  0.90259069284E+03  0.25500000000E-02 0.  1.
    5000001    1    1    2    0    0  0.14041184247E+03 -0.18140820771E+03 -0.27611474024E+03  0.41044460419E+03  0.19900000000E+03 0.  0.
   -5000001    1    1    2    0    0 -0.14041184247E+03  0.18140820771E+03 -0.51808823942E+03  0.60053380185E+03  0.19900000000E+03 0.  0.
<mgrwt>
<rscale>  0 0.62555493E+03</rscale>
<asrwt>0</asrwt>
<pdfrwt beam="1">  1        2 0.12894152E+00 0.62555493E+03</pdfrwt>
<pdfrwt beam="2">  1       -2 0.15483959E-01 0.62555493E+03</pdfrwt>
<totfact> 0.10791634E+03</totfact>
</mgrwt>
</event>
<event>
 4    1  0.1760335E-005  0.5640514E+03  0.7818608E-02  0.9982929E-01
         -2   -1    0    0    0  501 -0.00000000000E+00  0.00000000000E+00  0.19256865082E+03  0.19256865084E+03  0.25500000000E-02 0. -1.
          2   -1    0    0  501    0  0.00000000000E+00 -0.00000000000E+00 -0.41303969673E+03  0.41303969674E+03  0.25500000000E-02 0.  1.
    5000001    1    1    2    0    0  0.17752614777E+03  0.77487055564E+02 -0.57442541658E+02  0.28358494762E+03  0.19900000000E+03 0.  0.
   -5000001    1    1    2    0    0 -0.17752614777E+03 -0.77487055564E+02 -0.16302850426E+03  0.32202339996E+03  0.19900000000E+03 0.  0.
<mgrwt>
<rscale>  0 0.56405141E+03</rscale>
<asrwt>0</asrwt>
<pdfrwt beam="1">  1        2 0.59005671E-01 0.56405141E+03</pdfrwt>
<pdfrwt beam="2">  1       -2 0.27509807E-01 0.56405141E+03</pdfrwt>
<totfact> 0.10058357E+03</totfact>
</mgrwt>
</event>
<event>
 4    1  0.1760335E-005  0.5041534E+03  0.7818608E-02  0.1012700E+00
         -2   -1    0    0    0  501 -0.00000000000E+00  0.00000000000E+00  0.57953334491E+03  0.57953334492E+03  0.25500000000E-02 0. -1.
          2   -1    0    0  501    0  0.00000000000E+00 -0.00000000000E+00 -0.10964455206E+03  0.10964455209E+03  0.25500000000E-02 0.  1.
    5000001    1    1    2    0    0  0.14591821374E+03  0.33733357468E+02  0.18179621489E+03  0.30835195517E+03  0.19900000000E+03 0.  0.
   -5000001    1    1    2    0    0 -0.14591821374E+03 -0.33733357468E+02  0.28809257796E+03  0.38082594185E+03  0.19900000000E+03 0.  0.
<mgrwt>
<rscale>  0 0.50415344E+03</rscale>
<asrwt>0</asrwt>
<pdfrwt beam="1">  1        2 0.15663508E-01 0.50415344E+03</pdfrwt>
<pdfrwt beam="2">  1       -2 0.82790476E-01 0.50415344E+03</pdfrwt>
<totfact> 0.49103731E+02</totfact>
</mgrwt>
</event>
<event>
 4    1  0.1760335E-005  0.1185707E+04  0.7818608E-02  0.9125460E-01
          2   -1    0    0  501    0  0.00000000000E+00  0.00000000000E+00  0.12864549134E+04  0.12864549134E+04  0.25500000000E-02 0.  1.
         -2   -1    0    0    0  501 -0.00000000000E+00 -0.00000000000E+00 -0.27321205296E+03  0.27321205297E+03  0.25500000000E-02 0. -1.
    5000001    1    1    2    0    0  0.17320618083E+03 -0.47208807044E+03  0.18709672088E+03  0.57225318723E+03  0.19900000000E+03 0.  0.
   -5000001    1    1    2    0    0 -0.17320618083E+03  0.47208807044E+03  0.82614613960E+03  0.98741377918E+03  0.19900000000E+03 0.  0.
<mgrwt>
<rscale>  0 0.11857065E+04</rscale>
<asrwt>0</asrwt>
<pdfrwt beam="1">  1        2 0.18377928E+00 0.11857065E+04</pdfrwt>
<pdfrwt beam="2">  1       -2 0.39030292E-01 0.11857065E+04</pdfrwt>
<totfact> 0.11696306E+02</totfact>
</mgrwt>
</event>
<event>
 4    1  0.1760335E-005  0.5965382E+03  0.7818608E-02  0.9912614E-01
          2   -1    0    0  501    0  0.00000000000E+00  0.00000000000E+00  0.85317558636E+02  0.85317558674E+02  0.25500000000E-02 0.  1.
         -2   -1    0    0    0  501 -0.00000000000E+00 -0.00000000000E+00 -0.10427449077E+04  0.10427449077E+04  0.25500000000E-02 0. -1.
    5000001    1    1    2    0    0  0.19881032244E+03  0.39461336923E+02 -0.30663436650E+03  0.41798131076E+03  0.19900000000E+03 0.  0.
   -5000001    1    1    2    0    0 -0.19881032244E+03 -0.39461336923E+02 -0.65079298256E+03  0.71008115562E+03  0.19900000000E+03 0.  0.
<mgrwt>
<rscale>  0 0.59653818E+03</rscale>
<asrwt>0</asrwt>
<pdfrwt beam="1">  1        2 0.12188223E-01 0.59653818E+03</pdfrwt>
<pdfrwt beam="2">  1       -2 0.14896355E+00 0.59653818E+03</pdfrwt>
<totfact> 0.16062190E+02</totfact>
</mgrwt>
</event>
<event>
 4    1  0.1760335E-005  0.4355869E+03  0.7818608E-02  0.1032109E+00
         -2   -1    0    0    0  501 -0.00000000000E+00  0.00000000000E+00  0.36598507740E+02  0.36598507828E+02  0.25500000000E-02 0. -1.
          2   -1    0    0  501    0  0.00000000000E+00 -0.00000000000E+00 -0.12960634895E+04  0.12960634895E+04  0.25500000000E-02 0.  1.
    5000001    1    1    2    0    0  0.66379114010E+02 -0.36732245123E+02 -0.76918310169E+03  0.79812222656E+03  0.19900000000E+03 0.  0.
   -5000001    1    1    2    0    0 -0.66379114010E+02  0.36732245123E+02 -0.49028188009E+03  0.53453977078E+03  0.19900000000E+03 0.  0.
<mgrwt>
<rscale>  0 0.43558691E+03</rscale>
<asrwt>0</asrwt>
<pdfrwt beam="1">  1        2 0.18515190E+00 0.43558691E+03</pdfrwt>
<pdfrwt beam="2">  1       -2 0.52283591E-02 0.43558691E+03</pdfrwt>
<totfact> 0.36506415E+03</totfact>
</mgrwt>
</event>
<event>
 4    1  0.1760335E-005  0.1208717E+04  0.7818608E-02  0.9105260E-01
         -2   -1    0    0    0  501 -0.00000000000E+00  0.00000000000E+00  0.44169270490E+03  0.44169270491E+03  0.25500000000E-02 0. -1.
          2   -1    0    0  501    0  0.00000000000E+00 -0.00000000000E+00 -0.82693104673E+03  0.82693104674E+03  0.25500000000E-02 0.  1.
    5000001    1    1    2    0    0  0.33985022589E+03  0.37885577386E+03 -0.46351706394E+03  0.71657444972E+03  0.19900000000E+03 0.  0.
   -5000001    1    1    2    0    0 -0.33985022589E+03 -0.37885577386E+03  0.78278722113E+02  0.55204930193E+03  0.19900000000E+03 0.  0.
<mgrwt>
<rscale>  0 0.12087174E+04</rscale>
<asrwt>0</asrwt>
<pdfrwt beam="1">  1        2 0.11813301E+00 0.12087174E+04</pdfrwt>
<pdfrwt beam="2">  1       -2 0.63098958E-01 0.12087174E+04</pdfrwt>
<totfact> 0.83614287E+01</totfact>
</mgrwt>
</event>
<event>
 4    1  0.1760335E-005  0.5387260E+03  0.7818608E-02  0.1004138E+00
          2   -1    0    0  501    0  0.00000000000E+00  0.00000000000E+00  0.43718770334E+03  0.43718770334E+03  0.25500000000E-02 0.  1.
         -2   -1    0    0    0  501 -0.00000000000E+00 -0.00000000000E+00 -0.16596174689E+03  0.16596174691E+03  0.25500000000E-02 0. -1.
    5000001    1    1    2    0    0  0.16130184250E+03  0.57130658050E+02  0.67758028047E+02  0.27106151857E+03  0.19900000000E+03 0.  0.
   -5000001    1    1    2    0    0 -0.16130184250E+03 -0.57130658050E+02  0.20346792840E+03  0.33208793169E+03  0.19900000000E+03 0.  0.
<mgrwt>
<rscale>  0 0.53872603E+03</rscale>
<asrwt>0</asrwt>
<pdfrwt beam="1">  1        2 0.62455386E-01 0.53872603E+03</pdfrwt>
<pdfrwt beam="2">  1       -2 0.23708821E-01 0.53872603E+03</pdfrwt>
<totfact> 0.12337299E+03</totfact>
</mgrwt>
</event>
<event>
 4    1  0.1760335E-005  0.6249162E+03  0.7818608E-02  0.9855020E-01
         -2   -1    0    0    0  501 -0.00000000000E+00  0.00000000000E+00  0.85989912820E+02  0.85989912858E+02  0.25500000000E-02 0. -1.
          2   -1    0    0  501    0  0.00000000000E+00 -0.00000000000E+00 -0.11353665380E+04  0.11353665380E+04  0.25500000000E-02 0.  1.
    5000001    1    1    2    0    0  0.19004358450E+03  0.13515769648E+03 -0.40669331222E+03  0.50929816133E+03  0.19900000000E+03 0.  0.
   -5000001    1    1    2    0    0 -0.19004358450E+03 -0.13515769648E+03 -0.64268331291E+03  0.71205828949E+03  0.19900000000E+03 0.  0.
<mgrwt>
<rscale>  0 0.62491622E+03</rscale>
<asrwt>0</asrwt>
<pdfrwt beam="1">  1        2 0.16219521E+00 0.62491622E+03</pdfrwt>
<pdfrwt beam="2">  1       -2 0.12284274E-01 0.62491622E+03</pdfrwt>
<totfact> 0.11478976E+03</totfact>
</mgrwt>
</event>
<event>
 4    1  0.1760335E-005  0.7956738E+03  0.7818608E-02  0.9566300E-01
         -2   -1    0    0    0  501 -0.00000000000E+00  0.00000000000E+00  0.10494297723E+03  0.10494297727E+03  0.25500000000E-02 0. -1.
          2   -1    0    0  501    0  0.00000000000E+00 -0.00000000000E+00 -0.15081924256E+04  0.15081924256E+04  0.25500000000E-02 0.  1.
    5000001    1    1    2    0    0  0.31179332611E+03 -0.14147244207E+03 -0.62459289199E+03  0.73955852425E+03  0.19900000000E+03 0.  0.
   -5000001    1    1    2    0    0 -0.31179332611E+03  0.14147244207E+03 -0.77865655641E+03  0.87357687865E+03  0.19900000000E+03 0.  0.
<mgrwt>
<rscale>  0 0.79567381E+03</rscale>
<asrwt>0</asrwt>
<pdfrwt beam="1">  1        2 0.21545605E+00 0.79567381E+03</pdfrwt>
<pdfrwt beam="2">  1       -2 0.14991855E-01 0.79567381E+03</pdfrwt>
<totfact> 0.51136905E+02</totfact>
</mgrwt>
</event>
<event>
 4    1  0.1760335E-005  0.4954309E+03  0.7818608E-02  0.1014978E+00
         -2   -1    0    0    0  501 -0.00000000000E+00  0.00000000000E+00  0.33891058456E+02  0.33891058552E+02  0.25500000000E-02 0.  1.
          2   -1    0    0  501    0  0.00000000000E+00 -0.00000000000E+00 -0.18105937289E+04  0.18105937289E+04  0.25500000000E-02 0. -1.
    5000001    1    1    2    0    0 -0.12957891964E+03  0.43090842523E+02 -0.10961202924E+04  0.11223761458E+04  0.19900000000E+03 0.  0.
   -5000001    1    1    2    0    0  0.12957891964E+03 -0.43090842523E+02 -0.68058237799E+03  0.72210864165E+03  0.19900000000E+03 0.  0.
<mgrwt>
<rscale>  0 0.49543088E+03</rscale>
<asrwt>0</asrwt>
<pdfrwt beam="1">  1        2 0.25865619E+00 0.49543088E+03</pdfrwt>
<pdfrwt beam="2">  1       -2 0.48415809E-02 0.49543088E+03</pdfrwt>
<totfact> 0.22320954E+03</totfact>
</mgrwt>
</event>
<event>
 4    1  0.1760335E-005  0.5681060E+03  0.7818608E-02  0.9973878E-01
          2   -1    0    0  501    0  0.00000000000E+00  0.00000000000E+00  0.85459493399E+03  0.85459493400E+03  0.25500000000E-02 0.  1.
         -2   -1    0    0    0  501 -0.00000000000E+00 -0.00000000000E+00 -0.94414461868E+02  0.94414461903E+02  0.25500000000E-02 0. -1.
    5000001    1    1    2    0    0  0.77502998683E+02 -0.18667640260E+03  0.40544229712E+03  0.49481233855E+03  0.19900000000E+03 0.  0.
   -5000001    1    1    2    0    0 -0.77502998683E+02  0.18667640260E+03  0.35473817501E+03  0.45419705735E+03  0.19900000000E+03 0.  0.
<mgrwt>
<rscale>  0 0.56810605E+03</rscale>
<asrwt>0</asrwt>
<pdfrwt beam="1">  1        2 0.12208499E+00 0.56810605E+03</pdfrwt>
<pdfrwt beam="2">  1       -2 0.13487780E-01 0.56810605E+03</pdfrwt>
<totfact> 0.14636809E+03</totfact>
</mgrwt>
</event>
<event>
 4    1  0.1760335E-005  0.6869673E+03  0.7818608E-02  0.9739783E-01
         -2   -1    0    0    0  501 -0.00000000000E+00  0.00000000000E+00  0.16489711407E+03  0.16489711409E+03  0.25500000000E-02 0. -1.
          2   -1    0    0  501    0  0.00000000000E+00 -0.00000000000E+00 -0.71548259131E+03  0.71548259131E+03  0.25500000000E-02 0.  1.
    5000001    1    1    2    0    0  0.25229068802E+03 -0.51725195158E+02 -0.13459139340E+03  0.35219586916E+03  0.19900000000E+03 0.  0.
   -5000001    1    1    2    0    0 -0.25229068802E+03  0.51725195158E+02 -0.41599408384E+03  0.52818383624E+03  0.19900000000E+03 0.  0.
<mgrwt>
<rscale>  0 0.68696729E+03</rscale>
<asrwt>0</asrwt>
<pdfrwt beam="1">  1        2 0.10221180E+00 0.68696729E+03</pdfrwt>
<pdfrwt beam="2">  1       -2 0.23556731E-01 0.68696729E+03</pdfrwt>
<totfact> 0.70130440E+02</totfact>
</mgrwt>
</event>
<event>
 4    1  0.1760335E-005  0.6706328E+03  0.7818608E-02  0.9768815E-01
         -2   -1    0    0    0  501 -0.00000000000E+00  0.00000000000E+00  0.21560055439E+03  0.21560055441E+03  0.25500000000E-02 0. -1.
          2   -1    0    0  501    0  0.00000000000E+00 -0.00000000000E+00 -0.52150651875E+03  0.52150651875E+03  0.25500000000E-02 0.  1.
    5000001    1    1    2    0    0  0.73831597316E+02  0.20994395100E+03  0.14851359108E+02  0.29891324860E+03  0.19900000000E+03 0.  0.
   -5000001    1    1    2    0    0 -0.73831597316E+02 -0.20994395100E+03 -0.32075732346E+03  0.43819382456E+03  0.19900000000E+03 0.  0.
<mgrwt>
<rscale>  0 0.67063282E+03</rscale>
<asrwt>0</asrwt>
<pdfrwt beam="1">  1        2 0.74500931E-01 0.67063282E+03</pdfrwt>
<pdfrwt beam="2">  1       -2 0.30800079E-01 0.67063282E+03</pdfrwt>
<totfact> 0.62705650E+02</totfact>
</mgrwt>
</event>
<event>
 4    1  0.1760335E-005  0.5103455E+03  0.7818608E-02  0.1011113E+00
          2   -1    0    0  501    0  0.00000000000E+00  0.00000000000E+00  0.92455336276E+03  0.92455336276E+03  0.25500000000E-02 0.  1.
         -2   -1    0    0    0  501 -0.00000000000E+00 -0.00000000000E+00 -0.70426582624E+02  0.70426582670E+02  0.25500000000E-02 0. -1.
    5000001    1    1    2    0    0 -0.11938223162E+03  0.94007939908E+00  0.63393576692E+03  0.67507670494E+03  0.19900000000E+03 0.  0.
   -5000001    1    1    2    0    0  0.11938223162E+03 -0.94007939908E+00  0.22019101322E+03  0.31990324049E+03  0.19900000000E+03 0.  0.
<mgrwt>
<rscale>  0 0.51034551E+03</rscale>
<asrwt>0</asrwt>
<pdfrwt beam="1">  1        2 0.13207904E+00 0.51034551E+03</pdfrwt>
<pdfrwt beam="2">  1       -2 0.10060941E-01 0.51034551E+03</pdfrwt>
<totfact> 0.21325493E+03</totfact>
</mgrwt>
</event>
<event>
 4    1  0.1760335E-005  0.4953123E+03  0.7818608E-02  0.1015010E+00
          2   -1    0    0  501    0  0.00000000000E+00  0.00000000000E+00  0.86377263522E+03  0.86377263522E+03  0.25500000000E-02 0.  1.
         -2   -1    0    0    0  501 -0.00000000000E+00 -0.00000000000E+00 -0.71006621827E+02  0.71006621873E+02  0.25500000000E-02 0. -1.
    5000001    1    1    2    0    0  0.10152411741E+02  0.14145529223E+03  0.32042478417E+03  0.40297110749E+03  0.19900000000E+03 0.  0.
   -5000001    1    1    2    0    0 -0.10152411741E+02 -0.14145529223E+03  0.47234122922E+03  0.53180814960E+03  0.19900000000E+03 0.  0.
<mgrwt>
<rscale>  0 0.49531233E+03</rscale>
<asrwt>0</asrwt>
<pdfrwt beam="1">  1        2 0.12339609E+00 0.49531233E+03</pdfrwt>
<pdfrwt beam="2">  1       -2 0.10143803E-01 0.49531233E+03</pdfrwt>
<totfact> 0.23029673E+03</totfact>
</mgrwt>
</event>
<event>
 4    1  0.1760335E-005  0.6394711E+03  0.7818608E-02  0.9826739E-01
         -2   -1    0    0    0  501 -0.00000000000E+00  0.00000000000E+00  0.60300241598E+02  0.60300241652E+02  0.25500000000E-02 0. -1.
          2   -1    0    0  501    0  0.00000000000E+00 -0.00000000000E+00 -0.16953635058E+04  0.16953635058E+04  0.25500000000E-02 0.  1.
    5000001    1    1    2    0    0 -0.22864861806E+03 -0.64760785197E+02 -0.10329379287E+04  0.10784414283E+04  0.19900000000E+03 0.  0.
   -5000001    1    1    2    0    0  0.22864861806E+03  0.64760785197E+02 -0.60212533552E+03  0.67722231912E+03  0.19900000000E+03 0.  0.
<mgrwt>
<rscale>  0 0.63947112E+03</rscale>
<asrwt>0</asrwt>
<pdfrwt beam="1">  1        2 0.24219476E+00 0.63947112E+03</pdfrwt>
<pdfrwt beam="2">  1       -2 0.86143213E-02 0.63947112E+03</pdfrwt>
<totfact> 0.10261824E+03</totfact>
</mgrwt>
</event>
<event>
 4    1  0.1760335E-005  0.8190230E+03  0.7818608E-02  0.9532883E-01
         -2   -1    0    0    0  501 -0.00000000000E+00  0.00000000000E+00  0.17475454285E+04  0.17475454285E+04  0.25500000000E-02 0.  1.
          2   -1    0    0  501    0  0.00000000000E+00 -0.00000000000E+00 -0.95962983965E+02  0.95962983999E+02  0.25500000000E-02 0. -1.
    5000001    1    1    2    0    0 -0.15144008249E+03  0.31683769433E+03  0.67019731746E+03  0.78235903999E+03  0.19900000000E+03 0.  0.
   -5000001    1    1    2    0    0  0.15144008249E+03 -0.31683769433E+03  0.98138512708E+03  0.10611493725E+04  0.19900000000E+03 0.  0.
<mgrwt>
<rscale>  0 0.81902301E+03</rscale>
<asrwt>0</asrwt>
<pdfrwt beam="1">  1        2 0.13708999E-01 0.81902301E+03</pdfrwt>
<pdfrwt beam="2">  1       -2 0.24964933E+00 0.81902301E+03</pdfrwt>
<totfact> 0.29567093E+01</totfact>
</mgrwt>
</event>
<event>
 4    1  0.1760335E-005  0.5534595E+03  0.7818608E-02  0.1000696E+00
          2   -1    0    0  501    0  0.00000000000E+00  0.00000000000E+00  0.12176015065E+04  0.12176015065E+04  0.25500000000E-02 0.  1.
         -2   -1    0    0    0  501 -0.00000000000E+00 -0.00000000000E+00 -0.62893607760E+02  0.62893607811E+02  0.25500000000E-02 0. -1.
    5000001    1    1    2    0    0 -0.11672524736E+03 -0.12993605181E+03  0.39125212655E+03  0.47242712397E+03  0.19900000000E+03 0.  0.
   -5000001    1    1    2    0    0  0.11672524736E+03  0.12993605181E+03  0.76345577222E+03  0.80806799038E+03  0.19900000000E+03 0.  0.
<mgrwt>
<rscale>  0 0.55345949E+03</rscale>
<asrwt>0</asrwt>
<pdfrwt beam="1">  1        2 0.17394306E+00 0.55345949E+03</pdfrwt>
<pdfrwt beam="2">  1       -2 0.89848017E-02 0.55345949E+03</pdfrwt>
<totfact> 0.17188300E+03</totfact>
</mgrwt>
</event>
<event>
 4    1  0.1760335E-005  0.4529696E+03  0.7818608E-02  0.1026840E+00
          2   -1    0    0  501    0  0.00000000000E+00  0.00000000000E+00  0.22117276027E+03  0.22117276028E+03  0.25500000000E-02 0.  1.
         -2   -1    0    0    0  501 -0.00000000000E+00 -0.00000000000E+00 -0.23192444749E+03  0.23192444750E+03  0.25500000000E-02 0. -1.
    5000001    1    1    2    0    0 -0.10587590634E+03 -0.19494636895E+02 -0.15607205397E+02  0.22679138712E+03  0.19900000000E+03 0.  0.
   -5000001    1    1    2    0    0  0.10587590634E+03  0.19494636895E+02  0.48555181754E+01  0.22630582067E+03  0.19900000000E+03 0.  0.
<mgrwt>
<rscale>  0 0.45296962E+03</rscale>
<asrwt>0</asrwt>
<pdfrwt beam="1">  1        2 0.31596109E-01 0.45296962E+03</pdfrwt>
<pdfrwt beam="2">  1       -2 0.33132064E-01 0.45296962E+03</pdfrwt>
<totfact> 0.14213583E+03</totfact>
</mgrwt>
</event>
<event>
 4    1  0.1760335E-005  0.7987098E+03  0.7818608E-02  0.9561886E-01
         -2   -1    0    0    0  501 -0.00000000000E+00  0.00000000000E+00  0.97098657030E+02  0.97098657063E+02  0.25500000000E-02 0. -1.
          2   -1    0    0  501    0  0.00000000000E+00 -0.00000000000E+00 -0.16424980100E+04  0.16424980100E+04  0.25500000000E-02 0.  1.
    5000001    1    1    2    0    0 -0.32844957294E+03  0.73223218693E+01 -0.53460229574E+03  0.65828060352E+03  0.19900000000E+03 0.  0.
   -5000001    1    1    2    0    0  0.32844957294E+03 -0.73223218693E+01 -0.10107970572E+04  0.10813160635E+04  0.19900000000E+03 0.  0.
<mgrwt>
<rscale>  0 0.79870984E+03</rscale>
<asrwt>0</asrwt>
<pdfrwt beam="1">  1        2 0.23464256E+00 0.79870984E+03</pdfrwt>
<pdfrwt beam="2">  1       -2 0.13871238E-01 0.79870984E+03</pdfrwt>
<totfact> 0.49613556E+02</totfact>
</mgrwt>
</event>
<event>
 4    1  0.1760335E-005  0.6594902E+03  0.7818608E-02  0.9789133E-01
          2   -1    0    0  501    0  0.00000000000E+00  0.00000000000E+00  0.22006660022E+03  0.22006660024E+03  0.25500000000E-02 0.  1.
         -2   -1    0    0    0  501 -0.00000000000E+00 -0.00000000000E+00 -0.49408601178E+03  0.49408601179E+03  0.25500000000E-02 0. -1.
    5000001    1    1    2    0    0 -0.20441034731E+03  0.16195480026E+03 -0.17321570655E+03  0.37096850056E+03  0.19900000000E+03 0.  0.
   -5000001    1    1    2    0    0  0.20441034731E+03 -0.16195480026E+03 -0.10080370501E+03  0.34318411146E+03  0.19900000000E+03 0.  0.
<mgrwt>
<rscale>  0 0.65949019E+03</rscale>
<asrwt>0</asrwt>
<pdfrwt beam="1">  1        2 0.31438086E-01 0.65949019E+03</pdfrwt>
<pdfrwt beam="2">  1       -2 0.70583715E-01 0.65949019E+03</pdfrwt>
<totfact> 0.31106734E+02</totfact>
</mgrwt>
</event>
<event>
 4    1  0.1760335E-005  0.8199230E+03  0.7818608E-02  0.9531619E-01
         -2   -1    0    0    0  501 -0.00000000000E+00  0.00000000000E+00  0.56556946973E+03  0.56556946974E+03  0.25500000000E-02 0. -1.
          2   -1    0    0  501    0  0.00000000000E+00 -0.00000000000E+00 -0.29716674929E+03  0.29716674930E+03  0.25500000000E-02 0.  1.
    5000001    1    1    2    0    0  0.25096680392E+03 -0.17675438599E+03 -0.60504092236E+02  0.37079400590E+03  0.19900000000E+03 0.  0.
   -5000001    1    1    2    0    0 -0.25096680392E+03  0.17675438599E+03  0.32890681268E+03  0.49194221313E+03  0.19900000000E+03 0.  0.
<mgrwt>
<rscale>  0 0.81992302E+03</rscale>
<asrwt>0</asrwt>
<pdfrwt beam="1">  1        2 0.42452393E-01 0.81992302E+03</pdfrwt>
<pdfrwt beam="2">  1       -2 0.80795637E-01 0.81992302E+03</pdfrwt>
<totfact> 0.16402652E+02</totfact>
</mgrwt>
</event>
<event>
 4    1  0.1760335E-005  0.5091319E+03  0.7818608E-02  0.1011422E+00
         -2   -1    0    0    0  501 -0.00000000000E+00  0.00000000000E+00  0.22902787054E+02  0.22902787196E+02  0.25500000000E-02 0. -1.
          2   -1    0    0  501    0  0.00000000000E+00 -0.00000000000E+00 -0.28295163873E+04  0.28295163873E+04  0.25500000000E-02 0.  1.
    5000001    1    1    2    0    0 -0.80952649507E+02  0.13555185515E+03 -0.13103701015E+04  0.13347653127E+04  0.19900000000E+03 0.  0.
   -5000001    1    1    2    0    0  0.80952649507E+02 -0.13555185515E+03 -0.14962434987E+04  0.15176538618E+04  0.19900000000E+03 0.  0.
<mgrwt>
<rscale>  0 0.50913186E+03</rscale>
<asrwt>0</asrwt>
<pdfrwt beam="1">  1        2 0.40421640E+00 0.50913186E+03</pdfrwt>
<pdfrwt beam="2">  1       -2 0.32718285E-02 0.50913186E+03</pdfrwt>
<totfact> 0.12354629E+03</totfact>
</mgrwt>
</event>
<event>
 4    1  0.1760335E-005  0.5145087E+03  0.7818608E-02  0.1010060E+00
         -2   -1    0    0    0  501 -0.00000000000E+00  0.00000000000E+00  0.50884643133E+02  0.50884643197E+02  0.25500000000E-02 0.  1.
          2   -1    0    0  501    0  0.00000000000E+00 -0.00000000000E+00 -0.13005850214E+04  0.13005850214E+04  0.25500000000E-02 0. -1.
    5000001    1    1    2    0    0 -0.12226118959E+03  0.90718422338E+02 -0.47166104260E+03  0.53408123889E+03  0.19900000000E+03 0.  0.
   -5000001    1    1    2    0    0  0.12226118959E+03 -0.90718422338E+02 -0.77803933562E+03  0.81738842566E+03  0.19900000000E+03 0.  0.
<mgrwt>
<rscale>  0 0.51450872E+03</rscale>
<asrwt>0</asrwt>
<pdfrwt beam="1">  1        2 0.18579784E+00 0.51450872E+03</pdfrwt>
<pdfrwt beam="2">  1       -2 0.72692356E-02 0.51450872E+03</pdfrwt>
<totfact> 0.21700696E+03</totfact>
</mgrwt>
</event>
<event>
 4    1  0.1760335E-005  0.4985354E+03  0.7818608E-02  0.1014162E+00
          2   -1    0    0  501    0  0.00000000000E+00  0.00000000000E+00  0.46578403460E+03  0.46578403461E+03  0.25500000000E-02 0.  1.
         -2   -1    0    0    0  501 -0.00000000000E+00 -0.00000000000E+00 -0.13339742962E+03  0.13339742965E+03  0.25500000000E-02 0. -1.
    5000001    1    1    2    0    0  0.13337649610E+03 -0.15675917552E+02  0.85583124984E+02  0.25487348898E+03  0.19900000000E+03 0.  0.
   -5000001    1    1    2    0    0 -0.13337649610E+03  0.15675917552E+02  0.24680347999E+03  0.34430797527E+03  0.19900000000E+03 0.  0.
<mgrwt>
<rscale>  0 0.49853543E+03</rscale>
<asrwt>0</asrwt>
<pdfrwt beam="1">  1        2 0.66540578E-01 0.49853543E+03</pdfrwt>
<pdfrwt beam="2">  1       -2 0.19056775E-01 0.49853543E+03</pdfrwt>
<totfact> 0.16844958E+03</totfact>
</mgrwt>
</event>
<event>
 4    1  0.1760335E-005  0.5981841E+03  0.7818608E-02  0.9909181E-01
          2   -1    0    0  501    0  0.00000000000E+00  0.00000000000E+00  0.12500133020E+03  0.12500133022E+03  0.25500000000E-02 0.  1.
         -2   -1    0    0    0  501 -0.00000000000E+00 -0.00000000000E+00 -0.71564074172E+03  0.71564074173E+03  0.25500000000E-02 0. -1.
    5000001    1    1    2    0    0  0.20342462792E+03  0.74474164447E+02 -0.21928840715E+03  0.36690105741E+03  0.19900000000E+03 0.  0.
   -5000001    1    1    2    0    0 -0.20342462792E+03 -0.74474164447E+02 -0.37135100437E+03  0.47374101455E+03  0.19900000000E+03 0.  0.
<mgrwt>
<rscale>  0 0.59818407E+03</rscale>
<asrwt>0</asrwt>
<pdfrwt beam="1">  1        2 0.17857333E-01 0.59818407E+03</pdfrwt>
<pdfrwt beam="2">  1       -2 0.10223439E+00 0.59818407E+03</pdfrwt>
<totfact> 0.25768021E+02</totfact>
</mgrwt>
</event>
<event>
 4    1  0.1760335E-005  0.5994968E+03  0.7818608E-02  0.9906450E-01
          2   -1    0    0  501    0  0.00000000000E+00  0.00000000000E+00  0.18492131145E+04  0.18492131145E+04  0.25500000000E-02 0.  1.
         -2   -1    0    0    0  501 -0.00000000000E+00 -0.00000000000E+00 -0.48587756113E+02  0.48587756180E+02  0.25500000000E-02 0. -1.
    5000001    1    1    2    0    0 -0.21190119134E+03 -0.64246179355E+02  0.10108130997E+04  0.10537427623E+04  0.19900000000E+03 0.  0.
   -5000001    1    1    2    0    0  0.21190119134E+03  0.64246179355E+02  0.78981225868E+03  0.84405810843E+03  0.19900000000E+03 0.  0.
<mgrwt>
<rscale>  0 0.59949684E+03</rscale>
<asrwt>0</asrwt>
<pdfrwt beam="1">  1        2 0.26417330E+00 0.59949684E+03</pdfrwt>
<pdfrwt beam="2">  1       -2 0.69411081E-02 0.59949684E+03</pdfrwt>
<totfact> 0.12116517E+03</totfact>
</mgrwt>
</event>
<event>
 4    1  0.1760335E-005  0.6950599E+03  0.7818608E-02  0.9725718E-01
         -2   -1    0    0    0  501 -0.00000000000E+00  0.00000000000E+00  0.95137627078E+02  0.95137627112E+02  0.25500000000E-02 0. -1.
          2   -1    0    0  501    0  0.00000000000E+00 -0.00000000000E+00 -0.12694985697E+04  0.12694985697E+04  0.25500000000E-02 0.  1.
    5000001    1    1    2    0    0 -0.12404805175E+03 -0.21248688931E+03 -0.30513248531E+03  0.43959689588E+03  0.19900000000E+03 0.  0.
   -5000001    1    1    2    0    0  0.12404805175E+03  0.21248688931E+03 -0.86922845727E+03  0.92503930090E+03  0.19900000000E+03 0.  0.
<mgrwt>
<rscale>  0 0.69505994E+03</rscale>
<asrwt>0</asrwt>
<pdfrwt beam="1">  1        2 0.18135693E+00 0.69505994E+03</pdfrwt>
<pdfrwt beam="2">  1       -2 0.13591090E-01 0.69505994E+03</pdfrwt>
<totfact> 0.81385092E+02</totfact>
</mgrwt>
</event>
<event>
 4    1  0.1760335E-005  0.6548546E+03  0.7818608E-02  0.9797712E-01
         -2   -1    0    0    0  501 -0.00000000000E+00  0.00000000000E+00  0.19560218176E+03  0.19560218178E+03  0.25500000000E-02 0. -1.
          2   -1    0    0  501    0  0.00000000000E+00 -0.00000000000E+00 -0.54809531954E+03  0.54809531954E+03  0.25500000000E-02 0.  1.
    5000001    1    1    2    0    0 -0.11196772055E+02 -0.25916007900E+03 -0.15598432500E+03  0.36224497774E+03  0.19900000000E+03 0.  0.
   -5000001    1    1    2    0    0  0.11196772055E+02  0.25916007900E+03 -0.19650881277E+03  0.38145252358E+03  0.19900000000E+03 0.  0.
<mgrwt>
<rscale>  0 0.65485461E+03</rscale>
<asrwt>0</asrwt>
<pdfrwt beam="1">  1        2 0.78299330E-01 0.65485461E+03</pdfrwt>
<pdfrwt beam="2">  1       -2 0.27943169E-01 0.65485461E+03</pdfrwt>
<totfact> 0.70874616E+02</totfact>
</mgrwt>
</event>
<event>
 4    1  0.1760335E-005  0.4744801E+03  0.7818608E-02  0.1020663E+00
         -2   -1    0    0    0  501 -0.00000000000E+00  0.00000000000E+00  0.97988838031E+02  0.97988838064E+02  0.25500000000E-02 0. -1.
          2   -1    0    0  501    0  0.00000000000E+00 -0.00000000000E+00 -0.57438012412E+03  0.57438012412E+03  0.25500000000E-02 0.  1.
    5000001    1    1    2    0    0  0.11732286970E+03  0.45858168933E+02 -0.19776051532E+03  0.30753511805E+03  0.19900000000E+03 0.  0.
   -5000001    1    1    2    0    0 -0.11732286970E+03 -0.45858168933E+02 -0.27863077077E+03  0.36483384414E+03  0.19900000000E+03 0.  0.
<mgrwt>
<rscale>  0 0.47448010E+03</rscale>
<asrwt>0</asrwt>
<pdfrwt beam="1">  1        2 0.82054301E-01 0.47448010E+03</pdfrwt>
<pdfrwt beam="2">  1       -2 0.13998406E-01 0.47448010E+03</pdfrwt>
<totfact> 0.22362704E+03</totfact>
</mgrwt>
</event>
<event>
 4    1  0.1760335E-005  0.5904950E+03  0.7818608E-02  0.9925325E-01
          2   -1    0    0  501    0  0.00000000000E+00  0.00000000000E+00  0.12956635636E+04  0.12956635636E+04  0.25500000000E-02 0.  1.
         -2   -1    0    0    0  501 -0.00000000000E+00 -0.00000000000E+00 -0.67279095713E+02  0.67279095761E+02  0.25500000000E-02 0. -1.
    5000001    1    1    2    0    0 -0.15141961437E+03 -0.84425358963E+02  0.30872779172E+03  0.40616424046E+03  0.19900000000E+03 0.  0.
   -5000001    1    1    2    0    0  0.15141961437E+03  0.84425358963E+02  0.91965667616E+03  0.95677841890E+03  0.19900000000E+03 0.  0.
<mgrwt>
<rscale>  0 0.59049495E+03</rscale>
<asrwt>0</asrwt>
<pdfrwt beam="1">  1        2 0.18509479E+00 0.59049495E+03</pdfrwt>
<pdfrwt beam="2">  1       -2 0.96112997E-02 0.59049495E+03</pdfrwt>
<totfact> 0.13957646E+03</totfact>
</mgrwt>
</event>
<event>
 4    1  0.1760335E-005  0.5349622E+03  0.7818608E-02  0.1005036E+00
          2   -1    0    0  501    0  0.00000000000E+00  0.00000000000E+00  0.58777441717E+02  0.58777441772E+02  0.25500000000E-02 0.  1.
         -2   -1    0    0    0  501 -0.00000000000E+00 -0.00000000000E+00 -0.12172382801E+04  0.12172382801E+04  0.25500000000E-02 0. -1.
    5000001    1    1    2    0    0 -0.78534008220E+02  0.16055295458E+03 -0.57790145464E+03  0.63680132926E+03  0.19900000000E+03 0.  0.
   -5000001    1    1    2    0    0  0.78534008220E+02 -0.16055295458E+03 -0.58055938371E+03  0.63921439258E+03  0.19900000000E+03 0.  0.
<mgrwt>
<rscale>  0 0.53496225E+03</rscale>
<asrwt>0</asrwt>
<pdfrwt beam="1">  1        2 0.83967781E-02 0.53496225E+03</pdfrwt>
<pdfrwt beam="2">  1       -2 0.17389117E+00 0.53496225E+03</pdfrwt>
<totfact> 0.17000944E+02</totfact>
</mgrwt>
</event>
<event>
 4    1  0.1760335E-005  0.9399984E+03  0.7818608E-02  0.9376918E-01
         -2   -1    0    0    0  501 -0.00000000000E+00  0.00000000000E+00  0.22691710321E+03  0.22691710322E+03  0.25500000000E-02 0. -1.
          2   -1    0    0  501    0  0.00000000000E+00 -0.00000000000E+00 -0.97347987345E+03  0.97347987346E+03  0.25500000000E-02 0.  1.
    5000001    1    1    2    0    0 -0.22624474502E+02  0.40889404443E+03 -0.52216259857E+03  0.69279216635E+03  0.19900000000E+03 0.  0.
   -5000001    1    1    2    0    0  0.22624474502E+02 -0.40889404443E+03 -0.22440017168E+03  0.50760481033E+03  0.19900000000E+03 0.  0.
<mgrwt>
<rscale>  0 0.93999837E+03</rscale>
<asrwt>0</asrwt>
<pdfrwt beam="1">  1        2 0.13906855E+00 0.93999837E+03</pdfrwt>
<pdfrwt beam="2">  1       -2 0.32416730E-01 0.93999837E+03</pdfrwt>
<totfact> 0.25820763E+02</totfact>
</mgrwt>
</event>
<event>
 4    1  0.1760335E-005  0.6343868E+03  0.7818608E-02  0.9836525E-01
         -2   -1    0    0    0  501 -0.00000000000E+00  0.00000000000E+00  0.99690122945E+02  0.99690122978E+02  0.25500000000E-02 0. -1.
          2   -1    0    0  501    0  0.00000000000E+00 -0.00000000000E+00 -0.10092440638E+04  0.10092440638E+04  0.25500000000E-02 0.  1.
    5000001    1    1    2    0    0  0.18880877590E+03  0.15921804321E+03 -0.46071147969E+03  0.55933461064E+03  0.19900000000E+03 0.  0.
   -5000001    1    1    2    0    0 -0.18880877590E+03 -0.15921804321E+03 -0.44884246111E+03  0.54959957609E+03  0.19900000000E+03 0.  0.
<mgrwt>
<rscale>  0 0.63438684E+03</rscale>
<asrwt>0</asrwt>
<pdfrwt beam="1">  1        2 0.14417772E+00 0.63438684E+03</pdfrwt>
<pdfrwt beam="2">  1       -2 0.14241447E-01 0.63438684E+03</pdfrwt>
<totfact> 0.10651709E+03</totfact>
</mgrwt>
</event>
<event>
 4    1  0.1760335E-005  0.6825793E+03  0.7818608E-02  0.9747497E-01
          2   -1    0    0  501    0  0.00000000000E+00  0.00000000000E+00  0.29812403152E+04  0.29812403152E+04  0.25500000000E-02 0.  1.
         -2   -1    0    0    0  501 -0.00000000000E+00 -0.00000000000E+00 -0.39070524157E+02  0.39070524240E+02  0.25500000000E-02 0. -1.
    5000001    1    1    2    0    0  0.97220320348E+02  0.24706106774E+03  0.11174660255E+04  0.11656853263E+04  0.19900000000E+03 0.  0.
   -5000001    1    1    2    0    0 -0.97220320348E+02 -0.24706106774E+03  0.18247037655E+04  0.18546255131E+04  0.19900000000E+03 0.  0.
<mgrwt>
<rscale>  0 0.68257929E+03</rscale>
<asrwt>0</asrwt>
<pdfrwt beam="1">  1        2 0.42589153E+00 0.68257929E+03</pdfrwt>
<pdfrwt beam="2">  1       -2 0.55815027E-02 0.68257929E+03</pdfrwt>
<totfact> 0.44287771E+02</totfact>
</mgrwt>
</event>
<event>
 4    1  0.1760335E-005  0.9392376E+03  0.7818608E-02  0.9377819E-01
         -2   -1    0    0    0  501 -0.00000000000E+00  0.00000000000E+00  0.37954942442E+03  0.37954942443E+03  0.25500000000E-02 0. -1.
          2   -1    0    0  501    0  0.00000000000E+00 -0.00000000000E+00 -0.58106213833E+03  0.58106213833E+03  0.25500000000E-02 0.  1.
    5000001    1    1    2    0    0 -0.78983729326E+02  0.38925469844E+03  0.54968730362E+02  0.44763848256E+03  0.19900000000E+03 0.  0.
   -5000001    1    1    2    0    0  0.78983729326E+02 -0.38925469844E+03 -0.25648144427E+03  0.51297308020E+03  0.19900000000E+03 0.  0.
<mgrwt>
<rscale>  0 0.93923756E+03</rscale>
<asrwt>0</asrwt>
<pdfrwt beam="1">  1        2 0.83008877E-01 0.93923756E+03</pdfrwt>
<pdfrwt beam="2">  1       -2 0.54221346E-01 0.93923756E+03</pdfrwt>
<totfact> 0.18077014E+02</totfact>
</mgrwt>
</event>
<event>
 4    1  0.1760335E-005  0.6541362E+03  0.7818608E-02  0.9799049E-01
         -2   -1    0    0    0  501 -0.00000000000E+00  0.00000000000E+00  0.14259964835E+03  0.14259964838E+03  0.25500000000E-02 0. -1.
          2   -1    0    0  501    0  0.00000000000E+00 -0.00000000000E+00 -0.75016693931E+03  0.75016693931E+03  0.25500000000E-02 0.  1.
    5000001    1    1    2    0    0  0.84261918515E+02 -0.80998409026E+02  0.12520081857E+02  0.23112456734E+03  0.19900000000E+03 0.  0.
   -5000001    1    1    2    0    0 -0.84261918515E+02  0.80998409026E+02 -0.62008737281E+03  0.66164202035E+03  0.19900000000E+03 0.  0.
<mgrwt>
<rscale>  0 0.65413620E+03</rscale>
<asrwt>0</asrwt>
<pdfrwt beam="1">  1        2 0.10716670E+00 0.65413620E+03</pdfrwt>
<pdfrwt beam="2">  1       -2 0.20371379E-01 0.65413620E+03</pdfrwt>
<totfact> 0.85527082E+02</totfact>
</mgrwt>
</event>
<event>
 4    1  0.1760335E-005  0.5440184E+03  0.7818608E-02  0.1002888E+00
          2   -1    0    0  501    0  0.00000000000E+00  0.00000000000E+00  0.18336618638E+04  0.18336618638E+04  0.25500000000E-02 0.  1.
         -2   -1    0    0    0  501 -0.00000000000E+00 -0.00000000000E+00 -0.40350414732E+02  0.40350414813E+02  0.25500000000E-02 0. -1.
    5000001    1    1    2    0    0 -0.16690876056E+03 -0.78577832825E+02  0.83175089387E+03  0.87489631363E+03  0.19900000000E+03 0.  0.
   -5000001    1    1    2    0    0  0.16690876056E+03  0.78577832825E+02  0.96156055524E+03  0.99911596502E+03  0.19900000000E+03 0.  0.
<mgrwt>
<rscale>  0 0.54401844E+03</rscale>
<asrwt>0</asrwt>
<pdfrwt beam="1">  1        2 0.26195171E+00 0.54401844E+03</pdfrwt>
<pdfrwt beam="2">  1       -2 0.57643446E-02 0.54401844E+03</pdfrwt>
<totfact> 0.16553468E+03</totfact>
</mgrwt>
</event>
<event>
 4    1  0.1760335E-005  0.4326193E+03  0.7818608E-02  0.1033036E+00
         -2   -1    0    0    0  501 -0.00000000000E+00  0.00000000000E+00  0.20803293603E+02  0.20803293759E+02  0.25500000000E-02 0. -1.
          2   -1    0    0  501    0  0.00000000000E+00 -0.00000000000E+00 -0.22491560714E+04  0.22491560714E+04  0.25500000000E-02 0.  1.
    5000001    1    1    2    0    0  0.80983693188E+02 -0.12670194638E+02 -0.10004284424E+04  0.10233166474E+04  0.19900000000E+03 0.  0.
   -5000001    1    1    2    0    0 -0.80983693188E+02  0.12670194638E+02 -0.12279243354E+04  0.12466427179E+04  0.19900000000E+03 0.  0.
<mgrwt>
<rscale>  0 0.43261925E+03</rscale>
<asrwt>0</asrwt>
<pdfrwt beam="1">  1        2 0.32130785E+00 0.43261925E+03</pdfrwt>
<pdfrwt beam="2">  1       -2 0.29719006E-02 0.43261925E+03</pdfrwt>
<totfact> 0.28455163E+03</totfact>
</mgrwt>
</event>
<event>
 4    1  0.1760335E-005  0.6209327E+03  0.7818608E-02  0.9862904E-01
         -2   -1    0    0    0  501 -0.00000000000E+00  0.00000000000E+00  0.92843309203E+02  0.92843309238E+02  0.25500000000E-02 0. -1.
          2   -1    0    0  501    0  0.00000000000E+00 -0.00000000000E+00 -0.10381940265E+04  0.10381940265E+04  0.25500000000E-02 0.  1.
    5000001    1    1    2    0    0 -0.51001392439E+01 -0.20236434085E+03 -0.24363475779E+03  0.37408051683E+03  0.19900000000E+03 0.  0.
   -5000001    1    1    2    0    0  0.51001392439E+01  0.20236434085E+03 -0.70171595947E+03  0.75695681888E+03  0.19900000000E+03 0.  0.
<mgrwt>
<rscale>  0 0.62093275E+03</rscale>
<asrwt>0</asrwt>
<pdfrwt beam="1">  1        2 0.14831343E+00 0.62093275E+03</pdfrwt>
<pdfrwt beam="2">  1       -2 0.13263331E-01 0.62093275E+03</pdfrwt>
<totfact> 0.11526811E+03</totfact>
</mgrwt>
</event>
<event>
 4    1  0.1760335E-005  0.8065341E+03  0.7818608E-02  0.9550607E-01
          2   -1    0    0  501    0  0.00000000000E+00  0.00000000000E+00  0.19777282455E+04  0.19777282455E+04  0.25500000000E-02 0.  1.
         -2   -1    0    0    0  501 -0.00000000000E+00 -0.00000000000E+00 -0.82227829454E+02  0.82227829494E+02  0.25500000000E-02 0. -1.
    5000001    1    1    2    0    0  0.28874933390E+03 -0.11692626625E+03  0.13593888393E+04  0.14087536854E+04  0.19900000000E+03 0.  0.
   -5000001    1    1    2    0    0 -0.28874933390E+03  0.11692626625E+03  0.53611157675E+03  0.65120238966E+03  0.19900000000E+03 0.  0.
<mgrwt>
<rscale>  0 0.80653407E+03</rscale>
<asrwt>0</asrwt>
<pdfrwt beam="1">  1        2 0.28253267E+00 0.80653407E+03</pdfrwt>
<pdfrwt beam="2">  1       -2 0.11746830E-01 0.80653407E+03</pdfrwt>
<totfact> 0.44107369E+02</totfact>
</mgrwt>
</event>
<event>
 4    1  0.1760335E-005  0.7908936E+03  0.7818608E-02  0.9573293E-01
         -2   -1    0    0    0  501 -0.00000000000E+00  0.00000000000E+00  0.60601987847E+02  0.60601987901E+02  0.25500000000E-02 0. -1.
          2   -1    0    0  501    0  0.00000000000E+00 -0.00000000000E+00 -0.25804130553E+04  0.25804130553E+04  0.25500000000E-02 0.  1.
    5000001    1    1    2    0    0  0.48916948642E+02  0.35453697788E+02 -0.23830525144E+04  0.23921099722E+04  0.19900000000E+03 0.  0.
   -5000001    1    1    2    0    0 -0.48916948642E+02 -0.35453697788E+02 -0.13675855304E+03  0.24890507102E+03  0.19900000000E+03 0.  0.
<mgrwt>
<rscale>  0 0.79089357E+03</rscale>
<asrwt>0</asrwt>
<pdfrwt beam="1">  1        2 0.36863037E+00 0.79089357E+03</pdfrwt>
<pdfrwt beam="2">  1       -2 0.86574284E-02 0.79089357E+03</pdfrwt>
<totfact> 0.35720980E+02</totfact>
</mgrwt>
</event>
<event>
 4    1  0.1760335E-005  0.4947247E+03  0.7818608E-02  0.1015165E+00
          2   -1    0    0  501    0  0.00000000000E+00  0.00000000000E+00  0.16846550091E+04  0.16846550091E+04  0.25500000000E-02 0.  1.
         -2   -1    0    0    0  501 -0.00000000000E+00 -0.00000000000E+00 -0.36320865888E+02  0.36320865977E+02  0.25500000000E-02 0. -1.
    5000001    1    1    2    0    0  0.10799038897E+03  0.57742613594E+02  0.54175276183E+03  0.58999422750E+03  0.19900000000E+03 0.  0.
   -5000001    1    1    2    0    0 -0.10799038897E+03 -0.57742613594E+02  0.11065813814E+04  0.11309816476E+04  0.19900000000E+03 0.  0.
<mgrwt>
<rscale>  0 0.49472469E+03</rscale>
<asrwt>0</asrwt>
<pdfrwt beam="1">  1        2 0.24066506E+00 0.49472469E+03</pdfrwt>
<pdfrwt beam="2">  1       -2 0.51886939E-02 0.49472469E+03</pdfrwt>
<totfact> 0.23208978E+03</totfact>
</mgrwt>
</event>
<event>
 4    1  0.1760335E-005  0.6929273E+03  0.7818608E-02  0.9729404E-01
          2   -1    0    0  501    0  0.00000000000E+00  0.00000000000E+00  0.28995908740E+03  0.28995908741E+03  0.25500000000E-02 0.  1.
         -2   -1    0    0    0  501 -0.00000000000E+00 -0.00000000000E+00 -0.41397934575E+03  0.41397934576E+03  0.25500000000E-02 0. -1.
    5000001    1    1    2    0    0 -0.21314154035E+03  0.16888780374E+03  0.19790628704E+02  0.33755751430E+03  0.19900000000E+03 0.  0.
   -5000001    1    1    2    0    0  0.21314154035E+03 -0.16888780374E+03 -0.14381088706E+03  0.36638091887E+03  0.19900000000E+03 0.  0.
<mgrwt>
<rscale>  0 0.69292734E+03</rscale>
<asrwt>0</asrwt>
<pdfrwt beam="1">  1        2 0.41422727E-01 0.69292734E+03</pdfrwt>
<pdfrwt beam="2">  1       -2 0.59139906E-01 0.69292734E+03</pdfrwt>
<totfact> 0.33370442E+02</totfact>
</mgrwt>
</event>
<event>
 4    1  0.1760335E-005  0.7866659E+03  0.7818608E-02  0.9579521E-01
          2   -1    0    0  501    0  0.00000000000E+00  0.00000000000E+00  0.99794921880E+03  0.99794921881E+03  0.25500000000E-02 0.  1.
         -2   -1    0    0    0  501 -0.00000000000E+00 -0.00000000000E+00 -0.15502874115E+03  0.15502874117E+03  0.25500000000E-02 0. -1.
    5000001    1    1    2    0    0 -0.28973367142E+03  0.15551971163E+03  0.29902938645E+03  0.48698208901E+03  0.19900000000E+03 0.  0.
   -5000001    1    1    2    0    0  0.28973367142E+03 -0.15551971163E+03  0.54389109120E+03  0.66599587096E+03  0.19900000000E+03 0.  0.
<mgrwt>
<rscale>  0 0.78666590E+03</rscale>
<asrwt>0</asrwt>
<pdfrwt beam="1">  1        2 0.14256418E+00 0.78666590E+03</pdfrwt>
<pdfrwt beam="2">  1       -2 0.22146963E-01 0.78666590E+03</pdfrwt>
<totfact> 0.50331968E+02</totfact>
</mgrwt>
</event>
<event>
 4    1  0.1760335E-005  0.4389603E+03  0.7818608E-02  0.1031066E+00
          2   -1    0    0  501    0  0.00000000000E+00  0.00000000000E+00  0.33752560342E+03  0.33752560343E+03  0.25500000000E-02 0.  1.
         -2   -1    0    0    0  501 -0.00000000000E+00 -0.00000000000E+00 -0.14271964159E+03  0.14271964161E+03  0.25500000000E-02 0. -1.
    5000001    1    1    2    0    0  0.41346426211E+02 -0.79513469599E+02  0.72012156498E+02  0.22982312654E+03  0.19900000000E+03 0.  0.
   -5000001    1    1    2    0    0 -0.41346426211E+02  0.79513469599E+02  0.12279380533E+03  0.25042211850E+03  0.19900000000E+03 0.  0.
<mgrwt>
<rscale>  0 0.43896029E+03</rscale>
<asrwt>0</asrwt>
<pdfrwt beam="1">  1        2 0.48217944E-01 0.43896029E+03</pdfrwt>
<pdfrwt beam="2">  1       -2 0.20388520E-01 0.43896029E+03</pdfrwt>
<totfact> 0.21366148E+03</totfact>
</mgrwt>
</event>
<event>
 4    1  0.1760335E-005  0.6582799E+03  0.7818608E-02  0.9791365E-01
         -2   -1    0    0    0  501 -0.00000000000E+00  0.00000000000E+00  0.66890222203E+02  0.66890222251E+02  0.25500000000E-02 0.  1.
          2   -1    0    0  501    0  0.00000000000E+00 -0.00000000000E+00 -0.16195655665E+04  0.16195655665E+04  0.25500000000E-02 0. -1.
    5000001    1    1    2    0    0 -0.17478659323E+03 -0.30662288209E+02 -0.28193776806E+03  0.38804694839E+03  0.19900000000E+03 0.  0.
   -5000001    1    1    2    0    0  0.17478659323E+03  0.30662288209E+02 -0.12707375762E+04  0.12984088403E+04  0.19900000000E+03 0.  0.
<mgrwt>
<rscale>  0 0.65827988E+03</rscale>
<asrwt>0</asrwt>
<pdfrwt beam="1">  1        2 0.23136648E+00 0.65827988E+03</pdfrwt>
<pdfrwt beam="2">  1       -2 0.95557470E-02 0.65827988E+03</pdfrwt>
<totfact> 0.94860857E+02</totfact>
</mgrwt>
</event>
<event>
 4    1  0.1760335E-005  0.4442907E+03  0.7818608E-02  0.1029438E+00
          2   -1    0    0  501    0  0.00000000000E+00  0.00000000000E+00  0.11619194424E+03  0.11619194427E+03  0.25500000000E-02 0.  1.
         -2   -1    0    0    0  501 -0.00000000000E+00 -0.00000000000E+00 -0.42471573252E+03  0.42471573252E+03  0.25500000000E-02 0. -1.
    5000001    1    1    2    0    0  0.91831710150E+02 -0.50772898372E-01 -0.19840197736E+03  0.29563052986E+03  0.19900000000E+03 0.  0.
   -5000001    1    1    2    0    0 -0.91831710150E+02  0.50772898372E-01 -0.11012181092E+03  0.24527714693E+03  0.19900000000E+03 0.  0.
<mgrwt>
<rscale>  0 0.44429066E+03</rscale>
<asrwt>0</asrwt>
<pdfrwt beam="1">  1        2 0.16598849E-01 0.44429066E+03</pdfrwt>
<pdfrwt beam="2">  1       -2 0.60673675E-01 0.44429066E+03</pdfrwt>
<totfact> 0.89960348E+02</totfact>
</mgrwt>
</event>
<event>
 4    1  0.1760335E-005  0.1269064E+04  0.7818608E-02  0.9054464E-01
          2   -1    0    0  501    0  0.00000000000E+00  0.00000000000E+00  0.27377653402E+04  0.27377653402E+04  0.25500000000E-02 0.  1.
         -2   -1    0    0    0  501 -0.00000000000E+00 -0.00000000000E+00 -0.14706558729E+03  0.14706558731E+03  0.25500000000E-02 0. -1.
    5000001    1    1    2    0    0  0.29699854881E+03 -0.33254883850E+03  0.37412171556E+03  0.61511375048E+03  0.19900000000E+03 0.  0.
   -5000001    1    1    2    0    0 -0.29699854881E+03  0.33254883850E+03  0.22165780373E+04  0.22697171770E+04  0.19900000000E+03 0.  0.
<mgrwt>
<rscale>  0 0.12690643E+04</rscale>
<asrwt>0</asrwt>
<pdfrwt beam="1">  1        2 0.39110931E+00 0.12690643E+04</pdfrwt>
<pdfrwt beam="2">  1       -2 0.21009371E-01 0.12690643E+04</pdfrwt>
<totfact> 0.63725987E+01</totfact>
</mgrwt>
</event>
<event>
 4    1  0.1760335E-005  0.6246793E+03  0.7818608E-02  0.9855487E-01
          2   -1    0    0  501    0  0.00000000000E+00  0.00000000000E+00  0.18906820971E+03  0.18906820973E+03  0.25500000000E-02 0.  1.
         -2   -1    0    0    0  501 -0.00000000000E+00 -0.00000000000E+00 -0.51598341102E+03  0.51598341103E+03  0.25500000000E-02 0. -1.
    5000001    1    1    2    0    0  0.16977648730E+03  0.16642101625E+03 -0.12070158451E+03  0.33270089088E+03  0.19900000000E+03 0.  0.
   -5000001    1    1    2    0    0 -0.16977648730E+03 -0.16642101625E+03 -0.20621361680E+03  0.37235072988E+03  0.19900000000E+03 0.  0.
<mgrwt>
<rscale>  0 0.62467931E+03</rscale>
<asrwt>0</asrwt>
<pdfrwt beam="1">  1        2 0.27009745E-01 0.62467931E+03</pdfrwt>
<pdfrwt beam="2">  1       -2 0.73711915E-01 0.62467931E+03</pdfrwt>
<totfact> 0.33604528E+02</totfact>
</mgrwt>
</event>
<event>
 4    1  0.1760335E-005  0.1224613E+04  0.7818608E-02  0.9091581E-01
          2   -1    0    0  501    0  0.00000000000E+00  0.00000000000E+00  0.31826848527E+04  0.31826848527E+04  0.25500000000E-02 0.  1.
         -2   -1    0    0    0  501 -0.00000000000E+00 -0.00000000000E+00 -0.11779973589E+03  0.11779973592E+03  0.25500000000E-02 0. -1.
    5000001    1    1    2    0    0 -0.50112589505E+03 -0.25868232126E+03  0.18866717590E+04  0.19791854467E+04  0.19900000000E+03 0.  0.
   -5000001    1    1    2    0    0  0.50112589505E+03  0.25868232126E+03  0.11782133577E+04  0.13212991419E+04  0.19900000000E+03 0.  0.
<mgrwt>
<rscale>  0 0.12246133E+04</rscale>
<asrwt>0</asrwt>
<pdfrwt beam="1">  1        2 0.45466926E+00 0.12246133E+04</pdfrwt>
<pdfrwt beam="2">  1       -2 0.16828534E-01 0.12246133E+04</pdfrwt>
<totfact> 0.53523460E+01</totfact>
</mgrwt>
</event>
<event>
 4    1  0.1760335E-005  0.6407508E+03  0.7818608E-02  0.9824291E-01
         -2   -1    0    0    0  501 -0.00000000000E+00  0.00000000000E+00  0.84720558748E+03  0.84720558748E+03  0.25500000000E-02 0. -1.
          2   -1    0    0  501    0  0.00000000000E+00 -0.00000000000E+00 -0.12115171489E+03  0.12115171492E+03  0.25500000000E-02 0.  1.
    5000001    1    1    2    0    0 -0.17922316685E+02  0.71454645910E+02  0.27932673796E+00  0.21219814768E+03  0.19900000000E+03 0.  0.
   -5000001    1    1    2    0    0  0.17922316685E+02 -0.71454645910E+02  0.72577454585E+03  0.75615915472E+03  0.19900000000E+03 0.  0.
<mgrwt>
<rscale>  0 0.64075084E+03</rscale>
<asrwt>0</asrwt>
<pdfrwt beam="1">  1        2 0.17307388E-01 0.64075084E+03</pdfrwt>
<pdfrwt beam="2">  1       -2 0.12102937E+00 0.64075084E+03</pdfrwt>
<totfact> 0.17757321E+02</totfact>
</mgrwt>
</event>
<event>
 4    1  0.1760335E-005  0.7452442E+03  0.7818608E-02  0.9642841E-01
         -2   -1    0    0    0  501 -0.00000000000E+00  0.00000000000E+00  0.30192427611E+03  0.30192427612E+03  0.25500000000E-02 0. -1.
          2   -1    0    0  501    0  0.00000000000E+00 -0.00000000000E+00 -0.45987434254E+03  0.45987434255E+03  0.25500000000E-02 0.  1.
    5000001    1    1    2    0    0  0.17106786053E+03 -0.20534367792E+03 -0.24946107643E+03  0.41624760374E+03  0.19900000000E+03 0.  0.
   -5000001    1    1    2    0    0 -0.17106786053E+03  0.20534367792E+03  0.91511009992E+02  0.34555101493E+03  0.19900000000E+03 0.  0.
<mgrwt>
<rscale>  0 0.74524420E+03</rscale>
<asrwt>0</asrwt>
<pdfrwt beam="1">  1        2 0.65696335E-01 0.74524420E+03</pdfrwt>
<pdfrwt beam="2">  1       -2 0.43132039E-01 0.74524420E+03</pdfrwt>
<totfact> 0.37901463E+02</totfact>
</mgrwt>
</event>
<event>
 4    1  0.1760335E-005  0.5277165E+03  0.7818608E-02  0.1006787E+00
         -2   -1    0    0    0  501 -0.00000000000E+00  0.00000000000E+00  0.11511235345E+03  0.11511235348E+03  0.25500000000E-02 0. -1.
          2   -1    0    0  501    0  0.00000000000E+00 -0.00000000000E+00 -0.60481070174E+03  0.60481070175E+03  0.25500000000E-02 0.  1.
    5000001    1    1    2    0    0  0.10702800035E+02  0.16132419073E+03 -0.32982766595E+03  0.41776468696E+03  0.19900000000E+03 0.  0.
   -5000001    1    1    2    0    0 -0.10702800035E+02 -0.16132419073E+03 -0.15987068234E+03  0.30215836827E+03  0.19900000000E+03 0.  0.
<mgrwt>
<rscale>  0 0.52771653E+03</rscale>
<asrwt>0</asrwt>
<pdfrwt beam="1">  1        2 0.86401527E-01 0.52771653E+03</pdfrwt>
<pdfrwt beam="2">  1       -2 0.16444622E-01 0.52771653E+03</pdfrwt>
<totfact> 0.16074772E+03</totfact>
</mgrwt>
</event>
<event>
 4    1  0.1760335E-005  0.6060748E+03  0.7818608E-02  0.9892882E-01
         -2   -1    0    0    0  501 -0.00000000000E+00  0.00000000000E+00  0.27010933385E+02  0.27010933506E+02  0.25500000000E-02 0. -1.
          2   -1    0    0  501    0  0.00000000000E+00 -0.00000000000E+00 -0.33997958636E+04  0.33997958636E+04  0.25500000000E-02 0.  1.
    5000001    1    1    2    0    0 -0.39121855885E+00 -0.20572174020E+03 -0.11235590064E+04  0.11594427232E+04  0.19900000000E+03 0.  0.
   -5000001    1    1    2    0    0  0.39121855885E+00  0.20572174020E+03 -0.22492259238E+04  0.22673640739E+04  0.19900000000E+03 0.  0.
<mgrwt>
<rscale>  0 0.60607478E+03</rscale>
<asrwt>0</asrwt>
<pdfrwt beam="1">  1        2 0.48568485E+00 0.60607478E+03</pdfrwt>
<pdfrwt beam="2">  1       -2 0.38587069E-02 0.60607478E+03</pdfrwt>
<totfact> 0.45983938E+02</totfact>
</mgrwt>
</event>
<event>
 4    1  0.1760335E-005  0.7244459E+03  0.7818608E-02  0.9676316E-01
          2   -1    0    0  501    0  0.00000000000E+00  0.00000000000E+00  0.56704271117E+03  0.56704271118E+03  0.25500000000E-02 0.  1.
         -2   -1    0    0    0  501 -0.00000000000E+00 -0.00000000000E+00 -0.23138551081E+03  0.23138551082E+03  0.25500000000E-02 0. -1.
    5000001    1    1    2    0    0  0.15899686954E+03 -0.25270571121E+03  0.11311749269E+03  0.37621370012E+03  0.19900000000E+03 0.  0.
   -5000001    1    1    2    0    0 -0.15899686954E+03  0.25270571121E+03  0.22253970767E+03  0.42221452188E+03  0.19900000000E+03 0.  0.
<mgrwt>
<rscale>  0 0.72444591E+03</rscale>
<asrwt>0</asrwt>
<pdfrwt beam="1">  1        2 0.81006101E-01 0.72444591E+03</pdfrwt>
<pdfrwt beam="2">  1       -2 0.33055073E-01 0.72444591E+03</pdfrwt>
<totfact> 0.49793036E+02</totfact>
</mgrwt>
</event>
<event>
 4    1  0.1760335E-005  0.5438597E+03  0.7818608E-02  0.1002925E+00
         -2   -1    0    0    0  501 -0.00000000000E+00  0.00000000000E+00  0.86823128591E+03  0.86823128591E+03  0.25500000000E-02 0. -1.
          2   -1    0    0  501    0  0.00000000000E+00 -0.00000000000E+00 -0.85168356585E+02  0.85168356623E+02  0.25500000000E-02 0.  1.
    5000001    1    1    2    0    0 -0.56654918204E+02 -0.13588440465E+03  0.58885763345E+03  0.63877121386E+03  0.19900000000E+03 0.  0.
   -5000001    1    1    2    0    0  0.56654918204E+02  0.13588440465E+03  0.19420529587E+03  0.31462842868E+03  0.19900000000E+03 0.  0.
<mgrwt>
<rscale>  0 0.54385966E+03</rscale>
<asrwt>0</asrwt>
<pdfrwt beam="1">  1        2 0.12166908E-01 0.54385966E+03</pdfrwt>
<pdfrwt beam="2">  1       -2 0.12403304E+00 0.54385966E+03</pdfrwt>
<totfact> 0.25722560E+02</totfact>
</mgrwt>
</event>
<event>
 4    1  0.1760335E-005  0.6092840E+03  0.7818608E-02  0.9886330E-01
         -2   -1    0    0    0  501 -0.00000000000E+00  0.00000000000E+00  0.56588852313E+02  0.56588852370E+02  0.25500000000E-02 0. -1.
          2   -1    0    0  501    0  0.00000000000E+00 -0.00000000000E+00 -0.16400181374E+04  0.16400181374E+04  0.25500000000E-02 0.  1.
    5000001    1    1    2    0    0  0.17469660779E+03 -0.80829086030E+02 -0.43780305464E+03  0.51800073414E+03  0.19900000000E+03 0.  0.
   -5000001    1    1    2    0    0 -0.17469660779E+03  0.80829086030E+02 -0.11456262305E+04  0.11786062556E+04  0.19900000000E+03 0.  0.
<mgrwt>
<rscale>  0 0.60928399E+03</rscale>
<asrwt>0</asrwt>
<pdfrwt beam="1">  1        2 0.23428828E+00 0.60928399E+03</pdfrwt>
<pdfrwt beam="2">  1       -2 0.80841227E-02 0.60928399E+03</pdfrwt>
<totfact> 0.12139970E+03</totfact>
</mgrwt>
</event>
<event>
 4    1  0.1760335E-005  0.5948726E+03  0.7818608E-02  0.9916101E-01
         -2   -1    0    0    0  501 -0.00000000000E+00  0.00000000000E+00  0.60430963105E+02  0.60430963159E+02  0.25500000000E-02 0. -1.
          2   -1    0    0  501    0  0.00000000000E+00 -0.00000000000E+00 -0.14639571815E+04  0.14639571815E+04  0.25500000000E-02 0.  1.
    5000001    1    1    2    0    0  0.90412739514E+02 -0.17028069906E+03 -0.97891356459E+03  0.10173705062E+04  0.19900000000E+03 0.  0.
   -5000001    1    1    2    0    0 -0.90412739514E+02  0.17028069906E+03 -0.42461265378E+03  0.50701763844E+03  0.19900000000E+03 0.  0.
<mgrwt>
<rscale>  0 0.59487257E+03</rscale>
<asrwt>0</asrwt>
<pdfrwt beam="1">  1        2 0.20913672E+00 0.59487257E+03</pdfrwt>
<pdfrwt beam="2">  1       -2 0.86329956E-02 0.59487257E+03</pdfrwt>
<totfact> 0.13488461E+03</totfact>
</mgrwt>
</event>
<event>
 4    1  0.1760335E-005  0.6114494E+03  0.7818608E-02  0.9881933E-01
          2   -1    0    0  501    0  0.00000000000E+00  0.00000000000E+00  0.87470619809E+03  0.87470619810E+03  0.25500000000E-02 0.  1.
         -2   -1    0    0    0  501 -0.00000000000E+00 -0.00000000000E+00 -0.10685597976E+03  0.10685597979E+03  0.25500000000E-02 0. -1.
    5000001    1    1    2    0    0  0.66750588857E+01  0.22179201149E+03  0.49316053625E+03  0.57623308416E+03  0.19900000000E+03 0.  0.
   -5000001    1    1    2    0    0 -0.66750588857E+01 -0.22179201149E+03  0.27468968209E+03  0.40532909372E+03  0.19900000000E+03 0.  0.
<mgrwt>
<rscale>  0 0.61144939E+03</rscale>
<asrwt>0</asrwt>
<pdfrwt beam="1">  1        2 0.12495803E+00 0.61144939E+03</pdfrwt>
<pdfrwt beam="2">  1       -2 0.15265140E-01 0.61144939E+03</pdfrwt>
<totfact> 0.11529523E+03</totfact>
</mgrwt>
</event>
<event>
 4    1  0.1760335E-005  0.4882319E+03  0.7818608E-02  0.1016897E+00
         -2   -1    0    0    0  501 -0.00000000000E+00  0.00000000000E+00  0.79895829926E+02  0.79895829967E+02  0.25500000000E-02 0. -1.
          2   -1    0    0  501    0  0.00000000000E+00 -0.00000000000E+00 -0.74587854768E+03  0.74587854768E+03  0.25500000000E-02 0.  1.
    5000001    1    1    2    0    0  0.11944292364E+03 -0.66502312381E+02 -0.39403074577E+03  0.46211513519E+03  0.19900000000E+03 0.  0.
   -5000001    1    1    2    0    0 -0.11944292364E+03  0.66502312381E+02 -0.27195197198E+03  0.36365924246E+03  0.19900000000E+03 0.  0.
<mgrwt>
<rscale>  0 0.48823185E+03</rscale>
<asrwt>0</asrwt>
<pdfrwt beam="1">  1        2 0.10655407E+00 0.48823185E+03</pdfrwt>
<pdfrwt beam="2">  1       -2 0.11413690E-01 0.48823185E+03</pdfrwt>
<totfact> 0.22913731E+03</totfact>
</mgrwt>
</event>
<event>
 4    1  0.1760335E-005  0.1134043E+04  0.7818608E-02  0.9172632E-01
          2   -1    0    0  501    0  0.00000000000E+00  0.00000000000E+00  0.51778690695E+03  0.51778690696E+03  0.25500000000E-02 0.  1.
         -2   -1    0    0    0  501 -0.00000000000E+00 -0.00000000000E+00 -0.62093756304E+03  0.62093756305E+03  0.25500000000E-02 0. -1.
    5000001    1    1    2    0    0  0.44560183389E+03 -0.13287706835E+03 -0.30894384401E+03  0.59267580381E+03  0.19900000000E+03 0.  0.
   -5000001    1    1    2    0    0 -0.44560183389E+03  0.13287706835E+03  0.20579318792E+03  0.54604866620E+03  0.19900000000E+03 0.  0.
<mgrwt>
<rscale>  0 0.11340429E+04</rscale>
<asrwt>0</asrwt>
<pdfrwt beam="1">  1        2 0.73969559E-01 0.11340429E+04</pdfrwt>
<pdfrwt beam="2">  1       -2 0.88705366E-01 0.11340429E+04</pdfrwt>
<totfact> 0.69908905E+01</totfact>
</mgrwt>
</event>
<event>
 4    1  0.1760335E-005  0.5141008E+03  0.7818608E-02  0.1010163E+00
          2   -1    0    0  501    0  0.00000000000E+00  0.00000000000E+00  0.37553485021E+02  0.37553485108E+02  0.25500000000E-02 0.  1.
         -2   -1    0    0    0  501 -0.00000000000E+00 -0.00000000000E+00 -0.17594881312E+04  0.17594881312E+04  0.25500000000E-02 0. -1.
    5000001    1    1    2    0    0  0.14108264932E+03  0.10441853650E+02 -0.58000693417E+03  0.62930309862E+03  0.19900000000E+03 0.  0.
   -5000001    1    1    2    0    0 -0.14108264932E+03 -0.10441853650E+02 -0.11419277120E+04  0.11677385177E+04  0.19900000000E+03 0.  0.
<mgrwt>
<rscale>  0 0.51410081E+03</rscale>
<asrwt>0</asrwt>
<pdfrwt beam="1">  1        2 0.53647847E-02 0.51410081E+03</pdfrwt>
<pdfrwt beam="2">  1       -2 0.25135539E+00 0.51410081E+03</pdfrwt>
<totfact> 0.99085811E+01</totfact>
</mgrwt>
</event>
<event>
 4    1  0.1760335E-005  0.1357537E+04  0.7818608E-02  0.8985143E-01
          2   -1    0    0  501    0  0.00000000000E+00  0.00000000000E+00  0.40257194720E+03  0.40257194721E+03  0.25500000000E-02 0.  1.
         -2   -1    0    0    0  501 -0.00000000000E+00 -0.00000000000E+00 -0.11444571451E+04  0.11444571451E+04  0.25500000000E-02 0. -1.
    5000001    1    1    2    0    0 -0.45415871535E+03  0.32027121962E+03 -0.75281695837E+03  0.95664422104E+03  0.19900000000E+03 0.  0.
   -5000001    1    1    2    0    0  0.45415871535E+03 -0.32027121962E+03  0.10931760460E+02  0.59038487128E+03  0.19900000000E+03 0.  0.
<mgrwt>
<rscale>  0 0.13575365E+04</rscale>
<asrwt>0</asrwt>
<pdfrwt beam="1">  1        2 0.57510279E-01 0.13575365E+04</pdfrwt>
<pdfrwt beam="2">  1       -2 0.16349388E+00 0.13575365E+04</pdfrwt>
<totfact> 0.19911547E+01</totfact>
</mgrwt>
</event>
<event>
 4    1  0.1760335E-005  0.7228718E+03  0.7818608E-02  0.9678899E-01
          2   -1    0    0  501    0  0.00000000000E+00  0.00000000000E+00  0.34960445840E+04  0.34960445840E+04  0.25500000000E-02 0.  1.
         -2   -1    0    0    0  501 -0.00000000000E+00 -0.00000000000E+00 -0.37366773413E+02  0.37366773500E+02  0.25500000000E-02 0. -1.
    5000001    1    1    2    0    0 -0.15789379731E+03  0.21945894173E+03  0.23840822692E+04  0.24076008691E+04  0.19900000000E+03 0.  0.
   -5000001    1    1    2    0    0  0.15789379731E+03 -0.21945894173E+03  0.10745955414E+04  0.11258104884E+04  0.19900000000E+03 0.  0.
<mgrwt>
<rscale>  0 0.72287179E+03</rscale>
<asrwt>0</asrwt>
<pdfrwt beam="1">  1        2 0.49943491E+00 0.72287179E+03</pdfrwt>
<pdfrwt beam="2">  1       -2 0.53381109E-02 0.72287179E+03</pdfrwt>
<totfact> 0.24092864E+02</totfact>
</mgrwt>
</event>
<event>
 4    1  0.1760335E-005  0.4679649E+03  0.7818608E-02  0.1022496E+00
         -2   -1    0    0    0  501 -0.00000000000E+00  0.00000000000E+00  0.98191113405E+02  0.98191113438E+02  0.25500000000E-02 0. -1.
          2   -1    0    0  501    0  0.00000000000E+00 -0.00000000000E+00 -0.55756349188E+03  0.55756349188E+03  0.25500000000E-02 0.  1.
    5000001    1    1    2    0    0  0.11070265058E+03  0.52605753138E+02 -0.21406083133E+03  0.31693135159E+03  0.19900000000E+03 0.  0.
   -5000001    1    1    2    0    0 -0.11070265058E+03 -0.52605753138E+02 -0.24531154714E+03  0.33882325373E+03  0.19900000000E+03 0.  0.
<mgrwt>
<rscale>  0 0.46796487E+03</rscale>
<asrwt>0</asrwt>
<pdfrwt beam="1">  1        2 0.79651925E-01 0.46796487E+03</pdfrwt>
<pdfrwt beam="2">  1       -2 0.14027302E-01 0.46796487E+03</pdfrwt>
<totfact> 0.23060426E+03</totfact>
</mgrwt>
</event>
<event>
 4    1  0.1760335E-005  0.5610881E+03  0.7818608E-02  0.9989596E-01
          2   -1    0    0  501    0  0.00000000000E+00  0.00000000000E+00  0.21146624560E+04  0.21146624560E+04  0.25500000000E-02 0.  1.
         -2   -1    0    0    0  501 -0.00000000000E+00 -0.00000000000E+00 -0.37218683407E+02  0.37218683495E+02  0.25500000000E-02 0. -1.
    5000001    1    1    2    0    0 -0.12464287787E+02 -0.18021697498E+03  0.13472210749E+04  0.13737682269E+04  0.19900000000E+03 0.  0.
   -5000001    1    1    2    0    0  0.12464287787E+02  0.18021697498E+03  0.73022269761E+03  0.77811291253E+03  0.19900000000E+03 0.  0.
<mgrwt>
<rscale>  0 0.56108806E+03</rscale>
<asrwt>0</asrwt>
<pdfrwt beam="1">  1        2 0.30209471E+00 0.56108806E+03</pdfrwt>
<pdfrwt beam="2">  1       -2 0.53169535E-02 0.56108806E+03</pdfrwt>
<totfact> 0.13561569E+03</totfact>
</mgrwt>
</event>
<event>
 4    1  0.1760335E-005  0.7316527E+03  0.7818608E-02  0.9664582E-01
          2   -1    0    0  501    0  0.00000000000E+00  0.00000000000E+00  0.91240249784E+03  0.91240249785E+03  0.25500000000E-02 0.  1.
         -2   -1    0    0    0  501 -0.00000000000E+00 -0.00000000000E+00 -0.14667750866E+03  0.14667750868E+03  0.25500000000E-02 0. -1.
    5000001    1    1    2    0    0  0.29603943642E+02  0.25419243291E+03  0.62824866087E+03  0.70695655192E+03  0.19900000000E+03 0.  0.
   -5000001    1    1    2    0    0 -0.29603943642E+02 -0.25419243291E+03  0.13747632832E+03  0.35212345460E+03  0.19900000000E+03 0.  0.
<mgrwt>
<rscale>  0 0.73165272E+03</rscale>
<asrwt>0</asrwt>
<pdfrwt beam="1">  1        2 0.13034321E+00 0.73165272E+03</pdfrwt>
<pdfrwt beam="2">  1       -2 0.20953931E-01 0.73165272E+03</pdfrwt>
<totfact> 0.62957992E+02</totfact>
</mgrwt>
</event>
<event>
 4    1  0.1760335E-005  0.4852493E+03  0.7818608E-02  0.1017702E+00
         -2   -1    0    0    0  501 -0.00000000000E+00  0.00000000000E+00  0.58859715369E+02  0.58859715424E+02  0.25500000000E-02 0. -1.
          2   -1    0    0  501    0  0.00000000000E+00 -0.00000000000E+00 -0.10001190270E+04  0.10001190270E+04  0.25500000000E-02 0.  1.
    5000001    1    1    2    0    0 -0.52916131962E+02 -0.12553621182E+03 -0.52862669127E+03  0.58103927253E+03  0.19900000000E+03 0.  0.
   -5000001    1    1    2    0    0  0.52916131962E+02  0.12553621182E+03 -0.41263262037E+03  0.47793946991E+03  0.19900000000E+03 0.  0.
<mgrwt>
<rscale>  0 0.48524930E+03</rscale>
<asrwt>0</asrwt>
<pdfrwt beam="1">  1        2 0.14287414E+00 0.48524930E+03</pdfrwt>
<pdfrwt beam="2">  1       -2 0.84085313E-02 0.48524930E+03</pdfrwt>
<totfact> 0.25536543E+03</totfact>
</mgrwt>
</event>
<event>
 4    1  0.1760335E-005  0.5866118E+03  0.7818608E-02  0.9933578E-01
         -2   -1    0    0    0  501 -0.00000000000E+00  0.00000000000E+00  0.26668507663E+02  0.26668507785E+02  0.25500000000E-02 0. -1.
          2   -1    0    0  501    0  0.00000000000E+00 -0.00000000000E+00 -0.32258408532E+04  0.32258408532E+04  0.25500000000E-02 0.  1.
    5000001    1    1    2    0    0 -0.14165276515E+03  0.12803956919E+03 -0.21531475072E+04  0.21707383133E+04  0.19900000000E+03 0.  0.
   -5000001    1    1    2    0    0  0.14165276515E+03 -0.12803956919E+03 -0.10460248384E+04  0.10817710477E+04  0.19900000000E+03 0.  0.
<mgrwt>
<rscale>  0 0.58661184E+03</rscale>
<asrwt>0</asrwt>
<pdfrwt beam="1">  1        2 0.46083416E+00 0.58661184E+03</pdfrwt>
<pdfrwt beam="2">  1       -2 0.38097889E-02 0.58661184E+03</pdfrwt>
<totfact> 0.59111576E+02</totfact>
</mgrwt>
</event>
<event>
 4    1  0.1760335E-005  0.5417066E+03  0.7818608E-02  0.1003432E+00
         -2   -1    0    0    0  501 -0.00000000000E+00  0.00000000000E+00  0.33482764875E+03  0.33482764876E+03  0.25500000000E-02 0. -1.
          2   -1    0    0  501    0  0.00000000000E+00 -0.00000000000E+00 -0.21910227547E+03  0.21910227548E+03  0.25500000000E-02 0.  1.
    5000001    1    1    2    0    0 -0.99418322544E+02 -0.15438811201E+03  0.64394925508E+02  0.27832965782E+03  0.19900000000E+03 0.  0.
   -5000001    1    1    2    0    0  0.99418322544E+02  0.15438811201E+03  0.51330447778E+02  0.27560026643E+03  0.19900000000E+03 0.  0.
<mgrwt>
<rscale>  0 0.54170656E+03</rscale>
<asrwt>0</asrwt>
<pdfrwt beam="1">  1        2 0.31300325E-01 0.54170656E+03</pdfrwt>
<pdfrwt beam="2">  1       -2 0.47832521E-01 0.54170656E+03</pdfrwt>
<totfact> 0.70637539E+02</totfact>
</mgrwt>
</event>
<event>
 4    1  0.1760335E-005  0.5408988E+03  0.7818608E-02  0.1003623E+00
          2   -1    0    0  501    0  0.00000000000E+00  0.00000000000E+00  0.82134872242E+03  0.82134872243E+03  0.25500000000E-02 0.  1.
         -2   -1    0    0    0  501 -0.00000000000E+00 -0.00000000000E+00 -0.89052172550E+02  0.89052172586E+02  0.25500000000E-02 0. -1.
    5000001    1    1    2    0    0  0.92483041394E+02  0.80645626050E+02  0.13731085681E+03  0.27113115155E+03  0.19900000000E+03 0.  0.
   -5000001    1    1    2    0    0 -0.92483041394E+02 -0.80645626050E+02  0.59498569307E+03  0.63926974346E+03  0.19900000000E+03 0.  0.
<mgrwt>
<rscale>  0 0.54089884E+03</rscale>
<asrwt>0</asrwt>
<pdfrwt beam="1">  1        2 0.11733553E+00 0.54089884E+03</pdfrwt>
<pdfrwt beam="2">  1       -2 0.12721739E-01 0.54089884E+03</pdfrwt>
<totfact> 0.16981593E+03</totfact>
</mgrwt>
</event>
<event>
 4    1  0.1760335E-005  0.5526691E+03  0.7818608E-02  0.1000878E+00
          2   -1    0    0  501    0  0.00000000000E+00  0.00000000000E+00  0.47025701925E+04  0.47025701925E+04  0.25500000000E-02 0.  1.
         -2   -1    0    0    0  501 -0.00000000000E+00 -0.00000000000E+00 -0.16238097379E+02  0.16238097579E+02  0.25500000000E-02 0. -1.
    5000001    1    1    2    0    0  0.65653455511E+02  0.12919003651E+03  0.34150216760E+04  0.34238829550E+04  0.19900000000E+03 0.  0.
   -5000001    1    1    2    0    0 -0.65653455511E+02 -0.12919003651E+03  0.12713104191E+04  0.12949253351E+04  0.19900000000E+03 0.  0.
<mgrwt>
<rscale>  0 0.55266913E+03</rscale>
<asrwt>0</asrwt>
<pdfrwt beam="1">  1        2 0.67179561E+00 0.55266913E+03</pdfrwt>
<pdfrwt beam="2">  1       -2 0.23197287E-02 0.55266913E+03</pdfrwt>
<totfact> 0.12845196E+02</totfact>
</mgrwt>
</event>
<event>
 4    1  0.1760335E-005  0.7280125E+03  0.7818608E-02  0.9670491E-01
          2   -1    0    0  501    0  0.00000000000E+00  0.00000000000E+00  0.36943934673E+03  0.36943934674E+03  0.25500000000E-02 0.  1.
         -2   -1    0    0    0  501 -0.00000000000E+00 -0.00000000000E+00 -0.35865300503E+03  0.35865300504E+03  0.25500000000E-02 0. -1.
    5000001    1    1    2    0    0 -0.15753684202E+03  0.96713456453E+02 -0.23697240952E+03  0.36045564516E+03  0.19900000000E+03 0.  0.
   -5000001    1    1    2    0    0  0.15753684202E+03 -0.96713456453E+02  0.24775875122E+03  0.36763670663E+03  0.19900000000E+03 0.  0.
<mgrwt>
<rscale>  0 0.72801245E+03</rscale>
<asrwt>0</asrwt>
<pdfrwt beam="1">  1        2 0.52777050E-01 0.72801245E+03</pdfrwt>
<pdfrwt beam="2">  1       -2 0.51236143E-01 0.72801245E+03</pdfrwt>
<totfact> 0.34300489E+02</totfact>
</mgrwt>
</event>
<event>
 4    1  0.1760335E-005  0.6750472E+03  0.7818608E-02  0.9760883E-01
         -2   -1    0    0    0  501 -0.00000000000E+00  0.00000000000E+00  0.79989481821E+03  0.79989481821E+03  0.25500000000E-02 0. -1.
          2   -1    0    0  501    0  0.00000000000E+00 -0.00000000000E+00 -0.14242146329E+03  0.14242146331E+03  0.25500000000E-02 0.  1.
    5000001    1    1    2    0    0  0.66690005017E+02  0.68631861829E+02 -0.27602911707E+02  0.22253271661E+03  0.19900000000E+03 0.  0.
   -5000001    1    1    2    0    0 -0.66690005017E+02 -0.68631861829E+02  0.68507626663E+03  0.71978356492E+03  0.19900000000E+03 0.  0.
<mgrwt>
<rscale>  0 0.67504723E+03</rscale>
<asrwt>0</asrwt>
<pdfrwt beam="1">  1        2 0.20345924E-01 0.67504723E+03</pdfrwt>
<pdfrwt beam="2">  1       -2 0.11427068E+00 0.67504723E+03</pdfrwt>
<totfact> 0.16866163E+02</totfact>
</mgrwt>
</event>
<event>
 4    1  0.1760335E-005  0.7239289E+03  0.7818608E-02  0.9677164E-01
          2   -1    0    0  501    0  0.00000000000E+00  0.00000000000E+00  0.25628897444E+04  0.25628897444E+04  0.25500000000E-02 0.  1.
         -2   -1    0    0    0  501 -0.00000000000E+00 -0.00000000000E+00 -0.51121303394E+02  0.51121303457E+02  0.25500000000E-02 0. -1.
    5000001    1    1    2    0    0  0.15725723432E+03  0.15158801853E+03  0.50097548759E+03  0.58162376522E+03  0.19900000000E+03 0.  0.
   -5000001    1    1    2    0    0 -0.15725723432E+03 -0.15158801853E+03  0.20107929534E+04  0.20323872826E+04  0.19900000000E+03 0.  0.
<mgrwt>
<rscale>  0 0.72392890E+03</rscale>
<asrwt>0</asrwt>
<pdfrwt beam="1">  1        2 0.36612703E+00 0.72392890E+03</pdfrwt>
<pdfrwt beam="2">  1       -2 0.73030448E-02 0.72392890E+03</pdfrwt>
<totfact> 0.48155124E+02</totfact>
</mgrwt>
</event>
<event>
 4    1  0.1760335E-005  0.5137207E+03  0.7818608E-02  0.1010258E+00
          2   -1    0    0  501    0  0.00000000000E+00  0.00000000000E+00  0.20999662340E+04  0.20999662340E+04  0.25500000000E-02 0.  1.
         -2   -1    0    0    0  501 -0.00000000000E+00 -0.00000000000E+00 -0.31418238630E+02  0.31418238734E+02  0.25500000000E-02 0. -1.
    5000001    1    1    2    0    0 -0.21488316076E+02 -0.15888583075E+03  0.11416488489E+04  0.11699015126E+04  0.19900000000E+03 0.  0.
   -5000001    1    1    2    0    0  0.21488316076E+02  0.15888583075E+03  0.92689914643E+03  0.96148296012E+03  0.19900000000E+03 0.  0.
<mgrwt>
<rscale>  0 0.51372070E+03</rscale>
<asrwt>0</asrwt>
<pdfrwt beam="1">  1        2 0.29999527E+00 0.51372070E+03</pdfrwt>
<pdfrwt beam="2">  1       -2 0.44883184E-02 0.51372070E+03</pdfrwt>
<totfact> 0.17967146E+03</totfact>
</mgrwt>
</event>
<event>
 4    1  0.1760335E-005  0.7554571E+03  0.7818608E-02  0.9626828E-01
         -2   -1    0    0    0  501 -0.00000000000E+00  0.00000000000E+00  0.49922956033E+02  0.49922956099E+02  0.25500000000E-02 0. -1.
          2   -1    0    0  501    0  0.00000000000E+00 -0.00000000000E+00 -0.28579807817E+04  0.28579807817E+04  0.25500000000E-02 0.  1.
    5000001    1    1    2    0    0  0.13585163761E+03 -0.27798636887E+03 -0.10741241334E+04  0.11353747147E+04  0.19900000000E+03 0.  0.
   -5000001    1    1    2    0    0 -0.13585163761E+03  0.27798636887E+03 -0.17339336922E+04  0.17725290231E+04  0.19900000000E+03 0.  0.
<mgrwt>
<rscale>  0 0.75545708E+03</rscale>
<asrwt>0</asrwt>
<pdfrwt beam="1">  1        2 0.40828286E+00 0.75545708E+03</pdfrwt>
<pdfrwt beam="2">  1       -2 0.71318527E-02 0.75545708E+03</pdfrwt>
<totfact> 0.34848717E+02</totfact>
</mgrwt>
</event>
<event>
 4    1  0.1760335E-005  0.9505773E+03  0.7818608E-02  0.9364476E-01
         -2   -1    0    0    0  501 -0.00000000000E+00  0.00000000000E+00  0.21596399132E+03  0.21596399134E+03  0.25500000000E-02 0. -1.
          2   -1    0    0  501    0  0.00000000000E+00 -0.00000000000E+00 -0.10460044085E+04  0.10460044085E+04  0.25500000000E-02 0.  1.
    5000001    1    1    2    0    0  0.31620882606E+03 -0.29216955305E+03 -0.45587903932E+03  0.65785847102E+03  0.19900000000E+03 0.  0.
   -5000001    1    1    2    0    0 -0.31620882606E+03  0.29216955305E+03 -0.37416137783E+03  0.60410992879E+03  0.19900000000E+03 0.  0.
<mgrwt>
<rscale>  0 0.95057727E+03</rscale>
<asrwt>0</asrwt>
<pdfrwt beam="1">  1        2 0.14942920E+00 0.95057727E+03</pdfrwt>
<pdfrwt beam="2">  1       -2 0.30851999E-01 0.95057727E+03</pdfrwt>
<totfact> 0.25553153E+02</totfact>
</mgrwt>
</event>
<event>
 4    1  0.1760335E-005  0.6310876E+03  0.7818608E-02  0.9842929E-01
         -2   -1    0    0    0  501 -0.00000000000E+00  0.00000000000E+00  0.34579831846E+02  0.34579831940E+02  0.25500000000E-02 0. -1.
          2   -1    0    0  501    0  0.00000000000E+00 -0.00000000000E+00 -0.28793634157E+04  0.28793634157E+04  0.25500000000E-02 0.  1.
    5000001    1    1    2    0    0 -0.17696957748E+03 -0.15914383742E+03 -0.16885166113E+04  0.17167802244E+04  0.19900000000E+03 0.  0.
   -5000001    1    1    2    0    0  0.17696957748E+03  0.15914383742E+03 -0.11562669726E+04  0.11971630233E+04  0.19900000000E+03 0.  0.
<mgrwt>
<rscale>  0 0.63108764E+03</rscale>
<asrwt>0</asrwt>
<pdfrwt beam="1">  1        2 0.41133748E+00 0.63108764E+03</pdfrwt>
<pdfrwt beam="2">  1       -2 0.49399778E-02 0.63108764E+03</pdfrwt>
<totfact> 0.61096068E+02</totfact>
</mgrwt>
</event>
<event>
 4    1  0.1760335E-005  0.5344609E+03  0.7818608E-02  0.1005156E+00
         -2   -1    0    0    0  501 -0.00000000000E+00  0.00000000000E+00  0.23308865917E+02  0.23308866056E+02  0.25500000000E-02 0. -1.
          2   -1    0    0  501    0  0.00000000000E+00 -0.00000000000E+00 -0.30637321063E+04  0.30637321063E+04  0.25500000000E-02 0.  1.
    5000001    1    1    2    0    0  0.15747698323E+03 -0.81616618336E+02 -0.14120218462E+04  0.14369644974E+04  0.19900000000E+03 0.  0.
   -5000001    1    1    2    0    0 -0.15747698323E+03  0.81616618336E+02 -0.16284013942E+04  0.16500764750E+04  0.19900000000E+03 0.  0.
<mgrwt>
<rscale>  0 0.53446093E+03</rscale>
<asrwt>0</asrwt>
<pdfrwt beam="1">  1        2 0.43767576E+00 0.53446093E+03</pdfrwt>
<pdfrwt beam="2">  1       -2 0.33298399E-02 0.53446093E+03</pdfrwt>
<totfact> 0.89807293E+02</totfact>
</mgrwt>
</event>
<event>
 4    1  0.1760335E-005  0.4548410E+03  0.7818608E-02  0.1026288E+00
          2   -1    0    0  501    0  0.00000000000E+00  0.00000000000E+00  0.63946496370E+03  0.63946496370E+03  0.25500000000E-02 0.  1.
         -2   -1    0    0    0  501 -0.00000000000E+00 -0.00000000000E+00 -0.80880258324E+02  0.80880258364E+02  0.25500000000E-02 0. -1.
    5000001    1    1    2    0    0 -0.90745724638E+02 -0.36465639550E+02  0.19924641967E+03  0.29810176980E+03  0.19900000000E+03 0.  0.
   -5000001    1    1    2    0    0  0.90745724638E+02  0.36465639550E+02  0.35933828570E+03  0.42224345226E+03  0.19900000000E+03 0.  0.
<mgrwt>
<rscale>  0 0.45484103E+03</rscale>
<asrwt>0</asrwt>
<pdfrwt beam="1">  1        2 0.91352138E-01 0.45484103E+03</pdfrwt>
<pdfrwt beam="2">  1       -2 0.11554323E-01 0.45484103E+03</pdfrwt>
<totfact> 0.27042200E+03</totfact>
</mgrwt>
</event>
<event>
 4    1  0.1760335E-005  0.6032627E+03  0.7818608E-02  0.9898660E-01
          2   -1    0    0  501    0  0.00000000000E+00  0.00000000000E+00  0.10880872250E+04  0.10880872250E+04  0.25500000000E-02 0.  1.
         -2   -1    0    0    0  501 -0.00000000000E+00 -0.00000000000E+00 -0.83615969266E+02  0.83615969305E+02  0.25500000000E-02 0. -1.
    5000001    1    1    2    0    0 -0.13967050264E+03 -0.17430221635E+03  0.42722862368E+03  0.52155000606E+03  0.19900000000E+03 0.  0.
   -5000001    1    1    2    0    0  0.13967050264E+03  0.17430221635E+03  0.57724263210E+03  0.65015318829E+03  0.19900000000E+03 0.  0.
<mgrwt>
<rscale>  0 0.60326269E+03</rscale>
<asrwt>0</asrwt>
<pdfrwt beam="1">  1        2 0.15544101E+00 0.60326269E+03</pdfrwt>
<pdfrwt beam="2">  1       -2 0.11945140E-01 0.60326269E+03</pdfrwt>
<totfact> 0.12811174E+03</totfact>
</mgrwt>
</event>
<event>
 4    1  0.1760335E-005  0.1286045E+04  0.7818608E-02  0.9040706E-01
          2   -1    0    0  501    0  0.00000000000E+00  0.00000000000E+00  0.11207738539E+04  0.11207738539E+04  0.25500000000E-02 0.  1.
         -2   -1    0    0    0  501 -0.00000000000E+00 -0.00000000000E+00 -0.36892154666E+03  0.36892154667E+03  0.25500000000E-02 0. -1.
    5000001    1    1    2    0    0 -0.53762352290E+03 -0.19722284564E+03  0.62420537573E+03  0.87015473009E+03  0.19900000000E+03 0.  0.
   -5000001    1    1    2    0    0  0.53762352290E+03  0.19722284564E+03  0.12764693148E+03  0.61954067044E+03  0.19900000000E+03 0.  0.
<mgrwt>
<rscale>  0 0.12860445E+04</rscale>
<asrwt>0</asrwt>
<pdfrwt beam="1">  1        2 0.16011055E+00 0.12860445E+04</pdfrwt>
<pdfrwt beam="2">  1       -2 0.52703077E-01 0.12860445E+04</pdfrwt>
<totfact> 0.79187713E+01</totfact>
</mgrwt>
</event>
<event>
 4    1  0.1760335E-005  0.6608326E+03  0.7818608E-02  0.9786662E-01
          2   -1    0    0  501    0  0.00000000000E+00  0.00000000000E+00  0.36611097371E+03  0.36611097372E+03  0.25500000000E-02 0.  1.
         -2   -1    0    0    0  501 -0.00000000000E+00 -0.00000000000E+00 -0.29820170750E+03  0.29820170751E+03  0.25500000000E-02 0. -1.
    5000001    1    1    2    0    0  0.26230763203E+03  0.17839029419E+02  0.12620412255E+02  0.32997545302E+03  0.19900000000E+03 0.  0.
   -5000001    1    1    2    0    0 -0.26230763203E+03 -0.17839029419E+02  0.55288853956E+02  0.33433722820E+03  0.19900000000E+03 0.  0.
<mgrwt>
<rscale>  0 0.66083256E+03</rscale>
<asrwt>0</asrwt>
<pdfrwt beam="1">  1        2 0.52301568E-01 0.66083256E+03</pdfrwt>
<pdfrwt beam="2">  1       -2 0.42600244E-01 0.66083256E+03</pdfrwt>
<totfact> 0.50242729E+02</totfact>
</mgrwt>
</event>
<event>
 4    1  0.1760335E-005  0.5438531E+03  0.7818608E-02  0.1002927E+00
         -2   -1    0    0    0  501 -0.00000000000E+00  0.00000000000E+00  0.42648564720E+02  0.42648564796E+02  0.25500000000E-02 0. -1.
          2   -1    0    0  501    0  0.00000000000E+00 -0.00000000000E+00 -0.17337993004E+04  0.17337993004E+04  0.25500000000E-02 0.  1.
    5000001    1    1    2    0    0 -0.18309283086E+03  0.28622517215E+02 -0.84853058653E+03  0.89103725482E+03  0.19900000000E+03 0.  0.
   -5000001    1    1    2    0    0  0.18309283086E+03 -0.28622517215E+02 -0.84262014910E+03  0.88541061033E+03  0.19900000000E+03 0.  0.
<mgrwt>
<rscale>  0 0.54385311E+03</rscale>
<asrwt>0</asrwt>
<pdfrwt beam="1">  1        2 0.24768557E+00 0.54385311E+03</pdfrwt>
<pdfrwt beam="2">  1       -2 0.60926532E-02 0.54385311E+03</pdfrwt>
<totfact> 0.17046826E+03</totfact>
</mgrwt>
</event>
<event>
 4    1  0.1760335E-005  0.6209778E+03  0.7818608E-02  0.9862815E-01
          2   -1    0    0  501    0  0.00000000000E+00  0.00000000000E+00  0.79967759503E+03  0.79967759503E+03  0.25500000000E-02 0.  1.
         -2   -1    0    0    0  501 -0.00000000000E+00 -0.00000000000E+00 -0.12055278910E+03  0.12055278912E+03  0.25500000000E-02 0. -1.
    5000001    1    1    2    0    0  0.13149439792E+03 -0.19788545586E+03  0.36740228035E+03  0.48066086374E+03  0.19900000000E+03 0.  0.
   -5000001    1    1    2    0    0 -0.13149439792E+03  0.19788545586E+03  0.31172252558E+03  0.43956952041E+03  0.19900000000E+03 0.  0.
<mgrwt>
<rscale>  0 0.62097782E+03</rscale>
<asrwt>0</asrwt>
<pdfrwt beam="1">  1        2 0.11423966E+00 0.62097782E+03</pdfrwt>
<pdfrwt beam="2">  1       -2 0.17221827E-01 0.62097782E+03</pdfrwt>
<totfact> 0.10553610E+03</totfact>
</mgrwt>
</event>
<event>
 4    1  0.1760335E-005  0.4492287E+03  0.7818608E-02  0.1027952E+00
          2   -1    0    0  501    0  0.00000000000E+00  0.00000000000E+00  0.16059187455E+03  0.16059187457E+03  0.25500000000E-02 0. -1.
         -2   -1    0    0    0  501 -0.00000000000E+00 -0.00000000000E+00 -0.31416039503E+03  0.31416039504E+03  0.25500000000E-02 0.  1.
    5000001    1    1    2    0    0  0.64295428230E+02  0.71095006951E+02 -0.11987081803E+03  0.25131338031E+03  0.19900000000E+03 0.  0.
   -5000001    1    1    2    0    0 -0.64295428230E+02 -0.71095006951E+02 -0.33697702445E+02  0.22343888931E+03  0.19900000000E+03 0.  0.
<mgrwt>
<rscale>  0 0.44922870E+03</rscale>
<asrwt>0</asrwt>
<pdfrwt beam="1">  1        2 0.22941696E-01 0.44922870E+03</pdfrwt>
<pdfrwt beam="2">  1       -2 0.44880056E-01 0.44922870E+03</pdfrwt>
<totfact> 0.11388373E+03</totfact>
</mgrwt>
</event>
<event>
 4    1  0.1760335E-005  0.8089943E+03  0.7818608E-02  0.9547089E-01
          2   -1    0    0  501    0  0.00000000000E+00  0.00000000000E+00  0.11626745691E+04  0.11626745691E+04  0.25500000000E-02 0.  1.
         -2   -1    0    0    0  501 -0.00000000000E+00 -0.00000000000E+00 -0.14072547579E+03  0.14072547582E+03  0.25500000000E-02 0. -1.
    5000001    1    1    2    0    0  0.28021436087E+03 -0.20530582761E+03  0.60417514170E+03  0.72477525671E+03  0.19900000000E+03 0.  0.
   -5000001    1    1    2    0    0 -0.28021436087E+03  0.20530582761E+03  0.41777395160E+03  0.57862478821E+03  0.19900000000E+03 0.  0.
<mgrwt>
<rscale>  0 0.80899427E+03</rscale>
<asrwt>0</asrwt>
<pdfrwt beam="1">  1        2 0.16609637E+00 0.80899427E+03</pdfrwt>
<pdfrwt beam="2">  1       -2 0.20103639E-01 0.80899427E+03</pdfrwt>
<totfact> 0.47628119E+02</totfact>
</mgrwt>
</event>
<event>
 4    1  0.1760335E-005  0.5398634E+03  0.7818608E-02  0.1003868E+00
          2   -1    0    0  501    0  0.00000000000E+00  0.00000000000E+00  0.57592582836E+03  0.57592582837E+03  0.25500000000E-02 0.  1.
         -2   -1    0    0    0  501 -0.00000000000E+00 -0.00000000000E+00 -0.12651475552E+03  0.12651475555E+03  0.25500000000E-02 0. -1.
    5000001    1    1    2    0    0 -0.16615959628E+03  0.28691111789E+01  0.32246364413E+03  0.41376448013E+03  0.19900000000E+03 0.  0.
   -5000001    1    1    2    0    0  0.16615959628E+03 -0.28691111789E+01  0.12694742871E+03  0.28867610378E+03  0.19900000000E+03 0.  0.
<mgrwt>
<rscale>  0 0.53986337E+03</rscale>
<asrwt>0</asrwt>
<pdfrwt beam="1">  1        2 0.82275119E-01 0.53986337E+03</pdfrwt>
<pdfrwt beam="2">  1       -2 0.18073536E-01 0.53986337E+03</pdfrwt>
<totfact> 0.14487959E+03</totfact>
</mgrwt>
</event>
<event>
 4    1  0.1760335E-005  0.8489627E+03  0.7818608E-02  0.9491730E-01
         -2   -1    0    0    0  501 -0.00000000000E+00  0.00000000000E+00  0.13106712047E+03  0.13106712050E+03  0.25500000000E-02 0. -1.
          2   -1    0    0  501    0  0.00000000000E+00 -0.00000000000E+00 -0.13747491727E+04  0.13747491727E+04  0.25500000000E-02 0.  1.
    5000001    1    1    2    0    0 -0.36191203517E+03 -0.83245802551E+02 -0.53013421405E+03  0.67716576239E+03  0.19900000000E+03 0.  0.
   -5000001    1    1    2    0    0  0.36191203517E+03  0.83245802551E+02 -0.71354783820E+03  0.82865053083E+03  0.19900000000E+03 0.  0.
<mgrwt>
<rscale>  0 0.84896270E+03</rscale>
<asrwt>0</asrwt>
<pdfrwt beam="1">  1        2 0.19639273E+00 0.84896270E+03</pdfrwt>
<pdfrwt beam="2">  1       -2 0.18723875E-01 0.84896270E+03</pdfrwt>
<totfact> 0.41034670E+02</totfact>
</mgrwt>
</event>
<event>
 4    1  0.1760335E-005  0.4427348E+03  0.7818608E-02  0.1029911E+00
         -2   -1    0    0    0  501 -0.00000000000E+00  0.00000000000E+00  0.70532369472E+02  0.70532369518E+02  0.25500000000E-02 0. -1.
          2   -1    0    0  501    0  0.00000000000E+00 -0.00000000000E+00 -0.69476662523E+03  0.69476662523E+03  0.25500000000E-02 0.  1.
    5000001    1    1    2    0    0 -0.78341933258E+02 -0.57095308077E+02 -0.30817400749E+03  0.37943319781E+03  0.19900000000E+03 0.  0.
   -5000001    1    1    2    0    0  0.78341933258E+02  0.57095308077E+02 -0.31606024827E+03  0.38586579694E+03  0.19900000000E+03 0.  0.
<mgrwt>
<rscale>  0 0.44273485E+03</rscale>
<asrwt>0</asrwt>
<pdfrwt beam="1">  1        2 0.99252371E-01 0.44273485E+03</pdfrwt>
<pdfrwt beam="2">  1       -2 0.10076053E-01 0.44273485E+03</pdfrwt>
<totfact> 0.30563940E+03</totfact>
</mgrwt>
</event>
<event>
 4    1  0.1760335E-005  0.5963763E+03  0.7818608E-02  0.9912953E-01
         -2   -1    0    0    0  501 -0.00000000000E+00  0.00000000000E+00  0.45063487780E+02  0.45063487853E+02  0.25500000000E-02 0. -1.
          2   -1    0    0  501    0  0.00000000000E+00 -0.00000000000E+00 -0.19731310164E+04  0.19731310164E+04  0.25500000000E-02 0.  1.
    5000001    1    1    2    0    0  0.21474631659E+03 -0.41137453527E+02 -0.83266740933E+03  0.88359735464E+03  0.19900000000E+03 0.  0.
   -5000001    1    1    2    0    0 -0.21474631659E+03  0.41137453527E+02 -0.10954001193E+04  0.11345971496E+04  0.19900000000E+03 0.  0.
<mgrwt>
<rscale>  0 0.59637628E+03</rscale>
<asrwt>0</asrwt>
<pdfrwt beam="1">  1        2 0.28187581E+00 0.59637628E+03</pdfrwt>
<pdfrwt beam="2">  1       -2 0.64376424E-02 0.59637628E+03</pdfrwt>
<totfact> 0.11821394E+03</totfact>
</mgrwt>
</event>
<event>
 4    1  0.1760335E-005  0.7703619E+03  0.7818608E-02  0.9603936E-01
          2   -1    0    0  501    0  0.00000000000E+00  0.00000000000E+00  0.18685794472E+04  0.18685794472E+04  0.25500000000E-02 0.  1.
         -2   -1    0    0    0  501 -0.00000000000E+00 -0.00000000000E+00 -0.79399546683E+02  0.79399546724E+02  0.25500000000E-02 0. -1.
    5000001    1    1    2    0    0  0.28055047801E+03 -0.16628240763E+03  0.10185959280E+04  0.10878865172E+04  0.19900000000E+03 0.  0.
   -5000001    1    1    2    0    0 -0.28055047801E+03  0.16628240763E+03  0.77058397253E+03  0.86009247672E+03  0.19900000000E+03 0.  0.
<mgrwt>
<rscale>  0 0.77036189E+03</rscale>
<asrwt>0</asrwt>
<pdfrwt beam="1">  1        2 0.26693994E+00 0.77036189E+03</pdfrwt>
<pdfrwt beam="2">  1       -2 0.11342792E-01 0.77036189E+03</pdfrwt>
<totfact> 0.53201334E+02</totfact>
</mgrwt>
</event>
<event>
 4    1  0.1760335E-005  0.5575550E+03  0.7818608E-02  0.9997602E-01
         -2   -1    0    0    0  501 -0.00000000000E+00  0.00000000000E+00  0.41015088666E+03  0.41015088667E+03  0.25500000000E-02 0. -1.
          2   -1    0    0  501    0  0.00000000000E+00 -0.00000000000E+00 -0.18948366731E+03  0.18948366732E+03  0.25500000000E-02 0.  1.
    5000001    1    1    2    0    0  0.11903262042E+03  0.11314191868E+03  0.22387629250E+03  0.34160130683E+03  0.19900000000E+03 0.  0.
   -5000001    1    1    2    0    0 -0.11903262042E+03 -0.11314191868E+03 -0.32090731419E+01  0.25803324716E+03  0.19900000000E+03 0.  0.
<mgrwt>
<rscale>  0 0.55755500E+03</rscale>
<asrwt>0</asrwt>
<pdfrwt beam="1">  1        2 0.27069096E-01 0.55755500E+03</pdfrwt>
<pdfrwt beam="2">  1       -2 0.58592983E-01 0.55755500E+03</pdfrwt>
<totfact> 0.54893279E+02</totfact>
</mgrwt>
</event>
<event>
 4    1  0.1760335E-005  0.4754924E+03  0.7818608E-02  0.1020381E+00
          2   -1    0    0  501    0  0.00000000000E+00  0.00000000000E+00  0.15464640140E+04  0.15464640140E+04  0.25500000000E-02 0.  1.
         -2   -1    0    0    0  501 -0.00000000000E+00 -0.00000000000E+00 -0.36550001069E+02  0.36550001158E+02  0.25500000000E-02 0. -1.
    5000001    1    1    2    0    0 -0.86893176126E+02 -0.25841264136E+02  0.44435643060E+03  0.49524926290E+03  0.19900000000E+03 0.  0.
   -5000001    1    1    2    0    0  0.86893176126E+02  0.25841264136E+02  0.10655575823E+04  0.10877647522E+04  0.19900000000E+03 0.  0.
<mgrwt>
<rscale>  0 0.47549242E+03</rscale>
<asrwt>0</asrwt>
<pdfrwt beam="1">  1        2 0.22092344E+00 0.47549242E+03</pdfrwt>
<pdfrwt beam="2">  1       -2 0.52214286E-02 0.47549242E+03</pdfrwt>
<totfact> 0.27037406E+03</totfact>
</mgrwt>
</event>
<event>
 4    1  0.1760335E-005  0.8516614E+03  0.7818608E-02  0.9488110E-01
          2   -1    0    0  501    0  0.00000000000E+00  0.00000000000E+00  0.21788396193E+04  0.21788396193E+04  0.25500000000E-02 0.  1.
         -2   -1    0    0    0  501 -0.00000000000E+00 -0.00000000000E+00 -0.83224019133E+02  0.83224019172E+02  0.25500000000E-02 0. -1.
    5000001    1    1    2    0    0  0.30632152287E+03 -0.17928527826E+03  0.13811904315E+04  0.14398833614E+04  0.19900000000E+03 0.  0.
   -5000001    1    1    2    0    0 -0.30632152287E+03  0.17928527826E+03  0.71442516861E+03  0.82218027701E+03  0.19900000000E+03 0.  0.
<mgrwt>
<rscale>  0 0.85166141E+03</rscale>
<asrwt>0</asrwt>
<pdfrwt beam="1">  1        2 0.31126277E+00 0.85166141E+03</pdfrwt>
<pdfrwt beam="2">  1       -2 0.11889147E-01 0.85166141E+03</pdfrwt>
<totfact> 0.34073529E+02</totfact>
</mgrwt>
</event>
<event>
 4    1  0.1760335E-005  0.5786679E+03  0.7818608E-02  0.9950679E-01
         -2   -1    0    0    0  501 -0.00000000000E+00  0.00000000000E+00  0.88315907590E+02  0.88315907627E+02  0.25500000000E-02 0. -1.
          2   -1    0    0  501    0  0.00000000000E+00 -0.00000000000E+00 -0.94789417854E+03  0.94789417855E+03  0.25500000000E-02 0.  1.
    5000001    1    1    2    0    0  0.65488058074E+02  0.13537437775E+03 -0.16723446788E+03  0.30030530323E+03  0.19900000000E+03 0.  0.
   -5000001    1    1    2    0    0 -0.65488058074E+02 -0.13537437775E+03 -0.69234380307E+03  0.73590478294E+03  0.19900000000E+03 0.  0.
<mgrwt>
<rscale>  0 0.57866790E+03</rscale>
<asrwt>0</asrwt>
<pdfrwt beam="1">  1        2 0.13541345E+00 0.57866790E+03</pdfrwt>
<pdfrwt beam="2">  1       -2 0.12616559E-01 0.57866790E+03</pdfrwt>
<totfact> 0.14234444E+03</totfact>
</mgrwt>
</event>
<event>
 4    1  0.1760335E-005  0.4912496E+03  0.7818608E-02  0.1016088E+00
         -2   -1    0    0    0  501 -0.00000000000E+00  0.00000000000E+00  0.55316566864E+02  0.55316566923E+02  0.25500000000E-02 0. -1.
          2   -1    0    0  501    0  0.00000000000E+00 -0.00000000000E+00 -0.10906595656E+04  0.10906595656E+04  0.25500000000E-02 0.  1.
    5000001    1    1    2    0    0  0.98107589645E+02 -0.92878500632E+02 -0.63382012080E+03  0.67792363918E+03  0.19900000000E+03 0.  0.
   -5000001    1    1    2    0    0 -0.98107589645E+02  0.92878500632E+02 -0.40152287795E+03  0.46805249336E+03  0.19900000000E+03 0.  0.
<mgrwt>
<rscale>  0 0.49124960E+03</rscale>
<asrwt>0</asrwt>
<pdfrwt beam="1">  1        2 0.15580850E+00 0.49124960E+03</pdfrwt>
<pdfrwt beam="2">  1       -2 0.79023674E-02 0.49124960E+03</pdfrwt>
<totfact> 0.24912996E+03</totfact>
</mgrwt>
</event>
<event>
 4    1  0.1760335E-005  0.6185886E+03  0.7818608E-02  0.9867574E-01
         -2   -1    0    0    0  501 -0.00000000000E+00  0.00000000000E+00  0.99557170188E+02  0.99557170221E+02  0.25500000000E-02 0. -1.
          2   -1    0    0  501    0  0.00000000000E+00 -0.00000000000E+00 -0.96088483490E+03  0.96088483490E+03  0.25500000000E-02 0.  1.
    5000001    1    1    2    0    0 -0.11916168952E+03  0.44288245759E+02 -0.77309790702E+03  0.80835779875E+03  0.19900000000E+03 0.  0.
   -5000001    1    1    2    0    0  0.11916168952E+03 -0.44288245759E+02 -0.88229757693E+02  0.25208420637E+03  0.19900000000E+03 0.  0.
<mgrwt>
<rscale>  0 0.61858864E+03</rscale>
<asrwt>0</asrwt>
<pdfrwt beam="1">  1        2 0.13726926E+00 0.61858864E+03</pdfrwt>
<pdfrwt beam="2">  1       -2 0.14222453E-01 0.61858864E+03</pdfrwt>
<totfact> 0.11436931E+03</totfact>
</mgrwt>
</event>
<event>
 4    1  0.1760335E-005  0.7641147E+03  0.7818608E-02  0.9613463E-01
         -2   -1    0    0    0  501 -0.00000000000E+00  0.00000000000E+00  0.58550665460E+03  0.58550665460E+03  0.25500000000E-02 0. -1.
          2   -1    0    0  501    0  0.00000000000E+00 -0.00000000000E+00 -0.24930174019E+03  0.24930174020E+03  0.25500000000E-02 0.  1.
    5000001    1    1    2    0    0 -0.15983824060E+03  0.27476210894E+03  0.88383526430E+02  0.38529875085E+03  0.19900000000E+03 0.  0.
   -5000001    1    1    2    0    0  0.15983824060E+03 -0.27476210894E+03  0.24782138798E+03  0.44950964395E+03  0.19900000000E+03 0.  0.
<mgrwt>
<rscale>  0 0.76411472E+03</rscale>
<asrwt>0</asrwt>
<pdfrwt beam="1">  1        2 0.35614534E-01 0.76411472E+03</pdfrwt>
<pdfrwt beam="2">  1       -2 0.83643809E-01 0.76411472E+03</pdfrwt>
<totfact> 0.18483461E+02</totfact>
</mgrwt>
</event>
<event>
 4    1  0.1760335E-005  0.4840388E+03  0.7818608E-02  0.1018031E+00
          2   -1    0    0  501    0  0.00000000000E+00  0.00000000000E+00  0.19901598441E+04  0.19901598441E+04  0.25500000000E-02 0. -1.
         -2   -1    0    0    0  501 -0.00000000000E+00 -0.00000000000E+00 -0.29431495287E+02  0.29431495397E+02  0.25500000000E-02 0.  1.
    5000001    1    1    2    0    0 -0.13074022360E+03  0.34103729016E+02  0.10920334765E+04  0.11182102594E+04  0.19900000000E+03 0.  0.
   -5000001    1    1    2    0    0  0.13074022360E+03 -0.34103729016E+02  0.86869487231E+03  0.90138108011E+03  0.19900000000E+03 0.  0.
<mgrwt>
<rscale>  0 0.48403876E+03</rscale>
<asrwt>0</asrwt>
<pdfrwt beam="1">  1        2 0.28430866E+00 0.48403876E+03</pdfrwt>
<pdfrwt beam="2">  1       -2 0.42044978E-02 0.48403876E+03</pdfrwt>
<totfact> 0.22561747E+03</totfact>
</mgrwt>
</event>
<event>
 4    1  0.1760335E-005  0.6223877E+03  0.7818608E-02  0.9860017E-01
          2   -1    0    0  501    0  0.00000000000E+00  0.00000000000E+00  0.14304959217E+04  0.14304959217E+04  0.25500000000E-02 0.  1.
         -2   -1    0    0    0  501 -0.00000000000E+00 -0.00000000000E+00 -0.67697935353E+02  0.67697935401E+02  0.25500000000E-02 0. -1.
    5000001    1    1    2    0    0  0.23627539633E+03  0.10862513107E+02  0.59472199443E+03  0.67025316692E+03  0.19900000000E+03 0.  0.
   -5000001    1    1    2    0    0 -0.23627539633E+03 -0.10862513107E+02  0.76807599187E+03  0.82794069014E+03  0.19900000000E+03 0.  0.
<mgrwt>
<rscale>  0 0.62238773E+03</rscale>
<asrwt>0</asrwt>
<pdfrwt beam="1">  1        2 0.20435657E+00 0.62238773E+03</pdfrwt>
<pdfrwt beam="2">  1       -2 0.96711332E-02 0.62238773E+03</pdfrwt>
<totfact> 0.11688398E+03</totfact>
</mgrwt>
</event>
<event>
 4    1  0.1760335E-005  0.1183944E+04  0.7818608E-02  0.9127028E-01
         -2   -1    0    0    0  501 -0.00000000000E+00  0.00000000000E+00  0.86636502476E+02  0.86636502514E+02  0.25500000000E-02 0. -1.
          2   -1    0    0  501    0  0.00000000000E+00 -0.00000000000E+00 -0.40448403014E+04  0.40448403014E+04  0.25500000000E-02 0.  1.
    5000001    1    1    2    0    0  0.98844219055E+02 -0.54187449366E+03 -0.22799293034E+04  0.23539491870E+04  0.19900000000E+03 0.  0.
   -5000001    1    1    2    0    0 -0.98844219055E+02  0.54187449366E+03 -0.16782744955E+04  0.17775276168E+04  0.19900000000E+03 0.  0.
<mgrwt>
<rscale>  0 0.11839439E+04</rscale>
<asrwt>0</asrwt>
<pdfrwt beam="1">  1        2 0.57783421E+00 0.11839439E+04</pdfrwt>
<pdfrwt beam="2">  1       -2 0.12376646E-01 0.11839439E+04</pdfrwt>
<totfact> 0.26307258E+01</totfact>
</mgrwt>
</event>
<event>
 4    1  0.1760335E-005  0.9189078E+03  0.7818608E-02  0.9402250E-01
          2   -1    0    0  501    0  0.00000000000E+00  0.00000000000E+00  0.34293264329E+03  0.34293264330E+03  0.25500000000E-02 0.  1.
         -2   -1    0    0    0  501 -0.00000000000E+00 -0.00000000000E+00 -0.61556661253E+03  0.61556661254E+03  0.25500000000E-02 0. -1.
    5000001    1    1    2    0    0  0.25458445808E+03  0.16829290406E+03  0.15567451539E+03  0.39619604061E+03  0.19900000000E+03 0.  0.
   -5000001    1    1    2    0    0 -0.25458445808E+03 -0.16829290406E+03 -0.42830848463E+03  0.56230321523E+03  0.19900000000E+03 0.  0.
<mgrwt>
<rscale>  0 0.91890780E+03</rscale>
<asrwt>0</asrwt>
<pdfrwt beam="1">  1        2 0.48990377E-01 0.91890780E+03</pdfrwt>
<pdfrwt beam="2">  1       -2 0.87938088E-01 0.91890780E+03</pdfrwt>
<totfact> 0.11487322E+02</totfact>
</mgrwt>
</event>
<event>
 4    1  0.1760335E-005  0.7128967E+03  0.7818608E-02  0.9695428E-01
          2   -1    0    0  501    0  0.00000000000E+00  0.00000000000E+00  0.33221193462E+04  0.33221193462E+04  0.25500000000E-02 0.  1.
         -2   -1    0    0    0  501 -0.00000000000E+00 -0.00000000000E+00 -0.38245288676E+02  0.38245288761E+02  0.25500000000E-02 0. -1.
    5000001    1    1    2    0    0 -0.62603010248E+02 -0.23134633996E+03  0.82531173000E+03  0.88214551950E+03  0.19900000000E+03 0.  0.
   -5000001    1    1    2    0    0  0.62603010248E+02  0.23134633996E+03  0.24585623276E+04  0.24782191155E+04  0.19900000000E+03 0.  0.
<mgrwt>
<rscale>  0 0.71289666E+03</rscale>
<asrwt>0</asrwt>
<pdfrwt beam="1">  1        2 0.47458847E+00 0.71289666E+03</pdfrwt>
<pdfrwt beam="2">  1       -2 0.54636128E-02 0.71289666E+03</pdfrwt>
<totfact> 0.29415304E+02</totfact>
</mgrwt>
</event>
<event>
 4    1  0.1760335E-005  0.7130530E+03  0.7818608E-02  0.9695167E-01
         -2   -1    0    0    0  501 -0.00000000000E+00  0.00000000000E+00  0.94088502405E+02  0.94088502440E+02  0.25500000000E-02 0. -1.
          2   -1    0    0  501    0  0.00000000000E+00 -0.00000000000E+00 -0.13509741779E+04  0.13509741779E+04  0.25500000000E-02 0.  1.
    5000001    1    1    2    0    0  0.24784580007E+03 -0.10786408284E+03 -0.38484815982E+03  0.51065772010E+03  0.19900000000E+03 0.  0.
   -5000001    1    1    2    0    0 -0.24784580007E+03  0.10786408284E+03 -0.87203751567E+03  0.93440496024E+03  0.19900000000E+03 0.  0.
<mgrwt>
<rscale>  0 0.71305298E+03</rscale>
<asrwt>0</asrwt>
<pdfrwt beam="1">  1        2 0.19299630E+00 0.71305298E+03</pdfrwt>
<pdfrwt beam="2">  1       -2 0.13441215E-01 0.71305298E+03</pdfrwt>
<totfact> 0.74787000E+02</totfact>
</mgrwt>
</event>
<event>
 4    1  0.1760335E-005  0.4861781E+03  0.7818608E-02  0.1017451E+00
         -2   -1    0    0    0  501 -0.00000000000E+00  0.00000000000E+00  0.40828083295E+03  0.40828083296E+03  0.25500000000E-02 0. -1.
          2   -1    0    0  501    0  0.00000000000E+00 -0.00000000000E+00 -0.14473438211E+03  0.14473438213E+03  0.25500000000E-02 0.  1.
    5000001    1    1    2    0    0 -0.80146292594E+02 -0.10089845217E+03  0.19289434699E+03  0.30563565722E+03  0.19900000000E+03 0.  0.
   -5000001    1    1    2    0    0  0.80146292594E+02  0.10089845217E+03  0.70652103857E+02  0.24737955786E+03  0.19900000000E+03 0.  0.
<mgrwt>
<rscale>  0 0.48617805E+03</rscale>
<asrwt>0</asrwt>
<pdfrwt beam="1">  1        2 0.20676340E-01 0.48617805E+03</pdfrwt>
<pdfrwt beam="2">  1       -2 0.58325833E-01 0.48617805E+03</pdfrwt>
<totfact> 0.75500763E+02</totfact>
</mgrwt>
</event>
<event>
 4    1  0.1760335E-005  0.4606988E+03  0.7818608E-02  0.1024579E+00
          2   -1    0    0  501    0  0.00000000000E+00  0.00000000000E+00  0.14941404954E+04  0.14941404954E+04  0.25500000000E-02 0.  1.
         -2   -1    0    0    0  501 -0.00000000000E+00 -0.00000000000E+00 -0.35512617027E+02  0.35512617118E+02  0.25500000000E-02 0. -1.
    5000001    1    1    2    0    0 -0.36383811731E+02 -0.75916086945E+02  0.99437212749E+03  0.10175774968E+04  0.19900000000E+03 0.  0.
   -5000001    1    1    2    0    0  0.36383811731E+02  0.75916086945E+02  0.46425575089E+03  0.51207561575E+03  0.19900000000E+03 0.  0.
<mgrwt>
<rscale>  0 0.46069877E+03</rscale>
<asrwt>0</asrwt>
<pdfrwt beam="1">  1        2 0.21344861E+00 0.46069877E+03</pdfrwt>
<pdfrwt beam="2">  1       -2 0.50732319E-02 0.46069877E+03</pdfrwt>
<totfact> 0.30081342E+03</totfact>
</mgrwt>
</event>
<event>
 4    1  0.1760335E-005  0.4187515E+03  0.7818608E-02  0.1037473E+00
         -2   -1    0    0    0  501 -0.00000000000E+00  0.00000000000E+00  0.27147718457E+02  0.27147718577E+02  0.25500000000E-02 0.  1.
          2   -1    0    0  501    0  0.00000000000E+00 -0.00000000000E+00 -0.16148027942E+04  0.16148027942E+04  0.25500000000E-02 0. -1.
    5000001    1    1    2    0    0  0.19737009058E+00  0.37615325864E+02 -0.10021337230E+04  0.10223932465E+04  0.19900000000E+03 0.  0.
   -5000001    1    1    2    0    0 -0.19737009058E+00 -0.37615325864E+02 -0.58552135278E+03  0.61955726632E+03  0.19900000000E+03 0.  0.
<mgrwt>
<rscale>  0 0.41875153E+03</rscale>
<asrwt>0</asrwt>
<pdfrwt beam="1">  1        2 0.23068605E+00 0.41875153E+03</pdfrwt>
<pdfrwt beam="2">  1       -2 0.38782465E-02 0.41875153E+03</pdfrwt>
<totfact> 0.39391411E+03</totfact>
</mgrwt>
</event>
<event>
 4    1  0.1760335E-005  0.7248615E+03  0.7818608E-02  0.9675636E-01
         -2   -1    0    0    0  501 -0.00000000000E+00  0.00000000000E+00  0.37176214913E+03  0.37176214914E+03  0.25500000000E-02 0. -1.
          2   -1    0    0  501    0  0.00000000000E+00 -0.00000000000E+00 -0.35333360699E+03  0.35333360700E+03  0.25500000000E-02 0.  1.
    5000001    1    1    2    0    0  0.15106492945E+03  0.24538630276E+03  0.10262544192E+03  0.36492195305E+03  0.19900000000E+03 0.  0.
   -5000001    1    1    2    0    0 -0.15106492945E+03 -0.24538630276E+03 -0.84196899783E+02  0.36017380308E+03  0.19900000000E+03 0.  0.
<mgrwt>
<rscale>  0 0.72486153E+03</rscale>
<asrwt>0</asrwt>
<pdfrwt beam="1">  1        2 0.50476230E-01 0.72486153E+03</pdfrwt>
<pdfrwt beam="2">  1       -2 0.53108878E-01 0.72486153E+03</pdfrwt>
<totfact> 0.33489872E+02</totfact>
</mgrwt>
</event>
<event>
 4    1  0.1760335E-005  0.4464448E+03  0.7818608E-02  0.1028788E+00
         -2   -1    0    0    0  501 -0.00000000000E+00  0.00000000000E+00  0.22409341967E+02  0.22409342112E+02  0.25500000000E-02 0. -1.
          2   -1    0    0  501    0  0.00000000000E+00 -0.00000000000E+00 -0.22235475072E+04  0.22235475072E+04  0.25500000000E-02 0.  1.
    5000001    1    1    2    0    0 -0.59062818824E+02  0.57568903939E+02 -0.13949713852E+04  0.14115058486E+04  0.19900000000E+03 0.  0.
   -5000001    1    1    2    0    0  0.59062818824E+02 -0.57568903939E+02 -0.80616678007E+03  0.83445100069E+03  0.19900000000E+03 0.  0.
<mgrwt>
<rscale>  0 0.44644479E+03</rscale>
<asrwt>0</asrwt>
<pdfrwt beam="1">  1        2 0.31764950E+00 0.44644479E+03</pdfrwt>
<pdfrwt beam="2">  1       -2 0.32013360E-02 0.44644479E+03</pdfrwt>
<totfact> 0.26176788E+03</totfact>
</mgrwt>
</event>
<event>
 4    1  0.1760335E-005  0.5198868E+03  0.7818608E-02  0.1008715E+00
         -2   -1    0    0    0  501 -0.00000000000E+00  0.00000000000E+00  0.47098805650E+02  0.47098805719E+02  0.25500000000E-02 0. -1.
          2   -1    0    0  501    0  0.00000000000E+00 -0.00000000000E+00 -0.14346556137E+04  0.14346556137E+04  0.25500000000E-02 0.  1.
    5000001    1    1    2    0    0  0.11443895766E+03 -0.11994438355E+03 -0.63090463641E+03  0.68200043285E+03  0.19900000000E+03 0.  0.
   -5000001    1    1    2    0    0 -0.11443895766E+03  0.11994438355E+03 -0.75665217165E+03  0.79975398657E+03  0.19900000000E+03 0.  0.
<mgrwt>
<rscale>  0 0.51988678E+03</rscale>
<asrwt>0</asrwt>
<pdfrwt beam="1">  1        2 0.20495077E+00 0.51988678E+03</pdfrwt>
<pdfrwt beam="2">  1       -2 0.67284017E-02 0.51988678E+03</pdfrwt>
<totfact> 0.20795408E+03</totfact>
</mgrwt>
</event>
<event>
 4    1  0.1760335E-005  0.8802861E+03  0.7818608E-02  0.9450566E-01
         -2   -1    0    0    0  501 -0.00000000000E+00  0.00000000000E+00  0.91917904857E+02  0.91917904892E+02  0.25500000000E-02 0.  1.
          2   -1    0    0  501    0  0.00000000000E+00 -0.00000000000E+00 -0.21075970904E+04  0.21075970904E+04  0.25500000000E-02 0. -1.
    5000001    1    1    2    0    0 -0.17557873509E+03  0.28659869415E+03 -0.50092908737E+03  0.63521465213E+03  0.19900000000E+03 0.  0.
   -5000001    1    1    2    0    0  0.17557873509E+03 -0.28659869415E+03 -0.15147500981E+04  0.15643003431E+04  0.19900000000E+03 0.  0.
<mgrwt>
<rscale>  0 0.88028611E+03</rscale>
<asrwt>0</asrwt>
<pdfrwt beam="1">  1        2 0.30108527E+00 0.88028611E+03</pdfrwt>
<pdfrwt beam="2">  1       -2 0.13131131E-01 0.88028611E+03</pdfrwt>
<totfact> 0.31334018E+02</totfact>
</mgrwt>
</event>
<event>
 4    1  0.1760335E-005  0.4900968E+03  0.7818608E-02  0.1016397E+00
          2   -1    0    0  501    0  0.00000000000E+00  0.00000000000E+00  0.12455115181E+04  0.12455115181E+04  0.25500000000E-02 0.  1.
         -2   -1    0    0    0  501 -0.00000000000E+00 -0.00000000000E+00 -0.48212084241E+02  0.48212084309E+02  0.25500000000E-02 0. -1.
    5000001    1    1    2    0    0 -0.65956226355E+02 -0.11648779581E+03  0.46592410586E+03  0.52402853242E+03  0.19900000000E+03 0.  0.
   -5000001    1    1    2    0    0  0.65956226355E+02  0.11648779581E+03  0.73137532799E+03  0.76969506999E+03  0.19900000000E+03 0.  0.
<mgrwt>
<rscale>  0 0.49009675E+03</rscale>
<asrwt>0</asrwt>
<pdfrwt beam="1">  1        2 0.17793019E+00 0.49009675E+03</pdfrwt>
<pdfrwt beam="2">  1       -2 0.68874417E-02 0.49009675E+03</pdfrwt>
<totfact> 0.25320909E+03</totfact>
</mgrwt>
</event>
<event>
 4    1  0.1760335E-005  0.5091949E+03  0.7818608E-02  0.1011406E+00
         -2   -1    0    0    0  501 -0.00000000000E+00  0.00000000000E+00  0.27377066531E+03  0.27377066532E+03  0.25500000000E-02 0. -1.
          2   -1    0    0  501    0  0.00000000000E+00 -0.00000000000E+00 -0.23676699245E+03  0.23676699246E+03  0.25500000000E-02 0.  1.
    5000001    1    1    2    0    0 -0.15043114615E+03  0.15070728730E+02  0.67232477653E+02  0.25880081655E+03  0.19900000000E+03 0.  0.
   -5000001    1    1    2    0    0  0.15043114615E+03 -0.15070728730E+02 -0.30228804786E+02  0.25173684123E+03  0.19900000000E+03 0.  0.
<mgrwt>
<rscale>  0 0.50919488E+03</rscale>
<asrwt>0</asrwt>
<pdfrwt beam="1">  1        2 0.33823856E-01 0.50919488E+03</pdfrwt>
<pdfrwt beam="2">  1       -2 0.39110095E-01 0.50919488E+03</pdfrwt>
<totfact> 0.96255180E+02</totfact>
</mgrwt>
</event>
<event>
 4    1  0.1760335E-005  0.5532828E+03  0.7818608E-02  0.1000737E+00
          2   -1    0    0  501    0  0.00000000000E+00  0.00000000000E+00  0.10208975707E+04  0.10208975707E+04  0.25500000000E-02 0. -1.
         -2   -1    0    0    0  501 -0.00000000000E+00 -0.00000000000E+00 -0.74963900025E+02  0.74963900069E+02  0.25500000000E-02 0.  1.
    5000001    1    1    2    0    0 -0.18838869544E+03 -0.35664907829E+02  0.49857609671E+03  0.57003632379E+03  0.19900000000E+03 0.  0.
   -5000001    1    1    2    0    0  0.18838869544E+03  0.35664907829E+02  0.44735757395E+03  0.52582514697E+03  0.19900000000E+03 0.  0.
<mgrwt>
<rscale>  0 0.55328280E+03</rscale>
<asrwt>0</asrwt>
<pdfrwt beam="1">  1        2 0.14584251E+00 0.55328280E+03</pdfrwt>
<pdfrwt beam="2">  1       -2 0.10709128E-01 0.55328280E+03</pdfrwt>
<totfact> 0.16805059E+03</totfact>
</mgrwt>
</event>
<event>
 4    1  0.1760335E-005  0.4654584E+03  0.7818608E-02  0.1023210E+00
          2   -1    0    0  501    0  0.00000000000E+00  0.00000000000E+00  0.31006543488E+03  0.31006543489E+03  0.25500000000E-02 0.  1.
         -2   -1    0    0    0  501 -0.00000000000E+00 -0.00000000000E+00 -0.17468207885E+03  0.17468207887E+03  0.25500000000E-02 0. -1.
    5000001    1    1    2    0    0  0.11057296185E+03  0.41502137338E+02  0.93477968575E+02  0.24957551544E+03  0.19900000000E+03 0.  0.
   -5000001    1    1    2    0    0 -0.11057296185E+03 -0.41502137338E+02  0.41905387459E+02  0.23517199832E+03  0.19900000000E+03 0.  0.
<mgrwt>
<rscale>  0 0.46545838E+03</rscale>
<asrwt>0</asrwt>
<pdfrwt beam="1">  1        2 0.44295062E-01 0.46545838E+03</pdfrwt>
<pdfrwt beam="2">  1       -2 0.24954583E-01 0.46545838E+03</pdfrwt>
<totfact> 0.16439772E+03</totfact>
</mgrwt>
</event>
<event>
 4    1  0.1760335E-005  0.5897141E+03  0.7818608E-02  0.9926979E-01
          2   -1    0    0  501    0  0.00000000000E+00  0.00000000000E+00  0.11374830804E+04  0.11374830804E+04  0.25500000000E-02 0.  1.
         -2   -1    0    0    0  501 -0.00000000000E+00 -0.00000000000E+00 -0.76432512860E+02  0.76432512902E+02  0.25500000000E-02 0. -1.
    5000001    1    1    2    0    0 -0.15413519973E+03 -0.13516761004E+03  0.68055098581E+03  0.73809117790E+03  0.19900000000E+03 0.  0.
   -5000001    1    1    2    0    0  0.15413519973E+03  0.13516761004E+03  0.38049958170E+03  0.47582441538E+03  0.19900000000E+03 0.  0.
<mgrwt>
<rscale>  0 0.58971413E+03</rscale>
<asrwt>0</asrwt>
<pdfrwt beam="1">  1        2 0.16249759E+00 0.58971413E+03</pdfrwt>
<pdfrwt beam="2">  1       -2 0.10918930E-01 0.58971413E+03</pdfrwt>
<totfact> 0.13901834E+03</totfact>
</mgrwt>
</event>
<event>
 4    1  0.1760335E-005  0.1781531E+04  0.7818608E-02  0.8716183E-01
          2   -1    0    0  501    0  0.00000000000E+00  0.00000000000E+00  0.11672899175E+04  0.11672899175E+04  0.25500000000E-02 0.  1.
         -2   -1    0    0    0  501 -0.00000000000E+00 -0.00000000000E+00 -0.67974825068E+03  0.67974825069E+03  0.25500000000E-02 0. -1.
    5000001    1    1    2    0    0  0.41344758672E+03  0.72128709169E+03  0.50331210513E+03  0.99202724296E+03  0.19900000000E+03 0.  0.
   -5000001    1    1    2    0    0 -0.41344758672E+03 -0.72128709169E+03 -0.15770438283E+02  0.85501092526E+03  0.19900000000E+03 0.  0.
<mgrwt>
<rscale>  0 0.17815311E+04</rscale>
<asrwt>0</asrwt>
<pdfrwt beam="1">  1        2 0.16675570E+00 0.17815311E+04</pdfrwt>
<pdfrwt beam="2">  1       -2 0.97106892E-01 0.17815311E+04</pdfrwt>
<totfact> 0.18738540E+01</totfact>
</mgrwt>
</event>
<event>
 4    1  0.1760335E-005  0.1192375E+04  0.7818608E-02  0.9119557E-01
         -2   -1    0    0    0  501 -0.00000000000E+00  0.00000000000E+00  0.32001335407E+03  0.32001335408E+03  0.25500000000E-02 0. -1.
          2   -1    0    0  501    0  0.00000000000E+00 -0.00000000000E+00 -0.11107020103E+04  0.11107020103E+04  0.25500000000E-02 0.  1.
    5000001    1    1    2    0    0 -0.84785195460E+02  0.55553517064E+03 -0.40198400087E+03  0.71902711502E+03  0.19900000000E+03 0.  0.
   -5000001    1    1    2    0    0  0.84785195460E+02 -0.55553517064E+03 -0.38870465538E+03  0.71168824938E+03  0.19900000000E+03 0.  0.
<mgrwt>
<rscale>  0 0.11923749E+04</rscale>
<asrwt>0</asrwt>
<pdfrwt beam="1">  1        2 0.15867171E+00 0.11923749E+04</pdfrwt>
<pdfrwt beam="2">  1       -2 0.45716194E-01 0.11923749E+04</pdfrwt>
<totfact> 0.10781859E+02</totfact>
</mgrwt>
</event>
<event>
 4    1  0.1760335E-005  0.7694487E+03  0.7818608E-02  0.9605323E-01
         -2   -1    0    0    0  501 -0.00000000000E+00  0.00000000000E+00  0.47997897074E+02  0.47997897141E+02  0.25500000000E-02 0. -1.
          2   -1    0    0  501    0  0.00000000000E+00 -0.00000000000E+00 -0.30837356016E+04  0.30837356016E+04  0.25500000000E-02 0.  1.
    5000001    1    1    2    0    0 -0.91187523712E+02  0.24486054939E+03 -0.23333119418E+04  0.23563143829E+04  0.19900000000E+03 0.  0.
   -5000001    1    1    2    0    0  0.91187523712E+02 -0.24486054939E+03 -0.70242576267E+03  0.77541911583E+03  0.19900000000E+03 0.  0.
<mgrwt>
<rscale>  0 0.76944870E+03</rscale>
<asrwt>0</asrwt>
<pdfrwt beam="1">  1        2 0.44053353E+00 0.76944870E+03</pdfrwt>
<pdfrwt beam="2">  1       -2 0.68568444E-02 0.76944870E+03</pdfrwt>
<totfact> 0.27895403E+02</totfact>
</mgrwt>
</event>
<event>
 4    1  0.1760335E-005  0.5509411E+03  0.7818608E-02  0.1001276E+00
          2   -1    0    0  501    0  0.00000000000E+00  0.00000000000E+00  0.10302576650E+04  0.10302576650E+04  0.25500000000E-02 0.  1.
         -2   -1    0    0    0  501 -0.00000000000E+00 -0.00000000000E+00 -0.73655373504E+02  0.73655373548E+02  0.25500000000E-02 0. -1.
    5000001    1    1    2    0    0 -0.17293405851E+03  0.45297320182E+02  0.34652960010E+03  0.43776911672E+03  0.19900000000E+03 0.  0.
   -5000001    1    1    2    0    0  0.17293405851E+03 -0.45297320182E+02  0.61007269139E+03  0.66614392182E+03  0.19900000000E+03 0.  0.
<mgrwt>
<rscale>  0 0.55094106E+03</rscale>
<asrwt>0</asrwt>
<pdfrwt beam="1">  1        2 0.14717966E+00 0.55094106E+03</pdfrwt>
<pdfrwt beam="2">  1       -2 0.10522196E-01 0.55094106E+03</pdfrwt>
<totfact> 0.17071561E+03</totfact>
</mgrwt>
</event>
<event>
 4    1  0.1760335E-005  0.6992816E+03  0.7818608E-02  0.9718462E-01
          2   -1    0    0  501    0  0.00000000000E+00  0.00000000000E+00  0.85861670659E+03  0.85861670659E+03  0.25500000000E-02 0.  1.
         -2   -1    0    0    0  501 -0.00000000000E+00 -0.00000000000E+00 -0.14237863424E+03  0.14237863426E+03  0.25500000000E-02 0. -1.
    5000001    1    1    2    0    0  0.27304437947E+03  0.80249903549E+02  0.41634268724E+03  0.54215819960E+03  0.19900000000E+03 0.  0.
   -5000001    1    1    2    0    0 -0.27304437947E+03 -0.80249903549E+02  0.29989538511E+03  0.45883714125E+03  0.19900000000E+03 0.  0.
<mgrwt>
<rscale>  0 0.69928156E+03</rscale>
<asrwt>0</asrwt>
<pdfrwt beam="1">  1        2 0.12265953E+00 0.69928156E+03</pdfrwt>
<pdfrwt beam="2">  1       -2 0.20339805E-01 0.69928156E+03</pdfrwt>
<totfact> 0.72015554E+02</totfact>
</mgrwt>
</event>
<event>
 4    1  0.1760335E-005  0.5574253E+03  0.7818608E-02  0.9997897E-01
         -2   -1    0    0    0  501 -0.00000000000E+00  0.00000000000E+00  0.84204879737E+02  0.84204879775E+02  0.25500000000E-02 0. -1.
          2   -1    0    0  501    0  0.00000000000E+00 -0.00000000000E+00 -0.92252073172E+03  0.92252073172E+03  0.25500000000E-02 0.  1.
    5000001    1    1    2    0    0 -0.10571781614E+03  0.11751712694E+03 -0.62581371829E+03  0.67544825248E+03  0.19900000000E+03 0.  0.
   -5000001    1    1    2    0    0  0.10571781614E+03 -0.11751712694E+03 -0.21250213369E+03  0.33127735902E+03  0.19900000000E+03 0.  0.
<mgrwt>
<rscale>  0 0.55742532E+03</rscale>
<asrwt>0</asrwt>
<pdfrwt beam="1">  1        2 0.13178867E+00 0.55742532E+03</pdfrwt>
<pdfrwt beam="2">  1       -2 0.12029269E-01 0.55742532E+03</pdfrwt>
<totfact> 0.15980193E+03</totfact>
</mgrwt>
</event>
<event>
 4    1  0.1760335E-005  0.4996950E+03  0.7818608E-02  0.1013859E+00
          2   -1    0    0  501    0  0.00000000000E+00  0.00000000000E+00  0.57484935320E+03  0.57484935320E+03  0.25500000000E-02 0.  1.
         -2   -1    0    0    0  501 -0.00000000000E+00 -0.00000000000E+00 -0.10859152857E+03  0.10859152860E+03  0.25500000000E-02 0. -1.
    5000001    1    1    2    0    0  0.84494921348E+02 -0.72939028751E+02  0.37236265595E+03  0.43670864566E+03  0.19900000000E+03 0.  0.
   -5000001    1    1    2    0    0 -0.84494921348E+02  0.72939028751E+02  0.93895168675E+02  0.24673223614E+03  0.19900000000E+03 0.  0.
<mgrwt>
<rscale>  0 0.49969499E+03</rscale>
<asrwt>0</asrwt>
<pdfrwt beam="1">  1        2 0.82121335E-01 0.49969499E+03</pdfrwt>
<pdfrwt beam="2">  1       -2 0.15513076E-01 0.49969499E+03</pdfrwt>
<totfact> 0.18819800E+03</totfact>
</mgrwt>
</event>
<event>
 4    1  0.1760335E-005  0.4590302E+03  0.7818608E-02  0.1025063E+00
         -2   -1    0    0    0  501 -0.00000000000E+00  0.00000000000E+00  0.67005245016E+03  0.67005245016E+03  0.25500000000E-02 0.  1.
          2   -1    0    0  501    0  0.00000000000E+00 -0.00000000000E+00 -0.78616514507E+02  0.78616514548E+02  0.25500000000E-02 0. -1.
    5000001    1    1    2    0    0  0.10936277336E+03 -0.33384517812E+02  0.29767918868E+03  0.37588381397E+03  0.19900000000E+03 0.  0.
   -5000001    1    1    2    0    0 -0.10936277336E+03  0.33384517812E+02  0.29375674696E+03  0.37278515074E+03  0.19900000000E+03 0.  0.
<mgrwt>
<rscale>  0 0.45903023E+03</rscale>
<asrwt>0</asrwt>
<pdfrwt beam="1">  1        2 0.11230931E-01 0.45903023E+03</pdfrwt>
<pdfrwt beam="2">  1       -2 0.95721779E-01 0.45903023E+03</pdfrwt>
<totfact> 0.52967178E+02</totfact>
</mgrwt>
</event>
<event>
 4    1  0.1760335E-005  0.5098460E+03  0.7818608E-02  0.1011240E+00
         -2   -1    0    0    0  501 -0.00000000000E+00  0.00000000000E+00  0.85784164750E+02  0.85784164788E+02  0.25500000000E-02 0. -1.
          2   -1    0    0  501    0  0.00000000000E+00 -0.00000000000E+00 -0.75754941605E+03  0.75754941606E+03  0.25500000000E-02 0.  1.
    5000001    1    1    2    0    0 -0.12865477500E+03  0.33785025641E+02 -0.19081876415E+03  0.30611481480E+03  0.19900000000E+03 0.  0.
   -5000001    1    1    2    0    0  0.12865477500E+03 -0.33785025641E+02 -0.48094648715E+03  0.53721876605E+03  0.19900000000E+03 0.  0.
<mgrwt>
<rscale>  0 0.50984603E+03</rscale>
<asrwt>0</asrwt>
<pdfrwt beam="1">  1        2 0.10822134E+00 0.50984603E+03</pdfrwt>
<pdfrwt beam="2">  1       -2 0.12254881E-01 0.50984603E+03</pdfrwt>
<totfact> 0.20007713E+03</totfact>
</mgrwt>
</event>
<event>
 4    1  0.1760335E-005  0.7276418E+03  0.7818608E-02  0.9671095E-01
         -2   -1    0    0    0  501 -0.00000000000E+00  0.00000000000E+00  0.61794520664E+02  0.61794520716E+02  0.25500000000E-02 0.  1.
          2   -1    0    0  501    0  0.00000000000E+00 -0.00000000000E+00 -0.21420290008E+04  0.21420290008E+04  0.25500000000E-02 0. -1.
    5000001    1    1    2    0    0 -0.19354013650E+03 -0.23430481433E+03 -0.11013037579E+04  0.11596669771E+04  0.19900000000E+03 0.  0.
   -5000001    1    1    2    0    0  0.19354013650E+03  0.23430481433E+03 -0.97893072223E+03  0.10441565445E+04  0.19900000000E+03 0.  0.
<mgrwt>
<rscale>  0 0.72764182E+03</rscale>
<asrwt>0</asrwt>
<pdfrwt beam="1">  1        2 0.30600410E+00 0.72764182E+03</pdfrwt>
<pdfrwt beam="2">  1       -2 0.88277900E-02 0.72764182E+03</pdfrwt>
<totfact> 0.58335596E+02</totfact>
</mgrwt>
</event>
<event>
 4    1  0.1760335E-005  0.4808314E+03  0.7818608E-02  0.1018907E+00
         -2   -1    0    0    0  501 -0.00000000000E+00  0.00000000000E+00  0.32985165774E+02  0.32985165873E+02  0.25500000000E-02 0. -1.
          2   -1    0    0  501    0  0.00000000000E+00 -0.00000000000E+00 -0.17522939065E+04  0.17522939065E+04  0.25500000000E-02 0.  1.
    5000001    1    1    2    0    0  0.58740918536E+02 -0.11397063803E+03 -0.10153707440E+04  0.10426018174E+04  0.19900000000E+03 0.  0.
   -5000001    1    1    2    0    0 -0.58740918536E+02  0.11397063803E+03 -0.70393799675E+03  0.74267725501E+03  0.19900000000E+03 0.  0.
<mgrwt>
<rscale>  0 0.48083138E+03</rscale>
<asrwt>0</asrwt>
<pdfrwt beam="1">  1        2 0.25032764E+00 0.48083138E+03</pdfrwt>
<pdfrwt beam="2">  1       -2 0.47121677E-02 0.48083138E+03</pdfrwt>
<totfact> 0.24904994E+03</totfact>
</mgrwt>
</event>
<event>
 4    1  0.1760335E-005  0.6077453E+03  0.7818608E-02  0.9889466E-01
          2   -1    0    0  501    0  0.00000000000E+00  0.00000000000E+00  0.12775470613E+04  0.12775470613E+04  0.25500000000E-02 0.  1.
         -2   -1    0    0    0  501 -0.00000000000E+00 -0.00000000000E+00 -0.72278024822E+02  0.72278024867E+02  0.25500000000E-02 0. -1.
    5000001    1    1    2    0    0 -0.74028700639E+02 -0.15892457833E+03  0.27319909977E+03  0.38075716438E+03  0.19900000000E+03 0.  0.
   -5000001    1    1    2    0    0  0.74028700639E+02  0.15892457833E+03  0.93206993668E+03  0.96906792176E+03  0.19900000000E+03 0.  0.
<mgrwt>
<rscale>  0 0.60774527E+03</rscale>
<asrwt>0</asrwt>
<pdfrwt beam="1">  1        2 0.18250671E+00 0.60774527E+03</pdfrwt>
<pdfrwt beam="2">  1       -2 0.10325433E-01 0.60774527E+03</pdfrwt>
<totfact> 0.12707136E+03</totfact>
</mgrwt>
</event>
<event>
 4    1  0.1760335E-005  0.8041422E+03  0.7818608E-02  0.9554041E-01
         -2   -1    0    0    0  501 -0.00000000000E+00  0.00000000000E+00  0.13947760916E+03  0.13947760919E+03  0.25500000000E-02 0. -1.
          2   -1    0    0  501    0  0.00000000000E+00 -0.00000000000E+00 -0.11590475069E+04  0.11590475069E+04  0.25500000000E-02 0.  1.
    5000001    1    1    2    0    0 -0.34296659578E+03  0.15164301044E+02 -0.40508276658E+03  0.56705298661E+03  0.19900000000E+03 0.  0.
   -5000001    1    1    2    0    0  0.34296659578E+03 -0.15164301044E+02 -0.61448713117E+03  0.73147212949E+03  0.19900000000E+03 0.  0.
<mgrwt>
<rscale>  0 0.80414221E+03</rscale>
<asrwt>0</asrwt>
<pdfrwt beam="1">  1        2 0.16557821E+00 0.80414221E+03</pdfrwt>
<pdfrwt beam="2">  1       -2 0.19925373E-01 0.80414221E+03</pdfrwt>
<totfact> 0.48619481E+02</totfact>
</mgrwt>
</event>
<event>
 4    1  0.1760335E-005  0.5500918E+03  0.7818608E-02  0.1001473E+00
         -2   -1    0    0    0  501 -0.00000000000E+00  0.00000000000E+00  0.42314374800E+02  0.42314374877E+02  0.25500000000E-02 0. -1.
          2   -1    0    0  501    0  0.00000000000E+00 -0.00000000000E+00 -0.17878145692E+04  0.17878145692E+04  0.25500000000E-02 0.  1.
    5000001    1    1    2    0    0 -0.69230450683E+02 -0.60464643439E+02 -0.14254691013E+04  0.14422246660E+04  0.19900000000E+03 0.  0.
   -5000001    1    1    2    0    0  0.69230450683E+02  0.60464643439E+02 -0.32003109305E+03  0.38790427805E+03  0.19900000000E+03 0.  0.
<mgrwt>
<rscale>  0 0.55009183E+03</rscale>
<asrwt>0</asrwt>
<pdfrwt beam="1">  1        2 0.25540203E+00 0.55009183E+03</pdfrwt>
<pdfrwt beam="2">  1       -2 0.60449118E-02 0.55009183E+03</pdfrwt>
<totfact> 0.16204092E+03</totfact>
</mgrwt>
</event>
<event>
 4    1  0.1760335E-005  0.7177613E+03  0.7818608E-02  0.9687331E-01
         -2   -1    0    0    0  501 -0.00000000000E+00  0.00000000000E+00  0.34736257944E+02  0.34736258038E+02  0.25500000000E-02 0. -1.
          2   -1    0    0  501    0  0.00000000000E+00 -0.00000000000E+00 -0.37078065093E+04  0.37078065093E+04  0.25500000000E-02 0.  1.
    5000001    1    1    2    0    0  0.26064793352E+02 -0.27233514190E+03 -0.12119519367E+04  0.12582822815E+04  0.19900000000E+03 0.  0.
   -5000001    1    1    2    0    0 -0.26064793352E+02  0.27233514190E+03 -0.24611183146E+04  0.24842604858E+04  0.19900000000E+03 0.  0.
<mgrwt>
<rscale>  0 0.71776131E+03</rscale>
<asrwt>0</asrwt>
<pdfrwt beam="1">  1        2 0.52968639E+00 0.71776131E+03</pdfrwt>
<pdfrwt beam="2">  1       -2 0.49623249E-02 0.71776131E+03</pdfrwt>
<totfact> 0.20065402E+02</totfact>
</mgrwt>
</event>
<event>
 4    1  0.1760335E-005  0.5359645E+03  0.7818608E-02  0.1004796E+00
         -2   -1    0    0    0  501 -0.00000000000E+00  0.00000000000E+00  0.87978404969E+02  0.87978405006E+02  0.25500000000E-02 0. -1.
          2   -1    0    0  501    0  0.00000000000E+00 -0.00000000000E+00 -0.81627387682E+03  0.81627387682E+03  0.25500000000E-02 0.  1.
    5000001    1    1    2    0    0  0.92943806339E+02  0.14899660285E+03 -0.30158803008E+03  0.40173981466E+03  0.19900000000E+03 0.  0.
   -5000001    1    1    2    0    0 -0.92943806339E+02 -0.14899660285E+03 -0.42670744177E+03  0.50251246717E+03  0.19900000000E+03 0.  0.
<mgrwt>
<rscale>  0 0.53596445E+03</rscale>
<asrwt>0</asrwt>
<pdfrwt beam="1">  1        2 0.11661055E+00 0.53596445E+03</pdfrwt>
<pdfrwt beam="2">  1       -2 0.12568344E-01 0.53596445E+03</pdfrwt>
<totfact> 0.17463816E+03</totfact>
</mgrwt>
</event>
<event>
 4    1  0.1760335E-005  0.1201217E+04  0.7818608E-02  0.9111792E-01
          2   -1    0    0  501    0  0.00000000000E+00  0.00000000000E+00  0.21063845020E+03  0.21063845022E+03  0.25500000000E-02 0.  1.
         -2   -1    0    0    0  501 -0.00000000000E+00 -0.00000000000E+00 -0.17125592405E+04  0.17125592405E+04  0.25500000000E-02 0. -1.
    5000001    1    1    2    0    0 -0.23371667690E+03  0.40126280699E+02  0.73064224235E+02  0.31807701006E+03  0.19900000000E+03 0.  0.
   -5000001    1    1    2    0    0  0.23371667690E+03 -0.40126280699E+02 -0.15749850146E+04  0.16051206807E+04  0.19900000000E+03 0.  0.
<mgrwt>
<rscale>  0 0.12012174E+04</rscale>
<asrwt>0</asrwt>
<pdfrwt beam="1">  1        2 0.30091208E-01 0.12012174E+04</pdfrwt>
<pdfrwt beam="2">  1       -2 0.24465131E+00 0.12012174E+04</pdfrwt>
<totfact> 0.12182952E+01</totfact>
</mgrwt>
</event>
<event>
 4    1  0.1760335E-005  0.4326595E+03  0.7818608E-02  0.1033023E+00
          2   -1    0    0  501    0  0.00000000000E+00  0.00000000000E+00  0.32412168159E+04  0.32412168159E+04  0.25500000000E-02 0.  1.
         -2   -1    0    0    0  501 -0.00000000000E+00 -0.00000000000E+00 -0.14438577320E+02  0.14438577545E+02  0.25500000000E-02 0. -1.
    5000001    1    1    2    0    0 -0.27778002193E+02  0.78876174763E+02  0.17209935000E+04  0.17344776434E+04  0.19900000000E+03 0.  0.
   -5000001    1    1    2    0    0  0.27778002193E+02 -0.78876174763E+02  0.15057847386E+04  0.15211777501E+04  0.19900000000E+03 0.  0.
<mgrwt>
<rscale>  0 0.43265950E+03</rscale>
<asrwt>0</asrwt>
<pdfrwt beam="1">  1        2 0.46303137E+00 0.43265950E+03</pdfrwt>
<pdfrwt beam="2">  1       -2 0.20626522E-02 0.43265950E+03</pdfrwt>
<totfact> 0.14885174E+03</totfact>
</mgrwt>
</event>
<event>
 4    1  0.1760335E-005  0.5664314E+03  0.7818608E-02  0.9977607E-01
         -2   -1    0    0    0  501 -0.00000000000E+00  0.00000000000E+00  0.15925438669E+03  0.15925438671E+03  0.25500000000E-02 0.  1.
          2   -1    0    0  501    0  0.00000000000E+00 -0.00000000000E+00 -0.50366663199E+03  0.50366663200E+03  0.25500000000E-02 0. -1.
    5000001    1    1    2    0    0 -0.12664678858E+03  0.10151317295E+03 -0.31199170271E+03  0.40408434256E+03  0.19900000000E+03 0.  0.
   -5000001    1    1    2    0    0  0.12664678858E+03 -0.10151317295E+03 -0.32420542592E+02  0.25883667615E+03  0.19900000000E+03 0.  0.
<mgrwt>
<rscale>  0 0.56643136E+03</rscale>
<asrwt>0</asrwt>
<pdfrwt beam="1">  1        2 0.71952375E-01 0.56643136E+03</pdfrwt>
<pdfrwt beam="2">  1       -2 0.22750627E-01 0.56643136E+03</pdfrwt>
<totfact> 0.11317593E+03</totfact>
</mgrwt>
</event>
<event>
 4    1  0.1760335E-005  0.6195744E+03  0.7818608E-02  0.9865607E-01
          2   -1    0    0  501    0  0.00000000000E+00  0.00000000000E+00  0.28397661508E+04  0.28397661508E+04  0.25500000000E-02 0.  1.
         -2   -1    0    0    0  501 -0.00000000000E+00 -0.00000000000E+00 -0.33794370112E+02  0.33794370208E+02  0.25500000000E-02 0. -1.
    5000001    1    1    2    0    0 -0.14340462916E+03 -0.14361954002E+03  0.19743336319E+04  0.19946893869E+04  0.19900000000E+03 0.  0.
   -5000001    1    1    2    0    0  0.14340462916E+03  0.14361954002E+03  0.83163814874E+03  0.87887113412E+03  0.19900000000E+03 0.  0.
<mgrwt>
<rscale>  0 0.61957440E+03</rscale>
<asrwt>0</asrwt>
<pdfrwt beam="1">  1        2 0.40568093E+00 0.61957440E+03</pdfrwt>
<pdfrwt beam="2">  1       -2 0.48277665E-02 0.61957440E+03</pdfrwt>
<totfact> 0.66540809E+02</totfact>
</mgrwt>
</event>
<event>
 4    1  0.1760335E-005  0.6151143E+03  0.7818608E-02  0.9874536E-01
         -2   -1    0    0    0  501 -0.00000000000E+00  0.00000000000E+00  0.58504405483E+02  0.58504405538E+02  0.25500000000E-02 0. -1.
          2   -1    0    0  501    0  0.00000000000E+00 -0.00000000000E+00 -0.16168253113E+04  0.16168253113E+04  0.25500000000E-02 0.  1.
    5000001    1    1    2    0    0 -0.18528940242E+03  0.12428128155E+03 -0.58252424121E+03  0.65476216383E+03  0.19900000000E+03 0.  0.
   -5000001    1    1    2    0    0  0.18528940242E+03 -0.12428128155E+03 -0.97579666465E+03  0.10205675530E+04  0.19900000000E+03 0.  0.
<mgrwt>
<rscale>  0 0.61511431E+03</rscale>
<asrwt>0</asrwt>
<pdfrwt beam="1">  1        2 0.23097502E+00 0.61511431E+03</pdfrwt>
<pdfrwt beam="2">  1       -2 0.83577732E-02 0.61511431E+03</pdfrwt>
<totfact> 0.11827797E+03</totfact>
</mgrwt>
</event>
<event>
 4    1  0.1760335E-005  0.6607004E+03  0.7818608E-02  0.9786905E-01
          2   -1    0    0  501    0  0.00000000000E+00  0.00000000000E+00  0.17673033622E+04  0.17673033622E+04  0.25500000000E-02 0.  1.
         -2   -1    0    0    0  501 -0.00000000000E+00 -0.00000000000E+00 -0.61750147319E+02  0.61750147372E+02  0.25500000000E-02 0. -1.
    5000001    1    1    2    0    0  0.47652100218E+02  0.25901165664E+03  0.81641911974E+03  0.88062417637E+03  0.19900000000E+03 0.  0.
   -5000001    1    1    2    0    0 -0.47652100218E+02 -0.25901165664E+03  0.88913409511E+03  0.94842933317E+03  0.19900000000E+03 0.  0.
<mgrwt>
<rscale>  0 0.66070036E+03</rscale>
<asrwt>0</asrwt>
<pdfrwt beam="1">  1        2 0.25247190E+00 0.66070036E+03</pdfrwt>
<pdfrwt beam="2">  1       -2 0.88214500E-02 0.66070036E+03</pdfrwt>
<totfact> 0.90698149E+02</totfact>
</mgrwt>
</event>
<event>
 4    1  0.1760335E-005  0.9183950E+03  0.7818608E-02  0.9402875E-01
          2   -1    0    0  501    0  0.00000000000E+00  0.00000000000E+00  0.24740798000E+03  0.24740798001E+03  0.25500000000E-02 0.  1.
         -2   -1    0    0    0  501 -0.00000000000E+00 -0.00000000000E+00 -0.85228585676E+03  0.85228585677E+03  0.25500000000E-02 0. -1.
    5000001    1    1    2    0    0  0.30837737099E+03 -0.22107990336E+03 -0.50024122332E+03  0.65864649708E+03  0.19900000000E+03 0.  0.
   -5000001    1    1    2    0    0 -0.30837737099E+03  0.22107990336E+03 -0.10463665345E+03  0.44104733970E+03  0.19900000000E+03 0.  0.
<mgrwt>
<rscale>  0 0.91839495E+03</rscale>
<asrwt>0</asrwt>
<pdfrwt beam="1">  1        2 0.35343997E-01 0.91839495E+03</pdfrwt>
<pdfrwt beam="2">  1       -2 0.12175512E+00 0.91839495E+03</pdfrwt>
<totfact> 0.75944666E+01</totfact>
</mgrwt>
</event>
<event>
 4    1  0.1760335E-005  0.9585486E+03  0.7818608E-02  0.9355214E-01
          2   -1    0    0  501    0  0.00000000000E+00  0.00000000000E+00  0.42466945734E+03  0.42466945735E+03  0.25500000000E-02 0.  1.
         -2   -1    0    0    0  501 -0.00000000000E+00 -0.00000000000E+00 -0.54090030767E+03  0.54090030767E+03  0.25500000000E-02 0. -1.
    5000001    1    1    2    0    0  0.21547869271E+03 -0.14124331371E+03 -0.41243339199E+03  0.52543605083E+03  0.19900000000E+03 0.  0.
   -5000001    1    1    2    0    0 -0.21547869271E+03  0.14124331371E+03  0.29620254167E+03  0.44013371420E+03  0.19900000000E+03 0.  0.
<mgrwt>
<rscale>  0 0.95854857E+03</rscale>
<asrwt>0</asrwt>
<pdfrwt beam="1">  1        2 0.60667066E-01 0.95854857E+03</pdfrwt>
<pdfrwt beam="2">  1       -2 0.77271472E-01 0.95854857E+03</pdfrwt>
<totfact> 0.12096810E+02</totfact>
</mgrwt>
</event>
<event>
 4    1  0.1760335E-005  0.7018562E+03  0.7818608E-02  0.9714063E-01
          2   -1    0    0  501    0  0.00000000000E+00  0.00000000000E+00  0.38094054428E+04  0.38094054428E+04  0.25500000000E-02 0.  1.
         -2   -1    0    0    0  501 -0.00000000000E+00 -0.00000000000E+00 -0.32328014670E+02  0.32328014771E+02  0.25500000000E-02 0. -1.
    5000001    1    1    2    0    0  0.23495205303E+03 -0.80128506567E+02  0.26990582398E+04  0.27177452836E+04  0.19900000000E+03 0.  0.
   -5000001    1    1    2    0    0 -0.23495205303E+03  0.80128506567E+02  0.10780191883E+04  0.11239881740E+04  0.19900000000E+03 0.  0.
<mgrwt>
<rscale>  0 0.70185615E+03</rscale>
<asrwt>0</asrwt>
<pdfrwt beam="1">  1        2 0.54420083E+00 0.70185615E+03</pdfrwt>
<pdfrwt beam="2">  1       -2 0.46182874E-02 0.70185615E+03</pdfrwt>
<totfact> 0.19395316E+02</totfact>
</mgrwt>
</event>
<event>
 4    1  0.1760335E-005  0.1096569E+04  0.7818608E-02  0.9208542E-01
         -2   -1    0    0    0  501 -0.00000000000E+00  0.00000000000E+00  0.27186866381E+04  0.27186866381E+04  0.25500000000E-02 0. -1.
          2   -1    0    0  501    0  0.00000000000E+00 -0.00000000000E+00 -0.11057403077E+03  0.11057403080E+03  0.25500000000E-02 0.  1.
    5000001    1    1    2    0    0 -0.10562867397E+03 -0.45157107974E+03  0.75103943318E+03  0.90483981290E+03  0.19900000000E+03 0.  0.
   -5000001    1    1    2    0    0  0.10562867397E+03  0.45157107974E+03  0.18570731741E+04  0.19244208560E+04  0.19900000000E+03 0.  0.
<mgrwt>
<rscale>  0 0.10965695E+04</rscale>
<asrwt>0</asrwt>
<pdfrwt beam="1">  1        2 0.15796290E-01 0.10965695E+04</pdfrwt>
<pdfrwt beam="2">  1       -2 0.38838380E+00 0.10965695E+04</pdfrwt>
<totfact> 0.33939646E+00</totfact>
</mgrwt>
</event>
<event>
 4    1  0.1760335E-005  0.8046442E+03  0.7818608E-02  0.9553319E-01
          2   -1    0    0  501    0  0.00000000000E+00  0.00000000000E+00  0.24956012317E+04  0.24956012317E+04  0.25500000000E-02 0.  1.
         -2   -1    0    0    0  501 -0.00000000000E+00 -0.00000000000E+00 -0.64859355266E+02  0.64859355316E+02  0.25500000000E-02 0. -1.
    5000001    1    1    2    0    0 -0.32295771527E+03 -0.11929609512E+03  0.14096836564E+04  0.14646986910E+04  0.19900000000E+03 0.  0.
   -5000001    1    1    2    0    0  0.32295771527E+03  0.11929609512E+03  0.10210582200E+04  0.10957618961E+04  0.19900000000E+03 0.  0.
<mgrwt>
<rscale>  0 0.80464424E+03</rscale>
<asrwt>0</asrwt>
<pdfrwt beam="1">  1        2 0.35651440E+00 0.80464424E+03</pdfrwt>
<pdfrwt beam="2">  1       -2 0.92656238E-02 0.80464424E+03</pdfrwt>
<totfact> 0.35387576E+02</totfact>
</mgrwt>
</event>
<event>
 4    1  0.1760335E-005  0.5761612E+03  0.7818608E-02  0.9956137E-01
         -2   -1    0    0    0  501 -0.00000000000E+00  0.00000000000E+00  0.65676567487E+03  0.65676567488E+03  0.25500000000E-02 0. -1.
          2   -1    0    0  501    0  0.00000000000E+00 -0.00000000000E+00 -0.12636233519E+03  0.12636233521E+03  0.25500000000E-02 0.  1.
    5000001    1    1    2    0    0  0.17887449331E+03  0.22128159595E+02  0.12327116266E+03  0.29543615105E+03  0.19900000000E+03 0.  0.
   -5000001    1    1    2    0    0 -0.17887449331E+03 -0.22128159595E+02  0.40713217703E+03  0.48769185904E+03  0.19900000000E+03 0.  0.
<mgrwt>
<rscale>  0 0.57616124E+03</rscale>
<asrwt>0</asrwt>
<pdfrwt beam="1">  1        2 0.18051762E-01 0.57616124E+03</pdfrwt>
<pdfrwt beam="2">  1       -2 0.93823668E-01 0.57616124E+03</pdfrwt>
<totfact> 0.31127959E+02</totfact>
</mgrwt>
</event>
<event>
 4    1  0.1760335E-005  0.1080232E+04  0.7818608E-02  0.9224676E-01
         -2   -1    0    0    0  501 -0.00000000000E+00  0.00000000000E+00  0.98890376661E+02  0.98890376694E+02  0.25500000000E-02 0. -1.
          2   -1    0    0  501    0  0.00000000000E+00 -0.00000000000E+00 -0.29499869078E+04  0.29499869078E+04  0.25500000000E-02 0.  1.
    5000001    1    1    2    0    0  0.78167598803E+01 -0.49383122801E+03 -0.16810354346E+04  0.17633523515E+04  0.19900000000E+03 0.  0.
   -5000001    1    1    2    0    0 -0.78167598803E+01  0.49383122801E+03 -0.11700610966E+04  0.12855249330E+04  0.19900000000E+03 0.  0.
<mgrwt>
<rscale>  0 0.10802320E+04</rscale>
<asrwt>0</asrwt>
<pdfrwt beam="1">  1        2 0.42142665E+00 0.10802320E+04</pdfrwt>
<pdfrwt beam="2">  1       -2 0.14127198E-01 0.10802320E+04</pdfrwt>
<totfact> 0.98638502E+01</totfact>
</mgrwt>
</event>
<event>
 4    1  0.1760335E-005  0.6329795E+03  0.7818608E-02  0.9839252E-01
         -2   -1    0    0    0  501 -0.00000000000E+00  0.00000000000E+00  0.21847546740E+03  0.21847546742E+03  0.25500000000E-02 0. -1.
          2   -1    0    0  501    0  0.00000000000E+00 -0.00000000000E+00 -0.45847603580E+03  0.45847603581E+03  0.25500000000E-02 0.  1.
    5000001    1    1    2    0    0  0.52941200581E+02 -0.18809695430E+03  0.39997069923E+02  0.28175166466E+03  0.19900000000E+03 0.  0.
   -5000001    1    1    2    0    0 -0.52941200581E+02  0.18809695430E+03 -0.27999763833E+03  0.39519983857E+03  0.19900000000E+03 0.  0.
<mgrwt>
<rscale>  0 0.63297951E+03</rscale>
<asrwt>0</asrwt>
<pdfrwt beam="1">  1        2 0.65496576E-01 0.63297951E+03</pdfrwt>
<pdfrwt beam="2">  1       -2 0.31210781E-01 0.63297951E+03</pdfrwt>
<totfact> 0.70887570E+02</totfact>
</mgrwt>
</event>
<event>
 4    1  0.1760335E-005  0.4993620E+03  0.7818608E-02  0.1013946E+00
         -2   -1    0    0    0  501 -0.00000000000E+00  0.00000000000E+00  0.27186720739E+02  0.27186720859E+02  0.25500000000E-02 0. -1.
          2   -1    0    0  501    0  0.00000000000E+00 -0.00000000000E+00 -0.22930531266E+04  0.22930531266E+04  0.25500000000E-02 0.  1.
    5000001    1    1    2    0    0 -0.43558690528E+02 -0.13563784084E+03 -0.13626656615E+04  0.13844687387E+04  0.19900000000E+03 0.  0.
   -5000001    1    1    2    0    0  0.43558690528E+02  0.13563784084E+03 -0.90320074430E+03  0.93577110871E+03  0.19900000000E+03 0.  0.
<mgrwt>
<rscale>  0 0.49936197E+03</rscale>
<asrwt>0</asrwt>
<pdfrwt beam="1">  1        2 0.32757890E+00 0.49936197E+03</pdfrwt>
<pdfrwt beam="2">  1       -2 0.38838187E-02 0.49936197E+03</pdfrwt>
<totfact> 0.17962960E+03</totfact>
</mgrwt>
</event>
<event>
 4    1  0.1760335E-005  0.5468541E+03  0.7818608E-02  0.1002225E+00
         -2   -1    0    0    0  501 -0.00000000000E+00  0.00000000000E+00  0.12894173727E+03  0.12894173730E+03  0.25500000000E-02 0. -1.
          2   -1    0    0  501    0  0.00000000000E+00 -0.00000000000E+00 -0.57981499806E+03  0.57981499806E+03  0.25500000000E-02 0.  1.
    5000001    1    1    2    0    0 -0.13411381908E+03 -0.90743690721E+02 -0.34798418951E+03  0.43233659344E+03  0.19900000000E+03 0.  0.
   -5000001    1    1    2    0    0  0.13411381908E+03  0.90743690721E+02 -0.10288907127E+03  0.27642014192E+03  0.19900000000E+03 0.  0.
<mgrwt>
<rscale>  0 0.54685411E+03</rscale>
<asrwt>0</asrwt>
<pdfrwt beam="1">  1        2 0.82830712E-01 0.54685411E+03</pdfrwt>
<pdfrwt beam="2">  1       -2 0.18420249E-01 0.54685411E+03</pdfrwt>
<totfact> 0.13913148E+03</totfact>
</mgrwt>
</event>
<event>
 4    1  0.1760335E-005  0.4838707E+03  0.7818608E-02  0.1018077E+00
         -2   -1    0    0    0  501 -0.00000000000E+00  0.00000000000E+00  0.20667610015E+03  0.20667610016E+03  0.25500000000E-02 0. -1.
          2   -1    0    0  501    0  0.00000000000E+00 -0.00000000000E+00 -0.28320984079E+03  0.28320984080E+03  0.25500000000E-02 0.  1.
    5000001    1    1    2    0    0  0.85235656746E+02 -0.43073839166E+02  0.62016164377E+02  0.22927598532E+03  0.19900000000E+03 0.  0.
   -5000001    1    1    2    0    0 -0.85235656746E+02  0.43073839166E+02 -0.13854990502E+03  0.26060995565E+03  0.19900000000E+03 0.  0.
<mgrwt>
<rscale>  0 0.48387067E+03</rscale>
<asrwt>0</asrwt>
<pdfrwt beam="1">  1        2 0.40458548E-01 0.48387067E+03</pdfrwt>
<pdfrwt beam="2">  1       -2 0.29525157E-01 0.48387067E+03</pdfrwt>
<totfact> 0.13395844E+03</totfact>
</mgrwt>
</event>
<event>
 4    1  0.1760335E-005  0.7815361E+03  0.7818608E-02  0.9587134E-01
         -2   -1    0    0    0  501 -0.00000000000E+00  0.00000000000E+00  0.22193485956E+03  0.22193485957E+03  0.25500000000E-02 0. -1.
          2   -1    0    0  501    0  0.00000000000E+00 -0.00000000000E+00 -0.68803819913E+03  0.68803819913E+03  0.25500000000E-02 0.  1.
    5000001    1    1    2    0    0 -0.11913862480E+03 -0.11934679392E+03  0.10573099410E+03  0.28145641270E+03  0.19900000000E+03 0.  0.
   -5000001    1    1    2    0    0  0.11913862480E+03  0.11934679392E+03 -0.57183433367E+03  0.62851664600E+03  0.19900000000E+03 0.  0.
<mgrwt>
<rscale>  0 0.78153608E+03</rscale>
<asrwt>0</asrwt>
<pdfrwt beam="1">  1        2 0.98291170E-01 0.78153608E+03</pdfrwt>
<pdfrwt beam="2">  1       -2 0.31704980E-01 0.78153608E+03</pdfrwt>
<totfact> 0.42646155E+02</totfact>
</mgrwt>
</event>
<event>
 4    1  0.1760335E-005  0.6267340E+03  0.7818608E-02  0.9851443E-01
         -2   -1    0    0    0  501 -0.00000000000E+00  0.00000000000E+00  0.56465168646E+02  0.56465168704E+02  0.25500000000E-02 0. -1.
          2   -1    0    0  501    0  0.00000000000E+00 -0.00000000000E+00 -0.17391053818E+04  0.17391053818E+04  0.25500000000E-02 0.  1.
    5000001    1    1    2    0    0  0.15234966069E+03  0.14271758485E+03 -0.11924290563E+04  0.12268116328E+04  0.19900000000E+03 0.  0.
   -5000001    1    1    2    0    0 -0.15234966069E+03 -0.14271758485E+03 -0.49021115691E+03  0.56875891773E+03  0.19900000000E+03 0.  0.
<mgrwt>
<rscale>  0 0.62673401E+03</rscale>
<asrwt>0</asrwt>
<pdfrwt beam="1">  1        2 0.24844359E+00 0.62673401E+03</pdfrwt>
<pdfrwt beam="2">  1       -2 0.80664538E-02 0.62673401E+03</pdfrwt>
<totfact> 0.10836558E+03</totfact>
</mgrwt>
</event>
<event>
 4    1  0.1760335E-005  0.5903927E+03  0.7818608E-02  0.9925541E-01
         -2   -1    0    0    0  501 -0.00000000000E+00  0.00000000000E+00  0.11210003947E+03  0.11210003950E+03  0.25500000000E-02 0. -1.
          2   -1    0    0  501    0  0.00000000000E+00 -0.00000000000E+00 -0.77734931597E+03  0.77734931597E+03  0.25500000000E-02 0.  1.
    5000001    1    1    2    0    0  0.21517330716E+03  0.77499689560E+01 -0.38438196287E+03  0.48343573256E+03  0.19900000000E+03 0.  0.
   -5000001    1    1    2    0    0 -0.21517330716E+03 -0.77499689560E+01 -0.28086731362E+03  0.40601362292E+03  0.19900000000E+03 0.  0.
<mgrwt>
<rscale>  0 0.59039271E+03</rscale>
<asrwt>0</asrwt>
<pdfrwt beam="1">  1        2 0.11104990E+00 0.59039271E+03</pdfrwt>
<pdfrwt beam="2">  1       -2 0.16014292E-01 0.59039271E+03</pdfrwt>
<totfact> 0.12388510E+03</totfact>
</mgrwt>
</event>
<event>
 4    1  0.1760335E-005  0.1129323E+04  0.7818608E-02  0.9177074E-01
         -2   -1    0    0    0  501 -0.00000000000E+00  0.00000000000E+00  0.43061617889E+03  0.43061617889E+03  0.25500000000E-02 0. -1.
          2   -1    0    0  501    0  0.00000000000E+00 -0.00000000000E+00 -0.74043281992E+03  0.74043281993E+03  0.25500000000E-02 0.  1.
    5000001    1    1    2    0    0  0.49857811498E+03  0.14854909681E+02  0.26010310402E+02  0.53766006113E+03  0.19900000000E+03 0.  0.
   -5000001    1    1    2    0    0 -0.49857811498E+03 -0.14854909681E+02 -0.33582695144E+03  0.63338893770E+03  0.19900000000E+03 0.  0.
<mgrwt>
<rscale>  0 0.11293225E+04</rscale>
<asrwt>0</asrwt>
<pdfrwt beam="1">  1        2 0.10577612E+00 0.11293225E+04</pdfrwt>
<pdfrwt beam="2">  1       -2 0.61516597E-01 0.11293225E+04</pdfrwt>
<totfact> 0.10222395E+02</totfact>
</mgrwt>
</event>
<event>
 4    1  0.1760335E-005  0.1278152E+04  0.7818608E-02  0.9047073E-01
          2   -1    0    0  501    0  0.00000000000E+00  0.00000000000E+00  0.32605348373E+03  0.32605348374E+03  0.25500000000E-02 0.  1.
         -2   -1    0    0    0  501 -0.00000000000E+00 -0.00000000000E+00 -0.12526102810E+04  0.12526102810E+04  0.25500000000E-02 0. -1.
    5000001    1    1    2    0    0 -0.55960107607E+02 -0.60275078136E+03 -0.52349460702E+03  0.82467426397E+03  0.19900000000E+03 0.  0.
   -5000001    1    1    2    0    0  0.55960107607E+02  0.60275078136E+03 -0.40306219029E+03  0.75398950080E+03  0.19900000000E+03 0.  0.
<mgrwt>
<rscale>  0 0.12781517E+04</rscale>
<asrwt>0</asrwt>
<pdfrwt beam="1">  1        2 0.46579070E-01 0.12781517E+04</pdfrwt>
<pdfrwt beam="2">  1       -2 0.17894432E+00 0.12781517E+04</pdfrwt>
<totfact> 0.19679512E+01</totfact>
</mgrwt>
</event>
<event>
 4    1  0.1760335E-005  0.1070701E+04  0.7818608E-02  0.9234229E-01
          2   -1    0    0  501    0  0.00000000000E+00  0.00000000000E+00  0.35017952333E+04  0.35017952333E+04  0.25500000000E-02 0.  1.
         -2   -1    0    0    0  501 -0.00000000000E+00 -0.00000000000E+00 -0.81843800970E+02  0.81843801010E+02  0.25500000000E-02 0. -1.
    5000001    1    1    2    0    0 -0.64692755044E+02 -0.45748293126E+03  0.23227920458E+04  0.23766446248E+04  0.19900000000E+03 0.  0.
   -5000001    1    1    2    0    0  0.64692755044E+02  0.45748293126E+03  0.10971593866E+04  0.12069944095E+04  0.19900000000E+03 0.  0.
<mgrwt>
<rscale>  0 0.10707011E+04</rscale>
<asrwt>0</asrwt>
<pdfrwt beam="1">  1        2 0.50025642E+00 0.10707011E+04</pdfrwt>
<pdfrwt beam="2">  1       -2 0.11691973E-01 0.10707011E+04</pdfrwt>
<totfact> 0.65333321E+01</totfact>
</mgrwt>
</event>
<event>
 4    1  0.1760335E-005  0.6789491E+03  0.7818608E-02  0.9753925E-01
         -2   -1    0    0    0  501 -0.00000000000E+00  0.00000000000E+00  0.27149807598E+03  0.27149807599E+03  0.25500000000E-02 0. -1.
          2   -1    0    0  501    0  0.00000000000E+00 -0.00000000000E+00 -0.42447067071E+03  0.42447067072E+03  0.25500000000E-02 0.  1.
    5000001    1    1    2    0    0  0.21073931981E+03  0.16122498113E+03 -0.23021666409E+01  0.33167884380E+03  0.19900000000E+03 0.  0.
   -5000001    1    1    2    0    0 -0.21073931981E+03 -0.16122498113E+03 -0.15067042809E+03  0.36428990290E+03  0.19900000000E+03 0.  0.
<mgrwt>
<rscale>  0 0.67894910E+03</rscale>
<asrwt>0</asrwt>
<pdfrwt beam="1">  1        2 0.60638667E-01 0.67894910E+03</pdfrwt>
<pdfrwt beam="2">  1       -2 0.38785439E-01 0.67894910E+03</pdfrwt>
<totfact> 0.51141350E+02</totfact>
</mgrwt>
</event>
<event>
 4    1  0.1760335E-005  0.7471979E+03  0.7818608E-02  0.9639757E-01
         -2   -1    0    0    0  501 -0.00000000000E+00  0.00000000000E+00  0.11981605814E+03  0.11981605816E+03  0.25500000000E-02 0. -1.
          2   -1    0    0  501    0  0.00000000000E+00 -0.00000000000E+00 -0.11649203126E+04  0.11649203126E+04  0.25500000000E-02 0.  1.
    5000001    1    1    2    0    0 -0.17103557646E+03  0.13948723778E+03 -0.91185728775E+03  0.95905921149E+03  0.19900000000E+03 0.  0.
   -5000001    1    1    2    0    0  0.17103557646E+03 -0.13948723778E+03 -0.13324696667E+03  0.32567715923E+03  0.19900000000E+03 0.  0.
<mgrwt>
<rscale>  0 0.74719786E+03</rscale>
<asrwt>0</asrwt>
<pdfrwt beam="1">  1        2 0.16641718E+00 0.74719786E+03</pdfrwt>
<pdfrwt beam="2">  1       -2 0.17116580E-01 0.74719786E+03</pdfrwt>
<totfact> 0.62919582E+02</totfact>
</mgrwt>
</event>
<event>
 4    1  0.1760335E-005  0.1039505E+04  0.7818608E-02  0.9266247E-01
         -2   -1    0    0    0  501 -0.00000000000E+00  0.00000000000E+00  0.23157662667E+03  0.23157662669E+03  0.25500000000E-02 0. -1.
          2   -1    0    0  501    0  0.00000000000E+00 -0.00000000000E+00 -0.11665376117E+04  0.11665376117E+04  0.25500000000E-02 0.  1.
    5000001    1    1    2    0    0 -0.57424451231E+02  0.46001858115E+03 -0.63561477268E+03  0.81149356243E+03  0.19900000000E+03 0.  0.
   -5000001    1    1    2    0    0  0.57424451231E+02 -0.46001858115E+03 -0.29934621232E+03  0.58662067593E+03  0.19900000000E+03 0.  0.
<mgrwt>
<rscale>  0 0.10395054E+04</rscale>
<asrwt>0</asrwt>
<pdfrwt beam="1">  1        2 0.16664823E+00 0.10395054E+04</pdfrwt>
<pdfrwt beam="2">  1       -2 0.33082376E-01 0.10395054E+04</pdfrwt>
<totfact> 0.18940304E+02</totfact>
</mgrwt>
</event>
<event>
 4    1  0.1760335E-005  0.6897303E+03  0.7818608E-02  0.9734958E-01
          2   -1    0    0  501    0  0.00000000000E+00  0.00000000000E+00  0.59278174866E+03  0.59278174866E+03  0.25500000000E-02 0.  1.
         -2   -1    0    0    0  501 -0.00000000000E+00 -0.00000000000E+00 -0.20063365764E+03  0.20063365765E+03  0.25500000000E-02 0. -1.
    5000001    1    1    2    0    0  0.20569861569E+03 -0.19206717885E+03  0.18299625202E+03  0.39024396208E+03  0.19900000000E+03 0.  0.
   -5000001    1    1    2    0    0 -0.20569861569E+03  0.19206717885E+03  0.20915183900E+03  0.40317144423E+03  0.19900000000E+03 0.  0.
<mgrwt>
<rscale>  0 0.68973030E+03</rscale>
<asrwt>0</asrwt>
<pdfrwt beam="1">  1        2 0.84683107E-01 0.68973030E+03</pdfrwt>
<pdfrwt beam="2">  1       -2 0.28661951E-01 0.68973030E+03</pdfrwt>
<totfact> 0.61680922E+02</totfact>
</mgrwt>
</event>
<event>
 4    1  0.1760335E-005  0.6757949E+03  0.7818608E-02  0.9759546E-01
         -2   -1    0    0    0  501 -0.00000000000E+00  0.00000000000E+00  0.61255628468E+02  0.61255628521E+02  0.25500000000E-02 0. -1.
          2   -1    0    0  501    0  0.00000000000E+00 -0.00000000000E+00 -0.18639050404E+04  0.18639050404E+04  0.25500000000E-02 0.  1.
    5000001    1    1    2    0    0 -0.23971272851E+03 -0.12155384847E+03 -0.10390145590E+04  0.10915080321E+04  0.19900000000E+03 0.  0.
   -5000001    1    1    2    0    0  0.23971272851E+03  0.12155384847E+03 -0.76363485287E+03  0.83365263677E+03  0.19900000000E+03 0.  0.
<mgrwt>
<rscale>  0 0.67579486E+03</rscale>
<asrwt>0</asrwt>
<pdfrwt beam="1">  1        2 0.26627211E+00 0.67579486E+03</pdfrwt>
<pdfrwt beam="2">  1       -2 0.87508052E-02 0.67579486E+03</pdfrwt>
<totfact> 0.82021755E+02</totfact>
</mgrwt>
</event>
<event>
 4    1  0.1760335E-005  0.4681801E+03  0.7818608E-02  0.1022435E+00
          2   -1    0    0  501    0  0.00000000000E+00  0.00000000000E+00  0.20052052292E+04  0.20052052292E+04  0.25500000000E-02 0.  1.
         -2   -1    0    0    0  501 -0.00000000000E+00 -0.00000000000E+00 -0.27327956977E+02  0.27327957096E+02  0.25500000000E-02 0. -1.
    5000001    1    1    2    0    0 -0.81997166280E+02 -0.25784415158E+02  0.13725721610E+04  0.13895840056E+04  0.19900000000E+03 0.  0.
   -5000001    1    1    2    0    0  0.81997166280E+02  0.25784415158E+02  0.60530511120E+03  0.64294918072E+03  0.19900000000E+03 0.  0.
<mgrwt>
<rscale>  0 0.46818015E+03</rscale>
<asrwt>0</asrwt>
<pdfrwt beam="1">  1        2 0.28645793E+00 0.46818015E+03</pdfrwt>
<pdfrwt beam="2">  1       -2 0.39039933E-02 0.46818015E+03</pdfrwt>
<totfact> 0.24852176E+03</totfact>
</mgrwt>
</event>
<event>
 4    1  0.1760335E-005  0.4731681E+03  0.7818608E-02  0.1021030E+00
         -2   -1    0    0    0  501 -0.00000000000E+00  0.00000000000E+00  0.52171399673E+02  0.52171399735E+02  0.25500000000E-02 0. -1.
          2   -1    0    0  501    0  0.00000000000E+00 -0.00000000000E+00 -0.10728487914E+04  0.10728487914E+04  0.25500000000E-02 0.  1.
    5000001    1    1    2    0    0  0.33428137832E+02 -0.60643085352E+02 -0.25452484362E+03  0.33042233614E+03  0.19900000000E+03 0.  0.
   -5000001    1    1    2    0    0 -0.33428137832E+02  0.60643085352E+02 -0.76615254813E+03  0.79459785502E+03  0.19900000000E+03 0.  0.
<mgrwt>
<rscale>  0 0.47316814E+03</rscale>
<asrwt>0</asrwt>
<pdfrwt beam="1">  1        2 0.15326410E+00 0.47316814E+03</pdfrwt>
<pdfrwt beam="2">  1       -2 0.74530578E-02 0.47316814E+03</pdfrwt>
<totfact> 0.27988517E+03</totfact>
</mgrwt>
</event>
<event>
 4    1  0.1760335E-005  0.7240477E+03  0.7818608E-02  0.9676969E-01
          2   -1    0    0  501    0  0.00000000000E+00  0.00000000000E+00  0.48036363937E+03  0.48036363937E+03  0.25500000000E-02 0.  1.
         -2   -1    0    0    0  501 -0.00000000000E+00 -0.00000000000E+00 -0.27283763114E+03  0.27283763115E+03  0.25500000000E-02 0. -1.
    5000001    1    1    2    0    0 -0.13159752271E+03 -0.27102668362E+03  0.76498815357E+02  0.36908866139E+03  0.19900000000E+03 0.  0.
   -5000001    1    1    2    0    0  0.13159752271E+03  0.27102668362E+03  0.13102719287E+03  0.38411260913E+03  0.19900000000E+03 0.  0.
<mgrwt>
<rscale>  0 0.72404773E+03</rscale>
<asrwt>0</asrwt>
<pdfrwt beam="1">  1        2 0.68623378E-01 0.72404773E+03</pdfrwt>
<pdfrwt beam="2">  1       -2 0.38976804E-01 0.72404773E+03</pdfrwt>
<totfact> 0.44006948E+02</totfact>
</mgrwt>
</event>
<event>
 4    1  0.1760335E-005  0.4519708E+03  0.7818608E-02  0.1027136E+00
         -2   -1    0    0    0  501 -0.00000000000E+00  0.00000000000E+00  0.62743595999E+03  0.62743595999E+03  0.25500000000E-02 0. -1.
          2   -1    0    0  501    0  0.00000000000E+00 -0.00000000000E+00 -0.81393805211E+02  0.81393805251E+02  0.25500000000E-02 0.  1.
    5000001    1    1    2    0    0  0.84571070341E+02  0.29263514887E+02  0.36526884845E+03  0.42547732124E+03  0.19900000000E+03 0.  0.
   -5000001    1    1    2    0    0 -0.84571070341E+02 -0.29263514887E+02  0.18077330633E+03  0.28335244400E+03  0.19900000000E+03 0.  0.
<mgrwt>
<rscale>  0 0.45197080E+03</rscale>
<asrwt>0</asrwt>
<pdfrwt beam="1">  1        2 0.11627686E-01 0.45197080E+03</pdfrwt>
<pdfrwt beam="2">  1       -2 0.89633711E-01 0.45197080E+03</pdfrwt>
<totfact> 0.59013454E+02</totfact>
</mgrwt>
</event>
<event>
 4    1  0.1760335E-005  0.4814420E+03  0.7818608E-02  0.1018740E+00
          2   -1    0    0  501    0  0.00000000000E+00  0.00000000000E+00  0.10404564237E+04  0.10404564237E+04  0.25500000000E-02 0.  1.
         -2   -1    0    0    0  501 -0.00000000000E+00 -0.00000000000E+00 -0.55693439274E+02  0.55693439333E+02  0.25500000000E-02 0. -1.
    5000001    1    1    2    0    0  0.75810605047E+02  0.97905155725E+02  0.61735571482E+03  0.66034971490E+03  0.19900000000E+03 0.  0.
   -5000001    1    1    2    0    0 -0.75810605047E+02 -0.97905155725E+02  0.36740726963E+03  0.43580014816E+03  0.19900000000E+03 0.  0.
<mgrwt>
<rscale>  0 0.48144199E+03</rscale>
<asrwt>0</asrwt>
<pdfrwt beam="1">  1        2 0.14863663E+00 0.48144199E+03</pdfrwt>
<pdfrwt beam="2">  1       -2 0.79562059E-02 0.48144199E+03</pdfrwt>
<totfact> 0.26373244E+03</totfact>
</mgrwt>
</event>
<event>
 4    1  0.1760335E-005  0.5824425E+03  0.7818608E-02  0.9942517E-01
         -2   -1    0    0    0  501 -0.00000000000E+00  0.00000000000E+00  0.67878620432E+02  0.67878620480E+02  0.25500000000E-02 0. -1.
          2   -1    0    0  501    0  0.00000000000E+00 -0.00000000000E+00 -0.12494334495E+04  0.12494334495E+04  0.25500000000E-02 0.  1.
    5000001    1    1    2    0    0  0.15036523344E+03  0.14864581893E+03 -0.64152914679E+03  0.70417748409E+03  0.19900000000E+03 0.  0.
   -5000001    1    1    2    0    0 -0.15036523344E+03 -0.14864581893E+03 -0.54002568231E+03  0.61313458593E+03  0.19900000000E+03 0.  0.
<mgrwt>
<rscale>  0 0.58244251E+03</rscale>
<asrwt>0</asrwt>
<pdfrwt beam="1">  1        2 0.17849048E+00 0.58244251E+03</pdfrwt>
<pdfrwt beam="2">  1       -2 0.96969465E-02 0.58244251E+03</pdfrwt>
<totfact> 0.14587971E+03</totfact>
</mgrwt>
</event>
<event>
 4    1  0.1760335E-005  0.5370412E+03  0.7818608E-02  0.1004539E+00
          2   -1    0    0  501    0  0.00000000000E+00  0.00000000000E+00  0.66698609421E+03  0.66698609422E+03  0.25500000000E-02 0.  1.
         -2   -1    0    0    0  501 -0.00000000000E+00 -0.00000000000E+00 -0.10810318575E+03  0.10810318578E+03  0.25500000000E-02 0. -1.
    5000001    1    1    2    0    0 -0.13622509147E+02  0.14974537738E+03  0.13588931851E+03  0.28403548667E+03  0.19900000000E+03 0.  0.
   -5000001    1    1    2    0    0  0.13622509147E+02 -0.14974537738E+03  0.42299358996E+03  0.49105379333E+03  0.19900000000E+03 0.  0.
<mgrwt>
<rscale>  0 0.53704123E+03</rscale>
<asrwt>0</asrwt>
<pdfrwt beam="1">  1        2 0.95283729E-01 0.53704123E+03</pdfrwt>
<pdfrwt beam="2">  1       -2 0.15443312E-01 0.53704123E+03</pdfrwt>
<totfact> 0.15914060E+03</totfact>
</mgrwt>
</event>
<event>
 4    1  0.1760335E-005  0.4194661E+03  0.7818608E-02  0.1037240E+00
          2   -1    0    0  501    0  0.00000000000E+00  0.00000000000E+00  0.20244322561E+04  0.20244322561E+04  0.25500000000E-02 0.  1.
         -2   -1    0    0    0  501 -0.00000000000E+00 -0.00000000000E+00 -0.21728536239E+02  0.21728536388E+02  0.25500000000E-02 0. -1.
    5000001    1    1    2    0    0  0.45426398228E+02  0.48120009931E+02  0.98767881430E+03  0.10096977435E+04  0.19900000000E+03 0.  0.
   -5000001    1    1    2    0    0 -0.45426398228E+02 -0.48120009931E+02  0.10150249056E+04  0.10364630490E+04  0.19900000000E+03 0.  0.
<mgrwt>
<rscale>  0 0.41946609E+03</rscale>
<asrwt>0</asrwt>
<pdfrwt beam="1">  1        2 0.28920467E+00 0.41946609E+03</pdfrwt>
<pdfrwt beam="2">  1       -2 0.31040760E-02 0.41946609E+03</pdfrwt>
<totfact> 0.34475725E+03</totfact>
</mgrwt>
</event>
<event>
 4    1  0.1760335E-005  0.4471036E+03  0.7818608E-02  0.1028589E+00
         -2   -1    0    0    0  501 -0.00000000000E+00  0.00000000000E+00  0.36985936362E+02  0.36985936450E+02  0.25500000000E-02 0. -1.
          2   -1    0    0  501    0  0.00000000000E+00 -0.00000000000E+00 -0.13512005384E+04  0.13512005384E+04  0.25500000000E-02 0.  1.
    5000001    1    1    2    0    0 -0.41876799664E+02  0.86678127448E+02 -0.55377372124E+03  0.59626596286E+03  0.19900000000E+03 0.  0.
   -5000001    1    1    2    0    0  0.41876799664E+02 -0.86678127448E+02 -0.76044088080E+03  0.79192051199E+03  0.19900000000E+03 0.  0.
<mgrwt>
<rscale>  0 0.44710364E+03</rscale>
<asrwt>0</asrwt>
<pdfrwt beam="1">  1        2 0.19302862E+00 0.44710364E+03</pdfrwt>
<pdfrwt beam="2">  1       -2 0.52837060E-02 0.44710364E+03</pdfrwt>
<totfact> 0.33563525E+03</totfact>
</mgrwt>
</event>
<event>
 4    1  0.1760335E-005  0.7256011E+03  0.7818608E-02  0.9674426E-01
          2   -1    0    0  501    0  0.00000000000E+00  0.00000000000E+00  0.53389995455E+03  0.53389995455E+03  0.25500000000E-02 0.  1.
         -2   -1    0    0    0  501 -0.00000000000E+00 -0.00000000000E+00 -0.24653353541E+03  0.24653353543E+03  0.25500000000E-02 0. -1.
    5000001    1    1    2    0    0 -0.11429769209E+03  0.27155215666E+03  0.22138292385E+03  0.41882685584E+03  0.19900000000E+03 0.  0.
   -5000001    1    1    2    0    0  0.11429769209E+03 -0.27155215666E+03  0.65983495281E+02  0.36160663414E+03  0.19900000000E+03 0.  0.
<mgrwt>
<rscale>  0 0.72560111E+03</rscale>
<asrwt>0</asrwt>
<pdfrwt beam="1">  1        2 0.76271421E-01 0.72560111E+03</pdfrwt>
<pdfrwt beam="2">  1       -2 0.35219077E-01 0.72560111E+03</pdfrwt>
<totfact> 0.47362456E+02</totfact>
</mgrwt>
</event>
<event>
 4    1  0.1760335E-005  0.1184448E+04  0.7818608E-02  0.9126579E-01
          2   -1    0    0  501    0  0.00000000000E+00  0.00000000000E+00  0.80798630683E+03  0.80798630683E+03  0.25500000000E-02 0. -1.
         -2   -1    0    0    0  501 -0.00000000000E+00 -0.00000000000E+00 -0.43407813647E+03  0.43407813648E+03  0.25500000000E-02 0.  1.
    5000001    1    1    2    0    0  0.17306264677E+03 -0.40225841138E+03  0.54925373783E+03  0.73009806037E+03  0.19900000000E+03 0.  0.
   -5000001    1    1    2    0    0 -0.17306264677E+03  0.40225841138E+03 -0.17534556748E+03  0.51196638294E+03  0.19900000000E+03 0.  0.
<mgrwt>
<rscale>  0 0.11844479E+04</rscale>
<asrwt>0</asrwt>
<pdfrwt beam="1">  1        2 0.11542661E+00 0.11844479E+04</pdfrwt>
<pdfrwt beam="2">  1       -2 0.62011163E-01 0.11844479E+04</pdfrwt>
<totfact> 0.89574166E+01</totfact>
</mgrwt>
</event>
<event>
 4    1  0.1760335E-005  0.4702125E+03  0.7818608E-02  0.1021860E+00
         -2   -1    0    0    0  501 -0.00000000000E+00  0.00000000000E+00  0.63387625953E+02  0.63387626005E+02  0.25500000000E-02 0. -1.
          2   -1    0    0  501    0  0.00000000000E+00 -0.00000000000E+00 -0.87201489318E+03  0.87201489318E+03  0.25500000000E-02 0.  1.
    5000001    1    1    2    0    0 -0.17973830921E+02 -0.38240542224E+02 -0.16987299497E+03  0.26503439793E+03  0.19900000000E+03 0.  0.
   -5000001    1    1    2    0    0  0.17973830921E+02  0.38240542224E+02 -0.63875427226E+03  0.67036812126E+03  0.19900000000E+03 0.  0.
<mgrwt>
<rscale>  0 0.47021252E+03</rscale>
<asrwt>0</asrwt>
<pdfrwt beam="1">  1        2 0.12457355E+00 0.47021252E+03</pdfrwt>
<pdfrwt beam="2">  1       -2 0.90553757E-02 0.47021252E+03</pdfrwt>
<totfact> 0.27293038E+03</totfact>
</mgrwt>
</event>
<event>
 4    1  0.1760335E-005  0.2181303E+04  0.7818608E-02  0.8526251E-01
         -2   -1    0    0    0  501 -0.00000000000E+00  0.00000000000E+00  0.71957521687E+03  0.71957521688E+03  0.25500000000E-02 0. -1.
          2   -1    0    0  501    0  0.00000000000E+00 -0.00000000000E+00 -0.16530868223E+04  0.16530868223E+04  0.25500000000E-02 0.  1.
    5000001    1    1    2    0    0 -0.97400364014E+03  0.41646142509E+03 -0.28540817392E+03  0.11149807332E+04  0.19900000000E+03 0.  0.
   -5000001    1    1    2    0    0  0.97400364014E+03 -0.41646142509E+03 -0.64810343155E+03  0.12576813060E+04  0.19900000000E+03 0.  0.
<mgrwt>
<rscale>  0 0.21813026E+04</rscale>
<asrwt>0</asrwt>
<pdfrwt beam="1">  1        2 0.23615526E+00 0.21813026E+04</pdfrwt>
<pdfrwt beam="2">  1       -2 0.10279646E+00 0.21813026E+04</pdfrwt>
<totfact> 0.86349280E+00</totfact>
</mgrwt>
</event>
<event>
 4    1  0.1760335E-005  0.6629178E+03  0.7818608E-02  0.9782837E-01
         -2   -1    0    0    0  501 -0.00000000000E+00  0.00000000000E+00  0.92672201785E+03  0.92672201786E+03  0.25500000000E-02 0. -1.
          2   -1    0    0  501    0  0.00000000000E+00 -0.00000000000E+00 -0.11855226489E+03  0.11855226492E+03  0.25500000000E-02 0.  1.
    5000001    1    1    2    0    0  0.45008120708E+02 -0.21820448975E+03  0.63053275298E+03  0.69771877061E+03  0.19900000000E+03 0.  0.
   -5000001    1    1    2    0    0 -0.45008120708E+02  0.21820448975E+03  0.17763699998E+03  0.34755551217E+03  0.19900000000E+03 0.  0.
<mgrwt>
<rscale>  0 0.66291778E+03</rscale>
<asrwt>0</asrwt>
<pdfrwt beam="1">  1        2 0.16936038E-01 0.66291778E+03</pdfrwt>
<pdfrwt beam="2">  1       -2 0.13238886E+00 0.66291778E+03</pdfrwt>
<totfact> 0.14543696E+02</totfact>
</mgrwt>
</event>
<event>
 4    1  0.1760335E-005  0.6022751E+03  0.7818608E-02  0.9900697E-01
          2   -1    0    0  501    0  0.00000000000E+00  0.00000000000E+00  0.15069429251E+04  0.15069429251E+04  0.25500000000E-02 0.  1.
         -2   -1    0    0    0  501 -0.00000000000E+00 -0.00000000000E+00 -0.60177350942E+02  0.60177350996E+02  0.25500000000E-02 0. -1.
    5000001    1    1    2    0    0 -0.25288927458E+02 -0.21720281056E+03  0.87208985605E+03  0.92084651696E+03  0.19900000000E+03 0.  0.
   -5000001    1    1    2    0    0  0.25288927458E+02  0.21720281056E+03  0.57467571810E+03  0.64627375913E+03  0.19900000000E+03 0.  0.
<mgrwt>
<rscale>  0 0.60227513E+03</rscale>
<asrwt>0</asrwt>
<pdfrwt beam="1">  1        2 0.21527758E+00 0.60227513E+03</pdfrwt>
<pdfrwt beam="2">  1       -2 0.85967635E-02 0.60227513E+03</pdfrwt>
<totfact> 0.12891824E+03</totfact>
</mgrwt>
</event>
<event>
 4    1  0.1760335E-005  0.8684139E+03  0.7818608E-02  0.9465950E-01
          2   -1    0    0  501    0  0.00000000000E+00  0.00000000000E+00  0.32250359642E+03  0.32250359643E+03  0.25500000000E-02 0.  1.
         -2   -1    0    0    0  501 -0.00000000000E+00 -0.00000000000E+00 -0.58460021207E+03  0.58460021208E+03  0.25500000000E-02 0. -1.
    5000001    1    1    2    0    0 -0.28967136412E+03 -0.21783213282E+03  0.74261464272E+01  0.41354139446E+03  0.19900000000E+03 0.  0.
   -5000001    1    1    2    0    0  0.28967136412E+03  0.21783213282E+03 -0.26952276208E+03  0.49356241405E+03  0.19900000000E+03 0.  0.
<mgrwt>
<rscale>  0 0.86841389E+03</rscale>
<asrwt>0</asrwt>
<pdfrwt beam="1">  1        2 0.46071942E-01 0.86841389E+03</pdfrwt>
<pdfrwt beam="2">  1       -2 0.83514316E-01 0.86841389E+03</pdfrwt>
<totfact> 0.13869278E+02</totfact>
</mgrwt>
</event>
<event>
 4    1  0.1760335E-005  0.7244597E+03  0.7818608E-02  0.9676294E-01
         -2   -1    0    0    0  501 -0.00000000000E+00  0.00000000000E+00  0.37417419932E+03  0.37417419933E+03  0.25500000000E-02 0. -1.
          2   -1    0    0  501    0  0.00000000000E+00 -0.00000000000E+00 -0.35066681244E+03  0.35066681245E+03  0.25500000000E-02 0.  1.
    5000001    1    1    2    0    0  0.70405595764E+01 -0.19881363201E+03 -0.21647388759E+03  0.35501883579E+03  0.19900000000E+03 0.  0.
   -5000001    1    1    2    0    0 -0.70405595764E+01  0.19881363201E+03  0.23998127447E+03  0.36982217599E+03  0.19900000000E+03 0.  0.
<mgrwt>
<rscale>  0 0.72445973E+03</rscale>
<asrwt>0</asrwt>
<pdfrwt beam="1">  1        2 0.50095259E-01 0.72445973E+03</pdfrwt>
<pdfrwt beam="2">  1       -2 0.53453457E-01 0.72445973E+03</pdfrwt>
<totfact> 0.33326719E+02</totfact>
</mgrwt>
</event>
<event>
 4    1  0.1760335E-005  0.5831547E+03  0.7818608E-02  0.9940984E-01
          2   -1    0    0  501    0  0.00000000000E+00  0.00000000000E+00  0.91486462815E+03  0.91486462816E+03  0.25500000000E-02 0.  1.
         -2   -1    0    0    0  501 -0.00000000000E+00 -0.00000000000E+00 -0.92928875768E+02  0.92928875803E+02  0.25500000000E-02 0. -1.
    5000001    1    1    2    0    0 -0.15232113070E+03 -0.90773727564E+02  0.61526381989E+03  0.67051634174E+03  0.19900000000E+03 0.  0.
   -5000001    1    1    2    0    0  0.15232113070E+03  0.90773727564E+02  0.20667193249E+03  0.33727716222E+03  0.19900000000E+03 0.  0.
<mgrwt>
<rscale>  0 0.58315467E+03</rscale>
<asrwt>0</asrwt>
<pdfrwt beam="1">  1        2 0.13069495E+00 0.58315467E+03</pdfrwt>
<pdfrwt beam="2">  1       -2 0.13275553E-01 0.58315467E+03</pdfrwt>
<totfact> 0.13726447E+03</totfact>
</mgrwt>
</event>
<event>
 4    1  0.1760335E-005  0.4685789E+03  0.7818608E-02  0.1022322E+00
          2   -1    0    0  501    0  0.00000000000E+00  0.00000000000E+00  0.29313453143E+04  0.29313453143E+04  0.25500000000E-02 0.  1.
         -2   -1    0    0    0  501 -0.00000000000E+00 -0.00000000000E+00 -0.18725718501E+02  0.18725718674E+02  0.25500000000E-02 0. -1.
    5000001    1    1    2    0    0  0.11084370639E+03 -0.88302890573E+00  0.18013417010E+04  0.18156872062E+04  0.19900000000E+03 0.  0.
   -5000001    1    1    2    0    0 -0.11084370639E+03  0.88302890573E+00  0.11112778948E+04  0.11343838268E+04  0.19900000000E+03 0.  0.
<mgrwt>
<rscale>  0 0.46857890E+03</rscale>
<asrwt>0</asrwt>
<pdfrwt beam="1">  1        2 0.41876363E+00 0.46857890E+03</pdfrwt>
<pdfrwt beam="2">  1       -2 0.26751026E-02 0.46857890E+03</pdfrwt>
<totfact> 0.14840298E+03</totfact>
</mgrwt>
</event>
<event>
 4    1  0.1760335E-005  0.5679022E+03  0.7818608E-02  0.9974332E-01
         -2   -1    0    0    0  501 -0.00000000000E+00  0.00000000000E+00  0.15518922381E+03  0.15518922383E+03  0.25500000000E-02 0. -1.
          2   -1    0    0  501    0  0.00000000000E+00 -0.00000000000E+00 -0.51954784542E+03  0.51954784543E+03  0.25500000000E-02 0.  1.
    5000001    1    1    2    0    0  0.91855219333E+02  0.94826676527E+02 -0.36469335577E+03  0.43592628235E+03  0.19900000000E+03 0.  0.
   -5000001    1    1    2    0    0 -0.91855219333E+02 -0.94826676527E+02  0.33473415855E+00  0.23881078691E+03  0.19900000000E+03 0.  0.
<mgrwt>
<rscale>  0 0.56790220E+03</rscale>
<asrwt>0</asrwt>
<pdfrwt beam="1">  1        2 0.74221120E-01 0.56790220E+03</pdfrwt>
<pdfrwt beam="2">  1       -2 0.22169889E-01 0.56790220E+03</pdfrwt>
<totfact> 0.11434518E+03</totfact>
</mgrwt>
</event>
<event>
 4    1  0.1760335E-005  0.4378390E+03  0.7818608E-02  0.1031412E+00
         -2   -1    0    0    0  501 -0.00000000000E+00  0.00000000000E+00  0.40646882208E+02  0.40646882288E+02  0.25500000000E-02 0. -1.
          2   -1    0    0  501    0  0.00000000000E+00 -0.00000000000E+00 -0.11790758071E+04  0.11790758071E+04  0.25500000000E-02 0.  1.
    5000001    1    1    2    0    0  0.86420518272E+02  0.23234356154E+02 -0.51966093060E+03  0.56361052517E+03  0.19900000000E+03 0.  0.
   -5000001    1    1    2    0    0 -0.86420518272E+02 -0.23234356154E+02 -0.61876799428E+03  0.65611216421E+03  0.19900000000E+03 0.  0.
<mgrwt>
<rscale>  0 0.43783904E+03</rscale>
<asrwt>0</asrwt>
<pdfrwt beam="1">  1        2 0.16843938E+00 0.43783904E+03</pdfrwt>
<pdfrwt beam="2">  1       -2 0.58066982E-02 0.43783904E+03</pdfrwt>
<totfact> 0.35967437E+03</totfact>
</mgrwt>
</event>
<event>
 4    1  0.1760335E-005  0.1023691E+04  0.7818608E-02  0.9282936E-01
          2   -1    0    0  501    0  0.00000000000E+00  0.00000000000E+00  0.33594562008E+03  0.33594562009E+03  0.25500000000E-02 0.  1.
         -2   -1    0    0    0  501 -0.00000000000E+00 -0.00000000000E+00 -0.77984637281E+03  0.77984637281E+03  0.25500000000E-02 0. -1.
    5000001    1    1    2    0    0 -0.44205755193E+03  0.16072533483E+03 -0.25871096425E+03  0.57252063325E+03  0.19900000000E+03 0.  0.
   -5000001    1    1    2    0    0  0.44205755193E+03 -0.16072533483E+03 -0.18518978848E+03  0.54327135966E+03  0.19900000000E+03 0.  0.
<mgrwt>
<rscale>  0 0.10236913E+04</rscale>
<asrwt>0</asrwt>
<pdfrwt beam="1">  1        2 0.47992232E-01 0.10236913E+04</pdfrwt>
<pdfrwt beam="2">  1       -2 0.11140662E+00 0.10236913E+04</pdfrwt>
<totfact> 0.66808936E+01</totfact>
</mgrwt>
</event>
<event>
 4    1  0.1760335E-005  0.6585421E+03  0.7818608E-02  0.9790881E-01
         -2   -1    0    0    0  501 -0.00000000000E+00  0.00000000000E+00  0.35340806129E+03  0.35340806130E+03  0.25500000000E-02 0. -1.
          2   -1    0    0  501    0  0.00000000000E+00 -0.00000000000E+00 -0.30678255450E+03  0.30678255451E+03  0.25500000000E-02 0.  1.
    5000001    1    1    2    0    0  0.18488010615E+03 -0.79752332112E+02 -0.14526686648E+03  0.31818948855E+03  0.19900000000E+03 0.  0.
   -5000001    1    1    2    0    0 -0.18488010615E+03  0.79752332112E+02  0.19189237327E+03  0.34200112726E+03  0.19900000000E+03 0.  0.
<mgrwt>
<rscale>  0 0.65854211E+03</rscale>
<asrwt>0</asrwt>
<pdfrwt beam="1">  1        2 0.43826079E-01 0.65854211E+03</pdfrwt>
<pdfrwt beam="2">  1       -2 0.50486866E-01 0.65854211E+03</pdfrwt>
<totfact> 0.43512168E+02</totfact>
</mgrwt>
</event>
<event>
 4    1  0.1760335E-005  0.8033841E+03  0.7818608E-02  0.9555132E-01
          2   -1    0    0  501    0  0.00000000000E+00  0.00000000000E+00  0.13630062359E+04  0.13630062359E+04  0.25500000000E-02 0.  1.
         -2   -1    0    0    0  501 -0.00000000000E+00 -0.00000000000E+00 -0.11838279213E+03  0.11838279216E+03  0.25500000000E-02 0. -1.
    5000001    1    1    2    0    0 -0.37783657693E+02  0.32984958505E+03  0.82028497506E+03  0.90702634683E+03  0.19900000000E+03 0.  0.
   -5000001    1    1    2    0    0  0.37783657693E+02 -0.32984958505E+03  0.42433846869E+03  0.57436268120E+03  0.19900000000E+03 0.  0.
<mgrwt>
<rscale>  0 0.80338405E+03</rscale>
<asrwt>0</asrwt>
<pdfrwt beam="1">  1        2 0.19471518E+00 0.80338405E+03</pdfrwt>
<pdfrwt beam="2">  1       -2 0.16911827E-01 0.80338405E+03</pdfrwt>
<totfact> 0.49746409E+02</totfact>
</mgrwt>
</event>
<event>
 4    1  0.1760335E-005  0.5742266E+03  0.7818608E-02  0.9960369E-01
         -2   -1    0    0    0  501 -0.00000000000E+00  0.00000000000E+00  0.10709655157E+03  0.10709655160E+03  0.25500000000E-02 0. -1.
          2   -1    0    0  501    0  0.00000000000E+00 -0.00000000000E+00 -0.76971714007E+03  0.76971714007E+03  0.25500000000E-02 0.  1.
    5000001    1    1    2    0    0 -0.19856070832E+03 -0.41584715258E+02 -0.26877238530E+03  0.39114605780E+03  0.19900000000E+03 0.  0.
   -5000001    1    1    2    0    0  0.19856070832E+03  0.41584715258E+02 -0.39384820319E+03  0.48566763387E+03  0.19900000000E+03 0.  0.
<mgrwt>
<rscale>  0 0.57422662E+03</rscale>
<asrwt>0</asrwt>
<pdfrwt beam="1">  1        2 0.10995959E+00 0.57422662E+03</pdfrwt>
<pdfrwt beam="2">  1       -2 0.15299508E-01 0.57422662E+03</pdfrwt>
<totfact> 0.13552620E+03</totfact>
</mgrwt>
</event>
<event>
 4    1  0.1760335E-005  0.6175664E+03  0.7818608E-02  0.9869617E-01
          2   -1    0    0  501    0  0.00000000000E+00  0.00000000000E+00  0.12364855999E+04  0.12364855999E+04  0.25500000000E-02 0.  1.
         -2   -1    0    0    0  501 -0.00000000000E+00 -0.00000000000E+00 -0.77111352970E+02  0.77111353012E+02  0.25500000000E-02 0. -1.
    5000001    1    1    2    0    0 -0.22340704513E+03 -0.40675381414E+02  0.71722187775E+03  0.77818597802E+03  0.19900000000E+03 0.  0.
   -5000001    1    1    2    0    0  0.22340704513E+03  0.40675381414E+02  0.44215236921E+03  0.53541097492E+03  0.19900000000E+03 0.  0.
<mgrwt>
<rscale>  0 0.61756644E+03</rscale>
<asrwt>0</asrwt>
<pdfrwt beam="1">  1        2 0.17664080E+00 0.61756644E+03</pdfrwt>
<pdfrwt beam="2">  1       -2 0.11015908E-01 0.61756644E+03</pdfrwt>
<totfact> 0.12042443E+03</totfact>
</mgrwt>
</event>
<event>
 4    1  0.1760335E-005  0.1182300E+04  0.7818608E-02  0.9128492E-01
          2   -1    0    0  501    0  0.00000000000E+00  0.00000000000E+00  0.35286390933E+04  0.35286390933E+04  0.25500000000E-02 0.  1.
         -2   -1    0    0    0  501 -0.00000000000E+00 -0.00000000000E+00 -0.99034794097E+02  0.99034794129E+02  0.25500000000E-02 0. -1.
    5000001    1    1    2    0    0  0.99904490826E+02 -0.43314002411E+03  0.68672768645E+03  0.84189494778E+03  0.19900000000E+03 0.  0.
   -5000001    1    1    2    0    0 -0.99904490826E+02  0.43314002411E+03  0.27428766127E+04  0.27857789396E+04  0.19900000000E+03 0.  0.
<mgrwt>
<rscale>  0 0.11822995E+04</rscale>
<asrwt>0</asrwt>
<pdfrwt beam="1">  1        2 0.50409131E+00 0.11822995E+04</pdfrwt>
<pdfrwt beam="2">  1       -2 0.14147827E-01 0.11822995E+04</pdfrwt>
<totfact> 0.45222162E+01</totfact>
</mgrwt>
</event>
<event>
 4    1  0.1760335E-005  0.5052917E+03  0.7818608E-02  0.1012407E+00
         -2   -1    0    0    0  501 -0.00000000000E+00  0.00000000000E+00  0.18323312712E+03  0.18323312714E+03  0.25500000000E-02 0. -1.
          2   -1    0    0  501    0  0.00000000000E+00 -0.00000000000E+00 -0.34835369632E+03  0.34835369633E+03  0.25500000000E-02 0.  1.
    5000001    1    1    2    0    0  0.66464713380E+02 -0.14017205001E+03 -0.95999049233E+02  0.26996773730E+03  0.19900000000E+03 0.  0.
   -5000001    1    1    2    0    0 -0.66464713380E+02  0.14017205001E+03 -0.69121519960E+02  0.26161908617E+03  0.19900000000E+03 0.  0.
<mgrwt>
<rscale>  0 0.50529175E+03</rscale>
<asrwt>0</asrwt>
<pdfrwt beam="1">  1        2 0.49764813E-01 0.50529175E+03</pdfrwt>
<pdfrwt beam="2">  1       -2 0.26176161E-01 0.50529175E+03</pdfrwt>
<totfact> 0.13285879E+03</totfact>
</mgrwt>
</event>
<event>
 4    1  0.1760335E-005  0.4739287E+03  0.7818608E-02  0.1020817E+00
         -2   -1    0    0    0  501 -0.00000000000E+00  0.00000000000E+00  0.18880916568E+02  0.18880916740E+02  0.25500000000E-02 0. -1.
          2   -1    0    0  501    0  0.00000000000E+00 -0.00000000000E+00 -0.29740129989E+04  0.29740129989E+04  0.25500000000E-02 0.  1.
    5000001    1    1    2    0    0 -0.10970920720E+03 -0.28663979453E+02 -0.10937801151E+04  0.11175033218E+04  0.19900000000E+03 0.  0.
   -5000001    1    1    2    0    0  0.10970920720E+03  0.28663979453E+02 -0.18613519672E+04  0.18753905939E+04  0.19900000000E+03 0.  0.
<mgrwt>
<rscale>  0 0.47392865E+03</rscale>
<asrwt>0</asrwt>
<pdfrwt beam="1">  1        2 0.42485870E+00 0.47392865E+03</pdfrwt>
<pdfrwt beam="2">  1       -2 0.26972757E-02 0.47392865E+03</pdfrwt>
<totfact> 0.13898205E+03</totfact>
</mgrwt>
</event>
<event>
 4    1  0.1760335E-005  0.6836781E+03  0.7818608E-02  0.9745559E-01
          2   -1    0    0  501    0  0.00000000000E+00  0.00000000000E+00  0.27592240126E+04  0.27592240126E+04  0.25500000000E-02 0.  1.
         -2   -1    0    0    0  501 -0.00000000000E+00 -0.00000000000E+00 -0.42350295492E+02  0.42350295569E+02  0.25500000000E-02 0. -1.
    5000001    1    1    2    0    0  0.26786199619E+03  0.16324658895E+02  0.10619078246E+04  0.11132231454E+04  0.19900000000E+03 0.  0.
   -5000001    1    1    2    0    0 -0.26786199619E+03 -0.16324658895E+02  0.16549658925E+04  0.16883511628E+04  0.19900000000E+03 0.  0.
<mgrwt>
<rscale>  0 0.68367815E+03</rscale>
<asrwt>0</asrwt>
<pdfrwt beam="1">  1        2 0.39417482E+00 0.68367815E+03</pdfrwt>
<pdfrwt beam="2">  1       -2 0.60500428E-02 0.68367815E+03</pdfrwt>
<totfact> 0.51343673E+02</totfact>
</mgrwt>
</event>
<event>
 4    1  0.1760335E-005  0.9421507E+03  0.7818608E-02  0.9374372E-01
         -2   -1    0    0    0  501 -0.00000000000E+00  0.00000000000E+00  0.14560948027E+03  0.14560948029E+03  0.25500000000E-02 0. -1.
          2   -1    0    0  501    0  0.00000000000E+00 -0.00000000000E+00 -0.15240216894E+04  0.15240216894E+04  0.25500000000E-02 0.  1.
    5000001    1    1    2    0    0  0.37012010864E+03 -0.19355263101E+03 -0.53209845164E+03  0.70511082677E+03  0.19900000000E+03 0.  0.
   -5000001    1    1    2    0    0 -0.37012010864E+03  0.19355263101E+03 -0.84631375745E+03  0.96452034289E+03  0.19900000000E+03 0.  0.
<mgrwt>
<rscale>  0 0.94215074E+03</rscale>
<asrwt>0</asrwt>
<pdfrwt beam="1">  1        2 0.21771737E+00 0.94215074E+03</pdfrwt>
<pdfrwt beam="2">  1       -2 0.20801355E-01 0.94215074E+03</pdfrwt>
<totfact> 0.28274469E+02</totfact>
</mgrwt>
</event>
<event>
 4    1  0.1760335E-005  0.6169597E+03  0.7818608E-02  0.9870832E-01
         -2   -1    0    0    0  501 -0.00000000000E+00  0.00000000000E+00  0.83210640411E+02  0.83210640450E+02  0.25500000000E-02 0. -1.
          2   -1    0    0  501    0  0.00000000000E+00 -0.00000000000E+00 -0.11436015203E+04  0.11436015203E+04  0.25500000000E-02 0.  1.
    5000001    1    1    2    0    0  0.20962673020E+03  0.34826898933E+02 -0.73300615495E+03  0.78870482571E+03  0.19900000000E+03 0.  0.
   -5000001    1    1    2    0    0 -0.20962673020E+03 -0.34826898933E+02 -0.32738472498E+03  0.43810733509E+03  0.19900000000E+03 0.  0.
<mgrwt>
<rscale>  0 0.61695969E+03</rscale>
<asrwt>0</asrwt>
<pdfrwt beam="1">  1        2 0.16337164E+00 0.61695969E+03</pdfrwt>
<pdfrwt beam="2">  1       -2 0.11887235E-01 0.61695969E+03</pdfrwt>
<totfact> 0.11989384E+03</totfact>
</mgrwt>
</event>
<event>
 4    1  0.1760335E-005  0.5796547E+03  0.7818608E-02  0.9948539E-01
          2   -1    0    0  501    0  0.00000000000E+00  0.00000000000E+00  0.85161072146E+03  0.85161072146E+03  0.25500000000E-02 0.  1.
         -2   -1    0    0    0  501 -0.00000000000E+00 -0.00000000000E+00 -0.98636494126E+02  0.98636494159E+02  0.25500000000E-02 0. -1.
    5000001    1    1    2    0    0  0.11649684749E+03  0.17439397765E+03  0.34312674229E+03  0.44868890804E+03  0.19900000000E+03 0.  0.
   -5000001    1    1    2    0    0 -0.11649684749E+03 -0.17439397765E+03  0.40984748504E+03  0.50155830759E+03  0.19900000000E+03 0.  0.
<mgrwt>
<rscale>  0 0.57965471E+03</rscale>
<asrwt>0</asrwt>
<pdfrwt beam="1">  1        2 0.12165869E+00 0.57965471E+03</pdfrwt>
<pdfrwt beam="2">  1       -2 0.14090926E-01 0.57965471E+03</pdfrwt>
<totfact> 0.13667595E+03</totfact>
</mgrwt>
</event>
<event>
 4    1  0.1760335E-005  0.6675050E+03  0.7818608E-02  0.9774476E-01
         -2   -1    0    0    0  501 -0.00000000000E+00  0.00000000000E+00  0.58513112072E+02  0.58513112128E+02  0.25500000000E-02 0. -1.
          2   -1    0    0  501    0  0.00000000000E+00 -0.00000000000E+00 -0.19036886146E+04  0.19036886146E+04  0.25500000000E-02 0.  1.
    5000001    1    1    2    0    0 -0.12015041638E+03  0.14738140385E+03 -0.14774833787E+04  0.15029023704E+04  0.19900000000E+03 0.  0.
   -5000001    1    1    2    0    0  0.12015041638E+03 -0.14738140385E+03 -0.36769212384E+03  0.45929935630E+03  0.19900000000E+03 0.  0.
<mgrwt>
<rscale>  0 0.66750504E+03</rscale>
<asrwt>0</asrwt>
<pdfrwt beam="1">  1        2 0.27195548E+00 0.66750504E+03</pdfrwt>
<pdfrwt beam="2">  1       -2 0.83590172E-02 0.66750504E+03</pdfrwt>
<totfact> 0.84325821E+02</totfact>
</mgrwt>
</event>
<event>
 4    1  0.1760335E-005  0.5725370E+03  0.7818608E-02  0.9964080E-01
          2   -1    0    0  501    0  0.00000000000E+00  0.00000000000E+00  0.29973076819E+04  0.29973076819E+04  0.25500000000E-02 0.  1.
         -2   -1    0    0    0  501 -0.00000000000E+00 -0.00000000000E+00 -0.27341085310E+02  0.27341085429E+02  0.25500000000E-02 0. -1.
    5000001    1    1    2    0    0 -0.17102913799E+03 -0.97442999167E+02  0.18020684362E+04  0.18236769870E+04  0.19900000000E+03 0.  0.
   -5000001    1    1    2    0    0  0.17102913799E+03  0.97442999167E+02  0.11678981604E+04  0.12009717803E+04  0.19900000000E+03 0.  0.
<mgrwt>
<rscale>  0 0.57253697E+03</rscale>
<asrwt>0</asrwt>
<pdfrwt beam="1">  1        2 0.42818670E+00 0.57253697E+03</pdfrwt>
<pdfrwt beam="2">  1       -2 0.39058704E-02 0.57253697E+03</pdfrwt>
<totfact> 0.76225627E+02</totfact>
</mgrwt>
</event>
<event>
 4    1  0.1760335E-005  0.4492045E+03  0.7818608E-02  0.1027960E+00
         -2   -1    0    0    0  501 -0.00000000000E+00  0.00000000000E+00  0.27177583402E+02  0.27177583522E+02  0.25500000000E-02 0.  1.
          2   -1    0    0  501    0  0.00000000000E+00 -0.00000000000E+00 -0.18561681164E+04  0.18561681164E+04  0.25500000000E-02 0. -1.
    5000001    1    1    2    0    0  0.81188476121E+02 -0.62262642617E+02 -0.99589683911E+03  0.10207250950E+04  0.19900000000E+03 0.  0.
   -5000001    1    1    2    0    0 -0.81188476121E+02  0.62262642617E+02 -0.83309369386E+03  0.86262060494E+03  0.19900000000E+03 0.  0.
<mgrwt>
<rscale>  0 0.44920447E+03</rscale>
<asrwt>0</asrwt>
<pdfrwt beam="1">  1        2 0.26516679E+00 0.44920447E+03</pdfrwt>
<pdfrwt beam="2">  1       -2 0.38825131E-02 0.44920447E+03</pdfrwt>
<totfact> 0.29748072E+03</totfact>
</mgrwt>
</event>
<event>
 4    1  0.1760335E-005  0.5523298E+03  0.7818608E-02  0.1000956E+00
         -2   -1    0    0    0  501 -0.00000000000E+00  0.00000000000E+00  0.12156359077E+04  0.12156359077E+04  0.25500000000E-02 0. -1.
          2   -1    0    0  501    0  0.00000000000E+00 -0.00000000000E+00 -0.62738402324E+02  0.62738402375E+02  0.25500000000E-02 0.  1.
    5000001    1    1    2    0    0 -0.17328244820E+03 -0.36728729907E+02  0.40810477794E+03  0.48736671638E+03  0.19900000000E+03 0.  0.
   -5000001    1    1    2    0    0  0.17328244820E+03  0.36728729907E+02  0.74479272743E+03  0.79100759370E+03  0.19900000000E+03 0.  0.
<mgrwt>
<rscale>  0 0.55232981E+03</rscale>
<asrwt>0</asrwt>
<pdfrwt beam="1">  1        2 0.89626289E-02 0.55232981E+03</pdfrwt>
<pdfrwt beam="2">  1       -2 0.17366227E+00 0.55232981E+03</pdfrwt>
<totfact> 0.15680401E+02</totfact>
</mgrwt>
</event>
<event>
 4    1  0.1760335E-005  0.9433213E+03  0.7818608E-02  0.9372991E-01
         -2   -1    0    0    0  501 -0.00000000000E+00  0.00000000000E+00  0.77110575580E+02  0.77110575622E+02  0.25500000000E-02 0. -1.
          2   -1    0    0  501    0  0.00000000000E+00 -0.00000000000E+00 -0.28849967909E+04  0.28849967909E+04  0.25500000000E-02 0.  1.
    5000001    1    1    2    0    0 -0.26692035426E+01 -0.26025585627E+03 -0.24693642712E+04  0.24910040424E+04  0.19900000000E+03 0.  0.
   -5000001    1    1    2    0    0  0.26692035426E+01  0.26025585627E+03 -0.33852194420E+03  0.47110332420E+03  0.19900000000E+03 0.  0.
<mgrwt>
<rscale>  0 0.94332129E+03</rscale>
<asrwt>0</asrwt>
<pdfrwt beam="1">  1        2 0.41214233E+00 0.94332129E+03</pdfrwt>
<pdfrwt beam="2">  1       -2 0.11015798E-01 0.94332129E+03</pdfrwt>
<totfact> 0.16404979E+02</totfact>
</mgrwt>
</event>
<event>
 4    1  0.1760335E-005  0.5997167E+03  0.7818608E-02  0.9905994E-01
          2   -1    0    0  501    0  0.00000000000E+00  0.00000000000E+00  0.16298194167E+04  0.16298194167E+04  0.25500000000E-02 0.  1.
         -2   -1    0    0    0  501 -0.00000000000E+00 -0.00000000000E+00 -0.55168698413E+02  0.55168698472E+02  0.25500000000E-02 0. -1.
    5000001    1    1    2    0    0  0.19089978124E+03  0.11250778738E+03  0.68945919982E+03  0.75103642849E+03  0.19900000000E+03 0.  0.
   -5000001    1    1    2    0    0 -0.19089978124E+03 -0.11250778738E+03  0.88519151843E+03  0.93395168665E+03  0.19900000000E+03 0.  0.
<mgrwt>
<rscale>  0 0.59971665E+03</rscale>
<asrwt>0</asrwt>
<pdfrwt beam="1">  1        2 0.23283133E+00 0.59971665E+03</pdfrwt>
<pdfrwt beam="2">  1       -2 0.78812430E-02 0.59971665E+03</pdfrwt>
<totfact> 0.12799829E+03</totfact>
</mgrwt>
</event>
<event>
 4    1  0.1760335E-005  0.5677132E+03  0.7818608E-02  0.9974752E-01
          2   -1    0    0  501    0  0.00000000000E+00  0.00000000000E+00  0.23829741821E+04  0.23829741821E+04  0.25500000000E-02 0.  1.
         -2   -1    0    0    0  501 -0.00000000000E+00 -0.00000000000E+00 -0.33812607753E+02  0.33812607849E+02  0.25500000000E-02 0. -1.
    5000001    1    1    2    0    0 -0.37699978722E+02 -0.17493501238E+03  0.77184386010E+03  0.81692563390E+03  0.19900000000E+03 0.  0.
   -5000001    1    1    2    0    0  0.37699978722E+02  0.17493501238E+03  0.15773177143E+04  0.15998611561E+04  0.19900000000E+03 0.  0.
<mgrwt>
<rscale>  0 0.56771321E+03</rscale>
<asrwt>0</asrwt>
<pdfrwt beam="1">  1        2 0.34042495E+00 0.56771321E+03</pdfrwt>
<pdfrwt beam="2">  1       -2 0.48303716E-02 0.56771321E+03</pdfrwt>
<totfact> 0.11521827E+03</totfact>
</mgrwt>
</event>
<event>
 4    1  0.1760335E-005  0.4843125E+03  0.7818608E-02  0.1017957E+00
         -2   -1    0    0    0  501 -0.00000000000E+00  0.00000000000E+00  0.91972332882E+02  0.91972332917E+02  0.25500000000E-02 0. -1.
          2   -1    0    0  501    0  0.00000000000E+00 -0.00000000000E+00 -0.63757928085E+03  0.63757928086E+03  0.25500000000E-02 0.  1.
    5000001    1    1    2    0    0 -0.11410645289E+03 -0.69734629428E+02 -0.32400777250E+03  0.40306976787E+03  0.19900000000E+03 0.  0.
   -5000001    1    1    2    0    0  0.11410645289E+03  0.69734629428E+02 -0.22159917547E+03  0.32648184590E+03  0.19900000000E+03 0.  0.
<mgrwt>
<rscale>  0 0.48431252E+03</rscale>
<asrwt>0</asrwt>
<pdfrwt beam="1">  1        2 0.91082752E-01 0.48431252E+03</pdfrwt>
<pdfrwt beam="2">  1       -2 0.13138905E-01 0.48431252E+03</pdfrwt>
<totfact> 0.21987293E+03</totfact>
</mgrwt>
</event>
<event>
 4    1  0.1760335E-005  0.5725533E+03  0.7818608E-02  0.9964044E-01
         -2   -1    0    0    0  501 -0.00000000000E+00  0.00000000000E+00  0.12499812887E+03  0.12499812890E+03  0.25500000000E-02 0. -1.
          2   -1    0    0  501    0  0.00000000000E+00 -0.00000000000E+00 -0.65564442895E+03  0.65564442895E+03  0.25500000000E-02 0.  1.
    5000001    1    1    2    0    0 -0.11075195434E+03  0.43637324679E+02 -0.49421523937E+03  0.54591200236E+03  0.19900000000E+03 0.  0.
   -5000001    1    1    2    0    0  0.11075195434E+03 -0.43637324679E+02 -0.36431060708E+02  0.23473055549E+03  0.19900000000E+03 0.  0.
<mgrwt>
<rscale>  0 0.57255332E+03</rscale>
<asrwt>0</asrwt>
<pdfrwt beam="1">  1        2 0.93663488E-01 0.57255332E+03</pdfrwt>
<pdfrwt beam="2">  1       -2 0.17856876E-01 0.57255332E+03</pdfrwt>
<totfact> 0.12690040E+03</totfact>
</mgrwt>
</event>
<event>
 4    1  0.1760335E-005  0.6497638E+03  0.7818608E-02  0.9807222E-01
         -2   -1    0    0    0  501 -0.00000000000E+00  0.00000000000E+00  0.24564057533E+03  0.24564057534E+03  0.25500000000E-02 0. -1.
          2   -1    0    0  501    0  0.00000000000E+00 -0.00000000000E+00 -0.42968575379E+03  0.42968575380E+03  0.25500000000E-02 0.  1.
    5000001    1    1    2    0    0 -0.14118602636E+03 -0.11040658380E+03  0.99126216446E+02  0.28556980683E+03  0.19900000000E+03 0.  0.
   -5000001    1    1    2    0    0  0.14118602636E+03  0.11040658380E+03 -0.28317139491E+03  0.38975652231E+03  0.19900000000E+03 0.  0.
<mgrwt>
<rscale>  0 0.64976382E+03</rscale>
<asrwt>0</asrwt>
<pdfrwt beam="1">  1        2 0.61383679E-01 0.64976382E+03</pdfrwt>
<pdfrwt beam="2">  1       -2 0.35091511E-01 0.64976382E+03</pdfrwt>
<totfact> 0.61150522E+02</totfact>
</mgrwt>
</event>
<event>
 4    1  0.1760335E-005  0.4520680E+03  0.7818608E-02  0.1027107E+00
         -2   -1    0    0    0  501 -0.00000000000E+00  0.00000000000E+00  0.10610863322E+03  0.10610863325E+03  0.25500000000E-02 0. -1.
          2   -1    0    0  501    0  0.00000000000E+00 -0.00000000000E+00 -0.48150057546E+03  0.48150057547E+03  0.25500000000E-02 0.  1.
    5000001    1    1    2    0    0  0.90586095858E+02 -0.53105130849E+02 -0.15968565711E+03  0.27591032016E+03  0.19900000000E+03 0.  0.
   -5000001    1    1    2    0    0 -0.90586095858E+02  0.53105130849E+02 -0.21570628513E+03  0.31169888856E+03  0.19900000000E+03 0.  0.
<mgrwt>
<rscale>  0 0.45206799E+03</rscale>
<asrwt>0</asrwt>
<pdfrwt beam="1">  1        2 0.68785795E-01 0.45206799E+03</pdfrwt>
<pdfrwt beam="2">  1       -2 0.15158377E-01 0.45206799E+03</pdfrwt>
<totfact> 0.23922357E+03</totfact>
</mgrwt>
</event>
<event>
 4    1  0.1760335E-005  0.1096536E+04  0.7818608E-02  0.9208574E-01
          2   -1    0    0  501    0  0.00000000000E+00  0.00000000000E+00  0.23042882325E+04  0.23042882325E+04  0.25500000000E-02 0.  1.
         -2   -1    0    0    0  501 -0.00000000000E+00 -0.00000000000E+00 -0.13045157478E+03  0.13045157480E+03  0.25500000000E-02 0. -1.
    5000001    1    1    2    0    0 -0.19297125678E+03 -0.46618842282E+03  0.12649305294E+04  0.13763065776E+04  0.19900000000E+03 0.  0.
   -5000001    1    1    2    0    0  0.19297125678E+03  0.46618842282E+03  0.90890612835E+03  0.10584332297E+04  0.19900000000E+03 0.  0.
<mgrwt>
<rscale>  0 0.10965364E+04</rscale>
<asrwt>0</asrwt>
<pdfrwt beam="1">  1        2 0.32918403E+00 0.10965364E+04</pdfrwt>
<pdfrwt beam="2">  1       -2 0.18635939E-01 0.10965364E+04</pdfrwt>
<totfact> 0.13464762E+02</totfact>
</mgrwt>
</event>
<event>
 4    1  0.1760335E-005  0.7484971E+03  0.7818608E-02  0.9637711E-01
         -2   -1    0    0    0  501 -0.00000000000E+00  0.00000000000E+00  0.24539928707E+03  0.24539928709E+03  0.25500000000E-02 0. -1.
          2   -1    0    0  501    0  0.00000000000E+00 -0.00000000000E+00 -0.57075132624E+03  0.57075132624E+03  0.25500000000E-02 0.  1.
    5000001    1    1    2    0    0 -0.10137747193E+03 -0.11490739272E+02 -0.48988542142E+03  0.53851476770E+03  0.19900000000E+03 0.  0.
   -5000001    1    1    2    0    0  0.10137747193E+03  0.11490739272E+02  0.16453338226E+03  0.27763584563E+03  0.19900000000E+03 0.  0.
<mgrwt>
<rscale>  0 0.74849708E+03</rscale>
<asrwt>0</asrwt>
<pdfrwt beam="1">  1        2 0.81535903E-01 0.74849708E+03</pdfrwt>
<pdfrwt beam="2">  1       -2 0.35057041E-01 0.74849708E+03</pdfrwt>
<totfact> 0.44177705E+02</totfact>
</mgrwt>
</event>
<event>
 4    1  0.1760335E-005  0.8160322E+03  0.7818608E-02  0.9537097E-01
          2   -1    0    0  501    0  0.00000000000E+00  0.00000000000E+00  0.86597031834E+03  0.86597031834E+03  0.25500000000E-02 0.  1.
         -2   -1    0    0    0  501 -0.00000000000E+00 -0.00000000000E+00 -0.19224345795E+03  0.19224345796E+03  0.25500000000E-02 0. -1.
    5000001    1    1    2    0    0  0.80810210020E+02 -0.20175979176E+03 -0.29092297487E+02  0.29611596611E+03  0.19900000000E+03 0.  0.
   -5000001    1    1    2    0    0 -0.80810210020E+02  0.20175979176E+03  0.70281915788E+03  0.76209781019E+03  0.19900000000E+03 0.  0.
<mgrwt>
<rscale>  0 0.81603218E+03</rscale>
<asrwt>0</asrwt>
<pdfrwt beam="1">  1        2 0.12371004E+00 0.81603218E+03</pdfrwt>
<pdfrwt beam="2">  1       -2 0.27463351E-01 0.81603218E+03</pdfrwt>
<totfact> 0.41443214E+02</totfact>
</mgrwt>
</event>
<event>
 4    1  0.1760335E-005  0.4249005E+03  0.7818608E-02  0.1035483E+00
         -2   -1    0    0    0  501 -0.00000000000E+00  0.00000000000E+00  0.27916439107E+02  0.27916439223E+02  0.25500000000E-02 0. -1.
          2   -1    0    0  501    0  0.00000000000E+00 -0.00000000000E+00 -0.16167935228E+04  0.16167935228E+04  0.25500000000E-02 0.  1.
    5000001    1    1    2    0    0  0.53111602518E+02 -0.15773924005E+02 -0.60227860961E+03  0.63671829139E+03  0.19900000000E+03 0.  0.
   -5000001    1    1    2    0    0 -0.53111602518E+02  0.15773924005E+02 -0.98659847410E+03  0.10079916706E+04  0.19900000000E+03 0.  0.
<mgrwt>
<rscale>  0 0.42490054E+03</rscale>
<asrwt>0</asrwt>
<pdfrwt beam="1">  1        2 0.23097044E+00 0.42490054E+03</pdfrwt>
<pdfrwt beam="2">  1       -2 0.39880638E-02 0.42490054E+03</pdfrwt>
<totfact> 0.37664211E+03</totfact>
</mgrwt>
</event>
<event>
 4    1  0.1760335E-005  0.9545120E+03  0.7818608E-02  0.9359892E-01
         -2   -1    0    0    0  501 -0.00000000000E+00  0.00000000000E+00  0.28099770840E+03  0.28099770842E+03  0.25500000000E-02 0. -1.
          2   -1    0    0  501    0  0.00000000000E+00 -0.00000000000E+00 -0.81058767800E+03  0.81058767800E+03  0.25500000000E-02 0.  1.
    5000001    1    1    2    0    0  0.12985502674E+03 -0.31514106753E+03 -0.57164821060E+03  0.69466459324E+03  0.19900000000E+03 0.  0.
   -5000001    1    1    2    0    0 -0.12985502674E+03  0.31514106753E+03  0.42058241012E+02  0.39692079317E+03  0.19900000000E+03 0.  0.
<mgrwt>
<rscale>  0 0.95451198E+03</rscale>
<asrwt>0</asrwt>
<pdfrwt beam="1">  1        2 0.11579824E+00 0.95451198E+03</pdfrwt>
<pdfrwt beam="2">  1       -2 0.40142530E-01 0.95451198E+03</pdfrwt>
<totfact> 0.21925014E+02</totfact>
</mgrwt>
</event>
<event>
 4    1  0.1760335E-005  0.5484569E+03  0.7818608E-02  0.1001852E+00
         -2   -1    0    0    0  501 -0.00000000000E+00  0.00000000000E+00  0.76088303618E+02  0.76088303660E+02  0.25500000000E-02 0. -1.
          2   -1    0    0  501    0  0.00000000000E+00 -0.00000000000E+00 -0.98834173549E+03  0.98834173550E+03  0.25500000000E-02 0.  1.
    5000001    1    1    2    0    0 -0.60482129890E+02  0.12923927126E+03 -0.21654255796E+03  0.32688309329E+03  0.19900000000E+03 0.  0.
   -5000001    1    1    2    0    0  0.60482129890E+02 -0.12923927126E+03 -0.69571087392E+03  0.73754694587E+03  0.19900000000E+03 0.  0.
<mgrwt>
<rscale>  0 0.54845691E+03</rscale>
<asrwt>0</asrwt>
<pdfrwt beam="1">  1        2 0.14119167E+00 0.54845691E+03</pdfrwt>
<pdfrwt beam="2">  1       -2 0.10869758E-01 0.54845691E+03</pdfrwt>
<totfact> 0.17166154E+03</totfact>
</mgrwt>
</event>
<event>
 4    1  0.1760335E-005  0.6741617E+03  0.7818608E-02  0.9762469E-01
         -2   -1    0    0    0  501 -0.00000000000E+00  0.00000000000E+00  0.51844630437E+03  0.51844630438E+03  0.25500000000E-02 0. -1.
          2   -1    0    0  501    0  0.00000000000E+00 -0.00000000000E+00 -0.21916154348E+03  0.21916154349E+03  0.25500000000E-02 0.  1.
    5000001    1    1    2    0    0  0.14864921633E+03  0.17960550889E+03  0.30308251123E+03  0.43106233535E+03  0.19900000000E+03 0.  0.
   -5000001    1    1    2    0    0 -0.14864921633E+03 -0.17960550889E+03 -0.37977503365E+01  0.30654551252E+03  0.19900000000E+03 0.  0.
<mgrwt>
<rscale>  0 0.67416168E+03</rscale>
<asrwt>0</asrwt>
<pdfrwt beam="1">  1        2 0.31308792E-01 0.67416168E+03</pdfrwt>
<pdfrwt beam="2">  1       -2 0.74063757E-01 0.67416168E+03</pdfrwt>
<totfact> 0.28110626E+02</totfact>
</mgrwt>
</event>
<event>
 4    1  0.1760335E-005  0.9862674E+03  0.7818608E-02  0.9323736E-01
         -2   -1    0    0    0  501 -0.00000000000E+00  0.00000000000E+00  0.18422186000E+03  0.18422186002E+03  0.25500000000E-02 0.  1.
          2   -1    0    0  501    0  0.00000000000E+00 -0.00000000000E+00 -0.13200433273E+04  0.13200433273E+04  0.25500000000E-02 0. -1.
    5000001    1    1    2    0    0 -0.44775264288E+03  0.33211648286E+02 -0.63602455451E+03  0.80356311309E+03  0.19900000000E+03 0.  0.
   -5000001    1    1    2    0    0  0.44775264288E+03 -0.33211648286E+02 -0.49979691275E+03  0.70070207420E+03  0.19900000000E+03 0.  0.
<mgrwt>
<rscale>  0 0.98626738E+03</rscale>
<asrwt>0</asrwt>
<pdfrwt beam="1">  1        2 0.18857761E+00 0.98626738E+03</pdfrwt>
<pdfrwt beam="2">  1       -2 0.26317409E-01 0.98626738E+03</pdfrwt>
<totfact> 0.23813280E+02</totfact>
</mgrwt>
</event>
<event>
 4    1  0.1760335E-005  0.6585287E+03  0.7818608E-02  0.9790906E-01
         -2   -1    0    0    0  501 -0.00000000000E+00  0.00000000000E+00  0.54504417082E+02  0.54504417141E+02  0.25500000000E-02 0. -1.
          2   -1    0    0  501    0  0.00000000000E+00 -0.00000000000E+00 -0.19891047681E+04  0.19891047681E+04  0.25500000000E-02 0.  1.
    5000001    1    1    2    0    0  0.41265078889E+00 -0.25021889729E+03 -0.72286112658E+03  0.79040424794E+03  0.19900000000E+03 0.  0.
   -5000001    1    1    2    0    0 -0.41265078889E+00  0.25021889729E+03 -0.12117392244E+04  0.12532049373E+04  0.19900000000E+03 0.  0.
<mgrwt>
<rscale>  0 0.65852865E+03</rscale>
<asrwt>0</asrwt>
<pdfrwt beam="1">  1        2 0.28415778E+00 0.65852865E+03</pdfrwt>
<pdfrwt beam="2">  1       -2 0.77863465E-02 0.65852865E+03</pdfrwt>
<totfact> 0.85580370E+02</totfact>
</mgrwt>
</event>
<event>
 4    1  0.1760335E-005  0.1487559E+04  0.7818608E-02  0.8892769E-01
         -2   -1    0    0    0  501 -0.00000000000E+00  0.00000000000E+00  0.68497205123E+03  0.68497205124E+03  0.25500000000E-02 0. -1.
          2   -1    0    0  501    0  0.00000000000E+00 -0.00000000000E+00 -0.80763539154E+03  0.80763539155E+03  0.25500000000E-02 0.  1.
    5000001    1    1    2    0    0  0.39367329196E+03  0.55512601521E+03 -0.28673407629E+03  0.76482742110E+03  0.19900000000E+03 0.  0.
   -5000001    1    1    2    0    0 -0.39367329196E+03 -0.55512601521E+03  0.16407073598E+03  0.72778002168E+03  0.19900000000E+03 0.  0.
<mgrwt>
<rscale>  0 0.14875586E+04</rscale>
<asrwt>0</asrwt>
<pdfrwt beam="1">  1        2 0.11537648E+00 0.14875586E+04</pdfrwt>
<pdfrwt beam="2">  1       -2 0.97853150E-01 0.14875586E+04</pdfrwt>
<totfact> 0.31638012E+01</totfact>
</mgrwt>
</event>
<event>
 4    1  0.1760335E-005  0.5110652E+03  0.7818608E-02  0.1010930E+00
          2   -1    0    0  501    0  0.00000000000E+00  0.00000000000E+00  0.10600098452E+04  0.10600098452E+04  0.25500000000E-02 0.  1.
         -2   -1    0    0    0  501 -0.00000000000E+00 -0.00000000000E+00 -0.61600291594E+02  0.61600291647E+02  0.25500000000E-02 0. -1.
    5000001    1    1    2    0    0 -0.11983603838E+03  0.16409794543E+00  0.73286265620E+03  0.76879735683E+03  0.19900000000E+03 0.  0.
   -5000001    1    1    2    0    0  0.11983603838E+03 -0.16409794543E+00  0.26554689741E+03  0.35281278002E+03  0.19900000000E+03 0.  0.
<mgrwt>
<rscale>  0 0.51106522E+03</rscale>
<asrwt>0</asrwt>
<pdfrwt beam="1">  1        2 0.15142998E+00 0.51106522E+03</pdfrwt>
<pdfrwt beam="2">  1       -2 0.88000413E-02 0.51106522E+03</pdfrwt>
<totfact> 0.21872420E+03</totfact>
</mgrwt>
</event>
<event>
 4    1  0.1760335E-005  0.5976861E+03  0.7818608E-02  0.9910218E-01
          2   -1    0    0  501    0  0.00000000000E+00  0.00000000000E+00  0.14654921944E+04  0.14654921944E+04  0.25500000000E-02 0.  1.
         -2   -1    0    0    0  501 -0.00000000000E+00 -0.00000000000E+00 -0.60940044721E+02  0.60940044774E+02  0.25500000000E-02 0. -1.
    5000001    1    1    2    0    0  0.80355472471E+02 -0.18060733351E+03  0.43896200129E+03  0.52092672177E+03  0.19900000000E+03 0.  0.
   -5000001    1    1    2    0    0 -0.80355472471E+02  0.18060733351E+03  0.96559014835E+03  0.10055055174E+04  0.19900000000E+03 0.  0.
<mgrwt>
<rscale>  0 0.59768607E+03</rscale>
<asrwt>0</asrwt>
<pdfrwt beam="1">  1        2 0.20935602E+00 0.59768607E+03</pdfrwt>
<pdfrwt beam="2">  1       -2 0.87057211E-02 0.59768607E+03</pdfrwt>
<totfact> 0.13282408E+03</totfact>
</mgrwt>
</event>
<event>
 4    1  0.1760335E-005  0.5829108E+03  0.7818608E-02  0.9941509E-01
         -2   -1    0    0    0  501 -0.00000000000E+00  0.00000000000E+00  0.11773745190E+03  0.11773745192E+03  0.25500000000E-02 0. -1.
          2   -1    0    0  501    0  0.00000000000E+00 -0.00000000000E+00 -0.72148880275E+03  0.72148880275E+03  0.25500000000E-02 0.  1.
    5000001    1    1    2    0    0 -0.15365569887E+03  0.12481487112E+03 -0.41484000591E+03  0.50088127969E+03  0.19900000000E+03 0.  0.
   -5000001    1    1    2    0    0  0.15365569887E+03 -0.12481487112E+03 -0.18891134495E+03  0.33834497499E+03  0.19900000000E+03 0.  0.
<mgrwt>
<rscale>  0 0.58291081E+03</rscale>
<asrwt>0</asrwt>
<pdfrwt beam="1">  1        2 0.10306983E+00 0.58291081E+03</pdfrwt>
<pdfrwt beam="2">  1       -2 0.16819636E-01 0.58291081E+03</pdfrwt>
<totfact> 0.12510865E+03</totfact>
</mgrwt>
</event>
<event>
 4    1  0.1760335E-005  0.4215001E+03  0.7818608E-02  0.1036579E+00
          2   -1    0    0  501    0  0.00000000000E+00  0.00000000000E+00  0.17063419125E+04  0.17063419125E+04  0.25500000000E-02 0.  1.
         -2   -1    0    0    0  501 -0.00000000000E+00 -0.00000000000E+00 -0.26029703621E+02  0.26029703746E+02  0.25500000000E-02 0. -1.
    5000001    1    1    2    0    0 -0.20059796053E+02  0.63827491238E+02  0.76456865585E+03  0.79286983394E+03  0.19900000000E+03 0.  0.
   -5000001    1    1    2    0    0  0.20059796053E+02 -0.63827491238E+02  0.91574355305E+03  0.93950178233E+03  0.19900000000E+03 0.  0.
<mgrwt>
<rscale>  0 0.42150006E+03</rscale>
<asrwt>0</asrwt>
<pdfrwt beam="1">  1        2 0.24376314E+00 0.42150006E+03</pdfrwt>
<pdfrwt beam="2">  1       -2 0.37185290E-02 0.42150006E+03</pdfrwt>
<totfact> 0.37760509E+03</totfact>
</mgrwt>
</event>
<event>
 4    1  0.1760335E-005  0.1139143E+04  0.7818608E-02  0.9167858E-01
          2   -1    0    0  501    0  0.00000000000E+00  0.00000000000E+00  0.25854505669E+04  0.25854505669E+04  0.25500000000E-02 0.  1.
         -2   -1    0    0    0  501 -0.00000000000E+00 -0.00000000000E+00 -0.12547586386E+03  0.12547586388E+03  0.25500000000E-02 0. -1.
    5000001    1    1    2    0    0  0.25120665851E+03 -0.21714077438E+03  0.23571219126E+03  0.45322857179E+03  0.19900000000E+03 0.  0.
   -5000001    1    1    2    0    0 -0.25120665851E+03  0.21714077438E+03  0.22242625118E+04  0.22576978590E+04  0.19900000000E+03 0.  0.
<mgrwt>
<rscale>  0 0.11391429E+04</rscale>
<asrwt>0</asrwt>
<pdfrwt beam="1">  1        2 0.36935005E+00 0.11391429E+04</pdfrwt>
<pdfrwt beam="2">  1       -2 0.17925125E-01 0.11391429E+04</pdfrwt>
<totfact> 0.10250847E+02</totfact>
</mgrwt>
</event>
<event>
 4    1  0.1760335E-005  0.1149625E+04  0.7818608E-02  0.9158129E-01
          2   -1    0    0  501    0  0.00000000000E+00  0.00000000000E+00  0.18803213180E+04  0.18803213180E+04  0.25500000000E-02 0.  1.
         -2   -1    0    0    0  501 -0.00000000000E+00 -0.00000000000E+00 -0.17571974035E+03  0.17571974037E+03  0.25500000000E-02 0. -1.
    5000001    1    1    2    0    0  0.90304287226E+02  0.33860044839E+03  0.15853524307E+04  0.16357715175E+04  0.19900000000E+03 0.  0.
   -5000001    1    1    2    0    0 -0.90304287226E+02 -0.33860044839E+03  0.11924914697E+03  0.42026954089E+03  0.19900000000E+03 0.  0.
<mgrwt>
<rscale>  0 0.11496253E+04</rscale>
<asrwt>0</asrwt>
<pdfrwt beam="1">  1        2 0.26861733E+00 0.11496253E+04</pdfrwt>
<pdfrwt beam="2">  1       -2 0.25102820E-01 0.11496253E+04</pdfrwt>
<totfact> 0.13034715E+02</totfact>
</mgrwt>
</event>
<event>
 4    1  0.1760335E-005  0.8188935E+03  0.7818608E-02  0.9533065E-01
         -2   -1    0    0    0  501 -0.00000000000E+00  0.00000000000E+00  0.60360536256E+02  0.60360536310E+02  0.25500000000E-02 0. -1.
          2   -1    0    0  501    0  0.00000000000E+00 -0.00000000000E+00 -0.27774214609E+04  0.27774214609E+04  0.25500000000E-02 0.  1.
    5000001    1    1    2    0    0 -0.18341878150E+03 -0.22815023047E+03 -0.20716818756E+04  0.21017044917E+04  0.19900000000E+03 0.  0.
   -5000001    1    1    2    0    0  0.18341878150E+03  0.22815023047E+03 -0.64537904912E+03  0.73607750551E+03  0.19900000000E+03 0.  0.
<mgrwt>
<rscale>  0 0.81889352E+03</rscale>
<asrwt>0</asrwt>
<pdfrwt beam="1">  1        2 0.39677442E+00 0.81889352E+03</pdfrwt>
<pdfrwt beam="2">  1       -2 0.86229355E-02 0.81889352E+03</pdfrwt>
<totfact> 0.28241124E+02</totfact>
</mgrwt>
</event>
<event>
 4    1  0.1760335E-005  0.6622493E+03  0.7818608E-02  0.9784062E-01
         -2   -1    0    0    0  501 -0.00000000000E+00  0.00000000000E+00  0.22361496939E+03  0.22361496940E+03  0.25500000000E-02 0. -1.
          2   -1    0    0  501    0  0.00000000000E+00 -0.00000000000E+00 -0.49032289775E+03  0.49032289775E+03  0.25500000000E-02 0.  1.
    5000001    1    1    2    0    0 -0.23059457181E+02  0.21454623873E+03 -0.29854806516E+03  0.41868099351E+03  0.19900000000E+03 0.  0.
   -5000001    1    1    2    0    0  0.23059457181E+02 -0.21454623873E+03  0.31840136799E+02  0.29525687364E+03  0.19900000000E+03 0.  0.
<mgrwt>
<rscale>  0 0.66224932E+03</rscale>
<asrwt>0</asrwt>
<pdfrwt beam="1">  1        2 0.70046128E-01 0.66224932E+03</pdfrwt>
<pdfrwt beam="2">  1       -2 0.31944996E-01 0.66224932E+03</pdfrwt>
<totfact> 0.62872508E+02</totfact>
</mgrwt>
</event>
<event>
 4    1  0.1760335E-005  0.5249466E+03  0.7818608E-02  0.1007465E+00
         -2   -1    0    0    0  501 -0.00000000000E+00  0.00000000000E+00  0.65955268163E+02  0.65955268212E+02  0.25500000000E-02 0. -1.
          2   -1    0    0  501    0  0.00000000000E+00 -0.00000000000E+00 -0.10445298049E+04  0.10445298049E+04  0.25500000000E-02 0.  1.
    5000001    1    1    2    0    0 -0.11451835879E+01 -0.17111045058E+03 -0.48222489398E+03  0.54901907628E+03  0.19900000000E+03 0.  0.
   -5000001    1    1    2    0    0  0.11451835879E+01  0.17111045058E+03 -0.49634964277E+03  0.56146599685E+03  0.19900000000E+03 0.  0.
<mgrwt>
<rscale>  0 0.52494664E+03</rscale>
<asrwt>0</asrwt>
<pdfrwt beam="1">  1        2 0.14921853E+00 0.52494664E+03</pdfrwt>
<pdfrwt beam="2">  1       -2 0.94221818E-02 0.52494664E+03</pdfrwt>
<totfact> 0.20017727E+03</totfact>
</mgrwt>
</event>
<event>
 4    1  0.1760335E-005  0.5056063E+03  0.7818608E-02  0.1012326E+00
         -2   -1    0    0    0  501 -0.00000000000E+00  0.00000000000E+00  0.21434719849E+02  0.21434720001E+02  0.25500000000E-02 0. -1.
          2   -1    0    0  501    0  0.00000000000E+00 -0.00000000000E+00 -0.29815843428E+04  0.29815843428E+04  0.25500000000E-02 0.  1.
    5000001    1    1    2    0    0  0.14427253168E+03  0.58257276754E+02 -0.15394548645E+04  0.15600419077E+04  0.19900000000E+03 0.  0.
   -5000001    1    1    2    0    0 -0.14427253168E+03 -0.58257276754E+02 -0.14206947584E+04  0.14429771552E+04  0.19900000000E+03 0.  0.
<mgrwt>
<rscale>  0 0.50560627E+03</rscale>
<asrwt>0</asrwt>
<pdfrwt beam="1">  1        2 0.42594036E+00 0.50560627E+03</pdfrwt>
<pdfrwt beam="2">  1       -2 0.30621047E-02 0.50560627E+03</pdfrwt>
<totfact> 0.11334295E+03</totfact>
</mgrwt>
</event>
<event>
 4    1  0.1760335E-005  0.1069570E+04  0.7818608E-02  0.9235369E-01
         -2   -1    0    0    0  501 -0.00000000000E+00  0.00000000000E+00  0.19490026415E+03  0.19490026417E+03  0.25500000000E-02 0. -1.
          2   -1    0    0  501    0  0.00000000000E+00 -0.00000000000E+00 -0.14673913655E+04  0.14673913655E+04  0.25500000000E-02 0.  1.
    5000001    1    1    2    0    0 -0.74726799457E+02  0.46113948753E+03 -0.37544036054E+03  0.63149836567E+03  0.19900000000E+03 0.  0.
   -5000001    1    1    2    0    0  0.74726799457E+02 -0.46113948753E+03 -0.89705074085E+03  0.10307932640E+04  0.19900000000E+03 0.  0.
<mgrwt>
<rscale>  0 0.10695699E+04</rscale>
<asrwt>0</asrwt>
<pdfrwt beam="1">  1        2 0.20962733E+00 0.10695699E+04</pdfrwt>
<pdfrwt beam="2">  1       -2 0.27842896E-01 0.10695699E+04</pdfrwt>
<totfact> 0.17790960E+02</totfact>
</mgrwt>
</event>
<event>
 4    1  0.1760335E-005  0.4876059E+03  0.7818608E-02  0.1017066E+00
         -2   -1    0    0    0  501 -0.00000000000E+00  0.00000000000E+00  0.12935085239E+03  0.12935085241E+03  0.25500000000E-02 0. -1.
          2   -1    0    0  501    0  0.00000000000E+00 -0.00000000000E+00 -0.45952442098E+03  0.45952442099E+03  0.25500000000E-02 0.  1.
    5000001    1    1    2    0    0  0.10885525111E+03 -0.68656836562E+02 -0.23420667363E+03  0.33319212607E+03  0.19900000000E+03 0.  0.
   -5000001    1    1    2    0    0 -0.10885525111E+03  0.68656836562E+02 -0.95966894967E+02  0.25568314733E+03  0.19900000000E+03 0.  0.
<mgrwt>
<rscale>  0 0.48760589E+03</rscale>
<asrwt>0</asrwt>
<pdfrwt beam="1">  1        2 0.65646345E-01 0.48760589E+03</pdfrwt>
<pdfrwt beam="2">  1       -2 0.18478693E-01 0.48760589E+03</pdfrwt>
<totfact> 0.18030577E+03</totfact>
</mgrwt>
</event>
<event>
 4    1  0.1760335E-005  0.4482966E+03  0.7818608E-02  0.1028231E+00
          2   -1    0    0  501    0  0.00000000000E+00  0.00000000000E+00  0.13010058091E+04  0.13010058091E+04  0.25500000000E-02 0.  1.
         -2   -1    0    0    0  501 -0.00000000000E+00 -0.00000000000E+00 -0.38618173130E+02  0.38618173214E+02  0.25500000000E-02 0. -1.
    5000001    1    1    2    0    0 -0.68465654223E+02 -0.67938587304E+02  0.52187640682E+03  0.56679730191E+03  0.19900000000E+03 0.  0.
   -5000001    1    1    2    0    0  0.68465654223E+02  0.67938587304E+02  0.74051122911E+03  0.77282668037E+03  0.19900000000E+03 0.  0.
<mgrwt>
<rscale>  0 0.44829663E+03</rscale>
<asrwt>0</asrwt>
<pdfrwt beam="1">  1        2 0.18585800E+00 0.44829663E+03</pdfrwt>
<pdfrwt beam="2">  1       -2 0.55168810E-02 0.44829663E+03</pdfrwt>
<totfact> 0.33394982E+03</totfact>
</mgrwt>
</event>
<event>
 4    1  0.1760335E-005  0.4244896E+03  0.7818608E-02  0.1035615E+00
         -2   -1    0    0    0  501 -0.00000000000E+00  0.00000000000E+00  0.20855905984E+02  0.20855906140E+02  0.25500000000E-02 0. -1.
          2   -1    0    0  501    0  0.00000000000E+00 -0.00000000000E+00 -0.21599568645E+04  0.21599568645E+04  0.25500000000E-02 0.  1.
    5000001    1    1    2    0    0  0.32530709514E+02  0.60139158274E+02 -0.92681576843E+03  0.95040172245E+03  0.19900000000E+03 0.  0.
   -5000001    1    1    2    0    0 -0.32530709514E+02 -0.60139158274E+02 -0.12122851901E+04  0.12304110482E+04  0.19900000000E+03 0.  0.
<mgrwt>
<rscale>  0 0.42448961E+03</rscale>
<asrwt>0</asrwt>
<pdfrwt beam="1">  1        2 0.30856512E+00 0.42448961E+03</pdfrwt>
<pdfrwt beam="2">  1       -2 0.29794165E-02 0.42448961E+03</pdfrwt>
<totfact> 0.31408954E+03</totfact>
</mgrwt>
</event>
<event>
 4    1  0.1760335E-005  0.7415549E+03  0.7818608E-02  0.9648693E-01
          2   -1    0    0  501    0  0.00000000000E+00  0.00000000000E+00  0.56243304969E+03  0.56243304970E+03  0.25500000000E-02 0.  1.
         -2   -1    0    0    0  501 -0.00000000000E+00 -0.00000000000E+00 -0.24443071005E+03  0.24443071006E+03  0.25500000000E-02 0. -1.
    5000001    1    1    2    0    0 -0.29087855325E+03 -0.58474328581E+02  0.51038889627E+02  0.36088162616E+03  0.19900000000E+03 0.  0.
   -5000001    1    1    2    0    0  0.29087855325E+03  0.58474328581E+02  0.26696345002E+03  0.44598213360E+03  0.19900000000E+03 0.  0.
<mgrwt>
<rscale>  0 0.74155488E+03</rscale>
<asrwt>0</asrwt>
<pdfrwt beam="1">  1        2 0.80347576E-01 0.74155488E+03</pdfrwt>
<pdfrwt beam="2">  1       -2 0.34918674E-01 0.74155488E+03</pdfrwt>
<totfact> 0.45292255E+02</totfact>
</mgrwt>
</event>
<event>
 4    1  0.1760335E-005  0.5549265E+03  0.7818608E-02  0.1000360E+00
         -2   -1    0    0    0  501 -0.00000000000E+00  0.00000000000E+00  0.70930142703E+02  0.70930142749E+02  0.25500000000E-02 0.  1.
          2   -1    0    0  501    0  0.00000000000E+00 -0.00000000000E+00 -0.10853757659E+04  0.10853757659E+04  0.25500000000E-02 0. -1.
    5000001    1    1    2    0    0 -0.40072649653E+02  0.60449481811E+02 -0.13375070589E+03  0.25049991702E+03  0.19900000000E+03 0.  0.
   -5000001    1    1    2    0    0  0.40072649653E+02 -0.60449481811E+02 -0.88069491735E+03  0.90580599167E+03  0.19900000000E+03 0.  0.
<mgrwt>
<rscale>  0 0.55492651E+03</rscale>
<asrwt>0</asrwt>
<pdfrwt beam="1">  1        2 0.15505367E+00 0.55492651E+03</pdfrwt>
<pdfrwt beam="2">  1       -2 0.10132878E-01 0.55492651E+03</pdfrwt>
<totfact> 0.16836091E+03</totfact>
</mgrwt>
</event>
<event>
 4    1  0.1760335E-005  0.9114232E+03  0.7818608E-02  0.9411413E-01
         -2   -1    0    0    0  501 -0.00000000000E+00  0.00000000000E+00  0.23908552508E+03  0.23908552510E+03  0.25500000000E-02 0. -1.
          2   -1    0    0  501    0  0.00000000000E+00 -0.00000000000E+00 -0.86861417814E+03  0.86861417815E+03  0.25500000000E-02 0.  1.
    5000001    1    1    2    0    0  0.22887308163E+03  0.90500493369E+02  0.83713219594E+02  0.32738682003E+03  0.19900000000E+03 0.  0.
   -5000001    1    1    2    0    0 -0.22887308163E+03 -0.90500493369E+02 -0.71324187266E+03  0.78031288321E+03  0.19900000000E+03 0.  0.
<mgrwt>
<rscale>  0 0.91142323E+03</rscale>
<asrwt>0</asrwt>
<pdfrwt beam="1">  1        2 0.12408774E+00 0.91142323E+03</pdfrwt>
<pdfrwt beam="2">  1       -2 0.34155075E-01 0.91142323E+03</pdfrwt>
<totfact> 0.27376655E+02</totfact>
</mgrwt>
</event>
<event>
 4    1  0.1760335E-005  0.4801321E+03  0.7818608E-02  0.1019099E+00
          2   -1    0    0  501    0  0.00000000000E+00  0.00000000000E+00  0.47829410342E+03  0.47829410343E+03  0.25500000000E-02 0.  1.
         -2   -1    0    0    0  501 -0.00000000000E+00 -0.00000000000E+00 -0.12049429873E+03  0.12049429876E+03  0.25500000000E-02 0. -1.
    5000001    1    1    2    0    0  0.58852766914E+02  0.11360643743E+03  0.22972176791E+03  0.32976228021E+03  0.19900000000E+03 0.  0.
   -5000001    1    1    2    0    0 -0.58852766914E+02 -0.11360643743E+03  0.12807803679E+03  0.26902612198E+03  0.19900000000E+03 0.  0.
<mgrwt>
<rscale>  0 0.48013212E+03</rscale>
<asrwt>0</asrwt>
<pdfrwt beam="1">  1        2 0.68327729E-01 0.48013212E+03</pdfrwt>
<pdfrwt beam="2">  1       -2 0.17213471E-01 0.48013212E+03</pdfrwt>
<totfact> 0.19458509E+03</totfact>
</mgrwt>
</event>
<event>
 4    1  0.1760335E-005  0.4133775E+03  0.7818608E-02  0.1039244E+00
          2   -1    0    0  501    0  0.00000000000E+00  0.00000000000E+00  0.49403069589E+03  0.49403069590E+03  0.25500000000E-02 0.  1.
         -2   -1    0    0    0  501 -0.00000000000E+00 -0.00000000000E+00 -0.86472847357E+02  0.86472847394E+02  0.25500000000E-02 0. -1.
    5000001    1    1    2    0    0 -0.19386126238E+02 -0.30410011850E+02  0.26366593374E+03  0.33229702876E+03  0.19900000000E+03 0.  0.
   -5000001    1    1    2    0    0  0.19386126238E+02  0.30410011850E+02  0.14389191480E+03  0.24820651453E+03  0.19900000000E+03 0.  0.
<mgrwt>
<rscale>  0 0.41337751E+03</rscale>
<asrwt>0</asrwt>
<pdfrwt beam="1">  1        2 0.70575817E-01 0.41337751E+03</pdfrwt>
<pdfrwt beam="2">  1       -2 0.12353263E-01 0.41337751E+03</pdfrwt>
<totfact> 0.32575896E+03</totfact>
</mgrwt>
</event>
<event>
 4    1  0.1760335E-005  0.6215723E+03  0.7818608E-02  0.9861634E-01
         -2   -1    0    0    0  501 -0.00000000000E+00  0.00000000000E+00  0.87121308220E+02  0.87121308258E+02  0.25500000000E-02 0. -1.
          2   -1    0    0  501    0  0.00000000000E+00 -0.00000000000E+00 -0.11086613085E+04  0.11086613085E+04  0.25500000000E-02 0.  1.
    5000001    1    1    2    0    0  0.21842883848E+03 -0.85586956629E+02 -0.59573893611E+03  0.67047905606E+03  0.19900000000E+03 0.  0.
   -5000001    1    1    2    0    0 -0.21842883848E+03  0.85586956629E+02 -0.42580106415E+03  0.52530356068E+03  0.19900000000E+03 0.  0.
<mgrwt>
<rscale>  0 0.62157228E+03</rscale>
<asrwt>0</asrwt>
<pdfrwt beam="1">  1        2 0.15838018E+00 0.62157228E+03</pdfrwt>
<pdfrwt beam="2">  1       -2 0.12445902E-01 0.62157228E+03</pdfrwt>
<totfact> 0.11640845E+03</totfact>
</mgrwt>
</event>
<event>
 4    1  0.1760335E-005  0.5526148E+03  0.7818608E-02  0.1000891E+00
         -2   -1    0    0    0  501 -0.00000000000E+00  0.00000000000E+00  0.28111001382E+03  0.28111001383E+03  0.25500000000E-02 0. -1.
          2   -1    0    0  501    0  0.00000000000E+00 -0.00000000000E+00 -0.27158680991E+03  0.27158680992E+03  0.25500000000E-02 0.  1.
    5000001    1    1    2    0    0  0.14655686049E+03 -0.46072011106E+02  0.11942254366E+03  0.27832406920E+03  0.19900000000E+03 0.  0.
   -5000001    1    1    2    0    0 -0.14655686049E+03  0.46072011106E+02 -0.10989933974E+03  0.27437275455E+03  0.19900000000E+03 0.  0.
<mgrwt>
<rscale>  0 0.55261477E+03</rscale>
<asrwt>0</asrwt>
<pdfrwt beam="1">  1        2 0.38798116E-01 0.55261477E+03</pdfrwt>
<pdfrwt beam="2">  1       -2 0.40158573E-01 0.55261477E+03</pdfrwt>
<totfact> 0.78552403E+02</totfact>
</mgrwt>
</event>
<event>
 4    1  0.1760335E-005  0.5294703E+03  0.7818608E-02  0.1006361E+00
          2   -1    0    0  501    0  0.00000000000E+00  0.00000000000E+00  0.40423393353E+03  0.40423393353E+03  0.25500000000E-02 0.  1.
         -2   -1    0    0    0  501 -0.00000000000E+00 -0.00000000000E+00 -0.17337658448E+03  0.17337658449E+03  0.25500000000E-02 0. -1.
    5000001    1    1    2    0    0 -0.11608414324E+03  0.11414618703E+03  0.18424168389E+03  0.31630820161E+03  0.19900000000E+03 0.  0.
   -5000001    1    1    2    0    0  0.11608414324E+03 -0.11414618703E+03  0.46615665156E+02  0.26130231641E+03  0.19900000000E+03 0.  0.
<mgrwt>
<rscale>  0 0.52947030E+03</rscale>
<asrwt>0</asrwt>
<pdfrwt beam="1">  1        2 0.57747705E-01 0.52947030E+03</pdfrwt>
<pdfrwt beam="2">  1       -2 0.24768083E-01 0.52947030E+03</pdfrwt>
<totfact> 0.12450812E+03</totfact>
</mgrwt>
</event>
<event>
 4    1  0.1760335E-005  0.7816684E+03  0.7818608E-02  0.9586937E-01
          2   -1    0    0  501    0  0.00000000000E+00  0.00000000000E+00  0.10737297774E+04  0.10737297774E+04  0.25500000000E-02 0.  1.
         -2   -1    0    0    0  501 -0.00000000000E+00 -0.00000000000E+00 -0.14226240391E+03  0.14226240393E+03  0.25500000000E-02 0. -1.
    5000001    1    1    2    0    0  0.24370170590E+03 -0.21256709996E+03  0.60978839428E+03  0.71834405354E+03  0.19900000000E+03 0.  0.
   -5000001    1    1    2    0    0 -0.24370170590E+03  0.21256709996E+03  0.32167897923E+03  0.49764812782E+03  0.19900000000E+03 0.  0.
<mgrwt>
<rscale>  0 0.78166842E+03</rscale>
<asrwt>0</asrwt>
<pdfrwt beam="1">  1        2 0.15338997E+00 0.78166842E+03</pdfrwt>
<pdfrwt beam="2">  1       -2 0.20323201E-01 0.78166842E+03</pdfrwt>
<totfact> 0.52718503E+02</totfact>
</mgrwt>
</event>
<event>
 4    1  0.1760335E-005  0.9628907E+03  0.7818608E-02  0.9350209E-01
         -2   -1    0    0    0  501 -0.00000000000E+00  0.00000000000E+00  0.14728156589E+03  0.14728156591E+03  0.25500000000E-02 0. -1.
          2   -1    0    0  501    0  0.00000000000E+00 -0.00000000000E+00 -0.15737857441E+04  0.15737857441E+04  0.25500000000E-02 0.  1.
    5000001    1    1    2    0    0 -0.32222020372E+03 -0.26781247358E+03 -0.48269010081E+03  0.66943268079E+03  0.19900000000E+03 0.  0.
   -5000001    1    1    2    0    0  0.32222020372E+03  0.26781247358E+03 -0.94381407745E+03  0.10516346293E+04  0.19900000000E+03 0.  0.
<mgrwt>
<rscale>  0 0.96289071E+03</rscale>
<asrwt>0</asrwt>
<pdfrwt beam="1">  1        2 0.22482653E+00 0.96289071E+03</pdfrwt>
<pdfrwt beam="2">  1       -2 0.21040225E-01 0.96289071E+03</pdfrwt>
<totfact> 0.26060557E+02</totfact>
</mgrwt>
</event>
<event>
 4    1  0.1760335E-005  0.7057369E+03  0.7818608E-02  0.9707471E-01
         -2   -1    0    0    0  501 -0.00000000000E+00  0.00000000000E+00  0.42745222647E+02  0.42745222723E+02  0.25500000000E-02 0. -1.
          2   -1    0    0  501    0  0.00000000000E+00 -0.00000000000E+00 -0.29129836169E+04  0.29129836169E+04  0.25500000000E-02 0.  1.
    5000001    1    1    2    0    0  0.23458883192E+03 -0.16784940970E+03 -0.16082973240E+04  0.16460336044E+04  0.19900000000E+03 0.  0.
   -5000001    1    1    2    0    0 -0.23458883192E+03  0.16784940970E+03 -0.12619410703E+04  0.13096952353E+04  0.19900000000E+03 0.  0.
<mgrwt>
<rscale>  0 0.70573687E+03</rscale>
<asrwt>0</asrwt>
<pdfrwt beam="1">  1        2 0.41614039E+00 0.70573687E+03</pdfrwt>
<pdfrwt beam="2">  1       -2 0.61064622E-02 0.70573687E+03</pdfrwt>
<totfact> 0.41794449E+02</totfact>
</mgrwt>
</event>
<event>
 4    1  0.1760335E-005  0.1001427E+04  0.7818608E-02  0.9306981E-01
         -2   -1    0    0    0  501 -0.00000000000E+00  0.00000000000E+00  0.34122235726E+03  0.34122235727E+03  0.25500000000E-02 0. -1.
          2   -1    0    0  501    0  0.00000000000E+00 -0.00000000000E+00 -0.73475247964E+03  0.73475247965E+03  0.25500000000E-02 0.  1.
    5000001    1    1    2    0    0  0.25141210995E+03 -0.32070582852E+03 -0.42482197357E+03  0.62139760758E+03  0.19900000000E+03 0.  0.
   -5000001    1    1    2    0    0 -0.25141210995E+03  0.32070582852E+03  0.31291851197E+02  0.45457722934E+03  0.19900000000E+03 0.  0.
<mgrwt>
<rscale>  0 0.10014269E+04</rscale>
<asrwt>0</asrwt>
<pdfrwt beam="1">  1        2 0.10496464E+00 0.10014269E+04</pdfrwt>
<pdfrwt beam="2">  1       -2 0.48746051E-01 0.10014269E+04</pdfrwt>
<totfact> 0.16849767E+02</totfact>
</mgrwt>
</event>
<event>
 4    1  0.1760335E-005  0.1241751E+04  0.7818608E-02  0.9077077E-01
          2   -1    0    0  501    0  0.00000000000E+00  0.00000000000E+00  0.55898313039E+03  0.55898313039E+03  0.25500000000E-02 0.  1.
         -2   -1    0    0    0  501 -0.00000000000E+00 -0.00000000000E+00 -0.68962116784E+03  0.68962116784E+03  0.25500000000E-02 0. -1.
    5000001    1    1    2    0    0 -0.15863521524E+03  0.51828048742E+03  0.16420769481E+03  0.60028739966E+03  0.19900000000E+03 0.  0.
   -5000001    1    1    2    0    0  0.15863521524E+03 -0.51828048742E+03 -0.29484573226E+03  0.64831689858E+03  0.19900000000E+03 0.  0.
<mgrwt>
<rscale>  0 0.12417513E+04</rscale>
<asrwt>0</asrwt>
<pdfrwt beam="1">  1        2 0.79854733E-01 0.12417513E+04</pdfrwt>
<pdfrwt beam="2">  1       -2 0.98517309E-01 0.12417513E+04</pdfrwt>
<totfact> 0.49744342E+01</totfact>
</mgrwt>
</event>
<event>
 4    1  0.1760335E-005  0.6049769E+03  0.7818608E-02  0.9895134E-01
         -2   -1    0    0    0  501 -0.00000000000E+00  0.00000000000E+00  0.42456448902E+03  0.42456448903E+03  0.25500000000E-02 0.  1.
          2   -1    0    0  501    0  0.00000000000E+00 -0.00000000000E+00 -0.21551321227E+03  0.21551321229E+03  0.25500000000E-02 0. -1.
    5000001    1    1    2    0    0 -0.95883290947E+02  0.17722424994E+03 -0.79246113790E+01  0.28331226538E+03  0.19900000000E+03 0.  0.
   -5000001    1    1    2    0    0  0.95883290947E+02 -0.17722424994E+03  0.21697588813E+03  0.35676543594E+03  0.19900000000E+03 0.  0.
<mgrwt>
<rscale>  0 0.60497688E+03</rscale>
<asrwt>0</asrwt>
<pdfrwt beam="1">  1        2 0.30787602E-01 0.60497688E+03</pdfrwt>
<pdfrwt beam="2">  1       -2 0.60652070E-01 0.60497688E+03</pdfrwt>
<totfact> 0.44131899E+02</totfact>
</mgrwt>
</event>
<event>
 4    1  0.1760335E-005  0.5216849E+03  0.7818608E-02  0.1008269E+00
          2   -1    0    0  501    0  0.00000000000E+00  0.00000000000E+00  0.45036741361E+03  0.45036741362E+03  0.25500000000E-02 0.  1.
         -2   -1    0    0    0  501 -0.00000000000E+00 -0.00000000000E+00 -0.15107394476E+03  0.15107394478E+03  0.25500000000E-02 0. -1.
    5000001    1    1    2    0    0 -0.14004911966E+03  0.93866755843E+02  0.14548069479E+03  0.29864754532E+03  0.19900000000E+03 0.  0.
   -5000001    1    1    2    0    0  0.14004911966E+03 -0.93866755843E+02  0.15381277407E+03  0.30279381307E+03  0.19900000000E+03 0.  0.
<mgrwt>
<rscale>  0 0.52168489E+03</rscale>
<asrwt>0</asrwt>
<pdfrwt beam="1">  1        2 0.64338203E-01 0.52168489E+03</pdfrwt>
<pdfrwt beam="2">  1       -2 0.21581992E-01 0.52168489E+03</pdfrwt>
<totfact> 0.14089491E+03</totfact>
</mgrwt>
</event>
<event>
 4    1  0.1760335E-005  0.5655818E+03  0.7818608E-02  0.9979503E-01
         -2   -1    0    0    0  501 -0.00000000000E+00  0.00000000000E+00  0.75113898839E+02  0.75113898882E+02  0.25500000000E-02 0. -1.
          2   -1    0    0  501    0  0.00000000000E+00 -0.00000000000E+00 -0.10646589817E+04  0.10646589817E+04  0.25500000000E-02 0.  1.
    5000001    1    1    2    0    0 -0.13515694495E+03  0.14307066864E+03 -0.41333484995E+03  0.49918264611E+03  0.19900000000E+03 0.  0.
   -5000001    1    1    2    0    0  0.13515694495E+03 -0.14307066864E+03 -0.57621023290E+03  0.64059023446E+03  0.19900000000E+03 0.  0.
<mgrwt>
<rscale>  0 0.56558178E+03</rscale>
<asrwt>0</asrwt>
<pdfrwt beam="1">  1        2 0.15209413E+00 0.56558178E+03</pdfrwt>
<pdfrwt beam="2">  1       -2 0.10730558E-01 0.56558178E+03</pdfrwt>
<totfact> 0.15772410E+03</totfact>
</mgrwt>
</event>
<event>
 4    1  0.1760335E-005  0.7257699E+03  0.7818608E-02  0.9674150E-01
         -2   -1    0    0    0  501 -0.00000000000E+00  0.00000000000E+00  0.14455988860E+03  0.14455988863E+03  0.25500000000E-02 0. -1.
          2   -1    0    0  501    0  0.00000000000E+00 -0.00000000000E+00 -0.91094080705E+03  0.91094080706E+03  0.25500000000E-02 0.  1.
    5000001    1    1    2    0    0  0.70630098042E+02  0.24500184519E+03 -0.14391201939E+03  0.35401438420E+03  0.19900000000E+03 0.  0.
   -5000001    1    1    2    0    0 -0.70630098042E+02 -0.24500184519E+03 -0.62246889906E+03  0.70148631148E+03  0.19900000000E+03 0.  0.
<mgrwt>
<rscale>  0 0.72576994E+03</rscale>
<asrwt>0</asrwt>
<pdfrwt beam="1">  1        2 0.13013440E+00 0.72576994E+03</pdfrwt>
<pdfrwt beam="2">  1       -2 0.20651413E-01 0.72576994E+03</pdfrwt>
<totfact> 0.64740419E+02</totfact>
</mgrwt>
</event>
<event>
 4    1  0.1760335E-005  0.5283121E+03  0.7818608E-02  0.1006642E+00
         -2   -1    0    0    0  501 -0.00000000000E+00  0.00000000000E+00  0.56686913745E+02  0.56686913802E+02  0.25500000000E-02 0. -1.
          2   -1    0    0  501    0  0.00000000000E+00 -0.00000000000E+00 -0.12309442577E+04  0.12309442577E+04  0.25500000000E-02 0.  1.
    5000001    1    1    2    0    0 -0.12810546613E+03 -0.79817775659E+02 -0.37753125496E+03  0.45267287994E+03  0.19900000000E+03 0.  0.
   -5000001    1    1    2    0    0  0.12810546613E+03  0.79817775659E+02 -0.79672608903E+03  0.83495829159E+03  0.19900000000E+03 0.  0.
<mgrwt>
<rscale>  0 0.52831215E+03</rscale>
<asrwt>0</asrwt>
<pdfrwt beam="1">  1        2 0.17584916E+00 0.52831215E+03</pdfrwt>
<pdfrwt beam="2">  1       -2 0.80981313E-02 0.52831215E+03</pdfrwt>
<totfact> 0.19957971E+03</totfact>
</mgrwt>
</event>
<event>
 4    1  0.1760335E-005  0.6703319E+03  0.7818608E-02  0.9769358E-01
         -2   -1    0    0    0  501 -0.00000000000E+00  0.00000000000E+00  0.71773096638E+02  0.71773096684E+02  0.25500000000E-02 0. -1.
          2   -1    0    0  501    0  0.00000000000E+00 -0.00000000000E+00 -0.15651578453E+04  0.15651578453E+04  0.25500000000E-02 0.  1.
    5000001    1    1    2    0    0  0.76416815946E+00  0.24153131860E+03 -0.45368373504E+03  0.55115142498E+03  0.19900000000E+03 0.  0.
   -5000001    1    1    2    0    0 -0.76416815946E+00 -0.24153131860E+03 -0.10397010136E+04  0.10857795170E+04  0.19900000000E+03 0.  0.
<mgrwt>
<rscale>  0 0.67033193E+03</rscale>
<asrwt>0</asrwt>
<pdfrwt beam="1">  1        2 0.22359396E+00 0.67033193E+03</pdfrwt>
<pdfrwt beam="2">  1       -2 0.10253301E-01 0.67033193E+03</pdfrwt>
<totfact> 0.90214692E+02</totfact>
</mgrwt>
</event>
<event>
 4    1  0.1760335E-005  0.6173311E+03  0.7818608E-02  0.9870088E-01
         -2   -1    0    0    0  501 -0.00000000000E+00  0.00000000000E+00  0.23016693806E+02  0.23016693947E+02  0.25500000000E-02 0. -1.
          2   -1    0    0  501    0  0.00000000000E+00 -0.00000000000E+00 -0.41393621017E+04  0.41393621017E+04  0.25500000000E-02 0.  1.
    5000001    1    1    2    0    0  0.20700372929E+03 -0.51504415578E+02 -0.27381396127E+04  0.27536362845E+04  0.19900000000E+03 0.  0.
   -5000001    1    1    2    0    0 -0.20700372929E+03  0.51504415578E+02 -0.13782057951E+04  0.14087425111E+04  0.19900000000E+03 0.  0.
<mgrwt>
<rscale>  0 0.61733113E+03</rscale>
<asrwt>0</asrwt>
<pdfrwt beam="1">  1        2 0.59133697E+00 0.61733113E+03</pdfrwt>
<pdfrwt beam="2">  1       -2 0.32881018E-02 0.61733113E+03</pdfrwt>
<totfact> 0.19969841E+02</totfact>
</mgrwt>
</event>
<event>
 4    1  0.1760335E-005  0.8213714E+03  0.7818608E-02  0.9529588E-01
         -2   -1    0    0    0  501 -0.00000000000E+00  0.00000000000E+00  0.15897182007E+03  0.15897182009E+03  0.25500000000E-02 0.  1.
          2   -1    0    0  501    0  0.00000000000E+00 -0.00000000000E+00 -0.10609600112E+04  0.10609600112E+04  0.25500000000E-02 0. -1.
    5000001    1    1    2    0    0  0.22507850070E+03 -0.26342353992E+03 -0.59197008595E+03  0.71420016488E+03  0.19900000000E+03 0.  0.
   -5000001    1    1    2    0    0 -0.22507850070E+03  0.26342353992E+03 -0.31001810516E+03  0.50573166639E+03  0.19900000000E+03 0.  0.
<mgrwt>
<rscale>  0 0.82137140E+03</rscale>
<asrwt>0</asrwt>
<pdfrwt beam="1">  1        2 0.15156571E+00 0.82137140E+03</pdfrwt>
<pdfrwt beam="2">  1       -2 0.22710261E-01 0.82137140E+03</pdfrwt>
<totfact> 0.44017637E+02</totfact>
</mgrwt>
</event>
<event>
 4    1  0.1760335E-005  0.7831027E+03  0.7818608E-02  0.9584803E-01
          2   -1    0    0  501    0  0.00000000000E+00  0.00000000000E+00  0.63924408732E+03  0.63924408733E+03  0.25500000000E-02 0.  1.
         -2   -1    0    0    0  501 -0.00000000000E+00 -0.00000000000E+00 -0.23983396349E+03  0.23983396351E+03  0.25500000000E-02 0. -1.
    5000001    1    1    2    0    0 -0.29270749976E+03  0.16114985231E+03  0.14869980978E+03  0.41636473042E+03  0.19900000000E+03 0.  0.
   -5000001    1    1    2    0    0  0.29270749976E+03 -0.16114985231E+03  0.25071031405E+03  0.46271332041E+03  0.19900000000E+03 0.  0.
<mgrwt>
<rscale>  0 0.78310266E+03</rscale>
<asrwt>0</asrwt>
<pdfrwt beam="1">  1        2 0.91320584E-01 0.78310266E+03</pdfrwt>
<pdfrwt beam="2">  1       -2 0.34261995E-01 0.78310266E+03</pdfrwt>
<totfact> 0.40291153E+02</totfact>
</mgrwt>
</event>
<event>
 4    1  0.1760335E-005  0.4549606E+03  0.7818608E-02  0.1026253E+00
          2   -1    0    0  501    0  0.00000000000E+00  0.00000000000E+00  0.29900496785E+04  0.29900496785E+04  0.25500000000E-02 0. -1.
         -2   -1    0    0    0  501 -0.00000000000E+00 -0.00000000000E+00 -0.17306495956E+02  0.17306496144E+02  0.25500000000E-02 0.  1.
    5000001    1    1    2    0    0  0.65925423889E+02 -0.81907743602E+02  0.17047309577E+04  0.17195242593E+04  0.19900000000E+03 0.  0.
   -5000001    1    1    2    0    0 -0.65925423889E+02  0.81907743602E+02  0.12680122248E+04  0.12878319153E+04  0.19900000000E+03 0.  0.
<mgrwt>
<rscale>  0 0.45496058E+03</rscale>
<asrwt>0</asrwt>
<pdfrwt beam="1">  1        2 0.42714960E+00 0.45496058E+03</pdfrwt>
<pdfrwt beam="2">  1       -2 0.24723586E-02 0.45496058E+03</pdfrwt>
<totfact> 0.15557084E+03</totfact>
</mgrwt>
</event>
<event>
 4    1  0.1760335E-005  0.1161530E+04  0.7818608E-02  0.9147212E-01
         -2   -1    0    0    0  501 -0.00000000000E+00  0.00000000000E+00  0.72276792515E+03  0.72276792516E+03  0.25500000000E-02 0. -1.
          2   -1    0    0  501    0  0.00000000000E+00 -0.00000000000E+00 -0.46666112869E+03  0.46666112870E+03  0.25500000000E-02 0.  1.
    5000001    1    1    2    0    0 -0.40341023819E+03 -0.11002683550E+02 -0.24795264687E+03  0.51375324273E+03  0.19900000000E+03 0.  0.
   -5000001    1    1    2    0    0  0.40341023819E+03  0.11002683550E+02  0.50405944334E+03  0.67567581113E+03  0.19900000000E+03 0.  0.
<mgrwt>
<rscale>  0 0.11615295E+04</rscale>
<asrwt>0</asrwt>
<pdfrwt beam="1">  1        2 0.66665875E-01 0.11615295E+04</pdfrwt>
<pdfrwt beam="2">  1       -2 0.10325256E+00 0.11615295E+04</pdfrwt>
<totfact> 0.55058903E+01</totfact>
</mgrwt>
</event>
<event>
 4    1  0.1760335E-005  0.9022538E+03  0.7818608E-02  0.9422768E-01
         -2   -1    0    0    0  501 -0.00000000000E+00  0.00000000000E+00  0.18098088141E+03  0.18098088142E+03  0.25500000000E-02 0. -1.
          2   -1    0    0  501    0  0.00000000000E+00 -0.00000000000E+00 -0.11245137950E+04  0.11245137950E+04  0.25500000000E-02 0.  1.
    5000001    1    1    2    0    0  0.10274965441E+03  0.10951073766E+03 -0.10157883789E+04  0.10459336135E+04  0.19900000000E+03 0.  0.
   -5000001    1    1    2    0    0 -0.10274965441E+03 -0.10951073766E+03  0.72255465271E+02  0.25956106296E+03  0.19900000000E+03 0.  0.
<mgrwt>
<rscale>  0 0.90225384E+03</rscale>
<asrwt>0</asrwt>
<pdfrwt beam="1">  1        2 0.16064482E+00 0.90225384E+03</pdfrwt>
<pdfrwt beam="2">  1       -2 0.25854412E-01 0.90225384E+03</pdfrwt>
<totfact> 0.31858983E+02</totfact>
</mgrwt>
</event>
<event>
 4    1  0.1760335E-005  0.5788427E+03  0.7818608E-02  0.9950300E-01
          2   -1    0    0  501    0  0.00000000000E+00  0.00000000000E+00  0.67880287515E+03  0.67880287515E+03  0.25500000000E-02 0.  1.
         -2   -1    0    0    0  501 -0.00000000000E+00 -0.00000000000E+00 -0.12340064499E+03  0.12340064501E+03  0.25500000000E-02 0. -1.
    5000001    1    1    2    0    0 -0.13010446558E+02  0.19638760684E+03  0.17561236918E+03  0.33042104662E+03  0.19900000000E+03 0.  0.
   -5000001    1    1    2    0    0  0.13010446558E+02 -0.19638760684E+03  0.37978986098E+03  0.47178247355E+03  0.19900000000E+03 0.  0.
<mgrwt>
<rscale>  0 0.57884268E+03</rscale>
<asrwt>0</asrwt>
<pdfrwt beam="1">  1        2 0.96971840E-01 0.57884268E+03</pdfrwt>
<pdfrwt beam="2">  1       -2 0.17628663E-01 0.57884268E+03</pdfrwt>
<totfact> 0.12440381E+03</totfact>
</mgrwt>
</event>
<event>
 4    1  0.1760335E-005  0.4883417E+03  0.7818608E-02  0.1016867E+00
          2   -1    0    0  501    0  0.00000000000E+00  0.00000000000E+00  0.85429456494E+03  0.85429456494E+03  0.25500000000E-02 0.  1.
         -2   -1    0    0    0  501 -0.00000000000E+00 -0.00000000000E+00 -0.69787879766E+02  0.69787879812E+02  0.25500000000E-02 0. -1.
    5000001    1    1    2    0    0 -0.11612590734E+03  0.68795145042E+02  0.31196132414E+03  0.39387671433E+03  0.19900000000E+03 0.  0.
   -5000001    1    1    2    0    0  0.11612590734E+03 -0.68795145042E+02  0.47254536103E+03  0.53020573042E+03  0.19900000000E+03 0.  0.
<mgrwt>
<rscale>  0 0.48834171E+03</rscale>
<asrwt>0</asrwt>
<pdfrwt beam="1">  1        2 0.12204208E+00 0.48834171E+03</pdfrwt>
<pdfrwt beam="2">  1       -2 0.99696975E-02 0.48834171E+03</pdfrwt>
<totfact> 0.24024434E+03</totfact>
</mgrwt>
</event>
<event>
 4    1  0.1760335E-005  0.5306023E+03  0.7818608E-02  0.1006086E+00
         -2   -1    0    0    0  501 -0.00000000000E+00  0.00000000000E+00  0.76101076632E+02  0.76101076674E+02  0.25500000000E-02 0. -1.
          2   -1    0    0  501    0  0.00000000000E+00 -0.00000000000E+00 -0.92488431599E+03  0.92488431600E+03  0.25500000000E-02 0.  1.
    5000001    1    1    2    0    0 -0.11726989026E+03 -0.96694381654E+02 -0.25904846382E+03  0.36029035126E+03  0.19900000000E+03 0.  0.
   -5000001    1    1    2    0    0  0.11726989026E+03  0.96694381654E+02 -0.58973477554E+03  0.64069504141E+03  0.19900000000E+03 0.  0.
<mgrwt>
<rscale>  0 0.53060227E+03</rscale>
<asrwt>0</asrwt>
<pdfrwt beam="1">  1        2 0.13212632E+00 0.53060227E+03</pdfrwt>
<pdfrwt beam="2">  1       -2 0.10871583E-01 0.53060227E+03</pdfrwt>
<totfact> 0.18796301E+03</totfact>
</mgrwt>
</event>
<event>
 4    1  0.1760335E-005  0.7439787E+03  0.7818608E-02  0.9644844E-01
          2   -1    0    0  501    0  0.00000000000E+00  0.00000000000E+00  0.87738157795E+03  0.87738157795E+03  0.25500000000E-02 0.  1.
         -2   -1    0    0    0  501 -0.00000000000E+00 -0.00000000000E+00 -0.15771482495E+03  0.15771482497E+03  0.25500000000E-02 0. -1.
    5000001    1    1    2    0    0  0.21749919791E+02 -0.29662940498E+03  0.50112395375E+03  0.61578265641E+03  0.19900000000E+03 0.  0.
   -5000001    1    1    2    0    0 -0.21749919791E+02  0.29662940498E+03  0.21854279925E+03  0.41931374651E+03  0.19900000000E+03 0.  0.
<mgrwt>
<rscale>  0 0.74397871E+03</rscale>
<asrwt>0</asrwt>
<pdfrwt beam="1">  1        2 0.12534022E+00 0.74397871E+03</pdfrwt>
<pdfrwt beam="2">  1       -2 0.22530690E-01 0.74397871E+03</pdfrwt>
<totfact> 0.58347381E+02</totfact>
</mgrwt>
</event>
<event>
 4    1  0.1760335E-005  0.7193255E+03  0.7818608E-02  0.9684742E-01
          2   -1    0    0  501    0  0.00000000000E+00  0.00000000000E+00  0.61722236643E+03  0.61722236644E+03  0.25500000000E-02 0.  1.
         -2   -1    0    0    0  501 -0.00000000000E+00 -0.00000000000E+00 -0.20957975291E+03  0.20957975293E+03  0.25500000000E-02 0. -1.
    5000001    1    1    2    0    0 -0.26483423960E+03  0.80780304769E+02  0.33534589170E+03  0.47824732010E+03  0.19900000000E+03 0.  0.
   -5000001    1    1    2    0    0  0.26483423960E+03 -0.80780304769E+02  0.72296721816E+02  0.34855479926E+03  0.19900000000E+03 0.  0.
<mgrwt>
<rscale>  0 0.71932555E+03</rscale>
<asrwt>0</asrwt>
<pdfrwt beam="1">  1        2 0.88174624E-01 0.71932555E+03</pdfrwt>
<pdfrwt beam="2">  1       -2 0.29939965E-01 0.71932555E+03</pdfrwt>
<totfact> 0.54208716E+02</totfact>
</mgrwt>
</event>
<event>
 4    1  0.1760335E-005  0.5294566E+03  0.7818608E-02  0.1006364E+00
          2   -1    0    0  501    0  0.00000000000E+00  0.00000000000E+00  0.14639201664E+04  0.14639201664E+04  0.25500000000E-02 0.  1.
         -2   -1    0    0    0  501 -0.00000000000E+00 -0.00000000000E+00 -0.47872189709E+02  0.47872189777E+02  0.25500000000E-02 0. -1.
    5000001    1    1    2    0    0 -0.12563357817E+03  0.12073671766E+03  0.67688700645E+03  0.72673115418E+03  0.19900000000E+03 0.  0.
   -5000001    1    1    2    0    0  0.12563357817E+03 -0.12073671766E+03  0.73916097027E+03  0.78506120202E+03  0.19900000000E+03 0.  0.
<mgrwt>
<rscale>  0 0.52945657E+03</rscale>
<asrwt>0</asrwt>
<pdfrwt beam="1">  1        2 0.20913142E+00 0.52945657E+03</pdfrwt>
<pdfrwt beam="2">  1       -2 0.68388854E-02 0.52945657E+03</pdfrwt>
<totfact> 0.19562953E+03</totfact>
</mgrwt>
</event>
<event>
 4    1  0.1760335E-005  0.6267346E+03  0.7818608E-02  0.9851442E-01
          2   -1    0    0  501    0  0.00000000000E+00  0.00000000000E+00  0.12347204844E+04  0.12347204844E+04  0.25500000000E-02 0.  1.
         -2   -1    0    0    0  501 -0.00000000000E+00 -0.00000000000E+00 -0.79531420469E+02  0.79531420510E+02  0.25500000000E-02 0. -1.
    5000001    1    1    2    0    0 -0.18322420592E+03 -0.15333000130E+03  0.49592316311E+03  0.58533920307E+03  0.19900000000E+03 0.  0.
   -5000001    1    1    2    0    0  0.18322420592E+03  0.15333000130E+03  0.65926590082E+03  0.72891270185E+03  0.19900000000E+03 0.  0.
<mgrwt>
<rscale>  0 0.62673463E+03</rscale>
<asrwt>0</asrwt>
<pdfrwt beam="1">  1        2 0.17638864E+00 0.62673463E+03</pdfrwt>
<pdfrwt beam="2">  1       -2 0.11361632E-01 0.62673463E+03</pdfrwt>
<totfact> 0.11470964E+03</totfact>
</mgrwt>
</event>
<event>
 4    1  0.1760335E-005  0.4913061E+03  0.7818608E-02  0.1016073E+00
         -2   -1    0    0    0  501 -0.00000000000E+00  0.00000000000E+00  0.41956669221E+02  0.41956669299E+02  0.25500000000E-02 0.  1.
          2   -1    0    0  501    0  0.00000000000E+00 -0.00000000000E+00 -0.14382797999E+04  0.14382797999E+04  0.25500000000E-02 0. -1.
    5000001    1    1    2    0    0  0.14293831431E+03  0.91211423246E+01 -0.74384122220E+03  0.78320835081E+03  0.19900000000E+03 0.  0.
   -5000001    1    1    2    0    0 -0.14293831431E+03 -0.91211423246E+01 -0.65248190850E+03  0.69702811841E+03  0.19900000000E+03 0.  0.
<mgrwt>
<rscale>  0 0.49130614E+03</rscale>
<asrwt>0</asrwt>
<pdfrwt beam="1">  1        2 0.20546851E+00 0.49130614E+03</pdfrwt>
<pdfrwt beam="2">  1       -2 0.59938108E-02 0.49130614E+03</pdfrwt>
<totfact> 0.24824433E+03</totfact>
</mgrwt>
</event>
<event>
 4    1  0.1760335E-005  0.5661232E+03  0.7818608E-02  0.9978294E-01
         -2   -1    0    0    0  501 -0.00000000000E+00  0.00000000000E+00  0.50846869547E+02  0.50846869611E+02  0.25500000000E-02 0. -1.
          2   -1    0    0  501    0  0.00000000000E+00 -0.00000000000E+00 -0.15757874049E+04  0.15757874049E+04  0.25500000000E-02 0.  1.
    5000001    1    1    2    0    0 -0.11833520406E+03  0.16217255543E+03 -0.80505877849E+03  0.85324310432E+03  0.19900000000E+03 0.  0.
   -5000001    1    1    2    0    0  0.11833520406E+03 -0.16217255543E+03 -0.71988175684E+03  0.77339117016E+03  0.19900000000E+03 0.  0.
<mgrwt>
<rscale>  0 0.56612316E+03</rscale>
<asrwt>0</asrwt>
<pdfrwt beam="1">  1        2 0.22511246E+00 0.56612316E+03</pdfrwt>
<pdfrwt beam="2">  1       -2 0.72638395E-02 0.56612316E+03</pdfrwt>
<totfact> 0.15549286E+03</totfact>
</mgrwt>
</event>
<event>
 4    1  0.1760335E-005  0.5261956E+03  0.7818608E-02  0.1007159E+00
          2   -1    0    0  501    0  0.00000000000E+00  0.00000000000E+00  0.16688388148E+04  0.16688388148E+04  0.25500000000E-02 0. -1.
         -2   -1    0    0    0  501 -0.00000000000E+00 -0.00000000000E+00 -0.41478217710E+02  0.41478217788E+02  0.25500000000E-02 0.  1.
    5000001    1    1    2    0    0 -0.41558590979E+02 -0.16555300167E+03  0.88522826555E+03  0.92323615341E+03  0.19900000000E+03 0.  0.
   -5000001    1    1    2    0    0  0.41558590979E+02  0.16555300167E+03  0.74213233157E+03  0.78708087920E+03  0.19900000000E+03 0.  0.
<mgrwt>
<rscale>  0 0.52619563E+03</rscale>
<asrwt>0</asrwt>
<pdfrwt beam="1">  1        2 0.23840558E+00 0.52619563E+03</pdfrwt>
<pdfrwt beam="2">  1       -2 0.59254588E-02 0.52619563E+03</pdfrwt>
<totfact> 0.19216982E+03</totfact>
</mgrwt>
</event>
<event>
 4    1  0.1760335E-005  0.6248830E+03  0.7818608E-02  0.9855085E-01
          2   -1    0    0  501    0  0.00000000000E+00  0.00000000000E+00  0.51568389874E+03  0.51568389874E+03  0.25500000000E-02 0.  1.
         -2   -1    0    0    0  501 -0.00000000000E+00 -0.00000000000E+00 -0.18930142646E+03  0.18930142648E+03  0.25500000000E-02 0. -1.
    5000001    1    1    2    0    0 -0.16429689473E+03 -0.17611992128E+03  0.16020604444E+03  0.35111062782E+03  0.19900000000E+03 0.  0.
   -5000001    1    1    2    0    0  0.16429689473E+03  0.17611992128E+03  0.16617642784E+03  0.35387469740E+03  0.19900000000E+03 0.  0.
<mgrwt>
<rscale>  0 0.62488302E+03</rscale>
<asrwt>0</asrwt>
<pdfrwt beam="1">  1        2 0.73669128E-01 0.62488302E+03</pdfrwt>
<pdfrwt beam="2">  1       -2 0.27043061E-01 0.62488302E+03</pdfrwt>
<totfact> 0.80753108E+02</totfact>
</mgrwt>
</event>
<event>
 4    1  0.1760335E-005  0.5696747E+03  0.7818608E-02  0.9970399E-01
         -2   -1    0    0    0  501 -0.00000000000E+00  0.00000000000E+00  0.32123711378E+02  0.32123711479E+02  0.25500000000E-02 0. -1.
          2   -1    0    0  501    0  0.00000000000E+00 -0.00000000000E+00 -0.25256205611E+04  0.25256205611E+04  0.25500000000E-02 0.  1.
    5000001    1    1    2    0    0  0.19034815024E+03  0.71765140351E+02 -0.11920069869E+04  0.12255057366E+04  0.19900000000E+03 0.  0.
   -5000001    1    1    2    0    0 -0.19034815024E+03 -0.71765140351E+02 -0.13014898628E+04  0.13322385359E+04  0.19900000000E+03 0.  0.
<mgrwt>
<rscale>  0 0.56967467E+03</rscale>
<asrwt>0</asrwt>
<pdfrwt beam="1">  1        2 0.36080281E+00 0.56967467E+03</pdfrwt>
<pdfrwt beam="2">  1       -2 0.45891032E-02 0.56967467E+03</pdfrwt>
<totfact> 0.10544852E+03</totfact>
</mgrwt>
</event>
<event>
 4    1  0.1760335E-005  0.4426164E+03  0.7818608E-02  0.1029947E+00
          2   -1    0    0  501    0  0.00000000000E+00  0.00000000000E+00  0.22123991690E+03  0.22123991691E+03  0.25500000000E-02 0.  1.
         -2   -1    0    0    0  501 -0.00000000000E+00 -0.00000000000E+00 -0.22137653165E+03  0.22137653166E+03  0.25500000000E-02 0. -1.
    5000001    1    1    2    0    0  0.65982560286E+02 -0.32730434346E+02  0.62791427384E+02  0.22128882246E+03  0.19900000000E+03 0.  0.
   -5000001    1    1    2    0    0 -0.65982560286E+02  0.32730434346E+02 -0.62928042131E+02  0.22132762611E+03  0.19900000000E+03 0.  0.
<mgrwt>
<rscale>  0 0.44261643E+03</rscale>
<asrwt>0</asrwt>
<pdfrwt beam="1">  1        2 0.31605703E-01 0.44261643E+03</pdfrwt>
<pdfrwt beam="2">  1       -2 0.31625219E-01 0.44261643E+03</pdfrwt>
<totfact> 0.15490458E+03</totfact>
</mgrwt>
</event>
<event>
 4    1  0.1760335E-005  0.6154098E+03  0.7818608E-02  0.9873942E-01
         -2   -1    0    0    0  501 -0.00000000000E+00  0.00000000000E+00  0.26813309571E+03  0.26813309573E+03  0.25500000000E-02 0. -1.
          2   -1    0    0  501    0  0.00000000000E+00 -0.00000000000E+00 -0.35311676603E+03  0.35311676604E+03  0.25500000000E-02 0.  1.
    5000001    1    1    2    0    0  0.16228019604E+03  0.10609555118E+03 -0.17599724528E+03  0.32888775951E+03  0.19900000000E+03 0.  0.
   -5000001    1    1    2    0    0 -0.16228019604E+03 -0.10609555118E+03  0.91013574965E+02  0.29236210226E+03  0.19900000000E+03 0.  0.
<mgrwt>
<rscale>  0 0.61540975E+03</rscale>
<asrwt>0</asrwt>
<pdfrwt beam="1">  1        2 0.50445252E-01 0.61540975E+03</pdfrwt>
<pdfrwt beam="2">  1       -2 0.38304728E-01 0.61540975E+03</pdfrwt>
<totfact> 0.64373895E+02</totfact>
</mgrwt>
</event>
<event>
 4    1  0.1760335E-005  0.6125747E+03  0.7818608E-02  0.9879656E-01
          2   -1    0    0  501    0  0.00000000000E+00  0.00000000000E+00  0.37865352660E+03  0.37865352661E+03  0.25500000000E-02 0.  1.
         -2   -1    0    0    0  501 -0.00000000000E+00 -0.00000000000E+00 -0.24775136211E+03  0.24775136212E+03  0.25500000000E-02 0. -1.
    5000001    1    1    2    0    0  0.20316065854E+03  0.11104931976E+03  0.90597384940E+02  0.31845736097E+03  0.19900000000E+03 0.  0.
   -5000001    1    1    2    0    0 -0.20316065854E+03 -0.11104931976E+03  0.40304779553E+02  0.30794752776E+03  0.19900000000E+03 0.  0.
<mgrwt>
<rscale>  0 0.61257466E+03</rscale>
<asrwt>0</asrwt>
<pdfrwt beam="1">  1        2 0.54093361E-01 0.61257466E+03</pdfrwt>
<pdfrwt beam="2">  1       -2 0.35393052E-01 0.61257466E+03</pdfrwt>
<totfact> 0.69312989E+02</totfact>
</mgrwt>
</event>
<event>
 4    1  0.1760335E-005  0.4926771E+03  0.7818608E-02  0.1015708E+00
          2   -1    0    0  501    0  0.00000000000E+00  0.00000000000E+00  0.26375006484E+04  0.26375006484E+04  0.25500000000E-02 0.  1.
         -2   -1    0    0    0  501 -0.00000000000E+00 -0.00000000000E+00 -0.23007649925E+02  0.23007650067E+02  0.25500000000E-02 0. -1.
    5000001    1    1    2    0    0  0.11808690568E+03 -0.64238397786E+02  0.10109483559E+04  0.10390806838E+04  0.19900000000E+03 0.  0.
   -5000001    1    1    2    0    0 -0.11808690568E+03  0.64238397786E+02  0.16035446426E+04  0.16214276147E+04  0.19900000000E+03 0.  0.
<mgrwt>
<rscale>  0 0.49267714E+03</rscale>
<asrwt>0</asrwt>
<pdfrwt beam="1">  1        2 0.37678549E+00 0.49267714E+03</pdfrwt>
<pdfrwt beam="2">  1       -2 0.32868099E-02 0.49267714E+03</pdfrwt>
<totfact> 0.15476241E+03</totfact>
</mgrwt>
</event>
<event>
 4    1  0.1760335E-005  0.4838740E+03  0.7818608E-02  0.1018076E+00
         -2   -1    0    0    0  501 -0.00000000000E+00  0.00000000000E+00  0.77388470281E+02  0.77388470323E+02  0.25500000000E-02 0. -1.
          2   -1    0    0  501    0  0.00000000000E+00 -0.00000000000E+00 -0.75635967052E+03  0.75635967052E+03  0.25500000000E-02 0.  1.
    5000001    1    1    2    0    0 -0.44567098578E+02 -0.71608635978E+02 -0.52680538718E+03  0.56941982665E+03  0.19900000000E+03 0.  0.
   -5000001    1    1    2    0    0  0.44567098578E+02  0.71608635978E+02 -0.15216581306E+03  0.26432831420E+03  0.19900000000E+03 0.  0.
<mgrwt>
<rscale>  0 0.48387402E+03</rscale>
<asrwt>0</asrwt>
<pdfrwt beam="1">  1        2 0.10805138E+00 0.48387402E+03</pdfrwt>
<pdfrwt beam="2">  1       -2 0.11055496E-01 0.48387402E+03</pdfrwt>
<totfact> 0.23719813E+03</totfact>
</mgrwt>
</event>
<event>
 4    1  0.1760335E-005  0.5099698E+03  0.7818608E-02  0.1011209E+00
         -2   -1    0    0    0  501 -0.00000000000E+00  0.00000000000E+00  0.43465429003E+03  0.43465429004E+03  0.25500000000E-02 0. -1.
          2   -1    0    0  501    0  0.00000000000E+00 -0.00000000000E+00 -0.14958393292E+03  0.14958393294E+03  0.25500000000E-02 0.  1.
    5000001    1    1    2    0    0  0.38816375174E+02  0.10462063045E+03  0.12093349389E+02  0.22847195976E+03  0.19900000000E+03 0.  0.
   -5000001    1    1    2    0    0 -0.38816375174E+02 -0.10462063045E+03  0.27297700773E+03  0.35576626322E+03  0.19900000000E+03 0.  0.
<mgrwt>
<rscale>  0 0.50996980E+03</rscale>
<asrwt>0</asrwt>
<pdfrwt beam="1">  1        2 0.21369133E-01 0.50996980E+03</pdfrwt>
<pdfrwt beam="2">  1       -2 0.62093470E-01 0.50996980E+03</pdfrwt>
<totfact> 0.63728093E+02</totfact>
</mgrwt>
</event>
<event>
 4    1  0.1760335E-005  0.7103200E+03  0.7818608E-02  0.9699745E-01
         -2   -1    0    0    0  501 -0.00000000000E+00  0.00000000000E+00  0.31463252910E+02  0.31463253013E+02  0.25500000000E-02 0. -1.
          2   -1    0    0  501    0  0.00000000000E+00 -0.00000000000E+00 -0.40090779615E+04  0.40090779615E+04  0.25500000000E-02 0.  1.
    5000001    1    1    2    0    0 -0.21762002357E+03  0.13813118104E+03 -0.27952472774E+04  0.28141512112E+04  0.19900000000E+03 0.  0.
   -5000001    1    1    2    0    0  0.21762002357E+03 -0.13813118104E+03 -0.11823674313E+04  0.12263900034E+04  0.19900000000E+03 0.  0.
<mgrwt>
<rscale>  0 0.71032002E+03</rscale>
<asrwt>0</asrwt>
<pdfrwt beam="1">  1        2 0.57272510E+00 0.71032002E+03</pdfrwt>
<pdfrwt beam="2">  1       -2 0.44947530E-02 0.71032002E+03</pdfrwt>
<totfact> 0.14953366E+02</totfact>
</mgrwt>
</event>
<event>
 4    1  0.1760335E-005  0.5627486E+03  0.7818608E-02  0.9985855E-01
         -2   -1    0    0    0  501 -0.00000000000E+00  0.00000000000E+00  0.12297367435E+03  0.12297367437E+03  0.25500000000E-02 0. -1.
          2   -1    0    0  501    0  0.00000000000E+00 -0.00000000000E+00 -0.64380848380E+03  0.64380848381E+03  0.25500000000E-02 0.  1.
    5000001    1    1    2    0    0  0.16930458673E+03  0.56585643338E+02 -0.14081765197E+03  0.30215325454E+03  0.19900000000E+03 0.  0.
   -5000001    1    1    2    0    0 -0.16930458673E+03 -0.56585643338E+02 -0.38001715748E+03  0.46462890364E+03  0.19900000000E+03 0.  0.
<mgrwt>
<rscale>  0 0.56274859E+03</rscale>
<asrwt>0</asrwt>
<pdfrwt beam="1">  1        2 0.91972639E-01 0.56274859E+03</pdfrwt>
<pdfrwt beam="2">  1       -2 0.17567668E-01 0.56274859E+03</pdfrwt>
<totfact> 0.13338643E+03</totfact>
</mgrwt>
</event>
<event>
 4    1  0.1760335E-005  0.5368279E+03  0.7818608E-02  0.1004590E+00
         -2   -1    0    0    0  501 -0.00000000000E+00  0.00000000000E+00  0.19611052762E+03  0.19611052763E+03  0.25500000000E-02 0. -1.
          2   -1    0    0  501    0  0.00000000000E+00 -0.00000000000E+00 -0.36737469619E+03  0.36737469620E+03  0.25500000000E-02 0.  1.
    5000001    1    1    2    0    0 -0.17076287402E+02  0.13699765841E+03 -0.20707105283E+03  0.31865244220E+03  0.19900000000E+03 0.  0.
   -5000001    1    1    2    0    0  0.17076287402E+02 -0.13699765841E+03  0.35806884253E+02  0.24483278163E+03  0.19900000000E+03 0.  0.
<mgrwt>
<rscale>  0 0.53682789E+03</rscale>
<asrwt>0</asrwt>
<pdfrwt beam="1">  1        2 0.52482099E-01 0.53682789E+03</pdfrwt>
<pdfrwt beam="2">  1       -2 0.28015790E-01 0.53682789E+03</pdfrwt>
<totfact> 0.11079382E+03</totfact>
</mgrwt>
</event>
<event>
 4    1  0.1760335E-005  0.8046555E+03  0.7818608E-02  0.9553303E-01
         -2   -1    0    0    0  501 -0.00000000000E+00  0.00000000000E+00  0.95641177243E+02  0.95641177277E+02  0.25500000000E-02 0.  1.
          2   -1    0    0  501    0  0.00000000000E+00 -0.00000000000E+00 -0.16924471389E+04  0.16924471389E+04  0.25500000000E-02 0. -1.
    5000001    1    1    2    0    0  0.21198470816E+03 -0.20055504826E+03 -0.37034197560E+03  0.51177536358E+03  0.19900000000E+03 0.  0.
   -5000001    1    1    2    0    0 -0.21198470816E+03  0.20055504826E+03 -0.12264639861E+04  0.12763129526E+04  0.19900000000E+03 0.  0.
<mgrwt>
<rscale>  0 0.80465555E+03</rscale>
<asrwt>0</asrwt>
<pdfrwt beam="1">  1        2 0.24177814E+00 0.80465555E+03</pdfrwt>
<pdfrwt beam="2">  1       -2 0.13663026E-01 0.80465555E+03</pdfrwt>
<totfact> 0.47944982E+02</totfact>
</mgrwt>
</event>
<event>
 4    1  0.1760335E-005  0.1311452E+04  0.7818608E-02  0.9020532E-01
         -2   -1    0    0    0  501 -0.00000000000E+00  0.00000000000E+00  0.29301418707E+03  0.29301418708E+03  0.25500000000E-02 0. -1.
          2   -1    0    0  501    0  0.00000000000E+00 -0.00000000000E+00 -0.14674264610E+04  0.14674264610E+04  0.25500000000E-02 0.  1.
    5000001    1    1    2    0    0  0.39726727463E+03  0.43634975800E+03 -0.86280984692E+03  0.10640790529E+04  0.19900000000E+03 0.  0.
   -5000001    1    1    2    0    0 -0.39726727463E+03 -0.43634975800E+03 -0.31160242703E+03  0.69636159524E+03  0.19900000000E+03 0.  0.
<mgrwt>
<rscale>  0 0.13114523E+04</rscale>
<asrwt>0</asrwt>
<pdfrwt beam="1">  1        2 0.20963235E+00 0.13114523E+04</pdfrwt>
<pdfrwt beam="2">  1       -2 0.41859170E-01 0.13114523E+04</pdfrwt>
<totfact> 0.80602686E+01</totfact>
</mgrwt>
</event>
<event>
 4    1  0.1760335E-005  0.1012463E+04  0.7818608E-02  0.9294980E-01
         -2   -1    0    0    0  501 -0.00000000000E+00  0.00000000000E+00  0.38013734813E+03  0.38013734814E+03  0.25500000000E-02 0. -1.
          2   -1    0    0  501    0  0.00000000000E+00 -0.00000000000E+00 -0.67415195456E+03  0.67415195456E+03  0.25500000000E-02 0.  1.
    5000001    1    1    2    0    0 -0.29170693231E+03 -0.11125638971E+03  0.21250675717E+03  0.42688527786E+03  0.19900000000E+03 0.  0.
   -5000001    1    1    2    0    0  0.29170693231E+03  0.11125638971E+03 -0.50652136360E+03  0.62740402484E+03  0.19900000000E+03 0.  0.
<mgrwt>
<rscale>  0 0.10124630E+04</rscale>
<asrwt>0</asrwt>
<pdfrwt beam="1">  1        2 0.96307422E-01 0.10124630E+04</pdfrwt>
<pdfrwt beam="2">  1       -2 0.54305335E-01 0.10124630E+04</pdfrwt>
<totfact> 0.15017700E+02</totfact>
</mgrwt>
</event>
<event>
 4    1  0.1760335E-005  0.6360222E+03  0.7818608E-02  0.9833367E-01
         -2   -1    0    0    0  501 -0.00000000000E+00  0.00000000000E+00  0.71419246256E+02  0.71419246301E+02  0.25500000000E-02 0. -1.
          2   -1    0    0  501    0  0.00000000000E+00 -0.00000000000E+00 -0.14160197408E+04  0.14160197408E+04  0.25500000000E-02 0.  1.
    5000001    1    1    2    0    0 -0.49640625399E+02 -0.23328581789E+03 -0.51293479065E+03  0.59965787244E+03  0.19900000000E+03 0.  0.
   -5000001    1    1    2    0    0  0.49640625399E+02  0.23328581789E+03 -0.83166570390E+03  0.88778111467E+03  0.19900000000E+03 0.  0.
<mgrwt>
<rscale>  0 0.63602221E+03</rscale>
<asrwt>0</asrwt>
<pdfrwt beam="1">  1        2 0.20228852E+00 0.63602221E+03</pdfrwt>
<pdfrwt beam="2">  1       -2 0.10202750E-01 0.63602221E+03</pdfrwt>
<totfact> 0.10902198E+03</totfact>
</mgrwt>
</event>
<event>
 4    1  0.1760335E-005  0.8479391E+03  0.7818608E-02  0.9493107E-01
         -2   -1    0    0    0  501 -0.00000000000E+00  0.00000000000E+00  0.88712297694E+02  0.88712297731E+02  0.25500000000E-02 0.  1.
          2   -1    0    0  501    0  0.00000000000E+00 -0.00000000000E+00 -0.20262146759E+04  0.20262146759E+04  0.25500000000E-02 0. -1.
    5000001    1    1    2    0    0  0.49200854478E+01  0.22332347226E+03 -0.17180553476E+04  0.17439073249E+04  0.19900000000E+03 0.  0.
   -5000001    1    1    2    0    0 -0.49200854478E+01 -0.22332347226E+03 -0.21944703066E+03  0.37101964876E+03  0.19900000000E+03 0.  0.
<mgrwt>
<rscale>  0 0.84793905E+03</rscale>
<asrwt>0</asrwt>
<pdfrwt beam="1">  1        2 0.28945921E+00 0.84793905E+03</pdfrwt>
<pdfrwt beam="2">  1       -2 0.12673187E-01 0.84793905E+03</pdfrwt>
<totfact> 0.36648349E+02</totfact>
</mgrwt>
</event>
<event>
 4    1  0.1760335E-005  0.4959479E+03  0.7818608E-02  0.1014842E+00
         -2   -1    0    0    0  501 -0.00000000000E+00  0.00000000000E+00  0.62440112770E+02  0.62440112822E+02  0.25500000000E-02 0. -1.
          2   -1    0    0  501    0  0.00000000000E+00 -0.00000000000E+00 -0.98480077463E+03  0.98480077463E+03  0.25500000000E-02 0.  1.
    5000001    1    1    2    0    0  0.27600736946E+02 -0.10336219733E+03 -0.24537858637E+03  0.33355238744E+03  0.19900000000E+03 0.  0.
   -5000001    1    1    2    0    0 -0.27600736946E+02  0.10336219733E+03 -0.67698207549E+03  0.71368850002E+03  0.19900000000E+03 0.  0.
<mgrwt>
<rscale>  0 0.49594787E+03</rscale>
<asrwt>0</asrwt>
<pdfrwt beam="1">  1        2 0.14068582E+00 0.49594787E+03</pdfrwt>
<pdfrwt beam="2">  1       -2 0.89200167E-02 0.49594787E+03</pdfrwt>
<totfact> 0.23744199E+03</totfact>
</mgrwt>
</event>
<event>
 4    1  0.1760335E-005  0.4951506E+03  0.7818608E-02  0.1015052E+00
          2   -1    0    0  501    0  0.00000000000E+00  0.00000000000E+00  0.37962249428E+04  0.37962249428E+04  0.25500000000E-02 0.  1.
         -2   -1    0    0    0  501 -0.00000000000E+00 -0.00000000000E+00 -0.16145917954E+02  0.16145918155E+02  0.25500000000E-02 0. -1.
    5000001    1    1    2    0    0  0.11801578746E+03  0.62084298215E+02  0.23715055499E+04  0.23835733173E+04  0.19900000000E+03 0.  0.
   -5000001    1    1    2    0    0 -0.11801578746E+03 -0.62084298215E+02  0.14085734750E+04  0.14287975436E+04  0.19900000000E+03 0.  0.
<mgrwt>
<rscale>  0 0.49515063E+03</rscale>
<asrwt>0</asrwt>
<pdfrwt beam="1">  1        2 0.54231793E+00 0.49515063E+03</pdfrwt>
<pdfrwt beam="2">  1       -2 0.23065594E-02 0.49515063E+03</pdfrwt>
<totfact> 0.58585288E+02</totfact>
</mgrwt>
</event>
<event>
 4    1  0.1760335E-005  0.5471516E+03  0.7818608E-02  0.1002155E+00
          2   -1    0    0  501    0  0.00000000000E+00  0.00000000000E+00  0.22126638440E+04  0.22126638440E+04  0.25500000000E-02 0.  1.
         -2   -1    0    0    0  501 -0.00000000000E+00 -0.00000000000E+00 -0.33825158565E+02  0.33825158661E+02  0.25500000000E-02 0. -1.
    5000001    1    1    2    0    0 -0.18753330680E+03 -0.10627798143E+01  0.10543791735E+04  0.10892595247E+04  0.19900000000E+03 0.  0.
   -5000001    1    1    2    0    0  0.18753330680E+03  0.10627798143E+01  0.11244595120E+04  0.11572294780E+04  0.19900000000E+03 0.  0.
<mgrwt>
<rscale>  0 0.54715155E+03</rscale>
<asrwt>0</asrwt>
<pdfrwt beam="1">  1        2 0.31609489E+00 0.54715155E+03</pdfrwt>
<pdfrwt beam="2">  1       -2 0.48321646E-02 0.54715155E+03</pdfrwt>
<totfact> 0.14054486E+03</totfact>
</mgrwt>
</event>
<event>
 4    1  0.1760335E-005  0.4570004E+03  0.7818608E-02  0.1025655E+00
         -2   -1    0    0    0  501 -0.00000000000E+00  0.00000000000E+00  0.87481159093E+02  0.87481159130E+02  0.25500000000E-02 0. -1.
          2   -1    0    0  501    0  0.00000000000E+00 -0.00000000000E+00 -0.59684110475E+03  0.59684110476E+03  0.25500000000E-02 0.  1.
    5000001    1    1    2    0    0  0.77234961632E+02  0.49952104459E+02 -0.35115505610E+03  0.41397019876E+03  0.19900000000E+03 0.  0.
   -5000001    1    1    2    0    0 -0.77234961632E+02 -0.49952104459E+02 -0.15820488956E+03  0.27035206513E+03  0.19900000000E+03 0.  0.
<mgrwt>
<rscale>  0 0.45700044E+03</rscale>
<asrwt>0</asrwt>
<pdfrwt beam="1">  1        2 0.85263013E-01 0.45700044E+03</pdfrwt>
<pdfrwt beam="2">  1       -2 0.12497309E-01 0.45700044E+03</pdfrwt>
<totfact> 0.25790404E+03</totfact>
</mgrwt>
</event>
<event>
 4    1  0.1760335E-005  0.7010375E+03  0.7818608E-02  0.9715460E-01
         -2   -1    0    0    0  501 -0.00000000000E+00  0.00000000000E+00  0.41953520572E+02  0.41953520649E+02  0.25500000000E-02 0. -1.
          2   -1    0    0  501    0  0.00000000000E+00 -0.00000000000E+00 -0.29285599255E+04  0.29285599255E+04  0.25500000000E-02 0.  1.
    5000001    1    1    2    0    0  0.13337953281E+03  0.25567678198E+03 -0.14005751063E+04  0.14437355523E+04  0.19900000000E+03 0.  0.
   -5000001    1    1    2    0    0 -0.13337953281E+03 -0.25567678198E+03 -0.14860312987E+04  0.15267778939E+04  0.19900000000E+03 0.  0.
<mgrwt>
<rscale>  0 0.70103751E+03</rscale>
<asrwt>0</asrwt>
<pdfrwt beam="1">  1        2 0.41836557E+00 0.70103751E+03</pdfrwt>
<pdfrwt beam="2">  1       -2 0.59933619E-02 0.70103751E+03</pdfrwt>
<totfact> 0.42233115E+02</totfact>
</mgrwt>
</event>
<event>
 4    1  0.1760335E-005  0.4503754E+03  0.7818608E-02  0.1027610E+00
         -2   -1    0    0    0  501 -0.00000000000E+00  0.00000000000E+00  0.17924601940E+02  0.17924602122E+02  0.25500000000E-02 0. -1.
          2   -1    0    0  501    0  0.00000000000E+00 -0.00000000000E+00 -0.28290443734E+04  0.28290443734E+04  0.25500000000E-02 0.  1.
    5000001    1    1    2    0    0 -0.47833380624E+01  0.46391967106E+02 -0.20030304013E+04  0.20134316188E+04  0.19900000000E+03 0.  0.
   -5000001    1    1    2    0    0  0.47833380624E+01 -0.46391967106E+02 -0.80808937014E+03  0.83353735673E+03  0.19900000000E+03 0.  0.
<mgrwt>
<rscale>  0 0.45037537E+03</rscale>
<asrwt>0</asrwt>
<pdfrwt beam="1">  1        2 0.40414891E+00 0.45037537E+03</pdfrwt>
<pdfrwt beam="2">  1       -2 0.25606592E-02 0.45037537E+03</pdfrwt>
<totfact> 0.17985371E+03</totfact>
</mgrwt>
</event>
<event>
 4    1  0.1760335E-005  0.4590618E+03  0.7818608E-02  0.1025054E+00
          2   -1    0    0  501    0  0.00000000000E+00  0.00000000000E+00  0.14859942059E+04  0.14859942059E+04  0.25500000000E-02 0.  1.
         -2   -1    0    0    0  501 -0.00000000000E+00 -0.00000000000E+00 -0.35453992787E+02  0.35453992879E+02  0.25500000000E-02 0. -1.
    5000001    1    1    2    0    0  0.86299881324E+01  0.78071150290E+02  0.44969123712E+03  0.49798874480E+03  0.19900000000E+03 0.  0.
   -5000001    1    1    2    0    0 -0.86299881324E+01 -0.78071150290E+02  0.10008489760E+04  0.10234594540E+04  0.19900000000E+03 0.  0.
<mgrwt>
<rscale>  0 0.45906177E+03</rscale>
<asrwt>0</asrwt>
<pdfrwt beam="1">  1        2 0.21228485E+00 0.45906177E+03</pdfrwt>
<pdfrwt beam="2">  1       -2 0.50648570E-02 0.45906177E+03</pdfrwt>
<totfact> 0.30452398E+03</totfact>
</mgrwt>
</event>
<event>
 4    1  0.1760335E-005  0.7299074E+03  0.7818608E-02  0.9667411E-01
          2   -1    0    0  501    0  0.00000000000E+00  0.00000000000E+00  0.10782782061E+04  0.10782782061E+04  0.25500000000E-02 0.  1.
         -2   -1    0    0    0  501 -0.00000000000E+00 -0.00000000000E+00 -0.12352210969E+03  0.12352210972E+03  0.25500000000E-02 0. -1.
    5000001    1    1    2    0    0 -0.92956240347E+02 -0.28134030509E+03  0.35201629921E+03  0.50130799395E+03  0.19900000000E+03 0.  0.
   -5000001    1    1    2    0    0  0.92956240347E+02  0.28134030509E+03  0.60273979722E+03  0.70049232190E+03  0.19900000000E+03 0.  0.
<mgrwt>
<rscale>  0 0.72990739E+03</rscale>
<asrwt>0</asrwt>
<pdfrwt beam="1">  1        2 0.15403974E+00 0.72990739E+03</pdfrwt>
<pdfrwt beam="2">  1       -2 0.17646016E-01 0.72990739E+03</pdfrwt>
<totfact> 0.67094870E+02</totfact>
</mgrwt>
</event>
<event>
 4    1  0.1760335E-005  0.9962619E+03  0.7818608E-02  0.9312654E-01
         -2   -1    0    0    0  501 -0.00000000000E+00  0.00000000000E+00  0.19767332525E+03  0.19767332527E+03  0.25500000000E-02 0. -1.
          2   -1    0    0  501    0  0.00000000000E+00 -0.00000000000E+00 -0.12552752198E+04  0.12552752198E+04  0.25500000000E-02 0.  1.
    5000001    1    1    2    0    0  0.15157419402E+03 -0.19333379128E+03 -0.10902011954E+04  0.11351177638E+04  0.19900000000E+03 0.  0.
   -5000001    1    1    2    0    0 -0.15157419402E+03  0.19333379128E+03  0.32599300843E+02  0.31783078133E+03  0.19900000000E+03 0.  0.
<mgrwt>
<rscale>  0 0.99626187E+03</rscale>
<asrwt>0</asrwt>
<pdfrwt beam="1">  1        2 0.17932503E+00 0.99626187E+03</pdfrwt>
<pdfrwt beam="2">  1       -2 0.28239047E-01 0.99626187E+03</pdfrwt>
<totfact> 0.22718911E+02</totfact>
</mgrwt>
</event>
<event>
 4    1  0.1760335E-005  0.4809934E+03  0.7818608E-02  0.1018863E+00
          2   -1    0    0  501    0  0.00000000000E+00  0.00000000000E+00  0.58956417015E+03  0.58956417015E+03  0.25500000000E-02 0.  1.
         -2   -1    0    0    0  501 -0.00000000000E+00 -0.00000000000E+00 -0.98104105901E+02  0.98104105934E+02  0.25500000000E-02 0. -1.
    5000001    1    1    2    0    0 -0.12178869089E+03 -0.37442440004E+02  0.18174081248E+03  0.29810257373E+03  0.19900000000E+03 0.  0.
   -5000001    1    1    2    0    0  0.12178869089E+03  0.37442440004E+02  0.30971925176E+03  0.38956570236E+03  0.19900000000E+03 0.  0.
<mgrwt>
<rscale>  0 0.48099341E+03</rscale>
<asrwt>0</asrwt>
<pdfrwt beam="1">  1        2 0.84223453E-01 0.48099341E+03</pdfrwt>
<pdfrwt beam="2">  1       -2 0.14014872E-01 0.48099341E+03</pdfrwt>
<totfact> 0.21655851E+03</totfact>
</mgrwt>
</event>
<event>
 4    1  0.1760335E-005  0.8970483E+03  0.7818608E-02  0.9429279E-01
          2   -1    0    0  501    0  0.00000000000E+00  0.00000000000E+00  0.13641518163E+04  0.13641518163E+04  0.25500000000E-02 0.  1.
         -2   -1    0    0    0  501 -0.00000000000E+00 -0.00000000000E+00 -0.14747179016E+03  0.14747179018E+03  0.25500000000E-02 0. -1.
    5000001    1    1    2    0    0 -0.35795628863E+03  0.32697140211E+02  0.30515579637E+03  0.51178400483E+03  0.19900000000E+03 0.  0.
   -5000001    1    1    2    0    0  0.35795628863E+03 -0.32697140211E+02  0.91152422978E+03  0.99983960165E+03  0.19900000000E+03 0.  0.
<mgrwt>
<rscale>  0 0.89704829E+03</rscale>
<asrwt>0</asrwt>
<pdfrwt beam="1">  1        2 0.19487884E+00 0.89704829E+03</pdfrwt>
<pdfrwt beam="2">  1       -2 0.21067397E-01 0.89704829E+03</pdfrwt>
<totfact> 0.33737407E+02</totfact>
</mgrwt>
</event>
<event>
 4    1  0.1760335E-005  0.9681745E+03  0.7818608E-02  0.9344156E-01
         -2   -1    0    0    0  501 -0.00000000000E+00  0.00000000000E+00  0.16274341994E+03  0.16274341996E+03  0.25500000000E-02 0. -1.
          2   -1    0    0  501    0  0.00000000000E+00 -0.00000000000E+00 -0.14399382930E+04  0.14399382930E+04  0.25500000000E-02 0.  1.
    5000001    1    1    2    0    0  0.12122388025E+03  0.85114564361E+02 -0.13267190497E+04  0.13497126195E+04  0.19900000000E+03 0.  0.
   -5000001    1    1    2    0    0 -0.12122388025E+03 -0.85114564361E+02  0.49524176639E+02  0.25296909353E+03  0.19900000000E+03 0.  0.
<mgrwt>
<rscale>  0 0.96817453E+03</rscale>
<asrwt>0</asrwt>
<pdfrwt beam="1">  1        2 0.20570546E+00 0.96817453E+03</pdfrwt>
<pdfrwt beam="2">  1       -2 0.23249061E-01 0.96817453E+03</pdfrwt>
<totfact> 0.25676652E+02</totfact>
</mgrwt>
</event>
<event>
 4    1  0.1760335E-005  0.5152249E+03  0.7818608E-02  0.1009880E+00
         -2   -1    0    0    0  501 -0.00000000000E+00  0.00000000000E+00  0.43036706291E+02  0.43036706367E+02  0.25500000000E-02 0. -1.
          2   -1    0    0  501    0  0.00000000000E+00 -0.00000000000E+00 -0.15420363496E+04  0.15420363496E+04  0.25500000000E-02 0.  1.
    5000001    1    1    2    0    0 -0.42764359542E+00 -0.11816995306E+03 -0.40145285253E+03  0.46338937568E+03  0.19900000000E+03 0.  0.
   -5000001    1    1    2    0    0  0.42764359542E+00  0.11816995306E+03 -0.10975467908E+04  0.11216836803E+04  0.19900000000E+03 0.  0.
<mgrwt>
<rscale>  0 0.51522487E+03</rscale>
<asrwt>0</asrwt>
<pdfrwt beam="1">  1        2 0.22029087E+00 0.51522487E+03</pdfrwt>
<pdfrwt beam="2">  1       -2 0.61481019E-02 0.51522487E+03</pdfrwt>
<totfact> 0.21067482E+03</totfact>
</mgrwt>
</event>
<event>
 4    1  0.1760335E-005  0.5904734E+03  0.7818608E-02  0.9925370E-01
         -2   -1    0    0    0  501 -0.00000000000E+00  0.00000000000E+00  0.24790822926E+03  0.24790822927E+03  0.25500000000E-02 0. -1.
          2   -1    0    0  501    0  0.00000000000E+00 -0.00000000000E+00 -0.35160071101E+03  0.35160071102E+03  0.25500000000E-02 0.  1.
    5000001    1    1    2    0    0 -0.40580495927E+02 -0.11679858037E+03  0.13055534740E+03  0.26820586079E+03  0.19900000000E+03 0.  0.
   -5000001    1    1    2    0    0  0.40580495927E+02  0.11679858037E+03 -0.23424782916E+03  0.33130307951E+03  0.19900000000E+03 0.  0.
<mgrwt>
<rscale>  0 0.59047340E+03</rscale>
<asrwt>0</asrwt>
<pdfrwt beam="1">  1        2 0.50228673E-01 0.59047340E+03</pdfrwt>
<pdfrwt beam="2">  1       -2 0.35415461E-01 0.59047340E+03</pdfrwt>
<totfact> 0.75174609E+02</totfact>
</mgrwt>
</event>
<event>
 4    1  0.1760335E-005  0.5817381E+03  0.7818608E-02  0.9944035E-01
          2   -1    0    0  501    0  0.00000000000E+00  0.00000000000E+00  0.11667894667E+04  0.11667894667E+04  0.25500000000E-02 0.  1.
         -2   -1    0    0    0  501 -0.00000000000E+00 -0.00000000000E+00 -0.72510768790E+02  0.72510768835E+02  0.25500000000E-02 0. -1.
    5000001    1    1    2    0    0 -0.17928955099E+03 -0.76463322288E+02  0.72553445910E+03  0.77716963019E+03  0.19900000000E+03 0.  0.
   -5000001    1    1    2    0    0  0.17928955099E+03  0.76463322288E+02  0.36874423885E+03  0.46213060539E+03  0.19900000000E+03 0.  0.
<mgrwt>
<rscale>  0 0.58173809E+03</rscale>
<asrwt>0</asrwt>
<pdfrwt beam="1">  1        2 0.16668421E+00 0.58173809E+03</pdfrwt>
<pdfrwt beam="2">  1       -2 0.10358681E-01 0.58173809E+03</pdfrwt>
<totfact> 0.14578261E+03</totfact>
</mgrwt>
</event>
<event>
 4    1  0.1760335E-005  0.8254590E+03  0.7818608E-02  0.9523880E-01
         -2   -1    0    0    0  501 -0.00000000000E+00  0.00000000000E+00  0.20553752758E+03  0.20553752760E+03  0.25500000000E-02 0. -1.
          2   -1    0    0  501    0  0.00000000000E+00 -0.00000000000E+00 -0.82878127588E+03  0.82878127588E+03  0.25500000000E-02 0.  1.
    5000001    1    1    2    0    0  0.21319294747E+03  0.27349457002E+03 -0.18326109148E+03  0.43981375642E+03  0.19900000000E+03 0.  0.
   -5000001    1    1    2    0    0 -0.21319294747E+03 -0.27349457002E+03 -0.43998265681E+03  0.59450504706E+03  0.19900000000E+03 0.  0.
<mgrwt>
<rscale>  0 0.82545903E+03</rscale>
<asrwt>0</asrwt>
<pdfrwt beam="1">  1        2 0.11839732E+00 0.82545903E+03</pdfrwt>
<pdfrwt beam="2">  1       -2 0.29362504E-01 0.82545903E+03</pdfrwt>
<totfact> 0.38812494E+02</totfact>
</mgrwt>
</event>
<event>
 4    1  0.1760335E-005  0.5715540E+03  0.7818608E-02  0.9966246E-01
          2   -1    0    0  501    0  0.00000000000E+00  0.00000000000E+00  0.22675999799E+04  0.22675999799E+04  0.25500000000E-02 0. -1.
         -2   -1    0    0    0  501 -0.00000000000E+00 -0.00000000000E+00 -0.36015387527E+02  0.36015387617E+02  0.25500000000E-02 0.  1.
    5000001    1    1    2    0    0 -0.14896901497E+03 -0.55119125672E+02  0.16387816921E+04  0.16584439453E+04  0.19900000000E+03 0.  0.
   -5000001    1    1    2    0    0  0.14896901497E+03  0.55119125672E+02  0.59280290025E+03  0.64517142217E+03  0.19900000000E+03 0.  0.
<mgrwt>
<rscale>  0 0.57155399E+03</rscale>
<asrwt>0</asrwt>
<pdfrwt beam="1">  1        2 0.32394292E+00 0.57155399E+03</pdfrwt>
<pdfrwt beam="2">  1       -2 0.51450543E-02 0.57155399E+03</pdfrwt>
<totfact> 0.11948594E+03</totfact>
</mgrwt>
</event>
<event>
 4    1  0.1760335E-005  0.5898545E+03  0.7818608E-02  0.9926681E-01
          2   -1    0    0  501    0  0.00000000000E+00  0.00000000000E+00  0.11785541660E+04  0.11785541660E+04  0.25500000000E-02 0.  1.
         -2   -1    0    0    0  501 -0.00000000000E+00 -0.00000000000E+00 -0.73804057495E+02  0.73804057539E+02  0.25500000000E-02 0. -1.
    5000001    1    1    2    0    0  0.13069873007E+03 -0.17374320322E+03  0.57486665053E+03  0.64601975558E+03  0.19900000000E+03 0.  0.
   -5000001    1    1    2    0    0 -0.13069873007E+03  0.17374320322E+03  0.52988345802E+03  0.60633846801E+03  0.19900000000E+03 0.  0.
<mgrwt>
<rscale>  0 0.58985449E+03</rscale>
<asrwt>0</asrwt>
<pdfrwt beam="1">  1        2 0.16836487E+00 0.58985449E+03</pdfrwt>
<pdfrwt beam="2">  1       -2 0.10543437E-01 0.58985449E+03</pdfrwt>
<totfact> 0.13947344E+03</totfact>
</mgrwt>
</event>
<event>
 4    1  0.1760335E-005  0.6072891E+03  0.7818608E-02  0.9890398E-01
         -2   -1    0    0    0  501 -0.00000000000E+00  0.00000000000E+00  0.61803502732E+03  0.61803502732E+03  0.25500000000E-02 0. -1.
          2   -1    0    0  501    0  0.00000000000E+00 -0.00000000000E+00 -0.14918249158E+03  0.14918249160E+03  0.25500000000E-02 0.  1.
    5000001    1    1    2    0    0  0.12034245433E+03  0.19477273381E+03  0.21746344364E+03  0.37324264690E+03  0.19900000000E+03 0.  0.
   -5000001    1    1    2    0    0 -0.12034245433E+03 -0.19477273381E+03  0.25138909211E+03  0.39397487202E+03  0.19900000000E+03 0.  0.
<mgrwt>
<rscale>  0 0.60728908E+03</rscale>
<asrwt>0</asrwt>
<pdfrwt beam="1">  1        2 0.21311784E-01 0.60728908E+03</pdfrwt>
<pdfrwt beam="2">  1       -2 0.88290719E-01 0.60728908E+03</pdfrwt>
<totfact> 0.29445526E+02</totfact>
</mgrwt>
</event>
<event>
 4    1  0.1760335E-005  0.7990053E+03  0.7818608E-02  0.9561458E-01
          2   -1    0    0  501    0  0.00000000000E+00  0.00000000000E+00  0.16586779531E+04  0.16586779531E+04  0.25500000000E-02 0.  1.
         -2   -1    0    0    0  501 -0.00000000000E+00 -0.00000000000E+00 -0.96222645301E+02  0.96222645335E+02  0.25500000000E-02 0. -1.
    5000001    1    1    2    0    0  0.17863787238E+03  0.25821106454E+03  0.45980126834E+03  0.59127206061E+03  0.19900000000E+03 0.  0.
   -5000001    1    1    2    0    0 -0.17863787238E+03 -0.25821106454E+03  0.11026540395E+04  0.11636285379E+04  0.19900000000E+03 0.  0.
<mgrwt>
<rscale>  0 0.79900533E+03</rscale>
<asrwt>0</asrwt>
<pdfrwt beam="1">  1        2 0.23695398E+00 0.79900533E+03</pdfrwt>
<pdfrwt beam="2">  1       -2 0.13746093E-01 0.79900533E+03</pdfrwt>
<totfact> 0.49413954E+02</totfact>
</mgrwt>
</event>
<event>
 4    1  0.1760335E-005  0.4544267E+03  0.7818608E-02  0.1026410E+00
         -2   -1    0    0    0  501 -0.00000000000E+00  0.00000000000E+00  0.28598003508E+02  0.28598003622E+02  0.25500000000E-02 0. -1.
          2   -1    0    0  501    0  0.00000000000E+00 -0.00000000000E+00 -0.18052273741E+04  0.18052273741E+04  0.25500000000E-02 0.  1.
    5000001    1    1    2    0    0 -0.77185165775E+02 -0.68537987630E+02 -0.10376757991E+04  0.10616153115E+04  0.19900000000E+03 0.  0.
   -5000001    1    1    2    0    0  0.77185165775E+02  0.68537987630E+02 -0.73895357148E+03  0.77221006621E+03  0.19900000000E+03 0.  0.
<mgrwt>
<rscale>  0 0.45442667E+03</rscale>
<asrwt>0</asrwt>
<pdfrwt beam="1">  1        2 0.25788955E+00 0.45442667E+03</pdfrwt>
<pdfrwt beam="2">  1       -2 0.40854302E-02 0.45442667E+03</pdfrwt>
<totfact> 0.29179603E+03</totfact>
</mgrwt>
</event>
<event>
 4    1  0.1760335E-005  0.6244306E+03  0.7818608E-02  0.9855978E-01
         -2   -1    0    0    0  501 -0.00000000000E+00  0.00000000000E+00  0.19632498429E+03  0.19632498430E+03  0.25500000000E-02 0. -1.
          2   -1    0    0  501    0  0.00000000000E+00 -0.00000000000E+00 -0.49651550107E+03  0.49651550108E+03  0.25500000000E-02 0.  1.
    5000001    1    1    2    0    0 -0.50513728970E+02 -0.21762093975E+03 -0.51059183758E+02  0.30351037952E+03  0.19900000000E+03 0.  0.
   -5000001    1    1    2    0    0  0.50513728970E+02  0.21762093975E+03 -0.24913133303E+03  0.38933010586E+03  0.19900000000E+03 0.  0.
<mgrwt>
<rscale>  0 0.62443061E+03</rscale>
<asrwt>0</asrwt>
<pdfrwt beam="1">  1        2 0.70930785E-01 0.62443061E+03</pdfrwt>
<pdfrwt beam="2">  1       -2 0.28046426E-01 0.62443061E+03</pdfrwt>
<totfact> 0.78901800E+02</totfact>
</mgrwt>
</event>
<event>
 4    1  0.1760335E-005  0.8899023E+03  0.7818608E-02  0.9438293E-01
         -2   -1    0    0    0  501 -0.00000000000E+00  0.00000000000E+00  0.10496821491E+03  0.10496821495E+03  0.25500000000E-02 0. -1.
          2   -1    0    0  501    0  0.00000000000E+00 -0.00000000000E+00 -0.18861091280E+04  0.18861091281E+04  0.25500000000E-02 0.  1.
    5000001    1    1    2    0    0  0.19484085798E+03 -0.26066784222E+03 -0.14030784295E+04  0.14540085155E+04  0.19900000000E+03 0.  0.
   -5000001    1    1    2    0    0 -0.19484085798E+03  0.26066784222E+03 -0.37806248365E+03  0.53706882748E+03  0.19900000000E+03 0.  0.
<mgrwt>
<rscale>  0 0.88990226E+03</rscale>
<asrwt>0</asrwt>
<pdfrwt beam="1">  1        2 0.26944414E+00 0.88990226E+03</pdfrwt>
<pdfrwt beam="2">  1       -2 0.14995460E-01 0.88990226E+03</pdfrwt>
<totfact> 0.32459715E+02</totfact>
</mgrwt>
</event>
<event>
 4    1  0.1760335E-005  0.7760703E+03  0.7818608E-02  0.9595315E-01
          2   -1    0    0  501    0  0.00000000000E+00  0.00000000000E+00  0.88330920964E+02  0.88330921001E+02  0.25500000000E-02 0.  1.
         -2   -1    0    0    0  501 -0.00000000000E+00 -0.00000000000E+00 -0.17046270133E+04  0.17046270133E+04  0.25500000000E-02 0. -1.
    5000001    1    1    2    0    0  0.20654069789E+03 -0.25053887284E+03 -0.98012973702E+03  0.10515151393E+04  0.19900000000E+03 0.  0.
   -5000001    1    1    2    0    0 -0.20654069789E+03  0.25053887284E+03 -0.63616635527E+03  0.74144279501E+03  0.19900000000E+03 0.  0.
<mgrwt>
<rscale>  0 0.77607029E+03</rscale>
<asrwt>0</asrwt>
<pdfrwt beam="1">  1        2 0.12618704E-01 0.77607029E+03</pdfrwt>
<pdfrwt beam="2">  1       -2 0.24351812E+00 0.77607029E+03</pdfrwt>
<totfact> 0.35808764E+01</totfact>
</mgrwt>
</event>
<event>
 4    1  0.1760335E-005  0.7492321E+03  0.7818608E-02  0.9636556E-01
         -2   -1    0    0    0  501 -0.00000000000E+00  0.00000000000E+00  0.44082329408E+03  0.44082329408E+03  0.25500000000E-02 0. -1.
          2   -1    0    0  501    0  0.00000000000E+00 -0.00000000000E+00 -0.31835244730E+03  0.31835244731E+03  0.25500000000E-02 0.  1.
    5000001    1    1    2    0    0  0.28288186248E+03 -0.13026240428E+03 -0.77923232312E+00  0.36958361610E+03  0.19900000000E+03 0.  0.
   -5000001    1    1    2    0    0 -0.28288186248E+03  0.13026240428E+03  0.12325007910E+03  0.38959212529E+03  0.19900000000E+03 0.  0.
<mgrwt>
<rscale>  0 0.74923207E+03</rscale>
<asrwt>0</asrwt>
<pdfrwt beam="1">  1        2 0.45478921E-01 0.74923207E+03</pdfrwt>
<pdfrwt beam="2">  1       -2 0.62974756E-01 0.74923207E+03</pdfrwt>
<totfact> 0.26298209E+02</totfact>
</mgrwt>
</event>
<event>
 4    1  0.1760335E-005  0.8980108E+03  0.7818608E-02  0.9428071E-01
          2   -1    0    0  501    0  0.00000000000E+00  0.00000000000E+00  0.11972443369E+04  0.11972443369E+04  0.25500000000E-02 0.  1.
         -2   -1    0    0    0  501 -0.00000000000E+00 -0.00000000000E+00 -0.16839158318E+03  0.16839158320E+03  0.25500000000E-02 0. -1.
    5000001    1    1    2    0    0  0.47104913422E+01  0.38542491670E+03  0.33818964248E+03  0.55004344321E+03  0.19900000000E+03 0.  0.
   -5000001    1    1    2    0    0 -0.47104913422E+01 -0.38542491670E+03  0.69066311128E+03  0.81559247693E+03  0.19900000000E+03 0.  0.
<mgrwt>
<rscale>  0 0.89801084E+03</rscale>
<asrwt>0</asrwt>
<pdfrwt beam="1">  1        2 0.17103490E+00 0.89801084E+03</pdfrwt>
<pdfrwt beam="2">  1       -2 0.24055941E-01 0.89801084E+03</pdfrwt>
<totfact> 0.32962432E+02</totfact>
</mgrwt>
</event>
<event>
 4    1  0.1760335E-005  0.4765687E+03  0.7818608E-02  0.1020082E+00
         -2   -1    0    0    0  501 -0.00000000000E+00  0.00000000000E+00  0.33134292672E+02  0.33134292770E+02  0.25500000000E-02 0. -1.
          2   -1    0    0  501    0  0.00000000000E+00 -0.00000000000E+00 -0.17136150124E+04  0.17136150124E+04  0.25500000000E-02 0.  1.
    5000001    1    1    2    0    0  0.10058098307E+03  0.60316940988E+02 -0.10547053331E+04  0.10797032033E+04  0.19900000000E+03 0.  0.
   -5000001    1    1    2    0    0 -0.10058098307E+03 -0.60316940988E+02 -0.62577538662E+03  0.66704610187E+03  0.19900000000E+03 0.  0.
<mgrwt>
<rscale>  0 0.47656866E+03</rscale>
<asrwt>0</asrwt>
<pdfrwt beam="1">  1        2 0.24480209E+00 0.47656866E+03</pdfrwt>
<pdfrwt beam="2">  1       -2 0.47334715E-02 0.47656866E+03</pdfrwt>
<totfact> 0.25868850E+03</totfact>
</mgrwt>
</event>
<event>
 4    1  0.1760335E-005  0.8098475E+03  0.7818608E-02  0.9545872E-01
          2   -1    0    0  501    0  0.00000000000E+00  0.00000000000E+00  0.13685291313E+04  0.13685291313E+04  0.25500000000E-02 0.  1.
         -2   -1    0    0    0  501 -0.00000000000E+00 -0.00000000000E+00 -0.11980982080E+03  0.11980982083E+03  0.25500000000E-02 0. -1.
    5000001    1    1    2    0    0 -0.33697925894E+03 -0.92554444465E+02  0.71135746000E+03  0.81716080550E+03  0.19900000000E+03 0.  0.
   -5000001    1    1    2    0    0  0.33697925894E+03  0.92554444465E+02  0.53736185053E+03  0.67117814666E+03  0.19900000000E+03 0.  0.
<mgrwt>
<rscale>  0 0.80984747E+03</rscale>
<asrwt>0</asrwt>
<pdfrwt beam="1">  1        2 0.19550416E+00 0.80984747E+03</pdfrwt>
<pdfrwt beam="2">  1       -2 0.17115689E-01 0.80984747E+03</pdfrwt>
<totfact> 0.48385016E+02</totfact>
</mgrwt>
</event>
<event>
 4    1  0.1760335E-005  0.6372217E+03  0.7818608E-02  0.9831057E-01
         -2   -1    0    0    0  501 -0.00000000000E+00  0.00000000000E+00  0.47954393248E+03  0.47954393249E+03  0.25500000000E-02 0. -1.
          2   -1    0    0  501    0  0.00000000000E+00 -0.00000000000E+00 -0.21168631028E+03  0.21168631029E+03  0.25500000000E-02 0.  1.
    5000001    1    1    2    0    0 -0.93597252611E+02 -0.22288970351E+03  0.70014480701E+02  0.32084777253E+03  0.19900000000E+03 0.  0.
   -5000001    1    1    2    0    0  0.93597252611E+02  0.22288970351E+03  0.19784314151E+03  0.37038247025E+03  0.19900000000E+03 0.  0.
<mgrwt>
<rscale>  0 0.63722174E+03</rscale>
<asrwt>0</asrwt>
<pdfrwt beam="1">  1        2 0.30240902E-01 0.63722174E+03</pdfrwt>
<pdfrwt beam="2">  1       -2 0.68506276E-01 0.63722174E+03</pdfrwt>
<totfact> 0.34692173E+02</totfact>
</mgrwt>
</event>
<event>
 4    1  0.1760335E-005  0.6169919E+03  0.7818608E-02  0.9870767E-01
         -2   -1    0    0    0  501 -0.00000000000E+00  0.00000000000E+00  0.40126717282E+03  0.40126717283E+03  0.25500000000E-02 0. -1.
          2   -1    0    0  501    0  0.00000000000E+00 -0.00000000000E+00 -0.23717300698E+03  0.23717300700E+03  0.25500000000E-02 0.  1.
    5000001    1    1    2    0    0 -0.21606085912E+03  0.75523097874E+02  0.14042374037E+03  0.33422426604E+03  0.19900000000E+03 0.  0.
   -5000001    1    1    2    0    0  0.21606085912E+03 -0.75523097874E+02  0.23670425468E+02  0.30421591378E+03  0.19900000000E+03 0.  0.
<mgrwt>
<rscale>  0 0.61699187E+03</rscale>
<asrwt>0</asrwt>
<pdfrwt beam="1">  1        2 0.33881858E-01 0.61699187E+03</pdfrwt>
<pdfrwt beam="2">  1       -2 0.57323882E-01 0.61699187E+03</pdfrwt>
<totfact> 0.44614857E+02</totfact>
</mgrwt>
</event>
<event>
 4    1  0.1760335E-005  0.9190256E+03  0.7818608E-02  0.9402106E-01
         -2   -1    0    0    0  501 -0.00000000000E+00  0.00000000000E+00  0.76793420050E+02  0.76793420093E+02  0.25500000000E-02 0. -1.
          2   -1    0    0  501    0  0.00000000000E+00 -0.00000000000E+00 -0.27496108512E+04  0.27496108512E+04  0.25500000000E-02 0.  1.
    5000001    1    1    2    0    0 -0.15440889978E+03  0.33621492734E+03 -0.19090383043E+04  0.19547150260E+04  0.19900000000E+03 0.  0.
   -5000001    1    1    2    0    0  0.15440889978E+03 -0.33621492734E+03 -0.76377912685E+03  0.87168924527E+03  0.19900000000E+03 0.  0.
<mgrwt>
<rscale>  0 0.91902562E+03</rscale>
<asrwt>0</asrwt>
<pdfrwt beam="1">  1        2 0.39280149E+00 0.91902562E+03</pdfrwt>
<pdfrwt beam="2">  1       -2 0.10970490E-01 0.91902562E+03</pdfrwt>
<totfact> 0.19571335E+02</totfact>
</mgrwt>
</event>
<event>
 4    1  0.1760335E-005  0.5421471E+03  0.7818608E-02  0.1003328E+00
         -2   -1    0    0    0  501 -0.00000000000E+00  0.00000000000E+00  0.59925010776E+02  0.59925010831E+02  0.25500000000E-02 0. -1.
          2   -1    0    0  501    0  0.00000000000E+00 -0.00000000000E+00 -0.12262135724E+04  0.12262135724E+04  0.25500000000E-02 0.  1.
    5000001    1    1    2    0    0 -0.36392786798E+01  0.16615153329E+03 -0.77084576692E+03  0.81327963994E+03  0.19900000000E+03 0.  0.
   -5000001    1    1    2    0    0  0.36392786798E+01 -0.16615153329E+03 -0.39544279467E+03  0.47285894326E+03  0.19900000000E+03 0.  0.
<mgrwt>
<rscale>  0 0.54214707E+03</rscale>
<asrwt>0</asrwt>
<pdfrwt beam="1">  1        2 0.17517335E+00 0.54214707E+03</pdfrwt>
<pdfrwt beam="2">  1       -2 0.85607166E-02 0.54214707E+03</pdfrwt>
<totfact> 0.18372558E+03</totfact>
</mgrwt>
</event>
<event>
 4    1  0.1760335E-005  0.4607052E+03  0.7818608E-02  0.1024577E+00
         -2   -1    0    0    0  501 -0.00000000000E+00  0.00000000000E+00  0.18821406852E+03  0.18821406854E+03  0.25500000000E-02 0. -1.
          2   -1    0    0  501    0  0.00000000000E+00 -0.00000000000E+00 -0.28192540237E+03  0.28192540238E+03  0.25500000000E-02 0.  1.
    5000001    1    1    2    0    0 -0.98023106256E+02 -0.58868904679E+02 -0.26774029445E+02  0.23106692959E+03  0.19900000000E+03 0.  0.
   -5000001    1    1    2    0    0  0.98023106256E+02  0.58868904679E+02 -0.66937304402E+02  0.23907254133E+03  0.19900000000E+03 0.  0.
<mgrwt>
<rscale>  0 0.46070523E+03</rscale>
<asrwt>0</asrwt>
<pdfrwt beam="1">  1        2 0.40275058E-01 0.46070523E+03</pdfrwt>
<pdfrwt beam="2">  1       -2 0.26887724E-01 0.46070523E+03</pdfrwt>
<totfact> 0.15957251E+03</totfact>
</mgrwt>
</event>
<event>
 4    1  0.1760335E-005  0.4883436E+03  0.7818608E-02  0.1016867E+00
          2   -1    0    0  501    0  0.00000000000E+00  0.00000000000E+00  0.29716626422E+04  0.29716626422E+04  0.25500000000E-02 0.  1.
         -2   -1    0    0    0  501 -0.00000000000E+00 -0.00000000000E+00 -0.20062794954E+02  0.20062795116E+02  0.25500000000E-02 0. -1.
    5000001    1    1    2    0    0  0.28442307991E+02 -0.13830343636E+03  0.14203062079E+04  0.14411132952E+04  0.19900000000E+03 0.  0.
   -5000001    1    1    2    0    0 -0.28442307991E+02  0.13830343636E+03  0.15312936394E+04  0.15506121422E+04  0.19900000000E+03 0.  0.
<mgrwt>
<rscale>  0 0.48834356E+03</rscale>
<asrwt>0</asrwt>
<pdfrwt beam="1">  1        2 0.42452382E+00 0.48834356E+03</pdfrwt>
<pdfrwt beam="2">  1       -2 0.28661097E-02 0.48834356E+03</pdfrwt>
<totfact> 0.12702047E+03</totfact>
</mgrwt>
</event>
<event>
 4    1  0.1760335E-005  0.5247042E+03  0.7818608E-02  0.1007525E+00
         -2   -1    0    0    0  501 -0.00000000000E+00  0.00000000000E+00  0.29985523906E+02  0.29985524014E+02  0.25500000000E-02 0.  1.
          2   -1    0    0  501    0  0.00000000000E+00 -0.00000000000E+00 -0.22953954834E+04  0.22953954834E+04  0.25500000000E-02 0. -1.
    5000001    1    1    2    0    0  0.16004783756E+03 -0.28555116156E+02 -0.89832503768E+03  0.93435516710E+03  0.19900000000E+03 0.  0.
   -5000001    1    1    2    0    0 -0.16004783756E+03  0.28555116156E+02 -0.13670849218E+04  0.13910258403E+04  0.19900000000E+03 0.  0.
<mgrwt>
<rscale>  0 0.52470425E+03</rscale>
<asrwt>0</asrwt>
<pdfrwt beam="1">  1        2 0.32791353E+00 0.52470425E+03</pdfrwt>
<pdfrwt beam="2">  1       -2 0.42836478E-02 0.52470425E+03</pdfrwt>
<totfact> 0.15395637E+03</totfact>
</mgrwt>
</event>
<event>
 4    1  0.1760335E-005  0.5219058E+03  0.7818608E-02  0.1008214E+00
         -2   -1    0    0    0  501 -0.00000000000E+00  0.00000000000E+00  0.23025500578E+03  0.23025500579E+03  0.25500000000E-02 0. -1.
          2   -1    0    0  501    0  0.00000000000E+00 -0.00000000000E+00 -0.29574352861E+03  0.29574352862E+03  0.25500000000E-02 0.  1.
    5000001    1    1    2    0    0 -0.99794031910E+02  0.12865450218E+02  0.10385849798E+03  0.24599178079E+03  0.19900000000E+03 0.  0.
   -5000001    1    1    2    0    0  0.99794031910E+02 -0.12865450218E+02 -0.16934702081E+03  0.28000675362E+03  0.19900000000E+03 0.  0.
<mgrwt>
<rscale>  0 0.52190585E+03</rscale>
<asrwt>0</asrwt>
<pdfrwt beam="1">  1        2 0.42249075E-01 0.52190585E+03</pdfrwt>
<pdfrwt beam="2">  1       -2 0.32893572E-01 0.52190585E+03</pdfrwt>
<totfact> 0.10458478E+03</totfact>
</mgrwt>
</event>
<event>
 4    1  0.1760335E-005  0.6246062E+03  0.7818608E-02  0.9855631E-01
         -2   -1    0    0    0  501 -0.00000000000E+00  0.00000000000E+00  0.37741260832E+02  0.37741260919E+02  0.25500000000E-02 0. -1.
          2   -1    0    0  501    0  0.00000000000E+00 -0.00000000000E+00 -0.25842596388E+04  0.25842596388E+04  0.25500000000E-02 0.  1.
    5000001    1    1    2    0    0  0.73276467325E+01 -0.22720006500E+03 -0.94116061445E+03  0.98846237467E+03  0.19900000000E+03 0.  0.
   -5000001    1    1    2    0    0 -0.73276467325E+01  0.22720006500E+03 -0.16053577635E+04  0.16335385250E+04  0.19900000000E+03 0.  0.
<mgrwt>
<rscale>  0 0.62460617E+03</rscale>
<asrwt>0</asrwt>
<pdfrwt beam="1">  1        2 0.36917984E+00 0.62460617E+03</pdfrwt>
<pdfrwt beam="2">  1       -2 0.53916104E-02 0.62460617E+03</pdfrwt>
<totfact> 0.76285716E+02</totfact>
</mgrwt>
</event>
<event>
 4    1  0.1760335E-005  0.7620455E+03  0.7818608E-02  0.9616640E-01
          2   -1    0    0  501    0  0.00000000000E+00  0.00000000000E+00  0.99449653396E+03  0.99449653396E+03  0.25500000000E-02 0.  1.
         -2   -1    0    0    0  501 -0.00000000000E+00 -0.00000000000E+00 -0.14598172780E+03  0.14598172783E+03  0.25500000000E-02 0. -1.
    5000001    1    1    2    0    0 -0.22287048110E+03 -0.18462933117E+03  0.20319524527E+03  0.40576908332E+03  0.19900000000E+03 0.  0.
   -5000001    1    1    2    0    0  0.22287048110E+03  0.18462933117E+03  0.64531956088E+03  0.73470917847E+03  0.19900000000E+03 0.  0.
<mgrwt>
<rscale>  0 0.76204546E+03</rscale>
<asrwt>0</asrwt>
<pdfrwt beam="1">  1        2 0.14207093E+00 0.76204546E+03</pdfrwt>
<pdfrwt beam="2">  1       -2 0.20854533E-01 0.76204546E+03</pdfrwt>
<totfact> 0.56299284E+02</totfact>
</mgrwt>
</event>
<event>
 4    1  0.1760335E-005  0.8791600E+03  0.7818608E-02  0.9452014E-01
         -2   -1    0    0    0  501 -0.00000000000E+00  0.00000000000E+00  0.14204159849E+03  0.14204159852E+03  0.25500000000E-02 0. -1.
          2   -1    0    0  501    0  0.00000000000E+00 -0.00000000000E+00 -0.13603800866E+04  0.13603800866E+04  0.25500000000E-02 0.  1.
    5000001    1    1    2    0    0 -0.36330844293E+03 -0.85205954235E+02 -0.40426532607E+03  0.58505088086E+03  0.19900000000E+03 0.  0.
   -5000001    1    1    2    0    0  0.36330844293E+03  0.85205954235E+02 -0.81407316199E+03  0.91737080421E+03  0.19900000000E+03 0.  0.
<mgrwt>
<rscale>  0 0.87915997E+03</rscale>
<asrwt>0</asrwt>
<pdfrwt beam="1">  1        2 0.19434001E+00 0.87915997E+03</pdfrwt>
<pdfrwt beam="2">  1       -2 0.20291658E-01 0.87915997E+03</pdfrwt>
<totfact> 0.36245215E+02</totfact>
</mgrwt>
</event>
<event>
 4    1  0.1760335E-005  0.1189275E+04  0.7818608E-02  0.9122297E-01
          2   -1    0    0  501    0  0.00000000000E+00  0.00000000000E+00  0.14583608361E+04  0.14583608361E+04  0.25500000000E-02 0.  1.
         -2   -1    0    0    0  501 -0.00000000000E+00 -0.00000000000E+00 -0.24245957699E+03  0.24245957700E+03  0.25500000000E-02 0. -1.
    5000001    1    1    2    0    0 -0.43339829706E+03 -0.18895631524E+03  0.10380711202E+04  0.11578994877E+04  0.19900000000E+03 0.  0.
   -5000001    1    1    2    0    0  0.43339829706E+03  0.18895631524E+03  0.17783013890E+03  0.54292092542E+03  0.19900000000E+03 0.  0.
<mgrwt>
<rscale>  0 0.11892747E+04</rscale>
<asrwt>0</asrwt>
<pdfrwt beam="1">  1        2 0.20833727E+00 0.11892747E+04</pdfrwt>
<pdfrwt beam="2">  1       -2 0.34637081E-01 0.11892747E+04</pdfrwt>
<totfact> 0.11862662E+02</totfact>
</mgrwt>
</event>
<event>
 4    1  0.1760335E-005  0.7723850E+03  0.7818608E-02  0.9600872E-01
          2   -1    0    0  501    0  0.00000000000E+00  0.00000000000E+00  0.15018483434E+04  0.15018483434E+04  0.25500000000E-02 0.  1.
         -2   -1    0    0    0  501 -0.00000000000E+00 -0.00000000000E+00 -0.99307383859E+02  0.99307383892E+02  0.25500000000E-02 0. -1.
    5000001    1    1    2    0    0 -0.32633270456E+03 -0.14768459545E+02  0.81159799675E+03  0.89721984474E+03  0.19900000000E+03 0.  0.
   -5000001    1    1    2    0    0  0.32633270456E+03  0.14768459545E+02  0.59094296275E+03  0.70393588251E+03  0.19900000000E+03 0.  0.
<mgrwt>
<rscale>  0 0.77238496E+03</rscale>
<asrwt>0</asrwt>
<pdfrwt beam="1">  1        2 0.21454977E+00 0.77238496E+03</pdfrwt>
<pdfrwt beam="2">  1       -2 0.14186769E-01 0.77238496E+03</pdfrwt>
<totfact> 0.56626366E+02</totfact>
</mgrwt>
</event>
<event>
 4    1  0.1760335E-005  0.1106504E+04  0.7818608E-02  0.9198876E-01
         -2   -1    0    0    0  501 -0.00000000000E+00  0.00000000000E+00  0.17536446515E+03  0.17536446516E+03  0.25500000000E-02 0. -1.
          2   -1    0    0  501    0  0.00000000000E+00 -0.00000000000E+00 -0.17454370568E+04  0.17454370568E+04  0.25500000000E-02 0.  1.
    5000001    1    1    2    0    0 -0.11840921729E+03  0.43534859010E+03 -0.12205324659E+04  0.13163774679E+04  0.19900000000E+03 0.  0.
   -5000001    1    1    2    0    0  0.11840921729E+03 -0.43534859010E+03 -0.34954012576E+03  0.60442405408E+03  0.19900000000E+03 0.  0.
<mgrwt>
<rscale>  0 0.11065037E+04</rscale>
<asrwt>0</asrwt>
<pdfrwt beam="1">  1        2 0.24934814E+00 0.11065037E+04</pdfrwt>
<pdfrwt beam="2">  1       -2 0.25052067E-01 0.11065037E+04</pdfrwt>
<totfact> 0.15393830E+02</totfact>
</mgrwt>
</event>
<event>
 4    1  0.1760335E-005  0.7542846E+03  0.7818608E-02  0.9628652E-01
          2   -1    0    0  501    0  0.00000000000E+00  0.00000000000E+00  0.54163245739E+03  0.54163245740E+03  0.25500000000E-02 0.  1.
         -2   -1    0    0    0  501 -0.00000000000E+00 -0.00000000000E+00 -0.26260670542E+03  0.26260670544E+03  0.25500000000E-02 0. -1.
    5000001    1    1    2    0    0  0.42410129398E+01  0.31951669994E+03  0.11504980391E+03  0.39363227143E+03  0.19900000000E+03 0.  0.
   -5000001    1    1    2    0    0 -0.42410129398E+01 -0.31951669994E+03  0.16397594806E+03  0.41060689141E+03  0.19900000000E+03 0.  0.
<mgrwt>
<rscale>  0 0.75428460E+03</rscale>
<asrwt>0</asrwt>
<pdfrwt beam="1">  1        2 0.77376065E-01 0.75428460E+03</pdfrwt>
<pdfrwt beam="2">  1       -2 0.37515244E-01 0.75428460E+03</pdfrwt>
<totfact> 0.41239120E+02</totfact>
</mgrwt>
</event>
<event>
 4    1  0.1760335E-005  0.1053694E+04  0.7818608E-02  0.9251539E-01
         -2   -1    0    0    0  501 -0.00000000000E+00  0.00000000000E+00  0.39113706835E+03  0.39113706835E+03  0.25500000000E-02 0. -1.
          2   -1    0    0  501    0  0.00000000000E+00 -0.00000000000E+00 -0.70964277141E+03  0.70964277142E+03  0.25500000000E-02 0.  1.
    5000001    1    1    2    0    0 -0.11612180114E+03 -0.43549289312E+03  0.35710051906E+02  0.49397827935E+03  0.19900000000E+03 0.  0.
   -5000001    1    1    2    0    0  0.11612180114E+03  0.43549289312E+03 -0.35421575497E+03  0.60680156042E+03  0.19900000000E+03 0.  0.
<mgrwt>
<rscale>  0 0.10536937E+04</rscale>
<asrwt>0</asrwt>
<pdfrwt beam="1">  1        2 0.10137754E+00 0.10536937E+04</pdfrwt>
<pdfrwt beam="2">  1       -2 0.55876724E-01 0.10536937E+04</pdfrwt>
<totfact> 0.13255586E+02</totfact>
</mgrwt>
</event>
<event>
 4    1  0.1760335E-005  0.5165162E+03  0.7818608E-02  0.1009556E+00
         -2   -1    0    0    0  501 -0.00000000000E+00  0.00000000000E+00  0.89688675735E+02  0.89688675772E+02  0.25500000000E-02 0. -1.
          2   -1    0    0  501    0  0.00000000000E+00 -0.00000000000E+00 -0.74365303437E+03  0.74365303438E+03  0.25500000000E-02 0.  1.
    5000001    1    1    2    0    0 -0.82148727716E+02  0.13782863982E+03 -0.26767814385E+03  0.37013205226E+03  0.19900000000E+03 0.  0.
   -5000001    1    1    2    0    0  0.82148727716E+02 -0.13782863982E+03 -0.38628621479E+03  0.46320965789E+03  0.19900000000E+03 0.  0.
<mgrwt>
<rscale>  0 0.51651624E+03</rscale>
<asrwt>0</asrwt>
<pdfrwt beam="1">  1        2 0.10623614E+00 0.51651624E+03</pdfrwt>
<pdfrwt beam="2">  1       -2 0.12812668E-01 0.51651624E+03</pdfrwt>
<totfact> 0.19026475E+03</totfact>
</mgrwt>
</event>
<event>
 4    1  0.1760335E-005  0.1775720E+04  0.7818608E-02  0.8719319E-01
         -2   -1    0    0    0  501 -0.00000000000E+00  0.00000000000E+00  0.34345724757E+03  0.34345724758E+03  0.25500000000E-02 0. -1.
          2   -1    0    0  501    0  0.00000000000E+00 -0.00000000000E+00 -0.22951767134E+04  0.22951767134E+04  0.25500000000E-02 0.  1.
    5000001    1    1    2    0    0 -0.78978600684E+03 -0.32822156912E+03 -0.11707560258E+04  0.14634760015E+04  0.19900000000E+03 0.  0.
   -5000001    1    1    2    0    0  0.78978600684E+03  0.32822156912E+03 -0.78096344000E+03  0.11751579594E+04  0.19900000000E+03 0.  0.
<mgrwt>
<rscale>  0 0.17757197E+04</rscale>
<asrwt>0</asrwt>
<pdfrwt beam="1">  1        2 0.32788238E+00 0.17757197E+04</pdfrwt>
<pdfrwt beam="2">  1       -2 0.49065323E-01 0.17757197E+04</pdfrwt>
<totfact> 0.21056062E+01</totfact>
</mgrwt>
</event>
<event>
 4    1  0.1760335E-005  0.7200780E+03  0.7818608E-02  0.9683499E-01
         -2   -1    0    0    0  501 -0.00000000000E+00  0.00000000000E+00  0.58622201225E+03  0.58622201226E+03  0.25500000000E-02 0. -1.
          2   -1    0    0  501    0  0.00000000000E+00 -0.00000000000E+00 -0.22112455302E+03  0.22112455303E+03  0.25500000000E-02 0.  1.
    5000001    1    1    2    0    0  0.51762453710E+02  0.27457125029E+03  0.30515600027E+03  0.45911862040E+03  0.19900000000E+03 0.  0.
   -5000001    1    1    2    0    0 -0.51762453710E+02 -0.27457125029E+03  0.59941458964E+02  0.34822794489E+03  0.19900000000E+03 0.  0.
<mgrwt>
<rscale>  0 0.72007800E+03</rscale>
<asrwt>0</asrwt>
<pdfrwt beam="1">  1        2 0.31589222E-01 0.72007800E+03</pdfrwt>
<pdfrwt beam="2">  1       -2 0.83746001E-01 0.72007800E+03</pdfrwt>
<totfact> 0.21116700E+02</totfact>
</mgrwt>
</event>
<event>
 4    1  0.1760335E-005  0.6478661E+03  0.7818608E-02  0.9810792E-01
         -2   -1    0    0    0  501 -0.00000000000E+00  0.00000000000E+00  0.78171461119E+02  0.78171461161E+02  0.25500000000E-02 0. -1.
          2   -1    0    0  501    0  0.00000000000E+00 -0.00000000000E+00 -0.13423390958E+04  0.13423390958E+04  0.25500000000E-02 0.  1.
    5000001    1    1    2    0    0 -0.11370539697E+03  0.21226713792E+03 -0.82000060547E+03  0.87748974245E+03  0.19900000000E+03 0.  0.
   -5000001    1    1    2    0    0  0.11370539697E+03 -0.21226713792E+03 -0.44416702917E+03  0.54302081447E+03  0.19900000000E+03 0.  0.
<mgrwt>
<rscale>  0 0.64786606E+03</rscale>
<asrwt>0</asrwt>
<pdfrwt beam="1">  1        2 0.19176271E+00 0.64786606E+03</pdfrwt>
<pdfrwt beam="2">  1       -2 0.11167352E-01 0.64786606E+03</pdfrwt>
<totfact> 0.10296937E+03</totfact>
</mgrwt>
</event>
<event>
 4    1  0.1760335E-005  0.4716628E+03  0.7818608E-02  0.1021452E+00
          2   -1    0    0  501    0  0.00000000000E+00  0.00000000000E+00  0.32739788111E+03  0.32739788112E+03  0.25500000000E-02 0.  1.
         -2   -1    0    0    0  501 -0.00000000000E+00 -0.00000000000E+00 -0.16987418975E+03  0.16987418977E+03  0.25500000000E-02 0. -1.
    5000001    1    1    2    0    0 -0.82913024190E+02 -0.93529140870E+02  0.99667230120E+02  0.25525835252E+03  0.19900000000E+03 0.  0.
   -5000001    1    1    2    0    0  0.82913024190E+02  0.93529140870E+02  0.57856461237E+02  0.24201371837E+03  0.19900000000E+03 0.  0.
<mgrwt>
<rscale>  0 0.47166280E+03</rscale>
<asrwt>0</asrwt>
<pdfrwt beam="1">  1        2 0.46771126E-01 0.47166280E+03</pdfrwt>
<pdfrwt beam="2">  1       -2 0.24267741E-01 0.47166280E+03</pdfrwt>
<totfact> 0.16280360E+03</totfact>
</mgrwt>
</event>
<event>
 4    1  0.1760335E-005  0.4737260E+03  0.7818608E-02  0.1020874E+00
          2   -1    0    0  501    0  0.00000000000E+00  0.00000000000E+00  0.38133096485E+04  0.38133096485E+04  0.25500000000E-02 0.  1.
         -2   -1    0    0    0  501 -0.00000000000E+00 -0.00000000000E+00 -0.14712702402E+02  0.14712702623E+02  0.25500000000E-02 0. -1.
    5000001    1    1    2    0    0  0.95058519669E+02  0.85093761337E+02  0.17778140178E+04  0.17934605522E+04  0.19900000000E+03 0.  0.
   -5000001    1    1    2    0    0 -0.95058519669E+02 -0.85093761337E+02  0.20207829284E+04  0.20345617990E+04  0.19900000000E+03 0.  0.
<mgrwt>
<rscale>  0 0.47372604E+03</rscale>
<asrwt>0</asrwt>
<pdfrwt beam="1">  1        2 0.54475885E+00 0.47372604E+03</pdfrwt>
<pdfrwt beam="2">  1       -2 0.21018134E-02 0.47372604E+03</pdfrwt>
<totfact> 0.65895701E+02</totfact>
</mgrwt>
</event>
<event>
 4    1  0.1760335E-005  0.5217562E+03  0.7818608E-02  0.1008251E+00
          2   -1    0    0  501    0  0.00000000000E+00  0.00000000000E+00  0.30708705874E+04  0.30708705874E+04  0.25500000000E-02 0.  1.
         -2   -1    0    0    0  501 -0.00000000000E+00 -0.00000000000E+00 -0.22162245313E+02  0.22162245460E+02  0.25500000000E-02 0. -1.
    5000001    1    1    2    0    0 -0.35790021496E+02 -0.80169451748E+02  0.67045149345E+03  0.70485053146E+03  0.19900000000E+03 0.  0.
   -5000001    1    1    2    0    0  0.35790021496E+02  0.80169451748E+02  0.23782568486E+04  0.23881823014E+04  0.19900000000E+03 0.  0.
<mgrwt>
<rscale>  0 0.52175622E+03</rscale>
<asrwt>0</asrwt>
<pdfrwt beam="1">  1        2 0.43869579E+00 0.52175622E+03</pdfrwt>
<pdfrwt beam="2">  1       -2 0.31660351E-02 0.52175622E+03</pdfrwt>
<totfact> 0.96211814E+02</totfact>
</mgrwt>
</event>
<event>
 4    1  0.1760335E-005  0.4789635E+03  0.7818608E-02  0.1019420E+00
          2   -1    0    0  501    0  0.00000000000E+00  0.00000000000E+00  0.22111585154E+04  0.22111585154E+04  0.25500000000E-02 0.  1.
         -2   -1    0    0    0  501 -0.00000000000E+00 -0.00000000000E+00 -0.25937313776E+02  0.25937313902E+02  0.25500000000E-02 0. -1.
    5000001    1    1    2    0    0 -0.74566128007E+02  0.10830012471E+03  0.99227332218E+03  0.10205372949E+04  0.19900000000E+03 0.  0.
   -5000001    1    1    2    0    0  0.74566128007E+02 -0.10830012471E+03  0.11929478794E+04  0.12165585343E+04  0.19900000000E+03 0.  0.
<mgrwt>
<rscale>  0 0.47896352E+03</rscale>
<asrwt>0</asrwt>
<pdfrwt beam="1">  1        2 0.31587977E+00 0.47896352E+03</pdfrwt>
<pdfrwt beam="2">  1       -2 0.37053307E-02 0.47896352E+03</pdfrwt>
<totfact> 0.21235887E+03</totfact>
</mgrwt>
</event>
<event>
 4    1  0.1760335E-005  0.5759523E+03  0.7818608E-02  0.9956593E-01
         -2   -1    0    0    0  501 -0.00000000000E+00  0.00000000000E+00  0.17549167926E+04  0.17549167926E+04  0.25500000000E-02 0. -1.
          2   -1    0    0  501    0  0.00000000000E+00 -0.00000000000E+00 -0.47255945519E+02  0.47255945588E+02  0.25500000000E-02 0.  1.
    5000001    1    1    2    0    0  0.16496283615E+03  0.88067044579E+02  0.56772141926E+03  0.62998186604E+03  0.19900000000E+03 0.  0.
   -5000001    1    1    2    0    0 -0.16496283615E+03 -0.88067044579E+02  0.11399394279E+04  0.11721908722E+04  0.19900000000E+03 0.  0.
<mgrwt>
<rscale>  0 0.57595226E+03</rscale>
<asrwt>0</asrwt>
<pdfrwt beam="1">  1        2 0.67508512E-02 0.57595226E+03</pdfrwt>
<pdfrwt beam="2">  1       -2 0.25070233E+00 0.57595226E+03</pdfrwt>
<totfact> 0.73347527E+01</totfact>
</mgrwt>
</event>
<event>
 4    1  0.1760335E-005  0.7620519E+03  0.7818608E-02  0.9616630E-01
         -2   -1    0    0    0  501 -0.00000000000E+00  0.00000000000E+00  0.90852975580E+03  0.90852975580E+03  0.25500000000E-02 0. -1.
          2   -1    0    0  501    0  0.00000000000E+00 -0.00000000000E+00 -0.15979748382E+03  0.15979748384E+03  0.25500000000E-02 0.  1.
    5000001    1    1    2    0    0  0.24294265470E+02 -0.32386141931E+03  0.36011494090E+03  0.52417573476E+03  0.19900000000E+03 0.  0.
   -5000001    1    1    2    0    0 -0.24294265470E+02  0.32386141931E+03  0.38861733107E+03  0.54415150488E+03  0.19900000000E+03 0.  0.
<mgrwt>
<rscale>  0 0.76205189E+03</rscale>
<asrwt>0</asrwt>
<pdfrwt beam="1">  1        2 0.22828213E-01 0.76205189E+03</pdfrwt>
<pdfrwt beam="2">  1       -2 0.12978996E+00 0.76205189E+03</pdfrwt>
<totfact> 0.10714304E+02</totfact>
</mgrwt>
</event>
<event>
 4    1  0.1760335E-005  0.6029905E+03  0.7818608E-02  0.9899221E-01
          2   -1    0    0  501    0  0.00000000000E+00  0.00000000000E+00  0.38574254506E+03  0.38574254507E+03  0.25500000000E-02 0.  1.
         -2   -1    0    0    0  501 -0.00000000000E+00 -0.00000000000E+00 -0.23564783121E+03  0.23564783122E+03  0.25500000000E-02 0. -1.
    5000001    1    1    2    0    0 -0.11256076889E+03  0.19444659852E+03  0.10453857732E+03  0.31781869126E+03  0.19900000000E+03 0.  0.
   -5000001    1    1    2    0    0  0.11256076889E+03 -0.19444659852E+03  0.45556136535E+02  0.30357168502E+03  0.19900000000E+03 0.  0.
<mgrwt>
<rscale>  0 0.60299053E+03</rscale>
<asrwt>0</asrwt>
<pdfrwt beam="1">  1        2 0.55106078E-01 0.60299053E+03</pdfrwt>
<pdfrwt beam="2">  1       -2 0.33663976E-01 0.60299053E+03</pdfrwt>
<totfact> 0.74657973E+02</totfact>
</mgrwt>
</event>
<event>
 4    1  0.1760335E-005  0.5020790E+03  0.7818608E-02  0.1013238E+00
         -2   -1    0    0    0  501 -0.00000000000E+00  0.00000000000E+00  0.10166807976E+03  0.10166807979E+03  0.25500000000E-02 0. -1.
          2   -1    0    0  501    0  0.00000000000E+00 -0.00000000000E+00 -0.61986833875E+03  0.61986833876E+03  0.25500000000E-02 0.  1.
    5000001    1    1    2    0    0  0.11098097047E+02  0.13852451992E+03 -0.35120466167E+03  0.42691676560E+03  0.19900000000E+03 0.  0.
   -5000001    1    1    2    0    0 -0.11098097047E+02 -0.13852451992E+03 -0.16699559732E+03  0.29461965295E+03  0.19900000000E+03 0.  0.
<mgrwt>
<rscale>  0 0.50207897E+03</rscale>
<asrwt>0</asrwt>
<pdfrwt beam="1">  1        2 0.88552618E-01 0.50207897E+03</pdfrwt>
<pdfrwt beam="2">  1       -2 0.14524012E-01 0.50207897E+03</pdfrwt>
<totfact> 0.19246429E+03</totfact>
</mgrwt>
</event>
<event>
 4    1  0.1760335E-005  0.5875233E+03  0.7818608E-02  0.9931635E-01
          2   -1    0    0  501    0  0.00000000000E+00  0.00000000000E+00  0.12189728507E+04  0.12189728507E+04  0.25500000000E-02 0.  1.
         -2   -1    0    0    0  501 -0.00000000000E+00 -0.00000000000E+00 -0.70793946529E+02  0.70793946575E+02  0.25500000000E-02 0. -1.
    5000001    1    1    2    0    0 -0.21147319011E+03  0.22852638562E+02  0.49044610929E+03  0.57042224653E+03  0.19900000000E+03 0.  0.
   -5000001    1    1    2    0    0  0.21147319011E+03 -0.22852638562E+02  0.65773279488E+03  0.71934455074E+03  0.19900000000E+03 0.  0.
<mgrwt>
<rscale>  0 0.58752327E+03</rscale>
<asrwt>0</asrwt>
<pdfrwt beam="1">  1        2 0.17413899E+00 0.58752327E+03</pdfrwt>
<pdfrwt beam="2">  1       -2 0.10113420E-01 0.58752327E+03</pdfrwt>
<totfact> 0.14165919E+03</totfact>
</mgrwt>
</event>
<event>
 4    1  0.1760335E-005  0.5883035E+03  0.7818608E-02  0.9929974E-01
         -2   -1    0    0    0  501 -0.00000000000E+00  0.00000000000E+00  0.34190632723E+03  0.34190632724E+03  0.25500000000E-02 0. -1.
          2   -1    0    0  501    0  0.00000000000E+00 -0.00000000000E+00 -0.25306712828E+03  0.25306712830E+03  0.25500000000E-02 0.  1.
    5000001    1    1    2    0    0 -0.14407017241E+03  0.58702834712E+02 -0.10802764486E+03  0.27472387853E+03  0.19900000000E+03 0.  0.
   -5000001    1    1    2    0    0  0.14407017241E+03 -0.58702834712E+02  0.19686684381E+03  0.32024957701E+03  0.19900000000E+03 0.  0.
<mgrwt>
<rscale>  0 0.58830350E+03</rscale>
<asrwt>0</asrwt>
<pdfrwt beam="1">  1        2 0.36152447E-01 0.58830350E+03</pdfrwt>
<pdfrwt beam="2">  1       -2 0.48843761E-01 0.58830350E+03</pdfrwt>
<totfact> 0.57658218E+02</totfact>
</mgrwt>
</event>
<event>
 4    1  0.1760335E-005  0.1081335E+04  0.7818608E-02  0.9223577E-01
          2   -1    0    0  501    0  0.00000000000E+00  0.00000000000E+00  0.20270851275E+04  0.20270851275E+04  0.25500000000E-02 0.  1.
         -2   -1    0    0    0  501 -0.00000000000E+00 -0.00000000000E+00 -0.14420783146E+03  0.14420783148E+03  0.25500000000E-02 0. -1.
    5000001    1    1    2    0    0  0.26563586881E+03 -0.14818252163E+03  0.13774715677E+03  0.38871037253E+03  0.19900000000E+03 0.  0.
   -5000001    1    1    2    0    0 -0.26563586881E+03  0.14818252163E+03  0.17451301392E+04  0.17825825864E+04  0.19900000000E+03 0.  0.
<mgrwt>
<rscale>  0 0.10813354E+04</rscale>
<asrwt>0</asrwt>
<pdfrwt beam="1">  1        2 0.28958359E+00 0.10813354E+04</pdfrwt>
<pdfrwt beam="2">  1       -2 0.20601119E-01 0.10813354E+04</pdfrwt>
<totfact> 0.15684047E+02</totfact>
</mgrwt>
</event>
<event>
 4    1  0.1760335E-005  0.5328379E+03  0.7818608E-02  0.1005546E+00
         -2   -1    0    0    0  501 -0.00000000000E+00  0.00000000000E+00  0.41173462559E+02  0.41173462638E+02  0.25500000000E-02 0. -1.
          2   -1    0    0  501    0  0.00000000000E+00 -0.00000000000E+00 -0.17239031010E+04  0.17239031010E+04  0.25500000000E-02 0.  1.
    5000001    1    1    2    0    0  0.12904872448E+03  0.74835335147E+02 -0.52494414021E+03  0.58087972164E+03  0.19900000000E+03 0.  0.
   -5000001    1    1    2    0    0 -0.12904872448E+03 -0.74835335147E+02 -0.11577854982E+04  0.11841968420E+04  0.19900000000E+03 0.  0.
<mgrwt>
<rscale>  0 0.53283791E+03</rscale>
<asrwt>0</asrwt>
<pdfrwt beam="1">  1        2 0.24627183E+00 0.53283791E+03</pdfrwt>
<pdfrwt beam="2">  1       -2 0.58819243E-02 0.53283791E+03</pdfrwt>
<totfact> 0.18226109E+03</totfact>
</mgrwt>
</event>
<event>
 4    1  0.1760335E-005  0.6462418E+03  0.7818608E-02  0.9813857E-01
         -2   -1    0    0    0  501 -0.00000000000E+00  0.00000000000E+00  0.55049736903E+02  0.55049736963E+02  0.25500000000E-02 0. -1.
          2   -1    0    0  501    0  0.00000000000E+00 -0.00000000000E+00 -0.18965962419E+04  0.18965962419E+04  0.25500000000E-02 0.  1.
    5000001    1    1    2    0    0 -0.12352803599E+03 -0.19451635164E+03 -0.12475797509E+04  0.12841931403E+04  0.19900000000E+03 0.  0.
   -5000001    1    1    2    0    0  0.12352803599E+03  0.19451635164E+03 -0.59396675407E+03  0.66745283854E+03  0.19900000000E+03 0.  0.
<mgrwt>
<rscale>  0 0.64624183E+03</rscale>
<asrwt>0</asrwt>
<pdfrwt beam="1">  1        2 0.27094228E+00 0.64624183E+03</pdfrwt>
<pdfrwt beam="2">  1       -2 0.78642493E-02 0.64624183E+03</pdfrwt>
<totfact> 0.93842587E+02</totfact>
</mgrwt>
</event>
<event>
 4    1  0.1760335E-005  0.4980288E+03  0.7818608E-02  0.1014295E+00
          2   -1    0    0  501    0  0.00000000000E+00  0.00000000000E+00  0.13322755098E+04  0.13322755098E+04  0.25500000000E-02 0.  1.
         -2   -1    0    0    0  501 -0.00000000000E+00 -0.00000000000E+00 -0.46543051733E+02  0.46543051802E+02  0.25500000000E-02 0. -1.
    5000001    1    1    2    0    0  0.79718073408E+02  0.12669683064E+03  0.64194841485E+03  0.68855342963E+03  0.19900000000E+03 0.  0.
   -5000001    1    1    2    0    0 -0.79718073408E+02 -0.12669683064E+03  0.64378404320E+03  0.69026513196E+03  0.19900000000E+03 0.  0.
<mgrwt>
<rscale>  0 0.49802879E+03</rscale>
<asrwt>0</asrwt>
<pdfrwt beam="1">  1        2 0.19032506E+00 0.49802879E+03</pdfrwt>
<pdfrwt beam="2">  1       -2 0.66490078E-02 0.49802879E+03</pdfrwt>
<totfact> 0.24014315E+03</totfact>
</mgrwt>
</event>
<event>
 4    1  0.1760335E-005  0.6362524E+03  0.7818608E-02  0.9832923E-01
          2   -1    0    0  501    0  0.00000000000E+00  0.00000000000E+00  0.12978050244E+04  0.12978050244E+04  0.25500000000E-02 0.  1.
         -2   -1    0    0    0  501 -0.00000000000E+00 -0.00000000000E+00 -0.77981116791E+02  0.77981116833E+02  0.25500000000E-02 0. -1.
    5000001    1    1    2    0    0 -0.85115574070E+02  0.17268305373E+03  0.94864032263E+03  0.98822242421E+03  0.19900000000E+03 0.  0.
   -5000001    1    1    2    0    0  0.85115574070E+02 -0.17268305373E+03  0.27118358499E+03  0.38756371704E+03  0.19900000000E+03 0.  0.
<mgrwt>
<rscale>  0 0.63625242E+03</rscale>
<asrwt>0</asrwt>
<pdfrwt beam="1">  1        2 0.18540071E+00 0.63625242E+03</pdfrwt>
<pdfrwt beam="2">  1       -2 0.11140160E-01 0.63625242E+03</pdfrwt>
<totfact> 0.10933863E+03</totfact>
</mgrwt>
</event>
<event>
 4    1  0.1760335E-005  0.6977938E+03  0.7818608E-02  0.9721013E-01
         -2   -1    0    0    0  501 -0.00000000000E+00  0.00000000000E+00  0.91155427387E+03  0.91155427387E+03  0.25500000000E-02 0. -1.
          2   -1    0    0  501    0  0.00000000000E+00 -0.00000000000E+00 -0.13354009615E+03  0.13354009618E+03  0.25500000000E-02 0.  1.
    5000001    1    1    2    0    0  0.89642813548E+02  0.23627172949E+03  0.18657819874E+03  0.37185022310E+03  0.19900000000E+03 0.  0.
   -5000001    1    1    2    0    0 -0.89642813548E+02 -0.23627172949E+03  0.59143597897E+03  0.67324414695E+03  0.19900000000E+03 0.  0.
<mgrwt>
<rscale>  0 0.69779380E+03</rscale>
<asrwt>0</asrwt>
<pdfrwt beam="1">  1        2 0.19077157E-01 0.69779380E+03</pdfrwt>
<pdfrwt beam="2">  1       -2 0.13022204E+00 0.69779380E+03</pdfrwt>
<totfact> 0.13143607E+02</totfact>
</mgrwt>
</event>
<event>
 4    1  0.1760335E-005  0.5163620E+03  0.7818608E-02  0.1009594E+00
         -2   -1    0    0    0  501 -0.00000000000E+00  0.00000000000E+00  0.14423195714E+03  0.14423195716E+03  0.25500000000E-02 0. -1.
          2   -1    0    0  501    0  0.00000000000E+00 -0.00000000000E+00 -0.46215442917E+03  0.46215442918E+03  0.25500000000E-02 0.  1.
    5000001    1    1    2    0    0  0.10498714897E+03 -0.11681344392E+03 -0.21635715410E+03  0.33328531360E+03  0.19900000000E+03 0.  0.
   -5000001    1    1    2    0    0 -0.10498714897E+03  0.11681344392E+03 -0.10156531793E+03  0.27310107274E+03  0.19900000000E+03 0.  0.
<mgrwt>
<rscale>  0 0.51636204E+03</rscale>
<asrwt>0</asrwt>
<pdfrwt beam="1">  1        2 0.66022061E-01 0.51636204E+03</pdfrwt>
<pdfrwt beam="2">  1       -2 0.20604565E-01 0.51636204E+03</pdfrwt>
<totfact> 0.14843079E+03</totfact>
</mgrwt>
</event>
<event>
 4    1  0.1760335E-005  0.6204868E+03  0.7818608E-02  0.9863791E-01
          2   -1    0    0  501    0  0.00000000000E+00  0.00000000000E+00  0.56265565523E+03  0.56265565524E+03  0.25500000000E-02 0.  1.
         -2   -1    0    0    0  501 -0.00000000000E+00 -0.00000000000E+00 -0.17106549234E+03  0.17106549236E+03  0.25500000000E-02 0. -1.
    5000001    1    1    2    0    0  0.21343298270E+03  0.10444562130E+03  0.21198447297E+03  0.37550092236E+03  0.19900000000E+03 0.  0.
   -5000001    1    1    2    0    0 -0.21343298270E+03 -0.10444562130E+03  0.17960568992E+03  0.35822022523E+03  0.19900000000E+03 0.  0.
<mgrwt>
<rscale>  0 0.62048680E+03</rscale>
<asrwt>0</asrwt>
<pdfrwt beam="1">  1        2 0.80379378E-01 0.62048680E+03</pdfrwt>
<pdfrwt beam="2">  1       -2 0.24437928E-01 0.62048680E+03</pdfrwt>
<totfact> 0.87677815E+02</totfact>
</mgrwt>
</event>
<event>
 4    1  0.1760335E-005  0.5218207E+03  0.7818608E-02  0.1008235E+00
         -2   -1    0    0    0  501 -0.00000000000E+00  0.00000000000E+00  0.12869800461E+03  0.12869800463E+03  0.25500000000E-02 0. -1.
          2   -1    0    0  501    0  0.00000000000E+00 -0.00000000000E+00 -0.52894526620E+03  0.52894526620E+03  0.25500000000E-02 0.  1.
    5000001    1    1    2    0    0 -0.10282954739E+03  0.12212743791E+03 -0.26897001544E+03  0.37072212790E+03  0.19900000000E+03 0.  0.
   -5000001    1    1    2    0    0  0.10282954739E+03 -0.12212743791E+03 -0.13127724615E+03  0.28692114294E+03  0.19900000000E+03 0.  0.
<mgrwt>
<rscale>  0 0.52182066E+03</rscale>
<asrwt>0</asrwt>
<pdfrwt beam="1">  1        2 0.75563608E-01 0.52182066E+03</pdfrwt>
<pdfrwt beam="2">  1       -2 0.18385430E-01 0.52182066E+03</pdfrwt>
<totfact> 0.15518405E+03</totfact>
</mgrwt>
</event>
<event>
 4    1  0.1760335E-005  0.6766958E+03  0.7818608E-02  0.9757937E-01
          2   -1    0    0  501    0  0.00000000000E+00  0.00000000000E+00  0.10100820834E+04  0.10100820834E+04  0.25500000000E-02 0.  1.
         -2   -1    0    0    0  501 -0.00000000000E+00 -0.00000000000E+00 -0.11333664000E+03  0.11333664003E+03  0.25500000000E-02 0. -1.
    5000001    1    1    2    0    0 -0.22762985235E+03 -0.15164712153E+03  0.43487430559E+03  0.55093453405E+03  0.19900000000E+03 0.  0.
   -5000001    1    1    2    0    0  0.22762985235E+03  0.15164712153E+03  0.46187113780E+03  0.57248418937E+03  0.19900000000E+03 0.  0.
<mgrwt>
<rscale>  0 0.67669582E+03</rscale>
<asrwt>0</asrwt>
<pdfrwt beam="1">  1        2 0.14429744E+00 0.67669582E+03</pdfrwt>
<pdfrwt beam="2">  1       -2 0.16190949E-01 0.67669582E+03</pdfrwt>
<totfact> 0.85566659E+02</totfact>
</mgrwt>
</event>
<event>
 4    1  0.1760335E-005  0.4535573E+03  0.7818608E-02  0.1026667E+00
          2   -1    0    0  501    0  0.00000000000E+00  0.00000000000E+00  0.47499442240E+03  0.47499442241E+03  0.25500000000E-02 0.  1.
         -2   -1    0    0    0  501 -0.00000000000E+00 -0.00000000000E+00 -0.10827191609E+03  0.10827191612E+03  0.25500000000E-02 0. -1.
    5000001    1    1    2    0    0 -0.23486622271E+02 -0.10097172733E+03  0.14108696556E+03  0.26505366060E+03  0.19900000000E+03 0.  0.
   -5000001    1    1    2    0    0  0.23486622271E+02  0.10097172733E+03  0.22563554076E+03  0.31821267793E+03  0.19900000000E+03 0.  0.
<mgrwt>
<rscale>  0 0.45355730E+03</rscale>
<asrwt>0</asrwt>
<pdfrwt beam="1">  1        2 0.67856346E-01 0.45355730E+03</pdfrwt>
<pdfrwt beam="2">  1       -2 0.15467417E-01 0.45355730E+03</pdfrwt>
<totfact> 0.23482476E+03</totfact>
</mgrwt>
</event>
<event>
 4    1  0.1760335E-005  0.6434089E+03  0.7818608E-02  0.9819226E-01
         -2   -1    0    0    0  501 -0.00000000000E+00  0.00000000000E+00  0.94454903055E+02  0.94454903090E+02  0.25500000000E-02 0. -1.
          2   -1    0    0  501    0  0.00000000000E+00 -0.00000000000E+00 -0.10956947401E+04  0.10956947401E+04  0.25500000000E-02 0.  1.
    5000001    1    1    2    0    0 -0.96464605130E+02 -0.22633457926E+03 -0.39339819271E+03  0.50487216187E+03  0.19900000000E+03 0.  0.
   -5000001    1    1    2    0    0  0.96464605130E+02  0.22633457926E+03 -0.60784164433E+03  0.68527748131E+03  0.19900000000E+03 0.  0.
<mgrwt>
<rscale>  0 0.64340886E+03</rscale>
<asrwt>0</asrwt>
<pdfrwt beam="1">  1        2 0.15652781E+00 0.64340886E+03</pdfrwt>
<pdfrwt beam="2">  1       -2 0.13493558E-01 0.64340886E+03</pdfrwt>
<totfact> 0.10351319E+03</totfact>
</mgrwt>
</event>
<event>
 4    1  0.1760335E-005  0.6890989E+03  0.7818608E-02  0.9736058E-01
         -2   -1    0    0    0  501 -0.00000000000E+00  0.00000000000E+00  0.20473455653E+03  0.20473455654E+03  0.25500000000E-02 0. -1.
          2   -1    0    0  501    0  0.00000000000E+00 -0.00000000000E+00 -0.57984502151E+03  0.57984502152E+03  0.25500000000E-02 0.  1.
    5000001    1    1    2    0    0  0.23770507370E+03  0.14913398360E+03 -0.16569412645E+03  0.38183791151E+03  0.19900000000E+03 0.  0.
   -5000001    1    1    2    0    0 -0.23770507370E+03 -0.14913398360E+03 -0.20941633853E+03  0.40274166654E+03  0.19900000000E+03 0.  0.
<mgrwt>
<rscale>  0 0.68909887E+03</rscale>
<asrwt>0</asrwt>
<pdfrwt beam="1">  1        2 0.82835002E-01 0.68909887E+03</pdfrwt>
<pdfrwt beam="2">  1       -2 0.29247794E-01 0.68909887E+03</pdfrwt>
<totfact> 0.60987809E+02</totfact>
</mgrwt>
</event>
<event>
 4    1  0.1760335E-005  0.1238123E+04  0.7818608E-02  0.9080127E-01
         -2   -1    0    0    0  501 -0.00000000000E+00  0.00000000000E+00  0.61607190499E+03  0.61607190500E+03  0.25500000000E-02 0. -1.
          2   -1    0    0  501    0  0.00000000000E+00 -0.00000000000E+00 -0.62206583891E+03  0.62206583891E+03  0.25500000000E-02 0.  1.
    5000001    1    1    2    0    0  0.42425561705E+03 -0.29236912952E+03  0.27658411576E+03  0.61771539530E+03  0.19900000000E+03 0.  0.
   -5000001    1    1    2    0    0 -0.42425561705E+03  0.29236912952E+03 -0.28257804967E+03  0.62042234861E+03  0.19900000000E+03 0.  0.
<mgrwt>
<rscale>  0 0.12381232E+04</rscale>
<asrwt>0</asrwt>
<pdfrwt beam="1">  1        2 0.88866548E-01 0.12381232E+04</pdfrwt>
<pdfrwt beam="2">  1       -2 0.88010273E-01 0.12381232E+04</pdfrwt>
<totfact> 0.57000384E+01</totfact>
</mgrwt>
</event>
<event>
 4    1  0.1760335E-005  0.5093751E+03  0.7818608E-02  0.1011360E+00
         -2   -1    0    0    0  501 -0.00000000000E+00  0.00000000000E+00  0.24336610343E+03  0.24336610344E+03  0.25500000000E-02 0.  1.
          2   -1    0    0  501    0  0.00000000000E+00 -0.00000000000E+00 -0.26653566452E+03  0.26653566453E+03  0.25500000000E-02 0. -1.
    5000001    1    1    2    0    0 -0.14530398198E+03 -0.36253540266E+02 -0.64905038095E+02  0.25737371725E+03  0.19900000000E+03 0.  0.
   -5000001    1    1    2    0    0  0.14530398198E+03  0.36253540266E+02  0.41735477009E+02  0.25252805072E+03  0.19900000000E+03 0.  0.
<mgrwt>
<rscale>  0 0.50937509E+03</rscale>
<asrwt>0</asrwt>
<pdfrwt beam="1">  1        2 0.38076523E-01 0.50937509E+03</pdfrwt>
<pdfrwt beam="2">  1       -2 0.34766586E-01 0.50937509E+03</pdfrwt>
<totfact> 0.10568289E+03</totfact>
</mgrwt>
</event>
<event>
 4    1  0.1760335E-005  0.4612658E+03  0.7818608E-02  0.1024415E+00
         -2   -1    0    0    0  501 -0.00000000000E+00  0.00000000000E+00  0.11190781166E+04  0.11190781166E+04  0.25500000000E-02 0. -1.
          2   -1    0    0  501    0  0.00000000000E+00 -0.00000000000E+00 -0.47531562595E+02  0.47531562663E+02  0.25500000000E-02 0.  1.
    5000001    1    1    2    0    0 -0.20405584809E+02  0.60575323141E+02  0.28920044249E+03  0.35682440164E+03  0.19900000000E+03 0.  0.
   -5000001    1    1    2    0    0  0.20405584809E+02 -0.60575323141E+02  0.78234611148E+03  0.80978527759E+03  0.19900000000E+03 0.  0.
<mgrwt>
<rscale>  0 0.46126579E+03</rscale>
<asrwt>0</asrwt>
<pdfrwt beam="1">  1        2 0.67902234E-02 0.46126579E+03</pdfrwt>
<pdfrwt beam="2">  1       -2 0.15986830E+00 0.46126579E+03</pdfrwt>
<totfact> 0.28235635E+02</totfact>
</mgrwt>
</event>
<event>
 4    1  0.1760335E-005  0.7909956E+03  0.7818608E-02  0.9573143E-01
         -2   -1    0    0    0  501 -0.00000000000E+00  0.00000000000E+00  0.10904972906E+03  0.10904972909E+03  0.25500000000E-02 0. -1.
          2   -1    0    0  501    0  0.00000000000E+00 -0.00000000000E+00 -0.14343779396E+04  0.14343779396E+04  0.25500000000E-02 0.  1.
    5000001    1    1    2    0    0 -0.26755381991E+02  0.33528640668E+03 -0.54422004058E+03  0.67000692350E+03  0.19900000000E+03 0.  0.
   -5000001    1    1    2    0    0  0.26755381991E+02 -0.33528640668E+03 -0.78110817000E+03  0.87342074524E+03  0.19900000000E+03 0.  0.
<mgrwt>
<rscale>  0 0.79099564E+03</rscale>
<asrwt>0</asrwt>
<pdfrwt beam="1">  1        2 0.20491112E+00 0.79099564E+03</pdfrwt>
<pdfrwt beam="2">  1       -2 0.15578534E-01 0.79099564E+03</pdfrwt>
<totfact> 0.52433446E+02</totfact>
</mgrwt>
</event>
<event>
 4    1  0.1760335E-005  0.9000057E+03  0.7818608E-02  0.9425574E-01
          2   -1    0    0  501    0  0.00000000000E+00  0.00000000000E+00  0.29006087616E+03  0.29006087617E+03  0.25500000000E-02 0.  1.
         -2   -1    0    0    0  501 -0.00000000000E+00 -0.00000000000E+00 -0.69813822449E+03  0.69813822450E+03  0.25500000000E-02 0. -1.
    5000001    1    1    2    0    0 -0.17238024250E+03 -0.16134456152E+03 -0.56346056190E+03  0.64252301154E+03  0.19900000000E+03 0.  0.
   -5000001    1    1    2    0    0  0.17238024250E+03  0.16134456152E+03  0.15538321357E+03  0.34567608913E+03  0.19900000000E+03 0.  0.
<mgrwt>
<rscale>  0 0.90000574E+03</rscale>
<asrwt>0</asrwt>
<pdfrwt beam="1">  1        2 0.41437268E-01 0.90000574E+03</pdfrwt>
<pdfrwt beam="2">  1       -2 0.99734031E-01 0.90000574E+03</pdfrwt>
<totfact> 0.10329411E+02</totfact>
</mgrwt>
</event>
<event>
 4    1  0.1760335E-005  0.5387409E+03  0.7818608E-02  0.1004134E+00
         -2   -1    0    0    0  501 -0.00000000000E+00  0.00000000000E+00  0.84523827464E+02  0.84523827502E+02  0.25500000000E-02 0. -1.
          2   -1    0    0  501    0  0.00000000000E+00 -0.00000000000E+00 -0.85846134998E+03  0.85846134998E+03  0.25500000000E-02 0.  1.
    5000001    1    1    2    0    0 -0.33951284331E+02  0.12399479692E+03 -0.61134179347E+03  0.65564257627E+03  0.19900000000E+03 0.  0.
   -5000001    1    1    2    0    0  0.33951284331E+02 -0.12399479692E+03 -0.16259572905E+03  0.28734260122E+03  0.19900000000E+03 0.  0.
<mgrwt>
<rscale>  0 0.53874090E+03</rscale>
<asrwt>0</asrwt>
<pdfrwt beam="1">  1        2 0.12263733E+00 0.53874090E+03</pdfrwt>
<pdfrwt beam="2">  1       -2 0.12074833E-01 0.53874090E+03</pdfrwt>
<totfact> 0.17476107E+03</totfact>
</mgrwt>
</event>
<event>
 4    1  0.1760335E-005  0.6122832E+03  0.7818608E-02  0.9880245E-01
         -2   -1    0    0    0  501 -0.00000000000E+00  0.00000000000E+00  0.49055581349E+03  0.49055581349E+03  0.25500000000E-02 0. -1.
          2   -1    0    0  501    0  0.00000000000E+00 -0.00000000000E+00 -0.19105404143E+03  0.19105404145E+03  0.25500000000E-02 0.  1.
    5000001    1    1    2    0    0 -0.22003080610E+03 -0.58637926997E+02  0.20278662074E+03  0.36410901618E+03  0.19900000000E+03 0.  0.
   -5000001    1    1    2    0    0  0.22003080610E+03  0.58637926997E+02  0.96715151319E+02  0.31750083876E+03  0.19900000000E+03 0.  0.
<mgrwt>
<rscale>  0 0.61228317E+03</rscale>
<asrwt>0</asrwt>
<pdfrwt beam="1">  1        2 0.27293435E-01 0.61228317E+03</pdfrwt>
<pdfrwt beam="2">  1       -2 0.70079402E-01 0.61228317E+03</pdfrwt>
<totfact> 0.37099576E+02</totfact>
</mgrwt>
</event>
<event>
 4    1  0.1760335E-005  0.5701116E+03  0.7818608E-02  0.9969432E-01
         -2   -1    0    0    0  501 -0.00000000000E+00  0.00000000000E+00  0.59014477518E+02  0.59014477573E+02  0.25500000000E-02 0. -1.
          2   -1    0    0  501    0  0.00000000000E+00 -0.00000000000E+00 -0.13768960831E+04  0.13768960831E+04  0.25500000000E-02 0.  1.
    5000001    1    1    2    0    0 -0.18837678990E+03 -0.73527378677E+02 -0.58933707423E+03  0.65407283803E+03  0.19900000000E+03 0.  0.
   -5000001    1    1    2    0    0  0.18837678990E+03  0.73527378677E+02 -0.72854453139E+03  0.78183772268E+03  0.19900000000E+03 0.  0.
<mgrwt>
<rscale>  0 0.57011158E+03</rscale>
<asrwt>0</asrwt>
<pdfrwt beam="1">  1        2 0.19669942E+00 0.57011158E+03</pdfrwt>
<pdfrwt beam="2">  1       -2 0.84306405E-02 0.57011158E+03</pdfrwt>
<totfact> 0.15587472E+03</totfact>
</mgrwt>
</event>
<event>
 4    1  0.1760335E-005  0.8897490E+03  0.7818608E-02  0.9438487E-01
         -2   -1    0    0    0  501 -0.00000000000E+00  0.00000000000E+00  0.14380410427E+03  0.14380410430E+03  0.25500000000E-02 0. -1.
          2   -1    0    0  501    0  0.00000000000E+00 -0.00000000000E+00 -0.13762703905E+04  0.13762703905E+04  0.25500000000E-02 0.  1.
    5000001    1    1    2    0    0  0.31146119489E+03 -0.22170859710E+03 -0.42792135856E+03  0.60735530545E+03  0.19900000000E+03 0.  0.
   -5000001    1    1    2    0    0 -0.31146119489E+03  0.22170859710E+03 -0.80454492762E+03  0.91271918930E+03  0.19900000000E+03 0.  0.
<mgrwt>
<rscale>  0 0.88974902E+03</rscale>
<asrwt>0</asrwt>
<pdfrwt beam="1">  1        2 0.19661005E+00 0.88974902E+03</pdfrwt>
<pdfrwt beam="2">  1       -2 0.20543444E-01 0.88974902E+03</pdfrwt>
<totfact> 0.34752862E+02</totfact>
</mgrwt>
</event>
<event>
 4    1  0.1760335E-005  0.5392670E+03  0.7818608E-02  0.1004009E+00
         -2   -1    0    0    0  501 -0.00000000000E+00  0.00000000000E+00  0.42982335083E+02  0.42982335159E+02  0.25500000000E-02 0. -1.
          2   -1    0    0  501    0  0.00000000000E+00 -0.00000000000E+00 -0.16914440762E+04  0.16914440762E+04  0.25500000000E-02 0.  1.
    5000001    1    1    2    0    0 -0.12591870199E+03 -0.12533803193E+03 -0.95028531977E+03  0.98701992418E+03  0.19900000000E+03 0.  0.
   -5000001    1    1    2    0    0  0.12591870199E+03  0.12533803193E+03 -0.69817642139E+03  0.74740648722E+03  0.19900000000E+03 0.  0.
<mgrwt>
<rscale>  0 0.53926697E+03</rscale>
<asrwt>0</asrwt>
<pdfrwt beam="1">  1        2 0.24163483E+00 0.53926697E+03</pdfrwt>
<pdfrwt beam="2">  1       -2 0.61403347E-02 0.53926697E+03</pdfrwt>
<totfact> 0.17695474E+03</totfact>
</mgrwt>
</event>
<event>
 4    1  0.1760335E-005  0.5995041E+03  0.7818608E-02  0.9906435E-01
          2   -1    0    0  501    0  0.00000000000E+00  0.00000000000E+00  0.12410031940E+04  0.12410031940E+04  0.25500000000E-02 0.  1.
         -2   -1    0    0    0  501 -0.00000000000E+00 -0.00000000000E+00 -0.72402150929E+02  0.72402150974E+02  0.25500000000E-02 0. -1.
    5000001    1    1    2    0    0 -0.21097085687E+03 -0.56456346723E+02  0.69502426752E+03  0.75521901060E+03  0.19900000000E+03 0.  0.
   -5000001    1    1    2    0    0  0.21097085687E+03  0.56456346723E+02  0.47357677551E+03  0.55818633433E+03  0.19900000000E+03 0.  0.
<mgrwt>
<rscale>  0 0.59950413E+03</rscale>
<asrwt>0</asrwt>
<pdfrwt beam="1">  1        2 0.17728616E+00 0.59950413E+03</pdfrwt>
<pdfrwt beam="2">  1       -2 0.10343165E-01 0.59950413E+03</pdfrwt>
<totfact> 0.13275438E+03</totfact>
</mgrwt>
</event>
<event>
 4    1  0.1760335E-005  0.6426651E+03  0.7818608E-02  0.9820641E-01
         -2   -1    0    0    0  501 -0.00000000000E+00  0.00000000000E+00  0.10543440852E+03  0.10543440855E+03  0.25500000000E-02 0. -1.
          2   -1    0    0  501    0  0.00000000000E+00 -0.00000000000E+00 -0.97932560460E+03  0.97932560460E+03  0.25500000000E-02 0.  1.
    5000001    1    1    2    0    0 -0.21532151295E+03 -0.53263754481E+02 -0.63986868359E+03  0.70585643988E+03  0.19900000000E+03 0.  0.
   -5000001    1    1    2    0    0  0.21532151295E+03  0.53263754481E+02 -0.23402251248E+03  0.37890357326E+03  0.19900000000E+03 0.  0.
<mgrwt>
<rscale>  0 0.64266513E+03</rscale>
<asrwt>0</asrwt>
<pdfrwt beam="1">  1        2 0.13990365E+00 0.64266513E+03</pdfrwt>
<pdfrwt beam="2">  1       -2 0.15062059E-01 0.64266513E+03</pdfrwt>
<totfact> 0.10109890E+03</totfact>
</mgrwt>
</event>
<event>
 4    1  0.1760335E-005  0.8960372E+03  0.7818608E-02  0.9430549E-01
         -2   -1    0    0    0  501 -0.00000000000E+00  0.00000000000E+00  0.10482918876E+03  0.10482918879E+03  0.25500000000E-02 0. -1.
          2   -1    0    0  501    0  0.00000000000E+00 -0.00000000000E+00 -0.19147400879E+04  0.19147400879E+04  0.25500000000E-02 0.  1.
    5000001    1    1    2    0    0  0.31082308788E+03  0.24467204514E+03 -0.10585551813E+04  0.11474386579E+04  0.19900000000E+03 0.  0.
   -5000001    1    1    2    0    0 -0.31082308788E+03 -0.24467204514E+03 -0.75135571786E+03  0.87213061888E+03  0.19900000000E+03 0.  0.
<mgrwt>
<rscale>  0 0.89603716E+03</rscale>
<asrwt>0</asrwt>
<pdfrwt beam="1">  1        2 0.27353428E+00 0.89603716E+03</pdfrwt>
<pdfrwt beam="2">  1       -2 0.14975600E-01 0.89603716E+03</pdfrwt>
<totfact> 0.31445863E+02</totfact>
</mgrwt>
</event>
<event>
 4    1  0.1760335E-005  0.6982042E+03  0.7818608E-02  0.9720308E-01
          2   -1    0    0  501    0  0.00000000000E+00  0.00000000000E+00  0.96474999155E+03  0.96474999155E+03  0.25500000000E-02 0.  1.
         -2   -1    0    0    0  501 -0.00000000000E+00 -0.00000000000E+00 -0.12632523468E+03  0.12632523471E+03  0.25500000000E-02 0. -1.
    5000001    1    1    2    0    0 -0.23693984855E+03 -0.47697863007E+02  0.66057402075E+03  0.73100931243E+03  0.19900000000E+03 0.  0.
   -5000001    1    1    2    0    0  0.23693984855E+03  0.47697863007E+02  0.17785073611E+03  0.36006591383E+03  0.19900000000E+03 0.  0.
<mgrwt>
<rscale>  0 0.69820418E+03</rscale>
<asrwt>0</asrwt>
<pdfrwt beam="1">  1        2 0.13782142E+00 0.69820418E+03</pdfrwt>
<pdfrwt beam="2">  1       -2 0.18046463E-01 0.69820418E+03</pdfrwt>
<totfact> 0.75730737E+02</totfact>
</mgrwt>
</event>
<event>
 4    1  0.1760335E-005  0.1070198E+04  0.7818608E-02  0.9234735E-01
         -2   -1    0    0    0  501 -0.00000000000E+00  0.00000000000E+00  0.31659236650E+03  0.31659236651E+03  0.25500000000E-02 0. -1.
          2   -1    0    0  501    0  0.00000000000E+00 -0.00000000000E+00 -0.90441581897E+03  0.90441581898E+03  0.25500000000E-02 0.  1.
    5000001    1    1    2    0    0 -0.23594472741E+03 -0.42066068887E+03 -0.15841213639E+03  0.54527124856E+03  0.19900000000E+03 0.  0.
   -5000001    1    1    2    0    0  0.23594472741E+03  0.42066068887E+03 -0.42941131608E+03  0.67573693693E+03  0.19900000000E+03 0.  0.
<mgrwt>
<rscale>  0 0.10701984E+04</rscale>
<asrwt>0</asrwt>
<pdfrwt beam="1">  1        2 0.12920226E+00 0.10701984E+04</pdfrwt>
<pdfrwt beam="2">  1       -2 0.45227481E-01 0.10701984E+04</pdfrwt>
<totfact> 0.14883942E+02</totfact>
</mgrwt>
</event>
<event>
 4    1  0.1760335E-005  0.7324936E+03  0.7818608E-02  0.9663223E-01
         -2   -1    0    0    0  501 -0.00000000000E+00  0.00000000000E+00  0.12631171303E+03  0.12631171305E+03  0.25500000000E-02 0. -1.
          2   -1    0    0  501    0  0.00000000000E+00 -0.00000000000E+00 -0.10619498253E+04  0.10619498253E+04  0.25500000000E-02 0.  1.
    5000001    1    1    2    0    0  0.25899012402E+03  0.10857425483E+03 -0.26474109142E+03  0.43422701279E+03  0.19900000000E+03 0.  0.
   -5000001    1    1    2    0    0 -0.25899012402E+03 -0.10857425483E+03 -0.67089702086E+03  0.75403452557E+03  0.19900000000E+03 0.  0.
<mgrwt>
<rscale>  0 0.73249355E+03</rscale>
<asrwt>0</asrwt>
<pdfrwt beam="1">  1        2 0.15170711E+00 0.73249355E+03</pdfrwt>
<pdfrwt beam="2">  1       -2 0.18044531E-01 0.73249355E+03</pdfrwt>
<totfact> 0.66012479E+02</totfact>
</mgrwt>
</event>
<event>
 4    1  0.1760335E-005  0.6371646E+03  0.7818608E-02  0.9831166E-01
          2   -1    0    0  501    0  0.00000000000E+00  0.00000000000E+00  0.17040818372E+04  0.17040818372E+04  0.25500000000E-02 0.  1.
         -2   -1    0    0    0  501 -0.00000000000E+00 -0.00000000000E+00 -0.59559750192E+02  0.59559750246E+02  0.25500000000E-02 0. -1.
    5000001    1    1    2    0    0 -0.15125601053E+03 -0.98869590835E+02  0.34894830532E+03  0.44047644262E+03  0.19900000000E+03 0.  0.
   -5000001    1    1    2    0    0  0.15125601053E+03  0.98869590835E+02  0.12955737817E+04  0.13231651449E+04  0.19900000000E+03 0.  0.
<mgrwt>
<rscale>  0 0.63716462E+03</rscale>
<asrwt>0</asrwt>
<pdfrwt beam="1">  1        2 0.24344029E+00 0.63716462E+03</pdfrwt>
<pdfrwt beam="2">  1       -2 0.85085347E-02 0.63716462E+03</pdfrwt>
<totfact> 0.10361711E+03</totfact>
</mgrwt>
</event>
<event>
 4    1  0.1760335E-005  0.6508844E+03  0.7818608E-02  0.9805121E-01
         -2   -1    0    0    0  501 -0.00000000000E+00  0.00000000000E+00  0.58378503264E+02  0.58378503320E+02  0.25500000000E-02 0. -1.
          2   -1    0    0  501    0  0.00000000000E+00 -0.00000000000E+00 -0.18142399464E+04  0.18142399464E+04  0.25500000000E-02 0.  1.
    5000001    1    1    2    0    0  0.61825144220E+02 -0.24997433254E+03 -0.87376417670E+03  0.93240246239E+03  0.19900000000E+03 0.  0.
   -5000001    1    1    2    0    0 -0.61825144220E+02  0.24997433254E+03 -0.88209726645E+03  0.94021598735E+03  0.19900000000E+03 0.  0.
<mgrwt>
<rscale>  0 0.65088436E+03</rscale>
<asrwt>0</asrwt>
<pdfrwt beam="1">  1        2 0.25917710E+00 0.65088436E+03</pdfrwt>
<pdfrwt beam="2">  1       -2 0.83397873E-02 0.65088436E+03</pdfrwt>
<totfact> 0.94005300E+02</totfact>
</mgrwt>
</event>
<event>
 4    1  0.1760335E-005  0.5381032E+03  0.7818608E-02  0.1004286E+00
          2   -1    0    0  501    0  0.00000000000E+00  0.00000000000E+00  0.20685356555E+04  0.20685356555E+04  0.25500000000E-02 0.  1.
         -2   -1    0    0    0  501 -0.00000000000E+00 -0.00000000000E+00 -0.34995171186E+02  0.34995171279E+02  0.25500000000E-02 0. -1.
    5000001    1    1    2    0    0 -0.57412177343E+02  0.13335581604E+03  0.59378863875E+03  0.64285758866E+03  0.19900000000E+03 0.  0.
   -5000001    1    1    2    0    0  0.57412177343E+02 -0.13335581604E+03  0.14397518456E+04  0.14606732381E+04  0.19900000000E+03 0.  0.
<mgrwt>
<rscale>  0 0.53810319E+03</rscale>
<asrwt>0</asrwt>
<pdfrwt beam="1">  1        2 0.29550505E+00 0.53810319E+03</pdfrwt>
<pdfrwt beam="2">  1       -2 0.49993110E-02 0.53810319E+03</pdfrwt>
<totfact> 0.15755273E+03</totfact>
</mgrwt>
</event>
<event>
 4    1  0.1760335E-005  0.5825829E+03  0.7818608E-02  0.9942215E-01
         -2   -1    0    0    0  501 -0.00000000000E+00  0.00000000000E+00  0.15733522069E+03  0.15733522071E+03  0.25500000000E-02 0. -1.
          2   -1    0    0  501    0  0.00000000000E+00 -0.00000000000E+00 -0.53929880683E+03  0.53929880683E+03  0.25500000000E-02 0.  1.
    5000001    1    1    2    0    0  0.99058956203E+01 -0.13910895264E+03  0.10880146561E+01  0.24300537288E+03  0.19900000000E+03 0.  0.
   -5000001    1    1    2    0    0 -0.99058956203E+01  0.13910895264E+03 -0.38305160079E+03  0.45362865467E+03  0.19900000000E+03 0.  0.
<mgrwt>
<rscale>  0 0.58258286E+03</rscale>
<asrwt>0</asrwt>
<pdfrwt beam="1">  1        2 0.77042686E-01 0.58258286E+03</pdfrwt>
<pdfrwt beam="2">  1       -2 0.22476460E-01 0.58258286E+03</pdfrwt>
<totfact> 0.10691851E+03</totfact>
</mgrwt>
</event>
<event>
 4    1  0.1760335E-005  0.5829843E+03  0.7818608E-02  0.9941351E-01
         -2   -1    0    0    0  501 -0.00000000000E+00  0.00000000000E+00  0.77991058642E+02  0.77991058684E+02  0.25500000000E-02 0. -1.
          2   -1    0    0  501    0  0.00000000000E+00 -0.00000000000E+00 -0.10894540412E+04  0.10894540412E+04  0.25500000000E-02 0.  1.
    5000001    1    1    2    0    0 -0.12679606148E+03 -0.15876512247E+03 -0.37777186862E+03  0.47285958809E+03  0.19900000000E+03 0.  0.
   -5000001    1    1    2    0    0  0.12679606148E+03  0.15876512247E+03 -0.63369111391E+03  0.69458551178E+03  0.19900000000E+03 0.  0.
<mgrwt>
<rscale>  0 0.58298430E+03</rscale>
<asrwt>0</asrwt>
<pdfrwt beam="1">  1        2 0.15563628E+00 0.58298430E+03</pdfrwt>
<pdfrwt beam="2">  1       -2 0.11141580E-01 0.58298430E+03</pdfrwt>
<totfact> 0.14341168E+03</totfact>
</mgrwt>
</event>
<event>
 4    1  0.1760335E-005  0.6054666E+03  0.7818608E-02  0.9894129E-01
         -2   -1    0    0    0  501 -0.00000000000E+00  0.00000000000E+00  0.74178681991E+02  0.74178682035E+02  0.25500000000E-02 0. -1.
          2   -1    0    0  501    0  0.00000000000E+00 -0.00000000000E+00 -0.12354958068E+04  0.12354958068E+04  0.25500000000E-02 0.  1.
    5000001    1    1    2    0    0  0.12676734847E+03 -0.13151408727E+03 -0.28501540574E+03  0.39268396618E+03  0.19900000000E+03 0.  0.
   -5000001    1    1    2    0    0 -0.12676734847E+03  0.13151408727E+03 -0.87630171906E+03  0.91699052264E+03  0.19900000000E+03 0.  0.
<mgrwt>
<rscale>  0 0.60546660E+03</rscale>
<asrwt>0</asrwt>
<pdfrwt beam="1">  1        2 0.17649939E+00 0.60546660E+03</pdfrwt>
<pdfrwt beam="2">  1       -2 0.10596955E-01 0.60546660E+03</pdfrwt>
<totfact> 0.12849785E+03</totfact>
</mgrwt>
</event>
<event>
 4    1  0.1760335E-005  0.6721441E+03  0.7818608E-02  0.9766092E-01
         -2   -1    0    0    0  501 -0.00000000000E+00  0.00000000000E+00  0.30937473408E+02  0.30937473513E+02  0.25500000000E-02 0. -1.
          2   -1    0    0  501    0  0.00000000000E+00 -0.00000000000E+00 -0.36507320951E+04  0.36507320951E+04  0.25500000000E-02 0.  1.
    5000001    1    1    2    0    0  0.40798506062E+01  0.25572961153E+03 -0.22976455025E+04  0.23203857728E+04  0.19900000000E+03 0.  0.
   -5000001    1    1    2    0    0 -0.40798506062E+01 -0.25572961153E+03 -0.13221491191E+04  0.13612837958E+04  0.19900000000E+03 0.  0.
<mgrwt>
<rscale>  0 0.67214411E+03</rscale>
<asrwt>0</asrwt>
<pdfrwt beam="1">  1        2 0.52153288E+00 0.67214411E+03</pdfrwt>
<pdfrwt beam="2">  1       -2 0.44196414E-02 0.67214411E+03</pdfrwt>
<totfact> 0.26201885E+02</totfact>
</mgrwt>
</event>
<event>
 4    1  0.1760335E-005  0.8588101E+03  0.7818608E-02  0.9478588E-01
          2   -1    0    0  501    0  0.00000000000E+00  0.00000000000E+00  0.15535146816E+04  0.15535146816E+04  0.25500000000E-02 0.  1.
         -2   -1    0    0    0  501 -0.00000000000E+00 -0.00000000000E+00 -0.11869129905E+03  0.11869129908E+03  0.25500000000E-02 0. -1.
    5000001    1    1    2    0    0  0.21591710342E+03 -0.14563020395E+03  0.12575727549E+04  0.12995840049E+04  0.19900000000E+03 0.  0.
   -5000001    1    1    2    0    0 -0.21591710342E+03  0.14563020395E+03  0.17725062762E+03  0.37262197579E+03  0.19900000000E+03 0.  0.
<mgrwt>
<rscale>  0 0.85881005E+03</rscale>
<asrwt>0</asrwt>
<pdfrwt beam="1">  1        2 0.22193065E+00 0.85881005E+03</pdfrwt>
<pdfrwt beam="2">  1       -2 0.16955901E-01 0.85881005E+03</pdfrwt>
<totfact> 0.39117983E+02</totfact>
</mgrwt>
</event>
<event>
 4    1  0.1760335E-005  0.5462252E+03  0.7818608E-02  0.1002371E+00
         -2   -1    0    0    0  501 -0.00000000000E+00  0.00000000000E+00  0.73012747082E+02  0.73012747126E+02  0.25500000000E-02 0. -1.
          2   -1    0    0  501    0  0.00000000000E+00 -0.00000000000E+00 -0.10216089996E+04  0.10216089996E+04  0.25500000000E-02 0.  1.
    5000001    1    1    2    0    0 -0.16105683779E+03  0.88960121452E+02 -0.54184937772E+03  0.60585060563E+03  0.19900000000E+03 0.  0.
   -5000001    1    1    2    0    0  0.16105683779E+03 -0.88960121452E+02 -0.40674687477E+03  0.48877114107E+03  0.19900000000E+03 0.  0.
<mgrwt>
<rscale>  0 0.54622515E+03</rscale>
<asrwt>0</asrwt>
<pdfrwt beam="1">  1        2 0.14594413E+00 0.54622515E+03</pdfrwt>
<pdfrwt beam="2">  1       -2 0.10430393E-01 0.54622515E+03</pdfrwt>
<totfact> 0.17525272E+03</totfact>
</mgrwt>
</event>
<event>
 4    1  0.1760335E-005  0.6191295E+03  0.7818608E-02  0.9866494E-01
          2   -1    0    0  501    0  0.00000000000E+00  0.00000000000E+00  0.23985623140E+04  0.23985623140E+04  0.25500000000E-02 0.  1.
         -2   -1    0    0    0  501 -0.00000000000E+00 -0.00000000000E+00 -0.39953235700E+02  0.39953235781E+02  0.25500000000E-02 0. -1.
    5000001    1    1    2    0    0  0.81188851768E+02  0.54156642980E+02  0.20304907825E+04  0.20425519306E+04  0.19900000000E+03 0.  0.
   -5000001    1    1    2    0    0 -0.81188851768E+02 -0.54156642980E+02  0.32811829582E+03  0.39596361914E+03  0.19900000000E+03 0.  0.
<mgrwt>
<rscale>  0 0.61912947E+03</rscale>
<asrwt>0</asrwt>
<pdfrwt beam="1">  1        2 0.34265171E+00 0.61912947E+03</pdfrwt>
<pdfrwt beam="2">  1       -2 0.57076059E-02 0.61912947E+03</pdfrwt>
<totfact> 0.86970022E+02</totfact>
</mgrwt>
</event>
<event>
 4    1  0.1760335E-005  0.5362362E+03  0.7818608E-02  0.1004731E+00
          2   -1    0    0  501    0  0.00000000000E+00  0.00000000000E+00  0.89946080654E+03  0.89946080654E+03  0.25500000000E-02 0.  1.
         -2   -1    0    0    0  501 -0.00000000000E+00 -0.00000000000E+00 -0.79922676602E+02  0.79922676642E+02  0.25500000000E-02 0. -1.
    5000001    1    1    2    0    0  0.13648341921E+03 -0.81402569372E+02  0.56292811400E+03  0.61785367487E+03  0.19900000000E+03 0.  0.
   -5000001    1    1    2    0    0 -0.13648341921E+03  0.81402569372E+02  0.25661001593E+03  0.36152980831E+03  0.19900000000E+03 0.  0.
<mgrwt>
<rscale>  0 0.53623620E+03</rscale>
<asrwt>0</asrwt>
<pdfrwt beam="1">  1        2 0.12849440E+00 0.53623620E+03</pdfrwt>
<pdfrwt beam="2">  1       -2 0.11417525E-01 0.53623620E+03</pdfrwt>
<totfact> 0.18011995E+03</totfact>
</mgrwt>
</event>
<event>
 4    1  0.1760335E-005  0.7644190E+03  0.7818608E-02  0.9612997E-01
         -2   -1    0    0    0  501 -0.00000000000E+00  0.00000000000E+00  0.40355235753E+03  0.40355235754E+03  0.25500000000E-02 0. -1.
          2   -1    0    0  501    0  0.00000000000E+00 -0.00000000000E+00 -0.36199538603E+03  0.36199538604E+03  0.25500000000E-02 0.  1.
    5000001    1    1    2    0    0 -0.80319312571E+02 -0.31456200562E+03 -0.12173658538E+02  0.38098509855E+03  0.19900000000E+03 0.  0.
   -5000001    1    1    2    0    0  0.80319312571E+02  0.31456200562E+03  0.53730630039E+02  0.38456264503E+03  0.19900000000E+03 0.  0.
<mgrwt>
<rscale>  0 0.76441897E+03</rscale>
<asrwt>0</asrwt>
<pdfrwt beam="1">  1        2 0.51713627E-01 0.76441897E+03</pdfrwt>
<pdfrwt beam="2">  1       -2 0.57650337E-01 0.76441897E+03</pdfrwt>
<totfact> 0.27461908E+02</totfact>
</mgrwt>
</event>
<event>
 4    1  0.1760335E-005  0.5653081E+03  0.7818608E-02  0.9980115E-01
         -2   -1    0    0    0  501 -0.00000000000E+00  0.00000000000E+00  0.49596126622E+02  0.49596126688E+02  0.25500000000E-02 0. -1.
          2   -1    0    0  501    0  0.00000000000E+00 -0.00000000000E+00 -0.16108780551E+04  0.16108780551E+04  0.25500000000E-02 0.  1.
    5000001    1    1    2    0    0  0.20603995639E+02  0.14854744070E+03 -0.11725403209E+04  0.11987254360E+04  0.19900000000E+03 0.  0.
   -5000001    1    1    2    0    0 -0.20603995639E+02 -0.14854744070E+03 -0.38874160757E+03  0.46174874579E+03  0.19900000000E+03 0.  0.
<mgrwt>
<rscale>  0 0.56530810E+03</rscale>
<asrwt>0</asrwt>
<pdfrwt beam="1">  1        2 0.23012540E+00 0.56530810E+03</pdfrwt>
<pdfrwt beam="2">  1       -2 0.70851620E-02 0.56530810E+03</pdfrwt>
<totfact> 0.15517043E+03</totfact>
</mgrwt>
</event>
<event>
 4    1  0.1760335E-005  0.5521406E+03  0.7818608E-02  0.1001000E+00
          2   -1    0    0  501    0  0.00000000000E+00  0.00000000000E+00  0.70304632244E+03  0.70304632244E+03  0.25500000000E-02 0.  1.
         -2   -1    0    0    0  501 -0.00000000000E+00 -0.00000000000E+00 -0.10840651284E+03  0.10840651287E+03  0.25500000000E-02 0. -1.
    5000001    1    1    2    0    0  0.84781788414E+01 -0.17511154484E+03  0.18464595311E+03  0.32315795001E+03  0.19900000000E+03 0.  0.
   -5000001    1    1    2    0    0 -0.84781788414E+01  0.17511154484E+03  0.40999385649E+03  0.48829488530E+03  0.19900000000E+03 0.  0.
<mgrwt>
<rscale>  0 0.55214056E+03</rscale>
<asrwt>0</asrwt>
<pdfrwt beam="1">  1        2 0.10043519E+00 0.55214056E+03</pdfrwt>
<pdfrwt beam="2">  1       -2 0.15486645E-01 0.55214056E+03</pdfrwt>
<totfact> 0.14858821E+03</totfact>
</mgrwt>
</event>
<event>
 4    1  0.1760335E-005  0.8066002E+03  0.7818608E-02  0.9550512E-01
         -2   -1    0    0    0  501 -0.00000000000E+00  0.00000000000E+00  0.40154927987E+03  0.40154927988E+03  0.25500000000E-02 0. -1.
          2   -1    0    0  501    0  0.00000000000E+00 -0.00000000000E+00 -0.40505858933E+03  0.40505858934E+03  0.25500000000E-02 0.  1.
    5000001    1    1    2    0    0  0.32250262674E+03 -0.93562158142E+02 -0.10318619772E+03  0.40374523290E+03  0.19900000000E+03 0.  0.
   -5000001    1    1    2    0    0 -0.32250262674E+03  0.93562158142E+02  0.99676888256E+02  0.40286263632E+03  0.19900000000E+03 0.  0.
<mgrwt>
<rscale>  0 0.80660024E+03</rscale>
<asrwt>0</asrwt>
<pdfrwt beam="1">  1        2 0.57865513E-01 0.80660024E+03</pdfrwt>
<pdfrwt beam="2">  1       -2 0.57364183E-01 0.80660024E+03</pdfrwt>
<totfact> 0.24439565E+02</totfact>
</mgrwt>
</event>
<event>
 4    1  0.1760335E-005  0.7111998E+03  0.7818608E-02  0.9698269E-01
          2   -1    0    0  501    0  0.00000000000E+00  0.00000000000E+00  0.14990726319E+04  0.14990726319E+04  0.25500000000E-02 0.  1.
         -2   -1    0    0    0  501 -0.00000000000E+00 -0.00000000000E+00 -0.84353001650E+02  0.84353001689E+02  0.25500000000E-02 0. -1.
    5000001    1    1    2    0    0  0.24101331509E+03 -0.12259563188E+03  0.44644937769E+03  0.55860106860E+03  0.19900000000E+03 0.  0.
   -5000001    1    1    2    0    0 -0.24101331509E+03  0.12259563188E+03  0.96827025258E+03  0.10248245650E+04  0.19900000000E+03 0.  0.
<mgrwt>
<rscale>  0 0.71119976E+03</rscale>
<asrwt>0</asrwt>
<pdfrwt beam="1">  1        2 0.21415322E+00 0.71119976E+03</pdfrwt>
<pdfrwt beam="2">  1       -2 0.12050429E-01 0.71119976E+03</pdfrwt>
<totfact> 0.74799431E+02</totfact>
</mgrwt>
</event>
<event>
 4    1  0.1760335E-005  0.1045681E+04  0.7818608E-02  0.9259815E-01
         -2   -1    0    0    0  501 -0.00000000000E+00  0.00000000000E+00  0.50174556636E+03  0.50174556637E+03  0.25500000000E-02 0. -1.
          2   -1    0    0  501    0  0.00000000000E+00 -0.00000000000E+00 -0.54482216866E+03  0.54482216867E+03  0.25500000000E-02 0.  1.
    5000001    1    1    2    0    0  0.14446923125E+03 -0.42978996883E+03 -0.18952085041E+03  0.53019800907E+03  0.19900000000E+03 0.  0.
   -5000001    1    1    2    0    0 -0.14446923125E+03  0.42978996883E+03  0.14644424811E+03  0.51636972596E+03  0.19900000000E+03 0.  0.
<mgrwt>
<rscale>  0 0.10456808E+04</rscale>
<asrwt>0</asrwt>
<pdfrwt beam="1">  1        2 0.77831738E-01 0.10456808E+04</pdfrwt>
<pdfrwt beam="2">  1       -2 0.71677938E-01 0.10456808E+04</pdfrwt>
<totfact> 0.10695871E+02</totfact>
</mgrwt>
</event>
<event>
 4    1  0.1760335E-005  0.7640105E+03  0.7818608E-02  0.9613623E-01
          2   -1    0    0  501    0  0.00000000000E+00  0.00000000000E+00  0.14776600689E+04  0.14776600689E+04  0.25500000000E-02 0.  1.
         -2   -1    0    0    0  501 -0.00000000000E+00 -0.00000000000E+00 -0.98756136633E+02  0.98756136666E+02  0.25500000000E-02 0. -1.
    5000001    1    1    2    0    0 -0.72666494498E+02  0.64834120495E+02  0.13315568308E+04  0.13498623916E+04  0.19900000000E+03 0.  0.
   -5000001    1    1    2    0    0  0.72666494498E+02 -0.64834120495E+02  0.47347101457E+02  0.22655381396E+03  0.19900000000E+03 0.  0.
<mgrwt>
<rscale>  0 0.76401047E+03</rscale>
<asrwt>0</asrwt>
<pdfrwt beam="1">  1        2 0.21109428E+00 0.76401047E+03</pdfrwt>
<pdfrwt beam="2">  1       -2 0.14108021E-01 0.76401047E+03</pdfrwt>
<totfact> 0.58884256E+02</totfact>
</mgrwt>
</event>
<event>
 4    1  0.1760335E-005  0.4540395E+03  0.7818608E-02  0.1026524E+00
         -2   -1    0    0    0  501 -0.00000000000E+00  0.00000000000E+00  0.42416459218E+02  0.42416459295E+02  0.25500000000E-02 0. -1.
          2   -1    0    0  501    0  0.00000000000E+00 -0.00000000000E+00 -0.12150462300E+04  0.12150462300E+04  0.25500000000E-02 0.  1.
    5000001    1    1    2    0    0 -0.62193179320E+02  0.12769792569E+02 -0.34006436534E+03  0.39909376308E+03  0.19900000000E+03 0.  0.
   -5000001    1    1    2    0    0  0.62193179320E+02 -0.12769792569E+02 -0.83256540545E+03  0.85836892623E+03  0.19900000000E+03 0.  0.
<mgrwt>
<rscale>  0 0.45403946E+03</rscale>
<asrwt>0</asrwt>
<pdfrwt beam="1">  1        2 0.17357801E+00 0.45403946E+03</pdfrwt>
<pdfrwt beam="2">  1       -2 0.60594949E-02 0.45403946E+03</pdfrwt>
<totfact> 0.32155114E+03</totfact>
</mgrwt>
</event>
<event>
 4    1  0.1760335E-005  0.6996566E+03  0.7818608E-02  0.9717820E-01
         -2   -1    0    0    0  501 -0.00000000000E+00  0.00000000000E+00  0.46686677227E+02  0.46686677297E+02  0.25500000000E-02 0. -1.
          2   -1    0    0  501    0  0.00000000000E+00 -0.00000000000E+00 -0.26213007988E+04  0.26213007988E+04  0.25500000000E-02 0.  1.
    5000001    1    1    2    0    0 -0.27284678144E+03 -0.35674748446E+02 -0.16077309804E+04  0.16432035659E+04  0.19900000000E+03 0.  0.
   -5000001    1    1    2    0    0  0.27284678144E+03  0.35674748446E+02 -0.96688314126E+03  0.10247839102E+04  0.19900000000E+03 0.  0.
<mgrwt>
<rscale>  0 0.69965656E+03</rscale>
<asrwt>0</asrwt>
<pdfrwt beam="1">  1        2 0.37447145E+00 0.69965656E+03</pdfrwt>
<pdfrwt beam="2">  1       -2 0.66695270E-02 0.69965656E+03</pdfrwt>
<totfact> 0.51952149E+02</totfact>
</mgrwt>
</event>
<event>
 4    1  0.1760335E-005  0.9460433E+03  0.7818608E-02  0.9369787E-01
         -2   -1    0    0    0  501 -0.00000000000E+00  0.00000000000E+00  0.16647357076E+03  0.16647357078E+03  0.25500000000E-02 0.  1.
          2   -1    0    0  501    0  0.00000000000E+00 -0.00000000000E+00 -0.13440541204E+04  0.13440541204E+04  0.25500000000E-02 0. -1.
    5000001    1    1    2    0    0  0.40539525772E+03 -0.12428865335E+03 -0.69416510754E+03  0.83741219293E+03  0.19900000000E+03 0.  0.
   -5000001    1    1    2    0    0 -0.40539525772E+03  0.12428865335E+03 -0.48341544208E+03  0.67311549825E+03  0.19900000000E+03 0.  0.
<mgrwt>
<rscale>  0 0.94604332E+03</rscale>
<asrwt>0</asrwt>
<pdfrwt beam="1">  1        2 0.19200773E+00 0.94604332E+03</pdfrwt>
<pdfrwt beam="2">  1       -2 0.23781939E-01 0.94604332E+03</pdfrwt>
<totfact> 0.27810502E+02</totfact>
</mgrwt>
</event>
<event>
 4    1  0.1760335E-005  0.4163650E+03  0.7818608E-02  0.1038256E+00
          2   -1    0    0  501    0  0.00000000000E+00  0.00000000000E+00  0.12004264828E+04  0.12004264828E+04  0.25500000000E-02 0.  1.
         -2   -1    0    0    0  501 -0.00000000000E+00 -0.00000000000E+00 -0.36103791589E+02  0.36103791679E+02  0.25500000000E-02 0. -1.
    5000001    1    1    2    0    0  0.56325915858E+02  0.23047157261E+02  0.59977301103E+03  0.63484836380E+03  0.19900000000E+03 0.  0.
   -5000001    1    1    2    0    0 -0.56325915858E+02 -0.23047157261E+02  0.56454968021E+03  0.60168191072E+03  0.19900000000E+03 0.  0.
<mgrwt>
<rscale>  0 0.41636497E+03</rscale>
<asrwt>0</asrwt>
<pdfrwt beam="1">  1        2 0.17148950E+00 0.41636497E+03</pdfrwt>
<pdfrwt beam="2">  1       -2 0.51576845E-02 0.41636497E+03</pdfrwt>
<totfact> 0.42023147E+03</totfact>
</mgrwt>
</event>
<event>
 4    1  0.1760335E-005  0.7081739E+03  0.7818608E-02  0.9703355E-01
         -2   -1    0    0    0  501 -0.00000000000E+00  0.00000000000E+00  0.61357884103E+02  0.61357884156E+02  0.25500000000E-02 0. -1.
          2   -1    0    0  501    0  0.00000000000E+00 -0.00000000000E+00 -0.20433816286E+04  0.20433816286E+04  0.25500000000E-02 0.  1.
    5000001    1    1    2    0    0  0.48634286605E+01  0.26579888537E+03 -0.13562722708E+04  0.13963338329E+04  0.19900000000E+03 0.  0.
   -5000001    1    1    2    0    0 -0.48634286605E+01 -0.26579888537E+03 -0.62575147372E+03  0.70840567986E+03  0.19900000000E+03 0.  0.
<mgrwt>
<rscale>  0 0.70817391E+03</rscale>
<asrwt>0</asrwt>
<pdfrwt beam="1">  1        2 0.29191162E+00 0.70817391E+03</pdfrwt>
<pdfrwt beam="2">  1       -2 0.87654133E-02 0.70817391E+03</pdfrwt>
<totfact> 0.66267684E+02</totfact>
</mgrwt>
</event>
<event>
 4    1  0.1760335E-005  0.1225034E+04  0.7818608E-02  0.9091222E-01
          2   -1    0    0  501    0  0.00000000000E+00  0.00000000000E+00  0.46184522484E+03  0.46184522484E+03  0.25500000000E-02 0.  1.
         -2   -1    0    0    0  501 -0.00000000000E+00 -0.00000000000E+00 -0.81234332327E+03  0.81234332327E+03  0.25500000000E-02 0. -1.
    5000001    1    1    2    0    0 -0.54695343801E+03  0.93504071156E+02 -0.34828167179E+03  0.68469131554E+03  0.19900000000E+03 0.  0.
   -5000001    1    1    2    0    0  0.54695343801E+03 -0.93504071156E+02 -0.22164266386E+01  0.58949723258E+03  0.19900000000E+03 0.  0.
<mgrwt>
<rscale>  0 0.12250337E+04</rscale>
<asrwt>0</asrwt>
<pdfrwt beam="1">  1        2 0.65977889E-01 0.12250337E+04</pdfrwt>
<pdfrwt beam="2">  1       -2 0.11604905E+00 0.12250337E+04</pdfrwt>
<totfact> 0.41808461E+01</totfact>
</mgrwt>
</event>
<event>
 4    1  0.1760335E-005  0.6582157E+03  0.7818608E-02  0.9791484E-01
         -2   -1    0    0    0  501 -0.00000000000E+00  0.00000000000E+00  0.77740555110E+02  0.77740555152E+02  0.25500000000E-02 0. -1.
          2   -1    0    0  501    0  0.00000000000E+00 -0.00000000000E+00 -0.13932491602E+04  0.13932491602E+04  0.25500000000E-02 0.  1.
    5000001    1    1    2    0    0 -0.18097453714E+03 -0.12430463482E+03 -0.97778982629E+03  0.10217031710E+04  0.19900000000E+03 0.  0.
   -5000001    1    1    2    0    0  0.18097453714E+03  0.12430463482E+03 -0.33771877875E+03  0.44928654426E+03  0.19900000000E+03 0.  0.
<mgrwt>
<rscale>  0 0.65821566E+03</rscale>
<asrwt>0</asrwt>
<pdfrwt beam="1">  1        2 0.19903558E+00 0.65821566E+03</pdfrwt>
<pdfrwt beam="2">  1       -2 0.11105794E-01 0.65821566E+03</pdfrwt>
<totfact> 0.97535047E+02</totfact>
</mgrwt>
</event>
<event>
 4    1  0.1760335E-005  0.8977349E+03  0.7818608E-02  0.9428417E-01
         -2   -1    0    0    0  501 -0.00000000000E+00  0.00000000000E+00  0.20632087890E+03  0.20632087891E+03  0.25500000000E-02 0. -1.
          2   -1    0    0  501    0  0.00000000000E+00 -0.00000000000E+00 -0.97654681991E+03  0.97654681992E+03  0.25500000000E-02 0.  1.
    5000001    1    1    2    0    0 -0.38081256767E+03  0.92053001517E+02 -0.26443056392E+03  0.51285133315E+03  0.19900000000E+03 0.  0.
   -5000001    1    1    2    0    0  0.38081256767E+03 -0.92053001517E+02 -0.50579537710E+03  0.67001636568E+03  0.19900000000E+03 0.  0.
<mgrwt>
<rscale>  0 0.89773492E+03</rscale>
<asrwt>0</asrwt>
<pdfrwt beam="1">  1        2 0.13950669E+00 0.89773492E+03</pdfrwt>
<pdfrwt beam="2">  1       -2 0.29474412E-01 0.89773492E+03</pdfrwt>
<totfact> 0.30769092E+02</totfact>
</mgrwt>
</event>
<event>
 4    1  0.1760335E-005  0.5212642E+03  0.7818608E-02  0.1008373E+00
         -2   -1    0    0    0  501 -0.00000000000E+00  0.00000000000E+00  0.56004342501E+02  0.56004342559E+02  0.25500000000E-02 0. -1.
          2   -1    0    0  501    0  0.00000000000E+00 -0.00000000000E+00 -0.12129256517E+04  0.12129256517E+04  0.25500000000E-02 0.  1.
    5000001    1    1    2    0    0  0.37567872699E+02 -0.15598117142E+03 -0.45465310927E+03  0.52158596670E+03  0.19900000000E+03 0.  0.
   -5000001    1    1    2    0    0 -0.37567872699E+02  0.15598117142E+03 -0.70226819996E+03  0.74734402759E+03  0.19900000000E+03 0.  0.
<mgrwt>
<rscale>  0 0.52126425E+03</rscale>
<asrwt>0</asrwt>
<pdfrwt beam="1">  1        2 0.17327508E+00 0.52126425E+03</pdfrwt>
<pdfrwt beam="2">  1       -2 0.80006211E-02 0.52126425E+03</pdfrwt>
<totfact> 0.20820998E+03</totfact>
</mgrwt>
</event>
<event>
 4    1  0.1760335E-005  0.1167473E+04  0.7818608E-02  0.9141813E-01
         -2   -1    0    0    0  501 -0.00000000000E+00  0.00000000000E+00  0.78644070882E+03  0.78644070882E+03  0.25500000000E-02 0. -1.
          2   -1    0    0  501    0  0.00000000000E+00 -0.00000000000E+00 -0.43327927202E+03  0.43327927202E+03  0.25500000000E-02 0.  1.
    5000001    1    1    2    0    0  0.52329454357E+03 -0.28736753134E+02  0.65572396338E+01  0.56063087473E+03  0.19900000000E+03 0.  0.
   -5000001    1    1    2    0    0 -0.52329454357E+03  0.28736753134E+02  0.34660419717E+03  0.65908910612E+03  0.19900000000E+03 0.  0.
<mgrwt>
<rscale>  0 0.11674733E+04</rscale>
<asrwt>0</asrwt>
<pdfrwt beam="1">  1        2 0.61897038E-01 0.11674733E+04</pdfrwt>
<pdfrwt beam="2">  1       -2 0.11234867E+00 0.11674733E+04</pdfrwt>
<totfact> 0.48820951E+01</totfact>
</mgrwt>
</event>
<event>
 4    1  0.1760335E-005  0.5943829E+03  0.7818608E-02  0.9917129E-01
          2   -1    0    0  501    0  0.00000000000E+00  0.00000000000E+00  0.76706324613E+03  0.76706324613E+03  0.25500000000E-02 0.  1.
         -2   -1    0    0    0  501 -0.00000000000E+00 -0.00000000000E+00 -0.11514405048E+03  0.11514405051E+03  0.25500000000E-02 0. -1.
    5000001    1    1    2    0    0 -0.15362526536E+03 -0.49991366213E+02  0.54919802257E+03  0.60606874763E+03  0.19900000000E+03 0.  0.
   -5000001    1    1    2    0    0  0.15362526536E+03  0.49991366213E+02  0.10272117308E+03  0.27613854901E+03  0.19900000000E+03 0.  0.
<mgrwt>
<rscale>  0 0.59438294E+03</rscale>
<asrwt>0</asrwt>
<pdfrwt beam="1">  1        2 0.10958046E+00 0.59438294E+03</pdfrwt>
<pdfrwt beam="2">  1       -2 0.16449151E-01 0.59438294E+03</pdfrwt>
<totfact> 0.12037672E+03</totfact>
</mgrwt>
</event>
<event>
 4    1  0.1760335E-005  0.4502211E+03  0.7818608E-02  0.1027656E+00
         -2   -1    0    0    0  501 -0.00000000000E+00  0.00000000000E+00  0.12382480787E+03  0.12382480790E+03  0.25500000000E-02 0. -1.
          2   -1    0    0  501    0  0.00000000000E+00 -0.00000000000E+00 -0.40924568358E+03  0.40924568358E+03  0.25500000000E-02 0.  1.
    5000001    1    1    2    0    0  0.85922970307E+02 -0.35146356066E+02 -0.20138507250E+03  0.29795128897E+03  0.19900000000E+03 0.  0.
   -5000001    1    1    2    0    0 -0.85922970307E+02  0.35146356066E+02 -0.84035803200E+02  0.23511920251E+03  0.19900000000E+03 0.  0.
<mgrwt>
<rscale>  0 0.45022114E+03</rscale>
<asrwt>0</asrwt>
<pdfrwt beam="1">  1        2 0.58463668E-01 0.45022114E+03</pdfrwt>
<pdfrwt beam="2">  1       -2 0.17689259E-01 0.45022114E+03</pdfrwt>
<totfact> 0.22079332E+03</totfact>
</mgrwt>
</event>
<event>
 4    1  0.1760335E-005  0.6780321E+03  0.7818608E-02  0.9755556E-01
          2   -1    0    0  501    0  0.00000000000E+00  0.00000000000E+00  0.68103664114E+02  0.68103664162E+02  0.25500000000E-02 0.  1.
         -2   -1    0    0    0  501 -0.00000000000E+00 -0.00000000000E+00 -0.16876018765E+04  0.16876018765E+04  0.25500000000E-02 0. -1.
    5000001    1    1    2    0    0  0.50877176459E+01  0.25335544968E+03 -0.53674085964E+03  0.62602445572E+03  0.19900000000E+03 0.  0.
   -5000001    1    1    2    0    0 -0.50877176459E+01 -0.25335544968E+03 -0.10827573528E+04  0.11296810850E+04  0.19900000000E+03 0.  0.
<mgrwt>
<rscale>  0 0.67803207E+03</rscale>
<asrwt>0</asrwt>
<pdfrwt beam="1">  1        2 0.97290959E-02 0.67803207E+03</pdfrwt>
<pdfrwt beam="2">  1       -2 0.24108596E+00 0.67803207E+03</pdfrwt>
<totfact> 0.51786861E+01</totfact>
</mgrwt>
</event>
<event>
 4    1  0.1760335E-005  0.6309803E+03  0.7818608E-02  0.9843138E-01
         -2   -1    0    0    0  501 -0.00000000000E+00  0.00000000000E+00  0.35967052839E+03  0.35967052840E+03  0.25500000000E-02 0. -1.
          2   -1    0    0  501    0  0.00000000000E+00 -0.00000000000E+00 -0.27673666213E+03  0.27673666214E+03  0.25500000000E-02 0.  1.
    5000001    1    1    2    0    0  0.14316765249E+03  0.37476223441E+02 -0.15522723170E+03  0.29257125201E+03  0.19900000000E+03 0.  0.
   -5000001    1    1    2    0    0 -0.14316765249E+03 -0.37476223441E+02  0.23816109796E+03  0.34383593853E+03  0.19900000000E+03 0.  0.
<mgrwt>
<rscale>  0 0.63098026E+03</rscale>
<asrwt>0</asrwt>
<pdfrwt beam="1">  1        2 0.39533809E-01 0.63098026E+03</pdfrwt>
<pdfrwt beam="2">  1       -2 0.51381504E-01 0.63098026E+03</pdfrwt>
<totfact> 0.47082479E+02</totfact>
</mgrwt>
</event>
<event>
 4    1  0.1760335E-005  0.5524307E+03  0.7818608E-02  0.1000933E+00
          2   -1    0    0  501    0  0.00000000000E+00  0.00000000000E+00  0.31584698820E+04  0.31584698820E+04  0.25500000000E-02 0.  1.
         -2   -1    0    0    0  501 -0.00000000000E+00 -0.00000000000E+00 -0.24155656305E+02  0.24155656440E+02  0.25500000000E-02 0. -1.
    5000001    1    1    2    0    0 -0.97144890544E+02 -0.15591409838E+03  0.18799381089E+04  0.18993458424E+04  0.19900000000E+03 0.  0.
   -5000001    1    1    2    0    0  0.97144890544E+02  0.15591409838E+03  0.12543761169E+04  0.12832796961E+04  0.19900000000E+03 0.  0.
<mgrwt>
<rscale>  0 0.55243068E+03</rscale>
<asrwt>0</asrwt>
<pdfrwt beam="1">  1        2 0.45120999E+00 0.55243068E+03</pdfrwt>
<pdfrwt beam="2">  1       -2 0.34508080E-02 0.55243068E+03</pdfrwt>
<totfact> 0.75276178E+02</totfact>
</mgrwt>
</event>
<event>
 4    1  0.1760335E-005  0.6639140E+03  0.7818608E-02  0.9781015E-01
         -2   -1    0    0    0  501 -0.00000000000E+00  0.00000000000E+00  0.50615438171E+02  0.50615438235E+02  0.25500000000E-02 0. -1.
          2   -1    0    0  501    0  0.00000000000E+00 -0.00000000000E+00 -0.21771114581E+04  0.21771114581E+04  0.25500000000E-02 0.  1.
    5000001    1    1    2    0    0  0.17659411304E+03  0.11935890886E+03 -0.15955110732E+04  0.16219397691E+04  0.19900000000E+03 0.  0.
   -5000001    1    1    2    0    0 -0.17659411304E+03 -0.11935890886E+03 -0.53098494681E+03  0.60578712731E+03  0.19900000000E+03 0.  0.
<mgrwt>
<rscale>  0 0.66391400E+03</rscale>
<asrwt>0</asrwt>
<pdfrwt beam="1">  1        2 0.31101586E+00 0.66391400E+03</pdfrwt>
<pdfrwt beam="2">  1       -2 0.72307783E-02 0.66391400E+03</pdfrwt>
<totfact> 0.77371771E+02</totfact>
</mgrwt>
</event>
<event>
 4    1  0.1760335E-005  0.1166995E+04  0.7818608E-02  0.9142246E-01
         -2   -1    0    0    0  501 -0.00000000000E+00  0.00000000000E+00  0.31986998175E+03  0.31986998176E+03  0.25500000000E-02 0. -1.
          2   -1    0    0  501    0  0.00000000000E+00 -0.00000000000E+00 -0.10643997163E+04  0.10643997163E+04  0.25500000000E-02 0.  1.
    5000001    1    1    2    0    0 -0.50379824191E+03 -0.16613026999E+02 -0.11570953712E+03  0.55414651329E+03  0.19900000000E+03 0.  0.
   -5000001    1    1    2    0    0  0.50379824191E+03  0.16613026999E+02 -0.62882019744E+03  0.83012318479E+03  0.19900000000E+03 0.  0.
<mgrwt>
<rscale>  0 0.11669953E+04</rscale>
<asrwt>0</asrwt>
<pdfrwt beam="1">  1        2 0.15205710E+00 0.11669953E+04</pdfrwt>
<pdfrwt beam="2">  1       -2 0.45695712E-01 0.11669953E+04</pdfrwt>
<totfact> 0.11516194E+02</totfact>
</mgrwt>
</event>
<event>
 4    1  0.1760335E-005  0.5570399E+03  0.7818608E-02  0.9998775E-01
         -2   -1    0    0    0  501 -0.00000000000E+00  0.00000000000E+00  0.27247098079E+02  0.27247098198E+02  0.25500000000E-02 0. -1.
          2   -1    0    0  501    0  0.00000000000E+00 -0.00000000000E+00 -0.28470319912E+04  0.28470319912E+04  0.25500000000E-02 0.  1.
    5000001    1    1    2    0    0  0.36395044894E+02  0.19050492153E+03 -0.13125851777E+04  0.13416771493E+04  0.19900000000E+03 0.  0.
   -5000001    1    1    2    0    0 -0.36395044894E+02 -0.19050492153E+03 -0.15071997154E+04  0.15326019401E+04  0.19900000000E+03 0.  0.
<mgrwt>
<rscale>  0 0.55703989E+03</rscale>
<asrwt>0</asrwt>
<pdfrwt beam="1">  1        2 0.40671867E+00 0.55703989E+03</pdfrwt>
<pdfrwt beam="2">  1       -2 0.38924444E-02 0.55703989E+03</pdfrwt>
<totfact> 0.92411100E+02</totfact>
</mgrwt>
</event>
<event>
 4    1  0.1760335E-005  0.6647518E+03  0.7818608E-02  0.9779486E-01
          2   -1    0    0  501    0  0.00000000000E+00  0.00000000000E+00  0.56782130102E+03  0.56782130102E+03  0.25500000000E-02 0.  1.
         -2   -1    0    0    0  501 -0.00000000000E+00 -0.00000000000E+00 -0.19455722973E+03  0.19455722974E+03  0.25500000000E-02 0. -1.
    5000001    1    1    2    0    0  0.35775813697E+01 -0.18059853140E+03  0.41091351814E+03  0.49099852140E+03  0.19900000000E+03 0.  0.
   -5000001    1    1    2    0    0 -0.35775813697E+01  0.18059853140E+03 -0.37649446848E+02  0.27138000936E+03  0.19900000000E+03 0.  0.
<mgrwt>
<rscale>  0 0.66475180E+03</rscale>
<asrwt>0</asrwt>
<pdfrwt beam="1">  1        2 0.81117329E-01 0.66475180E+03</pdfrwt>
<pdfrwt beam="2">  1       -2 0.27793890E-01 0.66475180E+03</pdfrwt>
<totfact> 0.68675112E+02</totfact>
</mgrwt>
</event>
<event>
 4    1  0.1760335E-005  0.8159808E+03  0.7818608E-02  0.9537169E-01
         -2   -1    0    0    0  501 -0.00000000000E+00  0.00000000000E+00  0.73486646809E+02  0.73486646853E+02  0.25500000000E-02 0. -1.
          2   -1    0    0  501    0  0.00000000000E+00 -0.00000000000E+00 -0.22651212476E+04  0.22651212476E+04  0.25500000000E-02 0.  1.
    5000001    1    1    2    0    0 -0.23832781086E+03 -0.21920069746E+03 -0.67066086485E+03  0.77086710063E+03  0.19900000000E+03 0.  0.
   -5000001    1    1    2    0    0  0.23832781086E+03  0.21920069746E+03 -0.15209737359E+04  0.15677407938E+04  0.19900000000E+03 0.  0.
<mgrwt>
<rscale>  0 0.81598080E+03</rscale>
<asrwt>0</asrwt>
<pdfrwt beam="1">  1        2 0.32358871E+00 0.81598080E+03</pdfrwt>
<pdfrwt beam="2">  1       -2 0.10498094E-01 0.81598080E+03</pdfrwt>
<totfact> 0.37889056E+02</totfact>
</mgrwt>
</event>
<event>
 4    1  0.1760335E-005  0.6815822E+03  0.7818608E-02  0.9749258E-01
          2   -1    0    0  501    0  0.00000000000E+00  0.00000000000E+00  0.56075250786E+03  0.56075250786E+03  0.25500000000E-02 0.  1.
         -2   -1    0    0    0  501 -0.00000000000E+00 -0.00000000000E+00 -0.20711198819E+03  0.20711198821E+03  0.25500000000E-02 0. -1.
    5000001    1    1    2    0    0 -0.23933100335E+03 -0.12753832128E+03  0.11519444097E+03  0.35555043495E+03  0.19900000000E+03 0.  0.
   -5000001    1    1    2    0    0  0.23933100335E+03  0.12753832128E+03  0.23844607869E+03  0.41231406112E+03  0.19900000000E+03 0.  0.
<mgrwt>
<rscale>  0 0.68158218E+03</rscale>
<asrwt>0</asrwt>
<pdfrwt beam="1">  1        2 0.80107500E-01 0.68158218E+03</pdfrwt>
<pdfrwt beam="2">  1       -2 0.29587427E-01 0.68158218E+03</pdfrwt>
<totfact> 0.62096214E+02</totfact>
</mgrwt>
</event>
<event>
 4    1  0.1760335E-005  0.7620515E+03  0.7818608E-02  0.9616631E-01
          2   -1    0    0  501    0  0.00000000000E+00  0.00000000000E+00  0.19343557558E+04  0.19343557558E+04  0.25500000000E-02 0.  1.
         -2   -1    0    0    0  501 -0.00000000000E+00 -0.00000000000E+00 -0.75053735365E+02  0.75053735409E+02  0.25500000000E-02 0. -1.
    5000001    1    1    2    0    0 -0.22363018031E+03 -0.35314764646E+02  0.15442221158E+04  0.15733659883E+04  0.19900000000E+03 0.  0.
   -5000001    1    1    2    0    0  0.22363018031E+03  0.35314764646E+02  0.31507990465E+03  0.43604350295E+03  0.19900000000E+03 0.  0.
<mgrwt>
<rscale>  0 0.76205151E+03</rscale>
<asrwt>0</asrwt>
<pdfrwt beam="1">  1        2 0.27633649E+00 0.76205151E+03</pdfrwt>
<pdfrwt beam="2">  1       -2 0.10721964E-01 0.76205151E+03</pdfrwt>
<totfact> 0.54065541E+02</totfact>
</mgrwt>
</event>
<event>
 4    1  0.1760335E-005  0.1005812E+04  0.7818608E-02  0.9302193E-01
         -2   -1    0    0    0  501 -0.00000000000E+00  0.00000000000E+00  0.23404076450E+03  0.23404076452E+03  0.25500000000E-02 0. -1.
          2   -1    0    0  501    0  0.00000000000E+00 -0.00000000000E+00 -0.10806425232E+04  0.10806425232E+04  0.25500000000E-02 0.  1.
    5000001    1    1    2    0    0  0.44608538247E+03  0.78594831577E+02 -0.54125837664E+03  0.73330140208E+03  0.19900000000E+03 0.  0.
   -5000001    1    1    2    0    0 -0.44608538247E+03 -0.78594831577E+02 -0.30534338209E+03  0.58138188567E+03  0.19900000000E+03 0.  0.
<mgrwt>
<rscale>  0 0.10058119E+04</rscale>
<asrwt>0</asrwt>
<pdfrwt beam="1">  1        2 0.15437750E+00 0.10058119E+04</pdfrwt>
<pdfrwt beam="2">  1       -2 0.33434396E-01 0.10058119E+04</pdfrwt>
<totfact> 0.20882170E+02</totfact>
</mgrwt>
</event>
<event>
 4    1  0.1760335E-005  0.5272347E+03  0.7818608E-02  0.1006905E+00
         -2   -1    0    0    0  501 -0.00000000000E+00  0.00000000000E+00  0.19742533884E+02  0.19742534048E+02  0.25500000000E-02 0. -1.
          2   -1    0    0  501    0  0.00000000000E+00 -0.00000000000E+00 -0.35200190647E+04  0.35200190647E+04  0.25500000000E-02 0.  1.
    5000001    1    1    2    0    0 -0.14644170996E+03 -0.91870680077E+02 -0.17687679799E+04  0.17883027045E+04  0.19900000000E+03 0.  0.
   -5000001    1    1    2    0    0  0.14644170996E+03  0.91870680077E+02 -0.17315085509E+04  0.17514588942E+04  0.19900000000E+03 0.  0.
<mgrwt>
<rscale>  0 0.52723466E+03</rscale>
<asrwt>0</asrwt>
<pdfrwt beam="1">  1        2 0.50285947E+00 0.52723466E+03</pdfrwt>
<pdfrwt beam="2">  1       -2 0.28203642E-02 0.52723466E+03</pdfrwt>
<totfact> 0.63580218E+02</totfact>
</mgrwt>
</event>
<event>
 4    1  0.1760335E-005  0.6908759E+03  0.7818608E-02  0.9732964E-01
          2   -1    0    0  501    0  0.00000000000E+00  0.00000000000E+00  0.54089783152E+03  0.54089783153E+03  0.25500000000E-02 0.  1.
         -2   -1    0    0    0  501 -0.00000000000E+00 -0.00000000000E+00 -0.22060980841E+03  0.22060980842E+03  0.25500000000E-02 0. -1.
    5000001    1    1    2    0    0 -0.17900434738E+03 -0.21649180226E+03  0.12867505123E+03  0.36751806164E+03  0.19900000000E+03 0.  0.
   -5000001    1    1    2    0    0  0.17900434738E+03  0.21649180226E+03  0.19161297188E+03  0.39398957831E+03  0.19900000000E+03 0.  0.
<mgrwt>
<rscale>  0 0.69087587E+03</rscale>
<asrwt>0</asrwt>
<pdfrwt beam="1">  1        2 0.77271119E-01 0.69087587E+03</pdfrwt>
<pdfrwt beam="2">  1       -2 0.31515687E-01 0.69087587E+03</pdfrwt>
<totfact> 0.57574822E+02</totfact>
</mgrwt>
</event>
<event>
 4    1  0.1760335E-005  0.8977211E+03  0.7818608E-02  0.9428435E-01
          2   -1    0    0  501    0  0.00000000000E+00  0.00000000000E+00  0.46401308407E+03  0.46401308408E+03  0.25500000000E-02 0.  1.
         -2   -1    0    0    0  501 -0.00000000000E+00 -0.00000000000E+00 -0.43420286605E+03  0.43420286606E+03  0.25500000000E-02 0. -1.
    5000001    1    1    2    0    0  0.28608542618E+03  0.27028952149E+03  0.98458708631E+02  0.45188097305E+03  0.19900000000E+03 0.  0.
   -5000001    1    1    2    0    0 -0.28608542618E+03 -0.27028952149E+03 -0.68648490612E+02  0.44633497708E+03  0.19900000000E+03 0.  0.
<mgrwt>
<rscale>  0 0.89772114E+03</rscale>
<asrwt>0</asrwt>
<pdfrwt beam="1">  1        2 0.66287584E-01 0.89772114E+03</pdfrwt>
<pdfrwt beam="2">  1       -2 0.62028981E-01 0.89772114E+03</pdfrwt>
<totfact> 0.17714773E+02</totfact>
</mgrwt>
</event>
<event>
 4    1  0.1760335E-005  0.8253545E+03  0.7818608E-02  0.9524026E-01
         -2   -1    0    0    0  501 -0.00000000000E+00  0.00000000000E+00  0.20456185312E+03  0.20456185313E+03  0.25500000000E-02 0. -1.
          2   -1    0    0  501    0  0.00000000000E+00 -0.00000000000E+00 -0.83252340439E+03  0.83252340440E+03  0.25500000000E-02 0.  1.
    5000001    1    1    2    0    0 -0.23873030697E+02 -0.36067380061E+03 -0.30545685572E+03  0.51338134242E+03  0.19900000000E+03 0.  0.
   -5000001    1    1    2    0    0  0.23873030697E+02  0.36067380061E+03 -0.32250469555E+03  0.52370391511E+03  0.19900000000E+03 0.  0.
<mgrwt>
<rscale>  0 0.82535454E+03</rscale>
<asrwt>0</asrwt>
<pdfrwt beam="1">  1        2 0.11893191E+00 0.82535454E+03</pdfrwt>
<pdfrwt beam="2">  1       -2 0.29223122E-01 0.82535454E+03</pdfrwt>
<totfact> 0.38925642E+02</totfact>
</mgrwt>
</event>
<event>
 4    1  0.1760335E-005  0.7368131E+03  0.7818608E-02  0.9656269E-01
         -2   -1    0    0    0  501 -0.00000000000E+00  0.00000000000E+00  0.49624719802E+02  0.49624719868E+02  0.25500000000E-02 0. -1.
          2   -1    0    0  501    0  0.00000000000E+00 -0.00000000000E+00 -0.27349958273E+04  0.27349958273E+04  0.25500000000E-02 0.  1.
    5000001    1    1    2    0    0  0.26382176528E+03 -0.45284481071E+01 -0.72746425934E+03  0.79901669526E+03  0.19900000000E+03 0.  0.
   -5000001    1    1    2    0    0 -0.26382176528E+03  0.45284481071E+01 -0.19579068482E+04  0.19856038519E+04  0.19900000000E+03 0.  0.
<mgrwt>
<rscale>  0 0.73681314E+03</rscale>
<asrwt>0</asrwt>
<pdfrwt beam="1">  1        2 0.39071360E+00 0.73681314E+03</pdfrwt>
<pdfrwt beam="2">  1       -2 0.70892474E-02 0.73681314E+03</pdfrwt>
<totfact> 0.40978593E+02</totfact>
</mgrwt>
</event>
<event>
 4    1  0.1760335E-005  0.4157218E+03  0.7818608E-02  0.1038468E+00
          2   -1    0    0  501    0  0.00000000000E+00  0.00000000000E+00  0.84001253519E+03  0.84001253519E+03  0.25500000000E-02 0.  1.
         -2   -1    0    0    0  501 -0.00000000000E+00 -0.00000000000E+00 -0.51435117422E+02  0.51435117485E+02  0.25500000000E-02 0. -1.
    5000001    1    1    2    0    0  0.57995776697E+02 -0.14783758986E+02  0.38398834980E+03  0.43661209606E+03  0.19900000000E+03 0.  0.
   -5000001    1    1    2    0    0 -0.57995776697E+02  0.14783758986E+02  0.40458906796E+03  0.45483555661E+03  0.19900000000E+03 0.  0.
<mgrwt>
<rscale>  0 0.41572175E+03</rscale>
<asrwt>0</asrwt>
<pdfrwt beam="1">  1        2 0.12000180E+00 0.41572175E+03</pdfrwt>
<pdfrwt beam="2">  1       -2 0.73478736E-02 0.41572175E+03</pdfrwt>
<totfact> 0.39849940E+03</totfact>
</mgrwt>
</event>
<event>
 4    1  0.1760335E-005  0.7681184E+03  0.7818608E-02  0.9607347E-01
         -2   -1    0    0    0  501 -0.00000000000E+00  0.00000000000E+00  0.67949805544E+02  0.67949805592E+02  0.25500000000E-02 0. -1.
          2   -1    0    0  501    0  0.00000000000E+00 -0.00000000000E+00 -0.21707415580E+04  0.21707415580E+04  0.25500000000E-02 0.  1.
    5000001    1    1    2    0    0  0.32771949859E+03  0.52708500282E+01 -0.98803518665E+03  0.10598312987E+04  0.19900000000E+03 0.  0.
   -5000001    1    1    2    0    0 -0.32771949859E+03 -0.52708500282E+01 -0.11147565658E+04  0.11788600649E+04  0.19900000000E+03 0.  0.
<mgrwt>
<rscale>  0 0.76811839E+03</rscale>
<asrwt>0</asrwt>
<pdfrwt beam="1">  1        2 0.31010589E+00 0.76811839E+03</pdfrwt>
<pdfrwt beam="2">  1       -2 0.97071165E-02 0.76811839E+03</pdfrwt>
<totfact> 0.48247187E+02</totfact>
</mgrwt>
</event>
<event>
 4    1  0.1760335E-005  0.4382818E+03  0.7818608E-02  0.1031275E+00
         -2   -1    0    0    0  501 -0.00000000000E+00  0.00000000000E+00  0.32368629911E+02  0.32368630011E+02  0.25500000000E-02 0. -1.
          2   -1    0    0  501    0  0.00000000000E+00 -0.00000000000E+00 -0.14836193925E+04  0.14836193925E+04  0.25500000000E-02 0.  1.
    5000001    1    1    2    0    0 -0.88666029264E+02 -0.23385764288E+02 -0.71307349570E+03  0.74597812903E+03  0.19900000000E+03 0.  0.
   -5000001    1    1    2    0    0  0.88666029264E+02  0.23385764288E+02 -0.73817726690E+03  0.77000989350E+03  0.19900000000E+03 0.  0.
<mgrwt>
<rscale>  0 0.43828177E+03</rscale>
<asrwt>0</asrwt>
<pdfrwt beam="1">  1        2 0.21194559E+00 0.43828177E+03</pdfrwt>
<pdfrwt beam="2">  1       -2 0.46240909E-02 0.43828177E+03</pdfrwt>
<totfact> 0.35134279E+03</totfact>
</mgrwt>
</event>
<event>
 4    1  0.1760335E-005  0.5128798E+03  0.7818608E-02  0.1010471E+00
          2   -1    0    0  501    0  0.00000000000E+00  0.00000000000E+00  0.12345059536E+04  0.12345059536E+04  0.25500000000E-02 0.  1.
         -2   -1    0    0    0  501 -0.00000000000E+00 -0.00000000000E+00 -0.53269420394E+02  0.53269420455E+02  0.25500000000E-02 0. -1.
    5000001    1    1    2    0    0  0.70643929654E+01  0.14643843307E+03  0.76213665912E+03  0.80121620521E+03  0.19900000000E+03 0.  0.
   -5000001    1    1    2    0    0 -0.70643929654E+01 -0.14643843307E+03  0.41909987411E+03  0.48655916887E+03  0.19900000000E+03 0.  0.
<mgrwt>
<rscale>  0 0.51287978E+03</rscale>
<asrwt>0</asrwt>
<pdfrwt beam="1">  1        2 0.17635797E+00 0.51287978E+03</pdfrwt>
<pdfrwt beam="2">  1       -2 0.76099184E-02 0.51287978E+03</pdfrwt>
<totfact> 0.21933068E+03</totfact>
</mgrwt>
</event>
<event>
 4    1  0.1760335E-005  0.5389616E+03  0.7818608E-02  0.1004082E+00
         -2   -1    0    0    0  501 -0.00000000000E+00  0.00000000000E+00  0.12324695080E+03  0.12324695082E+03  0.25500000000E-02 0. -1.
          2   -1    0    0  501    0  0.00000000000E+00 -0.00000000000E+00 -0.58922278639E+03  0.58922278640E+03  0.25500000000E-02 0.  1.
    5000001    1    1    2    0    0  0.16916471107E+03  0.23771634161E+02 -0.31487423803E+03  0.40979089282E+03  0.19900000000E+03 0.  0.
   -5000001    1    1    2    0    0 -0.16916471107E+03 -0.23771634161E+02 -0.15110159756E+03  0.30267884440E+03  0.19900000000E+03 0.  0.
<mgrwt>
<rscale>  0 0.53896164E+03</rscale>
<asrwt>0</asrwt>
<pdfrwt beam="1">  1        2 0.84174682E-01 0.53896164E+03</pdfrwt>
<pdfrwt beam="2">  1       -2 0.17606708E-01 0.53896164E+03</pdfrwt>
<totfact> 0.14754405E+03</totfact>
</mgrwt>
</event>
<event>
 4    1  0.1760335E-005  0.8188924E+03  0.7818608E-02  0.9533067E-01
         -2   -1    0    0    0  501 -0.00000000000E+00  0.00000000000E+00  0.10629737748E+03  0.10629737751E+03  0.25500000000E-02 0. -1.
          2   -1    0    0  501    0  0.00000000000E+00 -0.00000000000E+00 -0.15771432913E+04  0.15771432913E+04  0.25500000000E-02 0.  1.
    5000001    1    1    2    0    0  0.35854592170E+02  0.33942778736E+03 -0.51450436056E+03  0.64870063330E+03  0.19900000000E+03 0.  0.
   -5000001    1    1    2    0    0 -0.35854592170E+02 -0.33942778736E+03 -0.95634155330E+03  0.10347400356E+04  0.19900000000E+03 0.  0.
<mgrwt>
<rscale>  0 0.81889241E+03</rscale>
<asrwt>0</asrwt>
<pdfrwt beam="1">  1        2 0.22530617E+00 0.81889241E+03</pdfrwt>
<pdfrwt beam="2">  1       -2 0.15185341E-01 0.81889241E+03</pdfrwt>
<totfact> 0.45993888E+02</totfact>
</mgrwt>
</event>
<event>
 4    1  0.1760335E-005  0.5667345E+03  0.7818608E-02  0.9976931E-01
          2   -1    0    0  501    0  0.00000000000E+00  0.00000000000E+00  0.24365531017E+03  0.24365531018E+03  0.25500000000E-02 0.  1.
         -2   -1    0    0    0  501 -0.00000000000E+00 -0.00000000000E+00 -0.32955156922E+03  0.32955156923E+03  0.25500000000E-02 0. -1.
    5000001    1    1    2    0    0  0.19684745206E+03  0.18295659155E+02 -0.83560653927E+02  0.29268931209E+03  0.19900000000E+03 0.  0.
   -5000001    1    1    2    0    0 -0.19684745206E+03 -0.18295659155E+02 -0.23356051290E+01  0.28051756732E+03  0.19900000000E+03 0.  0.
<mgrwt>
<rscale>  0 0.56673447E+03</rscale>
<asrwt>0</asrwt>
<pdfrwt beam="1">  1        2 0.34807901E-01 0.56673447E+03</pdfrwt>
<pdfrwt beam="2">  1       -2 0.47078796E-01 0.56673447E+03</pdfrwt>
<totfact> 0.64766914E+02</totfact>
</mgrwt>
</event>
<event>
 4    1  0.1760335E-005  0.4818899E+03  0.7818608E-02  0.1018617E+00
         -2   -1    0    0    0  501 -0.00000000000E+00  0.00000000000E+00  0.38525983056E+02  0.38525983140E+02  0.25500000000E-02 0. -1.
          2   -1    0    0  501    0  0.00000000000E+00 -0.00000000000E+00 -0.15068913819E+04  0.15068913819E+04  0.25500000000E-02 0.  1.
    5000001    1    1    2    0    0 -0.15682130872E+02 -0.10718270494E+03 -0.99706632630E+03  0.10224853644E+04  0.19900000000E+03 0.  0.
   -5000001    1    1    2    0    0  0.15682130872E+02  0.10718270494E+03 -0.47129907256E+03  0.52293200061E+03  0.19900000000E+03 0.  0.
<mgrwt>
<rscale>  0 0.48188991E+03</rscale>
<asrwt>0</asrwt>
<pdfrwt beam="1">  1        2 0.21527016E+00 0.48188991E+03</pdfrwt>
<pdfrwt beam="2">  1       -2 0.55037128E-02 0.48188991E+03</pdfrwt>
<totfact> 0.26114523E+03</totfact>
</mgrwt>
</event>
<event>
 4    1  0.1760335E-005  0.4765846E+03  0.7818608E-02  0.1020078E+00
          2   -1    0    0  501    0  0.00000000000E+00  0.00000000000E+00  0.35972800835E+04  0.35972800835E+04  0.25500000000E-02 0.  1.
         -2   -1    0    0    0  501 -0.00000000000E+00 -0.00000000000E+00 -0.15785042262E+02  0.15785042468E+02  0.25500000000E-02 0. -1.
    5000001    1    1    2    0    0  0.62747440409E+02 -0.75554465999E+02  0.24488910878E+04  0.24589254316E+04  0.19900000000E+03 0.  0.
   -5000001    1    1    2    0    0 -0.62747440409E+02  0.75554465999E+02  0.11326039534E+04  0.11541396943E+04  0.19900000000E+03 0.  0.
<mgrwt>
<rscale>  0 0.47658459E+03</rscale>
<asrwt>0</asrwt>
<pdfrwt beam="1">  1        2 0.51389746E+00 0.47658459E+03</pdfrwt>
<pdfrwt beam="2">  1       -2 0.22550047E-02 0.47658459E+03</pdfrwt>
<totfact> 0.80562792E+02</totfact>
</mgrwt>
</event>
<event>
 4    1  0.1760335E-005  0.6428362E+03  0.7818608E-02  0.9820315E-01
         -2   -1    0    0    0  501 -0.00000000000E+00  0.00000000000E+00  0.24991272013E+03  0.24991272015E+03  0.25500000000E-02 0. -1.
          2   -1    0    0  501    0  0.00000000000E+00 -0.00000000000E+00 -0.41338268137E+03  0.41338268138E+03  0.25500000000E-02 0.  1.
    5000001    1    1    2    0    0  0.38461038723E+02  0.22148119370E+03  0.36702429013E+02  0.30245865661E+03  0.19900000000E+03 0.  0.
   -5000001    1    1    2    0    0 -0.38461038723E+02 -0.22148119370E+03 -0.20017239025E+03  0.36083674491E+03  0.19900000000E+03 0.  0.
<mgrwt>
<rscale>  0 0.64283619E+03</rscale>
<asrwt>0</asrwt>
<pdfrwt beam="1">  1        2 0.59054669E-01 0.64283619E+03</pdfrwt>
<pdfrwt beam="2">  1       -2 0.35701817E-01 0.64283619E+03</pdfrwt>
<totfact> 0.61801558E+02</totfact>
</mgrwt>
</event>
<event>
 4    1  0.1760335E-005  0.5260726E+03  0.7818608E-02  0.1007189E+00
         -2   -1    0    0    0  501 -0.00000000000E+00  0.00000000000E+00  0.30884477620E+02  0.30884477725E+02  0.25500000000E-02 0. -1.
          2   -1    0    0  501    0  0.00000000000E+00 -0.00000000000E+00 -0.22402226194E+04  0.22402226194E+04  0.25500000000E-02 0.  1.
    5000001    1    1    2    0    0  0.14942680001E+03  0.83429172725E+02 -0.10301056473E+04  0.10630180808E+04  0.19900000000E+03 0.  0.
   -5000001    1    1    2    0    0 -0.14942680001E+03 -0.83429172725E+02 -0.11792324944E+04  0.12080890163E+04  0.19900000000E+03 0.  0.
<mgrwt>
<rscale>  0 0.52607264E+03</rscale>
<asrwt>0</asrwt>
<pdfrwt beam="1">  1        2 0.32003170E+00 0.52607264E+03</pdfrwt>
<pdfrwt beam="2">  1       -2 0.44120697E-02 0.52607264E+03</pdfrwt>
<totfact> 0.15681757E+03</totfact>
</mgrwt>
</event>
<event>
 4    1  0.1760335E-005  0.8302084E+03  0.7818608E-02  0.9517292E-01
         -2   -1    0    0    0  501 -0.00000000000E+00  0.00000000000E+00  0.10810707403E+03  0.10810707406E+03  0.25500000000E-02 0. -1.
          2   -1    0    0  501    0  0.00000000000E+00 -0.00000000000E+00 -0.15938965931E+04  0.15938965931E+04  0.25500000000E-02 0.  1.
    5000001    1    1    2    0    0 -0.25896890051E+03 -0.97278605585E+01 -0.21801123181E+03  0.39279691941E+03  0.19900000000E+03 0.  0.
   -5000001    1    1    2    0    0  0.25896890051E+03  0.97278605585E+01 -0.12677782873E+04  0.13092067478E+04  0.19900000000E+03 0.  0.
<mgrwt>
<rscale>  0 0.83020840E+03</rscale>
<asrwt>0</asrwt>
<pdfrwt beam="1">  1        2 0.22769950E+00 0.83020840E+03</pdfrwt>
<pdfrwt beam="2">  1       -2 0.15443869E-01 0.83020840E+03</pdfrwt>
<totfact> 0.43779648E+02</totfact>
</mgrwt>
</event>
<event>
 4    1  0.1760335E-005  0.5389200E+03  0.7818608E-02  0.1004092E+00
          2   -1    0    0  501    0  0.00000000000E+00  0.00000000000E+00  0.17084697318E+04  0.17084697318E+04  0.25500000000E-02 0.  1.
         -2   -1    0    0    0  501 -0.00000000000E+00 -0.00000000000E+00 -0.42499247747E+02  0.42499247823E+02  0.25500000000E-02 0. -1.
    5000001    1    1    2    0    0  0.82902238526E+02  0.92859465032E+02  0.40303096230E+03  0.46640177741E+03  0.19900000000E+03 0.  0.
   -5000001    1    1    2    0    0 -0.82902238526E+02 -0.92859465032E+02  0.12629395217E+04  0.12845672022E+04  0.19900000000E+03 0.  0.
<mgrwt>
<rscale>  0 0.53891995E+03</rscale>
<asrwt>0</asrwt>
<pdfrwt beam="1">  1        2 0.24406705E+00 0.53891995E+03</pdfrwt>
<pdfrwt beam="2">  1       -2 0.60713224E-02 0.53891995E+03</pdfrwt>
<totfact> 0.17656971E+03</totfact>
</mgrwt>
</event>
<event>
 4    1  0.1760335E-005  0.4660304E+03  0.7818608E-02  0.1023047E+00
          2   -1    0    0  501    0  0.00000000000E+00  0.00000000000E+00  0.15056411877E+04  0.15056411877E+04  0.25500000000E-02 0.  1.
         -2   -1    0    0    0  501 -0.00000000000E+00 -0.00000000000E+00 -0.36061765620E+02  0.36061765710E+02  0.25500000000E-02 0. -1.
    5000001    1    1    2    0    0 -0.57153861977E+02  0.10668742822E+03  0.75730183121E+03  0.79231044094E+03  0.19900000000E+03 0.  0.
   -5000001    1    1    2    0    0  0.57153861977E+02 -0.10668742822E+03  0.71227759082E+03  0.74939251242E+03  0.19900000000E+03 0.  0.
<mgrwt>
<rscale>  0 0.46603038E+03</rscale>
<asrwt>0</asrwt>
<pdfrwt beam="1">  1        2 0.21509169E+00 0.46603038E+03</pdfrwt>
<pdfrwt beam="2">  1       -2 0.51516787E-02 0.46603038E+03</pdfrwt>
<totfact> 0.28976656E+03</totfact>
</mgrwt>
</event>
<event>
 4    1  0.1760335E-005  0.5940832E+03  0.7818608E-02  0.9917758E-01
          2   -1    0    0  501    0  0.00000000000E+00  0.00000000000E+00  0.21265096174E+04  0.21265096174E+04  0.25500000000E-02 0.  1.
         -2   -1    0    0    0  501 -0.00000000000E+00 -0.00000000000E+00 -0.41492268426E+02  0.41492268505E+02  0.25500000000E-02 0. -1.
    5000001    1    1    2    0    0 -0.18074253882E+03 -0.10265947913E+03  0.13113198035E+04  0.13425227972E+04  0.19900000000E+03 0.  0.
   -5000001    1    1    2    0    0  0.18074253882E+03  0.10265947913E+03  0.77369754549E+03  0.82547908870E+03  0.19900000000E+03 0.  0.
<mgrwt>
<rscale>  0 0.59408319E+03</rscale>
<asrwt>0</asrwt>
<pdfrwt beam="1">  1        2 0.30378717E+00 0.59408319E+03</pdfrwt>
<pdfrwt beam="2">  1       -2 0.59274654E-02 0.59408319E+03</pdfrwt>
<totfact> 0.11270529E+03</totfact>
</mgrwt>
</event>
<event>
 4    1  0.1760335E-005  0.5411533E+03  0.7818608E-02  0.1003563E+00
          2   -1    0    0  501    0  0.00000000000E+00  0.00000000000E+00  0.18594270207E+04  0.18594270207E+04  0.25500000000E-02 0.  1.
         -2   -1    0    0    0  501 -0.00000000000E+00 -0.00000000000E+00 -0.39373268732E+02  0.39373268815E+02  0.25500000000E-02 0. -1.
    5000001    1    1    2    0    0  0.11315976800E+03  0.65292095193E+02  0.45873247840E+03  0.51682170768E+03  0.19900000000E+03 0.  0.
   -5000001    1    1    2    0    0 -0.11315976800E+03 -0.65292095193E+02  0.13613212735E+04  0.13819785818E+04  0.19900000000E+03 0.  0.
<mgrwt>
<rscale>  0 0.54115329E+03</rscale>
<asrwt>0</asrwt>
<pdfrwt beam="1">  1        2 0.26563241E+00 0.54115329E+03</pdfrwt>
<pdfrwt beam="2">  1       -2 0.56247532E-02 0.54115329E+03</pdfrwt>
<totfact> 0.16695144E+03</totfact>
</mgrwt>
</event>
<event>
 4    1  0.1760335E-005  0.6157264E+03  0.7818608E-02  0.9873305E-01
         -2   -1    0    0    0  501 -0.00000000000E+00  0.00000000000E+00  0.76878783064E+02  0.76878783106E+02  0.25500000000E-02 0.  1.
          2   -1    0    0  501    0  0.00000000000E+00 -0.00000000000E+00 -0.12328466105E+04  0.12328466105E+04  0.25500000000E-02 0. -1.
    5000001    1    1    2    0    0 -0.79504135339E+02  0.15751216669E+03 -0.24812382887E+03  0.36372712938E+03  0.19900000000E+03 0.  0.
   -5000001    1    1    2    0    0  0.79504135339E+02 -0.15751216669E+03 -0.90784399854E+03  0.94599826420E+03  0.19900000000E+03 0.  0.
<mgrwt>
<rscale>  0 0.61572639E+03</rscale>
<asrwt>0</asrwt>
<pdfrwt beam="1">  1        2 0.17612093E+00 0.61572639E+03</pdfrwt>
<pdfrwt beam="2">  1       -2 0.10982684E-01 0.61572639E+03</pdfrwt>
<totfact> 0.12159100E+03</totfact>
</mgrwt>
</event>
<event>
 4    1  0.1760335E-005  0.5401564E+03  0.7818608E-02  0.1003798E+00
          2   -1    0    0  501    0  0.00000000000E+00  0.00000000000E+00  0.10937391778E+04  0.10937391778E+04  0.25500000000E-02 0.  1.
         -2   -1    0    0    0  501 -0.00000000000E+00 -0.00000000000E+00 -0.66690707954E+02  0.66690708003E+02  0.25500000000E-02 0. -1.
    5000001    1    1    2    0    0  0.52666411511E+02  0.17376972847E+03  0.55493565093E+03  0.61686647348E+03  0.19900000000E+03 0.  0.
   -5000001    1    1    2    0    0 -0.52666411511E+02 -0.17376972847E+03  0.47211281891E+03  0.54356341232E+03  0.19900000000E+03 0.  0.
<mgrwt>
<rscale>  0 0.54015642E+03</rscale>
<asrwt>0</asrwt>
<pdfrwt beam="1">  1        2 0.15624845E+00 0.54015642E+03</pdfrwt>
<pdfrwt beam="2">  1       -2 0.95272442E-02 0.54015642E+03</pdfrwt>
<totfact> 0.18395050E+03</totfact>
</mgrwt>
</event>
<event>
 4    1  0.1760335E-005  0.5698410E+03  0.7818608E-02  0.9970031E-01
          2   -1    0    0  501    0  0.00000000000E+00  0.00000000000E+00  0.60964290531E+03  0.60964290532E+03  0.25500000000E-02 0.  1.
         -2   -1    0    0    0  501 -0.00000000000E+00 -0.00000000000E+00 -0.13315939869E+03  0.13315939871E+03  0.25500000000E-02 0. -1.
    5000001    1    1    2    0    0 -0.14469833886E+03  0.11543951371E+03  0.12675569382E+03  0.29988647270E+03  0.19900000000E+03 0.  0.
   -5000001    1    1    2    0    0  0.14469833886E+03 -0.11543951371E+03  0.34972781281E+03  0.44291583133E+03  0.19900000000E+03 0.  0.
<mgrwt>
<rscale>  0 0.56984097E+03</rscale>
<asrwt>0</asrwt>
<pdfrwt beam="1">  1        2 0.87091844E-01 0.56984097E+03</pdfrwt>
<pdfrwt beam="2">  1       -2 0.19022771E-01 0.56984097E+03</pdfrwt>
<totfact> 0.12409381E+03</totfact>
</mgrwt>
</event>
<event>
 4    1  0.1760335E-005  0.8923057E+03  0.7818608E-02  0.9435251E-01
          2   -1    0    0  501    0  0.00000000000E+00  0.00000000000E+00  0.43910057950E+03  0.43910057951E+03  0.25500000000E-02 0. -1.
         -2   -1    0    0    0  501 -0.00000000000E+00 -0.00000000000E+00 -0.45331834661E+03  0.45331834661E+03  0.25500000000E-02 0.  1.
    5000001    1    1    2    0    0 -0.19906401049E+03  0.34567601254E+03  0.11140700443E+02  0.44591871583E+03  0.19900000000E+03 0.  0.
   -5000001    1    1    2    0    0  0.19906401049E+03 -0.34567601254E+03 -0.25358467552E+02  0.44650021030E+03  0.19900000000E+03 0.  0.
<mgrwt>
<rscale>  0 0.89230566E+03</rscale>
<asrwt>0</asrwt>
<pdfrwt beam="1">  1        2 0.62728654E-01 0.89230566E+03</pdfrwt>
<pdfrwt beam="2">  1       -2 0.64759764E-01 0.89230566E+03</pdfrwt>
<totfact> 0.17202858E+02</totfact>
</mgrwt>
</event>
<event>
 4    1  0.1760335E-005  0.4345768E+03  0.7818608E-02  0.1032424E+00
          2   -1    0    0  501    0  0.00000000000E+00  0.00000000000E+00  0.24020917106E+04  0.24020917106E+04  0.25500000000E-02 0.  1.
         -2   -1    0    0    0  501 -0.00000000000E+00 -0.00000000000E+00 -0.19655471135E+02  0.19655471300E+02  0.25500000000E-02 0. -1.
    5000001    1    1    2    0    0 -0.52923321410E+01  0.83884707090E+02  0.10606951731E+04  0.10824693543E+04  0.19900000000E+03 0.  0.
   -5000001    1    1    2    0    0  0.52923321410E+01 -0.83884707090E+02  0.13217410664E+04  0.13392778276E+04  0.19900000000E+03 0.  0.
<mgrwt>
<rscale>  0 0.43457678E+03</rscale>
<asrwt>0</asrwt>
<pdfrwt beam="1">  1        2 0.34315583E+00 0.43457678E+03</pdfrwt>
<pdfrwt beam="2">  1       -2 0.28079255E-02 0.43457678E+03</pdfrwt>
<totfact> 0.25977847E+03</totfact>
</mgrwt>
</event>
<event>
 4    1  0.1760335E-005  0.9646802E+03  0.7818608E-02  0.9348154E-01
          2   -1    0    0  501    0  0.00000000000E+00  0.00000000000E+00  0.33139834839E+04  0.33139834839E+04  0.25500000000E-02 0.  1.
         -2   -1    0    0    0  501 -0.00000000000E+00 -0.00000000000E+00 -0.70203112465E+02  0.70203112511E+02  0.25500000000E-02 0. -1.
    5000001    1    1    2    0    0 -0.34948110224E+03  0.19089067535E+03  0.97053034860E+03  0.10677576730E+04  0.19900000000E+03 0.  0.
   -5000001    1    1    2    0    0  0.34948110224E+03 -0.19089067535E+03  0.22732500228E+04  0.23164289234E+04  0.19900000000E+03 0.  0.
<mgrwt>
<rscale>  0 0.96468017E+03</rscale>
<asrwt>0</asrwt>
<pdfrwt beam="1">  1        2 0.47342632E+00 0.96468017E+03</pdfrwt>
<pdfrwt beam="2">  1       -2 0.10029014E-01 0.96468017E+03</pdfrwt>
<totfact> 0.10981296E+02</totfact>
</mgrwt>
</event>
<event>
 4    1  0.1760335E-005  0.5948043E+03  0.7818608E-02  0.9916244E-01
          2   -1    0    0  501    0  0.00000000000E+00  0.00000000000E+00  0.23436833011E+04  0.23436833011E+04  0.25500000000E-02 0.  1.
         -2   -1    0    0    0  501 -0.00000000000E+00 -0.00000000000E+00 -0.37738906139E+02  0.37738906225E+02  0.25500000000E-02 0. -1.
    5000001    1    1    2    0    0  0.72964246188E+02  0.99255023051E+02  0.41829792752E+03  0.47932191374E+03  0.19900000000E+03 0.  0.
   -5000001    1    1    2    0    0 -0.72964246188E+02 -0.99255023051E+02  0.18876464675E+04  0.19021002936E+04  0.19900000000E+03 0.  0.
<mgrwt>
<rscale>  0 0.59480432E+03</rscale>
<asrwt>0</asrwt>
<pdfrwt beam="1">  1        2 0.33481185E+00 0.59480432E+03</pdfrwt>
<pdfrwt beam="2">  1       -2 0.53912731E-02 0.59480432E+03</pdfrwt>
<totfact> 0.10153516E+03</totfact>
</mgrwt>
</event>
<event>
 4    1  0.1760335E-005  0.5804959E+03  0.7818608E-02  0.9946718E-01
          2   -1    0    0  501    0  0.00000000000E+00  0.00000000000E+00  0.16606168613E+03  0.16606168615E+03  0.25500000000E-02 0.  1.
         -2   -1    0    0    0  501 -0.00000000000E+00 -0.00000000000E+00 -0.50730464707E+03  0.50730464708E+03  0.25500000000E-02 0. -1.
    5000001    1    1    2    0    0 -0.36749093271E+02 -0.20302111590E+03 -0.11778426361E+03  0.30990676358E+03  0.19900000000E+03 0.  0.
   -5000001    1    1    2    0    0  0.36749093271E+02  0.20302111590E+03 -0.22345869733E+03  0.36345956965E+03  0.19900000000E+03 0.  0.
<mgrwt>
<rscale>  0 0.58049587E+03</rscale>
<asrwt>0</asrwt>
<pdfrwt beam="1">  1        2 0.23723098E-01 0.58049587E+03</pdfrwt>
<pdfrwt beam="2">  1       -2 0.72472092E-01 0.58049587E+03</pdfrwt>
<totfact> 0.40488218E+02</totfact>
</mgrwt>
</event>
<event>
 4    1  0.1760335E-005  0.1262223E+04  0.7818608E-02  0.9060071E-01
          2   -1    0    0  501    0  0.00000000000E+00  0.00000000000E+00  0.28203275438E+04  0.28203275438E+04  0.25500000000E-02 0.  1.
         -2   -1    0    0    0  501 -0.00000000000E+00 -0.00000000000E+00 -0.14122531562E+03  0.14122531564E+03  0.25500000000E-02 0. -1.
    5000001    1    1    2    0    0 -0.17922369136E+03  0.38318030831E+03  0.34478553163E+03  0.58088410466E+03  0.19900000000E+03 0.  0.
   -5000001    1    1    2    0    0  0.17922369136E+03 -0.38318030831E+03  0.23343166966E+04  0.23806687548E+04  0.19900000000E+03 0.  0.
<mgrwt>
<rscale>  0 0.12622229E+04</rscale>
<asrwt>0</asrwt>
<pdfrwt beam="1">  1        2 0.40290396E+00 0.12622229E+04</pdfrwt>
<pdfrwt beam="2">  1       -2 0.20175044E-01 0.12622229E+04</pdfrwt>
<totfact> 0.61821760E+01</totfact>
</mgrwt>
</event>
<event>
 4    1  0.1760335E-005  0.9249881E+03  0.7818608E-02  0.9394873E-01
          2   -1    0    0  501    0  0.00000000000E+00  0.00000000000E+00  0.11133135446E+04  0.11133135446E+04  0.25500000000E-02 0.  1.
         -2   -1    0    0    0  501 -0.00000000000E+00 -0.00000000000E+00 -0.19212982759E+03  0.19212982761E+03  0.25500000000E-02 0. -1.
    5000001    1    1    2    0    0  0.35130883041E+03  0.34075648309E+02  0.77528733156E+03  0.87478596846E+03  0.19900000000E+03 0.  0.
   -5000001    1    1    2    0    0 -0.35130883041E+03 -0.34075648309E+02  0.14589638547E+03  0.43065740378E+03  0.19900000000E+03 0.  0.
<mgrwt>
<rscale>  0 0.92498809E+03</rscale>
<asrwt>0</asrwt>
<pdfrwt beam="1">  1        2 0.15904480E+00 0.92498809E+03</pdfrwt>
<pdfrwt beam="2">  1       -2 0.27447117E-01 0.92498809E+03</pdfrwt>
<totfact> 0.28968991E+02</totfact>
</mgrwt>
</event>
<event>
 4    1  0.1760335E-005  0.5167768E+03  0.7818608E-02  0.1009490E+00
          2   -1    0    0  501    0  0.00000000000E+00  0.00000000000E+00  0.10261365054E+04  0.10261365054E+04  0.25500000000E-02 0.  1.
         -2   -1    0    0    0  501 -0.00000000000E+00 -0.00000000000E+00 -0.65064024313E+02  0.65064024363E+02  0.25500000000E-02 0. -1.
    5000001    1    1    2    0    0 -0.70687321507E+02  0.18252297314E+02  0.79254405991E+03  0.82040046970E+03  0.19900000000E+03 0.  0.
   -5000001    1    1    2    0    0  0.70687321507E+02 -0.18252297314E+02  0.16852842113E+03  0.27080006002E+03  0.19900000000E+03 0.  0.
<mgrwt>
<rscale>  0 0.51677682E+03</rscale>
<asrwt>0</asrwt>
<pdfrwt beam="1">  1        2 0.14659094E+00 0.51677682E+03</pdfrwt>
<pdfrwt beam="2">  1       -2 0.92948600E-02 0.51677682E+03</pdfrwt>
<totfact> 0.20984450E+03</totfact>
</mgrwt>
</event>
<event>
 4    1  0.1760335E-005  0.4654154E+03  0.7818608E-02  0.1023222E+00
         -2   -1    0    0    0  501 -0.00000000000E+00  0.00000000000E+00  0.15261317870E+02  0.15261318083E+02  0.25500000000E-02 0.  1.
          2   -1    0    0  501    0  0.00000000000E+00 -0.00000000000E+00 -0.35483753204E+04  0.35483753204E+04  0.25500000000E-02 0. -1.
    5000001    1    1    2    0    0  0.73305814285E+02  0.52170877882E+02 -0.23817988375E+04  0.23917905939E+04  0.19900000000E+03 0.  0.
   -5000001    1    1    2    0    0 -0.73305814285E+02 -0.52170877882E+02 -0.11513151651E+04  0.11718460446E+04  0.19900000000E+03 0.  0.
<mgrwt>
<rscale>  0 0.46541544E+03</rscale>
<asrwt>0</asrwt>
<pdfrwt beam="1">  1        2 0.50691023E+00 0.46541544E+03</pdfrwt>
<pdfrwt beam="2">  1       -2 0.21801906E-02 0.46541544E+03</pdfrwt>
<totfact> 0.90778350E+02</totfact>
</mgrwt>
</event>
<event>
 4    1  0.1760335E-005  0.4764043E+03  0.7818608E-02  0.1020128E+00
          2   -1    0    0  501    0  0.00000000000E+00  0.00000000000E+00  0.23830117652E+03  0.23830117653E+03  0.25500000000E-02 0.  1.
         -2   -1    0    0    0  501 -0.00000000000E+00 -0.00000000000E+00 -0.23810320498E+03  0.23810320499E+03  0.25500000000E-02 0. -1.
    5000001    1    1    2    0    0  0.12806741848E+03 -0.52265449137E+01  0.26757822228E+02  0.23821326894E+03  0.19900000000E+03 0.  0.
   -5000001    1    1    2    0    0 -0.12806741848E+03  0.52265449137E+01 -0.26559850689E+02  0.23819111259E+03  0.19900000000E+03 0.  0.
<mgrwt>
<rscale>  0 0.47640434E+03</rscale>
<asrwt>0</asrwt>
<pdfrwt beam="1">  1        2 0.34043025E-01 0.47640434E+03</pdfrwt>
<pdfrwt beam="2">  1       -2 0.34014743E-01 0.47640434E+03</pdfrwt>
<totfact> 0.12460530E+03</totfact>
</mgrwt>
</event>
<event>
 4    1  0.1760335E-005  0.6012510E+03  0.7818608E-02  0.9902814E-01
         -2   -1    0    0    0  501 -0.00000000000E+00  0.00000000000E+00  0.69526019416E+02  0.69526019463E+02  0.25500000000E-02 0. -1.
          2   -1    0    0  501    0  0.00000000000E+00 -0.00000000000E+00 -0.12998829511E+04  0.12998829511E+04  0.25500000000E-02 0.  1.
    5000001    1    1    2    0    0  0.23022312716E+02 -0.22378321114E+03 -0.64449983848E+03  0.71104851752E+03  0.19900000000E+03 0.  0.
   -5000001    1    1    2    0    0 -0.23022312716E+02  0.22378321114E+03 -0.58585709321E+03  0.65836045305E+03  0.19900000000E+03 0.  0.
<mgrwt>
<rscale>  0 0.60125099E+03</rscale>
<asrwt>0</asrwt>
<pdfrwt beam="1">  1        2 0.18569755E+00 0.60125099E+03</pdfrwt>
<pdfrwt beam="2">  1       -2 0.99322893E-02 0.60125099E+03</pdfrwt>
<totfact> 0.13161398E+03</totfact>
</mgrwt>
</event>
<event>
 4    1  0.1760335E-005  0.4117069E+03  0.7818608E-02  0.1039800E+00
          2   -1    0    0  501    0  0.00000000000E+00  0.00000000000E+00  0.59735024067E+03  0.59735024067E+03  0.25500000000E-02 0.  1.
         -2   -1    0    0    0  501 -0.00000000000E+00 -0.00000000000E+00 -0.70939361051E+02  0.70939361097E+02  0.25500000000E-02 0. -1.
    5000001    1    1    2    0    0  0.43747852210E+02 -0.23757384909E+02  0.23526174812E+03  0.31213359005E+03  0.19900000000E+03 0.  0.
   -5000001    1    1    2    0    0 -0.43747852210E+02  0.23757384909E+02  0.29114913150E+03  0.35615601172E+03  0.19900000000E+03 0.  0.
<mgrwt>
<rscale>  0 0.41170691E+03</rscale>
<asrwt>0</asrwt>
<pdfrwt beam="1">  1        2 0.85335749E-01 0.41170691E+03</pdfrwt>
<pdfrwt beam="2">  1       -2 0.10134194E-01 0.41170691E+03</pdfrwt>
<totfact> 0.36171488E+03</totfact>
</mgrwt>
</event>
<event>
 4    1  0.1760335E-005  0.4998782E+03  0.7818608E-02  0.1013811E+00
         -2   -1    0    0    0  501 -0.00000000000E+00  0.00000000000E+00  0.44857817151E+02  0.44857817223E+02  0.25500000000E-02 0. -1.
          2   -1    0    0  501    0  0.00000000000E+00 -0.00000000000E+00 -0.13926122744E+04  0.13926122744E+04  0.25500000000E-02 0.  1.
    5000001    1    1    2    0    0 -0.92738553648E+02  0.74921119346E+02 -0.94140354412E+03  0.96956446219E+03  0.19900000000E+03 0.  0.
   -5000001    1    1    2    0    0  0.92738553648E+02 -0.74921119346E+02 -0.40635091312E+03  0.46790562942E+03  0.19900000000E+03 0.  0.
<mgrwt>
<rscale>  0 0.49987817E+03</rscale>
<asrwt>0</asrwt>
<pdfrwt beam="1">  1        2 0.19894458E+00 0.49987817E+03</pdfrwt>
<pdfrwt beam="2">  1       -2 0.64082605E-02 0.49987817E+03</pdfrwt>
<totfact> 0.23630254E+03</totfact>
</mgrwt>
</event>
<event>
 4    1  0.1760335E-005  0.5017392E+03  0.7818608E-02  0.1013326E+00
         -2   -1    0    0    0  501 -0.00000000000E+00  0.00000000000E+00  0.25781515534E+02  0.25781515660E+02  0.25500000000E-02 0. -1.
          2   -1    0    0  501    0  0.00000000000E+00 -0.00000000000E+00 -0.24411110913E+04  0.24411110913E+04  0.25500000000E-02 0.  1.
    5000001    1    1    2    0    0  0.13378354956E+03 -0.70581666164E+02 -0.11028190110E+04  0.11307920148E+04  0.19900000000E+03 0.  0.
   -5000001    1    1    2    0    0 -0.13378354956E+03  0.70581666164E+02 -0.13125105647E+04  0.13361005921E+04  0.19900000000E+03 0.  0.
<mgrwt>
<rscale>  0 0.50173915E+03</rscale>
<asrwt>0</asrwt>
<pdfrwt beam="1">  1        2 0.34873001E+00 0.50173915E+03</pdfrwt>
<pdfrwt beam="2">  1       -2 0.36830752E-02 0.50173915E+03</pdfrwt>
<totfact> 0.16395253E+03</totfact>
</mgrwt>
</event>
<event>
 4    1  0.1760335E-005  0.5762038E+03  0.7818608E-02  0.9956044E-01
          2   -1    0    0  501    0  0.00000000000E+00  0.00000000000E+00  0.68923352441E+03  0.68923352442E+03  0.25500000000E-02 0.  1.
         -2   -1    0    0    0  501 -0.00000000000E+00 -0.00000000000E+00 -0.12042755472E+03  0.12042755475E+03  0.25500000000E-02 0. -1.
    5000001    1    1    2    0    0 -0.52321732892E-01  0.15555400902E+03  0.89674090757E+02  0.26802890705E+03  0.19900000000E+03 0.  0.
   -5000001    1    1    2    0    0  0.52321732892E-01 -0.15555400902E+03  0.47913187894E+03  0.54163217212E+03  0.19900000000E+03 0.  0.
<mgrwt>
<rscale>  0 0.57620381E+03</rscale>
<asrwt>0</asrwt>
<pdfrwt beam="1">  1        2 0.98461936E-01 0.57620381E+03</pdfrwt>
<pdfrwt beam="2">  1       -2 0.17203936E-01 0.57620381E+03</pdfrwt>
<totfact> 0.12732599E+03</totfact>
</mgrwt>
</event>
<event>
 4    1  0.1760335E-005  0.4523004E+03  0.7818608E-02  0.1027038E+00
         -2   -1    0    0    0  501 -0.00000000000E+00  0.00000000000E+00  0.22804511708E+03  0.22804511710E+03  0.25500000000E-02 0. -1.
          2   -1    0    0  501    0  0.00000000000E+00 -0.00000000000E+00 -0.22427102485E+03  0.22427102486E+03  0.25500000000E-02 0.  1.
    5000001    1    1    2    0    0  0.10394325578E+03 -0.24560980256E+02 -0.97525150264E+01  0.22606095135E+03  0.19900000000E+03 0.  0.
   -5000001    1    1    2    0    0 -0.10394325578E+03  0.24560980256E+02  0.13526607264E+02  0.22625519061E+03  0.19900000000E+03 0.  0.
<mgrwt>
<rscale>  0 0.45230040E+03</rscale>
<asrwt>0</asrwt>
<pdfrwt beam="1">  1        2 0.32038718E-01 0.45230040E+03</pdfrwt>
<pdfrwt beam="2">  1       -2 0.32577874E-01 0.45230040E+03</pdfrwt>
<totfact> 0.14442720E+03</totfact>
</mgrwt>
</event>
<event>
 4    1  0.1760335E-005  0.7141382E+03  0.7818608E-02  0.9693355E-01
         -2   -1    0    0    0  501 -0.00000000000E+00  0.00000000000E+00  0.38987210853E+02  0.38987210936E+02  0.25500000000E-02 0.  1.
          2   -1    0    0  501    0  0.00000000000E+00 -0.00000000000E+00 -0.32702610040E+04  0.32702610040E+04  0.25500000000E-02 0. -1.
    5000001    1    1    2    0    0  0.22857167250E+02 -0.29018791809E+03 -0.13549050309E+04  0.14000357569E+04  0.19900000000E+03 0.  0.
   -5000001    1    1    2    0    0 -0.22857167250E+02  0.29018791809E+03 -0.18763687622E+04  0.19092124580E+04  0.19900000000E+03 0.  0.
<mgrwt>
<rscale>  0 0.71413824E+03</rscale>
<asrwt>0</asrwt>
<pdfrwt beam="1">  1        2 0.46717997E+00 0.71413824E+03</pdfrwt>
<pdfrwt beam="2">  1       -2 0.55696036E-02 0.71413824E+03</pdfrwt>
<totfact> 0.30564877E+02</totfact>
</mgrwt>
</event>
<event>
 4    1  0.1760335E-005  0.6022564E+03  0.7818608E-02  0.9900736E-01
         -2   -1    0    0    0  501 -0.00000000000E+00  0.00000000000E+00  0.30347006481E+03  0.30347006482E+03  0.25500000000E-02 0. -1.
          2   -1    0    0  501    0  0.00000000000E+00 -0.00000000000E+00 -0.29880445231E+03  0.29880445232E+03  0.25500000000E-02 0.  1.
    5000001    1    1    2    0    0  0.17898260623E+03  0.13558717820E+03  0.27995810987E+02  0.30133606100E+03  0.19900000000E+03 0.  0.
   -5000001    1    1    2    0    0 -0.17898260623E+03 -0.13558717820E+03 -0.23330198491E+02  0.30093845614E+03  0.19900000000E+03 0.  0.
<mgrwt>
<rscale>  0 0.60225645E+03</rscale>
<asrwt>0</asrwt>
<pdfrwt beam="1">  1        2 0.42686350E-01 0.60225645E+03</pdfrwt>
<pdfrwt beam="2">  1       -2 0.43352867E-01 0.60225645E+03</pdfrwt>
<totfact> 0.60835275E+02</totfact>
</mgrwt>
</event>
<event>
 4    1  0.1760335E-005  0.1004719E+04  0.7818608E-02  0.9303384E-01
         -2   -1    0    0    0  501 -0.00000000000E+00  0.00000000000E+00  0.22608909570E+03  0.22608909571E+03  0.25500000000E-02 0. -1.
          2   -1    0    0  501    0  0.00000000000E+00 -0.00000000000E+00 -0.11162195659E+04  0.11162195659E+04  0.25500000000E-02 0.  1.
    5000001    1    1    2    0    0  0.36877002871E+03 -0.25852027344E+03 -0.31186619191E+03  0.58282552065E+03  0.19900000000E+03 0.  0.
   -5000001    1    1    2    0    0 -0.36877002871E+03  0.25852027344E+03 -0.57826427824E+03  0.75948314093E+03  0.19900000000E+03 0.  0.
<mgrwt>
<rscale>  0 0.10047190E+04</rscale>
<asrwt>0</asrwt>
<pdfrwt beam="1">  1        2 0.15945993E+00 0.10047190E+04</pdfrwt>
<pdfrwt beam="2">  1       -2 0.32298443E-01 0.10047190E+04</pdfrwt>
<totfact> 0.21238210E+02</totfact>
</mgrwt>
</event>
<event>
 4    1  0.1760335E-005  0.6128426E+03  0.7818608E-02  0.9879114E-01
          2   -1    0    0  501    0  0.00000000000E+00  0.00000000000E+00  0.60919811049E+02  0.60919811103E+02  0.25500000000E-02 0.  1.
         -2   -1    0    0    0  501 -0.00000000000E+00 -0.00000000000E+00 -0.15412723023E+04  0.15412723023E+04  0.25500000000E-02 0. -1.
    5000001    1    1    2    0    0 -0.15615466982E+02 -0.18990390341E+03 -0.10907901137E+04  0.11250472912E+04  0.19900000000E+03 0.  0.
   -5000001    1    1    2    0    0  0.15615466982E+02  0.18990390341E+03 -0.38956237759E+03  0.47714482222E+03  0.19900000000E+03 0.  0.
<mgrwt>
<rscale>  0 0.61284261E+03</rscale>
<asrwt>0</asrwt>
<pdfrwt beam="1">  1        2 0.87028311E-02 0.61284261E+03</pdfrwt>
<pdfrwt beam="2">  1       -2 0.22018173E+00 0.61284261E+03</pdfrwt>
<totfact> 0.80649433E+01</totfact>
</mgrwt>
</event>
<event>
 4    1  0.1760335E-005  0.8449402E+03  0.7818608E-02  0.9497153E-01
          2   -1    0    0  501    0  0.00000000000E+00  0.00000000000E+00  0.11716159831E+04  0.11716159831E+04  0.25500000000E-02 0.  1.
         -2   -1    0    0    0  501 -0.00000000000E+00 -0.00000000000E+00 -0.15233744471E+03  0.15233744474E+03  0.25500000000E-02 0. -1.
    5000001    1    1    2    0    0 -0.72171471025E+02 -0.31698216650E+03  0.22416056475E+03  0.44219381938E+03  0.19900000000E+03 0.  0.
   -5000001    1    1    2    0    0  0.72171471025E+02  0.31698216650E+03  0.79511797364E+03  0.88175960846E+03  0.19900000000E+03 0.  0.
<mgrwt>
<rscale>  0 0.84494020E+03</rscale>
<asrwt>0</asrwt>
<pdfrwt beam="1">  1        2 0.16737371E+00 0.84494020E+03</pdfrwt>
<pdfrwt beam="2">  1       -2 0.21762492E-01 0.84494020E+03</pdfrwt>
<totfact> 0.40867268E+02</totfact>
</mgrwt>
</event>
<event>
 4    1  0.1760335E-005  0.1020094E+04  0.7818608E-02  0.9286777E-01
          2   -1    0    0  501    0  0.00000000000E+00  0.00000000000E+00  0.22272008620E+04  0.22272008620E+04  0.25500000000E-02 0.  1.
         -2   -1    0    0    0  501 -0.00000000000E+00 -0.00000000000E+00 -0.11680487361E+03  0.11680487364E+03  0.25500000000E-02 0. -1.
    5000001    1    1    2    0    0 -0.18560783748E+03 -0.33957630460E+03  0.44385093575E+03  0.62158425748E+03  0.19900000000E+03 0.  0.
   -5000001    1    1    2    0    0  0.18560783748E+03  0.33957630460E+03  0.16665450526E+04  0.17224214781E+04  0.19900000000E+03 0.  0.
<mgrwt>
<rscale>  0 0.10200939E+04</rscale>
<asrwt>0</asrwt>
<pdfrwt beam="1">  1        2 0.31817152E+00 0.10200939E+04</pdfrwt>
<pdfrwt beam="2">  1       -2 0.16686412E-01 0.10200939E+04</pdfrwt>
<totfact> 0.17958807E+02</totfact>
</mgrwt>
</event>
<event>
 4    1  0.1760335E-005  0.4423758E+03  0.7818608E-02  0.1030020E+00
         -2   -1    0    0    0  501 -0.00000000000E+00  0.00000000000E+00  0.74993113351E+02  0.74993113394E+02  0.25500000000E-02 0. -1.
          2   -1    0    0  501    0  0.00000000000E+00 -0.00000000000E+00 -0.65238120150E+03  0.65238120150E+03  0.25500000000E-02 0.  1.
    5000001    1    1    2    0    0  0.92827939637E+02 -0.13548814004E+02 -0.25110943990E+03  0.33385258355E+03  0.19900000000E+03 0.  0.
   -5000001    1    1    2    0    0 -0.92827939637E+02  0.13548814004E+02 -0.32627864825E+03  0.39352173134E+03  0.19900000000E+03 0.  0.
<mgrwt>
<rscale>  0 0.44237585E+03</rscale>
<asrwt>0</asrwt>
<pdfrwt beam="1">  1        2 0.93197311E-01 0.44237585E+03</pdfrwt>
<pdfrwt beam="2">  1       -2 0.10713302E-01 0.44237585E+03</pdfrwt>
<totfact> 0.29849700E+03</totfact>
</mgrwt>
</event>
<event>
 4    1  0.1760335E-005  0.5228874E+03  0.7818608E-02  0.1007972E+00
          2   -1    0    0  501    0  0.00000000000E+00  0.00000000000E+00  0.11737397744E+04  0.11737397744E+04  0.25500000000E-02 0.  1.
         -2   -1    0    0    0  501 -0.00000000000E+00 -0.00000000000E+00 -0.58235063132E+02  0.58235063188E+02  0.25500000000E-02 0. -1.
    5000001    1    1    2    0    0 -0.80873491263E+02  0.96016723806E+02  0.28919753675E+03  0.37282160359E+03  0.19900000000E+03 0.  0.
   -5000001    1    1    2    0    0  0.80873491263E+02 -0.96016723806E+02  0.82630717453E+03  0.85915323401E+03  0.19900000000E+03 0.  0.
<mgrwt>
<rscale>  0 0.52288741E+03</rscale>
<asrwt>0</asrwt>
<pdfrwt beam="1">  1        2 0.16767711E+00 0.52288741E+03</pdfrwt>
<pdfrwt beam="2">  1       -2 0.83192947E-02 0.52288741E+03</pdfrwt>
<totfact> 0.20577941E+03</totfact>
</mgrwt>
</event>
<event>
 4    1  0.1760335E-005  0.4396839E+03  0.7818608E-02  0.1030844E+00
          2   -1    0    0  501    0  0.00000000000E+00  0.00000000000E+00  0.50726115316E+03  0.50726115317E+03  0.25500000000E-02 0.  1.
         -2   -1    0    0    0  501 -0.00000000000E+00 -0.00000000000E+00 -0.95277314786E+02  0.95277314821E+02  0.25500000000E-02 0. -1.
    5000001    1    1    2    0    0 -0.53188600349E+02  0.72207782923E+02  0.24189743442E+03  0.32581952044E+03  0.19900000000E+03 0.  0.
   -5000001    1    1    2    0    0  0.53188600349E+02 -0.72207782923E+02  0.17008640396E+03  0.27671894755E+03  0.19900000000E+03 0.  0.
<mgrwt>
<rscale>  0 0.43968389E+03</rscale>
<asrwt>0</asrwt>
<pdfrwt beam="1">  1        2 0.72465879E-01 0.43968389E+03</pdfrwt>
<pdfrwt beam="2">  1       -2 0.13611045E-01 0.43968389E+03</pdfrwt>
<totfact> 0.26980498E+03</totfact>
</mgrwt>
</event>
<event>
 4    1  0.1760335E-005  0.6583341E+03  0.7818608E-02  0.9791265E-01
         -2   -1    0    0    0  501 -0.00000000000E+00  0.00000000000E+00  0.10480555926E+03  0.10480555929E+03  0.25500000000E-02 0. -1.
          2   -1    0    0  501    0  0.00000000000E+00 -0.00000000000E+00 -0.10338283903E+04  0.10338283903E+04  0.25500000000E-02 0.  1.
    5000001    1    1    2    0    0  0.91726239003E+02 -0.24204625305E+03 -0.53686178865E+03  0.62834836807E+03  0.19900000000E+03 0.  0.
   -5000001    1    1    2    0    0 -0.91726239003E+02  0.24204625305E+03 -0.39216104237E+03  0.51028558150E+03  0.19900000000E+03 0.  0.
<mgrwt>
<rscale>  0 0.65833415E+03</rscale>
<asrwt>0</asrwt>
<pdfrwt beam="1">  1        2 0.14768976E+00 0.65833415E+03</pdfrwt>
<pdfrwt beam="2">  1       -2 0.14972223E-01 0.65833415E+03</pdfrwt>
<totfact> 0.94566701E+02</totfact>
</mgrwt>
</event>
<event>
 4    1  0.1760335E-005  0.8168671E+03  0.7818608E-02  0.9535919E-01
         -2   -1    0    0    0  501 -0.00000000000E+00  0.00000000000E+00  0.68991045596E+02  0.68991045643E+02  0.25500000000E-02 0. -1.
          2   -1    0    0  501    0  0.00000000000E+00 -0.00000000000E+00 -0.24179655485E+04  0.24179655485E+04  0.25500000000E-02 0.  1.
    5000001    1    1    2    0    0  0.16910181332E+03 -0.26424086760E+03 -0.16911418614E+04  0.17314677170E+04  0.19900000000E+03 0.  0.
   -5000001    1    1    2    0    0 -0.16910181332E+03  0.26424086760E+03 -0.65783264151E+03  0.75548887723E+03  0.19900000000E+03 0.  0.
<mgrwt>
<rscale>  0 0.81686712E+03</rscale>
<asrwt>0</asrwt>
<pdfrwt beam="1">  1        2 0.34542360E+00 0.81686712E+03</pdfrwt>
<pdfrwt beam="2">  1       -2 0.98558652E-02 0.81686712E+03</pdfrwt>
<totfact> 0.35070503E+02</totfact>
</mgrwt>
</event>
<event>
 4    1  0.1760335E-005  0.4164556E+03  0.7818608E-02  0.1038226E+00
          2   -1    0    0  501    0  0.00000000000E+00  0.00000000000E+00  0.11144244501E+04  0.11144244502E+04  0.25500000000E-02 0.  1.
         -2   -1    0    0    0  501 -0.00000000000E+00 -0.00000000000E+00 -0.38906916504E+02  0.38906916587E+02  0.25500000000E-02 0. -1.
    5000001    1    1    2    0    0  0.27952091806E+02 -0.41998717430E+02  0.63419616584E+03  0.66659657100E+03  0.19900000000E+03 0.  0.
   -5000001    1    1    2    0    0 -0.27952091806E+02  0.41998717430E+02  0.44132136780E+03  0.48673479574E+03  0.19900000000E+03 0.  0.
<mgrwt>
<rscale>  0 0.41645561E+03</rscale>
<asrwt>0</asrwt>
<pdfrwt beam="1">  1        2 0.15920348E+00 0.41645561E+03</pdfrwt>
<pdfrwt beam="2">  1       -2 0.55581314E-02 0.41645561E+03</pdfrwt>
<totfact> 0.41844591E+03</totfact>
</mgrwt>
</event>
<event>
 4    1  0.1760335E-005  0.6125670E+03  0.7818608E-02  0.9879671E-01
          2   -1    0    0  501    0  0.00000000000E+00  0.00000000000E+00  0.75234263924E+03  0.75234263924E+03  0.25500000000E-02 0.  1.
         -2   -1    0    0    0  501 -0.00000000000E+00 -0.00000000000E+00 -0.12468998507E+03  0.12468998510E+03  0.25500000000E-02 0. -1.
    5000001    1    1    2    0    0 -0.17539630903E+03  0.14050270467E+03  0.22669365365E+03  0.37615939154E+03  0.19900000000E+03 0.  0.
   -5000001    1    1    2    0    0  0.17539630903E+03 -0.14050270467E+03  0.40095900052E+03  0.50087323280E+03  0.19900000000E+03 0.  0.
<mgrwt>
<rscale>  0 0.61256703E+03</rscale>
<asrwt>0</asrwt>
<pdfrwt beam="1">  1        2 0.10747752E+00 0.61256703E+03</pdfrwt>
<pdfrwt beam="2">  1       -2 0.17812855E-01 0.61256703E+03</pdfrwt>
<totfact> 0.10761794E+03</totfact>
</mgrwt>
</event>
<event>
 4    1  0.1760335E-005  0.5031761E+03  0.7818608E-02  0.1012953E+00
          2   -1    0    0  501    0  0.00000000000E+00  0.00000000000E+00  0.45796868790E+02  0.45796868861E+02  0.25500000000E-02 0.  1.
         -2   -1    0    0    0  501 -0.00000000000E+00 -0.00000000000E+00 -0.13821149267E+04  0.13821149267E+04  0.25500000000E-02 0. -1.
    5000001    1    1    2    0    0  0.31210328820E+02  0.14622757836E+03 -0.56431941635E+03  0.61677710153E+03  0.19900000000E+03 0.  0.
   -5000001    1    1    2    0    0 -0.31210328820E+02 -0.14622757836E+03 -0.77199864151E+03  0.81113469399E+03  0.19900000000E+03 0.  0.
<mgrwt>
<rscale>  0 0.50317606E+03</rscale>
<asrwt>0</asrwt>
<pdfrwt beam="1">  1        2 0.65424107E-02 0.50317606E+03</pdfrwt>
<pdfrwt beam="2">  1       -2 0.19744496E+00 0.50317606E+03</pdfrwt>
<totfact> 0.16396339E+02</totfact>
</mgrwt>
</event>
<event>
 4    1  0.1760335E-005  0.5661824E+03  0.7818608E-02  0.9978162E-01
         -2   -1    0    0    0  501 -0.00000000000E+00  0.00000000000E+00  0.38942199870E+02  0.38942199953E+02  0.25500000000E-02 0. -1.
          2   -1    0    0  501    0  0.00000000000E+00 -0.00000000000E+00 -0.20579378398E+04  0.20579378398E+04  0.25500000000E-02 0.  1.
    5000001    1    1    2    0    0 -0.74417615115E+02 -0.17968392025E+03 -0.81651046137E+03  0.86262078932E+03  0.19900000000E+03 0.  0.
   -5000001    1    1    2    0    0  0.74417615115E+02  0.17968392025E+03 -0.12024851786E+04  0.12342592505E+04  0.19900000000E+03 0.  0.
<mgrwt>
<rscale>  0 0.56618240E+03</rscale>
<asrwt>0</asrwt>
<pdfrwt beam="1">  1        2 0.29399105E+00 0.56618240E+03</pdfrwt>
<pdfrwt beam="2">  1       -2 0.55631727E-02 0.56618240E+03</pdfrwt>
<totfact> 0.13490944E+03</totfact>
</mgrwt>
</event>
<event>
 4    1  0.1760335E-005  0.5161117E+03  0.7818608E-02  0.1009657E+00
          2   -1    0    0  501    0  0.00000000000E+00  0.00000000000E+00  0.14133562995E+04  0.14133562995E+04  0.25500000000E-02 0.  1.
         -2   -1    0    0    0  501 -0.00000000000E+00 -0.00000000000E+00 -0.47116796599E+02  0.47116796668E+02  0.25500000000E-02 0. -1.
    5000001    1    1    2    0    0  0.12371491622E+03 -0.10596829569E+03  0.62261569180E+03  0.67363637065E+03  0.19900000000E+03 0.  0.
   -5000001    1    1    2    0    0 -0.12371491622E+03  0.10596829569E+03  0.74362381108E+03  0.78683672550E+03  0.19900000000E+03 0.  0.
<mgrwt>
<rscale>  0 0.51611170E+03</rscale>
<asrwt>0</asrwt>
<pdfrwt beam="1">  1        2 0.20190804E+00 0.51611170E+03</pdfrwt>
<pdfrwt beam="2">  1       -2 0.67309711E-02 0.51611170E+03</pdfrwt>
<totfact> 0.21327286E+03</totfact>
</mgrwt>
</event>
<event>
 4    1  0.1760335E-005  0.6786751E+03  0.7818608E-02  0.9754412E-01
          2   -1    0    0  501    0  0.00000000000E+00  0.00000000000E+00  0.28481709259E+04  0.28481709259E+04  0.25500000000E-02 0.  1.
         -2   -1    0    0    0  501 -0.00000000000E+00 -0.00000000000E+00 -0.40429450777E+02  0.40429450858E+02  0.25500000000E-02 0. -1.
    5000001    1    1    2    0    0 -0.26470659874E+03 -0.34281129777E+02  0.11246342914E+04  0.11728802448E+04  0.19900000000E+03 0.  0.
   -5000001    1    1    2    0    0  0.26470659874E+03  0.34281129777E+02  0.16831071838E+04  0.17157201320E+04  0.19900000000E+03 0.  0.
<mgrwt>
<rscale>  0 0.67867514E+03</rscale>
<asrwt>0</asrwt>
<pdfrwt beam="1">  1        2 0.40688184E+00 0.67867514E+03</pdfrwt>
<pdfrwt beam="2">  1       -2 0.57756319E-02 0.67867514E+03</pdfrwt>
<totfact> 0.49545016E+02</totfact>
</mgrwt>
</event>
<event>
 4    1  0.1760335E-005  0.9106806E+03  0.7818608E-02  0.9412328E-01
          2   -1    0    0  501    0  0.00000000000E+00  0.00000000000E+00  0.19461027293E+04  0.19461027293E+04  0.25500000000E-02 0.  1.
         -2   -1    0    0    0  501 -0.00000000000E+00 -0.00000000000E+00 -0.10653846218E+03  0.10653846221E+03  0.25500000000E-02 0. -1.
    5000001    1    1    2    0    0  0.38457102726E+03 -0.91887177975E+02  0.11603938444E+04  0.12419553143E+04  0.19900000000E+03 0.  0.
   -5000001    1    1    2    0    0 -0.38457102726E+03  0.91887177975E+02  0.67917042270E+03  0.81068587724E+03  0.19900000000E+03 0.  0.
<mgrwt>
<rscale>  0 0.91068061E+03</rscale>
<asrwt>0</asrwt>
<pdfrwt beam="1">  1        2 0.27801465E+00 0.91068061E+03</pdfrwt>
<pdfrwt beam="2">  1       -2 0.15219782E-01 0.91068061E+03</pdfrwt>
<totfact> 0.29461942E+02</totfact>
</mgrwt>
</event>
<event>
 4    1  0.1760335E-005  0.7464616E+03  0.7818608E-02  0.9640918E-01
         -2   -1    0    0    0  501 -0.00000000000E+00  0.00000000000E+00  0.14427965794E+03  0.14427965796E+03  0.25500000000E-02 0. -1.
          2   -1    0    0  501    0  0.00000000000E+00 -0.00000000000E+00 -0.96549469597E+03  0.96549469597E+03  0.25500000000E-02 0.  1.
    5000001    1    1    2    0    0 -0.24914104680E+03 -0.13884579041E+03 -0.61200546820E+03  0.70391839571E+03  0.19900000000E+03 0.  0.
   -5000001    1    1    2    0    0  0.24914104680E+03  0.13884579041E+03 -0.20920956983E+03  0.40585595822E+03  0.19900000000E+03 0.  0.
<mgrwt>
<rscale>  0 0.74646164E+03</rscale>
<asrwt>0</asrwt>
<pdfrwt beam="1">  1        2 0.13792781E+00 0.74646164E+03</pdfrwt>
<pdfrwt beam="2">  1       -2 0.20611380E-01 0.74646164E+03</pdfrwt>
<totfact> 0.59937872E+02</totfact>
</mgrwt>
</event>
<event>
 4    1  0.1760335E-005  0.5951886E+03  0.7818608E-02  0.9915439E-01
          2   -1    0    0  501    0  0.00000000000E+00  0.00000000000E+00  0.43795257786E+03  0.43795257786E+03  0.25500000000E-02 0.  1.
         -2   -1    0    0    0  501 -0.00000000000E+00 -0.00000000000E+00 -0.20221910387E+03  0.20221910388E+03  0.25500000000E-02 0. -1.
    5000001    1    1    2    0    0  0.12057360579E+03  0.16397665344E+03  0.24501624223E+02  0.28570555975E+03  0.19900000000E+03 0.  0.
   -5000001    1    1    2    0    0 -0.12057360579E+03 -0.16397665344E+03  0.21123184977E+03  0.35446612199E+03  0.19900000000E+03 0.  0.
<mgrwt>
<rscale>  0 0.59518864E+03</rscale>
<asrwt>0</asrwt>
<pdfrwt beam="1">  1        2 0.62564654E-01 0.59518864E+03</pdfrwt>
<pdfrwt beam="2">  1       -2 0.28888443E-01 0.59518864E+03</pdfrwt>
<totfact> 0.86144484E+02</totfact>
</mgrwt>
</event>
<event>
 4    1  0.1760335E-005  0.6600528E+03  0.7818608E-02  0.9788097E-01
          2   -1    0    0  501    0  0.00000000000E+00  0.00000000000E+00  0.16493953541E+04  0.16493953541E+04  0.25500000000E-02 0.  1.
         -2   -1    0    0    0  501 -0.00000000000E+00 -0.00000000000E+00 -0.66034752063E+02  0.66034752112E+02  0.25500000000E-02 0. -1.
    5000001    1    1    2    0    0 -0.11282259255E+03 -0.22110906540E+03  0.56365104055E+03  0.64724157137E+03  0.19900000000E+03 0.  0.
   -5000001    1    1    2    0    0  0.11282259255E+03  0.22110906540E+03  0.10197095614E+04  0.10681885348E+04  0.19900000000E+03 0.  0.
<mgrwt>
<rscale>  0 0.66005277E+03</rscale>
<asrwt>0</asrwt>
<pdfrwt beam="1">  1        2 0.23562791E+00 0.66005277E+03</pdfrwt>
<pdfrwt beam="2">  1       -2 0.94335358E-02 0.66005277E+03</pdfrwt>
<totfact> 0.93491718E+02</totfact>
</mgrwt>
</event>
<event>
 4    1  0.1760335E-005  0.6094670E+03  0.7818608E-02  0.9885957E-01
         -2   -1    0    0    0  501 -0.00000000000E+00  0.00000000000E+00  0.47744883497E+02  0.47744883565E+02  0.25500000000E-02 0. -1.
          2   -1    0    0  501    0  0.00000000000E+00 -0.00000000000E+00 -0.19449727775E+04  0.19449727775E+04  0.25500000000E-02 0.  1.
    5000001    1    1    2    0    0 -0.18959830313E+03  0.13111952329E+03 -0.91255137924E+03  0.96202435816E+03  0.19900000000E+03 0.  0.
   -5000001    1    1    2    0    0  0.18959830313E+03 -0.13111952329E+03 -0.98467651477E+03  0.10306933029E+04  0.19900000000E+03 0.  0.
<mgrwt>
<rscale>  0 0.60946698E+03</rscale>
<asrwt>0</asrwt>
<pdfrwt beam="1">  1        2 0.27785320E+00 0.60946698E+03</pdfrwt>
<pdfrwt beam="2">  1       -2 0.68206989E-02 0.60946698E+03</pdfrwt>
<totfact> 0.11142314E+03</totfact>
</mgrwt>
</event>
<event>
 4    1  0.1760335E-005  0.8284571E+03  0.7818608E-02  0.9519716E-01
         -2   -1    0    0    0  501 -0.00000000000E+00  0.00000000000E+00  0.16338792264E+03  0.16338792266E+03  0.25500000000E-02 0. -1.
          2   -1    0    0  501    0  0.00000000000E+00 -0.00000000000E+00 -0.10501711007E+04  0.10501711007E+04  0.25500000000E-02 0.  1.
    5000001    1    1    2    0    0  0.54371174812E+02  0.30796063670E+03 -0.71424208172E+03  0.80469791208E+03  0.19900000000E+03 0.  0.
   -5000001    1    1    2    0    0 -0.54371174812E+02 -0.30796063670E+03 -0.17254109638E+03  0.40886111132E+03  0.19900000000E+03 0.  0.
<mgrwt>
<rscale>  0 0.82845706E+03</rscale>
<asrwt>0</asrwt>
<pdfrwt beam="1">  1        2 0.15002444E+00 0.82845706E+03</pdfrwt>
<pdfrwt beam="2">  1       -2 0.23341132E-01 0.82845706E+03</pdfrwt>
<totfact> 0.42533262E+02</totfact>
</mgrwt>
</event>
<event>
 4    1  0.1760335E-005  0.6658245E+03  0.7818608E-02  0.9777531E-01
         -2   -1    0    0    0  501 -0.00000000000E+00  0.00000000000E+00  0.60191297191E+02  0.60191297245E+02  0.25500000000E-02 0. -1.
          2   -1    0    0  501    0  0.00000000000E+00 -0.00000000000E+00 -0.18413054499E+04  0.18413054499E+04  0.25500000000E-02 0.  1.
    5000001    1    1    2    0    0  0.40013944389E+02  0.10364651821E+03 -0.15835699206E+04  0.15998869991E+04  0.19900000000E+03 0.  0.
   -5000001    1    1    2    0    0 -0.40013944389E+02 -0.10364651821E+03 -0.19754423216E+03  0.30160974809E+03  0.19900000000E+03 0.  0.
<mgrwt>
<rscale>  0 0.66582449E+03</rscale>
<asrwt>0</asrwt>
<pdfrwt beam="1">  1        2 0.26304360E+00 0.66582449E+03</pdfrwt>
<pdfrwt beam="2">  1       -2 0.85987579E-02 0.66582449E+03</pdfrwt>
<totfact> 0.86661040E+02</totfact>
</mgrwt>
</event>
<event>
 4    1  0.1760335E-005  0.4610384E+03  0.7818608E-02  0.1024480E+00
         -2   -1    0    0    0  501 -0.00000000000E+00  0.00000000000E+00  0.38868903933E+02  0.38868904017E+02  0.25500000000E-02 0. -1.
          2   -1    0    0  501    0  0.00000000000E+00 -0.00000000000E+00 -0.13671368640E+04  0.13671368640E+04  0.25500000000E-02 0.  1.
    5000001    1    1    2    0    0  0.19942928679E+01  0.99458344411E+02 -0.84818159292E+03  0.87687453723E+03  0.19900000000E+03 0.  0.
   -5000001    1    1    2    0    0 -0.19942928679E+01 -0.99458344411E+02 -0.48008636717E+03  0.52913123081E+03  0.19900000000E+03 0.  0.
<mgrwt>
<rscale>  0 0.46103844E+03</rscale>
<asrwt>0</asrwt>
<pdfrwt beam="1">  1        2 0.19530524E+00 0.46103844E+03</pdfrwt>
<pdfrwt beam="2">  1       -2 0.55527014E-02 0.46103844E+03</pdfrwt>
<totfact> 0.30481677E+03</totfact>
</mgrwt>
</event>
<event>
 4    1  0.1760335E-005  0.7188566E+03  0.7818608E-02  0.9685517E-01
         -2   -1    0    0    0  501 -0.00000000000E+00  0.00000000000E+00  0.12724903038E+03  0.12724903040E+03  0.25500000000E-02 0. -1.
          2   -1    0    0  501    0  0.00000000000E+00 -0.00000000000E+00 -0.10152430294E+04  0.10152430294E+04  0.25500000000E-02 0.  1.
    5000001    1    1    2    0    0 -0.20806540879E+03 -0.21478119670E+03 -0.46444395859E+03  0.58713828649E+03  0.19900000000E+03 0.  0.
   -5000001    1    1    2    0    0  0.20806540879E+03  0.21478119670E+03 -0.42355004041E+03  0.55535377330E+03  0.19900000000E+03 0.  0.
<mgrwt>
<rscale>  0 0.71885657E+03</rscale>
<asrwt>0</asrwt>
<pdfrwt beam="1">  1        2 0.14503471E+00 0.71885657E+03</pdfrwt>
<pdfrwt beam="2">  1       -2 0.18178433E-01 0.71885657E+03</pdfrwt>
<totfact> 0.69567780E+02</totfact>
</mgrwt>
</event>
<event>
 4    1  0.1760335E-005  0.5611469E+03  0.7818608E-02  0.9989463E-01
         -2   -1    0    0    0  501 -0.00000000000E+00  0.00000000000E+00  0.68428078058E+02  0.68428078105E+02  0.25500000000E-02 0. -1.
          2   -1    0    0  501    0  0.00000000000E+00 -0.00000000000E+00 -0.11504263157E+04  0.11504263157E+04  0.25500000000E-02 0.  1.
    5000001    1    1    2    0    0  0.67616602473E+01  0.18993631709E+03 -0.42205062706E+03  0.50383455260E+03  0.19900000000E+03 0.  0.
   -5000001    1    1    2    0    0 -0.67616602473E+01 -0.18993631709E+03 -0.65994761058E+03  0.71501984120E+03  0.19900000000E+03 0.  0.
<mgrwt>
<rscale>  0 0.56114690E+03</rscale>
<asrwt>0</asrwt>
<pdfrwt beam="1">  1        2 0.16434660E+00 0.56114690E+03</pdfrwt>
<pdfrwt beam="2">  1       -2 0.97754404E-02 0.56114690E+03</pdfrwt>
<totfact> 0.16366265E+03</totfact>
</mgrwt>
</event>
<event>
 4    1  0.1760335E-005  0.1365888E+04  0.7818608E-02  0.8978888E-01
          2   -1    0    0  501    0  0.00000000000E+00  0.00000000000E+00  0.30145071746E+04  0.30145071746E+04  0.25500000000E-02 0.  1.
         -2   -1    0    0    0  501 -0.00000000000E+00 -0.00000000000E+00 -0.15472261895E+03  0.15472261897E+03  0.25500000000E-02 0. -1.
    5000001    1    1    2    0    0  0.19942051210E+03  0.61456588078E+03  0.16542719689E+04  0.17870860386E+04  0.19900000000E+03 0.  0.
   -5000001    1    1    2    0    0 -0.19942051210E+03 -0.61456588078E+03  0.12055125868E+04  0.13821437549E+04  0.19900000000E+03 0.  0.
<mgrwt>
<rscale>  0 0.13658879E+04</rscale>
<asrwt>0</asrwt>
<pdfrwt beam="1">  1        2 0.43064388E+00 0.13658879E+04</pdfrwt>
<pdfrwt beam="2">  1       -2 0.22103231E-01 0.13658879E+04</pdfrwt>
<totfact> 0.40773875E+01</totfact>
</mgrwt>
</event>
<event>
 4    1  0.1760335E-005  0.1215599E+04  0.7818608E-02  0.9099312E-01
         -2   -1    0    0    0  501 -0.00000000000E+00  0.00000000000E+00  0.13612082075E+03  0.13612082078E+03  0.25500000000E-02 0. -1.
          2   -1    0    0  501    0  0.00000000000E+00 -0.00000000000E+00 -0.27139124288E+04  0.27139124288E+04  0.25500000000E-02 0.  1.
    5000001    1    1    2    0    0  0.30178469957E+03  0.13841923663E+03 -0.19024123122E+03  0.43130802917E+03  0.19900000000E+03 0.  0.
   -5000001    1    1    2    0    0 -0.30178469957E+03 -0.13841923663E+03 -0.23875503768E+04  0.24187252204E+04  0.19900000000E+03 0.  0.
<mgrwt>
<rscale>  0 0.12155986E+04</rscale>
<asrwt>0</asrwt>
<pdfrwt beam="1">  1        2 0.38770174E+00 0.12155986E+04</pdfrwt>
<pdfrwt beam="2">  1       -2 0.19445833E-01 0.12155986E+04</pdfrwt>
<totfact> 0.75546955E+01</totfact>
</mgrwt>
</event>
<event>
 4    1  0.1760335E-005  0.5798155E+03  0.7818608E-02  0.9948191E-01
          2   -1    0    0  501    0  0.00000000000E+00  0.00000000000E+00  0.17401935356E+03  0.17401935358E+03  0.25500000000E-02 0.  1.
         -2   -1    0    0    0  501 -0.00000000000E+00 -0.00000000000E+00 -0.48297209443E+03  0.48297209444E+03  0.25500000000E-02 0. -1.
    5000001    1    1    2    0    0 -0.61629472441E+02 -0.14759513579E+03  0.11470758312E+01  0.25531320327E+03  0.19900000000E+03 0.  0.
   -5000001    1    1    2    0    0  0.61629472441E+02  0.14759513579E+03 -0.31009981670E+03  0.40167824474E+03  0.19900000000E+03 0.  0.
<mgrwt>
<rscale>  0 0.57981546E+03</rscale>
<asrwt>0</asrwt>
<pdfrwt beam="1">  1        2 0.24859908E-01 0.57981546E+03</pdfrwt>
<pdfrwt beam="2">  1       -2 0.68996013E-01 0.57981546E+03</pdfrwt>
<totfact> 0.42708033E+02</totfact>
</mgrwt>
</event>
<event>
 4    1  0.1760335E-005  0.6429038E+03  0.7818608E-02  0.9820187E-01
         -2   -1    0    0    0  501 -0.00000000000E+00  0.00000000000E+00  0.15372734670E+03  0.15372734672E+03  0.25500000000E-02 0. -1.
          2   -1    0    0  501    0  0.00000000000E+00 -0.00000000000E+00 -0.67217265203E+03  0.67217265203E+03  0.25500000000E-02 0.  1.
    5000001    1    1    2    0    0 -0.23202248243E+02  0.23692244381E+03 -0.15128436628E+03  0.34519349384E+03  0.19900000000E+03 0.  0.
   -5000001    1    1    2    0    0  0.23202248243E+02 -0.23692244381E+03 -0.36716093905E+03  0.48070650492E+03  0.19900000000E+03 0.  0.
<mgrwt>
<rscale>  0 0.64290378E+03</rscale>
<asrwt>0</asrwt>
<pdfrwt beam="1">  1        2 0.96024663E-01 0.64290378E+03</pdfrwt>
<pdfrwt beam="2">  1       -2 0.21961050E-01 0.64290378E+03</pdfrwt>
<totfact> 0.85828397E+02</totfact>
</mgrwt>
</event>
<event>
 4    1  0.1760335E-005  0.5301334E+03  0.7818608E-02  0.1006200E+00
         -2   -1    0    0    0  501 -0.00000000000E+00  0.00000000000E+00  0.87230047095E+02  0.87230047133E+02  0.25500000000E-02 0. -1.
          2   -1    0    0  501    0  0.00000000000E+00 -0.00000000000E+00 -0.80546037739E+03  0.80546037739E+03  0.25500000000E-02 0.  1.
    5000001    1    1    2    0    0  0.13271787586E+03 -0.10689509571E+03 -0.29136572523E+03  0.39183616717E+03  0.19900000000E+03 0.  0.
   -5000001    1    1    2    0    0 -0.13271787586E+03  0.10689509571E+03 -0.42686460506E+03  0.50085425736E+03  0.19900000000E+03 0.  0.
<mgrwt>
<rscale>  0 0.53013337E+03</rscale>
<asrwt>0</asrwt>
<pdfrwt beam="1">  1        2 0.11506576E+00 0.53013337E+03</pdfrwt>
<pdfrwt beam="2">  1       -2 0.12461436E-01 0.53013337E+03</pdfrwt>
<totfact> 0.18016446E+03</totfact>
</mgrwt>
</event>
<event>
 4    1  0.1760335E-005  0.5930816E+03  0.7818608E-02  0.9919864E-01
          2   -1    0    0  501    0  0.00000000000E+00  0.00000000000E+00  0.22096540440E+03  0.22096540441E+03  0.25500000000E-02 0.  1.
         -2   -1    0    0    0  501 -0.00000000000E+00 -0.00000000000E+00 -0.39796478414E+03  0.39796478415E+03  0.25500000000E-02 0. -1.
    5000001    1    1    2    0    0  0.22452616425E+02 -0.21611002207E+03 -0.53453491692E+02  0.29944271138E+03  0.19900000000E+03 0.  0.
   -5000001    1    1    2    0    0 -0.22452616425E+02  0.21611002207E+03 -0.12354588805E+03  0.31948747718E+03  0.19900000000E+03 0.  0.
<mgrwt>
<rscale>  0 0.59308161E+03</rscale>
<asrwt>0</asrwt>
<pdfrwt beam="1">  1        2 0.31566487E-01 0.59308161E+03</pdfrwt>
<pdfrwt beam="2">  1       -2 0.56852111E-01 0.59308161E+03</pdfrwt>
<totfact> 0.49146737E+02</totfact>
</mgrwt>
</event>
<event>
 4    1  0.1760335E-005  0.5724779E+03  0.7818608E-02  0.9964210E-01
         -2   -1    0    0    0  501 -0.00000000000E+00  0.00000000000E+00  0.15581464743E+03  0.15581464746E+03  0.25500000000E-02 0. -1.
          2   -1    0    0  501    0  0.00000000000E+00 -0.00000000000E+00 -0.52583460195E+03  0.52583460196E+03  0.25500000000E-02 0.  1.
    5000001    1    1    2    0    0  0.77357009436E+01 -0.14875816239E+03 -0.35400085239E+03  0.43255801396E+03  0.19900000000E+03 0.  0.
   -5000001    1    1    2    0    0 -0.77357009436E+01  0.14875816239E+03 -0.16019102124E+02  0.24909123545E+03  0.19900000000E+03 0.  0.
<mgrwt>
<rscale>  0 0.57247789E+03</rscale>
<asrwt>0</asrwt>
<pdfrwt beam="1">  1        2 0.75119228E-01 0.57247789E+03</pdfrwt>
<pdfrwt beam="2">  1       -2 0.22259236E-01 0.57247789E+03</pdfrwt>
<totfact> 0.11198144E+03</totfact>
</mgrwt>
</event>
<event>
 4    1  0.1760335E-005  0.7488099E+03  0.7818608E-02  0.9637219E-01
          2   -1    0    0  501    0  0.00000000000E+00  0.00000000000E+00  0.64179252215E+03  0.64179252215E+03  0.25500000000E-02 0.  1.
         -2   -1    0    0    0  501 -0.00000000000E+00 -0.00000000000E+00 -0.21841806114E+03  0.21841806115E+03  0.25500000000E-02 0. -1.
    5000001    1    1    2    0    0  0.36425133291E+01  0.12942425903E+03 -0.12088954183E+03  0.26641919610E+03  0.19900000000E+03 0.  0.
   -5000001    1    1    2    0    0 -0.36425133291E+01 -0.12942425903E+03  0.54426400284E+03  0.59379138720E+03  0.19900000000E+03 0.  0.
<mgrwt>
<rscale>  0 0.74880993E+03</rscale>
<asrwt>0</asrwt>
<pdfrwt beam="1">  1        2 0.91684647E-01 0.74880993E+03</pdfrwt>
<pdfrwt beam="2">  1       -2 0.31202580E-01 0.74880993E+03</pdfrwt>
<totfact> 0.47866979E+02</totfact>
</mgrwt>
</event>
<event>
 4    1  0.1760335E-005  0.6888211E+03  0.7818608E-02  0.9736543E-01
         -2   -1    0    0    0  501 -0.00000000000E+00  0.00000000000E+00  0.78469131258E+02  0.78469131300E+02  0.25500000000E-02 0. -1.
          2   -1    0    0  501    0  0.00000000000E+00 -0.00000000000E+00 -0.15116596154E+04  0.15116596154E+04  0.25500000000E-02 0.  1.
    5000001    1    1    2    0    0 -0.41119077457E+02 -0.27759567006E+03 -0.67884034008E+03  0.76103570342E+03  0.19900000000E+03 0.  0.
   -5000001    1    1    2    0    0  0.41119077457E+02  0.27759567006E+03 -0.75435014406E+03  0.82909304327E+03  0.19900000000E+03 0.  0.
<mgrwt>
<rscale>  0 0.68882107E+03</rscale>
<asrwt>0</asrwt>
<pdfrwt beam="1">  1        2 0.21595136E+00 0.68882107E+03</pdfrwt>
<pdfrwt beam="2">  1       -2 0.11209877E-01 0.68882107E+03</pdfrwt>
<totfact> 0.83071884E+02</totfact>
</mgrwt>
</event>
<event>
 4    1  0.1760335E-005  0.7153722E+03  0.7818608E-02  0.9691299E-01
         -2   -1    0    0    0  501 -0.00000000000E+00  0.00000000000E+00  0.47123160448E+02  0.47123160517E+02  0.25500000000E-02 0. -1.
          2   -1    0    0  501    0  0.00000000000E+00 -0.00000000000E+00 -0.27149996320E+04  0.27149996320E+04  0.25500000000E-02 0.  1.
    5000001    1    1    2    0    0  0.10486001098E+03 -0.41037087530E+01 -0.26026188334E+03  0.34401992711E+03  0.19900000000E+03 0.  0.
   -5000001    1    1    2    0    0 -0.10486001098E+03  0.41037087530E+01 -0.24076145882E+04  0.24181028654E+04  0.19900000000E+03 0.  0.
<mgrwt>
<rscale>  0 0.71537225E+03</rscale>
<asrwt>0</asrwt>
<pdfrwt beam="1">  1        2 0.38785699E+00 0.71537225E+03</pdfrwt>
<pdfrwt beam="2">  1       -2 0.67318818E-02 0.71537225E+03</pdfrwt>
<totfact> 0.45657741E+02</totfact>
</mgrwt>
</event>
<event>
 4    1  0.1760335E-005  0.4767642E+03  0.7818608E-02  0.1020028E+00
          2   -1    0    0  501    0  0.00000000000E+00  0.00000000000E+00  0.28220881196E+04  0.28220881196E+04  0.25500000000E-02 0.  1.
         -2   -1    0    0    0  501 -0.00000000000E+00 -0.00000000000E+00 -0.20136163343E+02  0.20136163505E+02  0.25500000000E-02 0. -1.
    5000001    1    1    2    0    0  0.76463512752E+02  0.58001070714E+02  0.19346618751E+04  0.19472360833E+04  0.19900000000E+03 0.  0.
   -5000001    1    1    2    0    0 -0.76463512752E+02 -0.58001070714E+02  0.86729008108E+03  0.89498819977E+03  0.19900000000E+03 0.  0.
<mgrwt>
<rscale>  0 0.47676421E+03</rscale>
<asrwt>0</asrwt>
<pdfrwt beam="1">  1        2 0.40315562E+00 0.47676421E+03</pdfrwt>
<pdfrwt beam="2">  1       -2 0.28765935E-02 0.47676421E+03</pdfrwt>
<totfact> 0.15190654E+03</totfact>
</mgrwt>
</event>
<event>
 4    1  0.1760335E-005  0.1234351E+04  0.7818608E-02  0.9083309E-01
         -2   -1    0    0    0  501 -0.00000000000E+00  0.00000000000E+00  0.69648089141E+03  0.69648089142E+03  0.25500000000E-02 0. -1.
          2   -1    0    0  501    0  0.00000000000E+00 -0.00000000000E+00 -0.54690060977E+03  0.54690060977E+03  0.25500000000E-02 0.  1.
    5000001    1    1    2    0    0 -0.53733540411E+03 -0.22929172823E+03  0.73894217077E+02  0.62158296990E+03  0.19900000000E+03 0.  0.
   -5000001    1    1    2    0    0  0.53733540411E+03  0.22929172823E+03  0.75686064568E+02  0.62179853129E+03  0.19900000000E+03 0.  0.
<mgrwt>
<rscale>  0 0.12343514E+04</rscale>
<asrwt>0</asrwt>
<pdfrwt beam="1">  1        2 0.78128659E-01 0.12343514E+04</pdfrwt>
<pdfrwt beam="2">  1       -2 0.99497270E-01 0.12343514E+04</pdfrwt>
<totfact> 0.49875270E+01</totfact>
</mgrwt>
</event>
<event>
 4    1  0.1760335E-005  0.5565167E+03  0.7818608E-02  0.9999967E-01
          2   -1    0    0  501    0  0.00000000000E+00  0.00000000000E+00  0.16155960163E+04  0.16155960163E+04  0.25500000000E-02 0.  1.
         -2   -1    0    0    0  501 -0.00000000000E+00 -0.00000000000E+00 -0.47925168242E+02  0.47925168309E+02  0.25500000000E-02 0. -1.
    5000001    1    1    2    0    0 -0.94422859254E+02 -0.64387623672E+02  0.12542401224E+04  0.12750610679E+04  0.19900000000E+03 0.  0.
   -5000001    1    1    2    0    0  0.94422859254E+02  0.64387623672E+02  0.31343072568E+03  0.38846011665E+03  0.19900000000E+03 0.  0.
<mgrwt>
<rscale>  0 0.55651671E+03</rscale>
<asrwt>0</asrwt>
<pdfrwt beam="1">  1        2 0.23079950E+00 0.55651671E+03</pdfrwt>
<pdfrwt beam="2">  1       -2 0.68464505E-02 0.55651671E+03</pdfrwt>
<totfact> 0.16293227E+03</totfact>
</mgrwt>
</event>
<event>
 4    1  0.1760335E-005  0.6452866E+03  0.7818608E-02  0.9815664E-01
         -2   -1    0    0    0  501 -0.00000000000E+00  0.00000000000E+00  0.24728411414E+03  0.24728411415E+03  0.25500000000E-02 0. -1.
          2   -1    0    0  501    0  0.00000000000E+00 -0.00000000000E+00 -0.42096801747E+03  0.42096801748E+03  0.25500000000E-02 0.  1.
    5000001    1    1    2    0    0 -0.81599241303E+02 -0.23337829391E+03 -0.14699392467E+03  0.34976002936E+03  0.19900000000E+03 0.  0.
   -5000001    1    1    2    0    0  0.81599241303E+02  0.23337829391E+03 -0.26689978660E+02  0.31849210227E+03  0.19900000000E+03 0.  0.
<mgrwt>
<rscale>  0 0.64528661E+03</rscale>
<asrwt>0</asrwt>
<pdfrwt beam="1">  1        2 0.60138288E-01 0.64528661E+03</pdfrwt>
<pdfrwt beam="2">  1       -2 0.35326302E-01 0.64528661E+03</pdfrwt>
<totfact> 0.61786861E+02</totfact>
</mgrwt>
</event>
<event>
 4    1  0.1760335E-005  0.7529717E+03  0.7818608E-02  0.9630700E-01
          2   -1    0    0  501    0  0.00000000000E+00  0.00000000000E+00  0.23585575229E+03  0.23585575231E+03  0.25500000000E-02 0.  1.
         -2   -1    0    0    0  501 -0.00000000000E+00 -0.00000000000E+00 -0.60096732682E+03  0.60096732683E+03  0.25500000000E-02 0. -1.
    5000001    1    1    2    0    0 -0.30714871780E+03  0.59777066894E+02 -0.11030052401E+03  0.38688607906E+03  0.19900000000E+03 0.  0.
   -5000001    1    1    2    0    0  0.30714871780E+03 -0.59777066894E+02 -0.25481105052E+03  0.44993700008E+03  0.19900000000E+03 0.  0.
<mgrwt>
<rscale>  0 0.75297172E+03</rscale>
<asrwt>0</asrwt>
<pdfrwt beam="1">  1        2 0.33693679E-01 0.75297172E+03</pdfrwt>
<pdfrwt beam="2">  1       -2 0.85852474E-01 0.75297172E+03</pdfrwt>
<totfact> 0.18542777E+02</totfact>
</mgrwt>
</event>
<event>
 4    1  0.1760335E-005  0.5792524E+03  0.7818608E-02  0.9949411E-01
         -2   -1    0    0    0  501 -0.00000000000E+00  0.00000000000E+00  0.15063157880E+03  0.15063157882E+03  0.25500000000E-02 0. -1.
          2   -1    0    0  501    0  0.00000000000E+00 -0.00000000000E+00 -0.55687741621E+03  0.55687741621E+03  0.25500000000E-02 0.  1.
    5000001    1    1    2    0    0  0.95157553667E+01  0.21011914400E+03 -0.21101219193E+03  0.35828445322E+03  0.19900000000E+03 0.  0.
   -5000001    1    1    2    0    0 -0.95157553667E+01 -0.21011914400E+03 -0.19523364548E+03  0.34922454181E+03  0.19900000000E+03 0.  0.
<mgrwt>
<rscale>  0 0.57925236E+03</rscale>
<asrwt>0</asrwt>
<pdfrwt beam="1">  1        2 0.79553915E-01 0.57925236E+03</pdfrwt>
<pdfrwt beam="2">  1       -2 0.21518797E-01 0.57925236E+03</pdfrwt>
<totfact> 0.11125309E+03</totfact>
</mgrwt>
</event>
<event>
 4    1  0.1760335E-005  0.1033449E+04  0.7818608E-02  0.9272601E-01
         -2   -1    0    0    0  501 -0.00000000000E+00  0.00000000000E+00  0.42407791766E+03  0.42407791767E+03  0.25500000000E-02 0. -1.
          2   -1    0    0  501    0  0.00000000000E+00 -0.00000000000E+00 -0.62961094855E+03  0.62961094855E+03  0.25500000000E-02 0.  1.
    5000001    1    1    2    0    0  0.16458664643E+03  0.43655185053E+03 -0.21586469575E+01  0.50721981639E+03  0.19900000000E+03 0.  0.
   -5000001    1    1    2    0    0 -0.16458664643E+03 -0.43655185053E+03 -0.20337438393E+03  0.54646904983E+03  0.19900000000E+03 0.  0.
<mgrwt>
<rscale>  0 0.10334488E+04</rscale>
<asrwt>0</asrwt>
<pdfrwt beam="1">  1        2 0.89944421E-01 0.10334488E+04</pdfrwt>
<pdfrwt beam="2">  1       -2 0.60582560E-01 0.10334488E+04</pdfrwt>
<totfact> 0.12961396E+02</totfact>
</mgrwt>
</event>
<event>
 4    1  0.1760335E-005  0.5019348E+03  0.7818608E-02  0.1013275E+00
          2   -1    0    0  501    0  0.00000000000E+00  0.00000000000E+00  0.48646204616E+04  0.48646204616E+04  0.25500000000E-02 0.  1.
         -2   -1    0    0    0  501 -0.00000000000E+00 -0.00000000000E+00 -0.12947490200E+02  0.12947490451E+02  0.25500000000E-02 0. -1.
    5000001    1    1    2    0    0 -0.33416617213E+02  0.13177517249E+03  0.17454522796E+04  0.17620119259E+04  0.19900000000E+03 0.  0.
   -5000001    1    1    2    0    0  0.33416617213E+02 -0.13177517249E+03  0.31062206918E+04  0.31155560262E+04  0.19900000000E+03 0.  0.
<mgrwt>
<rscale>  0 0.50193476E+03</rscale>
<asrwt>0</asrwt>
<pdfrwt beam="1">  1        2 0.69494756E+00 0.50193476E+03</pdfrwt>
<pdfrwt beam="2">  1       -2 0.18496367E-02 0.50193476E+03</pdfrwt>
<totfact> 0.13243563E+02</totfact>
</mgrwt>
</event>
<event>
 4    1  0.1760335E-005  0.9223859E+03  0.7818608E-02  0.9398023E-01
         -2   -1    0    0    0  501 -0.00000000000E+00  0.00000000000E+00  0.34090827880E+03  0.34090827881E+03  0.25500000000E-02 0. -1.
          2   -1    0    0  501    0  0.00000000000E+00 -0.00000000000E+00 -0.62391841868E+03  0.62391841868E+03  0.25500000000E-02 0.  1.
    5000001    1    1    2    0    0 -0.38382991290E+03  0.16038873778E+03 -0.14875242977E+03  0.48453919821E+03  0.19900000000E+03 0.  0.
   -5000001    1    1    2    0    0  0.38382991290E+03 -0.16038873778E+03 -0.13425771011E+03  0.48028749928E+03  0.19900000000E+03 0.  0.
<mgrwt>
<rscale>  0 0.92238594E+03</rscale>
<asrwt>0</asrwt>
<pdfrwt beam="1">  1        2 0.89131202E-01 0.92238594E+03</pdfrwt>
<pdfrwt beam="2">  1       -2 0.48701183E-01 0.92238594E+03</pdfrwt>
<totfact> 0.20711128E+02</totfact>
</mgrwt>
</event>
<event>
 4    1  0.1760335E-005  0.7127719E+03  0.7818608E-02  0.9695637E-01
          2   -1    0    0  501    0  0.00000000000E+00  0.00000000000E+00  0.12960120809E+04  0.12960120809E+04  0.25500000000E-02 0.  1.
         -2   -1    0    0    0  501 -0.00000000000E+00 -0.00000000000E+00 -0.98001345817E+02  0.98001345850E+02  0.25500000000E-02 0. -1.
    5000001    1    1    2    0    0  0.28197821719E+03 -0.75473828016E+02  0.69077872887E+03  0.77587645018E+03  0.19900000000E+03 0.  0.
   -5000001    1    1    2    0    0 -0.28197821719E+03  0.75473828016E+02  0.50723200626E+03  0.61813697662E+03  0.19900000000E+03 0.  0.
<mgrwt>
<rscale>  0 0.71277185E+03</rscale>
<asrwt>0</asrwt>
<pdfrwt beam="1">  1        2 0.18514456E+00 0.71277185E+03</pdfrwt>
<pdfrwt beam="2">  1       -2 0.14000194E-01 0.71277185E+03</pdfrwt>
<totfact> 0.74835524E+02</totfact>
</mgrwt>
</event>
<event>
 4    1  0.1760335E-005  0.1138080E+04  0.7818608E-02  0.9168851E-01
         -2   -1    0    0    0  501 -0.00000000000E+00  0.00000000000E+00  0.26952140922E+03  0.26952140923E+03  0.25500000000E-02 0. -1.
          2   -1    0    0  501    0  0.00000000000E+00 -0.00000000000E+00 -0.12014137984E+04  0.12014137984E+04  0.25500000000E-02 0.  1.
    5000001    1    1    2    0    0  0.46918178568E+03 -0.20820683994E+03 -0.65200853718E+03  0.85334504673E+03  0.19900000000E+03 0.  0.
   -5000001    1    1    2    0    0 -0.46918178568E+03  0.20820683994E+03 -0.27988385196E+03  0.61759016087E+03  0.19900000000E+03 0.  0.
<mgrwt>
<rscale>  0 0.11380804E+04</rscale>
<asrwt>0</asrwt>
<pdfrwt beam="1">  1        2 0.17163054E+00 0.11380804E+04</pdfrwt>
<pdfrwt beam="2">  1       -2 0.38503059E-01 0.11380804E+04</pdfrwt>
<totfact> 0.13448315E+02</totfact>
</mgrwt>
</event>
<event>
 4    1  0.1760335E-005  0.4763145E+03  0.7818608E-02  0.1020153E+00
         -2   -1    0    0    0  501 -0.00000000000E+00  0.00000000000E+00  0.15206263243E+02  0.15206263457E+02  0.25500000000E-02 0. -1.
          2   -1    0    0  501    0  0.00000000000E+00 -0.00000000000E+00 -0.37299682316E+04  0.37299682316E+04  0.25500000000E-02 0.  1.
    5000001    1    1    2    0    0  0.10819646235E+03 -0.71152340288E+02 -0.20042177692E+04  0.20182316508E+04  0.19900000000E+03 0.  0.
   -5000001    1    1    2    0    0 -0.10819646235E+03  0.71152340288E+02 -0.17105441991E+04  0.17269428442E+04  0.19900000000E+03 0.  0.
<mgrwt>
<rscale>  0 0.47631451E+03</rscale>
<asrwt>0</asrwt>
<pdfrwt beam="1">  1        2 0.53285202E+00 0.47631451E+03</pdfrwt>
<pdfrwt beam="2">  1       -2 0.21723257E-02 0.47631451E+03</pdfrwt>
<totfact> 0.70699906E+02</totfact>
</mgrwt>
</event>
<event>
 4    1  0.1760335E-005  0.7782138E+03  0.7818608E-02  0.9592098E-01
          2   -1    0    0  501    0  0.00000000000E+00  0.00000000000E+00  0.70242224963E+03  0.70242224964E+03  0.25500000000E-02 0.  1.
         -2   -1    0    0    0  501 -0.00000000000E+00 -0.00000000000E+00 -0.21554580435E+03  0.21554580437E+03  0.25500000000E-02 0. -1.
    5000001    1    1    2    0    0 -0.33390834770E+03 -0.18077799907E+00  0.26415163516E+03  0.46997010937E+03  0.19900000000E+03 0.  0.
   -5000001    1    1    2    0    0  0.33390834770E+03  0.18077799907E+00  0.22272481012E+03  0.44799794463E+03  0.19900000000E+03 0.  0.
<mgrwt>
<rscale>  0 0.77821377E+03</rscale>
<asrwt>0</asrwt>
<pdfrwt beam="1">  1        2 0.10034604E+00 0.77821377E+03</pdfrwt>
<pdfrwt beam="2">  1       -2 0.30792258E-01 0.77821377E+03</pdfrwt>
<totfact> 0.43909545E+02</totfact>
</mgrwt>
</event>
<event>
 4    1  0.1760335E-005  0.5923002E+03  0.7818608E-02  0.9921511E-01
          2   -1    0    0  501    0  0.00000000000E+00  0.00000000000E+00  0.28270635312E+03  0.28270635313E+03  0.25500000000E-02 0.  1.
         -2   -1    0    0    0  501 -0.00000000000E+00 -0.00000000000E+00 -0.31023314075E+03  0.31023314076E+03  0.25500000000E-02 0. -1.
    5000001    1    1    2    0    0 -0.12539837934E+03 -0.13670065907E+03 -0.13090275165E+03  0.30190785700E+03  0.19900000000E+03 0.  0.
   -5000001    1    1    2    0    0  0.12539837934E+03  0.13670065907E+03  0.10337596401E+03  0.29103163688E+03  0.19900000000E+03 0.  0.
<mgrwt>
<rscale>  0 0.59230019E+03</rscale>
<asrwt>0</asrwt>
<pdfrwt beam="1">  1        2 0.40386622E-01 0.59230019E+03</pdfrwt>
<pdfrwt beam="2">  1       -2 0.44319020E-01 0.59230019E+03</pdfrwt>
<totfact> 0.61926041E+02</totfact>
</mgrwt>
</event>
<event>
 4    1  0.1760335E-005  0.5052190E+03  0.7818608E-02  0.1012426E+00
         -2   -1    0    0    0  501 -0.00000000000E+00  0.00000000000E+00  0.10647292995E+03  0.10647292998E+03  0.25500000000E-02 0. -1.
          2   -1    0    0  501    0  0.00000000000E+00 -0.00000000000E+00 -0.59932200069E+03  0.59932200070E+03  0.25500000000E-02 0.  1.
    5000001    1    1    2    0    0  0.48878837693E+02 -0.81050898162E+02 -0.41895460391E+03  0.47337337167E+03  0.19900000000E+03 0.  0.
   -5000001    1    1    2    0    0 -0.48878837693E+02  0.81050898162E+02 -0.73894466835E+02  0.23242155902E+03  0.19900000000E+03 0.  0.
<mgrwt>
<rscale>  0 0.50521904E+03</rscale>
<asrwt>0</asrwt>
<pdfrwt beam="1">  1        2 0.85617427E-01 0.50521904E+03</pdfrwt>
<pdfrwt beam="2">  1       -2 0.15210419E-01 0.50521904E+03</pdfrwt>
<totfact> 0.18532693E+03</totfact>
</mgrwt>
</event>
<event>
 4    1  0.1760335E-005  0.6716360E+03  0.7818608E-02  0.9767007E-01
         -2   -1    0    0    0  501 -0.00000000000E+00  0.00000000000E+00  0.12510663058E+03  0.12510663061E+03  0.25500000000E-02 0. -1.
          2   -1    0    0  501    0  0.00000000000E+00 -0.00000000000E+00 -0.90142100975E+03  0.90142100976E+03  0.25500000000E-02 0.  1.
    5000001    1    1    2    0    0 -0.10654886289E+03  0.51028810310E+02 -0.16231036624E+02  0.23199363400E+03  0.19900000000E+03 0.  0.
   -5000001    1    1    2    0    0  0.10654886289E+03 -0.51028810310E+02 -0.76008334254E+03  0.79453400637E+03  0.19900000000E+03 0.  0.
<mgrwt>
<rscale>  0 0.67163605E+03</rscale>
<asrwt>0</asrwt>
<pdfrwt beam="1">  1        2 0.12877443E+00 0.67163605E+03</pdfrwt>
<pdfrwt beam="2">  1       -2 0.17872376E-01 0.67163605E+03</pdfrwt>
<totfact> 0.84548366E+02</totfact>
</mgrwt>
</event>
<event>
 4    1  0.1760335E-005  0.9193621E+03  0.7818608E-02  0.9401696E-01
         -2   -1    0    0    0  501 -0.00000000000E+00  0.00000000000E+00  0.20036024083E+03  0.20036024084E+03  0.25500000000E-02 0. -1.
          2   -1    0    0  501    0  0.00000000000E+00 -0.00000000000E+00 -0.10546338135E+04  0.10546338135E+04  0.25500000000E-02 0.  1.
    5000001    1    1    2    0    0 -0.30680856327E+03 -0.61603603137E+02 -0.56351932468E+02  0.37510403718E+03  0.19900000000E+03 0.  0.
   -5000001    1    1    2    0    0  0.30680856327E+03  0.61603603137E+02 -0.79792164023E+03  0.87989001720E+03  0.19900000000E+03 0.  0.
<mgrwt>
<rscale>  0 0.91936214E+03</rscale>
<asrwt>0</asrwt>
<pdfrwt beam="1">  1        2 0.15066197E+00 0.91936214E+03</pdfrwt>
<pdfrwt beam="2">  1       -2 0.28622892E-01 0.91936214E+03</pdfrwt>
<totfact> 0.29065691E+02</totfact>
</mgrwt>
</event>
<event>
 4    1  0.1760335E-005  0.5727446E+03  0.7818608E-02  0.9963623E-01
          2   -1    0    0  501    0  0.00000000000E+00  0.00000000000E+00  0.42314266841E+03  0.42314266842E+03  0.25500000000E-02 0.  1.
         -2   -1    0    0    0  501 -0.00000000000E+00 -0.00000000000E+00 -0.19380958891E+03  0.19380958892E+03  0.25500000000E-02 0. -1.
    5000001    1    1    2    0    0  0.95120274906E+02 -0.18098199047E+03  0.88154662746E+02  0.29862115152E+03  0.19900000000E+03 0.  0.
   -5000001    1    1    2    0    0 -0.95120274906E+02  0.18098199047E+03  0.14117841676E+03  0.31833110582E+03  0.19900000000E+03 0.  0.
<mgrwt>
<rscale>  0 0.57274464E+03</rscale>
<asrwt>0</asrwt>
<pdfrwt beam="1">  1        2 0.60448953E-01 0.57274464E+03</pdfrwt>
<pdfrwt beam="2">  1       -2 0.27687084E-01 0.57274464E+03</pdfrwt>
<totfact> 0.96770112E+02</totfact>
</mgrwt>
</event>
<event>
 4    1  0.1760335E-005  0.5531552E+03  0.7818608E-02  0.1000766E+00
         -2   -1    0    0    0  501 -0.00000000000E+00  0.00000000000E+00  0.47493878581E+02  0.47493878650E+02  0.25500000000E-02 0. -1.
          2   -1    0    0  501    0  0.00000000000E+00 -0.00000000000E+00 -0.16106324419E+04  0.16106324419E+04  0.25500000000E-02 0.  1.
    5000001    1    1    2    0    0  0.12386358030E+03 -0.11851205822E+03 -0.10412863686E+04  0.10739020421E+04  0.19900000000E+03 0.  0.
   -5000001    1    1    2    0    0 -0.12386358030E+03  0.11851205822E+03 -0.52185219472E+03  0.58422427851E+03  0.19900000000E+03 0.  0.
<mgrwt>
<rscale>  0 0.55315525E+03</rscale>
<asrwt>0</asrwt>
<pdfrwt beam="1">  1        2 0.23009032E+00 0.55315525E+03</pdfrwt>
<pdfrwt beam="2">  1       -2 0.67848408E-02 0.55315525E+03</pdfrwt>
<totfact> 0.16625708E+03</totfact>
</mgrwt>
</event>
<event>
 4    1  0.1760335E-005  0.4867937E+03  0.7818608E-02  0.1017285E+00
          2   -1    0    0  501    0  0.00000000000E+00  0.00000000000E+00  0.61713397074E+03  0.61713397074E+03  0.25500000000E-02 0.  1.
         -2   -1    0    0    0  501 -0.00000000000E+00 -0.00000000000E+00 -0.95995408931E+02  0.95995408965E+02  0.25500000000E-02 0. -1.
    5000001    1    1    2    0    0  0.13124082902E+03  0.49161656245E+02  0.26066483656E+03  0.35663451973E+03  0.19900000000E+03 0.  0.
   -5000001    1    1    2    0    0 -0.13124082902E+03 -0.49161656245E+02  0.26047372525E+03  0.35649485998E+03  0.19900000000E+03 0.  0.
<mgrwt>
<rscale>  0 0.48679371E+03</rscale>
<asrwt>0</asrwt>
<pdfrwt beam="1">  1        2 0.88161997E-01 0.48679371E+03</pdfrwt>
<pdfrwt beam="2">  1       -2 0.13713630E-01 0.48679371E+03</pdfrwt>
<totfact> 0.21285543E+03</totfact>
</mgrwt>
</event>
<event>
 4    1  0.1760335E-005  0.6665802E+03  0.7818608E-02  0.9776156E-01
          2   -1    0    0  501    0  0.00000000000E+00  0.00000000000E+00  0.21115106279E+04  0.21115106279E+04  0.25500000000E-02 0.  1.
         -2   -1    0    0    0  501 -0.00000000000E+00 -0.00000000000E+00 -0.52607975113E+02  0.52607975175E+02  0.25500000000E-02 0. -1.
    5000001    1    1    2    0    0 -0.24619822543E+03  0.98390355292E+02  0.11413092811E+04  0.11884789032E+04  0.19900000000E+03 0.  0.
   -5000001    1    1    2    0    0  0.24619822543E+03 -0.98390355292E+02  0.91759337167E+03  0.97563969986E+03  0.19900000000E+03 0.  0.
<mgrwt>
<rscale>  0 0.66658022E+03</rscale>
<asrwt>0</asrwt>
<pdfrwt beam="1">  1        2 0.30164429E+00 0.66658022E+03</pdfrwt>
<pdfrwt beam="2">  1       -2 0.75154271E-02 0.66658022E+03</pdfrwt>
<totfact> 0.78518620E+02</totfact>
</mgrwt>
</event>
