<event>
 4    1  0.4895160E-005  0.3401650E+03  0.7818608E-02  0.1066726E+00
         -2   -1    0    0    0  501 -0.00000000000E+00  0.00000000000E+00  0.19490746843E+02  0.19490747010E+02  0.25500000000E-02 0. -1.
          2   -1    0    0  501    0  0.00000000000E+00 -0.00000000000E+00 -0.14841946650E+04  0.14841946650E+04  0.25500000000E-02 0.  1.
    5000001    1    1    2    0    0 -0.51541130398E+02  0.95568284194E+02 -0.59191784431E+03  0.61504920086E+03  0.12700000000E+03 0.  0.
   -5000001    1    1    2    0    0  0.51541130398E+02 -0.95568284194E+02 -0.87278607380E+03  0.88863621111E+03  0.12700000000E+03 0.  0.
<mgrwt>
<rscale>  0 0.34016503E+03</rscale>
<asrwt>0</asrwt>
<pdfrwt beam="1">  1        2 0.21202774E+00 0.34016503E+03</pdfrwt>
<pdfrwt beam="2">  1       -2 0.27843933E-02 0.34016503E+03</pdfrwt>
<totfact> 0.75521241E+03</totfact>
</mgrwt>
</event>
<event>
 4    1  0.4895160E-005  0.3377590E+03  0.7818608E-02  0.1067754E+00
         -2   -1    0    0    0  501 -0.00000000000E+00  0.00000000000E+00  0.35704660638E+02  0.35704660729E+02  0.25500000000E-02 0. -1.
          2   -1    0    0  501    0  0.00000000000E+00 -0.00000000000E+00 -0.79878315658E+03  0.79878315658E+03  0.25500000000E-02 0.  1.
    5000001    1    1    2    0    0  0.40828441965E+02  0.89695478170E+02 -0.50941929526E+03  0.53418092334E+03  0.12700000000E+03 0.  0.
   -5000001    1    1    2    0    0 -0.40828441965E+02 -0.89695478170E+02 -0.25365920068E+03  0.30030689397E+03  0.12700000000E+03 0.  0.
<mgrwt>
<rscale>  0 0.33775898E+03</rscale>
<asrwt>0</asrwt>
<pdfrwt beam="1">  1        2 0.11411187E+00 0.33775898E+03</pdfrwt>
<pdfrwt beam="2">  1       -2 0.51006663E-02 0.33775898E+03</pdfrwt>
<totfact> 0.74474461E+03</totfact>
</mgrwt>
</event>
<event>
 4    1  0.4895160E-005  0.6069596E+03  0.7818608E-02  0.9891071E-01
         -2   -1    0    0    0  501 -0.00000000000E+00  0.00000000000E+00  0.21112303092E+03  0.21112303093E+03  0.25500000000E-02 0. -1.
          2   -1    0    0  501    0  0.00000000000E+00 -0.00000000000E+00 -0.43623852042E+03  0.43623852043E+03  0.25500000000E-02 0.  1.
    5000001    1    1    2    0    0  0.24215044018E+03  0.14089075050E+02 -0.25217449473E+03  0.37223153213E+03  0.12700000000E+03 0.  0.
   -5000001    1    1    2    0    0 -0.24215044018E+03 -0.14089075050E+02  0.27059005228E+02  0.27513001923E+03  0.12700000000E+03 0.  0.
<mgrwt>
<rscale>  0 0.60695963E+03</rscale>
<asrwt>0</asrwt>
<pdfrwt beam="1">  1        2 0.62319788E-01 0.60695963E+03</pdfrwt>
<pdfrwt beam="2">  1       -2 0.30160433E-01 0.60695963E+03</pdfrwt>
<totfact> 0.79906792E+02</totfact>
</mgrwt>
</event>
<event>
 4    1  0.4895160E-005  0.6910838E+03  0.7818608E-02  0.9732603E-01
         -2   -1    0    0    0  501 -0.00000000000E+00  0.00000000000E+00  0.60333158092E+03  0.60333158092E+03  0.25500000000E-02 0. -1.
          2   -1    0    0  501    0  0.00000000000E+00 -0.00000000000E+00 -0.19789980957E+03  0.19789980959E+03  0.25500000000E-02 0.  1.
    5000001    1    1    2    0    0  0.66081189765E+02  0.30862118155E+03  0.27282216546E+03  0.43609023299E+03  0.12700000000E+03 0.  0.
   -5000001    1    1    2    0    0 -0.66081189765E+02 -0.30862118155E+03  0.13260960589E+03  0.36514115752E+03  0.12700000000E+03 0.  0.
<mgrwt>
<rscale>  0 0.69108380E+03</rscale>
<asrwt>0</asrwt>
<pdfrwt beam="1">  1        2 0.28271401E-01 0.69108380E+03</pdfrwt>
<pdfrwt beam="2">  1       -2 0.86190228E-01 0.69108380E+03</pdfrwt>
<totfact> 0.22439656E+02</totfact>
</mgrwt>
</event>
<event>
 4    1  0.4895160E-005  0.5961902E+03  0.7818608E-02  0.9913342E-01
          2   -1    0    0  501    0  0.00000000000E+00  0.00000000000E+00  0.60818960983E+03  0.60818960984E+03  0.25500000000E-02 0.  1.
         -2   -1    0    0    0  501 -0.00000000000E+00 -0.00000000000E+00 -0.14610686700E+03  0.14610686702E+03  0.25500000000E-02 0. -1.
    5000001    1    1    2    0    0  0.98753773894E+01 -0.22485438679E+03  0.41901818511E+03  0.49230301420E+03  0.12700000000E+03 0.  0.
   -5000001    1    1    2    0    0 -0.98753773894E+01  0.22485438679E+03  0.43064557722E+02  0.26199346265E+03  0.12700000000E+03 0.  0.
<mgrwt>
<rscale>  0 0.59619017E+03</rscale>
<asrwt>0</asrwt>
<pdfrwt beam="1">  1        2 0.86884230E-01 0.59619017E+03</pdfrwt>
<pdfrwt beam="2">  1       -2 0.20872410E-01 0.59619017E+03</pdfrwt>
<totfact> 0.10586377E+03</totfact>
</mgrwt>
</event>
<event>
 4    1  0.4895160E-005  0.1058124E+04  0.7818608E-02  0.9246997E-01
         -2   -1    0    0    0  501 -0.00000000000E+00  0.00000000000E+00  0.13772060603E+03  0.13772060605E+03  0.25500000000E-02 0. -1.
          2   -1    0    0  501    0  0.00000000000E+00 -0.00000000000E+00 -0.20324219794E+04  0.20324219794E+04  0.25500000000E-02 0.  1.
    5000001    1    1    2    0    0 -0.39332678977E+03  0.26523882061E+03 -0.13509202205E+04  0.14374185325E+04  0.12700000000E+03 0.  0.
   -5000001    1    1    2    0    0  0.39332678977E+03 -0.26523882061E+03 -0.54378115290E+03  0.73272405295E+03  0.12700000000E+03 0.  0.
<mgrwt>
<rscale>  0 0.10581236E+04</rscale>
<asrwt>0</asrwt>
<pdfrwt beam="1">  1        2 0.29034598E+00 0.10581236E+04</pdfrwt>
<pdfrwt beam="2">  1       -2 0.19674374E-01 0.10581236E+04</pdfrwt>
<totfact> 0.16927220E+02</totfact>
</mgrwt>
</event>
<event>
 4    1  0.4895160E-005  0.3702566E+03  0.7818608E-02  0.1054595E+00
         -2   -1    0    0    0  501 -0.00000000000E+00  0.00000000000E+00  0.74726270571E+03  0.74726270572E+03  0.25500000000E-02 0. -1.
          2   -1    0    0  501    0  0.00000000000E+00 -0.00000000000E+00 -0.45864051109E+02  0.45864051180E+02  0.25500000000E-02 0.  1.
    5000001    1    1    2    0    0 -0.51627447672E+02 -0.92408914691E+02  0.17226491464E+03  0.23876557894E+03  0.12700000000E+03 0.  0.
   -5000001    1    1    2    0    0  0.51627447672E+02  0.92408914691E+02  0.52913373996E+03  0.55436117796E+03  0.12700000000E+03 0.  0.
<mgrwt>
<rscale>  0 0.37025664E+03</rscale>
<asrwt>0</asrwt>
<pdfrwt beam="1">  1        2 0.65520080E-02 0.37025664E+03</pdfrwt>
<pdfrwt beam="2">  1       -2 0.10675180E+00 0.37025664E+03</pdfrwt>
<totfact> 0.81502019E+02</totfact>
</mgrwt>
</event>
<event>
 4    1  0.4895160E-005  0.4447220E+03  0.7818608E-02  0.1029308E+00
          2   -1    0    0  501    0  0.00000000000E+00  0.00000000000E+00  0.12984994352E+03  0.12984994354E+03  0.25500000000E-02 0.  1.
         -2   -1    0    0    0  501 -0.00000000000E+00 -0.00000000000E+00 -0.38078113665E+03  0.38078113666E+03  0.25500000000E-02 0. -1.
    5000001    1    1    2    0    0 -0.83013078608E+02  0.16252987207E+03 -0.12876926175E+03  0.25693900698E+03  0.12700000000E+03 0.  0.
   -5000001    1    1    2    0    0  0.83013078608E+02 -0.16252987207E+03 -0.12216193138E+03  0.25369207322E+03  0.12700000000E+03 0.  0.
<mgrwt>
<rscale>  0 0.44472198E+03</rscale>
<asrwt>0</asrwt>
<pdfrwt beam="1">  1        2 0.18549992E-01 0.44472198E+03</pdfrwt>
<pdfrwt beam="2">  1       -2 0.54397305E-01 0.44472198E+03</pdfrwt>
<totfact> 0.98939630E+02</totfact>
</mgrwt>
</event>
<event>
 4    1  0.4895160E-005  0.1070449E+04  0.7818608E-02  0.9234483E-01
         -2   -1    0    0    0  501 -0.00000000000E+00  0.00000000000E+00  0.20528851210E+03  0.20528851211E+03  0.25500000000E-02 0. -1.
          2   -1    0    0  501    0  0.00000000000E+00 -0.00000000000E+00 -0.13954275460E+04  0.13954275460E+04  0.25500000000E-02 0.  1.
    5000001    1    1    2    0    0 -0.56774141235E+02  0.49545029040E+03 -0.81505627743E+03  0.96391909865E+03  0.12700000000E+03 0.  0.
   -5000001    1    1    2    0    0  0.56774141235E+02 -0.49545029040E+03 -0.37508275647E+03  0.63679695946E+03  0.12700000000E+03 0.  0.
<mgrwt>
<rscale>  0 0.10704490E+04</rscale>
<asrwt>0</asrwt>
<pdfrwt beam="1">  1        2 0.19934679E+00 0.10704490E+04</pdfrwt>
<pdfrwt beam="2">  1       -2 0.29326931E-01 0.10704490E+04</pdfrwt>
<totfact> 0.17666844E+02</totfact>
</mgrwt>
</event>
<event>
 4    1  0.4895160E-005  0.2962478E+03  0.7818608E-02  0.1087131E+00
         -2   -1    0    0    0  501 -0.00000000000E+00  0.00000000000E+00  0.90323421465E+01  0.90323425065E+01  0.25500000000E-02 0. -1.
          2   -1    0    0  501    0  0.00000000000E+00 -0.00000000000E+00 -0.24291249612E+04  0.24291249612E+04  0.25500000000E-02 0.  1.
    5000001    1    1    2    0    0 -0.67247491227E+02 -0.11778730192E+01 -0.15054237375E+04  0.15122675828E+04  0.12700000000E+03 0.  0.
   -5000001    1    1    2    0    0  0.67247491227E+02  0.11778730192E+01 -0.91466888159E+03  0.92588972097E+03  0.12700000000E+03 0.  0.
<mgrwt>
<rscale>  0 0.29624779E+03</rscale>
<asrwt>0</asrwt>
<pdfrwt beam="1">  1        2 0.34701743E+00 0.29624779E+03</pdfrwt>
<pdfrwt beam="2">  1       -2 0.12903362E-02 0.29624779E+03</pdfrwt>
<totfact> 0.80015420E+03</totfact>
</mgrwt>
</event>
<event>
 4    1  0.4895160E-005  0.3559361E+03  0.7818608E-02  0.1060205E+00
         -2   -1    0    0    0  501 -0.00000000000E+00  0.00000000000E+00  0.41783903912E+02  0.41783903990E+02  0.25500000000E-02 0. -1.
          2   -1    0    0  501    0  0.00000000000E+00 -0.00000000000E+00 -0.75801008476E+03  0.75801008476E+03  0.25500000000E-02 0.  1.
    5000001    1    1    2    0    0  0.88609120332E+02 -0.30595090317E+02 -0.17342007435E+03  0.23450193591E+03  0.12700000000E+03 0.  0.
   -5000001    1    1    2    0    0 -0.88609120332E+02  0.30595090317E+02 -0.54280610650E+03  0.56529205285E+03  0.12700000000E+03 0.  0.
<mgrwt>
<rscale>  0 0.35593606E+03</rscale>
<asrwt>0</asrwt>
<pdfrwt beam="1">  1        2 0.10828715E+00 0.35593606E+03</pdfrwt>
<pdfrwt beam="2">  1       -2 0.59691296E-02 0.35593606E+03</pdfrwt>
<totfact> 0.62485915E+03</totfact>
</mgrwt>
</event>
<event>
 4    1  0.4895160E-005  0.2937699E+03  0.7818608E-02  0.1088397E+00
          2   -1    0    0  501    0  0.00000000000E+00  0.00000000000E+00  0.62245956010E+03  0.62245956011E+03  0.25500000000E-02 0.  1.
         -2   -1    0    0    0  501 -0.00000000000E+00 -0.00000000000E+00 -0.34661199934E+02  0.34661200027E+02  0.25500000000E-02 0. -1.
    5000001    1    1    2    0    0 -0.68884856407E+02  0.24554706071E+02  0.27173983051E+03  0.30873871237E+03  0.12700000000E+03 0.  0.
   -5000001    1    1    2    0    0  0.68884856407E+02 -0.24554706071E+02  0.31605852966E+03  0.34838204776E+03  0.12700000000E+03 0.  0.
<mgrwt>
<rscale>  0 0.29376995E+03</rscale>
<asrwt>0</asrwt>
<pdfrwt beam="1">  1        2 0.88922784E-01 0.29376995E+03</pdfrwt>
<pdfrwt beam="2">  1       -2 0.49516006E-02 0.29376995E+03</pdfrwt>
<totfact> 0.10458198E+04</totfact>
</mgrwt>
</event>
<event>
 4    1  0.4895160E-005  0.3315807E+03  0.7818608E-02  0.1070440E+00
          2   -1    0    0  501    0  0.00000000000E+00  0.00000000000E+00  0.69773215240E+03  0.69773215240E+03  0.25500000000E-02 0.  1.
         -2   -1    0    0    0  501 -0.00000000000E+00 -0.00000000000E+00 -0.39393973831E+02  0.39393973913E+02  0.25500000000E-02 0. -1.
    5000001    1    1    2    0    0  0.61192960763E+02  0.42643072309E+02  0.15994663707E+03  0.21742800366E+03  0.12700000000E+03 0.  0.
   -5000001    1    1    2    0    0 -0.61192960763E+02 -0.42643072309E+02  0.49839154149E+03  0.51969812266E+03  0.12700000000E+03 0.  0.
<mgrwt>
<rscale>  0 0.33158071E+03</rscale>
<asrwt>0</asrwt>
<pdfrwt beam="1">  1        2 0.99676015E-01 0.33158071E+03</pdfrwt>
<pdfrwt beam="2">  1       -2 0.56277110E-02 0.33158071E+03</pdfrwt>
<totfact> 0.75509366E+03</totfact>
</mgrwt>
</event>
<event>
 4    1  0.4895160E-005  0.4264740E+03  0.7818608E-02  0.1034980E+00
         -2   -1    0    0    0  501 -0.00000000000E+00  0.00000000000E+00  0.37086766952E+03  0.37086766953E+03  0.25500000000E-02 0. -1.
          2   -1    0    0  501    0  0.00000000000E+00 -0.00000000000E+00 -0.12260441530E+03  0.12260441533E+03  0.25500000000E-02 0.  1.
    5000001    1    1    2    0    0  0.14763909298E+03  0.72505712042E+02  0.17946260608E+03  0.27457277184E+03  0.12700000000E+03 0.  0.
   -5000001    1    1    2    0    0 -0.14763909298E+03 -0.72505712042E+02  0.68800648139E+02  0.21889931301E+03  0.12700000000E+03 0.  0.
<mgrwt>
<rscale>  0 0.42647398E+03</rscale>
<asrwt>0</asrwt>
<pdfrwt beam="1">  1        2 0.17514917E-01 0.42647398E+03</pdfrwt>
<pdfrwt beam="2">  1       -2 0.52981095E-01 0.42647398E+03</pdfrwt>
<totfact> 0.11168559E+03</totfact>
</mgrwt>
</event>
<event>
 4    1  0.4895160E-005  0.3784534E+03  0.7818608E-02  0.1051507E+00
         -2   -1    0    0    0  501 -0.00000000000E+00  0.00000000000E+00  0.81608358448E+01  0.81608362432E+01  0.25500000000E-02 0. -1.
          2   -1    0    0  501    0  0.00000000000E+00 -0.00000000000E+00 -0.43876321657E+04  0.43876321657E+04  0.25500000000E-02 0.  1.
    5000001    1    1    2    0    0  0.10061601460E+03 -0.89650919533E+02 -0.17373592201E+04  0.17471997394E+04  0.12700000000E+03 0.  0.
   -5000001    1    1    2    0    0 -0.10061601460E+03  0.89650919533E+02 -0.26421121098E+04  0.26485932625E+04  0.12700000000E+03 0.  0.
<mgrwt>
<rscale>  0 0.37845341E+03</rscale>
<asrwt>0</asrwt>
<pdfrwt beam="1">  1        2 0.62680308E+00 0.37845341E+03</pdfrwt>
<pdfrwt beam="2">  1       -2 0.11658365E-02 0.37845341E+03</pdfrwt>
<totfact> 0.65192367E+02</totfact>
</mgrwt>
</event>
<event>
 4    1  0.4895160E-005  0.6356636E+03  0.7818608E-02  0.9834059E-01
          2   -1    0    0  501    0  0.00000000000E+00  0.00000000000E+00  0.18951564933E+04  0.18951564933E+04  0.25500000000E-02 0.  1.
         -2   -1    0    0    0  501 -0.00000000000E+00 -0.00000000000E+00 -0.53302742427E+02  0.53302742488E+02  0.25500000000E-02 0. -1.
    5000001    1    1    2    0    0 -0.12315610749E+03 -0.25805501304E+03  0.10923671247E+04  0.11362899065E+04  0.12700000000E+03 0.  0.
   -5000001    1    1    2    0    0  0.12315610749E+03  0.25805501304E+03  0.74948662617E+03  0.81216932925E+03  0.12700000000E+03 0.  0.
<mgrwt>
<rscale>  0 0.63566355E+03</rscale>
<asrwt>0</asrwt>
<pdfrwt beam="1">  1        2 0.27073666E+00 0.63566355E+03</pdfrwt>
<pdfrwt beam="2">  1       -2 0.76146769E-02 0.63566355E+03</pdfrwt>
<totfact> 0.99009600E+02</totfact>
</mgrwt>
</event>
<event>
 4    1  0.4895160E-005  0.4997197E+03  0.7818608E-02  0.1013852E+00
          2   -1    0    0  501    0  0.00000000000E+00  0.00000000000E+00  0.28699825378E+04  0.28699825378E+04  0.25500000000E-02 0.  1.
         -2   -1    0    0    0  501 -0.00000000000E+00 -0.00000000000E+00 -0.21752729989E+02  0.21752730139E+02  0.25500000000E-02 0. -1.
    5000001    1    1    2    0    0 -0.20808694815E+03 -0.29199962896E+02  0.11559121236E+04  0.11816998998E+04  0.12700000000E+03 0.  0.
   -5000001    1    1    2    0    0  0.20808694815E+03  0.29199962896E+02  0.16923176842E+04  0.17100353681E+04  0.12700000000E+03 0.  0.
<mgrwt>
<rscale>  0 0.49971974E+03</rscale>
<asrwt>0</asrwt>
<pdfrwt beam="1">  1        2 0.40999703E+00 0.49971974E+03</pdfrwt>
<pdfrwt beam="2">  1       -2 0.31075364E-02 0.49971974E+03</pdfrwt>
<totfact> 0.12725313E+03</totfact>
</mgrwt>
</event>
<event>
 4    1  0.4895160E-005  0.3642028E+03  0.7818608E-02  0.1056932E+00
         -2   -1    0    0    0  501 -0.00000000000E+00  0.00000000000E+00  0.62058113309E+02  0.62058113361E+02  0.25500000000E-02 0. -1.
          2   -1    0    0  501    0  0.00000000000E+00 -0.00000000000E+00 -0.53435267862E+03  0.53435267863E+03  0.25500000000E-02 0.  1.
    5000001    1    1    2    0    0 -0.31844321047E+02 -0.12651032974E+03 -0.23024409371E+03  0.29353069175E+03  0.12700000000E+03 0.  0.
   -5000001    1    1    2    0    0  0.31844321047E+02  0.12651032974E+03 -0.24205047161E+03  0.30288010024E+03  0.12700000000E+03 0.  0.
<mgrwt>
<rscale>  0 0.36420280E+03</rscale>
<asrwt>0</asrwt>
<pdfrwt beam="1">  1        2 0.76336094E-01 0.36420280E+03</pdfrwt>
<pdfrwt beam="2">  1       -2 0.88654451E-02 0.36420280E+03</pdfrwt>
<totfact> 0.50751925E+03</totfact>
</mgrwt>
</event>
<event>
 4    1  0.4895160E-005  0.3812252E+03  0.7818608E-02  0.1050482E+00
         -2   -1    0    0    0  501 -0.00000000000E+00  0.00000000000E+00  0.13970720468E+03  0.13970720470E+03  0.25500000000E-02 0. -1.
          2   -1    0    0  501    0  0.00000000000E+00 -0.00000000000E+00 -0.26006646531E+03  0.26006646532E+03  0.25500000000E-02 0.  1.
    5000001    1    1    2    0    0 -0.80152519297E+01 -0.10975447832E+03  0.34163591071E+02  0.17148306252E+03  0.12700000000E+03 0.  0.
   -5000001    1    1    2    0    0  0.80152519297E+01  0.10975447832E+03 -0.15452285170E+03  0.22829060750E+03  0.12700000000E+03 0.  0.
<mgrwt>
<rscale>  0 0.38122518E+03</rscale>
<asrwt>0</asrwt>
<pdfrwt beam="1">  1        2 0.37152352E-01 0.38122518E+03</pdfrwt>
<pdfrwt beam="2">  1       -2 0.19958172E-01 0.38122518E+03</pdfrwt>
<totfact> 0.29407919E+03</totfact>
</mgrwt>
</event>
<event>
 4    1  0.4895160E-005  0.2881112E+03  0.7818608E-02  0.1091339E+00
          2   -1    0    0  501    0  0.00000000000E+00  0.00000000000E+00  0.52308976105E+02  0.52308976167E+02  0.25500000000E-02 0.  1.
         -2   -1    0    0    0  501 -0.00000000000E+00 -0.00000000000E+00 -0.39672008109E+03  0.39672008109E+03  0.25500000000E-02 0. -1.
    5000001    1    1    2    0    0 -0.18894698560E+02  0.57705898244E+02 -0.21988834355E+03  0.26108784720E+03  0.12700000000E+03 0.  0.
   -5000001    1    1    2    0    0  0.18894698560E+02 -0.57705898244E+02 -0.12452276144E+03  0.18794121007E+03  0.12700000000E+03 0.  0.
<mgrwt>
<rscale>  0 0.28811124E+03</rscale>
<asrwt>0</asrwt>
<pdfrwt beam="1">  1        2 0.74727111E-02 0.28811124E+03</pdfrwt>
<pdfrwt beam="2">  1       -2 0.56674295E-01 0.28811124E+03</pdfrwt>
<totfact> 0.27598904E+03</totfact>
</mgrwt>
</event>
<event>
 4    1  0.4895160E-005  0.4185218E+03  0.7818608E-02  0.1037548E+00
         -2   -1    0    0    0  501 -0.00000000000E+00  0.00000000000E+00  0.60429596228E+02  0.60429596282E+02  0.25500000000E-02 0. -1.
          2   -1    0    0  501    0  0.00000000000E+00 -0.00000000000E+00 -0.72464713932E+03  0.72464713932E+03  0.25500000000E-02 0.  1.
    5000001    1    1    2    0    0  0.73721863402E+02  0.14304386658E+03 -0.25330879032E+03  0.32586930534E+03  0.12700000000E+03 0.  0.
   -5000001    1    1    2    0    0 -0.73721863402E+02 -0.14304386658E+03 -0.41090875277E+03  0.45920743027E+03  0.12700000000E+03 0.  0.
<mgrwt>
<rscale>  0 0.41852185E+03</rscale>
<asrwt>0</asrwt>
<pdfrwt beam="1">  1        2 0.10352101E+00 0.41852185E+03</pdfrwt>
<pdfrwt beam="2">  1       -2 0.86327999E-02 0.41852185E+03</pdfrwt>
<totfact> 0.37162812E+03</totfact>
</mgrwt>
</event>
<event>
 4    1  0.4895160E-005  0.4984238E+03  0.7818608E-02  0.1014191E+00
          2   -1    0    0  501    0  0.00000000000E+00  0.00000000000E+00  0.58472315746E+03  0.58472315747E+03  0.25500000000E-02 0.  1.
         -2   -1    0    0    0  501 -0.00000000000E+00 -0.00000000000E+00 -0.10621532844E+03  0.10621532847E+03  0.25500000000E-02 0. -1.
    5000001    1    1    2    0    0 -0.20132312122E+03  0.71625756519E+02  0.21459920352E+03  0.32839468066E+03  0.12700000000E+03 0.  0.
   -5000001    1    1    2    0    0  0.20132312122E+03 -0.71625756519E+02  0.26390862550E+03  0.36254380528E+03  0.12700000000E+03 0.  0.
<mgrwt>
<rscale>  0 0.49842376E+03</rscale>
<asrwt>0</asrwt>
<pdfrwt beam="1">  1        2 0.83531878E-01 0.49842376E+03</pdfrwt>
<pdfrwt beam="2">  1       -2 0.15173619E-01 0.49842376E+03</pdfrwt>
<totfact> 0.19150269E+03</totfact>
</mgrwt>
</event>
<event>
 4    1  0.4895160E-005  0.5637482E+03  0.7818608E-02  0.9983609E-01
         -2   -1    0    0    0  501 -0.00000000000E+00  0.00000000000E+00  0.42534683974E+02  0.42534684050E+02  0.25500000000E-02 0. -1.
          2   -1    0    0  501    0  0.00000000000E+00 -0.00000000000E+00 -0.18679584200E+04  0.18679584200E+04  0.25500000000E-02 0.  1.
    5000001    1    1    2    0    0 -0.22439065542E+00  0.25128024273E+03 -0.95845720780E+03  0.99895496891E+03  0.12700000000E+03 0.  0.
   -5000001    1    1    2    0    0  0.22439065542E+00 -0.25128024273E+03 -0.86696652819E+03  0.91153813510E+03  0.12700000000E+03 0.  0.
<mgrwt>
<rscale>  0 0.56374825E+03</rscale>
<asrwt>0</asrwt>
<pdfrwt beam="1">  1        2 0.26685115E+00 0.56374825E+03</pdfrwt>
<pdfrwt beam="2">  1       -2 0.60763846E-02 0.56374825E+03</pdfrwt>
<totfact> 0.14639541E+03</totfact>
</mgrwt>
</event>
<event>
 4    1  0.4895160E-005  0.7386728E+03  0.7818608E-02  0.9653290E-01
          2   -1    0    0  501    0  0.00000000000E+00  0.00000000000E+00  0.23037166634E+04  0.23037166635E+04  0.25500000000E-02 0. -1.
         -2   -1    0    0    0  501 -0.00000000000E+00 -0.00000000000E+00 -0.59212738238E+02  0.59212738293E+02  0.25500000000E-02 0.  1.
    5000001    1    1    2    0    0 -0.16984801984E+03  0.29379226389E+03  0.89340023067E+03  0.96408257755E+03  0.12700000000E+03 0.  0.
   -5000001    1    1    2    0    0  0.16984801984E+03 -0.29379226389E+03  0.13511036945E+04  0.13988468242E+04  0.12700000000E+03 0.  0.
<mgrwt>
<rscale>  0 0.73867279E+03</rscale>
<asrwt>0</asrwt>
<pdfrwt beam="1">  1        2 0.32910239E+00 0.73867279E+03</pdfrwt>
<pdfrwt beam="2">  1       -2 0.84589624E-02 0.73867279E+03</pdfrwt>
<totfact> 0.51682660E+02</totfact>
</mgrwt>
</event>
<event>
 4    1  0.4895160E-005  0.8039173E+03  0.7818608E-02  0.9554364E-01
          2   -1    0    0  501    0  0.00000000000E+00  0.00000000000E+00  0.33282706510E+03  0.33282706511E+03  0.25500000000E-02 0.  1.
         -2   -1    0    0    0  501 -0.00000000000E+00 -0.00000000000E+00 -0.48544958722E+03  0.48544958723E+03  0.25500000000E-02 0. -1.
    5000001    1    1    2    0    0 -0.51389995261E+02  0.37779377375E+03 -0.84989645421E+02  0.41075699255E+03  0.12700000000E+03 0.  0.
   -5000001    1    1    2    0    0  0.51389995261E+02 -0.37779377375E+03 -0.67632876700E+02  0.40751965978E+03  0.12700000000E+03 0.  0.
<mgrwt>
<rscale>  0 0.80391731E+03</rscale>
<asrwt>0</asrwt>
<pdfrwt beam="1">  1        2 0.47546724E-01 0.80391731E+03</pdfrwt>
<pdfrwt beam="2">  1       -2 0.69349941E-01 0.80391731E+03</pdfrwt>
<totfact> 0.20297553E+02</totfact>
</mgrwt>
</event>
<event>
 4    1  0.4895160E-005  0.4349390E+03  0.7818608E-02  0.1032311E+00
         -2   -1    0    0    0  501 -0.00000000000E+00  0.00000000000E+00  0.14316709781E+03  0.14316709783E+03  0.25500000000E-02 0. -1.
          2   -1    0    0  501    0  0.00000000000E+00 -0.00000000000E+00 -0.33033409882E+03  0.33033409883E+03  0.25500000000E-02 0.  1.
    5000001    1    1    2    0    0 -0.13014107933E+03 -0.74879873302E+02 -0.19466074982E+03  0.27670472254E+03  0.12700000000E+03 0.  0.
   -5000001    1    1    2    0    0  0.13014107933E+03  0.74879873302E+02  0.74937488109E+01  0.19679647412E+03  0.12700000000E+03 0.  0.
<mgrwt>
<rscale>  0 0.43493896E+03</rscale>
<asrwt>0</asrwt>
<pdfrwt beam="1">  1        2 0.47190585E-01 0.43493896E+03</pdfrwt>
<pdfrwt beam="2">  1       -2 0.20452443E-01 0.43493896E+03</pdfrwt>
<totfact> 0.21754541E+03</totfact>
</mgrwt>
</event>
<event>
 4    1  0.4895160E-005  0.3893122E+03  0.7818608E-02  0.1047545E+00
         -2   -1    0    0    0  501 -0.00000000000E+00  0.00000000000E+00  0.19922710891E+02  0.19922711054E+02  0.25500000000E-02 0. -1.
          2   -1    0    0  501    0  0.00000000000E+00 -0.00000000000E+00 -0.19018997649E+04  0.19018997649E+04  0.25500000000E-02 0.  1.
    5000001    1    1    2    0    0 -0.13592823539E+03 -0.30350802884E+02 -0.11810212626E+04  0.11959673403E+04  0.12700000000E+03 0.  0.
   -5000001    1    1    2    0    0  0.13592823539E+03  0.30350802884E+02 -0.70095579146E+03  0.72585513568E+03  0.12700000000E+03 0.  0.
<mgrwt>
<rscale>  0 0.38931221E+03</rscale>
<asrwt>0</asrwt>
<pdfrwt beam="1">  1        2 0.27169985E+00 0.38931221E+03</pdfrwt>
<pdfrwt beam="2">  1       -2 0.28461028E-02 0.38931221E+03</pdfrwt>
<totfact> 0.45196615E+03</totfact>
</mgrwt>
</event>
<event>
 4    1  0.4895160E-005  0.2845965E+03  0.7818608E-02  0.1093205E+00
          2   -1    0    0  501    0  0.00000000000E+00  0.00000000000E+00  0.87071740014E+03  0.87071740015E+03  0.25500000000E-02 0.  1.
         -2   -1    0    0    0  501 -0.00000000000E+00 -0.00000000000E+00 -0.23255295514E+02  0.23255295653E+02  0.25500000000E-02 0. -1.
    5000001    1    1    2    0    0  0.56862682183E+02  0.14110266687E+01  0.33031367958E+03  0.35842918762E+03  0.12700000000E+03 0.  0.
   -5000001    1    1    2    0    0 -0.56862682183E+02 -0.14110266687E+01  0.51714842505E+03  0.53554350818E+03  0.12700000000E+03 0.  0.
<mgrwt>
<rscale>  0 0.28459649E+03</rscale>
<asrwt>0</asrwt>
<pdfrwt beam="1">  1        2 0.12438819E+00 0.28459649E+03</pdfrwt>
<pdfrwt beam="2">  1       -2 0.33221852E-02 0.28459649E+03</pdfrwt>
<totfact> 0.12699634E+04</totfact>
</mgrwt>
</event>
<event>
 4    1  0.4895160E-005  0.6725204E+03  0.7818608E-02  0.9765415E-01
          2   -1    0    0  501    0  0.00000000000E+00  0.00000000000E+00  0.16330419626E+04  0.16330419626E+04  0.25500000000E-02 0.  1.
         -2   -1    0    0    0  501 -0.00000000000E+00 -0.00000000000E+00 -0.69239444335E+02  0.69239444382E+02  0.25500000000E-02 0. -1.
    5000001    1    1    2    0    0 -0.29994525532E+03 -0.59011352004E+02  0.93148668231E+03  0.98855750221E+03  0.12700000000E+03 0.  0.
   -5000001    1    1    2    0    0  0.29994525532E+03  0.59011352004E+02  0.63231583598E+03  0.71372390480E+03  0.12700000000E+03 0.  0.
<mgrwt>
<rscale>  0 0.67252039E+03</rscale>
<asrwt>0</asrwt>
<pdfrwt beam="1">  1        2 0.23329169E+00 0.67252039E+03</pdfrwt>
<pdfrwt beam="2">  1       -2 0.98913501E-02 0.67252039E+03</pdfrwt>
<totfact> 0.88221152E+02</totfact>
</mgrwt>
</event>
<event>
 4    1  0.4895160E-005  0.8403910E+03  0.7818608E-02  0.9503325E-01
         -2   -1    0    0    0  501 -0.00000000000E+00  0.00000000000E+00  0.12206054108E+03  0.12206054110E+03  0.25500000000E-02 0. -1.
          2   -1    0    0  501    0  0.00000000000E+00 -0.00000000000E+00 -0.14465301519E+04  0.14465301519E+04  0.25500000000E-02 0.  1.
    5000001    1    1    2    0    0 -0.30352488866E+03  0.24060571558E+03 -0.47173475709E+03  0.62344298011E+03  0.12700000000E+03 0.  0.
   -5000001    1    1    2    0    0  0.30352488866E+03 -0.24060571558E+03 -0.85273485370E+03  0.94514771286E+03  0.12700000000E+03 0.  0.
<mgrwt>
<rscale>  0 0.84039099E+03</rscale>
<asrwt>0</asrwt>
<pdfrwt beam="1">  1        2 0.20664715E+00 0.84039099E+03</pdfrwt>
<pdfrwt beam="2">  1       -2 0.17437221E-01 0.84039099E+03</pdfrwt>
<totfact> 0.42494588E+02</totfact>
</mgrwt>
</event>
<event>
 4    1  0.4895160E-005  0.3851547E+03  0.7818608E-02  0.1049045E+00
         -2   -1    0    0    0  501 -0.00000000000E+00  0.00000000000E+00  0.87852594391E+02  0.87852594428E+02  0.25500000000E-02 0. -1.
          2   -1    0    0  501    0  0.00000000000E+00 -0.00000000000E+00 -0.42213926888E+03  0.42213926889E+03  0.25500000000E-02 0.  1.
    5000001    1    1    2    0    0 -0.14083026708E+03 -0.30750379546E+02 -0.14946345355E+03  0.24340721829E+03  0.12700000000E+03 0.  0.
   -5000001    1    1    2    0    0  0.14083026708E+03  0.30750379546E+02 -0.18482322095E+03  0.26658464503E+03  0.12700000000E+03 0.  0.
<mgrwt>
<rscale>  0 0.38515467E+03</rscale>
<asrwt>0</asrwt>
<pdfrwt beam="1">  1        2 0.60305609E-01 0.38515467E+03</pdfrwt>
<pdfrwt beam="2">  1       -2 0.12550371E-01 0.38515467E+03</pdfrwt>
<totfact> 0.37744674E+03</totfact>
</mgrwt>
</event>
<event>
 4    1  0.4895160E-005  0.3726658E+03  0.7818608E-02  0.1053678E+00
          2   -1    0    0  501    0  0.00000000000E+00  0.00000000000E+00  0.67582129248E+03  0.67582129249E+03  0.25500000000E-02 0.  1.
         -2   -1    0    0    0  501 -0.00000000000E+00 -0.00000000000E+00 -0.51374451338E+02  0.51374451401E+02  0.25500000000E-02 0. -1.
    5000001    1    1    2    0    0  0.12275360460E+03  0.54209003390E+02  0.35937489998E+03  0.40408709733E+03  0.12700000000E+03 0.  0.
   -5000001    1    1    2    0    0 -0.12275360460E+03 -0.54209003390E+02  0.26507194116E+03  0.32310864656E+03  0.12700000000E+03 0.  0.
<mgrwt>
<rscale>  0 0.37266579E+03</rscale>
<asrwt>0</asrwt>
<pdfrwt beam="1">  1        2 0.96545891E-01 0.37266579E+03</pdfrwt>
<pdfrwt beam="2">  1       -2 0.73392079E-02 0.37266579E+03</pdfrwt>
<totfact> 0.52108619E+03</totfact>
</mgrwt>
</event>
<event>
 4    1  0.4895160E-005  0.4116820E+03  0.7818608E-02  0.1039808E+00
         -2   -1    0    0    0  501 -0.00000000000E+00  0.00000000000E+00  0.94714929097E+02  0.94714929131E+02  0.25500000000E-02 0. -1.
          2   -1    0    0  501    0  0.00000000000E+00 -0.00000000000E+00 -0.44734772558E+03  0.44734772559E+03  0.25500000000E-02 0.  1.
    5000001    1    1    2    0    0  0.10462352742E+03 -0.10538478964E+03 -0.26154145296E+03  0.32647353337E+03  0.12700000000E+03 0.  0.
   -5000001    1    1    2    0    0 -0.10462352742E+03  0.10538478964E+03 -0.91091343522E+02  0.21558912134E+03  0.12700000000E+03 0.  0.
<mgrwt>
<rscale>  0 0.41168196E+03</rscale>
<asrwt>0</asrwt>
<pdfrwt beam="1">  1        2 0.63906817E-01 0.41168196E+03</pdfrwt>
<pdfrwt beam="2">  1       -2 0.13530704E-01 0.41168196E+03</pdfrwt>
<totfact> 0.31327277E+03</totfact>
</mgrwt>
</event>
<event>
 4    1  0.4895160E-005  0.3479376E+03  0.7818608E-02  0.1063465E+00
         -2   -1    0    0    0  501 -0.00000000000E+00  0.00000000000E+00  0.18096315886E+03  0.18096315888E+03  0.25500000000E-02 0. -1.
          2   -1    0    0  501    0  0.00000000000E+00 -0.00000000000E+00 -0.16724478301E+03  0.16724478302E+03  0.25500000000E-02 0.  1.
    5000001    1    1    2    0    0  0.97700543816E+02  0.35286604032E+02  0.64745321326E+02  0.17638451553E+03  0.12700000000E+03 0.  0.
   -5000001    1    1    2    0    0 -0.97700543816E+02 -0.35286604032E+02 -0.51026945470E+02  0.17182342637E+03  0.12700000000E+03 0.  0.
<mgrwt>
<rscale>  0 0.34793760E+03</rscale>
<asrwt>0</asrwt>
<pdfrwt beam="1">  1        2 0.23892112E-01 0.34793760E+03</pdfrwt>
<pdfrwt beam="2">  1       -2 0.25851880E-01 0.34793760E+03</pdfrwt>
<totfact> 0.30447750E+03</totfact>
</mgrwt>
</event>
<event>
 4    1  0.4895160E-005  0.3145711E+03  0.7818608E-02  0.1078175E+00
          2   -1    0    0  501    0  0.00000000000E+00  0.00000000000E+00  0.12412585653E+04  0.12412585653E+04  0.25500000000E-02 0.  1.
         -2   -1    0    0    0  501 -0.00000000000E+00 -0.00000000000E+00 -0.19930370166E+02  0.19930370329E+02  0.25500000000E-02 0. -1.
    5000001    1    1    2    0    0 -0.41560250817E+02 -0.70075021014E+02  0.78870204178E+03  0.80300540081E+03  0.12700000000E+03 0.  0.
   -5000001    1    1    2    0    0  0.41560250817E+02  0.70075021014E+02  0.43262615335E+03  0.45818353482E+03  0.12700000000E+03 0.  0.
<mgrwt>
<rscale>  0 0.31457109E+03</rscale>
<asrwt>0</asrwt>
<pdfrwt beam="1">  1        2 0.17732266E+00 0.31457109E+03</pdfrwt>
<pdfrwt beam="2">  1       -2 0.28471956E-02 0.31457109E+03</pdfrwt>
<totfact> 0.97740671E+03</totfact>
</mgrwt>
</event>
<event>
 4    1  0.4895160E-005  0.5971857E+03  0.7818608E-02  0.9911262E-01
          2   -1    0    0  501    0  0.00000000000E+00  0.00000000000E+00  0.25758281197E+03  0.25758281198E+03  0.25500000000E-02 0.  1.
         -2   -1    0    0    0  501 -0.00000000000E+00 -0.00000000000E+00 -0.34613210472E+03  0.34613210473E+03  0.25500000000E-02 0. -1.
    5000001    1    1    2    0    0 -0.26064624825E+02  0.26878750963E+03 -0.54514101525E+02  0.30335932039E+03  0.12700000000E+03 0.  0.
   -5000001    1    1    2    0    0  0.26064624825E+02 -0.26878750963E+03 -0.34035191227E+02  0.30035559632E+03  0.12700000000E+03 0.  0.
<mgrwt>
<rscale>  0 0.59718567E+03</rscale>
<asrwt>0</asrwt>
<pdfrwt beam="1">  1        2 0.36797545E-01 0.59718567E+03</pdfrwt>
<pdfrwt beam="2">  1       -2 0.49447443E-01 0.59718567E+03</pdfrwt>
<totfact> 0.55145513E+02</totfact>
</mgrwt>
</event>
<event>
 4    1  0.4895160E-005  0.3463844E+03  0.7818608E-02  0.1064109E+00
          2   -1    0    0  501    0  0.00000000000E+00  0.00000000000E+00  0.41177026689E+03  0.41177026690E+03  0.25500000000E-02 0.  1.
         -2   -1    0    0    0  501 -0.00000000000E+00 -0.00000000000E+00 -0.72845308624E+02  0.72845308668E+02  0.25500000000E-02 0. -1.
    5000001    1    1    2    0    0 -0.94198435527E+02 -0.45106967737E+02  0.93363571024E+02  0.18908659442E+03  0.12700000000E+03 0.  0.
   -5000001    1    1    2    0    0  0.94198435527E+02  0.45106967737E+02  0.24556138724E+03  0.29552898115E+03  0.12700000000E+03 0.  0.
<mgrwt>
<rscale>  0 0.34638437E+03</rscale>
<asrwt>0</asrwt>
<pdfrwt beam="1">  1        2 0.58824326E-01 0.34638437E+03</pdfrwt>
<pdfrwt beam="2">  1       -2 0.10406472E-01 0.34638437E+03</pdfrwt>
<totfact> 0.52406167E+03</totfact>
</mgrwt>
</event>
<event>
 4    1  0.4895160E-005  0.3150781E+03  0.7818608E-02  0.1077937E+00
         -2   -1    0    0    0  501 -0.00000000000E+00  0.00000000000E+00  0.99658109340E+02  0.99658109373E+02  0.25500000000E-02 0. -1.
          2   -1    0    0  501    0  0.00000000000E+00 -0.00000000000E+00 -0.24903694139E+03  0.24903694140E+03  0.25500000000E-02 0.  1.
    5000001    1    1    2    0    0  0.42298516384E+02  0.53253236282E+02 -0.14524477811E+03  0.20457301198E+03  0.12700000000E+03 0.  0.
   -5000001    1    1    2    0    0 -0.42298516384E+02 -0.53253236282E+02 -0.41340539341E+01  0.14412203879E+03  0.12700000000E+03 0.  0.
<mgrwt>
<rscale>  0 0.31507809E+03</rscale>
<asrwt>0</asrwt>
<pdfrwt beam="1">  1        2 0.35576706E-01 0.31507809E+03</pdfrwt>
<pdfrwt beam="2">  1       -2 0.14236873E-01 0.31507809E+03</pdfrwt>
<totfact> 0.54204733E+03</totfact>
</mgrwt>
</event>
<event>
 4    1  0.4895160E-005  0.4390252E+03  0.7818608E-02  0.1031046E+00
          2   -1    0    0  501    0  0.00000000000E+00  0.00000000000E+00  0.51914629082E+03  0.51914629083E+03  0.25500000000E-02 0.  1.
         -2   -1    0    0    0  501 -0.00000000000E+00 -0.00000000000E+00 -0.92817358497E+02  0.92817358532E+02  0.25500000000E-02 0. -1.
    5000001    1    1    2    0    0 -0.13055532244E+03  0.11336403360E+03  0.27795812255E+03  0.35112079720E+03  0.12700000000E+03 0.  0.
   -5000001    1    1    2    0    0  0.13055532244E+03 -0.11336403360E+03  0.14837080978E+03  0.26084285217E+03  0.12700000000E+03 0.  0.
<mgrwt>
<rscale>  0 0.43902523E+03</rscale>
<asrwt>0</asrwt>
<pdfrwt beam="1">  1        2 0.74163757E-01 0.43902523E+03</pdfrwt>
<pdfrwt beam="2">  1       -2 0.13259622E-01 0.43902523E+03</pdfrwt>
<totfact> 0.27443945E+03</totfact>
</mgrwt>
</event>
<event>
 4    1  0.4895160E-005  0.6108817E+03  0.7818608E-02  0.9883084E-01
         -2   -1    0    0    0  501 -0.00000000000E+00  0.00000000000E+00  0.50271932244E+02  0.50271932309E+02  0.25500000000E-02 0. -1.
          2   -1    0    0  501    0  0.00000000000E+00 -0.00000000000E+00 -0.18557892675E+04  0.18557892675E+04  0.25500000000E-02 0.  1.
    5000001    1    1    2    0    0 -0.18783065595E+03  0.19391971673E+03 -0.69863349538E+03  0.75967293799E+03  0.12700000000E+03 0.  0.
   -5000001    1    1    2    0    0  0.18783065595E+03 -0.19391971673E+03 -0.11068838398E+04  0.11463882618E+04  0.12700000000E+03 0.  0.
<mgrwt>
<rscale>  0 0.61088170E+03</rscale>
<asrwt>0</asrwt>
<pdfrwt beam="1">  1        2 0.26511271E+00 0.61088170E+03</pdfrwt>
<pdfrwt beam="2">  1       -2 0.71817058E-02 0.61088170E+03</pdfrwt>
<totfact> 0.11387258E+03</totfact>
</mgrwt>
</event>
<event>
 4    1  0.4895160E-005  0.3888680E+03  0.7818608E-02  0.1047704E+00
          2   -1    0    0  501    0  0.00000000000E+00  0.00000000000E+00  0.33062036083E+04  0.33062036083E+04  0.25500000000E-02 0.  1.
         -2   -1    0    0    0  501 -0.00000000000E+00 -0.00000000000E+00 -0.11434436262E+02  0.11434436547E+02  0.25500000000E-02 0. -1.
    5000001    1    1    2    0    0 -0.13126837938E+03  0.47608185686E+02  0.20455107150E+04  0.20542008207E+04  0.12700000000E+03 0.  0.
   -5000001    1    1    2    0    0  0.13126837938E+03 -0.47608185686E+02  0.12492584571E+04  0.12634372242E+04  0.12700000000E+03 0.  0.
<mgrwt>
<rscale>  0 0.38886797E+03</rscale>
<asrwt>0</asrwt>
<pdfrwt beam="1">  1        2 0.47231436E+00 0.38886797E+03</pdfrwt>
<pdfrwt beam="2">  1       -2 0.16334924E-02 0.38886797E+03</pdfrwt>
<totfact> 0.19438895E+03</totfact>
</mgrwt>
</event>
<event>
 4    1  0.4895160E-005  0.6439471E+03  0.7818608E-02  0.9818204E-01
         -2   -1    0    0    0  501 -0.00000000000E+00  0.00000000000E+00  0.95818897441E+02  0.95818897475E+02  0.25500000000E-02 0. -1.
          2   -1    0    0  501    0  0.00000000000E+00 -0.00000000000E+00 -0.10819050996E+04  0.10819050996E+04  0.25500000000E-02 0.  1.
    5000001    1    1    2    0    0 -0.21224711586E+03 -0.18793369484E+03 -0.64790843333E+03  0.71852783511E+03  0.12700000000E+03 0.  0.
   -5000001    1    1    2    0    0  0.21224711586E+03  0.18793369484E+03 -0.33817776886E+03  0.45919616200E+03  0.12700000000E+03 0.  0.
<mgrwt>
<rscale>  0 0.64394706E+03</rscale>
<asrwt>0</asrwt>
<pdfrwt beam="1">  1        2 0.15455786E+00 0.64394706E+03</pdfrwt>
<pdfrwt beam="2">  1       -2 0.13688415E-01 0.64394706E+03</pdfrwt>
<totfact> 0.10296220E+03</totfact>
</mgrwt>
</event>
<event>
 4    1  0.4895160E-005  0.3150474E+03  0.7818608E-02  0.1077951E+00
          2   -1    0    0  501    0  0.00000000000E+00  0.00000000000E+00  0.31822417970E+04  0.31822417971E+04  0.25500000000E-02 0.  1.
         -2   -1    0    0    0  501 -0.00000000000E+00 -0.00000000000E+00 -0.77975594771E+01  0.77975598941E+01  0.25500000000E-02 0. -1.
    5000001    1    1    2    0    0  0.59935919816E+02 -0.25475336241E+02  0.91226147587E+03  0.92335871014E+03  0.12700000000E+03 0.  0.
   -5000001    1    1    2    0    0 -0.59935919816E+02  0.25475336241E+02  0.22621827617E+04  0.22666806468E+04  0.12700000000E+03 0.  0.
<mgrwt>
<rscale>  0 0.31504743E+03</rscale>
<asrwt>0</asrwt>
<pdfrwt beam="1">  1        2 0.45460677E+00 0.31504743E+03</pdfrwt>
<pdfrwt beam="2">  1       -2 0.11139351E-02 0.31504743E+03</pdfrwt>
<totfact> 0.40258892E+03</totfact>
</mgrwt>
</event>
<event>
 4    1  0.4895160E-005  0.5749177E+03  0.7818608E-02  0.9958855E-01
          2   -1    0    0  501    0  0.00000000000E+00  0.00000000000E+00  0.36395811419E+04  0.36395811419E+04  0.25500000000E-02 0.  1.
         -2   -1    0    0    0  501 -0.00000000000E+00 -0.00000000000E+00 -0.22703873713E+02  0.22703873857E+02  0.25500000000E-02 0. -1.
    5000001    1    1    2    0    0 -0.47652928304E+01 -0.25780963503E+03  0.17837057742E+04  0.18067163045E+04  0.12700000000E+03 0.  0.
   -5000001    1    1    2    0    0  0.47652928304E+01  0.25780963503E+03  0.18331714939E+04  0.18555687112E+04  0.12700000000E+03 0.  0.
<mgrwt>
<rscale>  0 0.57491770E+03</rscale>
<asrwt>0</asrwt>
<pdfrwt beam="1">  1        2 0.51993960E+00 0.57491770E+03</pdfrwt>
<pdfrwt beam="2">  1       -2 0.32434140E-02 0.57491770E+03</pdfrwt>
<totfact> 0.43311824E+02</totfact>
</mgrwt>
</event>
<event>
 4    1  0.4895160E-005  0.7388677E+03  0.7818608E-02  0.9652979E-01
          2   -1    0    0  501    0  0.00000000000E+00  0.00000000000E+00  0.20885651435E+04  0.20885651435E+04  0.25500000000E-02 0.  1.
         -2   -1    0    0    0  501 -0.00000000000E+00 -0.00000000000E+00 -0.65346956066E+02  0.65346956116E+02  0.25500000000E-02 0. -1.
    5000001    1    1    2    0    0 -0.17846862345E+03  0.28888333879E+03  0.80449490618E+03  0.88240902480E+03  0.12700000000E+03 0.  0.
   -5000001    1    1    2    0    0  0.17846862345E+03 -0.28888333879E+03  0.12187232813E+04  0.12715030749E+04  0.12700000000E+03 0.  0.
<mgrwt>
<rscale>  0 0.73886771E+03</rscale>
<asrwt>0</asrwt>
<pdfrwt beam="1">  1        2 0.29836641E+00 0.73886771E+03</pdfrwt>
<pdfrwt beam="2">  1       -2 0.93352805E-02 0.73886771E+03</pdfrwt>
<totfact> 0.56683406E+02</totfact>
</mgrwt>
</event>
<event>
 4    1  0.4895160E-005  0.3769391E+03  0.7818608E-02  0.1052071E+00
         -2   -1    0    0    0  501 -0.00000000000E+00  0.00000000000E+00  0.15035896839E+02  0.15035897055E+02  0.25500000000E-02 0. -1.
          2   -1    0    0  501    0  0.00000000000E+00 -0.00000000000E+00 -0.23623984068E+04  0.23623984068E+04  0.25500000000E-02 0.  1.
    5000001    1    1    2    0    0  0.92052767794E+02 -0.88463084540E+02 -0.15244182544E+04  0.15350177341E+04  0.12700000000E+03 0.  0.
   -5000001    1    1    2    0    0 -0.92052767794E+02  0.88463084540E+02 -0.82294425552E+03  0.84241656980E+03  0.12700000000E+03 0.  0.
<mgrwt>
<rscale>  0 0.37693914E+03</rscale>
<asrwt>0</asrwt>
<pdfrwt beam="1">  1        2 0.33748525E+00 0.37693914E+03</pdfrwt>
<pdfrwt beam="2">  1       -2 0.21479868E-02 0.37693914E+03</pdfrwt>
<totfact> 0.40705717E+03</totfact>
</mgrwt>
</event>
<event>
 4    1  0.4895160E-005  0.5152569E+03  0.7818608E-02  0.1009872E+00
         -2   -1    0    0    0  501 -0.00000000000E+00  0.00000000000E+00  0.51208245609E+02  0.51208245673E+02  0.25500000000E-02 0. -1.
          2   -1    0    0  501    0  0.00000000000E+00 -0.00000000000E+00 -0.12961274741E+04  0.12961274741E+04  0.25500000000E-02 0.  1.
    5000001    1    1    2    0    0  0.10773265963E+03  0.14434422025E+03 -0.97134630071E+03  0.99603424428E+03  0.12700000000E+03 0.  0.
   -5000001    1    1    2    0    0 -0.10773265963E+03 -0.14434422025E+03 -0.27357292775E+03  0.35130147547E+03  0.12700000000E+03 0.  0.
<mgrwt>
<rscale>  0 0.51525688E+03</rscale>
<asrwt>0</asrwt>
<pdfrwt beam="1">  1        2 0.18516105E+00 0.51525688E+03</pdfrwt>
<pdfrwt beam="2">  1       -2 0.73154644E-02 0.51525688E+03</pdfrwt>
<totfact> 0.21603964E+03</totfact>
</mgrwt>
</event>
<event>
 4    1  0.4895160E-005  0.4774361E+03  0.7818608E-02  0.1019842E+00
         -2   -1    0    0    0  501 -0.00000000000E+00  0.00000000000E+00  0.19105987974E+02  0.19105988144E+02  0.25500000000E-02 0. -1.
          2   -1    0    0  501    0  0.00000000000E+00 -0.00000000000E+00 -0.29826412916E+04  0.29826412916E+04  0.25500000000E-02 0.  1.
    5000001    1    1    2    0    0 -0.19648585774E+03 -0.19363861309E+02 -0.17540601231E+04  0.17696998522E+04  0.12700000000E+03 0.  0.
   -5000001    1    1    2    0    0  0.19648585774E+03  0.19363861309E+02 -0.12094751805E+04  0.12320474275E+04  0.12700000000E+03 0.  0.
<mgrwt>
<rscale>  0 0.47743611E+03</rscale>
<asrwt>0</asrwt>
<pdfrwt beam="1">  1        2 0.42609132E+00 0.47743611E+03</pdfrwt>
<pdfrwt beam="2">  1       -2 0.27294288E-02 0.47743611E+03</pdfrwt>
<totfact> 0.13502669E+03</totfact>
</mgrwt>
</event>
<event>
 4    1  0.4895160E-005  0.4385978E+03  0.7818608E-02  0.1031178E+00
         -2   -1    0    0    0  501 -0.00000000000E+00  0.00000000000E+00  0.20757001609E+02  0.20757001765E+02  0.25500000000E-02 0. -1.
          2   -1    0    0  501    0  0.00000000000E+00 -0.00000000000E+00 -0.23169056751E+04  0.23169056751E+04  0.25500000000E-02 0.  1.
    5000001    1    1    2    0    0  0.15773705657E+03 -0.36903674699E+02 -0.15511803261E+04  0.15647786630E+04  0.12700000000E+03 0.  0.
   -5000001    1    1    2    0    0 -0.15773705657E+03  0.36903674699E+02 -0.74496834746E+03  0.77288401390E+03  0.12700000000E+03 0.  0.
<mgrwt>
<rscale>  0 0.43859783E+03</rscale>
<asrwt>0</asrwt>
<pdfrwt beam="1">  1        2 0.33098636E+00 0.43859783E+03</pdfrwt>
<pdfrwt beam="2">  1       -2 0.29652874E-02 0.43859783E+03</pdfrwt>
<totfact> 0.26401833E+03</totfact>
</mgrwt>
</event>
<event>
 4    1  0.4895160E-005  0.4069661E+03  0.7818608E-02  0.1041394E+00
          2   -1    0    0  501    0  0.00000000000E+00  0.00000000000E+00  0.88595879427E+03  0.88595879428E+03  0.25500000000E-02 0.  1.
         -2   -1    0    0    0  501 -0.00000000000E+00 -0.00000000000E+00 -0.46735067581E+02  0.46735067650E+02  0.25500000000E-02 0. -1.
    5000001    1    1    2    0    0 -0.35648343724E+02  0.12713736188E+03  0.21666416813E+03  0.28373768687E+03  0.12700000000E+03 0.  0.
   -5000001    1    1    2    0    0  0.35648343724E+02 -0.12713736188E+03  0.62255955856E+03  0.64895617506E+03  0.12700000000E+03 0.  0.
<mgrwt>
<rscale>  0 0.40696606E+03</rscale>
<asrwt>0</asrwt>
<pdfrwt beam="1">  1        2 0.12656554E+00 0.40696606E+03</pdfrwt>
<pdfrwt beam="2">  1       -2 0.66764383E-02 0.40696606E+03</pdfrwt>
<totfact> 0.43201672E+03</totfact>
</mgrwt>
</event>
<event>
 4    1  0.4895160E-005  0.4535070E+03  0.7818608E-02  0.1026681E+00
         -2   -1    0    0    0  501 -0.00000000000E+00  0.00000000000E+00  0.36809746188E+02  0.36809746276E+02  0.25500000000E-02 0. -1.
          2   -1    0    0  501    0  0.00000000000E+00 -0.00000000000E+00 -0.13968353133E+04  0.13968353133E+04  0.25500000000E-02 0.  1.
    5000001    1    1    2    0    0  0.62975060909E+02 -0.17406485437E+03 -0.78115874887E+03  0.81277452148E+03  0.12700000000E+03 0.  0.
   -5000001    1    1    2    0    0 -0.62975060909E+02  0.17406485437E+03 -0.57886681828E+03  0.62087053814E+03  0.12700000000E+03 0.  0.
<mgrwt>
<rscale>  0 0.45350702E+03</rscale>
<asrwt>0</asrwt>
<pdfrwt beam="1">  1        2 0.19954787E+00 0.45350702E+03</pdfrwt>
<pdfrwt beam="2">  1       -2 0.52585361E-02 0.45350702E+03</pdfrwt>
<totfact> 0.31985925E+03</totfact>
</mgrwt>
</event>
<event>
 4    1  0.4895160E-005  0.3181326E+03  0.7818608E-02  0.1076512E+00
          2   -1    0    0  501    0  0.00000000000E+00  0.00000000000E+00  0.20293738181E+03  0.20293738182E+03  0.25500000000E-02 0.  1.
         -2   -1    0    0    0  501 -0.00000000000E+00 -0.00000000000E+00 -0.12467929244E+03  0.12467929247E+03  0.25500000000E-02 0. -1.
    5000001    1    1    2    0    0 -0.88257553541E+02  0.38239647615E+01  0.77233060739E+02  0.17291027770E+03  0.12700000000E+03 0.  0.
   -5000001    1    1    2    0    0  0.88257553541E+02 -0.38239647615E+01  0.10250286247E+01  0.15470639659E+03  0.12700000000E+03 0.  0.
<mgrwt>
<rscale>  0 0.31813261E+03</rscale>
<asrwt>0</asrwt>
<pdfrwt beam="1">  1        2 0.28991055E-01 0.31813261E+03</pdfrwt>
<pdfrwt beam="2">  1       -2 0.17811327E-01 0.31813261E+03</pdfrwt>
<totfact> 0.46702619E+03</totfact>
</mgrwt>
</event>
<event>
 4    1  0.4895160E-005  0.6171677E+03  0.7818608E-02  0.9870415E-01
          2   -1    0    0  501    0  0.00000000000E+00  0.00000000000E+00  0.13526511012E+04  0.13526511012E+04  0.25500000000E-02 0.  1.
         -2   -1    0    0    0  501 -0.00000000000E+00 -0.00000000000E+00 -0.70398048451E+02  0.70398048497E+02  0.25500000000E-02 0. -1.
    5000001    1    1    2    0    0  0.25406641515E+01  0.26879743231E+03  0.83177488692E+03  0.88331023831E+03  0.12700000000E+03 0.  0.
   -5000001    1    1    2    0    0 -0.25406641515E+01 -0.26879743231E+03  0.45047816587E+03  0.53973891144E+03  0.12700000000E+03 0.  0.
<mgrwt>
<rscale>  0 0.61716772E+03</rscale>
<asrwt>0</asrwt>
<pdfrwt beam="1">  1        2 0.19323586E+00 0.61716772E+03</pdfrwt>
<pdfrwt beam="2">  1       -2 0.10056865E-01 0.61716772E+03</pdfrwt>
<totfact> 0.12072110E+03</totfact>
</mgrwt>
</event>
<event>
 4    1  0.4895160E-005  0.3308076E+03  0.7818608E-02  0.1070780E+00
          2   -1    0    0  501    0  0.00000000000E+00  0.00000000000E+00  0.52238912043E+03  0.52238912043E+03  0.25500000000E-02 0.  1.
         -2   -1    0    0    0  501 -0.00000000000E+00 -0.00000000000E+00 -0.52371720047E+02  0.52371720109E+02  0.25500000000E-02 0. -1.
    5000001    1    1    2    0    0 -0.41543801826E+01  0.98582734106E+02  0.30215610060E+03  0.34229099238E+03  0.12700000000E+03 0.  0.
   -5000001    1    1    2    0    0  0.41543801826E+01 -0.98582734106E+02  0.16786129978E+03  0.23246984816E+03  0.12700000000E+03 0.  0.
<mgrwt>
<rscale>  0 0.33080760E+03</rscale>
<asrwt>0</asrwt>
<pdfrwt beam="1">  1        2 0.74627022E-01 0.33080760E+03</pdfrwt>
<pdfrwt beam="2">  1       -2 0.74816738E-02 0.33080760E+03</pdfrwt>
<totfact> 0.67831736E+03</totfact>
</mgrwt>
</event>
<event>
 4    1  0.4895160E-005  0.4102700E+03  0.7818608E-02  0.1040280E+00
          2   -1    0    0  501    0  0.00000000000E+00  0.00000000000E+00  0.63559344299E+03  0.63559344299E+03  0.25500000000E-02 0. -1.
         -2   -1    0    0    0  501 -0.00000000000E+00 -0.00000000000E+00 -0.66206438517E+02  0.66206438566E+02  0.25500000000E-02 0.  1.
    5000001    1    1    2    0    0 -0.15270589021E+03 -0.11923336345E+02  0.19933359986E+03  0.28164541339E+03  0.12700000000E+03 0.  0.
   -5000001    1    1    2    0    0  0.15270589021E+03  0.11923336345E+02  0.37005340461E+03  0.42015446817E+03  0.12700000000E+03 0.  0.
<mgrwt>
<rscale>  0 0.41027005E+03</rscale>
<asrwt>0</asrwt>
<pdfrwt beam="1">  1        2 0.90799071E-01 0.41027005E+03</pdfrwt>
<pdfrwt beam="2">  1       -2 0.94580618E-02 0.41027005E+03</pdfrwt>
<totfact> 0.37580636E+03</totfact>
</mgrwt>
</event>
<event>
 4    1  0.4895160E-005  0.7063555E+03  0.7818608E-02  0.9706425E-01
         -2   -1    0    0    0  501 -0.00000000000E+00  0.00000000000E+00  0.22127401602E+03  0.22127401603E+03  0.25500000000E-02 0. -1.
          2   -1    0    0  501    0  0.00000000000E+00 -0.00000000000E+00 -0.56371060602E+03  0.56371060602E+03  0.25500000000E-02 0.  1.
    5000001    1    1    2    0    0 -0.32264435979E+03 -0.45399062057E+02 -0.11626649975E+03  0.36852049699E+03  0.12700000000E+03 0.  0.
   -5000001    1    1    2    0    0  0.32264435979E+03  0.45399062057E+02 -0.22617009026E+03  0.41646412506E+03  0.12700000000E+03 0.  0.
<mgrwt>
<rscale>  0 0.70635546E+03</rscale>
<asrwt>0</asrwt>
<pdfrwt beam="1">  1        2 0.80530086E-01 0.70635546E+03</pdfrwt>
<pdfrwt beam="2">  1       -2 0.31610574E-01 0.70635546E+03</pdfrwt>
<totfact> 0.54546903E+02</totfact>
</mgrwt>
</event>
<event>
 4    1  0.4895160E-005  0.3543563E+03  0.7818608E-02  0.1060841E+00
          2   -1    0    0  501    0  0.00000000000E+00  0.00000000000E+00  0.73735478131E+02  0.73735478176E+02  0.25500000000E-02 0.  1.
         -2   -1    0    0    0  501 -0.00000000000E+00 -0.00000000000E+00 -0.42573945070E+03  0.42573945071E+03  0.25500000000E-02 0. -1.
    5000001    1    1    2    0    0  0.73486341413E+02 -0.94008819561E+02 -0.22113331332E+03  0.28154367830E+03  0.12700000000E+03 0.  0.
   -5000001    1    1    2    0    0 -0.73486341413E+02  0.94008819561E+02 -0.13087065925E+03  0.21793125058E+03  0.12700000000E+03 0.  0.
<mgrwt>
<rscale>  0 0.35435633E+03</rscale>
<asrwt>0</asrwt>
<pdfrwt beam="1">  1        2 0.10533640E-01 0.35435633E+03</pdfrwt>
<pdfrwt beam="2">  1       -2 0.60819920E-01 0.35435633E+03</pdfrwt>
<totfact> 0.15528995E+03</totfact>
</mgrwt>
</event>
<event>
 4    1  0.4895160E-005  0.6213200E+03  0.7818608E-02  0.9862135E-01
          2   -1    0    0  501    0  0.00000000000E+00  0.00000000000E+00  0.13801159971E+04  0.13801159971E+04  0.25500000000E-02 0.  1.
         -2   -1    0    0    0  501 -0.00000000000E+00 -0.00000000000E+00 -0.69928651524E+02  0.69928651570E+02  0.25500000000E-02 0. -1.
    5000001    1    1    2    0    0  0.20391786307E+03  0.87547153880E+02  0.24329870211E+03  0.35294511964E+03  0.12700000000E+03 0.  0.
   -5000001    1    1    2    0    0 -0.20391786307E+03 -0.87547153880E+02  0.10668886434E+04  0.10970995290E+04  0.12700000000E+03 0.  0.
<mgrwt>
<rscale>  0 0.62132005E+03</rscale>
<asrwt>0</asrwt>
<pdfrwt beam="1">  1        2 0.19715941E+00 0.62132005E+03</pdfrwt>
<pdfrwt beam="2">  1       -2 0.99898083E-02 0.62132005E+03</pdfrwt>
<totfact> 0.11795731E+03</totfact>
</mgrwt>
</event>
<event>
 4    1  0.4895160E-005  0.3020246E+03  0.7818608E-02  0.1084233E+00
          2   -1    0    0  501    0  0.00000000000E+00  0.00000000000E+00  0.16102370288E+04  0.16102370288E+04  0.25500000000E-02 0.  1.
         -2   -1    0    0    0  501 -0.00000000000E+00 -0.00000000000E+00 -0.14162332112E+02  0.14162332342E+02  0.25500000000E-02 0. -1.
    5000001    1    1    2    0    0  0.25815177542E+02  0.70825204959E+02  0.62854802005E+03  0.64566573903E+03  0.12700000000E+03 0.  0.
   -5000001    1    1    2    0    0 -0.25815177542E+02 -0.70825204959E+02  0.96752667661E+03  0.97873362208E+03  0.12700000000E+03 0.  0.
<mgrwt>
<rscale>  0 0.30202458E+03</rscale>
<asrwt>0</asrwt>
<pdfrwt beam="1">  1        2 0.23003372E+00 0.30202458E+03</pdfrwt>
<pdfrwt beam="2">  1       -2 0.20231916E-02 0.30202458E+03</pdfrwt>
<totfact> 0.10458289E+04</totfact>
</mgrwt>
</event>
<event>
 4    1  0.4895160E-005  0.5838520E+03  0.7818608E-02  0.9939486E-01
          2   -1    0    0  501    0  0.00000000000E+00  0.00000000000E+00  0.94014033529E+03  0.94014033530E+03  0.25500000000E-02 0.  1.
         -2   -1    0    0    0  501 -0.00000000000E+00 -0.00000000000E+00 -0.90646891100E+02  0.90646891136E+02  0.25500000000E-02 0. -1.
    5000001    1    1    2    0    0  0.12282018203E+03  0.12444775459E+03  0.77125052621E+03  0.80095468968E+03  0.12700000000E+03 0.  0.
   -5000001    1    1    2    0    0 -0.12282018203E+03 -0.12444775459E+03  0.78242917980E+02  0.22983253675E+03  0.12700000000E+03 0.  0.
<mgrwt>
<rscale>  0 0.58385203E+03</rscale>
<asrwt>0</asrwt>
<pdfrwt beam="1">  1        2 0.13430577E+00 0.58385203E+03</pdfrwt>
<pdfrwt beam="2">  1       -2 0.12949555E-01 0.58385203E+03</pdfrwt>
<totfact> 0.13786360E+03</totfact>
</mgrwt>
</event>
<event>
 4    1  0.4895160E-005  0.6549134E+03  0.7818608E-02  0.9797603E-01
         -2   -1    0    0    0  501 -0.00000000000E+00  0.00000000000E+00  0.30620327512E+03  0.30620327513E+03  0.25500000000E-02 0. -1.
          2   -1    0    0  501    0  0.00000000000E+00 -0.00000000000E+00 -0.35018532493E+03  0.35018532494E+03  0.25500000000E-02 0.  1.
    5000001    1    1    2    0    0  0.20048984149E+03  0.11406304663E+03  0.17310698970E+03  0.31512154009E+03  0.12700000000E+03 0.  0.
   -5000001    1    1    2    0    0 -0.20048984149E+03 -0.11406304663E+03 -0.21708903951E+03  0.34126705998E+03  0.12700000000E+03 0.  0.
<mgrwt>
<rscale>  0 0.65491341E+03</rscale>
<asrwt>0</asrwt>
<pdfrwt beam="1">  1        2 0.50026475E-01 0.65491341E+03</pdfrwt>
<pdfrwt beam="2">  1       -2 0.43743325E-01 0.65491341E+03</pdfrwt>
<totfact> 0.50103856E+02</totfact>
</mgrwt>
</event>
<event>
 4    1  0.4895160E-005  0.4108358E+03  0.7818608E-02  0.1040091E+00
          2   -1    0    0  501    0  0.00000000000E+00  0.00000000000E+00  0.42778757366E+03  0.42778757367E+03  0.25500000000E-02 0.  1.
         -2   -1    0    0    0  501 -0.00000000000E+00 -0.00000000000E+00 -0.98638918773E+02  0.98638918806E+02  0.25500000000E-02 0. -1.
    5000001    1    1    2    0    0  0.45747070187E+02  0.14838529167E+03  0.22125187442E+03  0.29865093529E+03  0.12700000000E+03 0.  0.
   -5000001    1    1    2    0    0 -0.45747070187E+02 -0.14838529167E+03  0.10789678047E+03  0.22777555718E+03  0.12700000000E+03 0.  0.
<mgrwt>
<rscale>  0 0.41083575E+03</rscale>
<asrwt>0</asrwt>
<pdfrwt beam="1">  1        2 0.61112513E-01 0.41083575E+03</pdfrwt>
<pdfrwt beam="2">  1       -2 0.14091274E-01 0.41083575E+03</pdfrwt>
<totfact> 0.30775233E+03</totfact>
</mgrwt>
</event>
<event>
 4    1  0.4895160E-005  0.3455144E+03  0.7818608E-02  0.1064471E+00
          2   -1    0    0  501    0  0.00000000000E+00  0.00000000000E+00  0.22836021994E+04  0.22836021994E+04  0.25500000000E-02 0.  1.
         -2   -1    0    0    0  501 -0.00000000000E+00 -0.00000000000E+00 -0.13069288299E+02  0.13069288548E+02  0.25500000000E-02 0. -1.
    5000001    1    1    2    0    0 -0.16256726980E+00 -0.99792438602E+02  0.15427237501E+04  0.15511557389E+04  0.12700000000E+03 0.  0.
   -5000001    1    1    2    0    0  0.16256726980E+00  0.99792438602E+02  0.72780916102E+03  0.74551574906E+03  0.12700000000E+03 0.  0.
<mgrwt>
<rscale>  0 0.34551443E+03</rscale>
<asrwt>0</asrwt>
<pdfrwt beam="1">  1        2 0.32622878E+00 0.34551443E+03</pdfrwt>
<pdfrwt beam="2">  1       -2 0.18670418E-02 0.34551443E+03</pdfrwt>
<totfact> 0.54887364E+03</totfact>
</mgrwt>
</event>
<event>
 4    1  0.4895160E-005  0.6592049E+03  0.7818608E-02  0.9789659E-01
          2   -1    0    0  501    0  0.00000000000E+00  0.00000000000E+00  0.90385343105E+03  0.90385343105E+03  0.25500000000E-02 0.  1.
         -2   -1    0    0    0  501 -0.00000000000E+00 -0.00000000000E+00 -0.12019400185E+03  0.12019400188E+03  0.25500000000E-02 0. -1.
    5000001    1    1    2    0    0  0.80872138685E+02  0.29051461476E+03  0.33028222780E+03  0.46492407359E+03  0.12700000000E+03 0.  0.
   -5000001    1    1    2    0    0 -0.80872138685E+02 -0.29051461476E+03  0.45337720140E+03  0.55912335934E+03  0.12700000000E+03 0.  0.
<mgrwt>
<rscale>  0 0.65920486E+03</rscale>
<asrwt>0</asrwt>
<pdfrwt beam="1">  1        2 0.12912192E+00 0.65920486E+03</pdfrwt>
<pdfrwt beam="2">  1       -2 0.17170572E-01 0.65920486E+03</pdfrwt>
<totfact> 0.90267913E+02</totfact>
</mgrwt>
</event>
<event>
 4    1  0.4895160E-005  0.2778651E+03  0.7818608E-02  0.1096861E+00
         -2   -1    0    0    0  501 -0.00000000000E+00  0.00000000000E+00  0.30894290587E+02  0.30894290693E+02  0.25500000000E-02 0. -1.
          2   -1    0    0  501    0  0.00000000000E+00 -0.00000000000E+00 -0.62478405821E+03  0.62478405821E+03  0.25500000000E-02 0.  1.
    5000001    1    1    2    0    0 -0.15716443891E+02 -0.53279600079E+02 -0.31902263349E+03  0.34783640274E+03  0.12700000000E+03 0.  0.
   -5000001    1    1    2    0    0  0.15716443891E+02  0.53279600079E+02 -0.27486713413E+03  0.30784194616E+03  0.12700000000E+03 0.  0.
<mgrwt>
<rscale>  0 0.27786515E+03</rscale>
<asrwt>0</asrwt>
<pdfrwt beam="1">  1        2 0.89254858E-01 0.27786515E+03</pdfrwt>
<pdfrwt beam="2">  1       -2 0.44134705E-02 0.27786515E+03</pdfrwt>
<totfact> 0.12371265E+04</totfact>
</mgrwt>
</event>
<event>
 4    1  0.4895160E-005  0.3965180E+03  0.7818608E-02  0.1044992E+00
         -2   -1    0    0    0  501 -0.00000000000E+00  0.00000000000E+00  0.88478968119E+03  0.88478968120E+03  0.25500000000E-02 0. -1.
          2   -1    0    0  501    0  0.00000000000E+00 -0.00000000000E+00 -0.44424833760E+02  0.44424833833E+02  0.25500000000E-02 0.  1.
    5000001    1    1    2    0    0  0.97354805564E+01 -0.15181455652E+03  0.43408501970E+03  0.47718051457E+03  0.12700000000E+03 0.  0.
   -5000001    1    1    2    0    0 -0.97354805564E+01  0.15181455652E+03  0.40627982773E+03  0.45203400046E+03  0.12700000000E+03 0.  0.
<mgrwt>
<rscale>  0 0.39651802E+03</rscale>
<asrwt>0</asrwt>
<pdfrwt beam="1">  1        2 0.63464052E-02 0.39651802E+03</pdfrwt>
<pdfrwt beam="2">  1       -2 0.12639852E+00 0.39651802E+03</pdfrwt>
<totfact> 0.56459808E+02</totfact>
</mgrwt>
</event>
<event>
 4    1  0.4895160E-005  0.4572060E+03  0.7818608E-02  0.1025595E+00
          2   -1    0    0  501    0  0.00000000000E+00  0.00000000000E+00  0.11573949494E+03  0.11573949497E+03  0.25500000000E-02 0.  1.
         -2   -1    0    0    0  501 -0.00000000000E+00 -0.00000000000E+00 -0.45152555364E+03  0.45152555365E+03  0.25500000000E-02 0. -1.
    5000001    1    1    2    0    0  0.10943001932E+03 -0.21515176625E+02 -0.35886937814E+03  0.39667879011E+03  0.12700000000E+03 0.  0.
   -5000001    1    1    2    0    0 -0.10943001932E+03  0.21515176625E+02  0.23083319441E+02  0.17058625850E+03  0.12700000000E+03 0.  0.
<mgrwt>
<rscale>  0 0.45720603E+03</rscale>
<asrwt>0</asrwt>
<pdfrwt beam="1">  1        2 0.16534214E-01 0.45720603E+03</pdfrwt>
<pdfrwt beam="2">  1       -2 0.64503650E-01 0.45720603E+03</pdfrwt>
<totfact> 0.79434986E+02</totfact>
</mgrwt>
</event>
<event>
 4    1  0.4895160E-005  0.3235355E+03  0.7818608E-02  0.1074034E+00
         -2   -1    0    0    0  501 -0.00000000000E+00  0.00000000000E+00  0.14068533056E+02  0.14068533287E+02  0.25500000000E-02 0. -1.
          2   -1    0    0  501    0  0.00000000000E+00 -0.00000000000E+00 -0.18600952537E+04  0.18600952537E+04  0.25500000000E-02 0.  1.
    5000001    1    1    2    0    0  0.72628994195E+02  0.56058517937E+02 -0.11563317267E+04  0.11668974207E+04  0.12700000000E+03 0.  0.
   -5000001    1    1    2    0    0 -0.72628994195E+02 -0.56058517937E+02 -0.68969499395E+03  0.70726636631E+03  0.12700000000E+03 0.  0.
<mgrwt>
<rscale>  0 0.32353554E+03</rscale>
<asrwt>0</asrwt>
<pdfrwt beam="1">  1        2 0.26572773E+00 0.32353554E+03</pdfrwt>
<pdfrwt beam="2">  1       -2 0.20097917E-02 0.32353554E+03</pdfrwt>
<totfact> 0.79531001E+03</totfact>
</mgrwt>
</event>
<event>
 4    1  0.4895160E-005  0.2986650E+03  0.7818608E-02  0.1085910E+00
          2   -1    0    0  501    0  0.00000000000E+00  0.00000000000E+00  0.42132475017E+03  0.42132475018E+03  0.25500000000E-02 0.  1.
         -2   -1    0    0    0  501 -0.00000000000E+00 -0.00000000000E+00 -0.52928742545E+02  0.52928742606E+02  0.25500000000E-02 0. -1.
    5000001    1    1    2    0    0  0.66215641582E+02 -0.33391893752E+02  0.14304506590E+03  0.20515950048E+03  0.12700000000E+03 0.  0.
   -5000001    1    1    2    0    0 -0.66215641582E+02  0.33391893752E+02  0.22535094173E+03  0.26909399231E+03  0.12700000000E+03 0.  0.
<mgrwt>
<rscale>  0 0.29866496E+03</rscale>
<asrwt>0</asrwt>
<pdfrwt beam="1">  1        2 0.60189250E-01 0.29866496E+03</pdfrwt>
<pdfrwt beam="2">  1       -2 0.75612490E-02 0.29866496E+03</pdfrwt>
<totfact> 0.84291695E+03</totfact>
</mgrwt>
</event>
<event>
 4    1  0.4895160E-005  0.4599050E+03  0.7818608E-02  0.1024809E+00
         -2   -1    0    0    0  501 -0.00000000000E+00  0.00000000000E+00  0.22815554142E+02  0.22815554285E+02  0.25500000000E-02 0. -1.
          2   -1    0    0  501    0  0.00000000000E+00 -0.00000000000E+00 -0.23176356037E+04  0.23176356037E+04  0.25500000000E-02 0.  1.
    5000001    1    1    2    0    0  0.18324518004E+03  0.92319031277E+01 -0.14300719409E+04  0.14473765164E+04  0.12700000000E+03 0.  0.
   -5000001    1    1    2    0    0 -0.18324518004E+03 -0.92319031277E+01 -0.86474810871E+03  0.89307464166E+03  0.12700000000E+03 0.  0.
<mgrwt>
<rscale>  0 0.45990495E+03</rscale>
<asrwt>0</asrwt>
<pdfrwt beam="1">  1        2 0.33109065E+00 0.45990495E+03</pdfrwt>
<pdfrwt beam="2">  1       -2 0.32593664E-02 0.45990495E+03</pdfrwt>
<totfact> 0.22842849E+03</totfact>
</mgrwt>
</event>
<event>
 4    1  0.4895160E-005  0.4312440E+03  0.7818608E-02  0.1033468E+00
          2   -1    0    0  501    0  0.00000000000E+00  0.00000000000E+00  0.28963741738E+03  0.28963741739E+03  0.25500000000E-02 0.  1.
         -2   -1    0    0    0  501 -0.00000000000E+00 -0.00000000000E+00 -0.16052085775E+03  0.16052085777E+03  0.25500000000E-02 0. -1.
    5000001    1    1    2    0    0 -0.49550755542E+02 -0.13472860054E+03 -0.38550413931E+02  0.19550500657E+03  0.12700000000E+03 0.  0.
   -5000001    1    1    2    0    0  0.49550755542E+02  0.13472860054E+03  0.16766697357E+03  0.25465326859E+03  0.12700000000E+03 0.  0.
<mgrwt>
<rscale>  0 0.43124400E+03</rscale>
<asrwt>0</asrwt>
<pdfrwt beam="1">  1        2 0.41376774E-01 0.43124400E+03</pdfrwt>
<pdfrwt beam="2">  1       -2 0.22931551E-01 0.43124400E+03</pdfrwt>
<totfact> 0.20562142E+03</totfact>
</mgrwt>
</event>
<event>
 4    1  0.4895160E-005  0.8180604E+03  0.7818608E-02  0.9534237E-01
         -2   -1    0    0    0  501 -0.00000000000E+00  0.00000000000E+00  0.51108200474E+02  0.51108200538E+02  0.25500000000E-02 0. -1.
          2   -1    0    0  501    0  0.00000000000E+00 -0.00000000000E+00 -0.32735585382E+04  0.32735585382E+04  0.25500000000E-02 0.  1.
    5000001    1    1    2    0    0 -0.11043251155E+03  0.35680486388E+03 -0.20502899811E+04  0.20878991971E+04  0.12700000000E+03 0.  0.
   -5000001    1    1    2    0    0  0.11043251155E+03 -0.35680486388E+03 -0.11721603566E+04  0.12367675417E+04  0.12700000000E+03 0.  0.
<mgrwt>
<rscale>  0 0.81806036E+03</rscale>
<asrwt>0</asrwt>
<pdfrwt beam="1">  1        2 0.46765109E+00 0.81806036E+03</pdfrwt>
<pdfrwt beam="2">  1       -2 0.73011736E-02 0.81806036E+03</pdfrwt>
<totfact> 0.19631584E+02</totfact>
</mgrwt>
</event>
<event>
 4    1  0.4895160E-005  0.4008727E+03  0.7818608E-02  0.1043478E+00
         -2   -1    0    0    0  501 -0.00000000000E+00  0.00000000000E+00  0.70362968151E+03  0.70362968151E+03  0.25500000000E-02 0. -1.
          2   -1    0    0  501    0  0.00000000000E+00 -0.00000000000E+00 -0.57096401821E+02  0.57096401878E+02  0.25500000000E-02 0.  1.
    5000001    1    1    2    0    0  0.29181778761E+02 -0.14167324199E+03  0.21722005498E+03  0.29023513914E+03  0.12700000000E+03 0.  0.
   -5000001    1    1    2    0    0 -0.29181778761E+02  0.14167324199E+03  0.42931322471E+03  0.47049094425E+03  0.12700000000E+03 0.  0.
<mgrwt>
<rscale>  0 0.40087266E+03</rscale>
<asrwt>0</asrwt>
<pdfrwt beam="1">  1        2 0.81566292E-02 0.40087266E+03</pdfrwt>
<pdfrwt beam="2">  1       -2 0.10051852E+00 0.40087266E+03</pdfrwt>
<totfact> 0.70795188E+02</totfact>
</mgrwt>
</event>
<event>
 4    1  0.4895160E-005  0.5174511E+03  0.7818608E-02  0.1009322E+00
         -2   -1    0    0    0  501 -0.00000000000E+00  0.00000000000E+00  0.19118542054E+03  0.19118542055E+03  0.25500000000E-02 0. -1.
          2   -1    0    0  501    0  0.00000000000E+00 -0.00000000000E+00 -0.35012566305E+03  0.35012566306E+03  0.25500000000E-02 0.  1.
    5000001    1    1    2    0    0 -0.11492337697E+02 -0.19510215894E+03  0.38016034493E+02  0.23615915211E+03  0.12700000000E+03 0.  0.
   -5000001    1    1    2    0    0  0.11492337697E+02  0.19510215894E+03 -0.19695627701E+03  0.30515193150E+03  0.12700000000E+03 0.  0.
<mgrwt>
<rscale>  0 0.51745115E+03</rscale>
<asrwt>0</asrwt>
<pdfrwt beam="1">  1        2 0.50017952E-01 0.51745115E+03</pdfrwt>
<pdfrwt beam="2">  1       -2 0.27312203E-01 0.51745115E+03</pdfrwt>
<totfact> 0.12235677E+03</totfact>
</mgrwt>
</event>
<event>
 4    1  0.4895160E-005  0.4480722E+03  0.7818608E-02  0.1028299E+00
         -2   -1    0    0    0  501 -0.00000000000E+00  0.00000000000E+00  0.10933636591E+03  0.10933636594E+03  0.25500000000E-02 0. -1.
          2   -1    0    0  501    0  0.00000000000E+00 -0.00000000000E+00 -0.45906194887E+03  0.45906194888E+03  0.25500000000E-02 0.  1.
    5000001    1    1    2    0    0 -0.10480666928E+03  0.11031052332E+03 -0.42360472166E+02  0.20267278821E+03  0.12700000000E+03 0.  0.
   -5000001    1    1    2    0    0  0.10480666928E+03 -0.11031052332E+03 -0.30736511080E+03  0.36572552661E+03  0.12700000000E+03 0.  0.
<mgrwt>
<rscale>  0 0.44807216E+03</rscale>
<asrwt>0</asrwt>
<pdfrwt beam="1">  1        2 0.65580277E-01 0.44807216E+03</pdfrwt>
<pdfrwt beam="2">  1       -2 0.15619481E-01 0.44807216E+03</pdfrwt>
<totfact> 0.23994071E+03</totfact>
</mgrwt>
</event>
<event>
 4    1  0.4895160E-005  0.4391659E+03  0.7818608E-02  0.1031003E+00
          2   -1    0    0  501    0  0.00000000000E+00  0.00000000000E+00  0.10829576047E+04  0.10829576047E+04  0.25500000000E-02 0.  1.
         -2   -1    0    0    0  501 -0.00000000000E+00 -0.00000000000E+00 -0.44523143511E+02  0.44523143584E+02  0.25500000000E-02 0. -1.
    5000001    1    1    2    0    0  0.52717653014E+02 -0.35946091352E+02  0.89496108577E+02  0.16795780980E+03  0.12700000000E+03 0.  0.
   -5000001    1    1    2    0    0 -0.52717653014E+02  0.35946091352E+02  0.94893835262E+03  0.95952293850E+03  0.12700000000E+03 0.  0.
<mgrwt>
<rscale>  0 0.43916592E+03</rscale>
<asrwt>0</asrwt>
<pdfrwt beam="1">  1        2 0.15470822E+00 0.43916592E+03</pdfrwt>
<pdfrwt beam="2">  1       -2 0.63604493E-02 0.43916592E+03</pdfrwt>
<totfact> 0.35397483E+03</totfact>
</mgrwt>
</event>
<event>
 4    1  0.4895160E-005  0.3626255E+03  0.7818608E-02  0.1057549E+00
         -2   -1    0    0    0  501 -0.00000000000E+00  0.00000000000E+00  0.67095113293E+02  0.67095113342E+02  0.25500000000E-02 0. -1.
          2   -1    0    0  501    0  0.00000000000E+00 -0.00000000000E+00 -0.48996581772E+03  0.48996581773E+03  0.25500000000E-02 0.  1.
    5000001    1    1    2    0    0  0.11104669653E+03 -0.20957146641E+02 -0.30828516818E+03  0.35205016081E+03  0.12700000000E+03 0.  0.
   -5000001    1    1    2    0    0 -0.11104669653E+03  0.20957146641E+02 -0.11458553626E+03  0.20501077027E+03  0.12700000000E+03 0.  0.
<mgrwt>
<rscale>  0 0.36262549E+03</rscale>
<asrwt>0</asrwt>
<pdfrwt beam="1">  1        2 0.69995115E-01 0.36262549E+03</pdfrwt>
<pdfrwt beam="2">  1       -2 0.95850165E-02 0.36262549E+03</pdfrwt>
<totfact> 0.49402557E+03</totfact>
</mgrwt>
</event>
<event>
 4    1  0.4895160E-005  0.3586588E+03  0.7818608E-02  0.1059116E+00
         -2   -1    0    0    0  501 -0.00000000000E+00  0.00000000000E+00  0.25229789269E+02  0.25229789397E+02  0.25500000000E-02 0. -1.
          2   -1    0    0  501    0  0.00000000000E+00 -0.00000000000E+00 -0.12746452356E+04  0.12746452356E+04  0.25500000000E-02 0.  1.
    5000001    1    1    2    0    0  0.55777070870E+02 -0.98161440409E+02 -0.83237790282E+03  0.84954618657E+03  0.12700000000E+03 0.  0.
   -5000001    1    1    2    0    0 -0.55777070870E+02  0.98161440409E+02 -0.41703754347E+03  0.45032883839E+03  0.12700000000E+03 0.  0.
<mgrwt>
<rscale>  0 0.35865878E+03</rscale>
<asrwt>0</asrwt>
<pdfrwt beam="1">  1        2 0.18209214E+00 0.35865878E+03</pdfrwt>
<pdfrwt beam="2">  1       -2 0.36042564E-02 0.35865878E+03</pdfrwt>
<totfact> 0.66007826E+03</totfact>
</mgrwt>
</event>
<event>
 4    1  0.4895160E-005  0.7378970E+03  0.7818608E-02  0.9654532E-01
          2   -1    0    0  501    0  0.00000000000E+00  0.00000000000E+00  0.84782004954E+03  0.84782004954E+03  0.25500000000E-02 0.  1.
         -2   -1    0    0    0  501 -0.00000000000E+00 -0.00000000000E+00 -0.16055645139E+03  0.16055645141E+03  0.25500000000E-02 0. -1.
    5000001    1    1    2    0    0  0.11033480656E+03 -0.30857685055E+03  0.19023315714E+03  0.39963870722E+03  0.12700000000E+03 0.  0.
   -5000001    1    1    2    0    0 -0.11033480656E+03  0.30857685055E+03  0.49703044101E+03  0.60873779373E+03  0.12700000000E+03 0.  0.
<mgrwt>
<rscale>  0 0.73789695E+03</rscale>
<asrwt>0</asrwt>
<pdfrwt beam="1">  1        2 0.12111715E+00 0.73789695E+03</pdfrwt>
<pdfrwt beam="2">  1       -2 0.22936636E-01 0.73789695E+03</pdfrwt>
<totfact> 0.59159556E+02</totfact>
</mgrwt>
</event>
<event>
 4    1  0.4895160E-005  0.3101994E+03  0.7818608E-02  0.1080250E+00
         -2   -1    0    0    0  501 -0.00000000000E+00  0.00000000000E+00  0.37199447196E+02  0.37199447283E+02  0.25500000000E-02 0. -1.
          2   -1    0    0  501    0  0.00000000000E+00 -0.00000000000E+00 -0.64667403426E+03  0.64667403427E+03  0.25500000000E-02 0.  1.
    5000001    1    1    2    0    0 -0.34783523284E+02  0.80977129075E+02 -0.33260010445E+03  0.36676834433E+03  0.12700000000E+03 0.  0.
   -5000001    1    1    2    0    0  0.34783523284E+02 -0.80977129075E+02 -0.27687448262E+03  0.31710513722E+03  0.12700000000E+03 0.  0.
<mgrwt>
<rscale>  0 0.31019940E+03</rscale>
<asrwt>0</asrwt>
<pdfrwt beam="1">  1        2 0.92381998E-01 0.31019940E+03</pdfrwt>
<pdfrwt beam="2">  1       -2 0.53142071E-02 0.31019940E+03</pdfrwt>
<totfact> 0.89996778E+03</totfact>
</mgrwt>
</event>
<event>
 4    1  0.4895160E-005  0.4509959E+03  0.7818608E-02  0.1027425E+00
          2   -1    0    0  501    0  0.00000000000E+00  0.00000000000E+00  0.47246297436E+03  0.47246297437E+03  0.25500000000E-02 0.  1.
         -2   -1    0    0    0  501 -0.00000000000E+00 -0.00000000000E+00 -0.10762604834E+03  0.10762604837E+03  0.25500000000E-02 0. -1.
    5000001    1    1    2    0    0 -0.15460160268E+03 -0.52482902506E+02  0.66912862810E+02  0.21739926820E+03  0.12700000000E+03 0.  0.
   -5000001    1    1    2    0    0  0.15460160268E+03  0.52482902506E+02  0.29792406321E+03  0.36268975454E+03  0.12700000000E+03 0.  0.
<mgrwt>
<rscale>  0 0.45099589E+03</rscale>
<asrwt>0</asrwt>
<pdfrwt beam="1">  1        2 0.67494711E-01 0.45099589E+03</pdfrwt>
<pdfrwt beam="2">  1       -2 0.15375150E-01 0.45099589E+03</pdfrwt>
<totfact> 0.23860240E+03</totfact>
</mgrwt>
</event>
<event>
 4    1  0.4895160E-005  0.3557399E+03  0.7818608E-02  0.1060283E+00
          2   -1    0    0  501    0  0.00000000000E+00  0.00000000000E+00  0.21572311361E+04  0.21572311361E+04  0.25500000000E-02 0.  1.
         -2   -1    0    0    0  501 -0.00000000000E+00 -0.00000000000E+00 -0.14665894344E+02  0.14665894566E+02  0.25500000000E-02 0. -1.
    5000001    1    1    2    0    0  0.11606518746E+03  0.40351588688E+02  0.94775850894E+03  0.96409261470E+03  0.12700000000E+03 0.  0.
   -5000001    1    1    2    0    0 -0.11606518746E+03 -0.40351588688E+02  0.11948067328E+04  0.12078044159E+04  0.12700000000E+03 0.  0.
<mgrwt>
<rscale>  0 0.35573993E+03</rscale>
<asrwt>0</asrwt>
<pdfrwt beam="1">  1        2 0.30817620E+00 0.35573993E+03</pdfrwt>
<pdfrwt beam="2">  1       -2 0.20951256E-02 0.35573993E+03</pdfrwt>
<totfact> 0.53426040E+03</totfact>
</mgrwt>
</event>
<event>
 4    1  0.4895160E-005  0.6199935E+03  0.7818608E-02  0.9864773E-01
          2   -1    0    0  501    0  0.00000000000E+00  0.00000000000E+00  0.17816412594E+04  0.17816412594E+04  0.25500000000E-02 0.  1.
         -2   -1    0    0    0  501 -0.00000000000E+00 -0.00000000000E+00 -0.53937905411E+02  0.53937905471E+02  0.25500000000E-02 0. -1.
    5000001    1    1    2    0    0  0.27116682721E+03 -0.43361072909E+02  0.10637195330E+04  0.11059113327E+04  0.12700000000E+03 0.  0.
   -5000001    1    1    2    0    0 -0.27116682721E+03  0.43361072909E+02  0.66398382097E+03  0.72966783219E+03  0.12700000000E+03 0.  0.
<mgrwt>
<rscale>  0 0.61999354E+03</rscale>
<asrwt>0</asrwt>
<pdfrwt beam="1">  1        2 0.25452018E+00 0.61999354E+03</pdfrwt>
<pdfrwt beam="2">  1       -2 0.77054149E-02 0.61999354E+03</pdfrwt>
<totfact> 0.11095771E+03</totfact>
</mgrwt>
</event>
<event>
 4    1  0.4895160E-005  0.4579015E+03  0.7818608E-02  0.1025392E+00
          2   -1    0    0  501    0  0.00000000000E+00  0.00000000000E+00  0.35384094631E+03  0.35384094632E+03  0.25500000000E-02 0. -1.
         -2   -1    0    0    0  501 -0.00000000000E+00 -0.00000000000E+00 -0.14814129348E+03  0.14814129350E+03  0.25500000000E-02 0.  1.
    5000001    1    1    2    0    0  0.13616852229E+03  0.95435869166E+02  0.95253046044E+00  0.20923617971E+03  0.12700000000E+03 0.  0.
   -5000001    1    1    2    0    0 -0.13616852229E+03 -0.95435869166E+02  0.20474712237E+03  0.29274606010E+03  0.12700000000E+03 0.  0.
<mgrwt>
<rscale>  0 0.45790154E+03</rscale>
<asrwt>0</asrwt>
<pdfrwt beam="1">  1        2 0.50548706E-01 0.45790154E+03</pdfrwt>
<pdfrwt beam="2">  1       -2 0.21163042E-01 0.45790154E+03</pdfrwt>
<totfact> 0.19023846E+03</totfact>
</mgrwt>
</event>
<event>
 4    1  0.4895160E-005  0.3873305E+03  0.7818608E-02  0.1048257E+00
         -2   -1    0    0    0  501 -0.00000000000E+00  0.00000000000E+00  0.13350943262E+03  0.13350943264E+03  0.25500000000E-02 0. -1.
          2   -1    0    0  501    0  0.00000000000E+00 -0.00000000000E+00 -0.28092569913E+03  0.28092569914E+03  0.25500000000E-02 0.  1.
    5000001    1    1    2    0    0 -0.14357043960E+03  0.27244131800E+02 -0.78785385933E+02  0.20902356537E+03  0.12700000000E+03 0.  0.
   -5000001    1    1    2    0    0  0.14357043960E+03 -0.27244131800E+02 -0.68630880582E+02  0.20541156641E+03  0.12700000000E+03 0.  0.
<mgrwt>
<rscale>  0 0.38733051E+03</rscale>
<asrwt>0</asrwt>
<pdfrwt beam="1">  1        2 0.40132242E-01 0.38733051E+03</pdfrwt>
<pdfrwt beam="2">  1       -2 0.19072776E-01 0.38733051E+03</pdfrwt>
<totfact> 0.29231752E+03</totfact>
</mgrwt>
</event>
<event>
 4    1  0.4895160E-005  0.3499123E+03  0.7818608E-02  0.1062651E+00
          2   -1    0    0  501    0  0.00000000000E+00  0.00000000000E+00  0.75667165840E+03  0.75667165840E+03  0.25500000000E-02 0.  1.
         -2   -1    0    0    0  501 -0.00000000000E+00 -0.00000000000E+00 -0.40453028693E+02  0.40453028774E+02  0.25500000000E-02 0. -1.
    5000001    1    1    2    0    0 -0.22319139170E+02  0.10317922002E+03  0.22652115956E+03  0.28033003968E+03  0.12700000000E+03 0.  0.
   -5000001    1    1    2    0    0  0.22319139170E+02 -0.10317922002E+03  0.48969747015E+03  0.51679464750E+03  0.12700000000E+03 0.  0.
<mgrwt>
<rscale>  0 0.34991233E+03</rscale>
<asrwt>0</asrwt>
<pdfrwt beam="1">  1        2 0.10809595E+00 0.34991233E+03</pdfrwt>
<pdfrwt beam="2">  1       -2 0.57790042E-02 0.34991233E+03</pdfrwt>
<totfact> 0.65802412E+03</totfact>
</mgrwt>
</event>
<event>
 4    1  0.4895160E-005  0.2358781E+04  0.7818608E-02  0.8455098E-01
         -2   -1    0    0    0  501 -0.00000000000E+00  0.00000000000E+00  0.59087295731E+03  0.59087295732E+03  0.25500000000E-02 0. -1.
          2   -1    0    0  501    0  0.00000000000E+00 -0.00000000000E+00 -0.23540797682E+04  0.23540797682E+04  0.25500000000E-02 0.  1.
    5000001    1    1    2    0    0 -0.51378766068E+03  0.87837507966E+03 -0.16088649744E+04  0.19079035737E+04  0.12700000000E+03 0.  0.
   -5000001    1    1    2    0    0  0.51378766068E+03 -0.87837507966E+03 -0.15434183656E+03  0.10370491518E+04  0.12700000000E+03 0.  0.
<mgrwt>
<rscale>  0 0.23587811E+04</rscale>
<asrwt>0</asrwt>
<pdfrwt beam="1">  1        2 0.33629711E+00 0.23587811E+04</pdfrwt>
<pdfrwt beam="2">  1       -2 0.84410424E-01 0.23587811E+04</pdfrwt>
<totfact> 0.58377869E+00</totfact>
</mgrwt>
</event>
<event>
 4    1  0.4895160E-005  0.3970297E+03  0.7818608E-02  0.1044813E+00
         -2   -1    0    0    0  501 -0.00000000000E+00  0.00000000000E+00  0.25410443150E+02  0.25410443278E+02  0.25500000000E-02 0. -1.
          2   -1    0    0  501    0  0.00000000000E+00 -0.00000000000E+00 -0.15508644155E+04  0.15508644155E+04  0.25500000000E-02 0.  1.
    5000001    1    1    2    0    0 -0.39690476443E+02  0.14096268034E+03 -0.59273418026E+03  0.62362538404E+03  0.12700000000E+03 0.  0.
   -5000001    1    1    2    0    0  0.39690476443E+02 -0.14096268034E+03 -0.93271979213E+03  0.95264947478E+03  0.12700000000E+03 0.  0.
<mgrwt>
<rscale>  0 0.39702973E+03</rscale>
<asrwt>0</asrwt>
<pdfrwt beam="1">  1        2 0.22155200E+00 0.39702973E+03</pdfrwt>
<pdfrwt beam="2">  1       -2 0.36300643E-02 0.39702973E+03</pdfrwt>
<totfact> 0.46925771E+03</totfact>
</mgrwt>
</event>
<event>
 4    1  0.4895160E-005  0.5767788E+03  0.7818608E-02  0.9954789E-01
         -2   -1    0    0    0  501 -0.00000000000E+00  0.00000000000E+00  0.12865016761E+03  0.12865016764E+03  0.25500000000E-02 0. -1.
          2   -1    0    0  501    0  0.00000000000E+00 -0.00000000000E+00 -0.64646987264E+03  0.64646987265E+03  0.25500000000E-02 0.  1.
    5000001    1    1    2    0    0  0.13002554293E+03  0.11214454515E+02  0.41611456233E+02  0.18679646435E+03  0.12700000000E+03 0.  0.
   -5000001    1    1    2    0    0 -0.13002554293E+03 -0.11214454515E+02 -0.55943116126E+03  0.58832357593E+03  0.12700000000E+03 0.  0.
<mgrwt>
<rscale>  0 0.57677884E+03</rscale>
<asrwt>0</asrwt>
<pdfrwt beam="1">  1        2 0.92352837E-01 0.57677884E+03</pdfrwt>
<pdfrwt beam="2">  1       -2 0.18378596E-01 0.57677884E+03</pdfrwt>
<totfact> 0.12282650E+03</totfact>
</mgrwt>
</event>
<event>
 4    1  0.4895160E-005  0.3660041E+03  0.7818608E-02  0.1056231E+00
          2   -1    0    0  501    0  0.00000000000E+00  0.00000000000E+00  0.73966644078E+03  0.73966644079E+03  0.25500000000E-02 0.  1.
         -2   -1    0    0    0  501 -0.00000000000E+00 -0.00000000000E+00 -0.45276831224E+02  0.45276831296E+02  0.25500000000E-02 0. -1.
    5000001    1    1    2    0    0 -0.97692106023E+02  0.86431177998E+02  0.38712505148E+03  0.42779539689E+03  0.12700000000E+03 0.  0.
   -5000001    1    1    2    0    0  0.97692106023E+02 -0.86431177998E+02  0.30726455808E+03  0.35714787520E+03  0.12700000000E+03 0.  0.
<mgrwt>
<rscale>  0 0.36600411E+03</rscale>
<asrwt>0</asrwt>
<pdfrwt beam="1">  1        2 0.10566664E+00 0.36600411E+03</pdfrwt>
<pdfrwt beam="2">  1       -2 0.64681187E-02 0.36600411E+03</pdfrwt>
<totfact> 0.56895191E+03</totfact>
</mgrwt>
</event>
<event>
 4    1  0.4895160E-005  0.4790407E+03  0.7818608E-02  0.1019399E+00
         -2   -1    0    0    0  501 -0.00000000000E+00  0.00000000000E+00  0.54112707488E+03  0.54112707488E+03  0.25500000000E-02 0. -1.
          2   -1    0    0  501    0  0.00000000000E+00 -0.00000000000E+00 -0.10601944844E+03  0.10601944847E+03  0.25500000000E-02 0.  1.
    5000001    1    1    2    0    0 -0.11993686527E+03 -0.30050094653E+02 -0.79378099832E-01  0.17724803565E+03  0.12700000000E+03 0.  0.
   -5000001    1    1    2    0    0  0.11993686527E+03  0.30050094653E+02  0.43518700453E+03  0.46989848771E+03  0.12700000000E+03 0.  0.
<mgrwt>
<rscale>  0 0.47904068E+03</rscale>
<asrwt>0</asrwt>
<pdfrwt beam="1">  1        2 0.15145635E-01 0.47904068E+03</pdfrwt>
<pdfrwt beam="2">  1       -2 0.77303868E-01 0.47904068E+03</pdfrwt>
<totfact> 0.59588069E+02</totfact>
</mgrwt>
</event>
<event>
 4    1  0.4895160E-005  0.3813527E+03  0.7818608E-02  0.1050435E+00
          2   -1    0    0  501    0  0.00000000000E+00  0.00000000000E+00  0.51428689666E+03  0.51428689667E+03  0.25500000000E-02 0.  1.
         -2   -1    0    0    0  501 -0.00000000000E+00 -0.00000000000E+00 -0.70694911844E+02  0.70694911890E+02  0.25500000000E-02 0. -1.
    5000001    1    1    2    0    0  0.14175215723E+03  0.17522885496E+01  0.23940136070E+03  0.30584106346E+03  0.12700000000E+03 0.  0.
   -5000001    1    1    2    0    0 -0.14175215723E+03 -0.17522885496E+01  0.20419062412E+03  0.27914074510E+03  0.12700000000E+03 0.  0.
<mgrwt>
<rscale>  0 0.38135268E+03</rscale>
<asrwt>0</asrwt>
<pdfrwt beam="1">  1        2 0.73469556E-01 0.38135268E+03</pdfrwt>
<pdfrwt beam="2">  1       -2 0.10099273E-01 0.38135268E+03</pdfrwt>
<totfact> 0.43088875E+03</totfact>
</mgrwt>
</event>
<event>
 4    1  0.4895160E-005  0.8260331E+03  0.7818608E-02  0.9523081E-01
          2   -1    0    0  501    0  0.00000000000E+00  0.00000000000E+00  0.93897137765E+03  0.93897137765E+03  0.25500000000E-02 0.  1.
         -2   -1    0    0    0  501 -0.00000000000E+00 -0.00000000000E+00 -0.18166972338E+03  0.18166972340E+03  0.25500000000E-02 0. -1.
    5000001    1    1    2    0    0 -0.23654557683E+03 -0.33177733889E+02 -0.44744992014E+02  0.27420008435E+03  0.12700000000E+03 0.  0.
   -5000001    1    1    2    0    0  0.23654557683E+03  0.33177733889E+02  0.80204664628E+03  0.84644101670E+03  0.12700000000E+03 0.  0.
<mgrwt>
<rscale>  0 0.82603310E+03</rscale>
<asrwt>0</asrwt>
<pdfrwt beam="1">  1        2 0.13413877E+00 0.82603310E+03</pdfrwt>
<pdfrwt beam="2">  1       -2 0.25952817E-01 0.82603310E+03</pdfrwt>
<totfact> 0.41164217E+02</totfact>
</mgrwt>
</event>
<event>
 4    1  0.4895160E-005  0.2826954E+03  0.7818608E-02  0.1094226E+00
          2   -1    0    0  501    0  0.00000000000E+00  0.00000000000E+00  0.33119268699E+03  0.33119268700E+03  0.25500000000E-02 0.  1.
         -2   -1    0    0    0  501 -0.00000000000E+00 -0.00000000000E+00 -0.60324939099E+02  0.60324939153E+02  0.25500000000E-02 0. -1.
    5000001    1    1    2    0    0 -0.61491118463E+02 -0.81936215236E+01  0.13733564188E+03  0.19707453315E+03  0.12700000000E+03 0.  0.
   -5000001    1    1    2    0    0  0.61491118463E+02  0.81936215236E+01  0.13353210601E+03  0.19444309301E+03  0.12700000000E+03 0.  0.
<mgrwt>
<rscale>  0 0.28269545E+03</rscale>
<asrwt>0</asrwt>
<pdfrwt beam="1">  1        2 0.47313242E-01 0.28269545E+03</pdfrwt>
<pdfrwt beam="2">  1       -2 0.86178483E-02 0.28269545E+03</pdfrwt>
<totfact> 0.88922462E+03</totfact>
</mgrwt>
</event>
<event>
 4    1  0.4895160E-005  0.4177455E+03  0.7818608E-02  0.1037803E+00
         -2   -1    0    0    0  501 -0.00000000000E+00  0.00000000000E+00  0.19398626927E+02  0.19398627095E+02  0.25500000000E-02 0. -1.
          2   -1    0    0  501    0  0.00000000000E+00 -0.00000000000E+00 -0.22490158017E+04  0.22490158017E+04  0.25500000000E-02 0.  1.
    5000001    1    1    2    0    0  0.47576286538E+02  0.15550374423E+03 -0.12910916550E+04  0.13074752690E+04  0.12700000000E+03 0.  0.
   -5000001    1    1    2    0    0 -0.47576286538E+02 -0.15550374423E+03 -0.93852551981E+03  0.96093915980E+03  0.12700000000E+03 0.  0.
<mgrwt>
<rscale>  0 0.41774547E+03</rscale>
<asrwt>0</asrwt>
<pdfrwt beam="1">  1        2 0.32128781E+00 0.41774547E+03</pdfrwt>
<pdfrwt beam="2">  1       -2 0.27712339E-02 0.41774547E+03</pdfrwt>
<totfact> 0.31635556E+03</totfact>
</mgrwt>
</event>
<event>
 4    1  0.4895160E-005  0.7641306E+03  0.7818608E-02  0.9613439E-01
          2   -1    0    0  501    0  0.00000000000E+00  0.00000000000E+00  0.32796046858E+04  0.32796046858E+04  0.25500000000E-02 0.  1.
         -2   -1    0    0    0  501 -0.00000000000E+00 -0.00000000000E+00 -0.44509605467E+02  0.44509605540E+02  0.25500000000E-02 0. -1.
    5000001    1    1    2    0    0  0.35614822950E+03  0.41328288949E+01  0.13798236642E+04  0.14306994744E+04  0.12700000000E+03 0.  0.
   -5000001    1    1    2    0    0 -0.35614822950E+03 -0.41328288949E+01  0.18552714161E+04  0.18934148170E+04  0.12700000000E+03 0.  0.
<mgrwt>
<rscale>  0 0.76413065E+03</rscale>
<asrwt>0</asrwt>
<pdfrwt beam="1">  1        2 0.46851510E+00 0.76413065E+03</pdfrwt>
<pdfrwt beam="2">  1       -2 0.63585131E-02 0.76413065E+03</pdfrwt>
<totfact> 0.24387833E+02</totfact>
</mgrwt>
</event>
<event>
 4    1  0.4895160E-005  0.2955549E+03  0.7818608E-02  0.1087484E+00
         -2   -1    0    0    0  501 -0.00000000000E+00  0.00000000000E+00  0.19457016875E+02  0.19457017042E+02  0.25500000000E-02 0. -1.
          2   -1    0    0  501    0  0.00000000000E+00 -0.00000000000E+00 -0.11223802037E+04  0.11223802037E+04  0.25500000000E-02 0.  1.
    5000001    1    1    2    0    0 -0.23212069752E+02  0.69597483965E+02 -0.48164670734E+03  0.50348302916E+03  0.12700000000E+03 0.  0.
   -5000001    1    1    2    0    0  0.23212069752E+02 -0.69597483965E+02 -0.62127647945E+03  0.63835419155E+03  0.12700000000E+03 0.  0.
<mgrwt>
<rscale>  0 0.29555487E+03</rscale>
<asrwt>0</asrwt>
<pdfrwt beam="1">  1        2 0.16033999E+00 0.29555487E+03</pdfrwt>
<pdfrwt beam="2">  1       -2 0.27795746E-02 0.29555487E+03</pdfrwt>
<totfact> 0.11752419E+04</totfact>
</mgrwt>
</event>
<event>
 4    1  0.4895160E-005  0.5044876E+03  0.7818608E-02  0.1012614E+00
          2   -1    0    0  501    0  0.00000000000E+00  0.00000000000E+00  0.89178636480E+02  0.89178636517E+02  0.25500000000E-02 0.  1.
         -2   -1    0    0    0  501 -0.00000000000E+00 -0.00000000000E+00 -0.71347721327E+03  0.71347721327E+03  0.25500000000E-02 0. -1.
    5000001    1    1    2    0    0 -0.11807407368E+03  0.14895554649E+03 -0.48179152789E+03  0.53327414905E+03  0.12700000000E+03 0.  0.
   -5000001    1    1    2    0    0  0.11807407368E+03 -0.14895554649E+03 -0.14250704890E+03  0.26938170073E+03  0.12700000000E+03 0.  0.
<mgrwt>
<rscale>  0 0.50448756E+03</rscale>
<asrwt>0</asrwt>
<pdfrwt beam="1">  1        2 0.12739806E-01 0.50448756E+03</pdfrwt>
<pdfrwt beam="2">  1       -2 0.10192531E+00 0.50448756E+03</pdfrwt>
<totfact> 0.39105806E+02</totfact>
</mgrwt>
</event>
<event>
 4    1  0.4895160E-005  0.3421010E+03  0.7818608E-02  0.1065905E+00
         -2   -1    0    0    0  501 -0.00000000000E+00  0.00000000000E+00  0.15116611267E+03  0.15116611269E+03  0.25500000000E-02 0. -1.
          2   -1    0    0  501    0  0.00000000000E+00 -0.00000000000E+00 -0.19355050233E+03  0.19355050235E+03  0.25500000000E-02 0.  1.
    5000001    1    1    2    0    0  0.60811036892E+02  0.12155268803E+02  0.75895626051E+02  0.16042094259E+03  0.12700000000E+03 0.  0.
   -5000001    1    1    2    0    0 -0.60811036892E+02 -0.12155268803E+02 -0.11828001571E+03  0.18429567245E+03  0.12700000000E+03 0.  0.
<mgrwt>
<rscale>  0 0.34210102E+03</rscale>
<asrwt>0</asrwt>
<pdfrwt beam="1">  1        2 0.27650071E-01 0.34210102E+03</pdfrwt>
<pdfrwt beam="2">  1       -2 0.21595159E-01 0.34210102E+03</pdfrwt>
<totfact> 0.35454269E+03</totfact>
</mgrwt>
</event>
<event>
 4    1  0.4895160E-005  0.6653701E+03  0.7818608E-02  0.9778358E-01
          2   -1    0    0  501    0  0.00000000000E+00  0.00000000000E+00  0.34969746482E+04  0.34969746482E+04  0.25500000000E-02 0.  1.
         -2   -1    0    0    0  501 -0.00000000000E+00 -0.00000000000E+00 -0.31650022851E+02  0.31650022953E+02  0.25500000000E-02 0. -1.
    5000001    1    1    2    0    0  0.17794456765E+03 -0.22755680734E+03  0.22914941229E+04  0.23131192544E+04  0.12700000000E+03 0.  0.
   -5000001    1    1    2    0    0 -0.17794456765E+03  0.22755680734E+03  0.11738305025E+04  0.12155054168E+04  0.12700000000E+03 0.  0.
<mgrwt>
<rscale>  0 0.66537006E+03</rscale>
<asrwt>0</asrwt>
<pdfrwt beam="1">  1        2 0.49956785E+00 0.66537006E+03</pdfrwt>
<pdfrwt beam="2">  1       -2 0.45214314E-02 0.66537006E+03</pdfrwt>
<totfact> 0.31361089E+02</totfact>
</mgrwt>
</event>
<event>
 4    1  0.4895160E-005  0.1305839E+04  0.7818608E-02  0.9024948E-01
         -2   -1    0    0    0  501 -0.00000000000E+00  0.00000000000E+00  0.61511941820E+03  0.61511941820E+03  0.25500000000E-02 0. -1.
          2   -1    0    0  501    0  0.00000000000E+00 -0.00000000000E+00 -0.69304208524E+03  0.69304208525E+03  0.25500000000E-02 0.  1.
    5000001    1    1    2    0    0  0.38759347843E+03  0.17277786946E+03 -0.51949548140E+03  0.68270451287E+03  0.12700000000E+03 0.  0.
   -5000001    1    1    2    0    0 -0.38759347843E+03 -0.17277786946E+03  0.44157281436E+03  0.62545699059E+03  0.12700000000E+03 0.  0.
<mgrwt>
<rscale>  0 0.13058386E+04</rscale>
<asrwt>0</asrwt>
<pdfrwt beam="1">  1        2 0.99006012E-01 0.13058386E+04</pdfrwt>
<pdfrwt beam="2">  1       -2 0.87874202E-01 0.13058386E+04</pdfrwt>
<totfact> 0.49935934E+01</totfact>
</mgrwt>
</event>
<event>
 4    1  0.4895160E-005  0.3423230E+03  0.7818608E-02  0.1065811E+00
          2   -1    0    0  501    0  0.00000000000E+00  0.00000000000E+00  0.18602002332E+04  0.18602002332E+04  0.25500000000E-02 0.  1.
         -2   -1    0    0    0  501 -0.00000000000E+00 -0.00000000000E+00 -0.15748979580E+02  0.15748979786E+02  0.25500000000E-02 0. -1.
    5000001    1    1    2    0    0 -0.59500949359E+02  0.35279480736E+02  0.42050107733E+03  0.44467421870E+03  0.12700000000E+03 0.  0.
   -5000001    1    1    2    0    0  0.59500949359E+02 -0.35279480736E+02  0.14239501763E+04  0.14312749943E+04  0.12700000000E+03 0.  0.
<mgrwt>
<rscale>  0 0.34232298E+03</rscale>
<asrwt>0</asrwt>
<pdfrwt beam="1">  1        2 0.26574276E+00 0.34232298E+03</pdfrwt>
<pdfrwt beam="2">  1       -2 0.22498554E-02 0.34232298E+03</pdfrwt>
<totfact> 0.67305234E+03</totfact>
</mgrwt>
</event>
<event>
 4    1  0.4895160E-005  0.2810477E+03  0.7818608E-02  0.1095118E+00
          2   -1    0    0  501    0  0.00000000000E+00  0.00000000000E+00  0.12075176360E+04  0.12075176360E+04  0.25500000000E-02 0.  1.
         -2   -1    0    0    0  501 -0.00000000000E+00 -0.00000000000E+00 -0.16353347820E+02  0.16353348019E+02  0.25500000000E-02 0. -1.
    5000001    1    1    2    0    0 -0.24083922560E+02  0.41056908360E+02  0.75571638842E+03  0.76779031303E+03  0.12700000000E+03 0.  0.
   -5000001    1    1    2    0    0  0.24083922560E+02 -0.41056908360E+02  0.43544789975E+03  0.45608067099E+03  0.12700000000E+03 0.  0.
<mgrwt>
<rscale>  0 0.28104773E+03</rscale>
<asrwt>0</asrwt>
<pdfrwt beam="1">  1        2 0.17250253E+00 0.28104773E+03</pdfrwt>
<pdfrwt beam="2">  1       -2 0.23361924E-02 0.28104773E+03</pdfrwt>
<totfact> 0.13629065E+04</totfact>
</mgrwt>
</event>
<event>
 4    1  0.4895160E-005  0.2755998E+03  0.7818608E-02  0.1098117E+00
         -2   -1    0    0    0  501 -0.00000000000E+00  0.00000000000E+00  0.46750493605E+02  0.46750493674E+02  0.25500000000E-02 0.  1.
          2   -1    0    0  501    0  0.00000000000E+00 -0.00000000000E+00 -0.40617361597E+03  0.40617361598E+03  0.25500000000E-02 0. -1.
    5000001    1    1    2    0    0 -0.20141671728E+02  0.47407642602E+02 -0.20333589131E+03  0.24520941297E+03  0.12700000000E+03 0.  0.
   -5000001    1    1    2    0    0  0.20141671728E+02 -0.47407642602E+02 -0.15608723106E+03  0.20771469668E+03  0.12700000000E+03 0.  0.
<mgrwt>
<rscale>  0 0.27559983E+03</rscale>
<asrwt>0</asrwt>
<pdfrwt beam="1">  1        2 0.58024800E-01 0.27559983E+03</pdfrwt>
<pdfrwt beam="2">  1       -2 0.66786422E-02 0.27559983E+03</pdfrwt>
<totfact> 0.10600547E+04</totfact>
</mgrwt>
</event>
<event>
 4    1  0.4895160E-005  0.2986419E+03  0.7818608E-02  0.1085921E+00
          2   -1    0    0  501    0  0.00000000000E+00  0.00000000000E+00  0.10089047808E+04  0.10089047808E+04  0.25500000000E-02 0.  1.
         -2   -1    0    0    0  501 -0.00000000000E+00 -0.00000000000E+00 -0.22099948048E+02  0.22099948196E+02  0.25500000000E-02 0. -1.
    5000001    1    1    2    0    0 -0.51536071735E+02  0.59220386215E+02  0.48590010222E+03  0.50832167981E+03  0.12700000000E+03 0.  0.
   -5000001    1    1    2    0    0  0.51536071735E+02 -0.59220386215E+02  0.50090473051E+03  0.52268304916E+03  0.12700000000E+03 0.  0.
<mgrwt>
<rscale>  0 0.29864188E+03</rscale>
<asrwt>0</asrwt>
<pdfrwt beam="1">  1        2 0.14412928E+00 0.29864188E+03</pdfrwt>
<pdfrwt beam="2">  1       -2 0.31571349E-02 0.29864188E+03</pdfrwt>
<totfact> 0.11296257E+04</totfact>
</mgrwt>
</event>
<event>
 4    1  0.4895160E-005  0.6797525E+03  0.7818608E-02  0.9752499E-01
          2   -1    0    0  501    0  0.00000000000E+00  0.00000000000E+00  0.12939895074E+04  0.12939895074E+04  0.25500000000E-02 0.  1.
         -2   -1    0    0    0  501 -0.00000000000E+00 -0.00000000000E+00 -0.89271106319E+02  0.89271106356E+02  0.25500000000E-02 0. -1.
    5000001    1    1    2    0    0 -0.20778785429E+03 -0.13832401143E+03  0.99419913630E+03  0.10328941123E+04  0.12700000000E+03 0.  0.
   -5000001    1    1    2    0    0  0.20778785429E+03  0.13832401143E+03  0.21051926478E+03  0.35036650150E+03  0.12700000000E+03 0.  0.
<mgrwt>
<rscale>  0 0.67975253E+03</rscale>
<asrwt>0</asrwt>
<pdfrwt beam="1">  1        2 0.18485563E+00 0.67975253E+03</pdfrwt>
<pdfrwt beam="2">  1       -2 0.12753016E-01 0.67975253E+03</pdfrwt>
<totfact> 0.87778579E+02</totfact>
</mgrwt>
</event>
<event>
 4    1  0.4895160E-005  0.5278119E+03  0.7818608E-02  0.1006764E+00
          2   -1    0    0  501    0  0.00000000000E+00  0.00000000000E+00  0.56419098227E+03  0.56419098228E+03  0.25500000000E-02 0.  1.
         -2   -1    0    0    0  501 -0.00000000000E+00 -0.00000000000E+00 -0.12344461733E+03  0.12344461736E+03  0.25500000000E-02 0. -1.
    5000001    1    1    2    0    0 -0.54621464704E+02  0.20633467371E+03  0.10413968107E+03  0.26931686756E+03  0.12700000000E+03 0.  0.
   -5000001    1    1    2    0    0  0.54621464704E+02 -0.20633467371E+03  0.33660668387E+03  0.41831873208E+03  0.12700000000E+03 0.  0.
<mgrwt>
<rscale>  0 0.52781186E+03</rscale>
<asrwt>0</asrwt>
<pdfrwt beam="1">  1        2 0.80598713E-01 0.52781186E+03</pdfrwt>
<pdfrwt beam="2">  1       -2 0.17634945E-01 0.52781186E+03</pdfrwt>
<totfact> 0.15475634E+03</totfact>
</mgrwt>
</event>
<event>
 4    1  0.4895160E-005  0.3665938E+03  0.7818608E-02  0.1056003E+00
         -2   -1    0    0    0  501 -0.00000000000E+00  0.00000000000E+00  0.89175649369E+02  0.89175649405E+02  0.25500000000E-02 0. -1.
          2   -1    0    0  501    0  0.00000000000E+00 -0.00000000000E+00 -0.37675935961E+03  0.37675935961E+03  0.25500000000E-02 0.  1.
    5000001    1    1    2    0    0  0.92928983365E+02 -0.78615018377E+02 -0.20925240144E+03  0.27337096513E+03  0.12700000000E+03 0.  0.
   -5000001    1    1    2    0    0 -0.92928983365E+02  0.78615018377E+02 -0.78331308792E+02  0.19256404389E+03  0.12700000000E+03 0.  0.
<mgrwt>
<rscale>  0 0.36659384E+03</rscale>
<asrwt>0</asrwt>
<pdfrwt beam="1">  1        2 0.53822765E-01 0.36659384E+03</pdfrwt>
<pdfrwt beam="2">  1       -2 0.12739379E-01 0.36659384E+03</pdfrwt>
<totfact> 0.41671327E+03</totfact>
</mgrwt>
</event>
<event>
 4    1  0.4895160E-005  0.4225484E+03  0.7818608E-02  0.1036240E+00
         -2   -1    0    0    0  501 -0.00000000000E+00  0.00000000000E+00  0.25979067192E+03  0.25979067194E+03  0.25500000000E-02 0. -1.
          2   -1    0    0  501    0  0.00000000000E+00 -0.00000000000E+00 -0.17181828403E+03  0.17181828405E+03  0.25500000000E-02 0.  1.
    5000001    1    1    2    0    0  0.10437853099E+03 -0.86848643354E+02 -0.58516086644E+02  0.19491202370E+03  0.12700000000E+03 0.  0.
   -5000001    1    1    2    0    0 -0.10437853099E+03  0.86848643354E+02  0.14648847454E+03  0.23669693229E+03  0.12700000000E+03 0.  0.
<mgrwt>
<rscale>  0 0.42254840E+03</rscale>
<asrwt>0</asrwt>
<pdfrwt beam="1">  1        2 0.24545469E-01 0.42254840E+03</pdfrwt>
<pdfrwt beam="2">  1       -2 0.37112953E-01 0.42254840E+03</pdfrwt>
<totfact> 0.15227786E+03</totfact>
</mgrwt>
</event>
<event>
 4    1  0.4895160E-005  0.4657939E+03  0.7818608E-02  0.1023114E+00
         -2   -1    0    0    0  501 -0.00000000000E+00  0.00000000000E+00  0.25419846674E+02  0.25419846802E+02  0.25500000000E-02 0. -1.
          2   -1    0    0  501    0  0.00000000000E+00 -0.00000000000E+00 -0.21338050844E+04  0.21338050844E+04  0.25500000000E-02 0.  1.
    5000001    1    1    2    0    0  0.43710800335E+02 -0.17171280765E+03 -0.67429913044E+03  0.70866369999E+03  0.12700000000E+03 0.  0.
   -5000001    1    1    2    0    0 -0.43710800335E+02  0.17171280765E+03 -0.14340861073E+04  0.14505612313E+04  0.12700000000E+03 0.  0.
<mgrwt>
<rscale>  0 0.46579394E+03</rscale>
<asrwt>0</asrwt>
<pdfrwt beam="1">  1        2 0.30482918E+00 0.46579394E+03</pdfrwt>
<pdfrwt beam="2">  1       -2 0.36314080E-02 0.46579394E+03</pdfrwt>
<totfact> 0.23947827E+03</totfact>
</mgrwt>
</event>
<event>
 4    1  0.4895160E-005  0.6461322E+03  0.7818608E-02  0.9814064E-01
         -2   -1    0    0    0  501 -0.00000000000E+00  0.00000000000E+00  0.37444306812E+02  0.37444306898E+02  0.25500000000E-02 0. -1.
          2   -1    0    0  501    0  0.00000000000E+00 -0.00000000000E+00 -0.27873853235E+04  0.27873853235E+04  0.25500000000E-02 0.  1.
    5000001    1    1    2    0    0  0.79669122599E+02 -0.49921349009E+02 -0.14302807392E+03  0.21313221275E+03  0.12700000000E+03 0.  0.
   -5000001    1    1    2    0    0 -0.79669122599E+02  0.49921349009E+02 -0.26069129427E+04  0.26116974176E+04  0.12700000000E+03 0.  0.
<mgrwt>
<rscale>  0 0.64613222E+03</rscale>
<asrwt>0</asrwt>
<pdfrwt beam="1">  1        2 0.39819777E+00 0.64613222E+03</pdfrwt>
<pdfrwt beam="2">  1       -2 0.53491885E-02 0.64613222E+03</pdfrwt>
<totfact> 0.60349351E+02</totfact>
</mgrwt>
</event>
<event>
 4    1  0.4895160E-005  0.6467500E+03  0.7818608E-02  0.9812897E-01
          2   -1    0    0  501    0  0.00000000000E+00  0.00000000000E+00  0.11069619191E+04  0.11069619191E+04  0.25500000000E-02 0.  1.
         -2   -1    0    0    0  501 -0.00000000000E+00 -0.00000000000E+00 -0.94467014033E+02  0.94467014067E+02  0.25500000000E-02 0. -1.
    5000001    1    1    2    0    0  0.26201967225E+03  0.98435530103E+02  0.69292437282E+03  0.75803499173E+03  0.12700000000E+03 0.  0.
   -5000001    1    1    2    0    0 -0.26201967225E+03 -0.98435530103E+02  0.31957053225E+03  0.44339394144E+03  0.12700000000E+03 0.  0.
<mgrwt>
<rscale>  0 0.64674999E+03</rscale>
<asrwt>0</asrwt>
<pdfrwt beam="1">  1        2 0.15813741E+00 0.64674999E+03</pdfrwt>
<pdfrwt beam="2">  1       -2 0.13495289E-01 0.64674999E+03</pdfrwt>
<totfact> 0.10192769E+03</totfact>
</mgrwt>
</event>
<event>
 4    1  0.4895160E-005  0.3343610E+03  0.7818608E-02  0.1069223E+00
          2   -1    0    0  501    0  0.00000000000E+00  0.00000000000E+00  0.73340000169E+03  0.73340000169E+03  0.25500000000E-02 0.  1.
         -2   -1    0    0    0  501 -0.00000000000E+00 -0.00000000000E+00 -0.38109244052E+02  0.38109244137E+02  0.25500000000E-02 0. -1.
    5000001    1    1    2    0    0 -0.55607966683E+01  0.93073213406E+02  0.47667035180E+03  0.50203303657E+03  0.12700000000E+03 0.  0.
   -5000001    1    1    2    0    0  0.55607966683E+01 -0.93073213406E+02  0.21862040583E+03  0.26947620926E+03  0.12700000000E+03 0.  0.
<mgrwt>
<rscale>  0 0.33436100E+03</rscale>
<asrwt>0</asrwt>
<pdfrwt beam="1">  1        2 0.10477143E+00 0.33436100E+03</pdfrwt>
<pdfrwt beam="2">  1       -2 0.54441777E-02 0.33436100E+03</pdfrwt>
<totfact> 0.74842451E+03</totfact>
</mgrwt>
</event>
<event>
 4    1  0.4895160E-005  0.9943930E+03  0.7818608E-02  0.9314716E-01
          2   -1    0    0  501    0  0.00000000000E+00  0.00000000000E+00  0.10239790313E+04  0.10239790313E+04  0.25500000000E-02 0.  1.
         -2   -1    0    0    0  501 -0.00000000000E+00 -0.00000000000E+00 -0.24141543609E+03  0.24141543611E+03  0.25500000000E-02 0. -1.
    5000001    1    1    2    0    0 -0.45037366098E+03  0.77714678322E+01  0.17766916567E+03  0.50059181241E+03  0.12700000000E+03 0.  0.
   -5000001    1    1    2    0    0  0.45037366098E+03 -0.77714678322E+01  0.60489442955E+03  0.76480265502E+03  0.12700000000E+03 0.  0.
<mgrwt>
<rscale>  0 0.99439297E+03</rscale>
<asrwt>0</asrwt>
<pdfrwt beam="1">  1        2 0.14628272E+00 0.99439297E+03</pdfrwt>
<pdfrwt beam="2">  1       -2 0.34487919E-01 0.99439297E+03</pdfrwt>
<totfact> 0.21312183E+02</totfact>
</mgrwt>
</event>
<event>
 4    1  0.4895160E-005  0.4465978E+03  0.7818608E-02  0.1028741E+00
         -2   -1    0    0    0  501 -0.00000000000E+00  0.00000000000E+00  0.32441559964E+02  0.32441560065E+02  0.25500000000E-02 0. -1.
          2   -1    0    0  501    0  0.00000000000E+00 -0.00000000000E+00 -0.15369911891E+04  0.15369911891E+04  0.25500000000E-02 0.  1.
    5000001    1    1    2    0    0  0.15964907800E+03 -0.30522942599E+02 -0.45173564702E+03  0.49660202669E+03  0.12700000000E+03 0.  0.
   -5000001    1    1    2    0    0 -0.15964907800E+03  0.30522942599E+02 -0.10528139821E+04  0.10728307225E+04  0.12700000000E+03 0.  0.
<mgrwt>
<rscale>  0 0.44659777E+03</rscale>
<asrwt>0</asrwt>
<pdfrwt beam="1">  1        2 0.21957012E+00 0.44659777E+03</pdfrwt>
<pdfrwt beam="2">  1       -2 0.46345095E-02 0.44659777E+03</pdfrwt>
<totfact> 0.32866643E+03</totfact>
</mgrwt>
</event>
<event>
 4    1  0.4895160E-005  0.4036190E+03  0.7818608E-02  0.1042534E+00
         -2   -1    0    0    0  501 -0.00000000000E+00  0.00000000000E+00  0.13878809774E+03  0.13878809776E+03  0.25500000000E-02 0. -1.
          2   -1    0    0  501    0  0.00000000000E+00 -0.00000000000E+00 -0.29344785621E+03  0.29344785622E+03  0.25500000000E-02 0.  1.
    5000001    1    1    2    0    0  0.72453975935E+02 -0.38302955011E+02  0.65872345176E+02  0.16487832135E+03  0.12700000000E+03 0.  0.
   -5000001    1    1    2    0    0 -0.72453975935E+02  0.38302955011E+02 -0.22053210365E+03  0.26735763264E+03  0.12700000000E+03 0.  0.
<mgrwt>
<rscale>  0 0.40361898E+03</rscale>
<asrwt>0</asrwt>
<pdfrwt beam="1">  1        2 0.41921122E-01 0.40361898E+03</pdfrwt>
<pdfrwt beam="2">  1       -2 0.19826871E-01 0.40361898E+03</pdfrwt>
<totfact> 0.26095760E+03</totfact>
</mgrwt>
</event>
<event>
 4    1  0.4895160E-005  0.4950660E+03  0.7818608E-02  0.1015075E+00
         -2   -1    0    0    0  501 -0.00000000000E+00  0.00000000000E+00  0.23394417425E+02  0.23394417564E+02  0.25500000000E-02 0. -1.
          2   -1    0    0  501    0  0.00000000000E+00 -0.00000000000E+00 -0.26191113218E+04  0.26191113218E+04  0.25500000000E-02 0.  1.
    5000001    1    1    2    0    0 -0.16826404979E+03 -0.12501654475E+03 -0.14828888461E+04  0.15030070715E+04  0.12700000000E+03 0.  0.
   -5000001    1    1    2    0    0  0.16826404979E+03  0.12501654475E+03 -0.11128280582E+04  0.11394986678E+04  0.12700000000E+03 0.  0.
<mgrwt>
<rscale>  0 0.49506599E+03</rscale>
<asrwt>0</asrwt>
<pdfrwt beam="1">  1        2 0.37415857E+00 0.49506599E+03</pdfrwt>
<pdfrwt beam="2">  1       -2 0.33420613E-02 0.49506599E+03</pdfrwt>
<totfact> 0.15420077E+03</totfact>
</mgrwt>
</event>
<event>
 4    1  0.4895160E-005  0.2866578E+03  0.7818608E-02  0.1092107E+00
         -2   -1    0    0    0  501 -0.00000000000E+00  0.00000000000E+00  0.96526857711E+01  0.96526861079E+01  0.25500000000E-02 0. -1.
          2   -1    0    0  501    0  0.00000000000E+00 -0.00000000000E+00 -0.21282338876E+04  0.21282338876E+04  0.25500000000E-02 0.  1.
    5000001    1    1    2    0    0  0.44689264502E+02 -0.15781188171E+02 -0.71203421268E+03  0.72482266541E+03  0.12700000000E+03 0.  0.
   -5000001    1    1    2    0    0 -0.44689264502E+02  0.15781188171E+02 -0.14065469892E+04  0.14130639083E+04  0.12700000000E+03 0.  0.
<mgrwt>
<rscale>  0 0.28665780E+03</rscale>
<asrwt>0</asrwt>
<pdfrwt beam="1">  1        2 0.30403311E+00 0.28665780E+03</pdfrwt>
<pdfrwt beam="2">  1       -2 0.13789565E-02 0.28665780E+03</pdfrwt>
<totfact> 0.10212431E+04</totfact>
</mgrwt>
</event>
<event>
 4    1  0.4895160E-005  0.3102230E+03  0.7818608E-02  0.1080239E+00
          2   -1    0    0  501    0  0.00000000000E+00  0.00000000000E+00  0.49790780552E+03  0.49790780553E+03  0.25500000000E-02 0.  1.
         -2   -1    0    0    0  501 -0.00000000000E+00 -0.00000000000E+00 -0.48321350467E+02  0.48321350534E+02  0.25500000000E-02 0. -1.
    5000001    1    1    2    0    0 -0.71075215646E+02 -0.29725315415E+02  0.30344430031E+03  0.33785015028E+03  0.12700000000E+03 0.  0.
   -5000001    1    1    2    0    0  0.71075215646E+02  0.29725315415E+02  0.14614215474E+03  0.20837900578E+03  0.12700000000E+03 0.  0.
<mgrwt>
<rscale>  0 0.31022300E+03</rscale>
<asrwt>0</asrwt>
<pdfrwt beam="1">  1        2 0.71129685E-01 0.31022300E+03</pdfrwt>
<pdfrwt beam="2">  1       -2 0.69030502E-02 0.31022300E+03</pdfrwt>
<totfact> 0.80953719E+03</totfact>
</mgrwt>
</event>
<event>
 4    1  0.4895160E-005  0.3957218E+03  0.7818608E-02  0.1045271E+00
          2   -1    0    0  501    0  0.00000000000E+00  0.00000000000E+00  0.12827724184E+03  0.12827724186E+03  0.25500000000E-02 0.  1.
         -2   -1    0    0    0  501 -0.00000000000E+00 -0.00000000000E+00 -0.30519000706E+03  0.30519000707E+03  0.25500000000E-02 0. -1.
    5000001    1    1    2    0    0 -0.53161232056E+02 -0.14056517703E+03 -0.11130890314E+03  0.22606051735E+03  0.12700000000E+03 0.  0.
   -5000001    1    1    2    0    0  0.53161232056E+02  0.14056517703E+03 -0.65603862090E+02  0.20740673159E+03  0.12700000000E+03 0.  0.
<mgrwt>
<rscale>  0 0.39572178E+03</rscale>
<asrwt>0</asrwt>
<pdfrwt beam="1">  1        2 0.18325320E-01 0.39572178E+03</pdfrwt>
<pdfrwt beam="2">  1       -2 0.43598572E-01 0.39572178E+03</pdfrwt>
<totfact> 0.15616214E+03</totfact>
</mgrwt>
</event>
<event>
 4    1  0.4895160E-005  0.2977268E+03  0.7818608E-02  0.1086382E+00
         -2   -1    0    0    0  501 -0.00000000000E+00  0.00000000000E+00  0.15589481711E+02  0.15589481920E+02  0.25500000000E-02 0. -1.
          2   -1    0    0  501    0  0.00000000000E+00 -0.00000000000E+00 -0.14214915246E+04  0.14214915246E+04  0.25500000000E-02 0.  1.
    5000001    1    1    2    0    0  0.69291378455E+02 -0.15141454985E+02 -0.55025500711E+03  0.56915738740E+03  0.12700000000E+03 0.  0.
   -5000001    1    1    2    0    0 -0.69291378455E+02  0.15141454985E+02 -0.85564703583E+03  0.86792361917E+03  0.12700000000E+03 0.  0.
<mgrwt>
<rscale>  0 0.29772683E+03</rscale>
<asrwt>0</asrwt>
<pdfrwt beam="1">  1        2 0.20307013E+00 0.29772683E+03</pdfrwt>
<pdfrwt beam="2">  1       -2 0.22270697E-02 0.29772683E+03</pdfrwt>
<totfact> 0.11303774E+04</totfact>
</mgrwt>
</event>
<event>
 4    1  0.4895160E-005  0.3213329E+03  0.7818608E-02  0.1075038E+00
         -2   -1    0    0    0  501 -0.00000000000E+00  0.00000000000E+00  0.43535239046E+02  0.43535239121E+02  0.25500000000E-02 0. -1.
          2   -1    0    0  501    0  0.00000000000E+00 -0.00000000000E+00 -0.59293807767E+03  0.59293807768E+03  0.25500000000E-02 0.  1.
    5000001    1    1    2    0    0  0.93741527106E+02 -0.29655630348E+00 -0.21537406698E+03  0.26702537441E+03  0.12700000000E+03 0.  0.
   -5000001    1    1    2    0    0 -0.93741527106E+02  0.29655630348E+00 -0.33402877164E+03  0.36944794239E+03  0.12700000000E+03 0.  0.
<mgrwt>
<rscale>  0 0.32133286E+03</rscale>
<asrwt>0</asrwt>
<pdfrwt beam="1">  1        2 0.84705435E-01 0.32133286E+03</pdfrwt>
<pdfrwt beam="2">  1       -2 0.62193202E-02 0.32133286E+03</pdfrwt>
<totfact> 0.78227091E+03</totfact>
</mgrwt>
</event>
<event>
 4    1  0.4895160E-005  0.3965805E+03  0.7818608E-02  0.1044970E+00
          2   -1    0    0  501    0  0.00000000000E+00  0.00000000000E+00  0.15131564894E+04  0.15131564894E+04  0.25500000000E-02 0.  1.
         -2   -1    0    0    0  501 -0.00000000000E+00 -0.00000000000E+00 -0.25984770267E+02  0.25984770392E+02  0.25500000000E-02 0. -1.
    5000001    1    1    2    0    0 -0.13617599309E+03  0.64524183698E+02  0.82885843432E+03  0.85196395201E+03  0.12700000000E+03 0.  0.
   -5000001    1    1    2    0    0  0.13617599309E+03 -0.64524183698E+02  0.65831328479E+03  0.68717730777E+03  0.12700000000E+03 0.  0.
<mgrwt>
<rscale>  0 0.39658050E+03</rscale>
<asrwt>0</asrwt>
<pdfrwt beam="1">  1        2 0.21616524E+00 0.39658050E+03</pdfrwt>
<pdfrwt beam="2">  1       -2 0.37121096E-02 0.39658050E+03</pdfrwt>
<totfact> 0.47418763E+03</totfact>
</mgrwt>
</event>
<event>
 4    1  0.4895160E-005  0.3035613E+03  0.7818608E-02  0.1083474E+00
         -2   -1    0    0    0  501 -0.00000000000E+00  0.00000000000E+00  0.70826986397E+02  0.70826986443E+02  0.25500000000E-02 0. -1.
          2   -1    0    0  501    0  0.00000000000E+00 -0.00000000000E+00 -0.32526258244E+03  0.32526258245E+03  0.25500000000E-02 0.  1.
    5000001    1    1    2    0    0 -0.35824119628E+02 -0.71821585572E+02 -0.15540471921E+03  0.21615118425E+03  0.12700000000E+03 0.  0.
   -5000001    1    1    2    0    0  0.35824119628E+02  0.71821585572E+02 -0.99030876838E+02  0.17993838464E+03  0.12700000000E+03 0.  0.
<mgrwt>
<rscale>  0 0.30356132E+03</rscale>
<asrwt>0</asrwt>
<pdfrwt beam="1">  1        2 0.46466082E-01 0.30356132E+03</pdfrwt>
<pdfrwt beam="2">  1       -2 0.10118141E-01 0.30356132E+03</pdfrwt>
<totfact> 0.70509923E+03</totfact>
</mgrwt>
</event>
<event>
 4    1  0.4895160E-005  0.6774249E+03  0.7818608E-02  0.9756637E-01
          2   -1    0    0  501    0  0.00000000000E+00  0.00000000000E+00  0.43095318440E+03  0.43095318441E+03  0.25500000000E-02 0.  1.
         -2   -1    0    0    0  501 -0.00000000000E+00 -0.00000000000E+00 -0.26621483385E+03  0.26621483386E+03  0.25500000000E-02 0. -1.
    5000001    1    1    2    0    0  0.33450820858E+02 -0.27060777676E+03 -0.77892107414E+02  0.31071483173E+03  0.12700000000E+03 0.  0.
   -5000001    1    1    2    0    0 -0.33450820858E+02  0.27060777676E+03  0.24263045796E+03  0.38645318654E+03  0.12700000000E+03 0.  0.
<mgrwt>
<rscale>  0 0.67742492E+03</rscale>
<asrwt>0</asrwt>
<pdfrwt beam="1">  1        2 0.61564741E-01 0.67742492E+03</pdfrwt>
<pdfrwt beam="2">  1       -2 0.38030690E-01 0.67742492E+03</pdfrwt>
<totfact> 0.52226017E+02</totfact>
</mgrwt>
</event>
<event>
 4    1  0.4895160E-005  0.3586326E+03  0.7818608E-02  0.1059127E+00
          2   -1    0    0  501    0  0.00000000000E+00  0.00000000000E+00  0.87803734960E+03  0.87803734961E+03  0.25500000000E-02 0.  1.
         -2   -1    0    0    0  501 -0.00000000000E+00 -0.00000000000E+00 -0.36620684248E+02  0.36620684337E+02  0.25500000000E-02 0. -1.
    5000001    1    1    2    0    0 -0.39856043620E+02 -0.11824476502E+03  0.47511031080E+03  0.50737474917E+03  0.12700000000E+03 0.  0.
   -5000001    1    1    2    0    0  0.39856043620E+02  0.11824476502E+03  0.36630635455E+03  0.40728328477E+03  0.12700000000E+03 0.  0.
<mgrwt>
<rscale>  0 0.35863256E+03</rscale>
<asrwt>0</asrwt>
<pdfrwt beam="1">  1        2 0.12543390E+00 0.35863256E+03</pdfrwt>
<pdfrwt beam="2">  1       -2 0.52315266E-02 0.35863256E+03</pdfrwt>
<totfact> 0.63604557E+03</totfact>
</mgrwt>
</event>
<event>
 4    1  0.4895160E-005  0.3647234E+03  0.7818608E-02  0.1056729E+00
         -2   -1    0    0    0  501 -0.00000000000E+00  0.00000000000E+00  0.20249983779E+02  0.20249983940E+02  0.25500000000E-02 0. -1.
          2   -1    0    0  501    0  0.00000000000E+00 -0.00000000000E+00 -0.16422626370E+04  0.16422626370E+04  0.25500000000E-02 0.  1.
    5000001    1    1    2    0    0  0.12321740559E+03 -0.43998114993E+02 -0.79777259168E+03  0.81834495856E+03  0.12700000000E+03 0.  0.
   -5000001    1    1    2    0    0 -0.12321740559E+03  0.43998114993E+02 -0.82424006150E+03  0.84416766234E+03  0.12700000000E+03 0.  0.
<mgrwt>
<rscale>  0 0.36472341E+03</rscale>
<asrwt>0</asrwt>
<pdfrwt beam="1">  1        2 0.23460886E+00 0.36472341E+03</pdfrwt>
<pdfrwt beam="2">  1       -2 0.28928559E-02 0.36472341E+03</pdfrwt>
<totfact> 0.59372965E+03</totfact>
</mgrwt>
</event>
<event>
 4    1  0.4895160E-005  0.3312093E+03  0.7818608E-02  0.1070603E+00
         -2   -1    0    0    0  501 -0.00000000000E+00  0.00000000000E+00  0.26324555628E+03  0.26324555630E+03  0.25500000000E-02 0. -1.
          2   -1    0    0  501    0  0.00000000000E+00 -0.00000000000E+00 -0.10417994386E+03  0.10417994389E+03  0.25500000000E-02 0.  1.
    5000001    1    1    2    0    0 -0.47088803583E+02 -0.50217416347E+02  0.16936074946E+03  0.22260100580E+03  0.12700000000E+03 0.  0.
   -5000001    1    1    2    0    0  0.47088803583E+02  0.50217416347E+02 -0.10295137038E+02  0.14482449439E+03  0.12700000000E+03 0.  0.
<mgrwt>
<rscale>  0 0.33120934E+03</rscale>
<asrwt>0</asrwt>
<pdfrwt beam="1">  1        2 0.14882849E-01 0.33120934E+03</pdfrwt>
<pdfrwt beam="2">  1       -2 0.37606508E-01 0.33120934E+03</pdfrwt>
<totfact> 0.26465419E+03</totfact>
</mgrwt>
</event>
<event>
 4    1  0.4895160E-005  0.5512671E+03  0.7818608E-02  0.1001201E+00
          2   -1    0    0  501    0  0.00000000000E+00  0.00000000000E+00  0.65236702624E+03  0.65236702624E+03  0.25500000000E-02 0.  1.
         -2   -1    0    0    0  501 -0.00000000000E+00 -0.00000000000E+00 -0.11645875044E+03  0.11645875047E+03  0.25500000000E-02 0. -1.
    5000001    1    1    2    0    0  0.19019166336E+03 -0.13494538972E+03  0.16488452149E+03  0.31256844441E+03  0.12700000000E+03 0.  0.
   -5000001    1    1    2    0    0 -0.19019166336E+03  0.13494538972E+03  0.37102375430E+03  0.45625733230E+03  0.12700000000E+03 0.  0.
<mgrwt>
<rscale>  0 0.55126708E+03</rscale>
<asrwt>0</asrwt>
<pdfrwt beam="1">  1        2 0.93195292E-01 0.55126708E+03</pdfrwt>
<pdfrwt beam="2">  1       -2 0.16636964E-01 0.55126708E+03</pdfrwt>
<totfact> 0.14407765E+03</totfact>
</mgrwt>
</event>
<event>
 4    1  0.4895160E-005  0.2734554E+03  0.7818608E-02  0.1099318E+00
          2   -1    0    0  501    0  0.00000000000E+00  0.00000000000E+00  0.24011869010E+04  0.24011869010E+04  0.25500000000E-02 0.  1.
         -2   -1    0    0    0  501 -0.00000000000E+00 -0.00000000000E+00 -0.77855118281E+01  0.77855122457E+01  0.25500000000E-02 0. -1.
    5000001    1    1    2    0    0 -0.41477027270E+02 -0.11278501213E+02  0.96066176868E+03  0.96997298013E+03  0.12700000000E+03 0.  0.
   -5000001    1    1    2    0    0  0.41477027270E+02  0.11278501213E+02  0.14327396205E+04  0.14389994331E+04  0.12700000000E+03 0.  0.
<mgrwt>
<rscale>  0 0.27345544E+03</rscale>
<asrwt>0</asrwt>
<pdfrwt beam="1">  1        2 0.34302680E+00 0.27345544E+03</pdfrwt>
<pdfrwt beam="2">  1       -2 0.11122157E-02 0.27345544E+03</pdfrwt>
<totfact> 0.10253918E+04</totfact>
</mgrwt>
</event>
<event>
 4    1  0.4895160E-005  0.3268797E+03  0.7818608E-02  0.1072526E+00
         -2   -1    0    0    0  501 -0.00000000000E+00  0.00000000000E+00  0.15920586367E+02  0.15920586571E+02  0.25500000000E-02 0. -1.
          2   -1    0    0  501    0  0.00000000000E+00 -0.00000000000E+00 -0.16778640555E+04  0.16778640555E+04  0.25500000000E-02 0.  1.
    5000001    1    1    2    0    0  0.73465356049E+02 -0.71980407601E+02 -0.81910788644E+03  0.83525149940E+03  0.12700000000E+03 0.  0.
   -5000001    1    1    2    0    0 -0.73465356049E+02  0.71980407601E+02 -0.84283558265E+03  0.85853314263E+03  0.12700000000E+03 0.  0.
<mgrwt>
<rscale>  0 0.32687967E+03</rscale>
<asrwt>0</asrwt>
<pdfrwt beam="1">  1        2 0.23969475E+00 0.32687967E+03</pdfrwt>
<pdfrwt beam="2">  1       -2 0.22743706E-02 0.32687967E+03</pdfrwt>
<totfact> 0.81490321E+03</totfact>
</mgrwt>
</event>
<event>
 4    1  0.4895160E-005  0.4038983E+03  0.7818608E-02  0.1042438E+00
         -2   -1    0    0    0  501 -0.00000000000E+00  0.00000000000E+00  0.88630650236E+02  0.88630650273E+02  0.25500000000E-02 0. -1.
          2   -1    0    0  501    0  0.00000000000E+00 -0.00000000000E+00 -0.46015080604E+03  0.46015080605E+03  0.25500000000E-02 0.  1.
    5000001    1    1    2    0    0  0.46357820157E+02  0.13801299404E+03 -0.26565685512E+03  0.32848013439E+03  0.12700000000E+03 0.  0.
   -5000001    1    1    2    0    0 -0.46357820157E+02 -0.13801299404E+03 -0.10586330068E+03  0.22030132193E+03  0.12700000000E+03 0.  0.
<mgrwt>
<rscale>  0 0.40389833E+03</rscale>
<asrwt>0</asrwt>
<pdfrwt beam="1">  1        2 0.65735828E-01 0.40389833E+03</pdfrwt>
<pdfrwt beam="2">  1       -2 0.12661522E-01 0.40389833E+03</pdfrwt>
<totfact> 0.33855384E+03</totfact>
</mgrwt>
</event>
<event>
 4    1  0.4895160E-005  0.3846192E+03  0.7818608E-02  0.1049240E+00
          2   -1    0    0  501    0  0.00000000000E+00  0.00000000000E+00  0.73066782740E+03  0.73066782741E+03  0.25500000000E-02 0.  1.
         -2   -1    0    0    0  501 -0.00000000000E+00 -0.00000000000E+00 -0.50615311597E+02  0.50615311661E+02  0.25500000000E-02 0. -1.
    5000001    1    1    2    0    0 -0.33672142848E+02  0.14041380341E+03  0.34415457589E+03  0.39423498259E+03  0.12700000000E+03 0.  0.
   -5000001    1    1    2    0    0  0.33672142848E+02 -0.14041380341E+03  0.33589793992E+03  0.38704815648E+03  0.12700000000E+03 0.  0.
<mgrwt>
<rscale>  0 0.38461919E+03</rscale>
<asrwt>0</asrwt>
<pdfrwt beam="1">  1        2 0.10438111E+00 0.38461919E+03</pdfrwt>
<pdfrwt beam="2">  1       -2 0.72307594E-02 0.38461919E+03</pdfrwt>
<totfact> 0.48585239E+03</totfact>
</mgrwt>
</event>
<event>
 4    1  0.4895160E-005  0.3709618E+03  0.7818608E-02  0.1054326E+00
         -2   -1    0    0    0  501 -0.00000000000E+00  0.00000000000E+00  0.34958004689E+02  0.34958004782E+02  0.25500000000E-02 0. -1.
          2   -1    0    0  501    0  0.00000000000E+00 -0.00000000000E+00 -0.98412830351E+03  0.98412830352E+03  0.25500000000E-02 0.  1.
    5000001    1    1    2    0    0  0.16220561494E+02  0.12681980027E+03 -0.35396716917E+03  0.39720035902E+03  0.12700000000E+03 0.  0.
   -5000001    1    1    2    0    0 -0.16220561494E+02 -0.12681980027E+03 -0.59520312966E+03  0.62188594928E+03  0.12700000000E+03 0.  0.
<mgrwt>
<rscale>  0 0.37096179E+03</rscale>
<asrwt>0</asrwt>
<pdfrwt beam="1">  1        2 0.14058974E+00 0.37096179E+03</pdfrwt>
<pdfrwt beam="2">  1       -2 0.49940013E-02 0.37096179E+03</pdfrwt>
<totfact> 0.58721202E+03</totfact>
</mgrwt>
</event>
<event>
 4    1  0.4895160E-005  0.4127127E+03  0.7818608E-02  0.1039465E+00
         -2   -1    0    0    0  501 -0.00000000000E+00  0.00000000000E+00  0.65955587498E+02  0.65955587547E+02  0.25500000000E-02 0. -1.
          2   -1    0    0  501    0  0.00000000000E+00 -0.00000000000E+00 -0.64563051054E+03  0.64563051054E+03  0.25500000000E-02 0.  1.
    5000001    1    1    2    0    0  0.14606715591E+03  0.61053535043E+02 -0.35413741356E+03  0.40817331596E+03  0.12700000000E+03 0.  0.
   -5000001    1    1    2    0    0 -0.14606715591E+03 -0.61053535043E+02 -0.22553750948E+03  0.30341278213E+03  0.12700000000E+03 0.  0.
<mgrwt>
<rscale>  0 0.41271268E+03</rscale>
<asrwt>0</asrwt>
<pdfrwt beam="1">  1        2 0.92232926E-01 0.41271268E+03</pdfrwt>
<pdfrwt beam="2">  1       -2 0.94222272E-02 0.41271268E+03</pdfrwt>
<totfact> 0.37120939E+03</totfact>
</mgrwt>
</event>
<event>
 4    1  0.4895160E-005  0.3016298E+03  0.7818608E-02  0.1084429E+00
         -2   -1    0    0    0  501 -0.00000000000E+00  0.00000000000E+00  0.42357777413E+03  0.42357777413E+03  0.25500000000E-02 0.  1.
          2   -1    0    0  501    0  0.00000000000E+00 -0.00000000000E+00 -0.53697665082E+02  0.53697665142E+02  0.25500000000E-02 0. -1.
    5000001    1    1    2    0    0 -0.54776041051E+02 -0.14895617081E+01  0.89822850148E+02  0.16492355161E+03  0.12700000000E+03 0.  0.
   -5000001    1    1    2    0    0  0.54776041051E+02  0.14895617081E+01  0.28005725890E+03  0.31235188766E+03  0.12700000000E+03 0.  0.
<mgrwt>
<rscale>  0 0.30162982E+03</rscale>
<asrwt>0</asrwt>
<pdfrwt beam="1">  1        2 0.76710951E-02 0.30162982E+03</pdfrwt>
<pdfrwt beam="2">  1       -2 0.60511110E-01 0.30162982E+03</pdfrwt>
<totfact> 0.23343221E+03</totfact>
</mgrwt>
</event>
<event>
 4    1  0.4895160E-005  0.5265184E+03  0.7818608E-02  0.1007080E+00
         -2   -1    0    0    0  501 -0.00000000000E+00  0.00000000000E+00  0.67776658567E+02  0.67776658615E+02  0.25500000000E-02 0. -1.
          2   -1    0    0  501    0  0.00000000000E+00 -0.00000000000E+00 -0.10225557816E+04  0.10225557816E+04  0.25500000000E-02 0.  1.
    5000001    1    1    2    0    0 -0.27810589336E+02 -0.22834577657E+03 -0.44392193463E+03  0.51585938646E+03  0.12700000000E+03 0.  0.
   -5000001    1    1    2    0    0  0.27810589336E+02  0.22834577657E+03 -0.51085718843E+03  0.57447305379E+03  0.12700000000E+03 0.  0.
<mgrwt>
<rscale>  0 0.52651843E+03</rscale>
<asrwt>0</asrwt>
<pdfrwt beam="1">  1        2 0.14607939E+00 0.52651843E+03</pdfrwt>
<pdfrwt beam="2">  1       -2 0.96823804E-02 0.52651843E+03</pdfrwt>
<totfact> 0.19745272E+03</totfact>
</mgrwt>
</event>
<event>
 4    1  0.4895160E-005  0.4257398E+03  0.7818608E-02  0.1035214E+00
         -2   -1    0    0    0  501 -0.00000000000E+00  0.00000000000E+00  0.15400388762E+03  0.15400388764E+03  0.25500000000E-02 0. -1.
          2   -1    0    0  501    0  0.00000000000E+00 -0.00000000000E+00 -0.29423676007E+03  0.29423676008E+03  0.25500000000E-02 0.  1.
    5000001    1    1    2    0    0 -0.12735197343E+03  0.84600919080E+02  0.10126869443E+02  0.19901606501E+03  0.12700000000E+03 0.  0.
   -5000001    1    1    2    0    0  0.12735197343E+03 -0.84600919080E+02 -0.15035974190E+03  0.24922458271E+03  0.12700000000E+03 0.  0.
<mgrwt>
<rscale>  0 0.42573985E+03</rscale>
<asrwt>0</asrwt>
<pdfrwt beam="1">  1        2 0.42033823E-01 0.42573985E+03</pdfrwt>
<pdfrwt beam="2">  1       -2 0.22000555E-01 0.42573985E+03</pdfrwt>
<totfact> 0.21733444E+03</totfact>
</mgrwt>
</event>
<event>
 4    1  0.4895160E-005  0.5104642E+03  0.7818608E-02  0.1011083E+00
         -2   -1    0    0    0  501 -0.00000000000E+00  0.00000000000E+00  0.86200186007E+02  0.86200186045E+02  0.25500000000E-02 0. -1.
          2   -1    0    0  501    0  0.00000000000E+00 -0.00000000000E+00 -0.75572262010E+03  0.75572262010E+03  0.25500000000E-02 0.  1.
    5000001    1    1    2    0    0 -0.13014027128E+03  0.98665259816E+02 -0.88226124945E+02  0.22490925465E+03  0.12700000000E+03 0.  0.
   -5000001    1    1    2    0    0  0.13014027128E+03 -0.98665259816E+02 -0.58129630915E+03  0.61701355150E+03  0.12700000000E+03 0.  0.
<mgrwt>
<rscale>  0 0.51046422E+03</rscale>
<asrwt>0</asrwt>
<pdfrwt beam="1">  1        2 0.10796037E+00 0.51046422E+03</pdfrwt>
<pdfrwt beam="2">  1       -2 0.12314313E-01 0.51046422E+03</pdfrwt>
<totfact> 0.19909065E+03</totfact>
</mgrwt>
</event>
<event>
 4    1  0.4895160E-005  0.4115286E+03  0.7818608E-02  0.1039859E+00
          2   -1    0    0  501    0  0.00000000000E+00  0.00000000000E+00  0.24973568931E+03  0.24973568933E+03  0.25500000000E-02 0.  1.
         -2   -1    0    0    0  501 -0.00000000000E+00 -0.00000000000E+00 -0.16953505384E+03  0.16953505386E+03  0.25500000000E-02 0. -1.
    5000001    1    1    2    0    0 -0.60785813675E+01 -0.13995566367E+03  0.12277758810E+03  0.22545037832E+03  0.12700000000E+03 0.  0.
   -5000001    1    1    2    0    0  0.60785813675E+01  0.13995566367E+03 -0.42576952626E+02  0.19382036487E+03  0.12700000000E+03 0.  0.
<mgrwt>
<rscale>  0 0.41152863E+03</rscale>
<asrwt>0</asrwt>
<pdfrwt beam="1">  1        2 0.35676527E-01 0.41152863E+03</pdfrwt>
<pdfrwt beam="2">  1       -2 0.24219293E-01 0.41152863E+03</pdfrwt>
<totfact> 0.21951698E+03</totfact>
</mgrwt>
</event>
<event>
 4    1  0.4895160E-005  0.4576960E+03  0.7818608E-02  0.1025452E+00
          2   -1    0    0  501    0  0.00000000000E+00  0.00000000000E+00  0.45802750666E+03  0.45802750667E+03  0.25500000000E-02 0.  1.
         -2   -1    0    0    0  501 -0.00000000000E+00 -0.00000000000E+00 -0.11434117160E+03  0.11434117163E+03  0.25500000000E-02 0. -1.
    5000001    1    1    2    0    0 -0.61135438162E+02 -0.16087917632E+03  0.27361274342E+03  0.34729322558E+03  0.12700000000E+03 0.  0.
   -5000001    1    1    2    0    0  0.61135438162E+02  0.16087917632E+03  0.70073591637E+02  0.22507545272E+03  0.12700000000E+03 0.  0.
<mgrwt>
<rscale>  0 0.45769598E+03</rscale>
<asrwt>0</asrwt>
<pdfrwt beam="1">  1        2 0.65432502E-01 0.45769598E+03</pdfrwt>
<pdfrwt beam="2">  1       -2 0.16334453E-01 0.45769598E+03</pdfrwt>
<totfact> 0.22312706E+03</totfact>
</mgrwt>
</event>
<event>
 4    1  0.4895160E-005  0.4884189E+03  0.7818608E-02  0.1016847E+00
          2   -1    0    0  501    0  0.00000000000E+00  0.00000000000E+00  0.50910943631E+03  0.50910943631E+03  0.25500000000E-02 0.  1.
         -2   -1    0    0    0  501 -0.00000000000E+00 -0.00000000000E+00 -0.11714230144E+03  0.11714230147E+03  0.25500000000E-02 0. -1.
    5000001    1    1    2    0    0  0.10322379149E+03 -0.18123236383E+03  0.19215189897E+03  0.31072765102E+03  0.12700000000E+03 0.  0.
   -5000001    1    1    2    0    0 -0.10322379149E+03  0.18123236383E+03  0.19981523589E+03  0.31552408676E+03  0.12700000000E+03 0.  0.
<mgrwt>
<rscale>  0 0.48841888E+03</rscale>
<asrwt>0</asrwt>
<pdfrwt beam="1">  1        2 0.72729920E-01 0.48841888E+03</pdfrwt>
<pdfrwt beam="2">  1       -2 0.16734614E-01 0.48841888E+03</pdfrwt>
<totfact> 0.19027632E+03</totfact>
</mgrwt>
</event>
<event>
 4    1  0.4895160E-005  0.6971606E+03  0.7818608E-02  0.9722100E-01
         -2   -1    0    0    0  501 -0.00000000000E+00  0.00000000000E+00  0.64399160658E+03  0.64399160659E+03  0.25500000000E-02 0. -1.
          2   -1    0    0  501    0  0.00000000000E+00 -0.00000000000E+00 -0.18867982235E+03  0.18867982237E+03  0.25500000000E-02 0.  1.
    5000001    1    1    2    0    0  0.53064445376E+02 -0.26418382645E+03  0.44386848898E+03  0.53456259224E+03  0.12700000000E+03 0.  0.
   -5000001    1    1    2    0    0 -0.53064445376E+02  0.26418382645E+03  0.11443295251E+02  0.29810883671E+03  0.12700000000E+03 0.  0.
<mgrwt>
<rscale>  0 0.69716059E+03</rscale>
<asrwt>0</asrwt>
<pdfrwt beam="1">  1        2 0.26954260E-01 0.69716059E+03</pdfrwt>
<pdfrwt beam="2">  1       -2 0.91998802E-01 0.69716059E+03</pdfrwt>
<totfact> 0.20390056E+02</totfact>
</mgrwt>
</event>
<event>
 4    1  0.4895160E-005  0.3227052E+03  0.7818608E-02  0.1074411E+00
         -2   -1    0    0    0  501 -0.00000000000E+00  0.00000000000E+00  0.19422150331E+02  0.19422150499E+02  0.25500000000E-02 0. -1.
          2   -1    0    0  501    0  0.00000000000E+00 -0.00000000000E+00 -0.13404626420E+04  0.13404626420E+04  0.25500000000E-02 0.  1.
    5000001    1    1    2    0    0  0.31829694412E+02  0.84548023249E+02 -0.83651123666E+03  0.85090630902E+03  0.12700000000E+03 0.  0.
   -5000001    1    1    2    0    0 -0.31829694412E+02 -0.84548023249E+02 -0.48452925502E+03  0.50897848349E+03  0.12700000000E+03 0.  0.
<mgrwt>
<rscale>  0 0.32270523E+03</rscale>
<asrwt>0</asrwt>
<pdfrwt beam="1">  1        2 0.19149460E+00 0.32270523E+03</pdfrwt>
<pdfrwt beam="2">  1       -2 0.27745938E-02 0.32270523E+03</pdfrwt>
<totfact> 0.90017311E+03</totfact>
</mgrwt>
</event>
<event>
 4    1  0.4895160E-005  0.5619588E+03  0.7818608E-02  0.9987632E-01
         -2   -1    0    0    0  501 -0.00000000000E+00  0.00000000000E+00  0.22524291310E+02  0.22524291455E+02  0.25500000000E-02 0. -1.
          2   -1    0    0  501    0  0.00000000000E+00 -0.00000000000E+00 -0.35050787703E+04  0.35050787703E+04  0.25500000000E-02 0.  1.
    5000001    1    1    2    0    0  0.10136754800E+03  0.22705195701E+03 -0.19390326556E+04  0.19590315491E+04  0.12700000000E+03 0.  0.
   -5000001    1    1    2    0    0 -0.10136754800E+03 -0.22705195701E+03 -0.15435218234E+04  0.15685715127E+04  0.12700000000E+03 0.  0.
<mgrwt>
<rscale>  0 0.56195877E+03</rscale>
<asrwt>0</asrwt>
<pdfrwt beam="1">  1        2 0.50072519E+00 0.56195877E+03</pdfrwt>
<pdfrwt beam="2">  1       -2 0.32177581E-02 0.56195877E+03</pdfrwt>
<totfact> 0.52907654E+02</totfact>
</mgrwt>
</event>
<event>
 4    1  0.4895160E-005  0.4610399E+03  0.7818608E-02  0.1024480E+00
         -2   -1    0    0    0  501 -0.00000000000E+00  0.00000000000E+00  0.10278366054E+03  0.10278366058E+03  0.25500000000E-02 0. -1.
          2   -1    0    0  501    0  0.00000000000E+00 -0.00000000000E+00 -0.51700291938E+03  0.51700291939E+03  0.25500000000E-02 0.  1.
    5000001    1    1    2    0    0 -0.16056519960E+03  0.60745022948E+02 -0.90383125900E+02  0.23188197554E+03  0.12700000000E+03 0.  0.
   -5000001    1    1    2    0    0  0.16056519960E+03 -0.60745022948E+02 -0.32383613294E+03  0.38790460442E+03  0.12700000000E+03 0.  0.
<mgrwt>
<rscale>  0 0.46103992E+03</rscale>
<asrwt>0</asrwt>
<pdfrwt beam="1">  1        2 0.73857559E-01 0.46103992E+03</pdfrwt>
<pdfrwt beam="2">  1       -2 0.14683380E-01 0.46103992E+03</pdfrwt>
<totfact> 0.23290320E+03</totfact>
</mgrwt>
</event>
<event>
 4    1  0.4895160E-005  0.3868553E+03  0.7818608E-02  0.1048429E+00
         -2   -1    0    0    0  501 -0.00000000000E+00  0.00000000000E+00  0.38792314011E+02  0.38792314095E+02  0.25500000000E-02 0. -1.
          2   -1    0    0  501    0  0.00000000000E+00 -0.00000000000E+00 -0.96447620617E+03  0.96447620618E+03  0.25500000000E-02 0.  1.
    5000001    1    1    2    0    0  0.13616458817E+03 -0.51818568989E+02 -0.44287032864E+03  0.48320708517E+03  0.12700000000E+03 0.  0.
   -5000001    1    1    2    0    0 -0.13616458817E+03  0.51818568989E+02 -0.48281356352E+03  0.52006143510E+03  0.12700000000E+03 0.  0.
<mgrwt>
<rscale>  0 0.38685534E+03</rscale>
<asrwt>0</asrwt>
<pdfrwt beam="1">  1        2 0.13778230E+00 0.38685534E+03</pdfrwt>
<pdfrwt beam="2">  1       -2 0.55417597E-02 0.38685534E+03</pdfrwt>
<totfact> 0.51468601E+03</totfact>
</mgrwt>
</event>
<event>
 4    1  0.4895160E-005  0.3049651E+03  0.7818608E-02  0.1082785E+00
         -2   -1    0    0    0  501 -0.00000000000E+00  0.00000000000E+00  0.76459387313E+02  0.76459387356E+02  0.25500000000E-02 0. -1.
          2   -1    0    0  501    0  0.00000000000E+00 -0.00000000000E+00 -0.30409503985E+03  0.30409503986E+03  0.25500000000E-02 0.  1.
    5000001    1    1    2    0    0  0.56251939872E+02 -0.61761670878E+02 -0.98888482758E+02  0.18134695131E+03  0.12700000000E+03 0.  0.
   -5000001    1    1    2    0    0 -0.56251939872E+02  0.61761670878E+02 -0.12874716978E+03  0.19920747590E+03  0.12700000000E+03 0.  0.
<mgrwt>
<rscale>  0 0.30496505E+03</rscale>
<asrwt>0</asrwt>
<pdfrwt beam="1">  1        2 0.43442148E-01 0.30496505E+03</pdfrwt>
<pdfrwt beam="2">  1       -2 0.10922770E-01 0.30496505E+03</pdfrwt>
<totfact> 0.67093900E+03</totfact>
</mgrwt>
</event>
<event>
 4    1  0.4895160E-005  0.7205179E+03  0.7818608E-02  0.9682773E-01
          2   -1    0    0  501    0  0.00000000000E+00  0.00000000000E+00  0.69785539367E+03  0.69785539368E+03  0.25500000000E-02 0.  1.
         -2   -1    0    0    0  501 -0.00000000000E+00 -0.00000000000E+00 -0.18597908144E+03  0.18597908146E+03  0.25500000000E-02 0. -1.
    5000001    1    1    2    0    0 -0.59798833098E+02  0.31011373588E+03  0.40061749874E+03  0.52570886422E+03  0.12700000000E+03 0.  0.
   -5000001    1    1    2    0    0  0.59798833098E+02 -0.31011373588E+03  0.11125881349E+03  0.35812561092E+03  0.12700000000E+03 0.  0.
<mgrwt>
<rscale>  0 0.72051788E+03</rscale>
<asrwt>0</asrwt>
<pdfrwt beam="1">  1        2 0.99693628E-01 0.72051788E+03</pdfrwt>
<pdfrwt beam="2">  1       -2 0.26568440E-01 0.72051788E+03</pdfrwt>
<totfact> 0.58180113E+02</totfact>
</mgrwt>
</event>
<event>
 4    1  0.4895160E-005  0.6022586E+03  0.7818608E-02  0.9900731E-01
         -2   -1    0    0    0  501 -0.00000000000E+00  0.00000000000E+00  0.22710091611E+03  0.22710091612E+03  0.25500000000E-02 0.  1.
          2   -1    0    0  501    0  0.00000000000E+00 -0.00000000000E+00 -0.39928879016E+03  0.39928879017E+03  0.25500000000E-02 0. -1.
    5000001    1    1    2    0    0 -0.29677678712E+02 -0.26773519680E+03 -0.13245517933E+03  0.32593906601E+03  0.12700000000E+03 0.  0.
   -5000001    1    1    2    0    0  0.29677678712E+02  0.26773519680E+03 -0.39732694720E+02  0.30045064029E+03  0.12700000000E+03 0.  0.
<mgrwt>
<rscale>  0 0.60225858E+03</rscale>
<asrwt>0</asrwt>
<pdfrwt beam="1">  1        2 0.57041256E-01 0.60225858E+03</pdfrwt>
<pdfrwt beam="2">  1       -2 0.32442988E-01 0.60225858E+03</pdfrwt>
<totfact> 0.77008086E+02</totfact>
</mgrwt>
</event>
<event>
 4    1  0.4895160E-005  0.7320665E+03  0.7818608E-02  0.9663913E-01
         -2   -1    0    0    0  501 -0.00000000000E+00  0.00000000000E+00  0.29211231724E+03  0.29211231725E+03  0.25500000000E-02 0. -1.
          2   -1    0    0  501    0  0.00000000000E+00 -0.00000000000E+00 -0.45866040758E+03  0.45866040759E+03  0.25500000000E-02 0.  1.
    5000001    1    1    2    0    0  0.26559962415E+03 -0.19104654462E+03  0.23350934989E+02  0.35173314988E+03  0.12700000000E+03 0.  0.
   -5000001    1    1    2    0    0 -0.26559962415E+03  0.19104654462E+03 -0.18989902534E+03  0.39903957496E+03  0.12700000000E+03 0.  0.
<mgrwt>
<rscale>  0 0.73206654E+03</rscale>
<asrwt>0</asrwt>
<pdfrwt beam="1">  1        2 0.65522915E-01 0.73206654E+03</pdfrwt>
<pdfrwt beam="2">  1       -2 0.41730331E-01 0.73206654E+03</pdfrwt>
<totfact> 0.40586374E+02</totfact>
</mgrwt>
</event>
<event>
 4    1  0.4895160E-005  0.4837229E+03  0.7818608E-02  0.1018117E+00
          2   -1    0    0  501    0  0.00000000000E+00  0.00000000000E+00  0.79995550845E+03  0.79995550846E+03  0.25500000000E-02 0.  1.
         -2   -1    0    0    0  501 -0.00000000000E+00 -0.00000000000E+00 -0.73125273736E+02  0.73125273780E+02  0.25500000000E-02 0. -1.
    5000001    1    1    2    0    0 -0.16598375942E+03  0.11597160277E+03  0.29665885618E+03  0.38096653132E+03  0.12700000000E+03 0.  0.
   -5000001    1    1    2    0    0  0.16598375942E+03 -0.11597160277E+03  0.43017137854E+03  0.49211425092E+03  0.12700000000E+03 0.  0.
<mgrwt>
<rscale>  0 0.48372292E+03</rscale>
<asrwt>0</asrwt>
<pdfrwt beam="1">  1        2 0.11427936E+00 0.48372292E+03</pdfrwt>
<pdfrwt beam="2">  1       -2 0.10446468E-01 0.48372292E+03</pdfrwt>
<totfact> 0.24237388E+03</totfact>
</mgrwt>
</event>
<event>
 4    1  0.4895160E-005  0.4437743E+03  0.7818608E-02  0.1029595E+00
          2   -1    0    0  501    0  0.00000000000E+00  0.00000000000E+00  0.11253428775E+04  0.11253428775E+04  0.25500000000E-02 0.  1.
         -2   -1    0    0    0  501 -0.00000000000E+00 -0.00000000000E+00 -0.43750141605E+02  0.43750141680E+02  0.25500000000E-02 0. -1.
    5000001    1    1    2    0    0  0.29364730139E+02  0.17954297357E+03  0.54773826117E+03  0.59096883969E+03  0.12700000000E+03 0.  0.
   -5000001    1    1    2    0    0 -0.29364730139E+02 -0.17954297357E+03  0.53385447474E+03  0.57812417951E+03  0.12700000000E+03 0.  0.
<mgrwt>
<rscale>  0 0.44377431E+03</rscale>
<asrwt>0</asrwt>
<pdfrwt beam="1">  1        2 0.16076328E+00 0.44377431E+03</pdfrwt>
<pdfrwt beam="2">  1       -2 0.62500198E-02 0.44377431E+03</pdfrwt>
<totfact> 0.34397401E+03</totfact>
</mgrwt>
</event>
<event>
 4    1  0.4895160E-005  0.3265479E+03  0.7818608E-02  0.1072675E+00
          2   -1    0    0  501    0  0.00000000000E+00  0.00000000000E+00  0.18174152607E+02  0.18174152785E+02  0.25500000000E-02 0.  1.
         -2   -1    0    0    0  501 -0.00000000000E+00 -0.00000000000E+00 -0.14668294663E+04  0.14668294663E+04  0.25500000000E-02 0. -1.
    5000001    1    1    2    0    0 -0.10203250745E+03 -0.17961655479E+01 -0.67544930342E+03  0.69481984736E+03  0.12700000000E+03 0.  0.
   -5000001    1    1    2    0    0  0.10203250745E+03  0.17961655479E+01 -0.77320601025E+03  0.79018377171E+03  0.12700000000E+03 0.  0.
<mgrwt>
<rscale>  0 0.32654790E+03</rscale>
<asrwt>0</asrwt>
<pdfrwt beam="1">  1        2 0.25963084E-02 0.32654790E+03</pdfrwt>
<pdfrwt beam="2">  1       -2 0.20954699E+00 0.32654790E+03</pdfrwt>
<totfact> 0.48120069E+02</totfact>
</mgrwt>
</event>
<event>
 4    1  0.4895160E-005  0.5423696E+03  0.7818608E-02  0.1003276E+00
         -2   -1    0    0    0  501 -0.00000000000E+00  0.00000000000E+00  0.22425498095E+03  0.22425498096E+03  0.25500000000E-02 0. -1.
          2   -1    0    0  501    0  0.00000000000E+00 -0.00000000000E+00 -0.32793564358E+03  0.32793564359E+03  0.25500000000E-02 0.  1.
    5000001    1    1    2    0    0 -0.17383770001E+03 -0.71562365285E+02 -0.20309522482E+03  0.30449530114E+03  0.12700000000E+03 0.  0.
   -5000001    1    1    2    0    0  0.17383770001E+03  0.71562365285E+02  0.99414562181E+02  0.24769532342E+03  0.12700000000E+03 0.  0.
<mgrwt>
<rscale>  0 0.54236962E+03</rscale>
<asrwt>0</asrwt>
<pdfrwt beam="1">  1        2 0.46847949E-01 0.54236962E+03</pdfrwt>
<pdfrwt beam="2">  1       -2 0.32036426E-01 0.54236962E+03</pdfrwt>
<totfact> 0.98063142E+02</totfact>
</mgrwt>
</event>
<event>
 4    1  0.4895160E-005  0.3178953E+03  0.7818608E-02  0.1076622E+00
          2   -1    0    0  501    0  0.00000000000E+00  0.00000000000E+00  0.39895269136E+03  0.39895269137E+03  0.25500000000E-02 0.  1.
         -2   -1    0    0    0  501 -0.00000000000E+00 -0.00000000000E+00 -0.63326677137E+02  0.63326677189E+02  0.25500000000E-02 0. -1.
    5000001    1    1    2    0    0 -0.75474038733E+02 -0.37343683467E+01  0.82707956334E+02  0.16935135686E+03  0.12700000000E+03 0.  0.
   -5000001    1    1    2    0    0  0.75474038733E+02  0.37343683467E+01  0.25291805789E+03  0.29292801169E+03  0.12700000000E+03 0.  0.
<mgrwt>
<rscale>  0 0.31789526E+03</rscale>
<asrwt>0</asrwt>
<pdfrwt beam="1">  1        2 0.56993243E-01 0.31789526E+03</pdfrwt>
<pdfrwt beam="2">  1       -2 0.90466680E-02 0.31789526E+03</pdfrwt>
<totfact> 0.67629149E+03</totfact>
</mgrwt>
</event>
<event>
 4    1  0.4895160E-005  0.5259248E+03  0.7818608E-02  0.1007225E+00
          2   -1    0    0  501    0  0.00000000000E+00  0.00000000000E+00  0.63538447536E+03  0.63538447536E+03  0.25500000000E-02 0.  1.
         -2   -1    0    0    0  501 -0.00000000000E+00 -0.00000000000E+00 -0.10883051616E+03  0.10883051619E+03  0.25500000000E-02 0. -1.
    5000001    1    1    2    0    0  0.95432824088E+02  0.20260522072E+03  0.33900477176E+03  0.42568713235E+03  0.12700000000E+03 0.  0.
   -5000001    1    1    2    0    0 -0.95432824088E+02 -0.20260522072E+03  0.18754918744E+03  0.31852785920E+03  0.12700000000E+03 0.  0.
<mgrwt>
<rscale>  0 0.52592479E+03</rscale>
<asrwt>0</asrwt>
<pdfrwt beam="1">  1        2 0.90769207E-01 0.52592479E+03</pdfrwt>
<pdfrwt beam="2">  1       -2 0.15547217E-01 0.52592479E+03</pdfrwt>
<totfact> 0.16675007E+03</totfact>
</mgrwt>
</event>
<event>
 4    1  0.4895160E-005  0.2719603E+03  0.7818608E-02  0.1100163E+00
         -2   -1    0    0    0  501 -0.00000000000E+00  0.00000000000E+00  0.41169174837E+02  0.41169174916E+02  0.25500000000E-02 0. -1.
          2   -1    0    0  501    0  0.00000000000E+00 -0.00000000000E+00 -0.44913693757E+03  0.44913693757E+03  0.25500000000E-02 0.  1.
    5000001    1    1    2    0    0  0.39447470930E+02 -0.19488468437E+02 -0.24118110177E+03  0.27610365303E+03  0.12700000000E+03 0.  0.
   -5000001    1    1    2    0    0 -0.39447470930E+02  0.19488468437E+02 -0.16678666096E+03  0.21420245946E+03  0.12700000000E+03 0.  0.
<mgrwt>
<rscale>  0 0.27196027E+03</rscale>
<asrwt>0</asrwt>
<pdfrwt beam="1">  1        2 0.64162417E-01 0.27196027E+03</pdfrwt>
<pdfrwt beam="2">  1       -2 0.58813109E-02 0.27196027E+03</pdfrwt>
<totfact> 0.11549424E+04</totfact>
</mgrwt>
</event>
<event>
 4    1  0.4895160E-005  0.2980211E+03  0.7818608E-02  0.1086234E+00
         -2   -1    0    0    0  501 -0.00000000000E+00  0.00000000000E+00  0.12231471619E+03  0.12231471621E+03  0.25500000000E-02 0. -1.
          2   -1    0    0  501    0  0.00000000000E+00 -0.00000000000E+00 -0.18153286297E+03  0.18153286299E+03  0.25500000000E-02 0.  1.
    5000001    1    1    2    0    0  0.48281665989E+02 -0.60648197638E+02 -0.21337666225E+02  0.15031173989E+03  0.12700000000E+03 0.  0.
   -5000001    1    1    2    0    0 -0.48281665989E+02  0.60648197638E+02 -0.37880480564E+02  0.15353583932E+03  0.12700000000E+03 0.  0.
<mgrwt>
<rscale>  0 0.29802108E+03</rscale>
<asrwt>0</asrwt>
<pdfrwt beam="1">  1        2 0.25933266E-01 0.29802108E+03</pdfrwt>
<pdfrwt beam="2">  1       -2 0.17473531E-01 0.29802108E+03</pdfrwt>
<totfact> 0.54481431E+03</totfact>
</mgrwt>
</event>
<event>
 4    1  0.4895160E-005  0.3273168E+03  0.7818608E-02  0.1072330E+00
          2   -1    0    0  501    0  0.00000000000E+00  0.00000000000E+00  0.72626210146E+03  0.72626210147E+03  0.25500000000E-02 0.  1.
         -2   -1    0    0    0  501 -0.00000000000E+00 -0.00000000000E+00 -0.36879336283E+02  0.36879336371E+02  0.25500000000E-02 0. -1.
    5000001    1    1    2    0    0  0.30722938671E+02  0.84723813871E+02  0.46203457122E+03  0.48757252650E+03  0.12700000000E+03 0.  0.
   -5000001    1    1    2    0    0 -0.30722938671E+02 -0.84723813871E+02  0.22734819396E+03  0.27556891133E+03  0.12700000000E+03 0.  0.
<mgrwt>
<rscale>  0 0.32731675E+03</rscale>
<asrwt>0</asrwt>
<pdfrwt beam="1">  1        2 0.10375173E+00 0.32731675E+03</pdfrwt>
<pdfrwt beam="2">  1       -2 0.52684767E-02 0.32731675E+03</pdfrwt>
<totfact> 0.79589866E+03</totfact>
</mgrwt>
</event>
<event>
 4    1  0.4895160E-005  0.5705518E+03  0.7818608E-02  0.9968458E-01
         -2   -1    0    0    0  501 -0.00000000000E+00  0.00000000000E+00  0.56704455007E+02  0.56704455064E+02  0.25500000000E-02 0. -1.
          2   -1    0    0  501    0  0.00000000000E+00 -0.00000000000E+00 -0.14352016283E+04  0.14352016283E+04  0.25500000000E-02 0.  1.
    5000001    1    1    2    0    0 -0.22565371956E+03  0.10533423421E+03 -0.83805214087E+03  0.88344512726E+03  0.12700000000E+03 0.  0.
   -5000001    1    1    2    0    0  0.22565371956E+03 -0.10533423421E+03 -0.54044503245E+03  0.60846095614E+03  0.12700000000E+03 0.  0.
<mgrwt>
<rscale>  0 0.57055175E+03</rscale>
<asrwt>0</asrwt>
<pdfrwt beam="1">  1        2 0.20502878E+00 0.57055175E+03</pdfrwt>
<pdfrwt beam="2">  1       -2 0.81006373E-02 0.57055175E+03</pdfrwt>
<totfact> 0.15472892E+03</totfact>
</mgrwt>
</event>
<event>
 4    1  0.4895160E-005  0.4862891E+03  0.7818608E-02  0.1017421E+00
          2   -1    0    0  501    0  0.00000000000E+00  0.00000000000E+00  0.16510070326E+04  0.16510070326E+04  0.25500000000E-02 0.  1.
         -2   -1    0    0    0  501 -0.00000000000E+00 -0.00000000000E+00 -0.35808002860E+02  0.35808002950E+02  0.25500000000E-02 0. -1.
    5000001    1    1    2    0    0  0.15761098403E+03 -0.54198578377E+02  0.37978079614E+03  0.43375241936E+03  0.12700000000E+03 0.  0.
   -5000001    1    1    2    0    0 -0.15761098403E+03  0.54198578377E+02  0.12354182336E+04  0.12530626162E+04  0.12700000000E+03 0.  0.
<mgrwt>
<rscale>  0 0.48628907E+03</rscale>
<asrwt>0</asrwt>
<pdfrwt beam="1">  1        2 0.23585815E+00 0.48628907E+03</pdfrwt>
<pdfrwt beam="2">  1       -2 0.51154290E-02 0.48628907E+03</pdfrwt>
<totfact> 0.24679527E+03</totfact>
</mgrwt>
</event>
<event>
 4    1  0.4895160E-005  0.3948606E+03  0.7818608E-02  0.1045574E+00
          2   -1    0    0  501    0  0.00000000000E+00  0.00000000000E+00  0.23028509044E+04  0.23028509044E+04  0.25500000000E-02 0.  1.
         -2   -1    0    0    0  501 -0.00000000000E+00 -0.00000000000E+00 -0.16926290303E+02  0.16926290495E+02  0.25500000000E-02 0. -1.
    5000001    1    1    2    0    0 -0.10320955215E+03  0.11040611304E+03  0.11595808799E+04  0.11762646549E+04  0.12700000000E+03 0.  0.
   -5000001    1    1    2    0    0  0.10320955215E+03 -0.11040611304E+03  0.11263437342E+04  0.11435125399E+04  0.12700000000E+03 0.  0.
<mgrwt>
<rscale>  0 0.39486060E+03</rscale>
<asrwt>0</asrwt>
<pdfrwt beam="1">  1        2 0.32897838E+00 0.39486060E+03</pdfrwt>
<pdfrwt beam="2">  1       -2 0.24180438E-02 0.39486060E+03</pdfrwt>
<totfact> 0.36511007E+03</totfact>
</mgrwt>
</event>
<event>
 4    1  0.4895160E-005  0.4015909E+03  0.7818608E-02  0.1043230E+00
         -2   -1    0    0    0  501 -0.00000000000E+00  0.00000000000E+00  0.39648472998E+02  0.39648473080E+02  0.25500000000E-02 0. -1.
          2   -1    0    0  501    0  0.00000000000E+00 -0.00000000000E+00 -0.10169068490E+04  0.10169068490E+04  0.25500000000E-02 0.  1.
    5000001    1    1    2    0    0 -0.42048546443E+02  0.13776299692E+03 -0.64300597474E+03  0.67106810916E+03  0.12700000000E+03 0.  0.
   -5000001    1    1    2    0    0  0.42048546443E+02 -0.13776299692E+03 -0.33425240125E+03  0.38548721291E+03  0.12700000000E+03 0.  0.
<mgrwt>
<rscale>  0 0.40159086E+03</rscale>
<asrwt>0</asrwt>
<pdfrwt beam="1">  1        2 0.14527239E+00 0.40159086E+03</pdfrwt>
<pdfrwt beam="2">  1       -2 0.56640682E-02 0.40159086E+03</pdfrwt>
<totfact> 0.46296809E+03</totfact>
</mgrwt>
</event>
<event>
 4    1  0.4895160E-005  0.3514911E+03  0.7818608E-02  0.1062005E+00
         -2   -1    0    0    0  501 -0.00000000000E+00  0.00000000000E+00  0.27317648415E+03  0.27317648416E+03  0.25500000000E-02 0. -1.
          2   -1    0    0  501    0  0.00000000000E+00 -0.00000000000E+00 -0.11306426836E+03  0.11306426839E+03  0.25500000000E-02 0.  1.
    5000001    1    1    2    0    0 -0.84082558708E+02  0.17755088475E+02  0.17440734428E+03  0.23223273151E+03  0.12700000000E+03 0.  0.
   -5000001    1    1    2    0    0  0.84082558708E+02 -0.17755088475E+02 -0.14295128499E+02  0.15400802104E+03  0.12700000000E+03 0.  0.
<mgrwt>
<rscale>  0 0.35149111E+03</rscale>
<asrwt>0</asrwt>
<pdfrwt beam="1">  1        2 0.16152039E-01 0.35149111E+03</pdfrwt>
<pdfrwt beam="2">  1       -2 0.39025212E-01 0.35149111E+03</pdfrwt>
<totfact> 0.22405990E+03</totfact>
</mgrwt>
</event>
<event>
 4    1  0.4895160E-005  0.3946537E+03  0.7818608E-02  0.1045647E+00
         -2   -1    0    0    0  501 -0.00000000000E+00  0.00000000000E+00  0.42245625558E+02  0.42245625635E+02  0.25500000000E-02 0. -1.
          2   -1    0    0  501    0  0.00000000000E+00 -0.00000000000E+00 -0.92170202176E+03  0.92170202177E+03  0.25500000000E-02 0.  1.
    5000001    1    1    2    0    0 -0.11109653375E+03  0.72725780325E+02 -0.26397908113E+03  0.32162934289E+03  0.12700000000E+03 0.  0.
   -5000001    1    1    2    0    0  0.11109653375E+03 -0.72725780325E+02 -0.61547731508E+03  0.64231830451E+03  0.12700000000E+03 0.  0.
<mgrwt>
<rscale>  0 0.39465366E+03</rscale>
<asrwt>0</asrwt>
<pdfrwt beam="1">  1        2 0.13167170E+00 0.39465366E+03</pdfrwt>
<pdfrwt beam="2">  1       -2 0.60350900E-02 0.39465366E+03</pdfrwt>
<totfact> 0.47958686E+03</totfact>
</mgrwt>
</event>
<event>
 4    1  0.4895160E-005  0.3251242E+03  0.7818608E-02  0.1073315E+00
         -2   -1    0    0    0  501 -0.00000000000E+00  0.00000000000E+00  0.21003339411E+02  0.21003339566E+02  0.25500000000E-02 0. -1.
          2   -1    0    0  501    0  0.00000000000E+00 -0.00000000000E+00 -0.12582017983E+04  0.12582017983E+04  0.25500000000E-02 0.  1.
    5000001    1    1    2    0    0  0.25793157815E+02 -0.21826906192E+02 -0.24212299397E+03  0.27548910148E+03  0.12700000000E+03 0.  0.
   -5000001    1    1    2    0    0 -0.25793157815E+02  0.21826906192E+02 -0.99507546495E+03  0.10037160364E+04  0.12700000000E+03 0.  0.
<mgrwt>
<rscale>  0 0.32512422E+03</rscale>
<asrwt>0</asrwt>
<pdfrwt beam="1">  1        2 0.17974307E+00 0.32512422E+03</pdfrwt>
<pdfrwt beam="2">  1       -2 0.30004779E-02 0.32512422E+03</pdfrwt>
<totfact> 0.88569081E+03</totfact>
</mgrwt>
</event>
<event>
 4    1  0.4895160E-005  0.3285532E+03  0.7818608E-02  0.1071779E+00
         -2   -1    0    0    0  501 -0.00000000000E+00  0.00000000000E+00  0.28981733949E+02  0.28981734062E+02  0.25500000000E-02 0. -1.
          2   -1    0    0  501    0  0.00000000000E+00 -0.00000000000E+00 -0.93116600347E+03  0.93116600348E+03  0.25500000000E-02 0.  1.
    5000001    1    1    2    0    0 -0.69650767242E+02  0.77457136561E+02 -0.45880628221E+03  0.48732231836E+03  0.12700000000E+03 0.  0.
   -5000001    1    1    2    0    0  0.69650767242E+02 -0.77457136561E+02 -0.44337798732E+03  0.47282541918E+03  0.12700000000E+03 0.  0.
<mgrwt>
<rscale>  0 0.32855323E+03</rscale>
<asrwt>0</asrwt>
<pdfrwt beam="1">  1        2 0.13302370E+00 0.32855323E+03</pdfrwt>
<pdfrwt beam="2">  1       -2 0.41402483E-02 0.32855323E+03</pdfrwt>
<totfact> 0.83942302E+03</totfact>
</mgrwt>
</event>
<event>
 4    1  0.4895160E-005  0.6313529E+03  0.7818608E-02  0.9842412E-01
         -2   -1    0    0    0  501 -0.00000000000E+00  0.00000000000E+00  0.35612355032E+03  0.35612355033E+03  0.25500000000E-02 0. -1.
          2   -1    0    0  501    0  0.00000000000E+00 -0.00000000000E+00 -0.27982316149E+03  0.27982316150E+03  0.25500000000E-02 0.  1.
    5000001    1    1    2    0    0 -0.25729204722E+03  0.12471473544E+03  0.80523549280E+02  0.32305727787E+03  0.12700000000E+03 0.  0.
   -5000001    1    1    2    0    0  0.25729204722E+03 -0.12471473544E+03 -0.42231604414E+01  0.31288943396E+03  0.12700000000E+03 0.  0.
<mgrwt>
<rscale>  0 0.63135289E+03</rscale>
<asrwt>0</asrwt>
<pdfrwt beam="1">  1        2 0.39974737E-01 0.63135289E+03</pdfrwt>
<pdfrwt beam="2">  1       -2 0.50874793E-01 0.63135289E+03</pdfrwt>
<totfact> 0.47456100E+02</totfact>
</mgrwt>
</event>
<event>
 4    1  0.4895160E-005  0.3213967E+03  0.7818608E-02  0.1075008E+00
          2   -1    0    0  501    0  0.00000000000E+00  0.00000000000E+00  0.20402965206E+03  0.20402965208E+03  0.25500000000E-02 0.  1.
         -2   -1    0    0    0  501 -0.00000000000E+00 -0.00000000000E+00 -0.12656965006E+03  0.12656965009E+03  0.25500000000E-02 0. -1.
    5000001    1    1    2    0    0 -0.76822768125E+02  0.46968615927E+02 -0.22500644691E+01  0.15569794917E+03  0.12700000000E+03 0.  0.
   -5000001    1    1    2    0    0  0.76822768125E+02 -0.46968615927E+02  0.79710066472E+02  0.17490135300E+03  0.12700000000E+03 0.  0.
<mgrwt>
<rscale>  0 0.32139671E+03</rscale>
<asrwt>0</asrwt>
<pdfrwt beam="1">  1        2 0.29147093E-01 0.32139671E+03</pdfrwt>
<pdfrwt beam="2">  1       -2 0.18081378E-01 0.32139671E+03</pdfrwt>
<totfact> 0.45272481E+03</totfact>
</mgrwt>
</event>
<event>
 4    1  0.4895160E-005  0.3275119E+03  0.7818608E-02  0.1072243E+00
         -2   -1    0    0    0  501 -0.00000000000E+00  0.00000000000E+00  0.63403036654E+02  0.63403036705E+02  0.25500000000E-02 0. -1.
          2   -1    0    0  501    0  0.00000000000E+00 -0.00000000000E+00 -0.42294533027E+03  0.42294533028E+03  0.25500000000E-02 0.  1.
    5000001    1    1    2    0    0 -0.71875705547E+02 -0.66670389559E+02 -0.13106110934E+03  0.20716436053E+03  0.12700000000E+03 0.  0.
   -5000001    1    1    2    0    0  0.71875705547E+02  0.66670389559E+02 -0.22848118429E+03  0.27918400646E+03  0.12700000000E+03 0.  0.
<mgrwt>
<rscale>  0 0.32751194E+03</rscale>
<asrwt>0</asrwt>
<pdfrwt beam="1">  1        2 0.60420760E-01 0.32751194E+03</pdfrwt>
<pdfrwt beam="2">  1       -2 0.90575769E-02 0.32751194E+03</pdfrwt>
<totfact> 0.63399310E+03</totfact>
</mgrwt>
</event>
<event>
 4    1  0.4895160E-005  0.4190983E+03  0.7818608E-02  0.1037360E+00
         -2   -1    0    0    0  501 -0.00000000000E+00  0.00000000000E+00  0.67660570637E+03  0.67660570637E+03  0.25500000000E-02 0.  1.
          2   -1    0    0  501    0  0.00000000000E+00 -0.00000000000E+00 -0.64898728746E+02  0.64898728796E+02  0.25500000000E-02 0. -1.
    5000001    1    1    2    0    0  0.11439886437E+03  0.44856552409E+02  0.50510547660E+03  0.53512592252E+03  0.12700000000E+03 0.  0.
   -5000001    1    1    2    0    0 -0.11439886437E+03 -0.44856552409E+02  0.10660150102E+03  0.20637851265E+03  0.12700000000E+03 0.  0.
<mgrwt>
<rscale>  0 0.41909832E+03</rscale>
<asrwt>0</asrwt>
<pdfrwt beam="1">  1        2 0.92712463E-02 0.41909832E+03</pdfrwt>
<pdfrwt beam="2">  1       -2 0.96657965E-01 0.41909832E+03</pdfrwt>
<totfact> 0.65887524E+02</totfact>
</mgrwt>
</event>
<event>
 4    1  0.4895160E-005  0.5148092E+03  0.7818608E-02  0.1009984E+00
          2   -1    0    0  501    0  0.00000000000E+00  0.00000000000E+00  0.27394054710E+03  0.27394054712E+03  0.25500000000E-02 0.  1.
         -2   -1    0    0    0  501 -0.00000000000E+00 -0.00000000000E+00 -0.24186681884E+03  0.24186681885E+03  0.25500000000E-02 0. -1.
    5000001    1    1    2    0    0 -0.10958909038E+03  0.92638509320E+02  0.18823185276E+03  0.26861104321E+03  0.12700000000E+03 0.  0.
   -5000001    1    1    2    0    0  0.10958909038E+03 -0.92638509320E+02 -0.15615812450E+03  0.24719632276E+03  0.12700000000E+03 0.  0.
<mgrwt>
<rscale>  0 0.51480920E+03</rscale>
<asrwt>0</asrwt>
<pdfrwt beam="1">  1        2 0.39134364E-01 0.51480920E+03</pdfrwt>
<pdfrwt beam="2">  1       -2 0.34552403E-01 0.51480920E+03</pdfrwt>
<totfact> 0.10373859E+03</totfact>
</mgrwt>
</event>
<event>
 4    1  0.4895160E-005  0.2943249E+03  0.7818608E-02  0.1088112E+00
          2   -1    0    0  501    0  0.00000000000E+00  0.00000000000E+00  0.22852175408E+04  0.22852175408E+04  0.25500000000E-02 0.  1.
         -2   -1    0    0    0  501 -0.00000000000E+00 -0.00000000000E+00 -0.94769050266E+01  0.94769053697E+01  0.25500000000E-02 0. -1.
    5000001    1    1    2    0    0  0.72845855970E+02 -0.13889907240E+02  0.11793763364E+04  0.11885104085E+04  0.12700000000E+03 0.  0.
   -5000001    1    1    2    0    0 -0.72845855970E+02  0.13889907240E+02  0.10963642993E+04  0.11061840376E+04  0.12700000000E+03 0.  0.
<mgrwt>
<rscale>  0 0.29432492E+03</rscale>
<asrwt>0</asrwt>
<pdfrwt beam="1">  1        2 0.32645965E+00 0.29432492E+03</pdfrwt>
<pdfrwt beam="2">  1       -2 0.13538436E-02 0.29432492E+03</pdfrwt>
<totfact> 0.87878937E+03</totfact>
</mgrwt>
</event>
<event>
 4    1  0.4895160E-005  0.8189914E+03  0.7818608E-02  0.9532927E-01
         -2   -1    0    0    0  501 -0.00000000000E+00  0.00000000000E+00  0.37959589393E+03  0.37959589394E+03  0.25500000000E-02 0. -1.
          2   -1    0    0  501    0  0.00000000000E+00 -0.00000000000E+00 -0.44175067674E+03  0.44175067674E+03  0.25500000000E-02 0.  1.
    5000001    1    1    2    0    0  0.26379223887E+03  0.21503344081E+03 -0.22065011701E+03  0.42501905850E+03  0.12700000000E+03 0.  0.
   -5000001    1    1    2    0    0 -0.26379223887E+03 -0.21503344081E+03  0.15849533420E+03  0.39632751219E+03  0.12700000000E+03 0.  0.
<mgrwt>
<rscale>  0 0.81899144E+03</rscale>
<asrwt>0</asrwt>
<pdfrwt beam="1">  1        2 0.63107239E-01 0.81899144E+03</pdfrwt>
<pdfrwt beam="2">  1       -2 0.54227985E-01 0.81899144E+03</pdfrwt>
<totfact> 0.24909208E+02</totfact>
</mgrwt>
</event>
<event>
 4    1  0.4895160E-005  0.2859537E+03  0.7818608E-02  0.1092481E+00
          2   -1    0    0  501    0  0.00000000000E+00  0.00000000000E+00  0.32946255157E+03  0.32946255158E+03  0.25500000000E-02 0.  1.
         -2   -1    0    0    0  501 -0.00000000000E+00 -0.00000000000E+00 -0.62047654179E+02  0.62047654232E+02  0.25500000000E-02 0. -1.
    5000001    1    1    2    0    0 -0.19342635188E+02  0.51293371682E+02  0.18322846984E+03  0.22957965867E+03  0.12700000000E+03 0.  0.
   -5000001    1    1    2    0    0  0.19342635188E+02 -0.51293371682E+02  0.84186427555E+02  0.16193054715E+03  0.12700000000E+03 0.  0.
<mgrwt>
<rscale>  0 0.28595369E+03</rscale>
<asrwt>0</asrwt>
<pdfrwt beam="1">  1        2 0.47066080E-01 0.28595369E+03</pdfrwt>
<pdfrwt beam="2">  1       -2 0.88639504E-02 0.28595369E+03</pdfrwt>
<totfact> 0.85587457E+03</totfact>
</mgrwt>
</event>
<event>
 4    1  0.4895160E-005  0.5097924E+03  0.7818608E-02  0.1011254E+00
         -2   -1    0    0    0  501 -0.00000000000E+00  0.00000000000E+00  0.22791774631E+03  0.22791774632E+03  0.25500000000E-02 0. -1.
          2   -1    0    0  501    0  0.00000000000E+00 -0.00000000000E+00 -0.28506809611E+03  0.28506809612E+03  0.25500000000E-02 0.  1.
    5000001    1    1    2    0    0 -0.72049337040E+02 -0.15269174285E+03  0.11492671279E+03  0.24050576836E+03  0.12700000000E+03 0.  0.
   -5000001    1    1    2    0    0  0.72049337040E+02  0.15269174285E+03 -0.17207706259E+03  0.27248007408E+03  0.12700000000E+03 0.  0.
<mgrwt>
<rscale>  0 0.50979242E+03</rscale>
<asrwt>0</asrwt>
<pdfrwt beam="1">  1        2 0.40724014E-01 0.50979242E+03</pdfrwt>
<pdfrwt beam="2">  1       -2 0.32559678E-01 0.50979242E+03</pdfrwt>
<totfact> 0.11099406E+03</totfact>
</mgrwt>
</event>
<event>
 4    1  0.4895160E-005  0.4082689E+03  0.7818608E-02  0.1040953E+00
          2   -1    0    0  501    0  0.00000000000E+00  0.00000000000E+00  0.10750016564E+04  0.10750016564E+04  0.25500000000E-02 0.  1.
         -2   -1    0    0    0  501 -0.00000000000E+00 -0.00000000000E+00 -0.38763539834E+02  0.38763539918E+02  0.25500000000E-02 0. -1.
    5000001    1    1    2    0    0 -0.12699899829E+02 -0.14567805819E+03  0.34219916204E+03  0.39320815174E+03  0.12700000000E+03 0.  0.
   -5000001    1    1    2    0    0  0.12699899829E+02  0.14567805819E+03  0.69403895449E+03  0.72055704454E+03  0.12700000000E+03 0.  0.
<mgrwt>
<rscale>  0 0.40826888E+03</rscale>
<asrwt>0</asrwt>
<pdfrwt beam="1">  1        2 0.15357166E+00 0.40826888E+03</pdfrwt>
<pdfrwt beam="2">  1       -2 0.55376488E-02 0.40826888E+03</pdfrwt>
<totfact> 0.44329304E+03</totfact>
</mgrwt>
</event>
<event>
 4    1  0.4895160E-005  0.5026546E+03  0.7818608E-02  0.1013088E+00
          2   -1    0    0  501    0  0.00000000000E+00  0.00000000000E+00  0.57519371349E+03  0.57519371350E+03  0.25500000000E-02 0.  1.
         -2   -1    0    0    0  501 -0.00000000000E+00 -0.00000000000E+00 -0.10981590889E+03  0.10981590892E+03  0.25500000000E-02 0. -1.
    5000001    1    1    2    0    0 -0.10043627242E+03 -0.13096185804E+03  0.42443974572E+03  0.47277537037E+03  0.12700000000E+03 0.  0.
   -5000001    1    1    2    0    0  0.10043627242E+03  0.13096185804E+03  0.40938058888E+02  0.21223425205E+03  0.12700000000E+03 0.  0.
<mgrwt>
<rscale>  0 0.50265463E+03</rscale>
<asrwt>0</asrwt>
<pdfrwt beam="1">  1        2 0.82170529E-01 0.50265463E+03</pdfrwt>
<pdfrwt beam="2">  1       -2 0.15687987E-01 0.50265463E+03</pdfrwt>
<totfact> 0.18455329E+03</totfact>
</mgrwt>
</event>
<event>
 4    1  0.4895160E-005  0.3003834E+03  0.7818608E-02  0.1085049E+00
         -2   -1    0    0    0  501 -0.00000000000E+00  0.00000000000E+00  0.41977687869E+03  0.41977687870E+03  0.25500000000E-02 0. -1.
          2   -1    0    0  501    0  0.00000000000E+00 -0.00000000000E+00 -0.53736988609E+02  0.53736988670E+02  0.25500000000E-02 0.  1.
    5000001    1    1    2    0    0  0.62916774997E+00 -0.42868960133E+02  0.76217268601E+02  0.15419538134E+03  0.12700000000E+03 0.  0.
   -5000001    1    1    2    0    0 -0.62916774997E+00  0.42868960133E+02  0.28982262148E+03  0.31931848603E+03  0.12700000000E+03 0.  0.
<mgrwt>
<rscale>  0 0.30038339E+03</rscale>
<asrwt>0</asrwt>
<pdfrwt beam="1">  1        2 0.76767129E-02 0.30038339E+03</pdfrwt>
<pdfrwt beam="2">  1       -2 0.59968123E-01 0.30038339E+03</pdfrwt>
<totfact> 0.23759405E+03</totfact>
</mgrwt>
</event>
<event>
 4    1  0.4895160E-005  0.6100467E+03  0.7818608E-02  0.9884779E-01
         -2   -1    0    0    0  501 -0.00000000000E+00  0.00000000000E+00  0.97459585506E+02  0.97459585540E+02  0.25500000000E-02 0. -1.
          2   -1    0    0  501    0  0.00000000000E+00 -0.00000000000E+00 -0.95464430367E+03  0.95464430367E+03  0.25500000000E-02 0.  1.
    5000001    1    1    2    0    0  0.85548973530E+02 -0.19220744297E+03 -0.11697384606E+03  0.27216577424E+03  0.12700000000E+03 0.  0.
   -5000001    1    1    2    0    0 -0.85548973530E+02  0.19220744297E+03 -0.74021087210E+03  0.77993811497E+03  0.12700000000E+03 0.  0.
<mgrwt>
<rscale>  0 0.61004668E+03</rscale>
<asrwt>0</asrwt>
<pdfrwt beam="1">  1        2 0.13637775E+00 0.61004668E+03</pdfrwt>
<pdfrwt beam="2">  1       -2 0.13922798E-01 0.61004668E+03</pdfrwt>
<totfact> 0.11960774E+03</totfact>
</mgrwt>
</event>
<event>
 4    1  0.4895160E-005  0.5266885E+03  0.7818608E-02  0.1007038E+00
          2   -1    0    0  501    0  0.00000000000E+00  0.00000000000E+00  0.25728618859E+02  0.25728618986E+02  0.25500000000E-02 0.  1.
         -2   -1    0    0    0  501 -0.00000000000E+00 -0.00000000000E+00 -0.26954492524E+04  0.26954492524E+04  0.25500000000E-02 0. -1.
    5000001    1    1    2    0    0 -0.17301054183E+03 -0.14414242912E+03 -0.10759379079E+04  0.11065627271E+04  0.12700000000E+03 0.  0.
   -5000001    1    1    2    0    0  0.17301054183E+03  0.14414242912E+03 -0.15937827257E+04  0.16146151443E+04  0.12700000000E+03 0.  0.
<mgrwt>
<rscale>  0 0.52668847E+03</rscale>
<asrwt>0</asrwt>
<pdfrwt beam="1">  1        2 0.36755187E-02 0.52668847E+03</pdfrwt>
<pdfrwt beam="2">  1       -2 0.38506400E+00 0.52668847E+03</pdfrwt>
<totfact> 0.25551937E+01</totfact>
</mgrwt>
</event>
<event>
 4    1  0.4895160E-005  0.7857139E+03  0.7818608E-02  0.9580929E-01
          2   -1    0    0  501    0  0.00000000000E+00  0.00000000000E+00  0.73755011774E+03  0.73755011775E+03  0.25500000000E-02 0.  1.
         -2   -1    0    0    0  501 -0.00000000000E+00 -0.00000000000E+00 -0.20925571656E+03  0.20925571657E+03  0.25500000000E-02 0. -1.
    5000001    1    1    2    0    0 -0.42546481430E+01  0.26183118363E+03  0.58213238036E+03  0.65083083748E+03  0.12700000000E+03 0.  0.
   -5000001    1    1    2    0    0  0.42546481430E+01 -0.26183118363E+03 -0.53837979172E+02  0.29597499684E+03  0.12700000000E+03 0.  0.
<mgrwt>
<rscale>  0 0.78571389E+03</rscale>
<asrwt>0</asrwt>
<pdfrwt beam="1">  1        2 0.10536430E+00 0.78571389E+03</pdfrwt>
<pdfrwt beam="2">  1       -2 0.29893674E-01 0.78571389E+03</pdfrwt>
<totfact> 0.43650245E+02</totfact>
</mgrwt>
</event>
<event>
 4    1  0.4895160E-005  0.5762802E+03  0.7818608E-02  0.9955877E-01
         -2   -1    0    0    0  501 -0.00000000000E+00  0.00000000000E+00  0.64610954366E+02  0.64610954416E+02  0.25500000000E-02 0. -1.
          2   -1    0    0  501    0  0.00000000000E+00 -0.00000000000E+00 -0.12849945354E+04  0.12849945354E+04  0.25500000000E-02 0.  1.
    5000001    1    1    2    0    0  0.17278314277E+03 -0.40229136141E+02 -0.16941594527E+03  0.27623026687E+03  0.12700000000E+03 0.  0.
   -5000001    1    1    2    0    0 -0.17278314277E+03  0.40229136141E+02 -0.10509676358E+04  0.10733752230E+04  0.12700000000E+03 0.  0.
<mgrwt>
<rscale>  0 0.57628022E+03</rscale>
<asrwt>0</asrwt>
<pdfrwt beam="1">  1        2 0.18357063E+00 0.57628022E+03</pdfrwt>
<pdfrwt beam="2">  1       -2 0.92301371E-02 0.57628022E+03</pdfrwt>
<totfact> 0.15105100E+03</totfact>
</mgrwt>
</event>
<event>
 4    1  0.4895160E-005  0.3044776E+03  0.7818608E-02  0.1083024E+00
          2   -1    0    0  501    0  0.00000000000E+00  0.00000000000E+00  0.24363407079E+04  0.24363407079E+04  0.25500000000E-02 0.  1.
         -2   -1    0    0    0  501 -0.00000000000E+00 -0.00000000000E+00 -0.95128916946E+01  0.95128920363E+01  0.25500000000E-02 0. -1.
    5000001    1    1    2    0    0  0.82614534010E+02 -0.46209565987E+01  0.10994899849E+04  0.11098890672E+04  0.12700000000E+03 0.  0.
   -5000001    1    1    2    0    0 -0.82614534010E+02  0.46209565987E+01  0.13273378313E+04  0.13359645328E+04  0.12700000000E+03 0.  0.
<mgrwt>
<rscale>  0 0.30447756E+03</rscale>
<asrwt>0</asrwt>
<pdfrwt beam="1">  1        2 0.34804856E+00 0.30447756E+03</pdfrwt>
<pdfrwt beam="2">  1       -2 0.13589850E-02 0.30447756E+03</pdfrwt>
<totfact> 0.73565120E+03</totfact>
</mgrwt>
</event>
<event>
 4    1  0.4895160E-005  0.3050665E+03  0.7818608E-02  0.1082735E+00
         -2   -1    0    0    0  501 -0.00000000000E+00  0.00000000000E+00  0.18948458527E+02  0.18948458699E+02  0.25500000000E-02 0. -1.
          2   -1    0    0  501    0  0.00000000000E+00 -0.00000000000E+00 -0.12278782185E+04  0.12278782185E+04  0.25500000000E-02 0.  1.
    5000001    1    1    2    0    0  0.66306569786E+02  0.73679336713E+01 -0.39262431725E+03  0.41801160527E+03  0.12700000000E+03 0.  0.
   -5000001    1    1    2    0    0 -0.66306569786E+02 -0.73679336713E+01 -0.81630544270E+03  0.82881507191E+03  0.12700000000E+03 0.  0.
<mgrwt>
<rscale>  0 0.30506655E+03</rscale>
<asrwt>0</asrwt>
<pdfrwt beam="1">  1        2 0.17541112E+00 0.30506655E+03</pdfrwt>
<pdfrwt beam="2">  1       -2 0.27069234E-02 0.30506655E+03</pdfrwt>
<totfact> 0.10706312E+04</totfact>
</mgrwt>
</event>
<event>
 4    1  0.4895160E-005  0.3334638E+03  0.7818608E-02  0.1069614E+00
         -2   -1    0    0    0  501 -0.00000000000E+00  0.00000000000E+00  0.21716914686E+02  0.21716914836E+02  0.25500000000E-02 0. -1.
          2   -1    0    0  501    0  0.00000000000E+00 -0.00000000000E+00 -0.12800862263E+04  0.12800862263E+04  0.25500000000E-02 0.  1.
    5000001    1    1    2    0    0  0.25929558795E+02 -0.90025416696E+02 -0.83918322053E+03  0.85389366744E+03  0.12700000000E+03 0.  0.
   -5000001    1    1    2    0    0 -0.25929558795E+02  0.90025416696E+02 -0.41918609104E+03  0.44790947365E+03  0.12700000000E+03 0.  0.
<mgrwt>
<rscale>  0 0.33346378E+03</rscale>
<asrwt>0</asrwt>
<pdfrwt beam="1">  1        2 0.18286941E+00 0.33346378E+03</pdfrwt>
<pdfrwt beam="2">  1       -2 0.31024172E-02 0.33346378E+03</pdfrwt>
<totfact> 0.82049053E+03</totfact>
</mgrwt>
</event>
<event>
 4    1  0.4895160E-005  0.2877262E+03  0.7818608E-02  0.1091542E+00
          2   -1    0    0  501    0  0.00000000000E+00  0.00000000000E+00  0.77975279426E+02  0.77975279467E+02  0.25500000000E-02 0.  1.
         -2   -1    0    0    0  501 -0.00000000000E+00 -0.00000000000E+00 -0.26542504122E+03  0.26542504123E+03  0.25500000000E-02 0. -1.
    5000001    1    1    2    0    0 -0.67281283822E+02 -0.54667198495E+01 -0.97671655425E+02  0.17385456121E+03  0.12700000000E+03 0.  0.
   -5000001    1    1    2    0    0  0.67281283822E+02  0.54667198495E+01 -0.89778106365E+02  0.16954575949E+03  0.12700000000E+03 0.  0.
<mgrwt>
<rscale>  0 0.28772620E+03</rscale>
<asrwt>0</asrwt>
<pdfrwt beam="1">  1        2 0.11139326E-01 0.28772620E+03</pdfrwt>
<pdfrwt beam="2">  1       -2 0.37917863E-01 0.28772620E+03</pdfrwt>
<totfact> 0.36869860E+03</totfact>
</mgrwt>
</event>
<event>
 4    1  0.4895160E-005  0.4775433E+03  0.7818608E-02  0.1019813E+00
         -2   -1    0    0    0  501 -0.00000000000E+00  0.00000000000E+00  0.39735164301E+02  0.39735164383E+02  0.25500000000E-02 0. -1.
          2   -1    0    0  501    0  0.00000000000E+00 -0.00000000000E+00 -0.14347970287E+04  0.14347970287E+04  0.25500000000E-02 0.  1.
    5000001    1    1    2    0    0  0.13291459969E+03 -0.12308592394E+03 -0.42020976389E+03  0.47489123087E+03  0.12700000000E+03 0.  0.
   -5000001    1    1    2    0    0 -0.13291459969E+03  0.12308592394E+03 -0.97485210046E+03  0.99964096217E+03  0.12700000000E+03 0.  0.
<mgrwt>
<rscale>  0 0.47754328E+03</rscale>
<asrwt>0</asrwt>
<pdfrwt beam="1">  1        2 0.20497097E+00 0.47754328E+03</pdfrwt>
<pdfrwt beam="2">  1       -2 0.56764530E-02 0.47754328E+03</pdfrwt>
<totfact> 0.27135328E+03</totfact>
</mgrwt>
</event>
<event>
 4    1  0.4895160E-005  0.1121656E+04  0.7818608E-02  0.9184338E-01
         -2   -1    0    0    0  501 -0.00000000000E+00  0.00000000000E+00  0.51840416923E+03  0.51840416923E+03  0.25500000000E-02 0.  1.
          2   -1    0    0  501    0  0.00000000000E+00 -0.00000000000E+00 -0.60672345969E+03  0.60672345970E+03  0.25500000000E-02 0. -1.
    5000001    1    1    2    0    0 -0.39907928133E+03 -0.31456479354E+03 -0.24523880362E+03  0.57834795143E+03  0.12700000000E+03 0.  0.
   -5000001    1    1    2    0    0  0.39907928133E+03  0.31456479354E+03  0.15691951315E+03  0.54677967750E+03  0.12700000000E+03 0.  0.
<mgrwt>
<rscale>  0 0.11216559E+04</rscale>
<asrwt>0</asrwt>
<pdfrwt beam="1">  1        2 0.86674780E-01 0.11216559E+04</pdfrwt>
<pdfrwt beam="2">  1       -2 0.74057738E-01 0.11216559E+04</pdfrwt>
<totfact> 0.87293334E+01</totfact>
</mgrwt>
</event>
<event>
 4    1  0.4895160E-005  0.6932266E+03  0.7818608E-02  0.9728886E-01
          2   -1    0    0  501    0  0.00000000000E+00  0.00000000000E+00  0.18926577334E+04  0.18926577334E+04  0.25500000000E-02 0.  1.
         -2   -1    0    0    0  501 -0.00000000000E+00 -0.00000000000E+00 -0.63477280692E+02  0.63477280743E+02  0.25500000000E-02 0. -1.
    5000001    1    1    2    0    0  0.22350987358E+03  0.20782446118E+03  0.12087074309E+04  0.12530962947E+04  0.12700000000E+03 0.  0.
   -5000001    1    1    2    0    0 -0.22350987358E+03 -0.20782446118E+03  0.62047302176E+03  0.70303871940E+03  0.12700000000E+03 0.  0.
<mgrwt>
<rscale>  0 0.69322656E+03</rscale>
<asrwt>0</asrwt>
<pdfrwt beam="1">  1        2 0.27037966E+00 0.69322656E+03</pdfrwt>
<pdfrwt beam="2">  1       -2 0.90681836E-02 0.69322656E+03</pdfrwt>
<totfact> 0.74824984E+02</totfact>
</mgrwt>
</event>
<event>
 4    1  0.4895160E-005  0.3354630E+03  0.7818608E-02  0.1068745E+00
          2   -1    0    0  501    0  0.00000000000E+00  0.00000000000E+00  0.11549356422E+04  0.11549356422E+04  0.25500000000E-02 0.  1.
         -2   -1    0    0    0  501 -0.00000000000E+00 -0.00000000000E+00 -0.24359677856E+02  0.24359677989E+02  0.25500000000E-02 0. -1.
    5000001    1    1    2    0    0 -0.29770105479E+02 -0.10128305122E+03  0.66840115266E+03  0.68850099239E+03  0.12700000000E+03 0.  0.
   -5000001    1    1    2    0    0  0.29770105479E+02  0.10128305122E+03  0.46217481163E+03  0.49079432775E+03  0.12700000000E+03 0.  0.
<mgrwt>
<rscale>  0 0.33546302E+03</rscale>
<asrwt>0</asrwt>
<pdfrwt beam="1">  1        2 0.16499080E+00 0.33546302E+03</pdfrwt>
<pdfrwt beam="2">  1       -2 0.34799541E-02 0.33546302E+03</pdfrwt>
<totfact> 0.80794982E+03</totfact>
</mgrwt>
</event>
<event>
 4    1  0.4895160E-005  0.2951912E+03  0.7818608E-02  0.1087670E+00
          2   -1    0    0  501    0  0.00000000000E+00  0.00000000000E+00  0.23624232997E+03  0.23624232999E+03  0.25500000000E-02 0.  1.
         -2   -1    0    0    0  501 -0.00000000000E+00 -0.00000000000E+00 -0.92212332667E+02  0.92212332702E+02  0.25500000000E-02 0. -1.
    5000001    1    1    2    0    0  0.70861153612E+02  0.42271985801E+00  0.10003111831E+03  0.17651262395E+03  0.12700000000E+03 0.  0.
   -5000001    1    1    2    0    0 -0.70861153612E+02 -0.42271985801E+00  0.43998878997E+02  0.15194203874E+03  0.12700000000E+03 0.  0.
<mgrwt>
<rscale>  0 0.29519117E+03</rscale>
<asrwt>0</asrwt>
<pdfrwt beam="1">  1        2 0.33748905E-01 0.29519117E+03</pdfrwt>
<pdfrwt beam="2">  1       -2 0.13173190E-01 0.29519117E+03</pdfrwt>
<totfact> 0.65072371E+03</totfact>
</mgrwt>
</event>
<event>
 4    1  0.4895160E-005  0.3006418E+03  0.7818608E-02  0.1084920E+00
         -2   -1    0    0    0  501 -0.00000000000E+00  0.00000000000E+00  0.21389774680E+03  0.21389774681E+03  0.25500000000E-02 0.  1.
          2   -1    0    0  501    0  0.00000000000E+00 -0.00000000000E+00 -0.10564101626E+03  0.10564101629E+03  0.25500000000E-02 0. -1.
    5000001    1    1    2    0    0 -0.78564070297E+02 -0.13883973641E+02  0.43378410134E+02  0.15612739776E+03  0.12700000000E+03 0.  0.
   -5000001    1    1    2    0    0  0.78564070297E+02  0.13883973641E+02  0.64878320403E+02  0.16341136535E+03  0.12700000000E+03 0.  0.
<mgrwt>
<rscale>  0 0.30064182E+03</rscale>
<asrwt>0</asrwt>
<pdfrwt beam="1">  1        2 0.15091574E-01 0.30064182E+03</pdfrwt>
<pdfrwt beam="2">  1       -2 0.30556821E-01 0.30064182E+03</pdfrwt>
<totfact> 0.38197751E+03</totfact>
</mgrwt>
</event>
<event>
 4    1  0.4895160E-005  0.3029147E+03  0.7818608E-02  0.1083793E+00
          2   -1    0    0  501    0  0.00000000000E+00  0.00000000000E+00  0.25803273819E+04  0.25803273819E+04  0.25500000000E-02 0.  1.
         -2   -1    0    0    0  501 -0.00000000000E+00 -0.00000000000E+00 -0.88900844740E+01  0.88900848397E+01  0.25500000000E-02 0. -1.
    5000001    1    1    2    0    0  0.45316849944E+02  0.58629395388E+02  0.15961895796E+04  0.16029476588E+04  0.12700000000E+03 0.  0.
   -5000001    1    1    2    0    0 -0.45316849944E+02 -0.58629395388E+02  0.97524771786E+03  0.98626980795E+03  0.12700000000E+03 0.  0.
<mgrwt>
<rscale>  0 0.30291470E+03</rscale>
<asrwt>0</asrwt>
<pdfrwt beam="1">  1        2 0.36861767E+00 0.30291470E+03</pdfrwt>
<pdfrwt beam="2">  1       -2 0.12700139E-02 0.30291470E+03</pdfrwt>
<totfact> 0.68786790E+03</totfact>
</mgrwt>
</event>
<event>
 4    1  0.4895160E-005  0.4471463E+03  0.7818608E-02  0.1028576E+00
          2   -1    0    0  501    0  0.00000000000E+00  0.00000000000E+00  0.15157187535E+04  0.15157187535E+04  0.25500000000E-02 0.  1.
         -2   -1    0    0    0  501 -0.00000000000E+00 -0.00000000000E+00 -0.32977726166E+02  0.32977726264E+02  0.25500000000E-02 0. -1.
    5000001    1    1    2    0    0 -0.11537266574E+03 -0.14086426150E+03  0.64957988141E+03  0.68646676139E+03  0.12700000000E+03 0.  0.
   -5000001    1    1    2    0    0  0.11537266574E+03  0.14086426150E+03  0.83316114596E+03  0.86222971841E+03  0.12700000000E+03 0.  0.
<mgrwt>
<rscale>  0 0.44714632E+03</rscale>
<asrwt>0</asrwt>
<pdfrwt beam="1">  1        2 0.21653127E+00 0.44714632E+03</pdfrwt>
<pdfrwt beam="2">  1       -2 0.47111034E-02 0.44714632E+03</pdfrwt>
<totfact> 0.32865553E+03</totfact>
</mgrwt>
</event>
<event>
 4    1  0.4895160E-005  0.2841903E+03  0.7818608E-02  0.1093422E+00
          2   -1    0    0  501    0  0.00000000000E+00  0.00000000000E+00  0.63824679534E+03  0.63824679535E+03  0.25500000000E-02 0.  1.
         -2   -1    0    0    0  501 -0.00000000000E+00 -0.00000000000E+00 -0.31635155714E+02  0.31635155816E+02  0.25500000000E-02 0. -1.
    5000001    1    1    2    0    0 -0.34059744050E+02  0.52886022882E+02  0.32746402653E+03  0.35681744107E+03  0.12700000000E+03 0.  0.
   -5000001    1    1    2    0    0  0.34059744050E+02 -0.52886022882E+02  0.27914761310E+03  0.31306451009E+03  0.12700000000E+03 0.  0.
<mgrwt>
<rscale>  0 0.28419034E+03</rscale>
<asrwt>0</asrwt>
<pdfrwt beam="1">  1        2 0.91178117E-01 0.28419034E+03</pdfrwt>
<pdfrwt beam="2">  1       -2 0.45193078E-02 0.28419034E+03</pdfrwt>
<totfact> 0.11655753E+04</totfact>
</mgrwt>
</event>
<event>
 4    1  0.4895160E-005  0.3266858E+03  0.7818608E-02  0.1072613E+00
         -2   -1    0    0    0  501 -0.00000000000E+00  0.00000000000E+00  0.29788962412E+02  0.29788962521E+02  0.25500000000E-02 0. -1.
          2   -1    0    0  501    0  0.00000000000E+00 -0.00000000000E+00 -0.89566405087E+03  0.89566405087E+03  0.25500000000E-02 0.  1.
    5000001    1    1    2    0    0 -0.52376722443E+02 -0.63704258116E+02 -0.25945332577E+03  0.30041068857E+03  0.12700000000E+03 0.  0.
   -5000001    1    1    2    0    0  0.52376722443E+02  0.63704258116E+02 -0.60642176269E+03  0.62504232482E+03  0.12700000000E+03 0.  0.
<mgrwt>
<rscale>  0 0.32668580E+03</rscale>
<asrwt>0</asrwt>
<pdfrwt beam="1">  1        2 0.12795199E+00 0.32668580E+03</pdfrwt>
<pdfrwt beam="2">  1       -2 0.42555666E-02 0.32668580E+03</pdfrwt>
<totfact> 0.84727095E+03</totfact>
</mgrwt>
</event>
<event>
 4    1  0.4895160E-005  0.3440316E+03  0.7818608E-02  0.1065092E+00
         -2   -1    0    0    0  501 -0.00000000000E+00  0.00000000000E+00  0.58378690100E+02  0.58378690155E+02  0.25500000000E-02 0. -1.
          2   -1    0    0  501    0  0.00000000000E+00 -0.00000000000E+00 -0.50685325236E+03  0.50685325236E+03  0.25500000000E-02 0.  1.
    5000001    1    1    2    0    0 -0.72103176282E+02 -0.77139355094E+02 -0.14525385352E+03  0.21994778948E+03  0.12700000000E+03 0.  0.
   -5000001    1    1    2    0    0  0.72103176282E+02  0.77139355094E+02 -0.30322070873E+03  0.34528415304E+03  0.12700000000E+03 0.  0.
<mgrwt>
<rscale>  0 0.34403156E+03</rscale>
<asrwt>0</asrwt>
<pdfrwt beam="1">  1        2 0.72407605E-01 0.34403156E+03</pdfrwt>
<pdfrwt beam="2">  1       -2 0.83398132E-02 0.34403156E+03</pdfrwt>
<totfact> 0.59236447E+03</totfact>
</mgrwt>
</event>
<event>
 4    1  0.4895160E-005  0.3124637E+03  0.7818608E-02  0.1079171E+00
          2   -1    0    0  501    0  0.00000000000E+00  0.00000000000E+00  0.25932164933E+04  0.25932164933E+04  0.25500000000E-02 0.  1.
         -2   -1    0    0    0  501 -0.00000000000E+00 -0.00000000000E+00 -0.94123982554E+01  0.94123986008E+01  0.25500000000E-02 0. -1.
    5000001    1    1    2    0    0 -0.80954598410E+02 -0.34699168116E+02  0.14821527566E+04  0.14901890730E+04  0.12700000000E+03 0.  0.
   -5000001    1    1    2    0    0  0.80954598410E+02  0.34699168116E+02  0.11016513384E+04  0.11124398189E+04  0.12700000000E+03 0.  0.
<mgrwt>
<rscale>  0 0.31246367E+03</rscale>
<asrwt>0</asrwt>
<pdfrwt beam="1">  1        2 0.37046013E+00 0.31246367E+03</pdfrwt>
<pdfrwt beam="2">  1       -2 0.13446260E-02 0.31246367E+03</pdfrwt>
<totfact> 0.62323148E+03</totfact>
</mgrwt>
</event>
<event>
 4    1  0.4895160E-005  0.6030277E+03  0.7818608E-02  0.9899144E-01
          2   -1    0    0  501    0  0.00000000000E+00  0.00000000000E+00  0.72790968300E+03  0.72790968300E+03  0.25500000000E-02 0.  1.
         -2   -1    0    0    0  501 -0.00000000000E+00 -0.00000000000E+00 -0.12489270926E+03  0.12489270928E+03  0.25500000000E-02 0. -1.
    5000001    1    1    2    0    0  0.23112503163E+01 -0.24026474990E+03  0.48616392945E+03  0.55697114667E+03  0.12700000000E+03 0.  0.
   -5000001    1    1    2    0    0 -0.23112503163E+01  0.24026474990E+03  0.11685304429E+03  0.29583124562E+03  0.12700000000E+03 0.  0.
<mgrwt>
<rscale>  0 0.60302774E+03</rscale>
<asrwt>0</asrwt>
<pdfrwt beam="1">  1        2 0.10398709E+00 0.60302774E+03</pdfrwt>
<pdfrwt beam="2">  1       -2 0.17841816E-01 0.60302774E+03</pdfrwt>
<totfact> 0.11184021E+03</totfact>
</mgrwt>
</event>
<event>
 4    1  0.4895160E-005  0.4132561E+03  0.7818608E-02  0.1039284E+00
         -2   -1    0    0    0  501 -0.00000000000E+00  0.00000000000E+00  0.22522635029E+02  0.22522635174E+02  0.25500000000E-02 0. -1.
          2   -1    0    0  501    0  0.00000000000E+00 -0.00000000000E+00 -0.18956552759E+04  0.18956552759E+04  0.25500000000E-02 0.  1.
    5000001    1    1    2    0    0 -0.15464658506E+03 -0.11067149765E+02 -0.70318447250E+03  0.73118769850E+03  0.12700000000E+03 0.  0.
   -5000001    1    1    2    0    0  0.15464658506E+03  0.11067149765E+02 -0.11699481684E+04  0.11869902126E+04  0.12700000000E+03 0.  0.
<mgrwt>
<rscale>  0 0.41325610E+03</rscale>
<asrwt>0</asrwt>
<pdfrwt beam="1">  1        2 0.27080780E+00 0.41325610E+03</pdfrwt>
<pdfrwt beam="2">  1       -2 0.32175205E-02 0.41325610E+03</pdfrwt>
<totfact> 0.37833555E+03</totfact>
</mgrwt>
</event>
<event>
 4    1  0.4895160E-005  0.3408225E+03  0.7818608E-02  0.1066446E+00
          2   -1    0    0  501    0  0.00000000000E+00  0.00000000000E+00  0.43919678054E+03  0.43919678055E+03  0.25500000000E-02 0.  1.
         -2   -1    0    0    0  501 -0.00000000000E+00 -0.00000000000E+00 -0.66120705012E+02  0.66120705061E+02  0.25500000000E-02 0. -1.
    5000001    1    1    2    0    0 -0.89754327844E+02 -0.40076676440E+02  0.27104885596E+03  0.31505310930E+03  0.12700000000E+03 0.  0.
   -5000001    1    1    2    0    0  0.89754327844E+02  0.40076676440E+02  0.10202721958E+03  0.19026437632E+03  0.12700000000E+03 0.  0.
<mgrwt>
<rscale>  0 0.34082254E+03</rscale>
<asrwt>0</asrwt>
<pdfrwt beam="1">  1        2 0.62742397E-01 0.34082254E+03</pdfrwt>
<pdfrwt beam="2">  1       -2 0.94458150E-02 0.34082254E+03</pdfrwt>
<totfact> 0.56981137E+03</totfact>
</mgrwt>
</event>
<event>
 4    1  0.4895160E-005  0.4256205E+03  0.7818608E-02  0.1035252E+00
         -2   -1    0    0    0  501 -0.00000000000E+00  0.00000000000E+00  0.54114298748E+03  0.54114298748E+03  0.25500000000E-02 0. -1.
          2   -1    0    0  501    0  0.00000000000E+00 -0.00000000000E+00 -0.83689901051E+02  0.83689901090E+02  0.25500000000E-02 0.  1.
    5000001    1    1    2    0    0 -0.11635939558E+03 -0.17618379546E+02  0.47083478485E+02  0.17943179814E+03  0.12700000000E+03 0.  0.
   -5000001    1    1    2    0    0  0.11635939558E+03  0.17618379546E+02  0.41036960794E+03  0.44540109043E+03  0.12700000000E+03 0.  0.
<mgrwt>
<rscale>  0 0.42562050E+03</rscale>
<asrwt>0</asrwt>
<pdfrwt beam="1">  1        2 0.11955700E-01 0.42562050E+03</pdfrwt>
<pdfrwt beam="2">  1       -2 0.77306140E-01 0.42562050E+03</pdfrwt>
<totfact> 0.79470288E+02</totfact>
</mgrwt>
</event>
<event>
 4    1  0.4895160E-005  0.3626623E+03  0.7818608E-02  0.1057535E+00
         -2   -1    0    0    0  501 -0.00000000000E+00  0.00000000000E+00  0.45907435324E+03  0.45907435324E+03  0.25500000000E-02 0. -1.
          2   -1    0    0  501    0  0.00000000000E+00 -0.00000000000E+00 -0.71624520396E+02  0.71624520441E+02  0.25500000000E-02 0.  1.
    5000001    1    1    2    0    0 -0.11940029786E+03  0.26405625820E+02  0.25577979352E+03  0.31065413401E+03  0.12700000000E+03 0.  0.
   -5000001    1    1    2    0    0  0.11940029786E+03 -0.26405625820E+02  0.13167003932E+03  0.22004473967E+03  0.12700000000E+03 0.  0.
<mgrwt>
<rscale>  0 0.36266227E+03</rscale>
<asrwt>0</asrwt>
<pdfrwt beam="1">  1        2 0.10232075E-01 0.36266227E+03</pdfrwt>
<pdfrwt beam="2">  1       -2 0.65582048E-01 0.36266227E+03</pdfrwt>
<totfact> 0.13743936E+03</totfact>
</mgrwt>
</event>
<event>
 4    1  0.4895160E-005  0.6735154E+03  0.7818608E-02  0.9763628E-01
          2   -1    0    0  501    0  0.00000000000E+00  0.00000000000E+00  0.12711050156E+03  0.12711050158E+03  0.25500000000E-02 0.  1.
         -2   -1    0    0    0  501 -0.00000000000E+00 -0.00000000000E+00 -0.89218232877E+03  0.89218232877E+03  0.25500000000E-02 0. -1.
    5000001    1    1    2    0    0  0.31018639424E+03 -0.14214396000E+02 -0.33817790252E+03  0.47635169988E+03  0.12700000000E+03 0.  0.
   -5000001    1    1    2    0    0 -0.31018639424E+03  0.14214396000E+02 -0.42689392469E+03  0.54294113047E+03  0.12700000000E+03 0.  0.
<mgrwt>
<rscale>  0 0.67351538E+03</rscale>
<asrwt>0</asrwt>
<pdfrwt beam="1">  1        2 0.18158644E-01 0.67351538E+03</pdfrwt>
<pdfrwt beam="2">  1       -2 0.12745461E+00 0.67351538E+03</pdfrwt>
<totfact> 0.14722792E+02</totfact>
</mgrwt>
</event>
<event>
 4    1  0.4895160E-005  0.4398882E+03  0.7818608E-02  0.1030781E+00
          2   -1    0    0  501    0  0.00000000000E+00  0.00000000000E+00  0.14570400325E+04  0.14570400325E+04  0.25500000000E-02 0.  1.
         -2   -1    0    0    0  501 -0.00000000000E+00 -0.00000000000E+00 -0.33201144673E+02  0.33201144771E+02  0.25500000000E-02 0. -1.
    5000001    1    1    2    0    0  0.14341985247E+03  0.33783124664E+02  0.10596548769E+04  0.10773615975E+04  0.12700000000E+03 0.  0.
   -5000001    1    1    2    0    0 -0.14341985247E+03 -0.33783124664E+02  0.36418401094E+03  0.41287957980E+03  0.12700000000E+03 0.  0.
<mgrwt>
<rscale>  0 0.43988815E+03</rscale>
<asrwt>0</asrwt>
<pdfrwt beam="1">  1        2 0.20814862E+00 0.43988815E+03</pdfrwt>
<pdfrwt beam="2">  1       -2 0.47430197E-02 0.43988815E+03</pdfrwt>
<totfact> 0.34878559E+03</totfact>
</mgrwt>
</event>
<event>
 4    1  0.4895160E-005  0.3095163E+03  0.7818608E-02  0.1080578E+00
         -2   -1    0    0    0  501 -0.00000000000E+00  0.00000000000E+00  0.15991823235E+02  0.15991823438E+02  0.25500000000E-02 0. -1.
          2   -1    0    0  501    0  0.00000000000E+00 -0.00000000000E+00 -0.14976451971E+04  0.14976451971E+04  0.25500000000E-02 0.  1.
    5000001    1    1    2    0    0 -0.60722681753E+02 -0.61147347804E+02 -0.64365355230E+03  0.66169867584E+03  0.12700000000E+03 0.  0.
   -5000001    1    1    2    0    0  0.60722681753E+02  0.61147347804E+02 -0.83799982155E+03  0.85193834468E+03  0.12700000000E+03 0.  0.
<mgrwt>
<rscale>  0 0.30951625E+03</rscale>
<asrwt>0</asrwt>
<pdfrwt beam="1">  1        2 0.21394923E+00 0.30951625E+03</pdfrwt>
<pdfrwt beam="2">  1       -2 0.22845471E-02 0.30951625E+03</pdfrwt>
<totfact> 0.99616406E+03</totfact>
</mgrwt>
</event>
<event>
 4    1  0.4895160E-005  0.3965883E+03  0.7818608E-02  0.1044967E+00
          2   -1    0    0  501    0  0.00000000000E+00  0.00000000000E+00  0.31095837017E+04  0.31095837017E+04  0.25500000000E-02 0.  1.
         -2   -1    0    0    0  501 -0.00000000000E+00 -0.00000000000E+00 -0.12644963075E+02  0.12644963332E+02  0.25500000000E-02 0. -1.
    5000001    1    1    2    0    0 -0.12178013008E+03 -0.88862494438E+02  0.17181677577E+04  0.17294381708E+04  0.12700000000E+03 0.  0.
   -5000001    1    1    2    0    0  0.12178013008E+03  0.88862494438E+02  0.13787709810E+04  0.13927904943E+04  0.12700000000E+03 0.  0.
<mgrwt>
<rscale>  0 0.39658831E+03</rscale>
<asrwt>0</asrwt>
<pdfrwt beam="1">  1        2 0.44422662E+00 0.39658831E+03</pdfrwt>
<pdfrwt beam="2">  1       -2 0.18064218E-02 0.39658831E+03</pdfrwt>
<totfact> 0.21513843E+03</totfact>
</mgrwt>
</event>
<event>
 4    1  0.4895160E-005  0.3008952E+03  0.7818608E-02  0.1084794E+00
         -2   -1    0    0    0  501 -0.00000000000E+00  0.00000000000E+00  0.22117781266E+03  0.22117781268E+03  0.25500000000E-02 0. -1.
          2   -1    0    0  501    0  0.00000000000E+00 -0.00000000000E+00 -0.10233614372E+03  0.10233614376E+03  0.25500000000E-02 0.  1.
    5000001    1    1    2    0    0 -0.72375558436E+02 -0.29039557814E+02  0.37282559493E+02  0.15362456385E+03  0.12700000000E+03 0.  0.
   -5000001    1    1    2    0    0  0.72375558436E+02  0.29039557814E+02  0.81559109446E+02  0.16988939258E+03  0.12700000000E+03 0.  0.
<mgrwt>
<rscale>  0 0.30089523E+03</rscale>
<asrwt>0</asrwt>
<pdfrwt beam="1">  1        2 0.14619449E-01 0.30089523E+03</pdfrwt>
<pdfrwt beam="2">  1       -2 0.31596831E-01 0.30089523E+03</pdfrwt>
<totfact> 0.37313850E+03</totfact>
</mgrwt>
</event>
<event>
 4    1  0.4895160E-005  0.4896493E+03  0.7818608E-02  0.1016516E+00
          2   -1    0    0  501    0  0.00000000000E+00  0.00000000000E+00  0.38701217312E+04  0.38701217312E+04  0.25500000000E-02 0.  1.
         -2   -1    0    0    0  501 -0.00000000000E+00 -0.00000000000E+00 -0.15487654549E+02  0.15487654759E+02  0.25500000000E-02 0. -1.
    5000001    1    1    2    0    0  0.17437449977E+02  0.20225747875E+03  0.23317904128E+04  0.23440536858E+04  0.12700000000E+03 0.  0.
   -5000001    1    1    2    0    0 -0.17437449977E+02 -0.20225747875E+03  0.15228436638E+04  0.15415557002E+04  0.12700000000E+03 0.  0.
<mgrwt>
<rscale>  0 0.48964930E+03</rscale>
<asrwt>0</asrwt>
<pdfrwt beam="1">  1        2 0.55287526E+00 0.48964930E+03</pdfrwt>
<pdfrwt beam="2">  1       -2 0.22125192E-02 0.48964930E+03</pdfrwt>
<totfact> 0.56009936E+02</totfact>
</mgrwt>
</event>
<event>
 4    1  0.4895160E-005  0.4660574E+03  0.7818608E-02  0.1023039E+00
         -2   -1    0    0    0  501 -0.00000000000E+00  0.00000000000E+00  0.13613288267E+02  0.13613288506E+02  0.25500000000E-02 0. -1.
          2   -1    0    0  501    0  0.00000000000E+00 -0.00000000000E+00 -0.39889249945E+04  0.39889249945E+04  0.25500000000E-02 0.  1.
    5000001    1    1    2    0    0 -0.16611381719E+02  0.16951148913E+03 -0.11655607268E+04  0.11847661756E+04  0.12700000000E+03 0.  0.
   -5000001    1    1    2    0    0  0.16611381719E+02 -0.16951148913E+03 -0.28097509794E+04  0.28177721074E+04  0.12700000000E+03 0.  0.
<mgrwt>
<rscale>  0 0.46605745E+03</rscale>
<asrwt>0</asrwt>
<pdfrwt beam="1">  1        2 0.56984568E+00 0.46605745E+03</pdfrwt>
<pdfrwt beam="2">  1       -2 0.19447580E-02 0.46605745E+03</pdfrwt>
<totfact> 0.57060454E+02</totfact>
</mgrwt>
</event>
<event>
 4    1  0.4895160E-005  0.3627164E+03  0.7818608E-02  0.1057513E+00
          2   -1    0    0  501    0  0.00000000000E+00  0.00000000000E+00  0.18679356406E+04  0.18679356406E+04  0.25500000000E-02 0.  1.
         -2   -1    0    0    0  501 -0.00000000000E+00 -0.00000000000E+00 -0.17608101888E+02  0.17608102072E+02  0.25500000000E-02 0. -1.
    5000001    1    1    2    0    0 -0.97567092964E+02  0.81419140943E+02  0.79641688929E+03  0.81642959016E+03  0.12700000000E+03 0.  0.
   -5000001    1    1    2    0    0  0.97567092964E+02 -0.81419140943E+02  0.10539106494E+04  0.10691141525E+04  0.12700000000E+03 0.  0.
<mgrwt>
<rscale>  0 0.36271643E+03</rscale>
<asrwt>0</asrwt>
<pdfrwt beam="1">  1        2 0.26684785E+00 0.36271643E+03</pdfrwt>
<pdfrwt beam="2">  1       -2 0.25154440E-02 0.36271643E+03</pdfrwt>
<totfact> 0.56517807E+03</totfact>
</mgrwt>
</event>
<event>
 4    1  0.4895160E-005  0.2928602E+03  0.7818608E-02  0.1088865E+00
          2   -1    0    0  501    0  0.00000000000E+00  0.00000000000E+00  0.26550246168E+03  0.26550246169E+03  0.25500000000E-02 0.  1.
         -2   -1    0    0    0  501 -0.00000000000E+00 -0.00000000000E+00 -0.80759241030E+02  0.80759241070E+02  0.25500000000E-02 0. -1.
    5000001    1    1    2    0    0  0.27087421035E+02  0.60162894425E+02  0.55748019789E+02  0.15359083291E+03  0.12700000000E+03 0.  0.
   -5000001    1    1    2    0    0 -0.27087421035E+02 -0.60162894425E+02  0.12899520086E+03  0.19267086985E+03  0.12700000000E+03 0.  0.
<mgrwt>
<rscale>  0 0.29286022E+03</rscale>
<asrwt>0</asrwt>
<pdfrwt beam="1">  1        2 0.37928924E-01 0.29286022E+03</pdfrwt>
<pdfrwt beam="2">  1       -2 0.11537034E-01 0.29286022E+03</pdfrwt>
<totfact> 0.71048461E+03</totfact>
</mgrwt>
</event>
<event>
 4    1  0.4895160E-005  0.3281397E+03  0.7818608E-02  0.1071963E+00
          2   -1    0    0  501    0  0.00000000000E+00  0.00000000000E+00  0.80454004777E+03  0.80454004777E+03  0.25500000000E-02 0.  1.
         -2   -1    0    0    0  501 -0.00000000000E+00 -0.00000000000E+00 -0.33458773147E+02  0.33458773244E+02  0.25500000000E-02 0. -1.
    5000001    1    1    2    0    0 -0.47310670033E+02  0.68830526600E+02  0.54325596297E+03  0.56412053871E+03  0.12700000000E+03 0.  0.
   -5000001    1    1    2    0    0  0.47310670033E+02 -0.68830526600E+02  0.22782531165E+03  0.27387828231E+03  0.12700000000E+03 0.  0.
<mgrwt>
<rscale>  0 0.32813974E+03</rscale>
<asrwt>0</asrwt>
<pdfrwt beam="1">  1        2 0.11493429E+00 0.32813974E+03</pdfrwt>
<pdfrwt beam="2">  1       -2 0.47798247E-02 0.32813974E+03</pdfrwt>
<totfact> 0.81440536E+03</totfact>
</mgrwt>
</event>
<event>
 4    1  0.4895160E-005  0.4348328E+03  0.7818608E-02  0.1032344E+00
          2   -1    0    0  501    0  0.00000000000E+00  0.00000000000E+00  0.24749816260E+04  0.24749816260E+04  0.25500000000E-02 0.  1.
         -2   -1    0    0    0  501 -0.00000000000E+00 -0.00000000000E+00 -0.19099084523E+02  0.19099084694E+02  0.25500000000E-02 0. -1.
    5000001    1    1    2    0    0  0.10565117191E+03  0.12666955758E+03  0.15876739037E+04  0.16012634922E+04  0.12700000000E+03 0.  0.
   -5000001    1    1    2    0    0 -0.10565117191E+03 -0.12666955758E+03  0.86820863782E+03  0.89281721855E+03  0.12700000000E+03 0.  0.
<mgrwt>
<rscale>  0 0.43483277E+03</rscale>
<asrwt>0</asrwt>
<pdfrwt beam="1">  1        2 0.35356854E+00 0.43483277E+03</pdfrwt>
<pdfrwt beam="2">  1       -2 0.27284427E-02 0.43483277E+03</pdfrwt>
<totfact> 0.24919820E+03</totfact>
</mgrwt>
</event>
<event>
 4    1  0.4895160E-005  0.3381805E+03  0.7818608E-02  0.1067574E+00
          2   -1    0    0  501    0  0.00000000000E+00  0.00000000000E+00  0.15632648771E+04  0.15632648771E+04  0.25500000000E-02 0.  1.
         -2   -1    0    0    0  501 -0.00000000000E+00 -0.00000000000E+00 -0.18289615071E+02  0.18289615248E+02  0.25500000000E-02 0. -1.
    5000001    1    1    2    0    0 -0.81342440715E+02 -0.31582843257E+02  0.44684833812E+03  0.47266955257E+03  0.12700000000E+03 0.  0.
   -5000001    1    1    2    0    0  0.81342440715E+02  0.31582843257E+02  0.10981269240E+04  0.11088849398E+04  0.12700000000E+03 0.  0.
<mgrwt>
<rscale>  0 0.33818050E+03</rscale>
<asrwt>0</asrwt>
<pdfrwt beam="1">  1        2 0.22332358E+00 0.33818050E+03</pdfrwt>
<pdfrwt beam="2">  1       -2 0.26128018E-02 0.33818050E+03</pdfrwt>
<totfact> 0.75702813E+03</totfact>
</mgrwt>
</event>
<event>
 4    1  0.4895160E-005  0.3684098E+03  0.7818608E-02  0.1055303E+00
          2   -1    0    0  501    0  0.00000000000E+00  0.00000000000E+00  0.37179735922E+04  0.37179735922E+04  0.25500000000E-02 0.  1.
         -2   -1    0    0    0  501 -0.00000000000E+00 -0.00000000000E+00 -0.91263253183E+01  0.91263256746E+01  0.25500000000E-02 0. -1.
    5000001    1    1    2    0    0  0.13268732545E+03 -0.13931797018E+02  0.18701481935E+04  0.18791975114E+04  0.12700000000E+03 0.  0.
   -5000001    1    1    2    0    0 -0.13268732545E+03  0.13931797018E+02  0.18386990734E+04  0.18479024065E+04  0.12700000000E+03 0.  0.
<mgrwt>
<rscale>  0 0.36840976E+03</rscale>
<asrwt>0</asrwt>
<pdfrwt beam="1">  1        2 0.53114068E+00 0.36840976E+03</pdfrwt>
<pdfrwt beam="2">  1       -2 0.13037569E-02 0.36840976E+03</pdfrwt>
<totfact> 0.15565978E+03</totfact>
</mgrwt>
</event>
<event>
 4    1  0.4895160E-005  0.3424079E+03  0.7818608E-02  0.1065775E+00
          2   -1    0    0  501    0  0.00000000000E+00  0.00000000000E+00  0.14563227569E+03  0.14563227571E+03  0.25500000000E-02 0.  1.
         -2   -1    0    0    0  501 -0.00000000000E+00 -0.00000000000E+00 -0.20126582543E+03  0.20126582545E+03  0.25500000000E-02 0. -1.
    5000001    1    1    2    0    0 -0.11110604158E+03 -0.14908074832E+02 -0.26924389052E+01  0.16941975209E+03  0.12700000000E+03 0.  0.
   -5000001    1    1    2    0    0  0.11110604158E+03  0.14908074832E+02 -0.52941110842E+02  0.17747834907E+03  0.12700000000E+03 0.  0.
<mgrwt>
<rscale>  0 0.34240794E+03</rscale>
<asrwt>0</asrwt>
<pdfrwt beam="1">  1        2 0.20804611E-01 0.34240794E+03</pdfrwt>
<pdfrwt beam="2">  1       -2 0.28752261E-01 0.34240794E+03</pdfrwt>
<totfact> 0.29433798E+03</totfact>
</mgrwt>
</event>
<event>
 4    1  0.4895160E-005  0.7573533E+03  0.7818608E-02  0.9623884E-01
         -2   -1    0    0    0  501 -0.00000000000E+00  0.00000000000E+00  0.96513675851E+02  0.96513675884E+02  0.25500000000E-02 0. -1.
          2   -1    0    0  501    0  0.00000000000E+00 -0.00000000000E+00 -0.14857583599E+04  0.14857583599E+04  0.25500000000E-02 0.  1.
    5000001    1    1    2    0    0 -0.11920845249E+03  0.33423502729E+03 -0.61805071487E+03  0.72390565322E+03  0.12700000000E+03 0.  0.
   -5000001    1    1    2    0    0  0.11920845249E+03 -0.33423502729E+03 -0.77119396916E+03  0.85836638254E+03  0.12700000000E+03 0.  0.
<mgrwt>
<rscale>  0 0.75735329E+03</rscale>
<asrwt>0</asrwt>
<pdfrwt beam="1">  1        2 0.21225118E+00 0.75735329E+03</pdfrwt>
<pdfrwt beam="2">  1       -2 0.13787669E-01 0.75735329E+03</pdfrwt>
<totfact> 0.60619669E+02</totfact>
</mgrwt>
</event>
<event>
 4    1  0.4895160E-005  0.4808446E+03  0.7818608E-02  0.1018903E+00
         -2   -1    0    0    0  501 -0.00000000000E+00  0.00000000000E+00  0.10217444581E+03  0.10217444584E+03  0.25500000000E-02 0. -1.
          2   -1    0    0  501    0  0.00000000000E+00 -0.00000000000E+00 -0.56572744292E+03  0.56572744293E+03  0.25500000000E-02 0.  1.
    5000001    1    1    2    0    0  0.74791685744E+02 -0.18273304370E+03 -0.30380115869E+03  0.38393919511E+03  0.12700000000E+03 0.  0.
   -5000001    1    1    2    0    0 -0.74791685744E+02  0.18273304370E+03 -0.15975183842E+03  0.28396269366E+03  0.12700000000E+03 0.  0.
<mgrwt>
<rscale>  0 0.48084462E+03</rscale>
<asrwt>0</asrwt>
<pdfrwt beam="1">  1        2 0.80818204E-01 0.48084462E+03</pdfrwt>
<pdfrwt beam="2">  1       -2 0.14596350E-01 0.48084462E+03</pdfrwt>
<totfact> 0.21227974E+03</totfact>
</mgrwt>
</event>
<event>
 4    1  0.4895160E-005  0.4559704E+03  0.7818608E-02  0.1025956E+00
          2   -1    0    0  501    0  0.00000000000E+00  0.00000000000E+00  0.15331782006E+04  0.15331782006E+04  0.25500000000E-02 0.  1.
         -2   -1    0    0    0  501 -0.00000000000E+00 -0.00000000000E+00 -0.33901641094E+02  0.33901641190E+02  0.25500000000E-02 0. -1.
    5000001    1    1    2    0    0 -0.18391517708E+03 -0.17510630802E+01  0.59515802498E+03  0.63574360656E+03  0.12700000000E+03 0.  0.
   -5000001    1    1    2    0    0  0.18391517708E+03  0.17510630802E+01  0.90411853450E+03  0.93133623521E+03  0.12700000000E+03 0.  0.
<mgrwt>
<rscale>  0 0.45597043E+03</rscale>
<asrwt>0</asrwt>
<pdfrwt beam="1">  1        2 0.21902548E+00 0.45597043E+03</pdfrwt>
<pdfrwt beam="2">  1       -2 0.48430910E-02 0.45597043E+03</pdfrwt>
<totfact> 0.30852222E+03</totfact>
</mgrwt>
</event>
<event>
 4    1  0.4895160E-005  0.3676277E+03  0.7818608E-02  0.1055604E+00
         -2   -1    0    0    0  501 -0.00000000000E+00  0.00000000000E+00  0.44289986433E+02  0.44289986506E+02  0.25500000000E-02 0. -1.
          2   -1    0    0  501    0  0.00000000000E+00 -0.00000000000E+00 -0.76287072376E+03  0.76287072376E+03  0.25500000000E-02 0.  1.
    5000001    1    1    2    0    0 -0.12880283646E+03  0.21229047547E+02 -0.41385828497E+03  0.45215984251E+03  0.12700000000E+03 0.  0.
   -5000001    1    1    2    0    0  0.12880283646E+03 -0.21229047547E+02 -0.30472245236E+03  0.35500086776E+03  0.12700000000E+03 0.  0.
<mgrwt>
<rscale>  0 0.36762771E+03</rscale>
<asrwt>0</asrwt>
<pdfrwt beam="1">  1        2 0.10898152E+00 0.36762771E+03</pdfrwt>
<pdfrwt beam="2">  1       -2 0.63271414E-02 0.36762771E+03</pdfrwt>
<totfact> 0.56690762E+03</totfact>
</mgrwt>
</event>
<event>
 4    1  0.4895160E-005  0.3217181E+03  0.7818608E-02  0.1074861E+00
          2   -1    0    0  501    0  0.00000000000E+00  0.00000000000E+00  0.19652001935E+03  0.19652001936E+03  0.25500000000E-02 0. -1.
         -2   -1    0    0    0  501 -0.00000000000E+00 -0.00000000000E+00 -0.13166916354E+03  0.13166916356E+03  0.25500000000E-02 0.  1.
    5000001    1    1    2    0    0 -0.19650270760E+02 -0.95635139416E+02  0.47362825253E+02  0.16704625182E+03  0.12700000000E+03 0.  0.
   -5000001    1    1    2    0    0  0.19650270760E+02  0.95635139416E+02  0.17488030558E+02  0.16114293110E+03  0.12700000000E+03 0.  0.
<mgrwt>
<rscale>  0 0.32171805E+03</rscale>
<asrwt>0</asrwt>
<pdfrwt beam="1">  1        2 0.28074288E-01 0.32171805E+03</pdfrwt>
<pdfrwt beam="2">  1       -2 0.18809881E-01 0.32171805E+03</pdfrwt>
<totfact> 0.44131339E+03</totfact>
</mgrwt>
</event>
<event>
 4    1  0.4895160E-005  0.4772032E+03  0.7818608E-02  0.1019907E+00
          2   -1    0    0  501    0  0.00000000000E+00  0.00000000000E+00  0.15961675972E+04  0.15961675972E+04  0.25500000000E-02 0.  1.
         -2   -1    0    0    0  501 -0.00000000000E+00 -0.00000000000E+00 -0.35667137297E+02  0.35667137388E+02  0.25500000000E-02 0. -1.
    5000001    1    1    2    0    0  0.19387493491E+02 -0.20077619943E+03  0.81688473389E+03  0.85095042489E+03  0.12700000000E+03 0.  0.
   -5000001    1    1    2    0    0 -0.19387493491E+02  0.20077619943E+03  0.74361572599E+03  0.78088430968E+03  0.12700000000E+03 0.  0.
<mgrwt>
<rscale>  0 0.47720322E+03</rscale>
<asrwt>0</asrwt>
<pdfrwt beam="1">  1        2 0.22802395E+00 0.47720322E+03</pdfrwt>
<pdfrwt beam="2">  1       -2 0.50953053E-02 0.47720322E+03</pdfrwt>
<totfact> 0.26481528E+03</totfact>
</mgrwt>
</event>
<event>
 4    1  0.4895160E-005  0.4626461E+03  0.7818608E-02  0.1024017E+00
          2   -1    0    0  501    0  0.00000000000E+00  0.00000000000E+00  0.56991129193E+03  0.56991129194E+03  0.25500000000E-02 0.  1.
         -2   -1    0    0    0  501 -0.00000000000E+00 -0.00000000000E+00 -0.93892408651E+02  0.93892408686E+02  0.25500000000E-02 0. -1.
    5000001    1    1    2    0    0  0.48404070404E+02 -0.18176162194E+03  0.17382563215E+03  0.28587513294E+03  0.12700000000E+03 0.  0.
   -5000001    1    1    2    0    0 -0.48404070404E+02  0.18176162194E+03  0.30219325113E+03  0.37792856768E+03  0.12700000000E+03 0.  0.
<mgrwt>
<rscale>  0 0.46264606E+03</rscale>
<asrwt>0</asrwt>
<pdfrwt beam="1">  1        2 0.81415898E-01 0.46264606E+03</pdfrwt>
<pdfrwt beam="2">  1       -2 0.13413201E-01 0.46264606E+03</pdfrwt>
<totfact> 0.24216586E+03</totfact>
</mgrwt>
</event>
<event>
 4    1  0.4895160E-005  0.3319576E+03  0.7818608E-02  0.1070274E+00
          2   -1    0    0  501    0  0.00000000000E+00  0.00000000000E+00  0.26064013626E+02  0.26064013751E+02  0.25500000000E-02 0.  1.
         -2   -1    0    0    0  501 -0.00000000000E+00 -0.00000000000E+00 -0.10569728356E+04  0.10569728356E+04  0.25500000000E-02 0. -1.
    5000001    1    1    2    0    0  0.13875920955E+02 -0.98037631533E+02 -0.38429900274E+03  0.41667570350E+03  0.12700000000E+03 0.  0.
   -5000001    1    1    2    0    0 -0.13875920955E+02  0.98037631533E+02 -0.64660981928E+03  0.66636114590E+03  0.12700000000E+03 0.  0.
<mgrwt>
<rscale>  0 0.33195755E+03</rscale>
<asrwt>0</asrwt>
<pdfrwt beam="1">  1        2 0.37234312E-02 0.33195755E+03</pdfrwt>
<pdfrwt beam="2">  1       -2 0.15099609E+00 0.33195755E+03</pdfrwt>
<totfact> 0.73156241E+02</totfact>
</mgrwt>
</event>
<event>
 4    1  0.4895160E-005  0.5713416E+03  0.7818608E-02  0.9966714E-01
         -2   -1    0    0    0  501 -0.00000000000E+00  0.00000000000E+00  0.35961580313E+03  0.35961580314E+03  0.25500000000E-02 0. -1.
          2   -1    0    0  501    0  0.00000000000E+00 -0.00000000000E+00 -0.22693054195E+03  0.22693054196E+03  0.25500000000E-02 0.  1.
    5000001    1    1    2    0    0 -0.22423216172E+03  0.10283436818E+03 -0.34657964278E+01  0.27748149735E+03  0.12700000000E+03 0.  0.
   -5000001    1    1    2    0    0  0.22423216172E+03 -0.10283436818E+03  0.13615105761E+03  0.30906484775E+03  0.12700000000E+03 0.  0.
<mgrwt>
<rscale>  0 0.57134161E+03</rscale>
<asrwt>0</asrwt>
<pdfrwt beam="1">  1        2 0.32418649E-01 0.57134161E+03</pdfrwt>
<pdfrwt beam="2">  1       -2 0.51373687E-01 0.57134161E+03</pdfrwt>
<totfact> 0.58779647E+02</totfact>
</mgrwt>
</event>
<event>
 4    1  0.4895160E-005  0.4376066E+03  0.7818608E-02  0.1031484E+00
          2   -1    0    0  501    0  0.00000000000E+00  0.00000000000E+00  0.85771426618E+03  0.85771426619E+03  0.25500000000E-02 0.  1.
         -2   -1    0    0    0  501 -0.00000000000E+00 -0.00000000000E+00 -0.55816812084E+02  0.55816812142E+02  0.25500000000E-02 0. -1.
    5000001    1    1    2    0    0  0.10619959394E+03 -0.13804008930E+03  0.47940487289E+03  0.52563433313E+03  0.12700000000E+03 0.  0.
   -5000001    1    1    2    0    0 -0.10619959394E+03  0.13804008930E+03  0.32249258120E+03  0.38789674520E+03  0.12700000000E+03 0.  0.
<mgrwt>
<rscale>  0 0.43760656E+03</rscale>
<asrwt>0</asrwt>
<pdfrwt beam="1">  1        2 0.12253061E+00 0.43760656E+03</pdfrwt>
<pdfrwt beam="2">  1       -2 0.79738301E-02 0.43760656E+03</pdfrwt>
<totfact> 0.34120923E+03</totfact>
</mgrwt>
</event>
<event>
 4    1  0.4895160E-005  0.3187988E+03  0.7818608E-02  0.1076203E+00
          2   -1    0    0  501    0  0.00000000000E+00  0.00000000000E+00  0.16385022938E+04  0.16385022938E+04  0.25500000000E-02 0.  1.
         -2   -1    0    0    0  501 -0.00000000000E+00 -0.00000000000E+00 -0.15506946705E+02  0.15506946915E+02  0.25500000000E-02 0. -1.
    5000001    1    1    2    0    0  0.73460918633E+02  0.19255847163E+02  0.11189591477E+04  0.11287009650E+04  0.12700000000E+03 0.  0.
   -5000001    1    1    2    0    0 -0.73460918633E+02 -0.19255847163E+02  0.50403619943E+03  0.52530827573E+03  0.12700000000E+03 0.  0.
<mgrwt>
<rscale>  0 0.31879879E+03</rscale>
<asrwt>0</asrwt>
<pdfrwt beam="1">  1        2 0.23407183E+00 0.31879879E+03</pdfrwt>
<pdfrwt beam="2">  1       -2 0.22152774E-02 0.31879879E+03</pdfrwt>
<totfact> 0.88616713E+03</totfact>
</mgrwt>
</event>
<event>
 4    1  0.4895160E-005  0.5617070E+03  0.7818608E-02  0.9988200E-01
          2   -1    0    0  501    0  0.00000000000E+00  0.00000000000E+00  0.49550745212E+03  0.49550745213E+03  0.25500000000E-02 0.  1.
         -2   -1    0    0    0  501 -0.00000000000E+00 -0.00000000000E+00 -0.15918771400E+03  0.15918771402E+03  0.25500000000E-02 0. -1.
    5000001    1    1    2    0    0 -0.14050149664E+03 -0.19245129766E+03  0.78091575188E+02  0.28107911101E+03  0.12700000000E+03 0.  0.
   -5000001    1    1    2    0    0  0.14050149664E+03  0.19245129766E+03  0.25822816293E+03  0.37361605514E+03  0.12700000000E+03 0.  0.
<mgrwt>
<rscale>  0 0.56170704E+03</rscale>
<asrwt>0</asrwt>
<pdfrwt beam="1">  1        2 0.70786780E-01 0.56170704E+03</pdfrwt>
<pdfrwt beam="2">  1       -2 0.22741102E-01 0.56170704E+03</pdfrwt>
<totfact> 0.11538340E+03</totfact>
</mgrwt>
</event>
<event>
 4    1  0.4895160E-005  0.2898806E+03  0.7818608E-02  0.1090412E+00
          2   -1    0    0  501    0  0.00000000000E+00  0.00000000000E+00  0.57035872141E+03  0.57035872142E+03  0.25500000000E-02 0.  1.
         -2   -1    0    0    0  501 -0.00000000000E+00 -0.00000000000E+00 -0.36832416644E+02  0.36832416732E+02  0.25500000000E-02 0. -1.
    5000001    1    1    2    0    0  0.63587236047E+01  0.13679547448E+02  0.40961483600E+03  0.42911639127E+03  0.12700000000E+03 0.  0.
   -5000001    1    1    2    0    0 -0.63587236047E+01 -0.13679547448E+02  0.12391146877E+03  0.17807474688E+03  0.12700000000E+03 0.  0.
<mgrwt>
<rscale>  0 0.28988060E+03</rscale>
<asrwt>0</asrwt>
<pdfrwt beam="1">  1        2 0.81479816E-01 0.28988060E+03</pdfrwt>
<pdfrwt beam="2">  1       -2 0.52617739E-02 0.28988060E+03</pdfrwt>
<totfact> 0.10530129E+04</totfact>
</mgrwt>
</event>
<event>
 4    1  0.4895160E-005  0.3920251E+03  0.7818608E-02  0.1046577E+00
         -2   -1    0    0    0  501 -0.00000000000E+00  0.00000000000E+00  0.25910613800E+03  0.25910613801E+03  0.25500000000E-02 0. -1.
          2   -1    0    0  501    0  0.00000000000E+00 -0.00000000000E+00 -0.14828256010E+03  0.14828256013E+03  0.25500000000E-02 0.  1.
    5000001    1    1    2    0    0 -0.13985519453E+03 -0.43349494746E+02  0.25056270288E+02  0.19543661585E+03  0.12700000000E+03 0.  0.
   -5000001    1    1    2    0    0  0.13985519453E+03  0.43349494746E+02  0.85767307608E+02  0.21195208229E+03  0.12700000000E+03 0.  0.
<mgrwt>
<rscale>  0 0.39202511E+03</rscale>
<asrwt>0</asrwt>
<pdfrwt beam="1">  1        2 0.21183223E-01 0.39202511E+03</pdfrwt>
<pdfrwt beam="2">  1       -2 0.37015163E-01 0.39202511E+03</pdfrwt>
<totfact> 0.18092289E+03</totfact>
</mgrwt>
</event>
<event>
 4    1  0.4895160E-005  0.1073304E+04  0.7818608E-02  0.9231609E-01
          2   -1    0    0  501    0  0.00000000000E+00  0.00000000000E+00  0.96163099572E+03  0.96163099572E+03  0.25500000000E-02 0.  1.
         -2   -1    0    0    0  501 -0.00000000000E+00 -0.00000000000E+00 -0.29948654449E+03  0.29948654450E+03  0.25500000000E-02 0. -1.
    5000001    1    1    2    0    0  0.22868708476E+03  0.40270960906E+03  0.61256348831E+03  0.77835457163E+03  0.12700000000E+03 0.  0.
   -5000001    1    1    2    0    0 -0.22868708476E+03 -0.40270960906E+03  0.49580962915E+02  0.48276296859E+03  0.12700000000E+03 0.  0.
<mgrwt>
<rscale>  0 0.10733043E+04</rscale>
<asrwt>0</asrwt>
<pdfrwt beam="1">  1        2 0.13737586E+00 0.10733043E+04</pdfrwt>
<pdfrwt beam="2">  1       -2 0.42783792E-01 0.10733043E+04</pdfrwt>
<totfact> 0.15271464E+02</totfact>
</mgrwt>
</event>
<event>
 4    1  0.4895160E-005  0.3378848E+03  0.7818608E-02  0.1067700E+00
          2   -1    0    0  501    0  0.00000000000E+00  0.00000000000E+00  0.19584649858E+03  0.19584649860E+03  0.25500000000E-02 0.  1.
         -2   -1    0    0    0  501 -0.00000000000E+00 -0.00000000000E+00 -0.14573422613E+03  0.14573422615E+03  0.25500000000E-02 0. -1.
    5000001    1    1    2    0    0 -0.81014178349E+02  0.58951538639E+01  0.10214300644E+03  0.18209954338E+03  0.12700000000E+03 0.  0.
   -5000001    1    1    2    0    0  0.81014178349E+02 -0.58951538639E+01 -0.52030733996E+02  0.15948118138E+03  0.12700000000E+03 0.  0.
<mgrwt>
<rscale>  0 0.33788482E+03</rscale>
<asrwt>0</asrwt>
<pdfrwt beam="1">  1        2 0.27978071E-01 0.33788482E+03</pdfrwt>
<pdfrwt beam="2">  1       -2 0.20819175E-01 0.33788482E+03</pdfrwt>
<totfact> 0.37271379E+03</totfact>
</mgrwt>
</event>
<event>
 4    1  0.4895160E-005  0.3355584E+03  0.7818608E-02  0.1068704E+00
          2   -1    0    0  501    0  0.00000000000E+00  0.00000000000E+00  0.15740384083E+04  0.15740384083E+04  0.25500000000E-02 0.  1.
         -2   -1    0    0    0  501 -0.00000000000E+00 -0.00000000000E+00 -0.17883848428E+02  0.17883848609E+02  0.25500000000E-02 0. -1.
    5000001    1    1    2    0    0 -0.60035153208E+02  0.46100556708E+02  0.11543708392E+04  0.11638000324E+04  0.12700000000E+03 0.  0.
   -5000001    1    1    2    0    0  0.60035153208E+02 -0.46100556708E+02  0.40178372068E+03  0.42812222455E+03  0.12700000000E+03 0.  0.
<mgrwt>
<rscale>  0 0.33555843E+03</rscale>
<asrwt>0</asrwt>
<pdfrwt beam="1">  1        2 0.22486270E+00 0.33555843E+03</pdfrwt>
<pdfrwt beam="2">  1       -2 0.25548348E-02 0.33555843E+03</pdfrwt>
<totfact> 0.77295301E+03</totfact>
</mgrwt>
</event>
<event>
 4    1  0.4895160E-005  0.3263813E+03  0.7818608E-02  0.1072749E+00
          2   -1    0    0  501    0  0.00000000000E+00  0.00000000000E+00  0.79441755115E+03  0.79441755116E+03  0.25500000000E-02 0.  1.
         -2   -1    0    0    0  501 -0.00000000000E+00 -0.00000000000E+00 -0.33522920026E+02  0.33522920123E+02  0.25500000000E-02 0. -1.
    5000001    1    1    2    0    0  0.60980424192E+02  0.61504268687E+02  0.24148630996E+03  0.28626216148E+03  0.12700000000E+03 0.  0.
   -5000001    1    1    2    0    0 -0.60980424192E+02 -0.61504268687E+02  0.51940832117E+03  0.54167830979E+03  0.12700000000E+03 0.  0.
<mgrwt>
<rscale>  0 0.32638135E+03</rscale>
<asrwt>0</asrwt>
<pdfrwt beam="1">  1        2 0.11348821E+00 0.32638135E+03</pdfrwt>
<pdfrwt beam="2">  1       -2 0.47889892E-02 0.32638135E+03</pdfrwt>
<totfact> 0.82482704E+03</totfact>
</mgrwt>
</event>
<event>
 4    1  0.4895160E-005  0.4713009E+03  0.7818608E-02  0.1021554E+00
         -2   -1    0    0    0  501 -0.00000000000E+00  0.00000000000E+00  0.85913303399E+02  0.85913303437E+02  0.25500000000E-02 0. -1.
          2   -1    0    0  501    0  0.00000000000E+00 -0.00000000000E+00 -0.64636253288E+03  0.64636253289E+03  0.25500000000E-02 0.  1.
    5000001    1    1    2    0    0  0.13672298910E+03 -0.44770794976E+02 -0.67729018385E+02  0.20350385687E+03  0.12700000000E+03 0.  0.
   -5000001    1    1    2    0    0 -0.13672298910E+03  0.44770794976E+02 -0.49272021110E+03  0.52877197945E+03  0.12700000000E+03 0.  0.
<mgrwt>
<rscale>  0 0.47130092E+03</rscale>
<asrwt>0</asrwt>
<pdfrwt beam="1">  1        2 0.92337502E-01 0.47130092E+03</pdfrwt>
<pdfrwt beam="2">  1       -2 0.12273329E-01 0.47130092E+03</pdfrwt>
<totfact> 0.24197870E+03</totfact>
</mgrwt>
</event>
<event>
 4    1  0.4895160E-005  0.3321632E+03  0.7818608E-02  0.1070184E+00
         -2   -1    0    0    0  501 -0.00000000000E+00  0.00000000000E+00  0.14639943282E+02  0.14639943504E+02  0.25500000000E-02 0. -1.
          2   -1    0    0  501    0  0.00000000000E+00 -0.00000000000E+00 -0.18840981315E+04  0.18840981315E+04  0.25500000000E-02 0.  1.
    5000001    1    1    2    0    0  0.90192959462E+02  0.48049469486E+02 -0.11164464850E+04  0.11282842174E+04  0.12700000000E+03 0.  0.
   -5000001    1    1    2    0    0 -0.90192959462E+02 -0.48049469486E+02 -0.75301170323E+03  0.77045385757E+03  0.12700000000E+03 0.  0.
<mgrwt>
<rscale>  0 0.33216315E+03</rscale>
<asrwt>0</asrwt>
<pdfrwt beam="1">  1        2 0.26915672E+00 0.33216315E+03</pdfrwt>
<pdfrwt beam="2">  1       -2 0.20914217E-02 0.33216315E+03</pdfrwt>
<totfact> 0.72985473E+03</totfact>
</mgrwt>
</event>
<event>
 4    1  0.4895160E-005  0.5181109E+03  0.7818608E-02  0.1009157E+00
         -2   -1    0    0    0  501 -0.00000000000E+00  0.00000000000E+00  0.85563127865E+02  0.85563127903E+02  0.25500000000E-02 0.  1.
          2   -1    0    0  501    0  0.00000000000E+00 -0.00000000000E+00 -0.78433012121E+03  0.78433012121E+03  0.25500000000E-02 0. -1.
    5000001    1    1    2    0    0 -0.11817940366E+03  0.77405085709E+02 -0.53661366277E+02  0.19739924259E+03  0.12700000000E+03 0.  0.
   -5000001    1    1    2    0    0  0.11817940366E+03 -0.77405085709E+02 -0.64510562707E+03  0.67249400653E+03  0.12700000000E+03 0.  0.
<mgrwt>
<rscale>  0 0.51811095E+03</rscale>
<asrwt>0</asrwt>
<pdfrwt beam="1">  1        2 0.11204716E+00 0.51811095E+03</pdfrwt>
<pdfrwt beam="2">  1       -2 0.12223304E-01 0.51811095E+03</pdfrwt>
<totfact> 0.19235999E+03</totfact>
</mgrwt>
</event>
<event>
 4    1  0.4895160E-005  0.3545301E+03  0.7818608E-02  0.1060771E+00
         -2   -1    0    0    0  501 -0.00000000000E+00  0.00000000000E+00  0.13534556855E+03  0.13534556857E+03  0.25500000000E-02 0. -1.
          2   -1    0    0  501    0  0.00000000000E+00 -0.00000000000E+00 -0.23216789155E+03  0.23216789156E+03  0.25500000000E-02 0.  1.
    5000001    1    1    2    0    0 -0.75897342099E+02  0.94519040032E+02 -0.73795472948E+02  0.19044428921E+03  0.12700000000E+03 0.  0.
   -5000001    1    1    2    0    0  0.75897342099E+02 -0.94519040032E+02 -0.23026850054E+02  0.17706917092E+03  0.12700000000E+03 0.  0.
<mgrwt>
<rscale>  0 0.35453008E+03</rscale>
<asrwt>0</asrwt>
<pdfrwt beam="1">  1        2 0.33166841E-01 0.35453008E+03</pdfrwt>
<pdfrwt beam="2">  1       -2 0.19335081E-01 0.35453008E+03</pdfrwt>
<totfact> 0.35116506E+03</totfact>
</mgrwt>
</event>
<event>
 4    1  0.4895160E-005  0.3633713E+03  0.7818608E-02  0.1057257E+00
          2   -1    0    0  501    0  0.00000000000E+00  0.00000000000E+00  0.28937462038E+03  0.28937462039E+03  0.25500000000E-02 0.  1.
         -2   -1    0    0    0  501 -0.00000000000E+00 -0.00000000000E+00 -0.11407245032E+03  0.11407245035E+03  0.25500000000E-02 0. -1.
    5000001    1    1    2    0    0 -0.12431844265E+03  0.19307932499E+02  0.12367650258E+03  0.21737697378E+03  0.12700000000E+03 0.  0.
   -5000001    1    1    2    0    0  0.12431844265E+03 -0.19307932499E+02  0.51625667481E+02  0.18607009696E+03  0.12700000000E+03 0.  0.
<mgrwt>
<rscale>  0 0.36337128E+03</rscale>
<asrwt>0</asrwt>
<pdfrwt beam="1">  1        2 0.41339231E-01 0.36337128E+03</pdfrwt>
<pdfrwt beam="2">  1       -2 0.16296064E-01 0.36337128E+03</pdfrwt>
<totfact> 0.36910996E+03</totfact>
</mgrwt>
</event>
<event>
 4    1  0.4895160E-005  0.4163961E+03  0.7818608E-02  0.1038246E+00
         -2   -1    0    0    0  501 -0.00000000000E+00  0.00000000000E+00  0.15428257646E+02  0.15428257857E+02  0.25500000000E-02 0.  1.
          2   -1    0    0  501    0  0.00000000000E+00 -0.00000000000E+00 -0.28095475941E+04  0.28095475941E+04  0.25500000000E-02 0. -1.
    5000001    1    1    2    0    0  0.15567267461E+03  0.21231238914E+02 -0.10556325318E+04  0.10747901141E+04  0.12700000000E+03 0.  0.
   -5000001    1    1    2    0    0 -0.15567267461E+03 -0.21231238914E+02 -0.17384868046E+04  0.17501857379E+04  0.12700000000E+03 0.  0.
<mgrwt>
<rscale>  0 0.41639608E+03</rscale>
<asrwt>0</asrwt>
<pdfrwt beam="1">  1        2 0.40136361E+00 0.41639608E+03</pdfrwt>
<pdfrwt beam="2">  1       -2 0.22040386E-02 0.41639608E+03</pdfrwt>
<totfact> 0.23109120E+03</totfact>
</mgrwt>
</event>
<event>
 4    1  0.4895160E-005  0.2925328E+03  0.7818608E-02  0.1089034E+00
          2   -1    0    0  501    0  0.00000000000E+00  0.00000000000E+00  0.24871135706E+03  0.24871135707E+03  0.25500000000E-02 0.  1.
         -2   -1    0    0    0  501 -0.00000000000E+00 -0.00000000000E+00 -0.86018856990E+02  0.86018857028E+02  0.25500000000E-02 0. -1.
    5000001    1    1    2    0    0  0.26826768489E+02 -0.66255766178E+02  0.95608771729E+02  0.17429727276E+03  0.12700000000E+03 0.  0.
   -5000001    1    1    2    0    0 -0.26826768489E+02  0.66255766178E+02  0.67083728339E+02  0.16043294134E+03  0.12700000000E+03 0.  0.
<mgrwt>
<rscale>  0 0.29253285E+03</rscale>
<asrwt>0</asrwt>
<pdfrwt beam="1">  1        2 0.35530194E-01 0.29253285E+03</pdfrwt>
<pdfrwt beam="2">  1       -2 0.12288408E-01 0.29253285E+03</pdfrwt>
<totfact> 0.68873180E+03</totfact>
</mgrwt>
</event>
<event>
 4    1  0.4895160E-005  0.3386031E+03  0.7818608E-02  0.1067392E+00
          2   -1    0    0  501    0  0.00000000000E+00  0.00000000000E+00  0.25398511742E+04  0.25398511742E+04  0.25500000000E-02 0.  1.
         -2   -1    0    0    0  501 -0.00000000000E+00 -0.00000000000E+00 -0.11285313805E+02  0.11285314093E+02  0.25500000000E-02 0. -1.
    5000001    1    1    2    0    0 -0.75498637773E+02 -0.80916491202E+02  0.13918096799E+04  0.14019667285E+04  0.12700000000E+03 0.  0.
   -5000001    1    1    2    0    0  0.75498637773E+02  0.80916491202E+02  0.11367561805E+04  0.11491697598E+04  0.12700000000E+03 0.  0.
<mgrwt>
<rscale>  0 0.33860312E+03</rscale>
<asrwt>0</asrwt>
<pdfrwt beam="1">  1        2 0.36283667E+00 0.33860312E+03</pdfrwt>
<pdfrwt beam="2">  1       -2 0.16121842E-02 0.33860312E+03</pdfrwt>
<totfact> 0.50762215E+03</totfact>
</mgrwt>
</event>
<event>
 4    1  0.4895160E-005  0.3003360E+03  0.7818608E-02  0.1085073E+00
          2   -1    0    0  501    0  0.00000000000E+00  0.00000000000E+00  0.18091690665E+03  0.18091690667E+03  0.25500000000E-02 0.  1.
         -2   -1    0    0    0  501 -0.00000000000E+00 -0.00000000000E+00 -0.12464525565E+03  0.12464525567E+03  0.25500000000E-02 0. -1.
    5000001    1    1    2    0    0 -0.17561493550E+02 -0.77920046157E+02  0.34689533273E+02  0.15398799748E+03  0.12700000000E+03 0.  0.
   -5000001    1    1    2    0    0  0.17561493550E+02  0.77920046157E+02  0.21582117731E+02  0.15157416486E+03  0.12700000000E+03 0.  0.
<mgrwt>
<rscale>  0 0.30033604E+03</rscale>
<asrwt>0</asrwt>
<pdfrwt beam="1">  1        2 0.25845272E-01 0.30033604E+03</pdfrwt>
<pdfrwt beam="2">  1       -2 0.17806465E-01 0.30033604E+03</pdfrwt>
<totfact> 0.52988807E+03</totfact>
</mgrwt>
</event>
<event>
 4    1  0.4895160E-005  0.2838993E+03  0.7818608E-02  0.1093578E+00
         -2   -1    0    0    0  501 -0.00000000000E+00  0.00000000000E+00  0.11746094772E+03  0.11746094775E+03  0.25500000000E-02 0. -1.
          2   -1    0    0  501    0  0.00000000000E+00 -0.00000000000E+00 -0.17154380230E+03  0.17154380232E+03  0.25500000000E-02 0.  1.
    5000001    1    1    2    0    0 -0.18519481932E+02 -0.32624222349E+02 -0.79082056743E+02  0.15424098934E+03  0.12700000000E+03 0.  0.
   -5000001    1    1    2    0    0  0.18519481932E+02  0.32624222349E+02  0.24999202161E+02  0.13476376072E+03  0.12700000000E+03 0.  0.
<mgrwt>
<rscale>  0 0.28389926E+03</rscale>
<asrwt>0</asrwt>
<pdfrwt beam="1">  1        2 0.24506257E-01 0.28389926E+03</pdfrwt>
<pdfrwt beam="2">  1       -2 0.16780135E-01 0.28389926E+03</pdfrwt>
<totfact> 0.62022509E+03</totfact>
</mgrwt>
</event>
<event>
 4    1  0.4895160E-005  0.6056863E+03  0.7818608E-02  0.9893679E-01
         -2   -1    0    0    0  501 -0.00000000000E+00  0.00000000000E+00  0.81243382524E+02  0.81243382564E+02  0.25500000000E-02 0. -1.
          2   -1    0    0  501    0  0.00000000000E+00 -0.00000000000E+00 -0.11288792366E+04  0.11288792366E+04  0.25500000000E-02 0.  1.
    5000001    1    1    2    0    0  0.24763156659E+03  0.29228508349E+02 -0.75517575407E+03  0.80535403271E+03  0.12700000000E+03 0.  0.
   -5000001    1    1    2    0    0 -0.24763156659E+03 -0.29228508349E+02 -0.29246009996E+03  0.40476858640E+03  0.12700000000E+03 0.  0.
<mgrwt>
<rscale>  0 0.60568628E+03</rscale>
<asrwt>0</asrwt>
<pdfrwt beam="1">  1        2 0.16126845E+00 0.60568628E+03</pdfrwt>
<pdfrwt beam="2">  1       -2 0.11606198E-01 0.60568628E+03</pdfrwt>
<totfact> 0.12718995E+03</totfact>
</mgrwt>
</event>
<event>
 4    1  0.4895160E-005  0.3660806E+03  0.7818608E-02  0.1056202E+00
          2   -1    0    0  501    0  0.00000000000E+00  0.00000000000E+00  0.80382163672E+03  0.80382163672E+03  0.25500000000E-02 0.  1.
         -2   -1    0    0    0  501 -0.00000000000E+00 -0.00000000000E+00 -0.41680583058E+02  0.41680583136E+02  0.25500000000E-02 0. -1.
    5000001    1    1    2    0    0 -0.12312301000E+03 -0.46982054306E+02  0.37447074339E+03  0.41680202336E+03  0.12700000000E+03 0.  0.
   -5000001    1    1    2    0    0  0.12312301000E+03  0.46982054306E+02  0.38767031027E+03  0.42870019650E+03  0.12700000000E+03 0.  0.
<mgrwt>
<rscale>  0 0.36608062E+03</rscale>
<asrwt>0</asrwt>
<pdfrwt beam="1">  1        2 0.11483165E+00 0.36608062E+03</pdfrwt>
<pdfrwt beam="2">  1       -2 0.59543697E-02 0.36608062E+03</pdfrwt>
<totfact> 0.58352337E+03</totfact>
</mgrwt>
</event>
<event>
 4    1  0.4895160E-005  0.4354282E+03  0.7818608E-02  0.1032159E+00
         -2   -1    0    0    0  501 -0.00000000000E+00  0.00000000000E+00  0.49333226178E+03  0.49333226179E+03  0.25500000000E-02 0. -1.
          2   -1    0    0  501    0  0.00000000000E+00 -0.00000000000E+00 -0.96080143428E+02  0.96080143462E+02  0.25500000000E-02 0.  1.
    5000001    1    1    2    0    0 -0.17128517626E+03  0.38719098309E+02  0.17046991317E+03  0.27572952594E+03  0.12700000000E+03 0.  0.
   -5000001    1    1    2    0    0  0.17128517626E+03 -0.38719098309E+02  0.22678220519E+03  0.31368287931E+03  0.12700000000E+03 0.  0.
<mgrwt>
<rscale>  0 0.43542822E+03</rscale>
<asrwt>0</asrwt>
<pdfrwt beam="1">  1        2 0.13725735E-01 0.43542822E+03</pdfrwt>
<pdfrwt beam="2">  1       -2 0.70476038E-01 0.43542822E+03</pdfrwt>
<totfact> 0.82160041E+02</totfact>
</mgrwt>
</event>
<event>
 4    1  0.4895160E-005  0.7351993E+03  0.7818608E-02  0.9658861E-01
         -2   -1    0    0    0  501 -0.00000000000E+00  0.00000000000E+00  0.27968709131E+03  0.27968709133E+03  0.25500000000E-02 0. -1.
          2   -1    0    0  501    0  0.00000000000E+00 -0.00000000000E+00 -0.48314533816E+03  0.48314533817E+03  0.25500000000E-02 0.  1.
    5000001    1    1    2    0    0  0.34048537577E+03 -0.55300324162E+02 -0.10533797624E+03  0.38237874706E+03  0.12700000000E+03 0.  0.
   -5000001    1    1    2    0    0 -0.34048537577E+03  0.55300324162E+02 -0.98120270605E+02  0.38045368243E+03  0.12700000000E+03 0.  0.
<mgrwt>
<rscale>  0 0.73519933E+03</rscale>
<asrwt>0</asrwt>
<pdfrwt beam="1">  1        2 0.69020762E-01 0.73519933E+03</pdfrwt>
<pdfrwt beam="2">  1       -2 0.39955299E-01 0.73519933E+03</pdfrwt>
<totfact> 0.41649338E+02</totfact>
</mgrwt>
</event>
<event>
 4    1  0.4895160E-005  0.4914712E+03  0.7818608E-02  0.1016029E+00
         -2   -1    0    0    0  501 -0.00000000000E+00  0.00000000000E+00  0.19432998765E+02  0.19432998933E+02  0.25500000000E-02 0. -1.
          2   -1    0    0  501    0  0.00000000000E+00 -0.00000000000E+00 -0.31073944092E+04  0.31073944092E+04  0.25500000000E-02 0.  1.
    5000001    1    1    2    0    0  0.18172854813E+03  0.37057151864E+02 -0.21756810385E+04  0.21872620966E+04  0.12700000000E+03 0.  0.
   -5000001    1    1    2    0    0 -0.18172854813E+03 -0.37057151864E+02 -0.91228037184E+03  0.93956531149E+03  0.12700000000E+03 0.  0.
<mgrwt>
<rscale>  0 0.49147123E+03</rscale>
<asrwt>0</asrwt>
<pdfrwt beam="1">  1        2 0.44391317E+00 0.49147123E+03</pdfrwt>
<pdfrwt beam="2">  1       -2 0.27761447E-02 0.49147123E+03</pdfrwt>
<totfact> 0.11241765E+03</totfact>
</mgrwt>
</event>
<event>
 4    1  0.4895160E-005  0.3706926E+03  0.7818608E-02  0.1054428E+00
         -2   -1    0    0    0  501 -0.00000000000E+00  0.00000000000E+00  0.37409489312E+03  0.37409489313E+03  0.25500000000E-02 0. -1.
          2   -1    0    0  501    0  0.00000000000E+00 -0.00000000000E+00 -0.91830330711E+02  0.91830330747E+02  0.25500000000E-02 0.  1.
    5000001    1    1    2    0    0 -0.10968007604E+03  0.76143685975E+02  0.11609880307E+03  0.21779695147E+03  0.12700000000E+03 0.  0.
   -5000001    1    1    2    0    0  0.10968007604E+03 -0.76143685975E+02  0.16616575933E+03  0.24812827241E+03  0.12700000000E+03 0.  0.
<mgrwt>
<rscale>  0 0.37069264E+03</rscale>
<asrwt>0</asrwt>
<pdfrwt beam="1">  1        2 0.13118619E-01 0.37069264E+03</pdfrwt>
<pdfrwt beam="2">  1       -2 0.53442128E-01 0.37069264E+03</pdfrwt>
<totfact> 0.15485783E+03</totfact>
</mgrwt>
</event>
<event>
 4    1  0.4895160E-005  0.4084169E+03  0.7818608E-02  0.1040904E+00
          2   -1    0    0  501    0  0.00000000000E+00  0.00000000000E+00  0.39104946507E+03  0.39104946508E+03  0.25500000000E-02 0.  1.
         -2   -1    0    0    0  501 -0.00000000000E+00 -0.00000000000E+00 -0.10663889127E+03  0.10663889130E+03  0.25500000000E-02 0. -1.
    5000001    1    1    2    0    0 -0.15072907817E+03 -0.32462838885E+02  0.19389073182E+03  0.27838050722E+03  0.12700000000E+03 0.  0.
   -5000001    1    1    2    0    0  0.15072907817E+03  0.32462838885E+02  0.90519841986E+02  0.21930784917E+03  0.12700000000E+03 0.  0.
<mgrwt>
<rscale>  0 0.40841685E+03</rscale>
<asrwt>0</asrwt>
<pdfrwt beam="1">  1        2 0.55864209E-01 0.40841685E+03</pdfrwt>
<pdfrwt beam="2">  1       -2 0.15234127E-01 0.40841685E+03</pdfrwt>
<totfact> 0.29830423E+03</totfact>
</mgrwt>
</event>
<event>
 4    1  0.4895160E-005  0.3382041E+03  0.7818608E-02  0.1067563E+00
         -2   -1    0    0    0  501 -0.00000000000E+00  0.00000000000E+00  0.74609963810E+01  0.74609968168E+01  0.25500000000E-02 0. -1.
          2   -1    0    0  501    0  0.00000000000E+00 -0.00000000000E+00 -0.38326644962E+04  0.38326644963E+04  0.25500000000E-02 0.  1.
    5000001    1    1    2    0    0  0.39146773786E+02  0.10304310737E+03 -0.17107141300E+04  0.17189596233E+04  0.12700000000E+03 0.  0.
   -5000001    1    1    2    0    0 -0.39146773786E+02 -0.10304310737E+03 -0.21144893698E+04  0.21211658698E+04  0.12700000000E+03 0.  0.
<mgrwt>
<rscale>  0 0.33820406E+03</rscale>
<asrwt>0</asrwt>
<pdfrwt beam="1">  1        2 0.54752224E+00 0.33820406E+03</pdfrwt>
<pdfrwt beam="2">  1       -2 0.10658591E-02 0.33820406E+03</pdfrwt>
<totfact> 0.17824941E+03</totfact>
</mgrwt>
</event>
<event>
 4    1  0.4895160E-005  0.3652247E+03  0.7818608E-02  0.1056534E+00
          2   -1    0    0  501    0  0.00000000000E+00  0.00000000000E+00  0.54672421377E+02  0.54672421437E+02  0.25500000000E-02 0.  1.
         -2   -1    0    0    0  501 -0.00000000000E+00 -0.00000000000E+00 -0.60994677366E+03  0.60994677367E+03  0.25500000000E-02 0. -1.
    5000001    1    1    2    0    0 -0.36624994726E+02 -0.11626636015E+03 -0.18925235649E+03  0.25846607356E+03  0.12700000000E+03 0.  0.
   -5000001    1    1    2    0    0  0.36624994726E+02  0.11626636015E+03 -0.36602199579E+03  0.40615312155E+03  0.12700000000E+03 0.  0.
<mgrwt>
<rscale>  0 0.36522468E+03</rscale>
<asrwt>0</asrwt>
<pdfrwt beam="1">  1        2 0.78103463E-02 0.36522468E+03</pdfrwt>
<pdfrwt beam="2">  1       -2 0.87135249E-01 0.36522468E+03</pdfrwt>
<totfact> 0.10387284E+03</totfact>
</mgrwt>
</event>
<event>
 4    1  0.4895160E-005  0.3102946E+03  0.7818608E-02  0.1080205E+00
         -2   -1    0    0    0  501 -0.00000000000E+00  0.00000000000E+00  0.40067748929E+02  0.40067749010E+02  0.25500000000E-02 0. -1.
          2   -1    0    0  501    0  0.00000000000E+00 -0.00000000000E+00 -0.60074969771E+03  0.60074969772E+03  0.25500000000E-02 0.  1.
    5000001    1    1    2    0    0 -0.65866581647E+02  0.55307997879E+02 -0.32852266005E+03  0.36256519327E+03  0.12700000000E+03 0.  0.
   -5000001    1    1    2    0    0  0.65866581647E+02 -0.55307997879E+02 -0.23215928873E+03  0.27825225345E+03  0.12700000000E+03 0.  0.
<mgrwt>
<rscale>  0 0.31029462E+03</rscale>
<asrwt>0</asrwt>
<pdfrwt beam="1">  1        2 0.85821380E-01 0.31029462E+03</pdfrwt>
<pdfrwt beam="2">  1       -2 0.57239645E-02 0.31029462E+03</pdfrwt>
<totfact> 0.87464517E+03</totfact>
</mgrwt>
</event>
<event>
 4    1  0.4895160E-005  0.7666200E+03  0.7818608E-02  0.9609631E-01
         -2   -1    0    0    0  501 -0.00000000000E+00  0.00000000000E+00  0.69122856259E+02  0.69122856306E+02  0.25500000000E-02 0. -1.
          2   -1    0    0  501    0  0.00000000000E+00 -0.00000000000E+00 -0.21255854634E+04  0.21255854634E+04  0.25500000000E-02 0.  1.
    5000001    1    1    2    0    0  0.32524894271E+03  0.15066760147E+03 -0.89063815189E+03  0.96842806572E+03  0.12700000000E+03 0.  0.
   -5000001    1    1    2    0    0 -0.32524894271E+03 -0.15066760147E+03 -0.11658244552E+04  0.12262802540E+04  0.12700000000E+03 0.  0.
<mgrwt>
<rscale>  0 0.76661995E+03</rscale>
<asrwt>0</asrwt>
<pdfrwt beam="1">  1        2 0.30365503E+00 0.76661995E+03</pdfrwt>
<pdfrwt beam="2">  1       -2 0.98746951E-02 0.76661995E+03</pdfrwt>
<totfact> 0.49468061E+02</totfact>
</mgrwt>
</event>
<event>
 4    1  0.4895160E-005  0.7252129E+03  0.7818608E-02  0.9675060E-01
         -2   -1    0    0    0  501 -0.00000000000E+00  0.00000000000E+00  0.32917362386E+02  0.32917362485E+02  0.25500000000E-02 0. -1.
          2   -1    0    0  501    0  0.00000000000E+00 -0.00000000000E+00 -0.39943496590E+04  0.39943496590E+04  0.25500000000E-02 0.  1.
    5000001    1    1    2    0    0  0.15070368239E+03  0.20369490524E+03 -0.72476437486E+03  0.77821308995E+03  0.12700000000E+03 0.  0.
   -5000001    1    1    2    0    0 -0.15070368239E+03 -0.20369490524E+03 -0.32366679218E+04  0.32490539315E+04  0.12700000000E+03 0.  0.
<mgrwt>
<rscale>  0 0.72521295E+03</rscale>
<asrwt>0</asrwt>
<pdfrwt beam="1">  1        2 0.57062107E+00 0.72521295E+03</pdfrwt>
<pdfrwt beam="2">  1       -2 0.47024829E-02 0.72521295E+03</pdfrwt>
<totfact> 0.14232663E+02</totfact>
</mgrwt>
</event>
<event>
 4    1  0.4895160E-005  0.3426272E+03  0.7818608E-02  0.1065682E+00
          2   -1    0    0  501    0  0.00000000000E+00  0.00000000000E+00  0.34137519314E+03  0.34137519315E+03  0.25500000000E-02 0.  1.
         -2   -1    0    0    0  501 -0.00000000000E+00 -0.00000000000E+00 -0.85970932449E+02  0.85970932487E+02  0.25500000000E-02 0. -1.
    5000001    1    1    2    0    0 -0.26428857982E+02 -0.10733861556E+03  0.88274403501E+02  0.19010900357E+03  0.12700000000E+03 0.  0.
   -5000001    1    1    2    0    0  0.26428857982E+02  0.10733861556E+03  0.16712985719E+03  0.23723712207E+03  0.12700000000E+03 0.  0.
<mgrwt>
<rscale>  0 0.34262717E+03</rscale>
<asrwt>0</asrwt>
<pdfrwt beam="1">  1        2 0.48767885E-01 0.34262717E+03</pdfrwt>
<pdfrwt beam="2">  1       -2 0.12281562E-01 0.34262717E+03</pdfrwt>
<totfact> 0.49162427E+03</totfact>
</mgrwt>
</event>
<event>
 4    1  0.4895160E-005  0.4482975E+03  0.7818608E-02  0.1028231E+00
         -2   -1    0    0    0  501 -0.00000000000E+00  0.00000000000E+00  0.15609303458E+04  0.15609303458E+04  0.25500000000E-02 0. -1.
          2   -1    0    0  501    0  0.00000000000E+00 -0.00000000000E+00 -0.32187639275E+02  0.32187639376E+02  0.25500000000E-02 0.  1.
    5000001    1    1    2    0    0  0.18489029201E+02 -0.14556654639E+03  0.11629921023E+04  0.11790721325E+04  0.12700000000E+03 0.  0.
   -5000001    1    1    2    0    0 -0.18489029201E+02  0.14556654639E+03  0.36575060426E+03  0.41404585271E+03  0.12700000000E+03 0.  0.
<mgrwt>
<rscale>  0 0.44829750E+03</rscale>
<asrwt>0</asrwt>
<pdfrwt beam="1">  1        2 0.45982329E-02 0.44829750E+03</pdfrwt>
<pdfrwt beam="2">  1       -2 0.22299011E+00 0.44829750E+03</pdfrwt>
<totfact> 0.18167382E+02</totfact>
</mgrwt>
</event>
<event>
 4    1  0.4895160E-005  0.4536921E+03  0.7818608E-02  0.1026627E+00
         -2   -1    0    0    0  501 -0.00000000000E+00  0.00000000000E+00  0.22077714507E+02  0.22077714654E+02  0.25500000000E-02 0. -1.
          2   -1    0    0  501    0  0.00000000000E+00 -0.00000000000E+00 -0.23308174715E+04  0.23308174715E+04  0.25500000000E-02 0.  1.
    5000001    1    1    2    0    0  0.93543675364E+02 -0.11738236833E+03 -0.56760412633E+03  0.60069333592E+03  0.12700000000E+03 0.  0.
   -5000001    1    1    2    0    0 -0.93543675364E+02  0.11738236833E+03 -0.17411356307E+04  0.17522018503E+04  0.12700000000E+03 0.  0.
<mgrwt>
<rscale>  0 0.45369207E+03</rscale>
<asrwt>0</asrwt>
<pdfrwt beam="1">  1        2 0.33297377E+00 0.45369207E+03</pdfrwt>
<pdfrwt beam="2">  1       -2 0.31539607E-02 0.45369207E+03</pdfrwt>
<totfact> 0.23652663E+03</totfact>
</mgrwt>
</event>
<event>
 4    1  0.4895160E-005  0.4385685E+03  0.7818608E-02  0.1031187E+00
         -2   -1    0    0    0  501 -0.00000000000E+00  0.00000000000E+00  0.16768689653E+02  0.16768689847E+02  0.25500000000E-02 0. -1.
          2   -1    0    0  501    0  0.00000000000E+00 -0.00000000000E+00 -0.28675810541E+04  0.28675810541E+04  0.25500000000E-02 0.  1.
    5000001    1    1    2    0    0  0.17710437226E+03  0.13114855489E+02 -0.12908449558E+04  0.13091782377E+04  0.12700000000E+03 0.  0.
   -5000001    1    1    2    0    0 -0.17710437226E+03 -0.13114855489E+02 -0.15599674086E+04  0.15751715062E+04  0.12700000000E+03 0.  0.
<mgrwt>
<rscale>  0 0.43856848E+03</rscale>
<asrwt>0</asrwt>
<pdfrwt beam="1">  1        2 0.40965412E+00 0.43856848E+03</pdfrwt>
<pdfrwt beam="2">  1       -2 0.23955289E-02 0.43856848E+03</pdfrwt>
<totfact> 0.18985401E+03</totfact>
</mgrwt>
</event>
<event>
 4    1  0.4895160E-005  0.3656082E+03  0.7818608E-02  0.1056385E+00
         -2   -1    0    0    0  501 -0.00000000000E+00  0.00000000000E+00  0.45642141525E+03  0.45642141526E+03  0.25500000000E-02 0. -1.
          2   -1    0    0  501    0  0.00000000000E+00 -0.00000000000E+00 -0.73215966355E+02  0.73215966400E+02  0.25500000000E-02 0.  1.
    5000001    1    1    2    0    0  0.10453650752E+03  0.83082025161E+01  0.76698149253E+02  0.18168245301E+03  0.12700000000E+03 0.  0.
   -5000001    1    1    2    0    0 -0.10453650752E+03 -0.83082025161E+01  0.30650729964E+03  0.34795492865E+03  0.12700000000E+03 0.  0.
<mgrwt>
<rscale>  0 0.36560818E+03</rscale>
<asrwt>0</asrwt>
<pdfrwt beam="1">  1        2 0.10459423E-01 0.36560818E+03</pdfrwt>
<pdfrwt beam="2">  1       -2 0.65203062E-01 0.36560818E+03</pdfrwt>
<totfact> 0.13539042E+03</totfact>
</mgrwt>
</event>
<event>
 4    1  0.4895160E-005  0.5530359E+03  0.7818608E-02  0.1000794E+00
          2   -1    0    0  501    0  0.00000000000E+00  0.00000000000E+00  0.37398372475E+03  0.37398372476E+03  0.25500000000E-02 0.  1.
         -2   -1    0    0    0  501 -0.00000000000E+00 -0.00000000000E+00 -0.20445321591E+03  0.20445321592E+03  0.25500000000E-02 0. -1.
    5000001    1    1    2    0    0  0.19814021074E+03 -0.81928189656E+02  0.21010856120E+03  0.32595456564E+03  0.12700000000E+03 0.  0.
   -5000001    1    1    2    0    0 -0.19814021074E+03  0.81928189656E+02 -0.40578052356E+02  0.25248237504E+03  0.12700000000E+03 0.  0.
<mgrwt>
<rscale>  0 0.55303589E+03</rscale>
<asrwt>0</asrwt>
<pdfrwt beam="1">  1        2 0.53426246E-01 0.55303589E+03</pdfrwt>
<pdfrwt beam="2">  1       -2 0.29207602E-01 0.55303589E+03</pdfrwt>
<totfact> 0.10065391E+03</totfact>
</mgrwt>
</event>
<event>
 4    1  0.4895160E-005  0.4880314E+03  0.7818608E-02  0.1016951E+00
          2   -1    0    0  501    0  0.00000000000E+00  0.00000000000E+00  0.62125267532E+03  0.62125267533E+03  0.25500000000E-02 0.  1.
         -2   -1    0    0    0  501 -0.00000000000E+00 -0.00000000000E+00 -0.95844525396E+02  0.95844525430E+02  0.25500000000E-02 0. -1.
    5000001    1    1    2    0    0  0.19176505276E+03  0.18660531658E+02  0.14614505503E+03  0.27314726433E+03  0.12700000000E+03 0.  0.
   -5000001    1    1    2    0    0 -0.19176505276E+03 -0.18660531658E+02  0.37926309489E+03  0.44394993642E+03  0.12700000000E+03 0.  0.
<mgrwt>
<rscale>  0 0.48803142E+03</rscale>
<asrwt>0</asrwt>
<pdfrwt beam="1">  1        2 0.88750384E-01 0.48803142E+03</pdfrwt>
<pdfrwt beam="2">  1       -2 0.13692075E-01 0.48803142E+03</pdfrwt>
<totfact> 0.21175167E+03</totfact>
</mgrwt>
</event>
<event>
 4    1  0.4895160E-005  0.3099223E+03  0.7818608E-02  0.1080383E+00
         -2   -1    0    0    0  501 -0.00000000000E+00  0.00000000000E+00  0.17666242958E+03  0.17666242960E+03  0.25500000000E-02 0. -1.
          2   -1    0    0  501    0  0.00000000000E+00 -0.00000000000E+00 -0.13592564822E+03  0.13592564824E+03  0.25500000000E-02 0.  1.
    5000001    1    1    2    0    0  0.76240773483E+02  0.42977882050E+02  0.52662418414E+01  0.15432591224E+03  0.12700000000E+03 0.  0.
   -5000001    1    1    2    0    0 -0.76240773483E+02 -0.42977882050E+02  0.35470539523E+02  0.15826216560E+03  0.12700000000E+03 0.  0.
<mgrwt>
<rscale>  0 0.30992228E+03</rscale>
<asrwt>0</asrwt>
<pdfrwt beam="1">  1        2 0.19417950E-01 0.30992228E+03</pdfrwt>
<pdfrwt beam="2">  1       -2 0.25237490E-01 0.30992228E+03</pdfrwt>
<totfact> 0.40144774E+03</totfact>
</mgrwt>
</event>
<event>
 4    1  0.4895160E-005  0.3895756E+03  0.7818608E-02  0.1047450E+00
         -2   -1    0    0    0  501 -0.00000000000E+00  0.00000000000E+00  0.27565150052E+02  0.27565150170E+02  0.25500000000E-02 0. -1.
          2   -1    0    0  501    0  0.00000000000E+00 -0.00000000000E+00 -0.13764587070E+04  0.13764587070E+04  0.25500000000E-02 0.  1.
    5000001    1    1    2    0    0  0.11705533324E+03  0.59195452384E+02 -0.42982053113E+03  0.46699115795E+03  0.12700000000E+03 0.  0.
   -5000001    1    1    2    0    0 -0.11705533324E+03 -0.59195452384E+02 -0.91907302578E+03  0.93703269919E+03  0.12700000000E+03 0.  0.
<mgrwt>
<rscale>  0 0.38957562E+03</rscale>
<asrwt>0</asrwt>
<pdfrwt beam="1">  1        2 0.19663691E+00 0.38957562E+03</pdfrwt>
<pdfrwt beam="2">  1       -2 0.39378795E-02 0.38957562E+03</pdfrwt>
<totfact> 0.51027105E+03</totfact>
</mgrwt>
</event>
<event>
 4    1  0.4895160E-005  0.3876333E+03  0.7818608E-02  0.1048148E+00
          2   -1    0    0  501    0  0.00000000000E+00  0.00000000000E+00  0.50023869879E+03  0.50023869879E+03  0.25500000000E-02 0.  1.
         -2   -1    0    0    0  501 -0.00000000000E+00 -0.00000000000E+00 -0.75093929110E+02  0.75093929153E+02  0.25500000000E-02 0. -1.
    5000001    1    1    2    0    0 -0.14023372062E+03 -0.39113067114E+02  0.23559266178E+03  0.30467725663E+03  0.12700000000E+03 0.  0.
   -5000001    1    1    2    0    0  0.14023372062E+03  0.39113067114E+02  0.18955210789E+03  0.27065537132E+03  0.12700000000E+03 0.  0.
<mgrwt>
<rscale>  0 0.38763328E+03</rscale>
<asrwt>0</asrwt>
<pdfrwt beam="1">  1        2 0.71462672E-01 0.38763328E+03</pdfrwt>
<pdfrwt beam="2">  1       -2 0.10727704E-01 0.38763328E+03</pdfrwt>
<totfact> 0.40349898E+03</totfact>
</mgrwt>
</event>
<event>
 4    1  0.4895160E-005  0.3850962E+03  0.7818608E-02  0.1049066E+00
          2   -1    0    0  501    0  0.00000000000E+00  0.00000000000E+00  0.10955907083E+04  0.10955907083E+04  0.25500000000E-02 0.  1.
         -2   -1    0    0    0  501 -0.00000000000E+00 -0.00000000000E+00 -0.33839982149E+02  0.33839982245E+02  0.25500000000E-02 0. -1.
    5000001    1    1    2    0    0  0.13129311986E+03  0.52012305696E+02  0.62374113634E+03  0.65201623325E+03  0.12700000000E+03 0.  0.
   -5000001    1    1    2    0    0 -0.13129311986E+03 -0.52012305696E+02  0.43800958983E+03  0.47741445731E+03  0.12700000000E+03 0.  0.
<mgrwt>
<rscale>  0 0.38509620E+03</rscale>
<asrwt>0</asrwt>
<pdfrwt beam="1">  1        2 0.15651297E+00 0.38509620E+03</pdfrwt>
<pdfrwt beam="2">  1       -2 0.48342827E-02 0.38509620E+03</pdfrwt>
<totfact> 0.53118414E+03</totfact>
</mgrwt>
</event>
<event>
 4    1  0.4895160E-005  0.3350099E+03  0.7818608E-02  0.1068941E+00
          2   -1    0    0  501    0  0.00000000000E+00  0.00000000000E+00  0.11109892181E+04  0.11109892181E+04  0.25500000000E-02 0.  1.
         -2   -1    0    0    0  501 -0.00000000000E+00 -0.00000000000E+00 -0.25254886049E+02  0.25254886177E+02  0.25500000000E-02 0. -1.
    5000001    1    1    2    0    0  0.62069694667E+02  0.57491706611E+02  0.77713735901E+03  0.79197816769E+03  0.12700000000E+03 0.  0.
   -5000001    1    1    2    0    0 -0.62069694667E+02 -0.57491706611E+02  0.30859697301E+03  0.34426593656E+03  0.12700000000E+03 0.  0.
<mgrwt>
<rscale>  0 0.33500989E+03</rscale>
<asrwt>0</asrwt>
<pdfrwt beam="1">  1        2 0.15871269E+00 0.33500989E+03</pdfrwt>
<pdfrwt beam="2">  1       -2 0.36078421E-02 0.33500989E+03</pdfrwt>
<totfact> 0.80987380E+03</totfact>
</mgrwt>
</event>
<event>
 4    1  0.4895160E-005  0.3159556E+03  0.7818608E-02  0.1077526E+00
          2   -1    0    0  501    0  0.00000000000E+00  0.00000000000E+00  0.19602570016E+04  0.19602570016E+04  0.25500000000E-02 0. -1.
         -2   -1    0    0    0  501 -0.00000000000E+00 -0.00000000000E+00 -0.12731483547E+02  0.12731483803E+02  0.25500000000E-02 0.  1.
    5000001    1    1    2    0    0  0.67600287718E+02 -0.55093472818E+02  0.75539309694E+03  0.77094281277E+03  0.12700000000E+03 0.  0.
   -5000001    1    1    2    0    0 -0.67600287718E+02  0.55093472818E+02  0.11921324211E+04  0.12020456726E+04  0.12700000000E+03 0.  0.
<mgrwt>
<rscale>  0 0.31595557E+03</rscale>
<asrwt>0</asrwt>
<pdfrwt beam="1">  1        2 0.28003651E+00 0.31595557E+03</pdfrwt>
<pdfrwt beam="2">  1       -2 0.18187847E-02 0.31595557E+03</pdfrwt>
<totfact> 0.82280918E+03</totfact>
</mgrwt>
</event>
<event>
 4    1  0.4895160E-005  0.6554275E+03  0.7818608E-02  0.9796648E-01
         -2   -1    0    0    0  501 -0.00000000000E+00  0.00000000000E+00  0.11655417849E+03  0.11655417852E+03  0.25500000000E-02 0. -1.
          2   -1    0    0  501    0  0.00000000000E+00 -0.00000000000E+00 -0.92142816049E+03  0.92142816049E+03  0.25500000000E-02 0.  1.
    5000001    1    1    2    0    0 -0.24893227664E+03 -0.10205889111E+03 -0.18481019060E+03  0.35023863602E+03  0.12700000000E+03 0.  0.
   -5000001    1    1    2    0    0  0.24893227664E+03  0.10205889111E+03 -0.62006379139E+03  0.68774370299E+03  0.12700000000E+03 0.  0.
<mgrwt>
<rscale>  0 0.65542750E+03</rscale>
<asrwt>0</asrwt>
<pdfrwt beam="1">  1        2 0.13163259E+00 0.65542750E+03</pdfrwt>
<pdfrwt beam="2">  1       -2 0.16650597E-01 0.65542750E+03</pdfrwt>
<totfact> 0.92705652E+02</totfact>
</mgrwt>
</event>
<event>
 4    1  0.4895160E-005  0.7371540E+03  0.7818608E-02  0.9655722E-01
          2   -1    0    0  501    0  0.00000000000E+00  0.00000000000E+00  0.28206136081E+03  0.28206136082E+03  0.25500000000E-02 0.  1.
         -2   -1    0    0    0  501 -0.00000000000E+00 -0.00000000000E+00 -0.48162920250E+03  0.48162920251E+03  0.25500000000E-02 0. -1.
    5000001    1    1    2    0    0  0.30562872618E+03  0.12779567473E+03  0.37088552475E+01  0.35480051910E+03  0.12700000000E+03 0.  0.
   -5000001    1    1    2    0    0 -0.30562872618E+03 -0.12779567473E+03 -0.20327669694E+03  0.40889004423E+03  0.12700000000E+03 0.  0.
<mgrwt>
<rscale>  0 0.73715395E+03</rscale>
<asrwt>0</asrwt>
<pdfrwt beam="1">  1        2 0.40294480E-01 0.73715395E+03</pdfrwt>
<pdfrwt beam="2">  1       -2 0.68804172E-01 0.73715395E+03</pdfrwt>
<totfact> 0.24871929E+02</totfact>
</mgrwt>
</event>
<event>
 4    1  0.4895160E-005  0.4213697E+03  0.7818608E-02  0.1036621E+00
         -2   -1    0    0    0  501 -0.00000000000E+00  0.00000000000E+00  0.14453276616E+03  0.14453276618E+03  0.25500000000E-02 0. -1.
          2   -1    0    0  501    0  0.00000000000E+00 -0.00000000000E+00 -0.30711448587E+03  0.30711448588E+03  0.25500000000E-02 0.  1.
    5000001    1    1    2    0    0 -0.13620295991E+03 -0.48143368949E+02 -0.17343347166E+03  0.25899266274E+03  0.12700000000E+03 0.  0.
   -5000001    1    1    2    0    0  0.13620295991E+03  0.48143368949E+02  0.10851751950E+02  0.19265458931E+03  0.12700000000E+03 0.  0.
<mgrwt>
<rscale>  0 0.42136970E+03</rscale>
<asrwt>0</asrwt>
<pdfrwt beam="1">  1        2 0.43873498E-01 0.42136970E+03</pdfrwt>
<pdfrwt beam="2">  1       -2 0.20647538E-01 0.42136970E+03</pdfrwt>
<totfact> 0.23163317E+03</totfact>
</mgrwt>
</event>
<event>
 4    1  0.4895160E-005  0.3734468E+03  0.7818608E-02  0.1053383E+00
          2   -1    0    0  501    0  0.00000000000E+00  0.00000000000E+00  0.27550760717E+04  0.27550760717E+04  0.25500000000E-02 0.  1.
         -2   -1    0    0    0  501 -0.00000000000E+00 -0.00000000000E+00 -0.12655050055E+02  0.12655050312E+02  0.25500000000E-02 0. -1.
    5000001    1    1    2    0    0 -0.99500987786E+02  0.39235006787E+02  0.20042943098E+04  0.20111599919E+04  0.12700000000E+03 0.  0.
   -5000001    1    1    2    0    0  0.99500987786E+02 -0.39235006787E+02  0.73812671177E+03  0.75657113013E+03  0.12700000000E+03 0.  0.
<mgrwt>
<rscale>  0 0.37344679E+03</rscale>
<asrwt>0</asrwt>
<pdfrwt beam="1">  1        2 0.39358260E+00 0.37344679E+03</pdfrwt>
<pdfrwt beam="2">  1       -2 0.18078629E-02 0.37344679E+03</pdfrwt>
<totfact> 0.33216896E+03</totfact>
</mgrwt>
</event>
<event>
 4    1  0.4895160E-005  0.4931724E+03  0.7818608E-02  0.1015577E+00
         -2   -1    0    0    0  501 -0.00000000000E+00  0.00000000000E+00  0.82942507968E+02  0.82942508008E+02  0.25500000000E-02 0. -1.
          2   -1    0    0  501    0  0.00000000000E+00 -0.00000000000E+00 -0.73309528222E+03  0.73309528222E+03  0.25500000000E-02 0.  1.
    5000001    1    1    2    0    0  0.18974528943E+03  0.90047657987E+02 -0.28578342790E+03  0.37671344976E+03  0.12700000000E+03 0.  0.
   -5000001    1    1    2    0    0 -0.18974528943E+03 -0.90047657987E+02 -0.36436934635E+03  0.43932434047E+03  0.12700000000E+03 0.  0.
<mgrwt>
<rscale>  0 0.49317243E+03</rscale>
<asrwt>0</asrwt>
<pdfrwt beam="1">  1        2 0.10472789E+00 0.49317243E+03</pdfrwt>
<pdfrwt beam="2">  1       -2 0.11848930E-01 0.49317243E+03</pdfrwt>
<totfact> 0.22020660E+03</totfact>
</mgrwt>
</event>
<event>
 4    1  0.4895160E-005  0.4161908E+03  0.7818608E-02  0.1038313E+00
         -2   -1    0    0    0  501 -0.00000000000E+00  0.00000000000E+00  0.33440602979E+02  0.33440603076E+02  0.25500000000E-02 0. -1.
          2   -1    0    0  501    0  0.00000000000E+00 -0.00000000000E+00 -0.12949434620E+04  0.12949434620E+04  0.25500000000E-02 0.  1.
    5000001    1    1    2    0    0 -0.86230236291E+01 -0.15189047738E+03 -0.83336245345E+03  0.85660203857E+03  0.12700000000E+03 0.  0.
   -5000001    1    1    2    0    0  0.86230236291E+01  0.15189047738E+03 -0.42814040556E+03  0.47178202650E+03  0.12700000000E+03 0.  0.
<mgrwt>
<rscale>  0 0.41619077E+03</rscale>
<asrwt>0</asrwt>
<pdfrwt beam="1">  1        2 0.18499189E+00 0.41619077E+03</pdfrwt>
<pdfrwt beam="2">  1       -2 0.47772298E-02 0.41619077E+03</pdfrwt>
<totfact> 0.41993823E+03</totfact>
</mgrwt>
</event>
<event>
 4    1  0.4895160E-005  0.3356833E+03  0.7818608E-02  0.1068650E+00
         -2   -1    0    0    0  501 -0.00000000000E+00  0.00000000000E+00  0.34083563185E+02  0.34083563281E+02  0.25500000000E-02 0. -1.
          2   -1    0    0  501    0  0.00000000000E+00 -0.00000000000E+00 -0.82652190192E+03  0.82652190192E+03  0.25500000000E-02 0.  1.
    5000001    1    1    2    0    0 -0.60668400524E+02 -0.90719493125E+02 -0.42557712969E+03  0.45733529775E+03  0.12700000000E+03 0.  0.
   -5000001    1    1    2    0    0  0.60668400524E+02  0.90719493125E+02 -0.36686120904E+03  0.40327016745E+03  0.12700000000E+03 0.  0.
<mgrwt>
<rscale>  0 0.33568325E+03</rscale>
<asrwt>0</asrwt>
<pdfrwt beam="1">  1        2 0.11807455E+00 0.33568325E+03</pdfrwt>
<pdfrwt beam="2">  1       -2 0.48690810E-02 0.33568325E+03</pdfrwt>
<totfact> 0.76586249E+03</totfact>
</mgrwt>
</event>
<event>
 4    1  0.4895160E-005  0.3737505E+03  0.7818608E-02  0.1053268E+00
          2   -1    0    0  501    0  0.00000000000E+00  0.00000000000E+00  0.47846266089E+02  0.47846266157E+02  0.25500000000E-02 0.  1.
         -2   -1    0    0    0  501 -0.00000000000E+00 -0.00000000000E+00 -0.72988691472E+03  0.72988691472E+03  0.25500000000E-02 0. -1.
    5000001    1    1    2    0    0 -0.29167298302E+02  0.12316882906E+03 -0.23146056821E+03  0.29278710077E+03  0.12700000000E+03 0.  0.
   -5000001    1    1    2    0    0  0.29167298302E+02 -0.12316882906E+03 -0.45058008041E+03  0.48494608010E+03  0.12700000000E+03 0.  0.
<mgrwt>
<rscale>  0 0.37375052E+03</rscale>
<asrwt>0</asrwt>
<pdfrwt beam="1">  1        2 0.68351813E-02 0.37375052E+03</pdfrwt>
<pdfrwt beam="2">  1       -2 0.10426955E+00 0.37375052E+03</pdfrwt>
<totfact> 0.81556966E+02</totfact>
</mgrwt>
</event>
<event>
 4    1  0.4895160E-005  0.3011618E+03  0.7818608E-02  0.1084661E+00
          2   -1    0    0  501    0  0.00000000000E+00  0.00000000000E+00  0.45864347187E+03  0.45864347187E+03  0.25500000000E-02 0.  1.
         -2   -1    0    0    0  501 -0.00000000000E+00 -0.00000000000E+00 -0.49438403756E+02  0.49438403822E+02  0.25500000000E-02 0. -1.
    5000001    1    1    2    0    0  0.80492259252E+02  0.10735688896E+01  0.21825061183E+03  0.26503299024E+03  0.12700000000E+03 0.  0.
   -5000001    1    1    2    0    0 -0.80492259252E+02 -0.10735688896E+01  0.19095445628E+03  0.24304888546E+03  0.12700000000E+03 0.  0.
<mgrwt>
<rscale>  0 0.30116176E+03</rscale>
<asrwt>0</asrwt>
<pdfrwt beam="1">  1        2 0.65520497E-01 0.30116176E+03</pdfrwt>
<pdfrwt beam="2">  1       -2 0.70626290E-02 0.30116176E+03</pdfrwt>
<totfact> 0.85457613E+03</totfact>
</mgrwt>
</event>
<event>
 4    1  0.4895160E-005  0.3982496E+03  0.7818608E-02  0.1044387E+00
          2   -1    0    0  501    0  0.00000000000E+00  0.00000000000E+00  0.79111695336E+03  0.79111695336E+03  0.25500000000E-02 0.  1.
         -2   -1    0    0    0  501 -0.00000000000E+00 -0.00000000000E+00 -0.50119875357E+02  0.50119875421E+02  0.25500000000E-02 0. -1.
    5000001    1    1    2    0    0 -0.66140086425E+02  0.12665078650E+03  0.25276068265E+03  0.31690991692E+03  0.12700000000E+03 0.  0.
   -5000001    1    1    2    0    0  0.66140086425E+02 -0.12665078650E+03  0.48823639536E+03  0.52432691186E+03  0.12700000000E+03 0.  0.
<mgrwt>
<rscale>  0 0.39824959E+03</rscale>
<asrwt>0</asrwt>
<pdfrwt beam="1">  1        2 0.11301670E+00 0.39824959E+03</pdfrwt>
<pdfrwt beam="2">  1       -2 0.71599826E-02 0.39824959E+03</pdfrwt>
<totfact> 0.44752570E+03</totfact>
</mgrwt>
</event>
<event>
 4    1  0.4895160E-005  0.4699281E+03  0.7818608E-02  0.1021941E+00
         -2   -1    0    0    0  501 -0.00000000000E+00  0.00000000000E+00  0.19157946609E+03  0.19157946611E+03  0.25500000000E-02 0. -1.
          2   -1    0    0  501    0  0.00000000000E+00 -0.00000000000E+00 -0.28817334804E+03  0.28817334805E+03  0.25500000000E-02 0.  1.
    5000001    1    1    2    0    0 -0.11473994456E+03  0.35025610674E+02 -0.20870298547E+03  0.27217271065E+03  0.12700000000E+03 0.  0.
   -5000001    1    1    2    0    0  0.11473994456E+03 -0.35025610674E+02  0.11210910352E+03  0.20758010351E+03  0.12700000000E+03 0.  0.
<mgrwt>
<rscale>  0 0.46992806E+03</rscale>
<asrwt>0</asrwt>
<pdfrwt beam="1">  1        2 0.41167621E-01 0.46992806E+03</pdfrwt>
<pdfrwt beam="2">  1       -2 0.27368495E-01 0.46992806E+03</pdfrwt>
<totfact> 0.15089207E+03</totfact>
</mgrwt>
</event>
<event>
 4    1  0.4895160E-005  0.1185998E+04  0.7818608E-02  0.9125202E-01
         -2   -1    0    0    0  501 -0.00000000000E+00  0.00000000000E+00  0.18619115350E+03  0.18619115352E+03  0.25500000000E-02 0. -1.
          2   -1    0    0  501    0  0.00000000000E+00 -0.00000000000E+00 -0.18886371990E+04  0.18886371990E+04  0.25500000000E-02 0.  1.
    5000001    1    1    2    0    0  0.46850853627E+03  0.28753990817E+03 -0.53179334257E+03  0.77531452105E+03  0.12700000000E+03 0.  0.
   -5000001    1    1    2    0    0 -0.46850853627E+03 -0.28753990817E+03 -0.11706527030E+04  0.12995138315E+04  0.12700000000E+03 0.  0.
<mgrwt>
<rscale>  0 0.11859975E+04</rscale>
<asrwt>0</asrwt>
<pdfrwt beam="1">  1        2 0.26980530E+00 0.11859975E+04</pdfrwt>
<pdfrwt beam="2">  1       -2 0.26598737E-01 0.11859975E+04</pdfrwt>
<totfact> 0.11587312E+02</totfact>
</mgrwt>
</event>
<event>
 4    1  0.4895160E-005  0.3121800E+03  0.7818608E-02  0.1079306E+00
         -2   -1    0    0    0  501 -0.00000000000E+00  0.00000000000E+00  0.44053942291E+02  0.44053942365E+02  0.25500000000E-02 0. -1.
          2   -1    0    0  501    0  0.00000000000E+00 -0.00000000000E+00 -0.55305114884E+03  0.55305114885E+03  0.25500000000E-02 0.  1.
    5000001    1    1    2    0    0 -0.84446811205E+02  0.21653496699E+02 -0.30269493566E+03  0.33963710326E+03  0.12700000000E+03 0.  0.
   -5000001    1    1    2    0    0  0.84446811205E+02 -0.21653496699E+02 -0.20630227089E+03  0.25746798795E+03  0.12700000000E+03 0.  0.
<mgrwt>
<rscale>  0 0.31217997E+03</rscale>
<asrwt>0</asrwt>
<pdfrwt beam="1">  1        2 0.79007303E-01 0.31217997E+03</pdfrwt>
<pdfrwt beam="2">  1       -2 0.62934207E-02 0.31217997E+03</pdfrwt>
<totfact> 0.83064419E+03</totfact>
</mgrwt>
</event>
<event>
 4    1  0.4895160E-005  0.3474166E+03  0.7818608E-02  0.1063680E+00
          2   -1    0    0  501    0  0.00000000000E+00  0.00000000000E+00  0.32321586382E+02  0.32321586483E+02  0.25500000000E-02 0.  1.
         -2   -1    0    0    0  501 -0.00000000000E+00 -0.00000000000E+00 -0.93357360430E+03  0.93357360430E+03  0.25500000000E-02 0. -1.
    5000001    1    1    2    0    0  0.11829165003E+03 -0.63936960873E+01 -0.46017076890E+03  0.49185356598E+03  0.12700000000E+03 0.  0.
   -5000001    1    1    2    0    0 -0.11829165003E+03  0.63936960873E+01 -0.44108124901E+03  0.47404162480E+03  0.12700000000E+03 0.  0.
<mgrwt>
<rscale>  0 0.34741664E+03</rscale>
<asrwt>0</asrwt>
<pdfrwt beam="1">  1        2 0.46173701E-02 0.34741664E+03</pdfrwt>
<pdfrwt beam="2">  1       -2 0.13336764E+00 0.34741664E+03</pdfrwt>
<totfact> 0.75227953E+02</totfact>
</mgrwt>
</event>
<event>
 4    1  0.4895160E-005  0.5540897E+03  0.7818608E-02  0.1000552E+00
         -2   -1    0    0    0  501 -0.00000000000E+00  0.00000000000E+00  0.77564801221E+02  0.77564801263E+02  0.25500000000E-02 0. -1.
          2   -1    0    0  501    0  0.00000000000E+00 -0.00000000000E+00 -0.98954486758E+03  0.98954486759E+03  0.25500000000E-02 0.  1.
    5000001    1    1    2    0    0  0.21671713991E+03  0.11285448910E+03 -0.51448086579E+03  0.58354264258E+03  0.12700000000E+03 0.  0.
   -5000001    1    1    2    0    0 -0.21671713991E+03 -0.11285448910E+03 -0.39749920057E+03  0.48356702627E+03  0.12700000000E+03 0.  0.
<mgrwt>
<rscale>  0 0.55408971E+03</rscale>
<asrwt>0</asrwt>
<pdfrwt beam="1">  1        2 0.14136354E+00 0.55408971E+03</pdfrwt>
<pdfrwt beam="2">  1       -2 0.11080686E-01 0.55408971E+03</pdfrwt>
<totfact> 0.16607337E+03</totfact>
</mgrwt>
</event>
<event>
 4    1  0.4895160E-005  0.4198478E+03  0.7818608E-02  0.1037116E+00
         -2   -1    0    0    0  501 -0.00000000000E+00  0.00000000000E+00  0.62764716071E+02  0.62764716123E+02  0.25500000000E-02 0. -1.
          2   -1    0    0  501    0  0.00000000000E+00 -0.00000000000E+00 -0.70211492843E+03  0.70211492844E+03  0.25500000000E-02 0.  1.
    5000001    1    1    2    0    0  0.15960401623E+03  0.83764544121E-01 -0.22921395660E+03  0.30682484729E+03  0.12700000000E+03 0.  0.
   -5000001    1    1    2    0    0 -0.15960401623E+03 -0.83764544121E-01 -0.41013625576E+03  0.45805479727E+03  0.12700000000E+03 0.  0.
<mgrwt>
<rscale>  0 0.41984780E+03</rscale>
<asrwt>0</asrwt>
<pdfrwt beam="1">  1        2 0.10030213E+00 0.41984780E+03</pdfrwt>
<pdfrwt beam="2">  1       -2 0.89663884E-02 0.41984780E+03</pdfrwt>
<totfact> 0.36357237E+03</totfact>
</mgrwt>
</event>
<event>
 4    1  0.4895160E-005  0.3822791E+03  0.7818608E-02  0.1050095E+00
         -2   -1    0    0    0  501 -0.00000000000E+00  0.00000000000E+00  0.12341164365E+02  0.12341164628E+02  0.25500000000E-02 0. -1.
          2   -1    0    0  501    0  0.00000000000E+00 -0.00000000000E+00 -0.29603628789E+04  0.29603628789E+04  0.25500000000E-02 0.  1.
    5000001    1    1    2    0    0  0.29294315386E+02 -0.13980487766E+03 -0.14636812054E+04  0.14761081369E+04  0.12700000000E+03 0.  0.
   -5000001    1    1    2    0    0 -0.29294315386E+02  0.13980487766E+03 -0.14843405091E+04  0.14965959067E+04  0.12700000000E+03 0.  0.
<mgrwt>
<rscale>  0 0.38227909E+03</rscale>
<asrwt>0</asrwt>
<pdfrwt beam="1">  1        2 0.42290853E+00 0.38227909E+03</pdfrwt>
<pdfrwt beam="2">  1       -2 0.17630254E-02 0.38227909E+03</pdfrwt>
<totfact> 0.26877715E+03</totfact>
</mgrwt>
</event>
<event>
 4    1  0.4895160E-005  0.1280718E+04  0.7818608E-02  0.9044997E-01
         -2   -1    0    0    0  501 -0.00000000000E+00  0.00000000000E+00  0.98640009249E+03  0.98640009249E+03  0.25500000000E-02 0. -1.
          2   -1    0    0  501    0  0.00000000000E+00 -0.00000000000E+00 -0.41571351968E+03  0.41571351969E+03  0.25500000000E-02 0.  1.
    5000001    1    1    2    0    0 -0.41036931458E+03  0.18223416522E+03 -0.19476612059E+03  0.50564326066E+03  0.12700000000E+03 0.  0.
   -5000001    1    1    2    0    0  0.41036931458E+03 -0.18223416522E+03  0.76545269340E+03  0.89647035152E+03  0.12700000000E+03 0.  0.
<mgrwt>
<rscale>  0 0.12807183E+04</rscale>
<asrwt>0</asrwt>
<pdfrwt beam="1">  1        2 0.59387646E-01 0.12807183E+04</pdfrwt>
<pdfrwt beam="2">  1       -2 0.14091430E+00 0.12807183E+04</pdfrwt>
<totfact> 0.28717150E+01</totfact>
</mgrwt>
</event>
<event>
 4    1  0.4895160E-005  0.3413048E+03  0.7818608E-02  0.1066242E+00
         -2   -1    0    0    0  501 -0.00000000000E+00  0.00000000000E+00  0.16022022591E+02  0.16022022794E+02  0.25500000000E-02 0. -1.
          2   -1    0    0  501    0  0.00000000000E+00 -0.00000000000E+00 -0.18176386053E+04  0.18176386053E+04  0.25500000000E-02 0.  1.
    5000001    1    1    2    0    0  0.10492545545E+03  0.33022718925E+02 -0.10613908900E+04  0.10746066594E+04  0.12700000000E+03 0.  0.
   -5000001    1    1    2    0    0 -0.10492545545E+03 -0.33022718925E+02 -0.74022569274E+03  0.75905396868E+03  0.12700000000E+03 0.  0.
<mgrwt>
<rscale>  0 0.34130483E+03</rscale>
<asrwt>0</asrwt>
<pdfrwt beam="1">  1        2 0.25966253E+00 0.34130483E+03</pdfrwt>
<pdfrwt beam="2">  1       -2 0.22888615E-02 0.34130483E+03</pdfrwt>
<totfact> 0.68856901E+03</totfact>
</mgrwt>
</event>
<event>
 4    1  0.4895160E-005  0.4156642E+03  0.7818608E-02  0.1038487E+00
          2   -1    0    0  501    0  0.00000000000E+00  0.00000000000E+00  0.61613630733E+02  0.61613630786E+02  0.25500000000E-02 0. -1.
         -2   -1    0    0    0  501 -0.00000000000E+00 -0.00000000000E+00 -0.70104913879E+03  0.70104913880E+03  0.25500000000E-02 0.  1.
    5000001    1    1    2    0    0 -0.10277907304E+03 -0.11328048324E+03 -0.43085874219E+03  0.47451476421E+03  0.12700000000E+03 0.  0.
   -5000001    1    1    2    0    0  0.10277907304E+03  0.11328048324E+03 -0.20857676587E+03  0.28814800537E+03  0.12700000000E+03 0.  0.
<mgrwt>
<rscale>  0 0.41566420E+03</rscale>
<asrwt>0</asrwt>
<pdfrwt beam="1">  1        2 0.88019477E-02 0.41566420E+03</pdfrwt>
<pdfrwt beam="2">  1       -2 0.10014987E+00 0.41566420E+03</pdfrwt>
<totfact> 0.64795595E+02</totfact>
</mgrwt>
</event>
<event>
 4    1  0.4895160E-005  0.1141645E+04  0.7818608E-02  0.9165526E-01
         -2   -1    0    0    0  501 -0.00000000000E+00  0.00000000000E+00  0.67899962382E+03  0.67899962382E+03  0.25500000000E-02 0. -1.
          2   -1    0    0  501    0  0.00000000000E+00 -0.00000000000E+00 -0.47988027554E+03  0.47988027555E+03  0.25500000000E-02 0.  1.
    5000001    1    1    2    0    0  0.50423047095E+03  0.17883689290E+03  0.25509986152E+03  0.60616494574E+03  0.12700000000E+03 0.  0.
   -5000001    1    1    2    0    0 -0.50423047095E+03 -0.17883689290E+03 -0.55980513242E+02  0.55271495363E+03  0.12700000000E+03 0.  0.
<mgrwt>
<rscale>  0 0.11416454E+04</rscale>
<asrwt>0</asrwt>
<pdfrwt beam="1">  1        2 0.68554325E-01 0.11416454E+04</pdfrwt>
<pdfrwt beam="2">  1       -2 0.96999946E-01 0.11416454E+04</pdfrwt>
<totfact> 0.61934595E+01</totfact>
</mgrwt>
</event>
<event>
 4    1  0.4895160E-005  0.7555854E+03  0.7818608E-02  0.9626628E-01
         -2   -1    0    0    0  501 -0.00000000000E+00  0.00000000000E+00  0.14640255616E+03  0.14640255618E+03  0.25500000000E-02 0. -1.
          2   -1    0    0  501    0  0.00000000000E+00 -0.00000000000E+00 -0.97489633605E+03  0.97489633605E+03  0.25500000000E-02 0.  1.
    5000001    1    1    2    0    0  0.22010996933E+03 -0.18306095073E+03 -0.72778703661E+03  0.79231476127E+03  0.12700000000E+03 0.  0.
   -5000001    1    1    2    0    0 -0.22010996933E+03  0.18306095073E+03 -0.10070674328E+03  0.32898413096E+03  0.12700000000E+03 0.  0.
<mgrwt>
<rscale>  0 0.75558538E+03</rscale>
<asrwt>0</asrwt>
<pdfrwt beam="1">  1        2 0.13927090E+00 0.75558538E+03</pdfrwt>
<pdfrwt beam="2">  1       -2 0.20914651E-01 0.75558538E+03</pdfrwt>
<totfact> 0.57616162E+02</totfact>
</mgrwt>
</event>
<event>
 4    1  0.4895160E-005  0.4379254E+03  0.7818608E-02  0.1031385E+00
         -2   -1    0    0    0  501 -0.00000000000E+00  0.00000000000E+00  0.42329868719E+02  0.42329868796E+02  0.25500000000E-02 0. -1.
          2   -1    0    0  501    0  0.00000000000E+00 -0.00000000000E+00 -0.11326435578E+04  0.11326435578E+04  0.25500000000E-02 0.  1.
    5000001    1    1    2    0    0 -0.55306232134E+02 -0.12679301240E+03 -0.24302636828E+03  0.30712548411E+03  0.12700000000E+03 0.  0.
   -5000001    1    1    2    0    0  0.55306232134E+02  0.12679301240E+03 -0.84728732084E+03  0.86784794254E+03  0.12700000000E+03 0.  0.
<mgrwt>
<rscale>  0 0.43792535E+03</rscale>
<asrwt>0</asrwt>
<pdfrwt beam="1">  1        2 0.16180620E+00 0.43792535E+03</pdfrwt>
<pdfrwt beam="2">  1       -2 0.60471248E-02 0.43792535E+03</pdfrwt>
<totfact> 0.35864062E+03</totfact>
</mgrwt>
</event>
<event>
 4    1  0.4895160E-005  0.3576431E+03  0.7818608E-02  0.1059521E+00
         -2   -1    0    0    0  501 -0.00000000000E+00  0.00000000000E+00  0.14577277524E+03  0.14577277526E+03  0.25500000000E-02 0. -1.
          2   -1    0    0  501    0  0.00000000000E+00 -0.00000000000E+00 -0.21936297067E+03  0.21936297069E+03  0.25500000000E-02 0.  1.
    5000001    1    1    2    0    0 -0.58376081595E+02 -0.10507614370E+03 -0.74987174144E+02  0.19026518116E+03  0.12700000000E+03 0.  0.
   -5000001    1    1    2    0    0  0.58376081595E+02  0.10507614370E+03  0.13969787095E+01  0.17487056478E+03  0.12700000000E+03 0.  0.
<mgrwt>
<rscale>  0 0.35764311E+03</rscale>
<asrwt>0</asrwt>
<pdfrwt beam="1">  1        2 0.31337567E-01 0.35764311E+03</pdfrwt>
<pdfrwt beam="2">  1       -2 0.20824682E-01 0.35764311E+03</pdfrwt>
<totfact> 0.32901650E+03</totfact>
</mgrwt>
</event>
<event>
 4    1  0.4895160E-005  0.3442938E+03  0.7818608E-02  0.1064982E+00
          2   -1    0    0  501    0  0.00000000000E+00  0.00000000000E+00  0.13265846782E+04  0.13265846782E+04  0.25500000000E-02 0.  1.
         -2   -1    0    0    0  501 -0.00000000000E+00 -0.00000000000E+00 -0.22338987134E+02  0.22338987280E+02  0.25500000000E-02 0. -1.
    5000001    1    1    2    0    0 -0.11324891016E+03  0.11214660587E+02  0.74437971230E+03  0.76366304111E+03  0.12700000000E+03 0.  0.
   -5000001    1    1    2    0    0  0.11324891016E+03 -0.11214660587E+02  0.55986597872E+03  0.58526062433E+03  0.12700000000E+03 0.  0.
<mgrwt>
<rscale>  0 0.34429382E+03</rscale>
<asrwt>0</asrwt>
<pdfrwt beam="1">  1        2 0.18951212E+00 0.34429382E+03</pdfrwt>
<pdfrwt beam="2">  1       -2 0.31912836E-02 0.34429382E+03</pdfrwt>
<totfact> 0.74342047E+03</totfact>
</mgrwt>
</event>
<event>
 4    1  0.4895160E-005  0.4719034E+03  0.7818608E-02  0.1021384E+00
          2   -1    0    0  501    0  0.00000000000E+00  0.00000000000E+00  0.27529424772E+04  0.27529424772E+04  0.25500000000E-02 0.  1.
         -2   -1    0    0    0  501 -0.00000000000E+00 -0.00000000000E+00 -0.20223163481E+02  0.20223163641E+02  0.25500000000E-02 0. -1.
    5000001    1    1    2    0    0  0.28950725495E+02 -0.69903093353E+02  0.28565492031E+03  0.32164004798E+03  0.12700000000E+03 0.  0.
   -5000001    1    1    2    0    0 -0.28950725495E+02  0.69903093353E+02  0.24470643934E+04  0.24515255929E+04  0.12700000000E+03 0.  0.
<mgrwt>
<rscale>  0 0.47190341E+03</rscale>
<asrwt>0</asrwt>
<pdfrwt beam="1">  1        2 0.39327695E+00 0.47190341E+03</pdfrwt>
<pdfrwt beam="2">  1       -2 0.28890274E-02 0.47190341E+03</pdfrwt>
<totfact> 0.16413453E+03</totfact>
</mgrwt>
</event>
<event>
 4    1  0.4895160E-005  0.5030770E+03  0.7818608E-02  0.1012979E+00
         -2   -1    0    0    0  501 -0.00000000000E+00  0.00000000000E+00  0.24341893343E+03  0.24341893345E+03  0.25500000000E-02 0. -1.
          2   -1    0    0  501    0  0.00000000000E+00 -0.00000000000E+00 -0.25992889997E+03  0.25992889998E+03  0.25500000000E-02 0.  1.
    5000001    1    1    2    0    0 -0.41217468511E+02  0.64271230523E+02 -0.21162026953E+03  0.25834436178E+03  0.12700000000E+03 0.  0.
   -5000001    1    1    2    0    0  0.41217468511E+02 -0.64271230523E+02  0.19511030300E+03  0.24500347165E+03  0.12700000000E+03 0.  0.
<mgrwt>
<rscale>  0 0.50307699E+03</rscale>
<asrwt>0</asrwt>
<pdfrwt beam="1">  1        2 0.37132700E-01 0.50307699E+03</pdfrwt>
<pdfrwt beam="2">  1       -2 0.34774133E-01 0.50307699E+03</pdfrwt>
<totfact> 0.10860646E+03</totfact>
</mgrwt>
</event>
<event>
 4    1  0.4895160E-005  0.4138177E+03  0.7818608E-02  0.1039097E+00
          2   -1    0    0  501    0  0.00000000000E+00  0.00000000000E+00  0.20306881964E+04  0.20306881964E+04  0.25500000000E-02 0.  1.
         -2   -1    0    0    0  501 -0.00000000000E+00 -0.00000000000E+00 -0.21082144704E+02  0.21082144858E+02  0.25500000000E-02 0. -1.
    5000001    1    1    2    0    0 -0.10330149440E+03 -0.12539903725E+03  0.10886742583E+04  0.11080328325E+04  0.12700000000E+03 0.  0.
   -5000001    1    1    2    0    0  0.10330149440E+03  0.12539903725E+03  0.92093179343E+03  0.94373750876E+03  0.12700000000E+03 0.  0.
<mgrwt>
<rscale>  0 0.41381765E+03</rscale>
<asrwt>0</asrwt>
<pdfrwt beam="1">  1        2 0.29009836E+00 0.41381765E+03</pdfrwt>
<pdfrwt beam="2">  1       -2 0.30117345E-02 0.41381765E+03</pdfrwt>
<totfact> 0.35829797E+03</totfact>
</mgrwt>
</event>
<event>
 4    1  0.4895160E-005  0.2641241E+03  0.7818608E-02  0.1104690E+00
          2   -1    0    0  501    0  0.00000000000E+00  0.00000000000E+00  0.12036230796E+04  0.12036230796E+04  0.25500000000E-02 0.  1.
         -2   -1    0    0    0  501 -0.00000000000E+00 -0.00000000000E+00 -0.14489905592E+02  0.14489905816E+02  0.25500000000E-02 0. -1.
    5000001    1    1    2    0    0 -0.33590873111E+02  0.87795084910E+01  0.64203964932E+03  0.65540013566E+03  0.12700000000E+03 0.  0.
   -5000001    1    1    2    0    0  0.33590873111E+02 -0.87795084910E+01  0.54709352466E+03  0.56271284973E+03  0.12700000000E+03 0.  0.
<mgrwt>
<rscale>  0 0.26412410E+03</rscale>
<asrwt>0</asrwt>
<pdfrwt beam="1">  1        2 0.17194617E+00 0.26412410E+03</pdfrwt>
<pdfrwt beam="2">  1       -2 0.20699864E-02 0.26412410E+03</pdfrwt>
<totfact> 0.16333593E+04</totfact>
</mgrwt>
</event>
<event>
 4    1  0.4895160E-005  0.4265729E+03  0.7818608E-02  0.1034948E+00
          2   -1    0    0  501    0  0.00000000000E+00  0.00000000000E+00  0.32874004991E+03  0.32874004992E+03  0.25500000000E-02 0.  1.
         -2   -1    0    0    0  501 -0.00000000000E+00 -0.00000000000E+00 -0.13838020448E+03  0.13838020451E+03  0.25500000000E-02 0. -1.
    5000001    1    1    2    0    0 -0.16778380319E+03 -0.26266311955E+02  0.70189857614E+02  0.22337622942E+03  0.12700000000E+03 0.  0.
   -5000001    1    1    2    0    0  0.16778380319E+03  0.26266311955E+02  0.12016998781E+03  0.24374402501E+03  0.12700000000E+03 0.  0.
<mgrwt>
<rscale>  0 0.42657293E+03</rscale>
<asrwt>0</asrwt>
<pdfrwt beam="1">  1        2 0.46962864E-01 0.42657293E+03</pdfrwt>
<pdfrwt beam="2">  1       -2 0.19768601E-01 0.42657293E+03</pdfrwt>
<totfact> 0.23189913E+03</totfact>
</mgrwt>
</event>
<event>
 4    1  0.4895160E-005  0.4791797E+03  0.7818608E-02  0.1019361E+00
          2   -1    0    0  501    0  0.00000000000E+00  0.00000000000E+00  0.11466480934E+04  0.11466480934E+04  0.25500000000E-02 0.  1.
         -2   -1    0    0    0  501 -0.00000000000E+00 -0.00000000000E+00 -0.50061821501E+02  0.50061821566E+02  0.25500000000E-02 0. -1.
    5000001    1    1    2    0    0 -0.85335480303E+02  0.18414274054E+03  0.52545864353E+03  0.57743093020E+03  0.12700000000E+03 0.  0.
   -5000001    1    1    2    0    0  0.85335480303E+02 -0.18414274054E+03  0.57112762840E+03  0.61927898480E+03  0.12700000000E+03 0.  0.
<mgrwt>
<rscale>  0 0.47917968E+03</rscale>
<asrwt>0</asrwt>
<pdfrwt beam="1">  1        2 0.16380689E+00 0.47917968E+03</pdfrwt>
<pdfrwt beam="2">  1       -2 0.71516881E-02 0.47917968E+03</pdfrwt>
<totfact> 0.27091569E+03</totfact>
</mgrwt>
</event>
<event>
 4    1  0.4895160E-005  0.4337513E+03  0.7818608E-02  0.1032681E+00
          2   -1    0    0  501    0  0.00000000000E+00  0.00000000000E+00  0.86600328507E+03  0.86600328507E+03  0.25500000000E-02 0.  1.
         -2   -1    0    0    0  501 -0.00000000000E+00 -0.00000000000E+00 -0.54312776231E+02  0.54312776291E+02  0.25500000000E-02 0. -1.
    5000001    1    1    2    0    0 -0.10499715293E+03 -0.14041361930E+03  0.43315388344E+03  0.48424340300E+03  0.12700000000E+03 0.  0.
   -5000001    1    1    2    0    0  0.10499715293E+03  0.14041361930E+03  0.37853662539E+03  0.43607265836E+03  0.12700000000E+03 0.  0.
<mgrwt>
<rscale>  0 0.43375128E+03</rscale>
<asrwt>0</asrwt>
<pdfrwt beam="1">  1        2 0.12371475E+00 0.43375128E+03</pdfrwt>
<pdfrwt beam="2">  1       -2 0.77589682E-02 0.43375128E+03</pdfrwt>
<totfact> 0.35180668E+03</totfact>
</mgrwt>
</event>
<event>
 4    1  0.4895160E-005  0.3560742E+03  0.7818608E-02  0.1060149E+00
         -2   -1    0    0    0  501 -0.00000000000E+00  0.00000000000E+00  0.19470716604E+02  0.19470716771E+02  0.25500000000E-02 0. -1.
          2   -1    0    0  501    0  0.00000000000E+00 -0.00000000000E+00 -0.16279428873E+04  0.16279428873E+04  0.25500000000E-02 0.  1.
    5000001    1    1    2    0    0 -0.59542578348E+02  0.62931944775E+02 -0.12196643688E+04  0.12293152243E+04  0.12700000000E+03 0.  0.
   -5000001    1    1    2    0    0  0.59542578348E+02 -0.62931944775E+02 -0.38880780194E+03  0.41809837976E+03  0.12700000000E+03 0.  0.
<mgrwt>
<rscale>  0 0.35607423E+03</rscale>
<asrwt>0</asrwt>
<pdfrwt beam="1">  1        2 0.23256318E+00 0.35607423E+03</pdfrwt>
<pdfrwt beam="2">  1       -2 0.27815320E-02 0.35607423E+03</pdfrwt>
<totfact> 0.64005078E+03</totfact>
</mgrwt>
</event>
<event>
 4    1  0.4895160E-005  0.3058811E+03  0.7818608E-02  0.1082337E+00
          2   -1    0    0  501    0  0.00000000000E+00  0.00000000000E+00  0.24777800572E+04  0.24777800572E+04  0.25500000000E-02 0.  1.
         -2   -1    0    0    0  501 -0.00000000000E+00 -0.00000000000E+00 -0.94402306798E+01  0.94402310242E+01  0.25500000000E-02 0. -1.
    5000001    1    1    2    0    0  0.42014083625E+02  0.71529037785E+02  0.13927265215E+04  0.14009631509E+04  0.12700000000E+03 0.  0.
   -5000001    1    1    2    0    0 -0.42014083625E+02 -0.71529037785E+02  0.10756133050E+04  0.10862571373E+04  0.12700000000E+03 0.  0.
<mgrwt>
<rscale>  0 0.30588113E+03</rscale>
<asrwt>0</asrwt>
<pdfrwt beam="1">  1        2 0.35396904E+00 0.30588113E+03</pdfrwt>
<pdfrwt beam="2">  1       -2 0.13486027E-02 0.30588113E+03</pdfrwt>
<totfact> 0.70934569E+03</totfact>
</mgrwt>
</event>
<event>
 4    1  0.4895160E-005  0.3382000E+03  0.7818608E-02  0.1067565E+00
          2   -1    0    0  501    0  0.00000000000E+00  0.00000000000E+00  0.48781397479E+03  0.48781397480E+03  0.25500000000E-02 0.  1.
         -2   -1    0    0    0  501 -0.00000000000E+00 -0.00000000000E+00 -0.58618254755E+02  0.58618254810E+02  0.25500000000E-02 0. -1.
    5000001    1    1    2    0    0  0.83381673118E+02 -0.72166078099E+02  0.24283151700E+03  0.29539226783E+03  0.12700000000E+03 0.  0.
   -5000001    1    1    2    0    0 -0.83381673118E+02  0.72166078099E+02  0.18636420303E+03  0.25103996178E+03  0.12700000000E+03 0.  0.
<mgrwt>
<rscale>  0 0.33819996E+03</rscale>
<asrwt>0</asrwt>
<pdfrwt beam="1">  1        2 0.69687705E-01 0.33819996E+03</pdfrwt>
<pdfrwt beam="2">  1       -2 0.83740370E-02 0.33819996E+03</pdfrwt>
<totfact> 0.61392362E+03</totfact>
</mgrwt>
</event>
<event>
 4    1  0.4895160E-005  0.3659770E+03  0.7818608E-02  0.1056242E+00
         -2   -1    0    0    0  501 -0.00000000000E+00  0.00000000000E+00  0.28012472625E+02  0.28012472741E+02  0.25500000000E-02 0. -1.
          2   -1    0    0  501    0  0.00000000000E+00 -0.00000000000E+00 -0.11953528933E+04  0.11953528933E+04  0.25500000000E-02 0.  1.
    5000001    1    1    2    0    0 -0.78691276676E+02 -0.79660405095E+02 -0.81568836045E+03  0.83307538587E+03  0.12700000000E+03 0.  0.
   -5000001    1    1    2    0    0  0.78691276676E+02  0.79660405095E+02 -0.35165206022E+03  0.39028998017E+03  0.12700000000E+03 0.  0.
<mgrwt>
<rscale>  0 0.36597700E+03</rscale>
<asrwt>0</asrwt>
<pdfrwt beam="1">  1        2 0.17076467E+00 0.36597700E+03</pdfrwt>
<pdfrwt beam="2">  1       -2 0.40017826E-02 0.36597700E+03</pdfrwt>
<totfact> 0.62236651E+03</totfact>
</mgrwt>
</event>
<event>
 4    1  0.4895160E-005  0.3929266E+03  0.7818608E-02  0.1046257E+00
         -2   -1    0    0    0  501 -0.00000000000E+00  0.00000000000E+00  0.17266241134E+02  0.17266241322E+02  0.25500000000E-02 0. -1.
          2   -1    0    0  501    0  0.00000000000E+00 -0.00000000000E+00 -0.22354510558E+04  0.22354510558E+04  0.25500000000E-02 0.  1.
    5000001    1    1    2    0    0  0.13876680032E+03  0.52619721885E+02 -0.12298675887E+04  0.12452824361E+04  0.12700000000E+03 0.  0.
   -5000001    1    1    2    0    0 -0.13876680032E+03 -0.52619721885E+02 -0.98831722600E+03  0.10074348610E+04  0.12700000000E+03 0.  0.
<mgrwt>
<rscale>  0 0.39292665E+03</rscale>
<asrwt>0</asrwt>
<pdfrwt beam="1">  1        2 0.31934997E+00 0.39292665E+03</pdfrwt>
<pdfrwt beam="2">  1       -2 0.24666073E-02 0.39292665E+03</pdfrwt>
<totfact> 0.38290583E+03</totfact>
</mgrwt>
</event>
<event>
 4    1  0.4895160E-005  0.4741534E+03  0.7818608E-02  0.1020754E+00
         -2   -1    0    0    0  501 -0.00000000000E+00  0.00000000000E+00  0.30662819832E+02  0.30662819938E+02  0.25500000000E-02 0. -1.
          2   -1    0    0  501    0  0.00000000000E+00 -0.00000000000E+00 -0.18330134077E+04  0.18330134077E+04  0.25500000000E-02 0.  1.
    5000001    1    1    2    0    0 -0.17311928503E+03  0.49811610502E+02 -0.55795890925E+03  0.59991551722E+03  0.12700000000E+03 0.  0.
   -5000001    1    1    2    0    0  0.17311928503E+03 -0.49811610502E+02 -0.12443916786E+04  0.12637607104E+04  0.12700000000E+03 0.  0.
<mgrwt>
<rscale>  0 0.47415339E+03</rscale>
<asrwt>0</asrwt>
<pdfrwt beam="1">  1        2 0.26185899E+00 0.47415339E+03</pdfrwt>
<pdfrwt beam="2">  1       -2 0.43804040E-02 0.47415339E+03</pdfrwt>
<totfact> 0.25388240E+03</totfact>
</mgrwt>
</event>
<event>
 4    1  0.4895160E-005  0.7379007E+03  0.7818608E-02  0.9654526E-01
          2   -1    0    0  501    0  0.00000000000E+00  0.00000000000E+00  0.49741600955E+03  0.49741600956E+03  0.25500000000E-02 0.  1.
         -2   -1    0    0    0  501 -0.00000000000E+00 -0.00000000000E+00 -0.27366302162E+03  0.27366302164E+03  0.25500000000E-02 0. -1.
    5000001    1    1    2    0    0 -0.20062648104E+03 -0.26035932401E+03  0.22614312972E+03  0.41869759685E+03  0.12700000000E+03 0.  0.
   -5000001    1    1    2    0    0  0.20062648104E+03  0.26035932401E+03 -0.23901417890E+01  0.35238143434E+03  0.12700000000E+03 0.  0.
<mgrwt>
<rscale>  0 0.73790072E+03</rscale>
<asrwt>0</asrwt>
<pdfrwt beam="1">  1        2 0.71059430E-01 0.73790072E+03</pdfrwt>
<pdfrwt beam="2">  1       -2 0.39094717E-01 0.73790072E+03</pdfrwt>
<totfact> 0.42026223E+02</totfact>
</mgrwt>
</event>
<event>
 4    1  0.4895160E-005  0.4471505E+03  0.7818608E-02  0.1028575E+00
          2   -1    0    0  501    0  0.00000000000E+00  0.00000000000E+00  0.11526657116E+04  0.11526657116E+04  0.25500000000E-02 0.  1.
         -2   -1    0    0    0  501 -0.00000000000E+00 -0.00000000000E+00 -0.43365479810E+02  0.43365479885E+02  0.25500000000E-02 0. -1.
    5000001    1    1    2    0    0  0.76559621999E+02  0.89893209334E+02  0.17718568704E+03  0.24792323912E+03  0.12700000000E+03 0.  0.
   -5000001    1    1    2    0    0 -0.76559621999E+02 -0.89893209334E+02  0.93211454477E+03  0.94810795239E+03  0.12700000000E+03 0.  0.
<mgrwt>
<rscale>  0 0.44715054E+03</rscale>
<asrwt>0</asrwt>
<pdfrwt beam="1">  1        2 0.16466654E+00 0.44715054E+03</pdfrwt>
<pdfrwt beam="2">  1       -2 0.61950681E-02 0.44715054E+03</pdfrwt>
<totfact> 0.33654474E+03</totfact>
</mgrwt>
</event>
<event>
 4    1  0.4895160E-005  0.7155635E+03  0.7818608E-02  0.9690981E-01
         -2   -1    0    0    0  501 -0.00000000000E+00  0.00000000000E+00  0.11755687047E+03  0.11755687050E+03  0.25500000000E-02 0. -1.
          2   -1    0    0  501    0  0.00000000000E+00 -0.00000000000E+00 -0.10889009579E+04  0.10889009579E+04  0.25500000000E-02 0.  1.
    5000001    1    1    2    0    0  0.53146482341E+02  0.32688409159E+03 -0.56477214293E+03  0.66691403596E+03  0.12700000000E+03 0.  0.
   -5000001    1    1    2    0    0 -0.53146482341E+02 -0.32688409159E+03 -0.40657194454E+03  0.53954379249E+03  0.12700000000E+03 0.  0.
<mgrwt>
<rscale>  0 0.71556352E+03</rscale>
<asrwt>0</asrwt>
<pdfrwt beam="1">  1        2 0.15555727E+00 0.71556352E+03</pdfrwt>
<pdfrwt beam="2">  1       -2 0.16793839E-01 0.71556352E+03</pdfrwt>
<totfact> 0.72032084E+02</totfact>
</mgrwt>
</event>
<event>
 4    1  0.4895160E-005  0.9327038E+03  0.7818608E-02  0.9385599E-01
         -2   -1    0    0    0  501 -0.00000000000E+00  0.00000000000E+00  0.22137979821E+03  0.22137979823E+03  0.25500000000E-02 0. -1.
          2   -1    0    0  501    0  0.00000000000E+00 -0.00000000000E+00 -0.98240253948E+03  0.98240253949E+03  0.25500000000E-02 0.  1.
    5000001    1    1    2    0    0  0.52614471762E+02 -0.43021348073E+03 -0.23053534004E+03  0.50707737541E+03  0.12700000000E+03 0.  0.
   -5000001    1    1    2    0    0 -0.52614471762E+02  0.43021348073E+03 -0.53048740123E+03  0.69670496231E+03  0.12700000000E+03 0.  0.
<mgrwt>
<rscale>  0 0.93270376E+03</rscale>
<asrwt>0</asrwt>
<pdfrwt beam="1">  1        2 0.14034322E+00 0.93270376E+03</pdfrwt>
<pdfrwt beam="2">  1       -2 0.31625686E-01 0.93270376E+03</pdfrwt>
<totfact> 0.26712097E+02</totfact>
</mgrwt>
</event>
<event>
 4    1  0.4895160E-005  0.4246413E+03  0.7818608E-02  0.1035566E+00
         -2   -1    0    0    0  501 -0.00000000000E+00  0.00000000000E+00  0.53407681200E+02  0.53407681261E+02  0.25500000000E-02 0. -1.
          2   -1    0    0  501    0  0.00000000000E+00 -0.00000000000E+00 -0.84407438013E+03  0.84407438013E+03  0.25500000000E-02 0.  1.
    5000001    1    1    2    0    0 -0.34917061978E+02  0.41906106215E+02 -0.73596693176E+03  0.74883352463E+03  0.12700000000E+03 0.  0.
   -5000001    1    1    2    0    0  0.34917061978E+02 -0.41906106215E+02 -0.54699767166E+02  0.14864853677E+03  0.12700000000E+03 0.  0.
<mgrwt>
<rscale>  0 0.42464129E+03</rscale>
<asrwt>0</asrwt>
<pdfrwt beam="1">  1        2 0.12058205E+00 0.42464129E+03</pdfrwt>
<pdfrwt beam="2">  1       -2 0.76296693E-02 0.42464129E+03</pdfrwt>
<totfact> 0.37336016E+03</totfact>
</mgrwt>
</event>
<event>
 4    1  0.4895160E-005  0.2893143E+03  0.7818608E-02  0.1090708E+00
         -2   -1    0    0    0  501 -0.00000000000E+00  0.00000000000E+00  0.71722322119E+02  0.71722322164E+02  0.25500000000E-02 0. -1.
          2   -1    0    0  501    0  0.00000000000E+00 -0.00000000000E+00 -0.29175984536E+03  0.29175984537E+03  0.25500000000E-02 0.  1.
    5000001    1    1    2    0    0 -0.50717422301E+02  0.43048043436E+02 -0.85809741699E+02  0.16708591424E+03  0.12700000000E+03 0.  0.
   -5000001    1    1    2    0    0  0.50717422301E+02 -0.43048043436E+02 -0.13422778154E+03  0.19639625329E+03  0.12700000000E+03 0.  0.
<mgrwt>
<rscale>  0 0.28931432E+03</rscale>
<asrwt>0</asrwt>
<pdfrwt beam="1">  1        2 0.41679977E-01 0.28931432E+03</pdfrwt>
<pdfrwt beam="2">  1       -2 0.10246046E-01 0.28931432E+03</pdfrwt>
<totfact> 0.77572903E+03</totfact>
</mgrwt>
</event>
<event>
 4    1  0.4895160E-005  0.3493434E+03  0.7818608E-02  0.1062885E+00
          2   -1    0    0  501    0  0.00000000000E+00  0.00000000000E+00  0.22692844557E+04  0.22692844557E+04  0.25500000000E-02 0.  1.
         -2   -1    0    0    0  501 -0.00000000000E+00 -0.00000000000E+00 -0.13444856734E+02  0.13444856976E+02  0.25500000000E-02 0. -1.
    5000001    1    1    2    0    0  0.37377350277E+02 -0.10954365373E+03  0.13329280791E+04  0.13439580136E+04  0.12700000000E+03 0.  0.
   -5000001    1    1    2    0    0 -0.37377350277E+02  0.10954365373E+03  0.92291151988E+03  0.93877129905E+03  0.12700000000E+03 0.  0.
<mgrwt>
<rscale>  0 0.34934341E+03</rscale>
<asrwt>0</asrwt>
<pdfrwt beam="1">  1        2 0.32418362E+00 0.34934341E+03</pdfrwt>
<pdfrwt beam="2">  1       -2 0.19206931E-02 0.34934341E+03</pdfrwt>
<totfact> 0.53498535E+03</totfact>
</mgrwt>
</event>
<event>
 4    1  0.4895160E-005  0.5486306E+03  0.7818608E-02  0.1001811E+00
          2   -1    0    0  501    0  0.00000000000E+00  0.00000000000E+00  0.67733795208E+03  0.67733795208E+03  0.25500000000E-02 0.  1.
         -2   -1    0    0    0  501 -0.00000000000E+00 -0.00000000000E+00 -0.11109505490E+03  0.11109505493E+03  0.25500000000E-02 0. -1.
    5000001    1    1    2    0    0 -0.35351476021E+02 -0.22336992827E+03  0.41146632546E+03  0.48639221694E+03  0.12700000000E+03 0.  0.
   -5000001    1    1    2    0    0  0.35351476021E+02  0.22336992827E+03  0.15477657172E+03  0.30204079007E+03  0.12700000000E+03 0.  0.
<mgrwt>
<rscale>  0 0.54863065E+03</rscale>
<asrwt>0</asrwt>
<pdfrwt beam="1">  1        2 0.96762570E-01 0.54863065E+03</pdfrwt>
<pdfrwt beam="2">  1       -2 0.15870721E-01 0.54863065E+03</pdfrwt>
<totfact> 0.14917292E+03</totfact>
</mgrwt>
</event>
<event>
 4    1  0.4895160E-005  0.3028950E+03  0.7818608E-02  0.1083802E+00
         -2   -1    0    0    0  501 -0.00000000000E+00  0.00000000000E+00  0.22441478079E+02  0.22441478223E+02  0.25500000000E-02 0. -1.
          2   -1    0    0  501    0  0.00000000000E+00 -0.00000000000E+00 -0.10220513834E+04  0.10220513834E+04  0.25500000000E-02 0.  1.
    5000001    1    1    2    0    0  0.77175040411E+02 -0.22030619792E+02 -0.43383303576E+03  0.45910939653E+03  0.12700000000E+03 0.  0.
   -5000001    1    1    2    0    0 -0.77175040411E+02  0.22030619792E+02 -0.56577686957E+03  0.58538346510E+03  0.12700000000E+03 0.  0.
<mgrwt>
<rscale>  0 0.30289499E+03</rscale>
<asrwt>0</asrwt>
<pdfrwt beam="1">  1        2 0.14600731E+00 0.30289499E+03</pdfrwt>
<pdfrwt beam="2">  1       -2 0.32059261E-02 0.30289499E+03</pdfrwt>
<totfact> 0.10850201E+04</totfact>
</mgrwt>
</event>
<event>
 4    1  0.4895160E-005  0.2610365E+03  0.7818608E-02  0.1106522E+00
         -2   -1    0    0    0  501 -0.00000000000E+00  0.00000000000E+00  0.87295456435E+01  0.87295460159E+01  0.25500000000E-02 0. -1.
          2   -1    0    0  501    0  0.00000000000E+00 -0.00000000000E+00 -0.19514201864E+04  0.19514201864E+04  0.25500000000E-02 0.  1.
    5000001    1    1    2    0    0  0.22212920893E+02 -0.10331517504E+02 -0.84002018944E+03  0.84991945076E+03  0.12700000000E+03 0.  0.
   -5000001    1    1    2    0    0 -0.22212920893E+02  0.10331517504E+02 -0.11026704513E+04  0.11102302816E+04  0.12700000000E+03 0.  0.
<mgrwt>
<rscale>  0 0.26103649E+03</rscale>
<asrwt>0</asrwt>
<pdfrwt beam="1">  1        2 0.27877403E+00 0.26103649E+03</pdfrwt>
<pdfrwt beam="2">  1       -2 0.12470792E-02 0.26103649E+03</pdfrwt>
<totfact> 0.14397011E+04</totfact>
</mgrwt>
</event>
<event>
 4    1  0.4895160E-005  0.4391192E+03  0.7818608E-02  0.1031017E+00
          2   -1    0    0  501    0  0.00000000000E+00  0.00000000000E+00  0.27580947244E+04  0.27580947244E+04  0.25500000000E-02 0.  1.
         -2   -1    0    0    0  501 -0.00000000000E+00 -0.00000000000E+00 -0.17478156215E+02  0.17478156401E+02  0.25500000000E-02 0. -1.
    5000001    1    1    2    0    0 -0.85457502779E+02 -0.13503593864E+03  0.18814600420E+04  0.18925006153E+04  0.12700000000E+03 0.  0.
   -5000001    1    1    2    0    0  0.85457502779E+02  0.13503593864E+03  0.85915652623E+03  0.88307226548E+03  0.12700000000E+03 0.  0.
<mgrwt>
<rscale>  0 0.43911917E+03</rscale>
<asrwt>0</asrwt>
<pdfrwt beam="1">  1        2 0.39401363E+00 0.43911917E+03</pdfrwt>
<pdfrwt beam="2">  1       -2 0.24968788E-02 0.43911917E+03</pdfrwt>
<totfact> 0.20365745E+03</totfact>
</mgrwt>
</event>
<event>
 4    1  0.4895160E-005  0.5398381E+03  0.7818608E-02  0.1003874E+00
         -2   -1    0    0    0  501 -0.00000000000E+00  0.00000000000E+00  0.62203372582E+02  0.62203372635E+02  0.25500000000E-02 0. -1.
          2   -1    0    0  501    0  0.00000000000E+00 -0.00000000000E+00 -0.11712594738E+04  0.11712594738E+04  0.25500000000E-02 0.  1.
    5000001    1    1    2    0    0 -0.26714385848E+02  0.17442605493E+03 -0.92003089199E+03  0.94536974210E+03  0.12700000000E+03 0.  0.
   -5000001    1    1    2    0    0  0.26714385848E+02 -0.17442605493E+03 -0.18902520924E+03  0.28809310436E+03  0.12700000000E+03 0.  0.
<mgrwt>
<rscale>  0 0.53983808E+03</rscale>
<asrwt>0</asrwt>
<pdfrwt beam="1">  1        2 0.16732277E+00 0.53983808E+03</pdfrwt>
<pdfrwt beam="2">  1       -2 0.88861968E-02 0.53983808E+03</pdfrwt>
<totfact> 0.18576173E+03</totfact>
</mgrwt>
</event>
<event>
 4    1  0.4895160E-005  0.4250158E+03  0.7818608E-02  0.1035446E+00
          2   -1    0    0  501    0  0.00000000000E+00  0.00000000000E+00  0.54848503099E+03  0.54848503100E+03  0.25500000000E-02 0.  1.
         -2   -1    0    0    0  501 -0.00000000000E+00 -0.00000000000E+00 -0.82335172829E+02  0.82335172869E+02  0.25500000000E-02 0. -1.
    5000001    1    1    2    0    0 -0.22006973741E+02 -0.16782692874E+03  0.26202402426E+03  0.33680227759E+03  0.12700000000E+03 0.  0.
   -5000001    1    1    2    0    0  0.22006973741E+02  0.16782692874E+03  0.20412583390E+03  0.29401792627E+03  0.12700000000E+03 0.  0.
<mgrwt>
<rscale>  0 0.42501581E+03</rscale>
<asrwt>0</asrwt>
<pdfrwt beam="1">  1        2 0.78355006E-01 0.42501581E+03</pdfrwt>
<pdfrwt beam="2">  1       -2 0.11762167E-01 0.42501581E+03</pdfrwt>
<totfact> 0.31366553E+03</totfact>
</mgrwt>
</event>
<event>
 4    1  0.4895160E-005  0.2917295E+03  0.7818608E-02  0.1089450E+00
         -2   -1    0    0    0  501 -0.00000000000E+00  0.00000000000E+00  0.49234211761E+02  0.49234211827E+02  0.25500000000E-02 0. -1.
          2   -1    0    0  501    0  0.00000000000E+00 -0.00000000000E+00 -0.43214924194E+03  0.43214924195E+03  0.25500000000E-02 0.  1.
    5000001    1    1    2    0    0 -0.53721742774E+02  0.23560810701E+02 -0.12329432286E+03  0.18647151927E+03  0.12700000000E+03 0.  0.
   -5000001    1    1    2    0    0  0.53721742774E+02 -0.23560810701E+02 -0.25962070732E+03  0.29491193451E+03  0.12700000000E+03 0.  0.
<mgrwt>
<rscale>  0 0.29172951E+03</rscale>
<asrwt>0</asrwt>
<pdfrwt beam="1">  1        2 0.61735604E-01 0.29172951E+03</pdfrwt>
<pdfrwt beam="2">  1       -2 0.70334591E-02 0.29172951E+03</pdfrwt>
<totfact> 0.91683860E+03</totfact>
</mgrwt>
</event>
<event>
 4    1  0.4895160E-005  0.4153680E+03  0.7818608E-02  0.1038584E+00
          2   -1    0    0  501    0  0.00000000000E+00  0.00000000000E+00  0.20297984259E+03  0.20297984260E+03  0.25500000000E-02 0. -1.
         -2   -1    0    0    0  501 -0.00000000000E+00 -0.00000000000E+00 -0.21249713567E+03  0.21249713569E+03  0.25500000000E-02 0.  1.
    5000001    1    1    2    0    0 -0.34209094047E+02  0.15957746967E+03 -0.23957543052E+02  0.20817827651E+03  0.12700000000E+03 0.  0.
   -5000001    1    1    2    0    0  0.34209094047E+02 -0.15957746967E+03  0.14440249968E+02  0.20729870178E+03  0.12700000000E+03 0.  0.
<mgrwt>
<rscale>  0 0.41536796E+03</rscale>
<asrwt>0</asrwt>
<pdfrwt beam="1">  1        2 0.28997120E-01 0.41536796E+03</pdfrwt>
<pdfrwt beam="2">  1       -2 0.30356734E-01 0.41536796E+03</pdfrwt>
<totfact> 0.18373886E+03</totfact>
</mgrwt>
</event>
<event>
 4    1  0.4895160E-005  0.6194057E+03  0.7818608E-02  0.9865944E-01
          2   -1    0    0  501    0  0.00000000000E+00  0.00000000000E+00  0.44039320518E+03  0.44039320519E+03  0.25500000000E-02 0.  1.
         -2   -1    0    0    0  501 -0.00000000000E+00 -0.00000000000E+00 -0.21779597691E+03  0.21779597692E+03  0.25500000000E-02 0. -1.
    5000001    1    1    2    0    0  0.12343291679E+03  0.25297001255E+03  0.13638522052E+03  0.33757879165E+03  0.12700000000E+03 0.  0.
   -5000001    1    1    2    0    0 -0.12343291679E+03 -0.25297001255E+03  0.86212007754E+02  0.32061039047E+03  0.12700000000E+03 0.  0.
<mgrwt>
<rscale>  0 0.61940574E+03</rscale>
<asrwt>0</asrwt>
<pdfrwt beam="1">  1        2 0.62913315E-01 0.61940574E+03</pdfrwt>
<pdfrwt beam="2">  1       -2 0.31113711E-01 0.61940574E+03</pdfrwt>
<totfact> 0.74615563E+02</totfact>
</mgrwt>
</event>
<event>
 4    1  0.4895160E-005  0.3570570E+03  0.7818608E-02  0.1059755E+00
         -2   -1    0    0    0  501 -0.00000000000E+00  0.00000000000E+00  0.57938474420E+02  0.57938474476E+02  0.25500000000E-02 0. -1.
          2   -1    0    0  501    0  0.00000000000E+00 -0.00000000000E+00 -0.55010802583E+03  0.55010802584E+03  0.25500000000E-02 0.  1.
    5000001    1    1    2    0    0 -0.52194784330E+02 -0.34205826157E+02 -0.43145573617E+03  0.45406760106E+03  0.12700000000E+03 0.  0.
   -5000001    1    1    2    0    0  0.52194784330E+02  0.34205826157E+02 -0.60713815235E+02  0.15397889925E+03  0.12700000000E+03 0.  0.
<mgrwt>
<rscale>  0 0.35705697E+03</rscale>
<asrwt>0</asrwt>
<pdfrwt beam="1">  1        2 0.78586858E-01 0.35705697E+03</pdfrwt>
<pdfrwt beam="2">  1       -2 0.82769252E-02 0.35705697E+03</pdfrwt>
<totfact> 0.54718078E+03</totfact>
</mgrwt>
</event>
<event>
 4    1  0.4895160E-005  0.2980764E+03  0.7818608E-02  0.1086206E+00
          2   -1    0    0  501    0  0.00000000000E+00  0.00000000000E+00  0.10349480500E+04  0.10349480500E+04  0.25500000000E-02 0.  1.
         -2   -1    0    0    0  501 -0.00000000000E+00 -0.00000000000E+00 -0.21462320423E+02  0.21462320574E+02  0.25500000000E-02 0. -1.
    5000001    1    1    2    0    0  0.19796666326E+02  0.74235329416E+02  0.45911540139E+03  0.48251294690E+03  0.12700000000E+03 0.  0.
   -5000001    1    1    2    0    0 -0.19796666326E+02 -0.74235329416E+02  0.55437032821E+03  0.57389742370E+03  0.12700000000E+03 0.  0.
<mgrwt>
<rscale>  0 0.29807641E+03</rscale>
<asrwt>0</asrwt>
<pdfrwt beam="1">  1        2 0.14784972E+00 0.29807641E+03</pdfrwt>
<pdfrwt beam="2">  1       -2 0.30660458E-02 0.29807641E+03</pdfrwt>
<totfact> 0.11393183E+04</totfact>
</mgrwt>
</event>
<event>
 4    1  0.4895160E-005  0.4127027E+03  0.7818608E-02  0.1039468E+00
         -2   -1    0    0    0  501 -0.00000000000E+00  0.00000000000E+00  0.54097312644E+02  0.54097312704E+02  0.25500000000E-02 0. -1.
          2   -1    0    0  501    0  0.00000000000E+00 -0.00000000000E+00 -0.78711633079E+03  0.78711633080E+03  0.25500000000E-02 0.  1.
    5000001    1    1    2    0    0 -0.14244250357E+03  0.42423558893E+02 -0.23188490653E+03  0.30329727175E+03  0.12700000000E+03 0.  0.
   -5000001    1    1    2    0    0  0.14244250357E+03 -0.42423558893E+02 -0.50113411162E+03  0.53791637175E+03  0.12700000000E+03 0.  0.
<mgrwt>
<rscale>  0 0.41270269E+03</rscale>
<asrwt>0</asrwt>
<pdfrwt beam="1">  1        2 0.11244518E+00 0.41270269E+03</pdfrwt>
<pdfrwt beam="2">  1       -2 0.77281880E-02 0.41270269E+03</pdfrwt>
<totfact> 0.39967275E+03</totfact>
</mgrwt>
</event>
<event>
 4    1  0.4895160E-005  0.3285642E+03  0.7818608E-02  0.1071774E+00
          2   -1    0    0  501    0  0.00000000000E+00  0.00000000000E+00  0.60117833993E+02  0.60117834047E+02  0.25500000000E-02 0.  1.
         -2   -1    0    0    0  501 -0.00000000000E+00 -0.00000000000E+00 -0.44892850270E+03  0.44892850270E+03  0.25500000000E-02 0. -1.
    5000001    1    1    2    0    0  0.12274167444E+01  0.10132353161E+03 -0.23209024784E+03  0.28330698500E+03  0.12700000000E+03 0.  0.
   -5000001    1    1    2    0    0 -0.12274167444E+01 -0.10132353161E+03 -0.15672042087E+03  0.22573935175E+03  0.12700000000E+03 0.  0.
<mgrwt>
<rscale>  0 0.32856421E+03</rscale>
<asrwt>0</asrwt>
<pdfrwt beam="1">  1        2 0.85882622E-02 0.32856421E+03</pdfrwt>
<pdfrwt beam="2">  1       -2 0.64132642E-01 0.32856421E+03</pdfrwt>
<totfact> 0.17934278E+03</totfact>
</mgrwt>
</event>
<event>
 4    1  0.4895160E-005  0.3708073E+03  0.7818608E-02  0.1054385E+00
         -2   -1    0    0    0  501 -0.00000000000E+00  0.00000000000E+00  0.12390219458E+03  0.12390219460E+03  0.25500000000E-02 0. -1.
          2   -1    0    0  501    0  0.00000000000E+00 -0.00000000000E+00 -0.27743269782E+03  0.27743269784E+03  0.25500000000E-02 0.  1.
    5000001    1    1    2    0    0  0.10038387395E+03 -0.64828050190E+02 -0.86050794107E+01  0.17459279949E+03  0.12700000000E+03 0.  0.
   -5000001    1    1    2    0    0 -0.10038387395E+03  0.64828050190E+02 -0.14492542384E+03  0.22674209295E+03  0.12700000000E+03 0.  0.
<mgrwt>
<rscale>  0 0.37080734E+03</rscale>
<asrwt>0</asrwt>
<pdfrwt beam="1">  1        2 0.39633242E-01 0.37080734E+03</pdfrwt>
<pdfrwt beam="2">  1       -2 0.17700314E-01 0.37080734E+03</pdfrwt>
<totfact> 0.33627026E+03</totfact>
</mgrwt>
</event>
<event>
 4    1  0.4895160E-005  0.4364126E+03  0.7818608E-02  0.1031853E+00
          2   -1    0    0  501    0  0.00000000000E+00  0.00000000000E+00  0.13480049680E+03  0.13480049683E+03  0.25500000000E-02 0.  1.
         -2   -1    0    0    0  501 -0.00000000000E+00 -0.00000000000E+00 -0.35321826915E+03  0.35321826916E+03  0.25500000000E-02 0. -1.
    5000001    1    1    2    0    0  0.17381910053E+02  0.16963004363E+03 -0.54328906810E+02  0.21944728892E+03  0.12700000000E+03 0.  0.
   -5000001    1    1    2    0    0 -0.17381910053E+02 -0.16963004363E+03 -0.16408886553E+03  0.26857147706E+03  0.12700000000E+03 0.  0.
<mgrwt>
<rscale>  0 0.43641264E+03</rscale>
<asrwt>0</asrwt>
<pdfrwt beam="1">  1        2 0.19257214E-01 0.43641264E+03</pdfrwt>
<pdfrwt beam="2">  1       -2 0.50459752E-01 0.43641264E+03</pdfrwt>
<totfact> 0.11032895E+03</totfact>
</mgrwt>
</event>
<event>
 4    1  0.4895160E-005  0.7787671E+03  0.7818608E-02  0.9591270E-01
         -2   -1    0    0    0  501 -0.00000000000E+00  0.00000000000E+00  0.13922989583E+03  0.13922989585E+03  0.25500000000E-02 0. -1.
          2   -1    0    0  501    0  0.00000000000E+00 -0.00000000000E+00 -0.10889871529E+04  0.10889871529E+04  0.25500000000E-02 0.  1.
    5000001    1    1    2    0    0  0.30537034205E+03  0.18737220257E+03 -0.60806144380E+03  0.71709630283E+03  0.12700000000E+03 0.  0.
   -5000001    1    1    2    0    0 -0.30537034205E+03 -0.18737220257E+03 -0.34169581324E+03  0.51112074589E+03  0.12700000000E+03 0.  0.
<mgrwt>
<rscale>  0 0.77876715E+03</rscale>
<asrwt>0</asrwt>
<pdfrwt beam="1">  1        2 0.15556959E+00 0.77876715E+03</pdfrwt>
<pdfrwt beam="2">  1       -2 0.19889986E-01 0.77876715E+03</pdfrwt>
<totfact> 0.53625900E+02</totfact>
</mgrwt>
</event>
<event>
 4    1  0.4895160E-005  0.6680059E+03  0.7818608E-02  0.9773567E-01
          2   -1    0    0  501    0  0.00000000000E+00  0.00000000000E+00  0.16844023546E+04  0.16844023546E+04  0.25500000000E-02 0.  1.
         -2   -1    0    0    0  501 -0.00000000000E+00 -0.00000000000E+00 -0.66230007034E+02  0.66230007083E+02  0.25500000000E-02 0. -1.
    5000001    1    1    2    0    0  0.30294697686E+03 -0.35413558727E+02  0.68075321095E+03  0.75669341555E+03  0.12700000000E+03 0.  0.
   -5000001    1    1    2    0    0 -0.30294697686E+03  0.35413558727E+02  0.93741913662E+03  0.99393894613E+03  0.12700000000E+03 0.  0.
<mgrwt>
<rscale>  0 0.66800593E+03</rscale>
<asrwt>0</asrwt>
<pdfrwt beam="1">  1        2 0.24062887E+00 0.66800593E+03</pdfrwt>
<pdfrwt beam="2">  1       -2 0.94614309E-02 0.66800593E+03</pdfrwt>
<totfact> 0.89250503E+02</totfact>
</mgrwt>
</event>
<event>
 4    1  0.4895160E-005  0.3042142E+03  0.7818608E-02  0.1083153E+00
         -2   -1    0    0    0  501 -0.00000000000E+00  0.00000000000E+00  0.50189716205E+02  0.50189716270E+02  0.25500000000E-02 0. -1.
          2   -1    0    0  501    0  0.00000000000E+00 -0.00000000000E+00 -0.46098228397E+03  0.46098228398E+03  0.25500000000E-02 0.  1.
    5000001    1    1    2    0    0 -0.46739712292E+02  0.41429598247E+02 -0.29905048994E+03  0.33084922223E+03  0.12700000000E+03 0.  0.
   -5000001    1    1    2    0    0  0.46739712292E+02 -0.41429598247E+02 -0.11174207783E+03  0.18032277802E+03  0.12700000000E+03 0.  0.
<mgrwt>
<rscale>  0 0.30421420E+03</rscale>
<asrwt>0</asrwt>
<pdfrwt beam="1">  1        2 0.65854609E-01 0.30421420E+03</pdfrwt>
<pdfrwt beam="2">  1       -2 0.71699597E-02 0.30421420E+03</pdfrwt>
<totfact> 0.83042506E+03</totfact>
</mgrwt>
</event>
<event>
 4    1  0.4895160E-005  0.4481510E+03  0.7818608E-02  0.1028275E+00
          2   -1    0    0  501    0  0.00000000000E+00  0.00000000000E+00  0.12007130195E+04  0.12007130195E+04  0.25500000000E-02 0.  1.
         -2   -1    0    0    0  501 -0.00000000000E+00 -0.00000000000E+00 -0.41816685707E+02  0.41816685785E+02  0.25500000000E-02 0. -1.
    5000001    1    1    2    0    0  0.14124468197E+03 -0.53241806165E+02  0.87412528989E+03  0.89610756750E+03  0.12700000000E+03 0.  0.
   -5000001    1    1    2    0    0 -0.14124468197E+03  0.53241806165E+02  0.28477104394E+03  0.34642213782E+03  0.12700000000E+03 0.  0.
<mgrwt>
<rscale>  0 0.44815104E+03</rscale>
<asrwt>0</asrwt>
<pdfrwt beam="1">  1        2 0.17153043E+00 0.44815104E+03</pdfrwt>
<pdfrwt beam="2">  1       -2 0.59738122E-02 0.44815104E+03</pdfrwt>
<totfact> 0.33479794E+03</totfact>
</mgrwt>
</event>
<event>
 4    1  0.4895160E-005  0.4078099E+03  0.7818608E-02  0.1041108E+00
          2   -1    0    0  501    0  0.00000000000E+00  0.00000000000E+00  0.17926005051E+04  0.17926005051E+04  0.25500000000E-02 0.  1.
         -2   -1    0    0    0  501 -0.00000000000E+00 -0.00000000000E+00 -0.23193804414E+02  0.23193804555E+02  0.25500000000E-02 0. -1.
    5000001    1    1    2    0    0 -0.28927852460E+02  0.15626634019E+03  0.94643759853E+03  0.96805429478E+03  0.12700000000E+03 0.  0.
   -5000001    1    1    2    0    0  0.28927852460E+02 -0.15626634019E+03  0.82296910215E+03  0.84774001487E+03  0.12700000000E+03 0.  0.
<mgrwt>
<rscale>  0 0.40780989E+03</rscale>
<asrwt>0</asrwt>
<pdfrwt beam="1">  1        2 0.25608580E+00 0.40780989E+03</pdfrwt>
<pdfrwt beam="2">  1       -2 0.33134004E-02 0.40780989E+03</pdfrwt>
<totfact> 0.40724731E+03</totfact>
</mgrwt>
</event>
<event>
 4    1  0.4895160E-005  0.5397928E+03  0.7818608E-02  0.1003884E+00
         -2   -1    0    0    0  501 -0.00000000000E+00  0.00000000000E+00  0.89510776091E+02  0.89510776128E+02  0.25500000000E-02 0. -1.
          2   -1    0    0  501    0  0.00000000000E+00 -0.00000000000E+00 -0.81380216528E+03  0.81380216528E+03  0.25500000000E-02 0.  1.
    5000001    1    1    2    0    0 -0.18151449245E+03 -0.12150885294E+03 -0.52093031102E+03  0.57897262565E+03  0.12700000000E+03 0.  0.
   -5000001    1    1    2    0    0  0.18151449245E+03  0.12150885294E+03 -0.20336107817E+03  0.32434031576E+03  0.12700000000E+03 0.  0.
<mgrwt>
<rscale>  0 0.53979279E+03</rscale>
<asrwt>0</asrwt>
<pdfrwt beam="1">  1        2 0.11625745E+00 0.53979279E+03</pdfrwt>
<pdfrwt beam="2">  1       -2 0.12787254E-01 0.53979279E+03</pdfrwt>
<totfact> 0.17038803E+03</totfact>
</mgrwt>
</event>
<event>
 4    1  0.4895160E-005  0.3504754E+03  0.7818608E-02  0.1062420E+00
         -2   -1    0    0    0  501 -0.00000000000E+00  0.00000000000E+00  0.83558083350E+02  0.83558083389E+02  0.25500000000E-02 0. -1.
          2   -1    0    0  501    0  0.00000000000E+00 -0.00000000000E+00 -0.36750789460E+03  0.36750789461E+03  0.25500000000E-02 0.  1.
    5000001    1    1    2    0    0  0.10640804236E+03 -0.60145653142E+01 -0.68938732677E+02  0.17955610638E+03  0.12700000000E+03 0.  0.
   -5000001    1    1    2    0    0 -0.10640804236E+03  0.60145653142E+01 -0.21501107857E+03  0.27150987161E+03  0.12700000000E+03 0.  0.
<mgrwt>
<rscale>  0 0.35047542E+03</rscale>
<asrwt>0</asrwt>
<pdfrwt beam="1">  1        2 0.52501127E-01 0.35047542E+03</pdfrwt>
<pdfrwt beam="2">  1       -2 0.11936869E-01 0.35047542E+03</pdfrwt>
<totfact> 0.47554419E+03</totfact>
</mgrwt>
</event>
<event>
 4    1  0.4895160E-005  0.2895880E+03  0.7818608E-02  0.1090564E+00
          2   -1    0    0  501    0  0.00000000000E+00  0.00000000000E+00  0.15565616674E+04  0.15565616674E+04  0.25500000000E-02 0.  1.
         -2   -1    0    0    0  501 -0.00000000000E+00 -0.00000000000E+00 -0.13468986450E+02  0.13468986691E+02  0.25500000000E-02 0. -1.
    5000001    1    1    2    0    0 -0.41224977844E+02 -0.52773903520E+02  0.66986791199E+03  0.68508145735E+03  0.12700000000E+03 0.  0.
   -5000001    1    1    2    0    0  0.41224977844E+02  0.52773903520E+02  0.87322476895E+03  0.88494919673E+03  0.12700000000E+03 0.  0.
<mgrwt>
<rscale>  0 0.28958804E+03</rscale>
<asrwt>0</asrwt>
<pdfrwt beam="1">  1        2 0.22236589E+00 0.28958804E+03</pdfrwt>
<pdfrwt beam="2">  1       -2 0.19241414E-02 0.28958804E+03</pdfrwt>
<totfact> 0.11969164E+04</totfact>
</mgrwt>
</event>
<event>
 4    1  0.4895160E-005  0.3181449E+03  0.7818608E-02  0.1076506E+00
         -2   -1    0    0    0  501 -0.00000000000E+00  0.00000000000E+00  0.62232277145E+02  0.62232277198E+02  0.25500000000E-02 0. -1.
          2   -1    0    0  501    0  0.00000000000E+00 -0.00000000000E+00 -0.40660648684E+03  0.40660648685E+03  0.25500000000E-02 0.  1.
    5000001    1    1    2    0    0  0.45920762017E+02 -0.54920551435E+02 -0.78402948787E+02  0.16553249147E+03  0.12700000000E+03 0.  0.
   -5000001    1    1    2    0    0 -0.45920762017E+02  0.54920551435E+02 -0.26597126091E+03  0.30330627257E+03  0.12700000000E+03 0.  0.
<mgrwt>
<rscale>  0 0.31814492E+03</rscale>
<asrwt>0</asrwt>
<pdfrwt beam="1">  1        2 0.58086640E-01 0.31814492E+03</pdfrwt>
<pdfrwt beam="2">  1       -2 0.88903255E-02 0.31814492E+03</pdfrwt>
<totfact> 0.68099456E+03</totfact>
</mgrwt>
</event>
<event>
 4    1  0.4895160E-005  0.4707008E+03  0.7818608E-02  0.1021723E+00
          2   -1    0    0  501    0  0.00000000000E+00  0.00000000000E+00  0.97334695827E+03  0.97334695827E+03  0.25500000000E-02 0. -1.
         -2   -1    0    0    0  501 -0.00000000000E+00 -0.00000000000E+00 -0.56906554846E+02  0.56906554903E+02  0.25500000000E-02 0.  1.
    5000001    1    1    2    0    0  0.53479011039E+02 -0.18861721503E+03  0.39537696498E+03  0.45922587347E+03  0.12700000000E+03 0.  0.
   -5000001    1    1    2    0    0 -0.53479011039E+02  0.18861721503E+03  0.52106343844E+03  0.57102763970E+03  0.12700000000E+03 0.  0.
<mgrwt>
<rscale>  0 0.47070085E+03</rscale>
<asrwt>0</asrwt>
<pdfrwt beam="1">  1        2 0.13904955E+00 0.47070085E+03</pdfrwt>
<pdfrwt beam="2">  1       -2 0.81295088E-02 0.47070085E+03</pdfrwt>
<totfact> 0.27970953E+03</totfact>
</mgrwt>
</event>
<event>
 4    1  0.4895160E-005  0.2861170E+03  0.7818608E-02  0.1092394E+00
         -2   -1    0    0    0  501 -0.00000000000E+00  0.00000000000E+00  0.20207685984E+02  0.20207686145E+02  0.25500000000E-02 0. -1.
          2   -1    0    0  501    0  0.00000000000E+00 -0.00000000000E+00 -0.10127698182E+04  0.10127698182E+04  0.25500000000E-02 0.  1.
    5000001    1    1    2    0    0  0.48532948521E+02 -0.20668542628E+02 -0.63860780942E+03  0.65324694411E+03  0.12700000000E+03 0.  0.
   -5000001    1    1    2    0    0 -0.48532948521E+02  0.20668542628E+02 -0.35395432279E+03  0.37973056022E+03  0.12700000000E+03 0.  0.
<mgrwt>
<rscale>  0 0.28611700E+03</rscale>
<asrwt>0</asrwt>
<pdfrwt beam="1">  1        2 0.14468137E+00 0.28611700E+03</pdfrwt>
<pdfrwt beam="2">  1       -2 0.28868129E-02 0.28611700E+03</pdfrwt>
<totfact> 0.12824036E+04</totfact>
</mgrwt>
</event>
<event>
 4    1  0.4895160E-005  0.4245615E+03  0.7818608E-02  0.1035592E+00
         -2   -1    0    0    0  501 -0.00000000000E+00  0.00000000000E+00  0.98086641603E+03  0.98086641603E+03  0.25500000000E-02 0. -1.
          2   -1    0    0  501    0  0.00000000000E+00 -0.00000000000E+00 -0.45942164528E+02  0.45942164599E+02  0.25500000000E-02 0.  1.
    5000001    1    1    2    0    0 -0.76551404049E+02 -0.15149747087E+03  0.44069131787E+03  0.48902907765E+03  0.12700000000E+03 0.  0.
   -5000001    1    1    2    0    0  0.76551404049E+02  0.15149747087E+03  0.49423293364E+03  0.53777950299E+03  0.12700000000E+03 0.  0.
<mgrwt>
<rscale>  0 0.42456154E+03</rscale>
<asrwt>0</asrwt>
<pdfrwt beam="1">  1        2 0.65631668E-02 0.42456154E+03</pdfrwt>
<pdfrwt beam="2">  1       -2 0.14012377E+00 0.42456154E+03</pdfrwt>
<totfact> 0.41691027E+02</totfact>
</mgrwt>
</event>
<event>
 4    1  0.4895160E-005  0.3255351E+03  0.7818608E-02  0.1073130E+00
         -2   -1    0    0    0  501 -0.00000000000E+00  0.00000000000E+00  0.98240702921E+01  0.98240706231E+01  0.25500000000E-02 0. -1.
          2   -1    0    0  501    0  0.00000000000E+00 -0.00000000000E+00 -0.26967712669E+04  0.26967712669E+04  0.25500000000E-02 0.  1.
    5000001    1    1    2    0    0 -0.94573444685E+02  0.35585747773E+02 -0.12403665736E+04  0.12509391347E+04  0.12700000000E+03 0.  0.
   -5000001    1    1    2    0    0  0.94573444685E+02 -0.35585747773E+02 -0.14465806230E+04  0.14556562028E+04  0.12700000000E+03 0.  0.
<mgrwt>
<rscale>  0 0.32553507E+03</rscale>
<asrwt>0</asrwt>
<pdfrwt beam="1">  1        2 0.38525256E+00 0.32553507E+03</pdfrwt>
<pdfrwt beam="2">  1       -2 0.14034404E-02 0.32553507E+03</pdfrwt>
<totfact> 0.51822975E+03</totfact>
</mgrwt>
</event>
<event>
 4    1  0.4895160E-005  0.2657946E+03  0.7818608E-02  0.1103711E+00
         -2   -1    0    0    0  501 -0.00000000000E+00  0.00000000000E+00  0.58017004231E+02  0.58017004287E+02  0.25500000000E-02 0. -1.
          2   -1    0    0  501    0  0.00000000000E+00 -0.00000000000E+00 -0.30442275832E+03  0.30442275833E+03  0.25500000000E-02 0.  1.
    5000001    1    1    2    0    0  0.24380947129E+02  0.30630810320E+02 -0.12339253995E+03  0.18134882420E+03  0.12700000000E+03 0.  0.
   -5000001    1    1    2    0    0 -0.24380947129E+02 -0.30630810320E+02 -0.12301321414E+03  0.18109093842E+03  0.12700000000E+03 0.  0.
<mgrwt>
<rscale>  0 0.26579463E+03</rscale>
<asrwt>0</asrwt>
<pdfrwt beam="1">  1        2 0.43488965E-01 0.26579463E+03</pdfrwt>
<pdfrwt beam="2">  1       -2 0.82881436E-02 0.26579463E+03</pdfrwt>
<totfact> 0.10322420E+04</totfact>
</mgrwt>
</event>
<event>
 4    1  0.4895160E-005  0.3876625E+03  0.7818608E-02  0.1048137E+00
          2   -1    0    0  501    0  0.00000000000E+00  0.00000000000E+00  0.90850866641E+03  0.90850866641E+03  0.25500000000E-02 0.  1.
         -2   -1    0    0    0  501 -0.00000000000E+00 -0.00000000000E+00 -0.41354084469E+02  0.41354084547E+02  0.25500000000E-02 0. -1.
    5000001    1    1    2    0    0  0.43307326498E+02 -0.13888796811E+03  0.47429479796E+03  0.51210345399E+03  0.12700000000E+03 0.  0.
   -5000001    1    1    2    0    0 -0.43307326498E+02  0.13888796811E+03  0.39285978398E+03  0.43775929697E+03  0.12700000000E+03 0.  0.
<mgrwt>
<rscale>  0 0.38766245E+03</rscale>
<asrwt>0</asrwt>
<pdfrwt beam="1">  1        2 0.12978695E+00 0.38766245E+03</pdfrwt>
<pdfrwt beam="2">  1       -2 0.59077264E-02 0.38766245E+03</pdfrwt>
<totfact> 0.50511110E+03</totfact>
</mgrwt>
</event>
<event>
 4    1  0.4895160E-005  0.5811741E+03  0.7818608E-02  0.9945252E-01
          2   -1    0    0  501    0  0.00000000000E+00  0.00000000000E+00  0.11778597565E+04  0.11778597565E+04  0.25500000000E-02 0.  1.
         -2   -1    0    0    0  501 -0.00000000000E+00 -0.00000000000E+00 -0.71690048982E+02  0.71690049027E+02  0.25500000000E-02 0. -1.
    5000001    1    1    2    0    0  0.42597697789E+02  0.17870883376E+03  0.15338240945E+03  0.27093647715E+03  0.12700000000E+03 0.  0.
   -5000001    1    1    2    0    0 -0.42597697789E+02 -0.17870883376E+03  0.95278729803E+03  0.97861332834E+03  0.12700000000E+03 0.  0.
<mgrwt>
<rscale>  0 0.58117407E+03</rscale>
<asrwt>0</asrwt>
<pdfrwt beam="1">  1        2 0.16826568E+00 0.58117407E+03</pdfrwt>
<pdfrwt beam="2">  1       -2 0.10241436E-01 0.58117407E+03</pdfrwt>
<totfact> 0.14637985E+03</totfact>
</mgrwt>
</event>
<event>
 4    1  0.4895160E-005  0.4269999E+03  0.7818608E-02  0.1034812E+00
          2   -1    0    0  501    0  0.00000000000E+00  0.00000000000E+00  0.36721301335E+03  0.36721301335E+03  0.25500000000E-02 0.  1.
         -2   -1    0    0    0  501 -0.00000000000E+00 -0.00000000000E+00 -0.12413019731E+03  0.12413019734E+03  0.25500000000E-02 0. -1.
    5000001    1    1    2    0    0 -0.14728548651E+03 -0.74845244811E+02  0.17500067934E+03  0.27211957478E+03  0.12700000000E+03 0.  0.
   -5000001    1    1    2    0    0  0.14728548651E+03  0.74845244811E+02  0.68082136695E+02  0.21922363592E+03  0.12700000000E+03 0.  0.
<mgrwt>
<rscale>  0 0.42699988E+03</rscale>
<asrwt>0</asrwt>
<pdfrwt beam="1">  1        2 0.52459001E-01 0.42699988E+03</pdfrwt>
<pdfrwt beam="2">  1       -2 0.17732886E-01 0.42699988E+03</pdfrwt>
<totfact> 0.24753342E+03</totfact>
</mgrwt>
</event>
<event>
 4    1  0.4895160E-005  0.3636775E+03  0.7818608E-02  0.1057137E+00
         -2   -1    0    0    0  501 -0.00000000000E+00  0.00000000000E+00  0.29701238499E+02  0.29701238609E+02  0.25500000000E-02 0. -1.
          2   -1    0    0  501    0  0.00000000000E+00 -0.00000000000E+00 -0.11132643341E+04  0.11132643341E+04  0.25500000000E-02 0.  1.
    5000001    1    1    2    0    0  0.11083687765E+03  0.57627069754E+02 -0.65642427657E+03  0.68016727610E+03  0.12700000000E+03 0.  0.
   -5000001    1    1    2    0    0 -0.11083687765E+03 -0.57627069754E+02 -0.42713881899E+03  0.46279829657E+03  0.12700000000E+03 0.  0.
<mgrwt>
<rscale>  0 0.36367749E+03</rscale>
<asrwt>0</asrwt>
<pdfrwt beam="1">  1        2 0.15903774E+00 0.36367749E+03</pdfrwt>
<pdfrwt beam="2">  1       -2 0.42430348E-02 0.36367749E+03</pdfrwt>
<totfact> 0.63276787E+03</totfact>
</mgrwt>
</event>
<event>
 4    1  0.4895160E-005  0.4018035E+03  0.7818608E-02  0.1043157E+00
         -2   -1    0    0    0  501 -0.00000000000E+00  0.00000000000E+00  0.15522983638E+02  0.15522983848E+02  0.25500000000E-02 0. -1.
          2   -1    0    0  501    0  0.00000000000E+00 -0.00000000000E+00 -0.26001129644E+04  0.26001129644E+04  0.25500000000E-02 0.  1.
    5000001    1    1    2    0    0 -0.75818875301E+01  0.15492536377E+03 -0.12066336676E+04  0.12231733979E+04  0.12700000000E+03 0.  0.
   -5000001    1    1    2    0    0  0.75818875301E+01 -0.15492536377E+03 -0.13779563131E+04  0.13924625504E+04  0.12700000000E+03 0.  0.
<mgrwt>
<rscale>  0 0.40180349E+03</rscale>
<asrwt>0</asrwt>
<pdfrwt beam="1">  1        2 0.37144443E+00 0.40180349E+03</pdfrwt>
<pdfrwt beam="2">  1       -2 0.22175708E-02 0.40180349E+03</pdfrwt>
<totfact> 0.29411484E+03</totfact>
</mgrwt>
</event>
<event>
 4    1  0.4895160E-005  0.3305976E+03  0.7818608E-02  0.1070873E+00
          2   -1    0    0  501    0  0.00000000000E+00  0.00000000000E+00  0.79512494121E+03  0.79512494121E+03  0.25500000000E-02 0.  1.
         -2   -1    0    0    0  501 -0.00000000000E+00 -0.00000000000E+00 -0.34364015530E+02  0.34364015624E+02  0.25500000000E-02 0. -1.
    5000001    1    1    2    0    0 -0.66497146266E+02  0.55982069952E+02  0.53173360848E+03  0.55355712714E+03  0.12700000000E+03 0.  0.
   -5000001    1    1    2    0    0  0.66497146266E+02 -0.55982069952E+02  0.22902731719E+03  0.27593182970E+03  0.12700000000E+03 0.  0.
<mgrwt>
<rscale>  0 0.33059756E+03</rscale>
<asrwt>0</asrwt>
<pdfrwt beam="1">  1        2 0.11358927E+00 0.33059756E+03</pdfrwt>
<pdfrwt beam="2">  1       -2 0.49091454E-02 0.33059756E+03</pdfrwt>
<totfact> 0.79365300E+03</totfact>
</mgrwt>
</event>
<event>
 4    1  0.4895160E-005  0.2167925E+04  0.7818608E-02  0.8531898E-01
          2   -1    0    0  501    0  0.00000000000E+00  0.00000000000E+00  0.75741257135E+03  0.75741257136E+03  0.25500000000E-02 0.  1.
         -2   -1    0    0    0  501 -0.00000000000E+00 -0.00000000000E+00 -0.15513008600E+04  0.15513008600E+04  0.25500000000E-02 0. -1.
    5000001    1    1    2    0    0 -0.77681883211E+02  0.91343038219E+03  0.20402287793E+03  0.94770452822E+03  0.12700000000E+03 0.  0.
   -5000001    1    1    2    0    0  0.77681883211E+02 -0.91343038219E+03 -0.99791116662E+03  0.13610089032E+04  0.12700000000E+03 0.  0.
<mgrwt>
<rscale>  0 0.21679251E+04</rscale>
<asrwt>0</asrwt>
<pdfrwt beam="1">  1        2 0.10820180E+00 0.21679251E+04</pdfrwt>
<pdfrwt beam="2">  1       -2 0.22161441E+00 0.21679251E+04</pdfrwt>
<totfact> 0.36203821E+00</totfact>
</mgrwt>
</event>
<event>
 4    1  0.4895160E-005  0.3718964E+03  0.7818608E-02  0.1053970E+00
         -2   -1    0    0    0  501 -0.00000000000E+00  0.00000000000E+00  0.70888524467E+02  0.70888524513E+02  0.25500000000E-02 0. -1.
          2   -1    0    0  501    0  0.00000000000E+00 -0.00000000000E+00 -0.48776218931E+03  0.48776218931E+03  0.25500000000E-02 0.  1.
    5000001    1    1    2    0    0 -0.13123799579E+03 -0.18534491142E+01 -0.26092452756E+03  0.31849247385E+03  0.12700000000E+03 0.  0.
   -5000001    1    1    2    0    0  0.13123799579E+03  0.18534491142E+01 -0.15594913728E+03  0.24015823998E+03  0.12700000000E+03 0.  0.
<mgrwt>
<rscale>  0 0.37189645E+03</rscale>
<asrwt>0</asrwt>
<pdfrwt beam="1">  1        2 0.69680311E-01 0.37189645E+03</pdfrwt>
<pdfrwt beam="2">  1       -2 0.10126932E-01 0.37189645E+03</pdfrwt>
<totfact> 0.45496494E+03</totfact>
</mgrwt>
</event>
<event>
 4    1  0.4895160E-005  0.1055532E+04  0.7818608E-02  0.9249651E-01
          2   -1    0    0  501    0  0.00000000000E+00  0.00000000000E+00  0.19660724976E+04  0.19660724976E+04  0.25500000000E-02 0.  1.
         -2   -1    0    0    0  501 -0.00000000000E+00 -0.00000000000E+00 -0.14167179134E+03  0.14167179136E+03  0.25500000000E-02 0. -1.
    5000001    1    1    2    0    0  0.43923342057E+03  0.21069384244E+03  0.12284993650E+04  0.13276511525E+04  0.12700000000E+03 0.  0.
   -5000001    1    1    2    0    0 -0.43923342057E+03 -0.21069384244E+03  0.59590134125E+03  0.78009313642E+03  0.12700000000E+03 0.  0.
<mgrwt>
<rscale>  0 0.10555321E+04</rscale>
<asrwt>0</asrwt>
<pdfrwt beam="1">  1        2 0.28086751E+00 0.10555321E+04</pdfrwt>
<pdfrwt beam="2">  1       -2 0.20238826E-01 0.10555321E+04</pdfrwt>
<totfact> 0.17417595E+02</totfact>
</mgrwt>
</event>
<event>
 4    1  0.4895160E-005  0.4029822E+03  0.7818608E-02  0.1042752E+00
         -2   -1    0    0    0  501 -0.00000000000E+00  0.00000000000E+00  0.18052722175E+02  0.18052722355E+02  0.25500000000E-02 0. -1.
          2   -1    0    0  501    0  0.00000000000E+00 -0.00000000000E+00 -0.22488943911E+04  0.22488943911E+04  0.25500000000E-02 0.  1.
    5000001    1    1    2    0    0  0.43986888432E+02 -0.14825544068E+03 -0.98287738765E+03  0.10030411164E+04  0.12700000000E+03 0.  0.
   -5000001    1    1    2    0    0 -0.43986888432E+02  0.14825544068E+03 -0.12479642812E+04  0.12639059970E+04  0.12700000000E+03 0.  0.
<mgrwt>
<rscale>  0 0.40298221E+03</rscale>
<asrwt>0</asrwt>
<pdfrwt beam="1">  1        2 0.32127045E+00 0.40298221E+03</pdfrwt>
<pdfrwt beam="2">  1       -2 0.25789618E-02 0.40298221E+03</pdfrwt>
<totfact> 0.35262616E+03</totfact>
</mgrwt>
</event>
<event>
 4    1  0.4895160E-005  0.3724866E+03  0.7818608E-02  0.1053746E+00
          2   -1    0    0  501    0  0.00000000000E+00  0.00000000000E+00  0.18941702870E+04  0.18941702870E+04  0.25500000000E-02 0.  1.
         -2   -1    0    0    0  501 -0.00000000000E+00 -0.00000000000E+00 -0.18312272598E+02  0.18312272775E+02  0.25500000000E-02 0. -1.
    5000001    1    1    2    0    0 -0.84263274993E+02  0.89404495260E+02  0.63573765274E+03  0.65983696956E+03  0.12700000000E+03 0.  0.
   -5000001    1    1    2    0    0  0.84263274993E+02 -0.89404495260E+02  0.12401203617E+04  0.12526455903E+04  0.12700000000E+03 0.  0.
<mgrwt>
<rscale>  0 0.37248658E+03</rscale>
<asrwt>0</asrwt>
<pdfrwt beam="1">  1        2 0.27059571E+00 0.37248658E+03</pdfrwt>
<pdfrwt beam="2">  1       -2 0.26160394E-02 0.37248658E+03</pdfrwt>
<totfact> 0.51736610E+03</totfact>
</mgrwt>
</event>
<event>
 4    1  0.4895160E-005  0.4323910E+03  0.7818608E-02  0.1033107E+00
         -2   -1    0    0    0  501 -0.00000000000E+00  0.00000000000E+00  0.92923336481E+03  0.92923336482E+03  0.25500000000E-02 0. -1.
          2   -1    0    0  501    0  0.00000000000E+00 -0.00000000000E+00 -0.50300055320E+02  0.50300055384E+02  0.25500000000E-02 0.  1.
    5000001    1    1    2    0    0  0.97689310726E+02  0.12151781963E+03  0.61930063774E+03  0.65113137063E+03  0.12700000000E+03 0.  0.
   -5000001    1    1    2    0    0 -0.97689310726E+02 -0.12151781963E+03  0.25963267176E+03  0.32840204957E+03  0.12700000000E+03 0.  0.
<mgrwt>
<rscale>  0 0.43239098E+03</rscale>
<asrwt>0</asrwt>
<pdfrwt beam="1">  1        2 0.71857223E-02 0.43239098E+03</pdfrwt>
<pdfrwt beam="2">  1       -2 0.13274762E+00 0.43239098E+03</pdfrwt>
<totfact> 0.42477672E+02</totfact>
</mgrwt>
</event>
<event>
 4    1  0.4895160E-005  0.3232731E+03  0.7818608E-02  0.1074153E+00
          2   -1    0    0  501    0  0.00000000000E+00  0.00000000000E+00  0.94449795198E+03  0.94449795199E+03  0.25500000000E-02 0.  1.
         -2   -1    0    0    0  501 -0.00000000000E+00 -0.00000000000E+00 -0.27661659904E+02  0.27661660022E+02  0.25500000000E-02 0. -1.
    5000001    1    1    2    0    0  0.52515879856E+02 -0.33255035380E+02  0.22289994420E+03  0.26396439180E+03  0.12700000000E+03 0.  0.
   -5000001    1    1    2    0    0 -0.52515879856E+02  0.33255035380E+02  0.69393634788E+03  0.70819522021E+03  0.12700000000E+03 0.  0.
<mgrwt>
<rscale>  0 0.32327314E+03</rscale>
<asrwt>0</asrwt>
<pdfrwt beam="1">  1        2 0.13492826E+00 0.32327314E+03</pdfrwt>
<pdfrwt beam="2">  1       -2 0.39516663E-02 0.32327314E+03</pdfrwt>
<totfact> 0.88348667E+03</totfact>
</mgrwt>
</event>
<event>
 4    1  0.4895160E-005  0.4900549E+03  0.7818608E-02  0.1016408E+00
          2   -1    0    0  501    0  0.00000000000E+00  0.00000000000E+00  0.64201625591E+03  0.64201625592E+03  0.25500000000E-02 0.  1.
         -2   -1    0    0    0  501 -0.00000000000E+00 -0.00000000000E+00 -0.93515484761E+02  0.93515484795E+02  0.25500000000E-02 0. -1.
    5000001    1    1    2    0    0  0.32358385756E+02 -0.17584144494E+03  0.11022974702E+03  0.24545239052E+03  0.12700000000E+03 0.  0.
   -5000001    1    1    2    0    0 -0.32358385756E+02  0.17584144494E+03  0.43827102414E+03  0.49007935019E+03  0.12700000000E+03 0.  0.
<mgrwt>
<rscale>  0 0.49005494E+03</rscale>
<asrwt>0</asrwt>
<pdfrwt beam="1">  1        2 0.91716609E-01 0.49005494E+03</pdfrwt>
<pdfrwt beam="2">  1       -2 0.13359355E-01 0.49005494E+03</pdfrwt>
<totfact> 0.21216480E+03</totfact>
</mgrwt>
</event>
<event>
 4    1  0.4895160E-005  0.2830961E+03  0.7818608E-02  0.1094010E+00
         -2   -1    0    0    0  501 -0.00000000000E+00  0.00000000000E+00  0.13057625225E+02  0.13057625474E+02  0.25500000000E-02 0. -1.
          2   -1    0    0  501    0  0.00000000000E+00 -0.00000000000E+00 -0.15344178966E+04  0.15344178966E+04  0.25500000000E-02 0.  1.
    5000001    1    1    2    0    0  0.12347182442E+02  0.61169055597E+02 -0.78019684596E+03  0.79292510663E+03  0.12700000000E+03 0.  0.
   -5000001    1    1    2    0    0 -0.12347182442E+02 -0.61169055597E+02 -0.74116342537E+03  0.75455041540E+03  0.12700000000E+03 0.  0.
<mgrwt>
<rscale>  0 0.28309613E+03</rscale>
<asrwt>0</asrwt>
<pdfrwt beam="1">  1        2 0.21920244E+00 0.28309613E+03</pdfrwt>
<pdfrwt beam="2">  1       -2 0.18653760E-02 0.28309613E+03</pdfrwt>
<totfact> 0.12845797E+04</totfact>
</mgrwt>
</event>
<event>
 4    1  0.4895160E-005  0.4156571E+03  0.7818608E-02  0.1038489E+00
         -2   -1    0    0    0  501 -0.00000000000E+00  0.00000000000E+00  0.97402858286E+02  0.97402858320E+02  0.25500000000E-02 0. -1.
          2   -1    0    0  501    0  0.00000000000E+00 -0.00000000000E+00 -0.44344390546E+03  0.44344390546E+03  0.25500000000E-02 0.  1.
    5000001    1    1    2    0    0  0.84866456423E+02  0.81642600375E+02 -0.23549114667E+02  0.17478956040E+03  0.12700000000E+03 0.  0.
   -5000001    1    1    2    0    0 -0.84866456423E+02 -0.81642600375E+02 -0.32249193250E+03  0.36605720339E+03  0.12700000000E+03 0.  0.
<mgrwt>
<rscale>  0 0.41565709E+03</rscale>
<asrwt>0</asrwt>
<pdfrwt beam="1">  1        2 0.63349128E-01 0.41565709E+03</pdfrwt>
<pdfrwt beam="2">  1       -2 0.13914694E-01 0.41565709E+03</pdfrwt>
<totfact> 0.30206590E+03</totfact>
</mgrwt>
</event>
<event>
 4    1  0.4895160E-005  0.3077076E+03  0.7818608E-02  0.1081450E+00
          2   -1    0    0  501    0  0.00000000000E+00  0.00000000000E+00  0.14096914858E+04  0.14096914858E+04  0.25500000000E-02 0.  1.
         -2   -1    0    0    0  501 -0.00000000000E+00 -0.00000000000E+00 -0.16791607875E+02  0.16791608069E+02  0.25500000000E-02 0. -1.
    5000001    1    1    2    0    0  0.47133629443E+02  0.71456588867E+02  0.62857584425E+03  0.64696538941E+03  0.12700000000E+03 0.  0.
   -5000001    1    1    2    0    0 -0.47133629443E+02 -0.71456588867E+02  0.76432403364E+03  0.77951770443E+03  0.12700000000E+03 0.  0.
<mgrwt>
<rscale>  0 0.30770757E+03</rscale>
<asrwt>0</asrwt>
<pdfrwt beam="1">  1        2 0.20138457E+00 0.30770757E+03</pdfrwt>
<pdfrwt beam="2">  1       -2 0.23988003E-02 0.30770757E+03</pdfrwt>
<totfact> 0.10276860E+04</totfact>
</mgrwt>
</event>
<event>
 4    1  0.4895160E-005  0.2760159E+03  0.7818608E-02  0.1097885E+00
          2   -1    0    0  501    0  0.00000000000E+00  0.00000000000E+00  0.66823117954E+03  0.66823117954E+03  0.25500000000E-02 0.  1.
         -2   -1    0    0    0  501 -0.00000000000E+00 -0.00000000000E+00 -0.28502408456E+02  0.28502408570E+02  0.25500000000E-02 0. -1.
    5000001    1    1    2    0    0  0.44436608291E+02 -0.27269469803E-01  0.39736281538E+03  0.41952451650E+03  0.12700000000E+03 0.  0.
   -5000001    1    1    2    0    0 -0.44436608291E+02  0.27269469803E-01  0.24236595570E+03  0.27720907161E+03  0.12700000000E+03 0.  0.
<mgrwt>
<rscale>  0 0.27601593E+03</rscale>
<asrwt>0</asrwt>
<pdfrwt beam="1">  1        2 0.95461602E-01 0.27601593E+03</pdfrwt>
<pdfrwt beam="2">  1       -2 0.40717724E-02 0.27601593E+03</pdfrwt>
<totfact> 0.12916553E+04</totfact>
</mgrwt>
</event>
<event>
 4    1  0.4895160E-005  0.3702465E+03  0.7818608E-02  0.1054599E+00
          2   -1    0    0  501    0  0.00000000000E+00  0.00000000000E+00  0.10828949550E+04  0.10828949550E+04  0.25500000000E-02 0.  1.
         -2   -1    0    0    0  501 -0.00000000000E+00 -0.00000000000E+00 -0.31647222177E+02  0.31647222280E+02  0.25500000000E-02 0. -1.
    5000001    1    1    2    0    0 -0.10739171068E+03 -0.81292447617E+02  0.52688578613E+03  0.55846134440E+03  0.12700000000E+03 0.  0.
   -5000001    1    1    2    0    0  0.10739171068E+03  0.81292447617E+02  0.52436194669E+03  0.55608083288E+03  0.12700000000E+03 0.  0.
<mgrwt>
<rscale>  0 0.37024650E+03</rscale>
<asrwt>0</asrwt>
<pdfrwt beam="1">  1        2 0.15469928E+00 0.37024650E+03</pdfrwt>
<pdfrwt beam="2">  1       -2 0.45210317E-02 0.37024650E+03</pdfrwt>
<totfact> 0.59805590E+03</totfact>
</mgrwt>
</event>
<event>
 4    1  0.4895160E-005  0.3008874E+03  0.7818608E-02  0.1084798E+00
         -2   -1    0    0    0  501 -0.00000000000E+00  0.00000000000E+00  0.11932534649E+02  0.11932534922E+02  0.25500000000E-02 0. -1.
          2   -1    0    0  501    0  0.00000000000E+00 -0.00000000000E+00 -0.18967732942E+04  0.18967732942E+04  0.25500000000E-02 0.  1.
    5000001    1    1    2    0    0  0.70207921634E+02  0.38368485974E+02 -0.10068071181E+04  0.10179346079E+04  0.12700000000E+03 0.  0.
   -5000001    1    1    2    0    0 -0.70207921634E+02 -0.38368485974E+02 -0.87803364143E+03  0.89077122116E+03  0.12700000000E+03 0.  0.
<mgrwt>
<rscale>  0 0.30088744E+03</rscale>
<asrwt>0</asrwt>
<pdfrwt beam="1">  1        2 0.27096742E+00 0.30088744E+03</pdfrwt>
<pdfrwt beam="2">  1       -2 0.17046490E-02 0.30088744E+03</pdfrwt>
<totfact> 0.97182944E+03</totfact>
</mgrwt>
</event>
<event>
 4    1  0.4895160E-005  0.5097745E+03  0.7818608E-02  0.1011259E+00
         -2   -1    0    0    0  501 -0.00000000000E+00  0.00000000000E+00  0.34183911668E+02  0.34183911763E+02  0.25500000000E-02 0. -1.
          2   -1    0    0  501    0  0.00000000000E+00 -0.00000000000E+00 -0.19005289576E+04  0.19005289576E+04  0.25500000000E-02 0.  1.
    5000001    1    1    2    0    0  0.16750045776E+03  0.14347789447E+03 -0.88001154743E+03  0.91607403257E+03  0.12700000000E+03 0.  0.
   -5000001    1    1    2    0    0 -0.16750045776E+03 -0.14347789447E+03 -0.98633349855E+03  0.10186388368E+04  0.12700000000E+03 0.  0.
<mgrwt>
<rscale>  0 0.50977452E+03</rscale>
<asrwt>0</asrwt>
<pdfrwt beam="1">  1        2 0.27150407E+00 0.50977452E+03</pdfrwt>
<pdfrwt beam="2">  1       -2 0.48834172E-02 0.50977452E+03</pdfrwt>
<totfact> 0.19847623E+03</totfact>
</mgrwt>
</event>
<event>
 4    1  0.4895160E-005  0.8765625E+03  0.7818608E-02  0.9455363E-01
          2   -1    0    0  501    0  0.00000000000E+00  0.00000000000E+00  0.10678231680E+04  0.10678231680E+04  0.25500000000E-02 0.  1.
         -2   -1    0    0    0  501 -0.00000000000E+00 -0.00000000000E+00 -0.17988975529E+03  0.17988975531E+03  0.25500000000E-02 0. -1.
    5000001    1    1    2    0    0 -0.31759877107E+03  0.22116996815E+03  0.67426251824E+03  0.78774620133E+03  0.12700000000E+03 0.  0.
   -5000001    1    1    2    0    0  0.31759877107E+03 -0.22116996815E+03  0.21367089446E+03  0.45996672199E+03  0.12700000000E+03 0.  0.
<mgrwt>
<rscale>  0 0.87656249E+03</rscale>
<asrwt>0</asrwt>
<pdfrwt beam="1">  1        2 0.15254617E+00 0.87656249E+03</pdfrwt>
<pdfrwt beam="2">  1       -2 0.25698536E-01 0.87656249E+03</pdfrwt>
<totfact> 0.34832305E+02</totfact>
</mgrwt>
</event>
<event>
 4    1  0.4895160E-005  0.3834554E+03  0.7818608E-02  0.1049664E+00
         -2   -1    0    0    0  501 -0.00000000000E+00  0.00000000000E+00  0.55077029040E+03  0.55077029041E+03  0.25500000000E-02 0. -1.
          2   -1    0    0  501    0  0.00000000000E+00 -0.00000000000E+00 -0.66741983316E+02  0.66741983365E+02  0.25500000000E-02 0.  1.
    5000001    1    1    2    0    0  0.61424349182E+02  0.91541541725E+02  0.93738537460E+02  0.19253238153E+03  0.12700000000E+03 0.  0.
   -5000001    1    1    2    0    0 -0.61424349182E+02 -0.91541541725E+02  0.39028976963E+03  0.42497989224E+03  0.12700000000E+03 0.  0.
<mgrwt>
<rscale>  0 0.38345535E+03</rscale>
<asrwt>0</asrwt>
<pdfrwt beam="1">  1        2 0.95345692E-02 0.38345535E+03</pdfrwt>
<pdfrwt beam="2">  1       -2 0.78681468E-01 0.38345535E+03</pdfrwt>
<totfact> 0.10128096E+03</totfact>
</mgrwt>
</event>
<event>
 4    1  0.4895160E-005  0.3543112E+03  0.7818608E-02  0.1060859E+00
          2   -1    0    0  501    0  0.00000000000E+00  0.00000000000E+00  0.17983925936E+04  0.17983925936E+04  0.25500000000E-02 0.  1.
         -2   -1    0    0    0  501 -0.00000000000E+00 -0.00000000000E+00 -0.17451199946E+02  0.17451200133E+02  0.25500000000E-02 0. -1.
    5000001    1    1    2    0    0  0.10072396441E+03 -0.63001102850E+02  0.71738134537E+03  0.73815950218E+03  0.12700000000E+03 0.  0.
   -5000001    1    1    2    0    0 -0.10072396441E+03  0.63001102850E+02  0.10635600483E+04  0.10776842916E+04  0.12700000000E+03 0.  0.
<mgrwt>
<rscale>  0 0.35431121E+03</rscale>
<asrwt>0</asrwt>
<pdfrwt beam="1">  1        2 0.25691328E+00 0.35431121E+03</pdfrwt>
<pdfrwt beam="2">  1       -2 0.24930280E-02 0.35431121E+03</pdfrwt>
<totfact> 0.61991205E+03</totfact>
</mgrwt>
</event>
<event>
 4    1  0.4895160E-005  0.3796838E+03  0.7818608E-02  0.1051051E+00
          2   -1    0    0  501    0  0.00000000000E+00  0.00000000000E+00  0.19423911250E+03  0.19423911251E+03  0.25500000000E-02 0.  1.
         -2   -1    0    0    0  501 -0.00000000000E+00 -0.00000000000E+00 -0.18554421305E+03  0.18554421307E+03  0.25500000000E-02 0. -1.
    5000001    1    1    2    0    0 -0.96895506798E+02  0.68928000705E+02  0.80335352042E+02  0.19163135784E+03  0.12700000000E+03 0.  0.
   -5000001    1    1    2    0    0  0.96895506798E+02 -0.68928000705E+02 -0.71640452596E+02  0.18815196775E+03  0.12700000000E+03 0.  0.
<mgrwt>
<rscale>  0 0.37968378E+03</rscale>
<asrwt>0</asrwt>
<pdfrwt beam="1">  1        2 0.27748445E-01 0.37968378E+03</pdfrwt>
<pdfrwt beam="2">  1       -2 0.26506316E-01 0.37968378E+03</pdfrwt>
<totfact> 0.24651723E+03</totfact>
</mgrwt>
</event>
<event>
 4    1  0.4895160E-005  0.3050037E+03  0.7818608E-02  0.1082766E+00
         -2   -1    0    0    0  501 -0.00000000000E+00  0.00000000000E+00  0.13574866880E+02  0.13574867120E+02  0.25500000000E-02 0. -1.
          2   -1    0    0  501    0  0.00000000000E+00 -0.00000000000E+00 -0.17132264714E+04  0.17132264714E+04  0.25500000000E-02 0.  1.
    5000001    1    1    2    0    0 -0.83044735477E+02 -0.15184985392E+02 -0.85492002917E+03  0.86841480189E+03  0.12700000000E+03 0.  0.
   -5000001    1    1    2    0    0  0.83044735477E+02  0.15184985392E+02 -0.84473157535E+03  0.85838653662E+03  0.12700000000E+03 0.  0.
<mgrwt>
<rscale>  0 0.30500375E+03</rscale>
<asrwt>0</asrwt>
<pdfrwt beam="1">  1        2 0.24474650E+00 0.30500375E+03</pdfrwt>
<pdfrwt beam="2">  1       -2 0.19392678E-02 0.30500375E+03</pdfrwt>
<totfact> 0.98970466E+03</totfact>
</mgrwt>
</event>
<event>
 4    1  0.4895160E-005  0.2625242E+03  0.7818608E-02  0.1105636E+00
         -2   -1    0    0    0  501 -0.00000000000E+00  0.00000000000E+00  0.93125799916E+01  0.93125803407E+01  0.25500000000E-02 0. -1.
          2   -1    0    0  501    0  0.00000000000E+00 -0.00000000000E+00 -0.18501578324E+04  0.18501578324E+04  0.25500000000E-02 0.  1.
    5000001    1    1    2    0    0 -0.58737755432E+01 -0.21573836108E+02 -0.10940383245E+04  0.11016119040E+04  0.12700000000E+03 0.  0.
   -5000001    1    1    2    0    0  0.58737755432E+01  0.21573836108E+02 -0.74680692791E+03  0.75785850870E+03  0.12700000000E+03 0.  0.
<mgrwt>
<rscale>  0 0.26252423E+03</rscale>
<asrwt>0</asrwt>
<pdfrwt beam="1">  1        2 0.26430803E+00 0.26252423E+03</pdfrwt>
<pdfrwt beam="2">  1       -2 0.13303698E-02 0.26252423E+03</pdfrwt>
<totfact> 0.14681408E+04</totfact>
</mgrwt>
</event>
<event>
 4    1  0.4895160E-005  0.5035992E+03  0.7818608E-02  0.1012844E+00
         -2   -1    0    0    0  501 -0.00000000000E+00  0.00000000000E+00  0.74067989458E+02  0.74067989502E+02  0.25500000000E-02 0. -1.
          2   -1    0    0  501    0  0.00000000000E+00 -0.00000000000E+00 -0.85601118971E+03  0.85601118972E+03  0.25500000000E-02 0.  1.
    5000001    1    1    2    0    0 -0.20096439194E+03  0.61444828407E+02 -0.28794581518E+03  0.37842297267E+03  0.12700000000E+03 0.  0.
   -5000001    1    1    2    0    0  0.20096439194E+03 -0.61444828407E+02 -0.49399738507E+03  0.55165620655E+03  0.12700000000E+03 0.  0.
<mgrwt>
<rscale>  0 0.50359916E+03</rscale>
<asrwt>0</asrwt>
<pdfrwt beam="1">  1        2 0.12228731E+00 0.50359916E+03</pdfrwt>
<pdfrwt beam="2">  1       -2 0.10581142E-01 0.50359916E+03</pdfrwt>
<totfact> 0.21763554E+03</totfact>
</mgrwt>
</event>
<event>
 4    1  0.4895160E-005  0.4794486E+03  0.7818608E-02  0.1019287E+00
         -2   -1    0    0    0  501 -0.00000000000E+00  0.00000000000E+00  0.36358313360E+02  0.36358313450E+02  0.25500000000E-02 0. -1.
          2   -1    0    0  501    0  0.00000000000E+00 -0.00000000000E+00 -0.15805941487E+04  0.15805941487E+04  0.25500000000E-02 0.  1.
    5000001    1    1    2    0    0  0.13495271165E+03  0.14880510870E+03 -0.87788531319E+03  0.90948711803E+03  0.12700000000E+03 0.  0.
   -5000001    1    1    2    0    0 -0.13495271165E+03 -0.14880510870E+03 -0.66635052217E+03  0.70746534414E+03  0.12700000000E+03 0.  0.
<mgrwt>
<rscale>  0 0.47944859E+03</rscale>
<asrwt>0</asrwt>
<pdfrwt beam="1">  1        2 0.22579912E+00 0.47944859E+03</pdfrwt>
<pdfrwt beam="2">  1       -2 0.51940457E-02 0.47944859E+03</pdfrwt>
<totfact> 0.26181358E+03</totfact>
</mgrwt>
</event>
<event>
 4    1  0.4895160E-005  0.5197189E+03  0.7818608E-02  0.1008756E+00
         -2   -1    0    0    0  501 -0.00000000000E+00  0.00000000000E+00  0.38119699917E+02  0.38119700002E+02  0.25500000000E-02 0. -1.
          2   -1    0    0  501    0  0.00000000000E+00 -0.00000000000E+00 -0.17714443190E+04  0.17714443190E+04  0.25500000000E-02 0.  1.
    5000001    1    1    2    0    0 -0.14647757817E+03  0.15556672312E+03 -0.11304826680E+04  0.11574872565E+04  0.12700000000E+03 0.  0.
   -5000001    1    1    2    0    0  0.14647757817E+03 -0.15556672312E+03 -0.60284195108E+03  0.65207676253E+03  0.12700000000E+03 0.  0.
<mgrwt>
<rscale>  0 0.51971887E+03</rscale>
<asrwt>0</asrwt>
<pdfrwt beam="1">  1        2 0.25306342E+00 0.51971887E+03</pdfrwt>
<pdfrwt beam="2">  1       -2 0.54456725E-02 0.51971887E+03</pdfrwt>
<totfact> 0.19453789E+03</totfact>
</mgrwt>
</event>
<event>
 4    1  0.4895160E-005  0.2971565E+03  0.7818608E-02  0.1086671E+00
          2   -1    0    0  501    0  0.00000000000E+00  0.00000000000E+00  0.11442714139E+04  0.11442714139E+04  0.25500000000E-02 0.  1.
         -2   -1    0    0    0  501 -0.00000000000E+00 -0.00000000000E+00 -0.19292182884E+02  0.19292183052E+02  0.25500000000E-02 0. -1.
    5000001    1    1    2    0    0  0.19422808274E+02  0.46531695853E+02  0.33403347315E+03  0.36090137903E+03  0.12700000000E+03 0.  0.
   -5000001    1    1    2    0    0 -0.19422808274E+02 -0.46531695853E+02  0.79094575789E+03  0.80266221795E+03  0.12700000000E+03 0.  0.
<mgrwt>
<rscale>  0 0.29715648E+03</rscale>
<asrwt>0</asrwt>
<pdfrwt beam="1">  1        2 0.16346731E+00 0.29715648E+03</pdfrwt>
<pdfrwt beam="2">  1       -2 0.27560267E-02 0.29715648E+03</pdfrwt>
<totfact> 0.11574044E+04</totfact>
</mgrwt>
</event>
<event>
 4    1  0.4895160E-005  0.7149333E+03  0.7818608E-02  0.9692030E-01
         -2   -1    0    0    0  501 -0.00000000000E+00  0.00000000000E+00  0.22574518180E+03  0.22574518181E+03  0.25500000000E-02 0. -1.
          2   -1    0    0  501    0  0.00000000000E+00 -0.00000000000E+00 -0.56604714839E+03  0.56604714840E+03  0.25500000000E-02 0.  1.
    5000001    1    1    2    0    0  0.80661276557E+02  0.28159828662E+03 -0.34821349333E+03  0.47242509830E+03  0.12700000000E+03 0.  0.
   -5000001    1    1    2    0    0 -0.80661276557E+02 -0.28159828662E+03  0.79115267371E+01  0.31936723191E+03  0.12700000000E+03 0.  0.
<mgrwt>
<rscale>  0 0.71493333E+03</rscale>
<asrwt>0</asrwt>
<pdfrwt beam="1">  1        2 0.80863878E-01 0.71493333E+03</pdfrwt>
<pdfrwt beam="2">  1       -2 0.32249312E-01 0.71493333E+03</pdfrwt>
<totfact> 0.52277329E+02</totfact>
</mgrwt>
</event>
<event>
 4    1  0.4895160E-005  0.4012883E+03  0.7818608E-02  0.1043334E+00
          2   -1    0    0  501    0  0.00000000000E+00  0.00000000000E+00  0.23961440391E+03  0.23961440392E+03  0.25500000000E-02 0.  1.
         -2   -1    0    0    0  501 -0.00000000000E+00 -0.00000000000E+00 -0.16801191950E+03  0.16801191952E+03  0.25500000000E-02 0. -1.
    5000001    1    1    2    0    0  0.10067536223E+03 -0.11669619761E+03  0.16116187564E+02  0.20035534083E+03  0.12700000000E+03 0.  0.
   -5000001    1    1    2    0    0 -0.10067536223E+03  0.11669619761E+03  0.55486296848E+02  0.20727098261E+03  0.12700000000E+03 0.  0.
<mgrwt>
<rscale>  0 0.40128831E+03</rscale>
<asrwt>0</asrwt>
<pdfrwt beam="1">  1        2 0.34230629E-01 0.40128831E+03</pdfrwt>
<pdfrwt beam="2">  1       -2 0.24001703E-01 0.40128831E+03</pdfrwt>
<totfact> 0.23335142E+03</totfact>
</mgrwt>
</event>
<event>
 4    1  0.4895160E-005  0.3285058E+03  0.7818608E-02  0.1071800E+00
         -2   -1    0    0    0  501 -0.00000000000E+00  0.00000000000E+00  0.16620679506E+03  0.16620679508E+03  0.25500000000E-02 0. -1.
          2   -1    0    0  501    0  0.00000000000E+00 -0.00000000000E+00 -0.16232195574E+03  0.16232195576E+03  0.25500000000E-02 0.  1.
    5000001    1    1    2    0    0 -0.40673666236E+02  0.94902765496E+02  0.15695836134E+02  0.16442700902E+03  0.12700000000E+03 0.  0.
   -5000001    1    1    2    0    0  0.40673666236E+02 -0.94902765496E+02 -0.11810996810E+02  0.16410174182E+03  0.12700000000E+03 0.  0.
<mgrwt>
<rscale>  0 0.32850578E+03</rscale>
<asrwt>0</asrwt>
<pdfrwt beam="1">  1        2 0.23188851E-01 0.32850578E+03</pdfrwt>
<pdfrwt beam="2">  1       -2 0.23743828E-01 0.32850578E+03</pdfrwt>
<totfact> 0.36562685E+03</totfact>
</mgrwt>
</event>
<event>
 4    1  0.4895160E-005  0.4146534E+03  0.7818608E-02  0.1038821E+00
         -2   -1    0    0    0  501 -0.00000000000E+00  0.00000000000E+00  0.18533051190E+02  0.18533051365E+02  0.25500000000E-02 0. -1.
          2   -1    0    0  501    0  0.00000000000E+00 -0.00000000000E+00 -0.23193356347E+04  0.23193356347E+04  0.25500000000E-02 0.  1.
    5000001    1    1    2    0    0  0.15276743491E+03  0.46495787536E+02 -0.94281262033E+03  0.96463691848E+03  0.12700000000E+03 0.  0.
   -5000001    1    1    2    0    0 -0.15276743491E+03 -0.46495787536E+02 -0.13579899632E+04  0.13732317676E+04  0.12700000000E+03 0.  0.
<mgrwt>
<rscale>  0 0.41465343E+03</rscale>
<asrwt>0</asrwt>
<pdfrwt beam="1">  1        2 0.33133348E+00 0.41465343E+03</pdfrwt>
<pdfrwt beam="2">  1       -2 0.26475802E-02 0.41465343E+03</pdfrwt>
<totfact> 0.31252779E+03</totfact>
</mgrwt>
</event>
<event>
 4    1  0.4895160E-005  0.6690860E+03  0.7818608E-02  0.9771610E-01
          2   -1    0    0  501    0  0.00000000000E+00  0.00000000000E+00  0.15896901059E+04  0.15896901059E+04  0.25500000000E-02 0.  1.
         -2   -1    0    0    0  501 -0.00000000000E+00 -0.00000000000E+00 -0.70403047959E+02  0.70403048005E+02  0.25500000000E-02 0. -1.
    5000001    1    1    2    0    0  0.20234168455E+03  0.15643991103E+03  0.11920622962E+04  0.12257883672E+04  0.12700000000E+03 0.  0.
   -5000001    1    1    2    0    0 -0.20234168455E+03 -0.15643991103E+03  0.32722476167E+03  0.43430478667E+03  0.12700000000E+03 0.  0.
<mgrwt>
<rscale>  0 0.66908603E+03</rscale>
<asrwt>0</asrwt>
<pdfrwt beam="1">  1        2 0.22709858E+00 0.66908603E+03</pdfrwt>
<pdfrwt beam="2">  1       -2 0.10057578E-01 0.66908603E+03</pdfrwt>
<totfact> 0.90411373E+02</totfact>
</mgrwt>
</event>
<event>
 4    1  0.4895160E-005  0.3203282E+03  0.7818608E-02  0.1075498E+00
         -2   -1    0    0    0  501 -0.00000000000E+00  0.00000000000E+00  0.72349027691E+01  0.72349032185E+01  0.25500000000E-02 0. -1.
          2   -1    0    0  501    0  0.00000000000E+00 -0.00000000000E+00 -0.35456635240E+04  0.35456635240E+04  0.25500000000E-02 0.  1.
    5000001    1    1    2    0    0  0.18803057832E+02 -0.69486202776E+02 -0.10383869477E+04  0.10485982742E+04  0.12700000000E+03 0.  0.
   -5000001    1    1    2    0    0 -0.18803057832E+02  0.69486202776E+02 -0.25000416735E+04  0.25043001530E+04  0.12700000000E+03 0.  0.
<mgrwt>
<rscale>  0 0.32032815E+03</rscale>
<asrwt>0</asrwt>
<pdfrwt beam="1">  1        2 0.50652225E+00 0.32032815E+03</pdfrwt>
<pdfrwt beam="2">  1       -2 0.10335598E-02 0.32032815E+03</pdfrwt>
<totfact> 0.27923583E+03</totfact>
</mgrwt>
</event>
<event>
 4    1  0.4895160E-005  0.6297576E+03  0.7818608E-02  0.9845522E-01
         -2   -1    0    0    0  501 -0.00000000000E+00  0.00000000000E+00  0.12795326174E+03  0.12795326176E+03  0.25500000000E-02 0.  1.
          2   -1    0    0  501    0  0.00000000000E+00 -0.00000000000E+00 -0.77488180028E+03  0.77488180028E+03  0.25500000000E-02 0. -1.
    5000001    1    1    2    0    0 -0.95665816118E+02  0.20246880797E+03 -0.63531004356E+02  0.26516175269E+03  0.12700000000E+03 0.  0.
   -5000001    1    1    2    0    0  0.95665816118E+02 -0.20246880797E+03 -0.58339753419E+03  0.63767330936E+03  0.12700000000E+03 0.  0.
<mgrwt>
<rscale>  0 0.62975758E+03</rscale>
<asrwt>0</asrwt>
<pdfrwt beam="1">  1        2 0.11069740E+00 0.62975758E+03</pdfrwt>
<pdfrwt beam="2">  1       -2 0.18279038E-01 0.62975758E+03</pdfrwt>
<totfact> 0.99153578E+02</totfact>
</mgrwt>
</event>
<event>
 4    1  0.4895160E-005  0.3324242E+03  0.7818608E-02  0.1070069E+00
         -2   -1    0    0    0  501 -0.00000000000E+00  0.00000000000E+00  0.63339111611E+02  0.63339111662E+02  0.25500000000E-02 0. -1.
          2   -1    0    0  501    0  0.00000000000E+00 -0.00000000000E+00 -0.43616749081E+03  0.43616749082E+03  0.25500000000E-02 0.  1.
    5000001    1    1    2    0    0 -0.82125650251E+02 -0.66848644145E+02 -0.21174111661E+03  0.26865714976E+03  0.12700000000E+03 0.  0.
   -5000001    1    1    2    0    0  0.82125650251E+02  0.66848644145E+02 -0.16108726259E+03  0.23084945272E+03  0.12700000000E+03 0.  0.
<mgrwt>
<rscale>  0 0.33242420E+03</rscale>
<asrwt>0</asrwt>
<pdfrwt beam="1">  1        2 0.62309640E-01 0.33242420E+03</pdfrwt>
<pdfrwt beam="2">  1       -2 0.90484448E-02 0.33242420E+03</pdfrwt>
<totfact> 0.61425520E+03</totfact>
</mgrwt>
</event>
<event>
 4    1  0.4895160E-005  0.4120419E+03  0.7818608E-02  0.1039688E+00
         -2   -1    0    0    0  501 -0.00000000000E+00  0.00000000000E+00  0.20749667948E+02  0.20749668104E+02  0.25500000000E-02 0. -1.
          2   -1    0    0  501    0  0.00000000000E+00 -0.00000000000E+00 -0.20455574529E+04  0.20455574529E+04  0.25500000000E-02 0.  1.
    5000001    1    1    2    0    0  0.80834665478E+02  0.48781479608E+02 -0.35087308521E+03  0.38490881754E+03  0.12700000000E+03 0.  0.
   -5000001    1    1    2    0    0 -0.80834665478E+02 -0.48781479608E+02 -0.16739346997E+04  0.16813983034E+04  0.12700000000E+03 0.  0.
<mgrwt>
<rscale>  0 0.41204193E+03</rscale>
<asrwt>0</asrwt>
<pdfrwt beam="1">  1        2 0.29222237E+00 0.41204193E+03</pdfrwt>
<pdfrwt beam="2">  1       -2 0.29642396E-02 0.41204193E+03</pdfrwt>
<totfact> 0.36082290E+03</totfact>
</mgrwt>
</event>
<event>
 4    1  0.4895160E-005  0.6724924E+03  0.7818608E-02  0.9765466E-01
         -2   -1    0    0    0  501 -0.00000000000E+00  0.00000000000E+00  0.81261820718E+02  0.81261820758E+02  0.25500000000E-02 0. -1.
          2   -1    0    0  501    0  0.00000000000E+00 -0.00000000000E+00 -0.13913239076E+04  0.13913239076E+04  0.25500000000E-02 0.  1.
    5000001    1    1    2    0    0 -0.20794996464E+03 -0.17514249073E+03 -0.32283585053E+03  0.44076078120E+03  0.12700000000E+03 0.  0.
   -5000001    1    1    2    0    0  0.20794996464E+03  0.17514249073E+03 -0.98722623640E+03  0.10318249472E+04  0.12700000000E+03 0.  0.
<mgrwt>
<rscale>  0 0.67249242E+03</rscale>
<asrwt>0</asrwt>
<pdfrwt beam="1">  1        2 0.19876054E+00 0.67249242E+03</pdfrwt>
<pdfrwt beam="2">  1       -2 0.11608832E-01 0.67249242E+03</pdfrwt>
<totfact> 0.90857870E+02</totfact>
</mgrwt>
</event>
<event>
 4    1  0.4895160E-005  0.3231579E+03  0.7818608E-02  0.1074205E+00
         -2   -1    0    0    0  501 -0.00000000000E+00  0.00000000000E+00  0.12945962972E+03  0.12945962974E+03  0.25500000000E-02 0.  1.
          2   -1    0    0  501    0  0.00000000000E+00 -0.00000000000E+00 -0.20166715064E+03  0.20166715065E+03  0.25500000000E-02 0. -1.
    5000001    1    1    2    0    0  0.22145552199E+02  0.69162525546E+02  0.34179768380E+02  0.15023693617E+03  0.12700000000E+03 0.  0.
   -5000001    1    1    2    0    0 -0.22145552199E+02 -0.69162525546E+02 -0.10638728930E+03  0.18088984423E+03  0.12700000000E+03 0.  0.
<mgrwt>
<rscale>  0 0.32315788E+03</rscale>
<asrwt>0</asrwt>
<pdfrwt beam="1">  1        2 0.28809593E-01 0.32315788E+03</pdfrwt>
<pdfrwt beam="2">  1       -2 0.18494233E-01 0.32315788E+03</pdfrwt>
<totfact> 0.44143185E+03</totfact>
</mgrwt>
</event>
<event>
 4    1  0.4895160E-005  0.3413570E+03  0.7818608E-02  0.1066219E+00
         -2   -1    0    0    0  501 -0.00000000000E+00  0.00000000000E+00  0.19493776522E+04  0.19493776522E+04  0.25500000000E-02 0. -1.
          2   -1    0    0  501    0  0.00000000000E+00 -0.00000000000E+00 -0.14943823501E+02  0.14943823718E+02  0.25500000000E-02 0.  1.
    5000001    1    1    2    0    0 -0.31739605852E+02 -0.10887480923E+03  0.10355542608E+04  0.10494583144E+04  0.12700000000E+03 0.  0.
   -5000001    1    1    2    0    0  0.31739605852E+02  0.10887480923E+03  0.89887956785E+03  0.91486316144E+03  0.12700000000E+03 0.  0.
<mgrwt>
<rscale>  0 0.34135703E+03</rscale>
<asrwt>0</asrwt>
<pdfrwt beam="1">  1        2 0.21348323E-02 0.34135703E+03</pdfrwt>
<pdfrwt beam="2">  1       -2 0.27848247E+00 0.34135703E+03</pdfrwt>
<totfact> 0.24416686E+02</totfact>
</mgrwt>
</event>
<event>
 4    1  0.4895160E-005  0.5029164E+03  0.7818608E-02  0.1013020E+00
          2   -1    0    0  501    0  0.00000000000E+00  0.00000000000E+00  0.10326406529E+04  0.10326406529E+04  0.25500000000E-02 0.  1.
         -2   -1    0    0    0  501 -0.00000000000E+00 -0.00000000000E+00 -0.61232552333E+02  0.61232552387E+02  0.25500000000E-02 0. -1.
    5000001    1    1    2    0    0  0.90629446259E+02 -0.19134946157E+03  0.58942293119E+03  0.63904358598E+03  0.12700000000E+03 0.  0.
   -5000001    1    1    2    0    0 -0.90629446259E+02  0.19134946157E+03  0.38198516936E+03  0.45482961929E+03  0.12700000000E+03 0.  0.
<mgrwt>
<rscale>  0 0.50291639E+03</rscale>
<asrwt>0</asrwt>
<pdfrwt beam="1">  1        2 0.14752008E+00 0.50291639E+03</pdfrwt>
<pdfrwt beam="2">  1       -2 0.87475082E-02 0.50291639E+03</pdfrwt>
<totfact> 0.22923178E+03</totfact>
</mgrwt>
</event>
<event>
 4    1  0.4895160E-005  0.6355718E+03  0.7818608E-02  0.9834236E-01
          2   -1    0    0  501    0  0.00000000000E+00  0.00000000000E+00  0.16985551196E+03  0.16985551198E+03  0.25500000000E-02 0.  1.
         -2   -1    0    0    0  501 -0.00000000000E+00 -0.00000000000E+00 -0.59455160014E+03  0.59455160015E+03  0.25500000000E-02 0. -1.
    5000001    1    1    2    0    0  0.24586689698E+03  0.69393337710E+02 -0.38069663549E+03  0.47573616072E+03  0.12700000000E+03 0.  0.
   -5000001    1    1    2    0    0 -0.24586689698E+03 -0.69393337710E+02 -0.43999452695E+02  0.28867095141E+03  0.12700000000E+03 0.  0.
<mgrwt>
<rscale>  0 0.63557176E+03</rscale>
<asrwt>0</asrwt>
<pdfrwt beam="1">  1        2 0.24265073E-01 0.63557176E+03</pdfrwt>
<pdfrwt beam="2">  1       -2 0.84935942E-01 0.63557176E+03</pdfrwt>
<totfact> 0.27662537E+02</totfact>
</mgrwt>
</event>
<event>
 4    1  0.4895160E-005  0.3518367E+03  0.7818608E-02  0.1061864E+00
         -2   -1    0    0    0  501 -0.00000000000E+00  0.00000000000E+00  0.61617124666E+02  0.61617124719E+02  0.25500000000E-02 0.  1.
          2   -1    0    0  501    0  0.00000000000E+00 -0.00000000000E+00 -0.50225117425E+03  0.50225117426E+03  0.25500000000E-02 0. -1.
    5000001    1    1    2    0    0  0.29624653225E+01  0.82578354249E+02 -0.77059194423E+02  0.16998552949E+03  0.12700000000E+03 0.  0.
   -5000001    1    1    2    0    0 -0.29624653225E+01 -0.82578354249E+02 -0.36357485517E+03  0.39388276949E+03  0.12700000000E+03 0.  0.
<mgrwt>
<rscale>  0 0.35183674E+03</rscale>
<asrwt>0</asrwt>
<pdfrwt beam="1">  1        2 0.71750165E-01 0.35183674E+03</pdfrwt>
<pdfrwt beam="2">  1       -2 0.88024467E-02 0.35183674E+03</pdfrwt>
<totfact> 0.54982617E+03</totfact>
</mgrwt>
</event>
<event>
 4    1  0.4895160E-005  0.3569462E+03  0.7818608E-02  0.1059800E+00
          2   -1    0    0  501    0  0.00000000000E+00  0.00000000000E+00  0.11335496269E+04  0.11335496269E+04  0.25500000000E-02 0.  1.
         -2   -1    0    0    0  501 -0.00000000000E+00 -0.00000000000E+00 -0.28099917145E+02  0.28099917261E+02  0.25500000000E-02 0. -1.
    5000001    1    1    2    0    0  0.46765571350E+02 -0.91178585427E+02  0.31752534610E+03  0.35700405953E+03  0.12700000000E+03 0.  0.
   -5000001    1    1    2    0    0 -0.46765571350E+02  0.91178585427E+02  0.78792436369E+03  0.80464548467E+03  0.12700000000E+03 0.  0.
<mgrwt>
<rscale>  0 0.35694622E+03</rscale>
<asrwt>0</asrwt>
<pdfrwt beam="1">  1        2 0.16193565E+00 0.35694622E+03</pdfrwt>
<pdfrwt beam="2">  1       -2 0.40142741E-02 0.35694622E+03</pdfrwt>
<totfact> 0.67017054E+03</totfact>
</mgrwt>
</event>
<event>
 4    1  0.4895160E-005  0.3012355E+03  0.7818608E-02  0.1084625E+00
         -2   -1    0    0    0  501 -0.00000000000E+00  0.00000000000E+00  0.11219351085E+03  0.11219351088E+03  0.25500000000E-02 0. -1.
          2   -1    0    0  501    0  0.00000000000E+00 -0.00000000000E+00 -0.20220164015E+03  0.20220164017E+03  0.25500000000E-02 0.  1.
    5000001    1    1    2    0    0 -0.58271343579E+02 -0.49782699920E+02 -0.72276930410E+02  0.16500551919E+03  0.12700000000E+03 0.  0.
   -5000001    1    1    2    0    0  0.58271343579E+02  0.49782699920E+02 -0.17731198889E+02  0.14938963186E+03  0.12700000000E+03 0.  0.
<mgrwt>
<rscale>  0 0.30123554E+03</rscale>
<asrwt>0</asrwt>
<pdfrwt beam="1">  1        2 0.28885949E-01 0.30123554E+03</pdfrwt>
<pdfrwt beam="2">  1       -2 0.16027644E-01 0.30123554E+03</pdfrwt>
<totfact> 0.55884290E+03</totfact>
</mgrwt>
</event>
<event>
 4    1  0.4895160E-005  0.3541237E+03  0.7818608E-02  0.1060935E+00
          2   -1    0    0  501    0  0.00000000000E+00  0.00000000000E+00  0.19986783938E+03  0.19986783939E+03  0.25500000000E-02 0.  1.
         -2   -1    0    0    0  501 -0.00000000000E+00 -0.00000000000E+00 -0.15685813240E+03  0.15685813242E+03  0.25500000000E-02 0. -1.
    5000001    1    1    2    0    0  0.70636904698E+02  0.80773932435E+02  0.82844815299E+02  0.18575861726E+03  0.12700000000E+03 0.  0.
   -5000001    1    1    2    0    0 -0.70636904698E+02 -0.80773932435E+02 -0.39835108324E+02  0.17096735455E+03  0.12700000000E+03 0.  0.
<mgrwt>
<rscale>  0 0.35412368E+03</rscale>
<asrwt>0</asrwt>
<pdfrwt beam="1">  1        2 0.28552549E-01 0.35412368E+03</pdfrwt>
<pdfrwt beam="2">  1       -2 0.22408305E-01 0.35412368E+03</pdfrwt>
<totfact> 0.32101510E+03</totfact>
</mgrwt>
</event>
<event>
 4    1  0.4895160E-005  0.3067879E+03  0.7818608E-02  0.1081896E+00
         -2   -1    0    0    0  501 -0.00000000000E+00  0.00000000000E+00  0.10798371394E+02  0.10798371695E+02  0.25500000000E-02 0. -1.
          2   -1    0    0  501    0  0.00000000000E+00 -0.00000000000E+00 -0.21790046753E+04  0.21790046753E+04  0.25500000000E-02 0.  1.
    5000001    1    1    2    0    0 -0.32482550297E+01  0.68894781525E+02 -0.71710012521E+03  0.73151803235E+03  0.12700000000E+03 0.  0.
   -5000001    1    1    2    0    0  0.32482550297E+01 -0.68894781525E+02 -0.14511061787E+04  0.14582850147E+04  0.12700000000E+03 0.  0.
<mgrwt>
<rscale>  0 0.30678789E+03</rscale>
<asrwt>0</asrwt>
<pdfrwt beam="1">  1        2 0.31128610E+00 0.30678789E+03</pdfrwt>
<pdfrwt beam="2">  1       -2 0.15426259E-02 0.30678789E+03</pdfrwt>
<totfact> 0.81879122E+03</totfact>
</mgrwt>
</event>
<event>
 4    1  0.4895160E-005  0.3939007E+03  0.7818608E-02  0.1045912E+00
          2   -1    0    0  501    0  0.00000000000E+00  0.00000000000E+00  0.45948617959E+03  0.45948617959E+03  0.25500000000E-02 0.  1.
         -2   -1    0    0    0  501 -0.00000000000E+00 -0.00000000000E+00 -0.84419170996E+02  0.84419171034E+02  0.25500000000E-02 0. -1.
    5000001    1    1    2    0    0  0.46254156258E+02 -0.98972607631E+02  0.44530985270E+02  0.17334079924E+03  0.12700000000E+03 0.  0.
   -5000001    1    1    2    0    0 -0.46254156258E+02  0.98972607631E+02  0.33053602332E+03  0.37056455139E+03  0.12700000000E+03 0.  0.
<mgrwt>
<rscale>  0 0.39390071E+03</rscale>
<asrwt>0</asrwt>
<pdfrwt beam="1">  1        2 0.65640882E-01 0.39390071E+03</pdfrwt>
<pdfrwt beam="2">  1       -2 0.12059882E-01 0.39390071E+03</pdfrwt>
<totfact> 0.36701409E+03</totfact>
</mgrwt>
</event>
<event>
 4    1  0.4895160E-005  0.3639583E+03  0.7818608E-02  0.1057027E+00
          2   -1    0    0  501    0  0.00000000000E+00  0.00000000000E+00  0.82591769859E+02  0.82591769898E+02  0.25500000000E-02 0.  1.
         -2   -1    0    0    0  501 -0.00000000000E+00 -0.00000000000E+00 -0.40096504491E+03  0.40096504492E+03  0.25500000000E-02 0. -1.
    5000001    1    1    2    0    0  0.11262894750E+03  0.65569355068E+02 -0.16140687214E+03  0.24324020744E+03  0.12700000000E+03 0.  0.
   -5000001    1    1    2    0    0 -0.11262894750E+03 -0.65569355068E+02 -0.15696640291E+03  0.24031660738E+03  0.12700000000E+03 0.  0.
<mgrwt>
<rscale>  0 0.36395831E+03</rscale>
<asrwt>0</asrwt>
<pdfrwt beam="1">  1        2 0.11798824E-01 0.36395831E+03</pdfrwt>
<pdfrwt beam="2">  1       -2 0.57280720E-01 0.36395831E+03</pdfrwt>
<totfact> 0.15289491E+03</totfact>
</mgrwt>
</event>
<event>
 4    1  0.4895160E-005  0.4773106E+03  0.7818608E-02  0.1019877E+00
         -2   -1    0    0    0  501 -0.00000000000E+00  0.00000000000E+00  0.15864840095E+03  0.15864840097E+03  0.25500000000E-02 0. -1.
          2   -1    0    0  501    0  0.00000000000E+00 -0.00000000000E+00 -0.35900996520E+03  0.35900996521E+03  0.25500000000E-02 0.  1.
    5000001    1    1    2    0    0  0.16113341555E+03  0.11102529193E+03 -0.15480461377E+03  0.27997153695E+03  0.12700000000E+03 0.  0.
   -5000001    1    1    2    0    0 -0.16113341555E+03 -0.11102529193E+03 -0.45556950479E+02  0.23768682924E+03  0.12700000000E+03 0.  0.
<mgrwt>
<rscale>  0 0.47731062E+03</rscale>
<asrwt>0</asrwt>
<pdfrwt beam="1">  1        2 0.51287137E-01 0.47731062E+03</pdfrwt>
<pdfrwt beam="2">  1       -2 0.22664057E-01 0.47731062E+03</pdfrwt>
<totfact> 0.16609429E+03</totfact>
</mgrwt>
</event>
<event>
 4    1  0.4895160E-005  0.4037078E+03  0.7818608E-02  0.1042503E+00
         -2   -1    0    0    0  501 -0.00000000000E+00  0.00000000000E+00  0.13387015676E+03  0.13387015679E+03  0.25500000000E-02 0. -1.
          2   -1    0    0  501    0  0.00000000000E+00 -0.00000000000E+00 -0.30436212798E+03  0.30436212799E+03  0.25500000000E-02 0.  1.
    5000001    1    1    2    0    0  0.51006142119E+02  0.14354694661E+03 -0.12598769548E+03  0.23496649086E+03  0.12700000000E+03 0.  0.
   -5000001    1    1    2    0    0 -0.51006142119E+02 -0.14354694661E+03 -0.44504275729E+02  0.20326579391E+03  0.12700000000E+03 0.  0.
<mgrwt>
<rscale>  0 0.40370784E+03</rscale>
<asrwt>0</asrwt>
<pdfrwt beam="1">  1        2 0.43480304E-01 0.40370784E+03</pdfrwt>
<pdfrwt beam="2">  1       -2 0.19124308E-01 0.40370784E+03</pdfrwt>
<totfact> 0.26683121E+03</totfact>
</mgrwt>
</event>
<event>
 4    1  0.4895160E-005  0.4928494E+03  0.7818608E-02  0.1015662E+00
         -2   -1    0    0    0  501 -0.00000000000E+00  0.00000000000E+00  0.45571442295E+02  0.45571442366E+02  0.25500000000E-02 0. -1.
          2   -1    0    0  501    0  0.00000000000E+00 -0.00000000000E+00 -0.13325262234E+04  0.13325262234E+04  0.25500000000E-02 0.  1.
    5000001    1    1    2    0    0 -0.14110140723E+03 -0.75674152693E+02 -0.25845639630E+03  0.32949187137E+03  0.12700000000E+03 0.  0.
   -5000001    1    1    2    0    0  0.14110140723E+03  0.75674152693E+02 -0.10284983848E+04  0.10486057944E+04  0.12700000000E+03 0.  0.
<mgrwt>
<rscale>  0 0.49284944E+03</rscale>
<asrwt>0</asrwt>
<pdfrwt beam="1">  1        2 0.19036086E+00 0.49284944E+03</pdfrwt>
<pdfrwt beam="2">  1       -2 0.65102069E-02 0.49284944E+03</pdfrwt>
<totfact> 0.24815665E+03</totfact>
</mgrwt>
</event>
<event>
 4    1  0.4895160E-005  0.3885196E+03  0.7818608E-02  0.1047829E+00
          2   -1    0    0  501    0  0.00000000000E+00  0.00000000000E+00  0.12043514388E+04  0.12043514388E+04  0.25500000000E-02 0.  1.
         -2   -1    0    0    0  501 -0.00000000000E+00 -0.00000000000E+00 -0.31333775464E+02  0.31333775568E+02  0.25500000000E-02 0. -1.
    5000001    1    1    2    0    0  0.69317615194E+02 -0.11847541593E+03  0.75379572312E+03  0.77664557435E+03  0.12700000000E+03 0.  0.
   -5000001    1    1    2    0    0 -0.69317615194E+02  0.11847541593E+03  0.41922194021E+03  0.45903964002E+03  0.12700000000E+03 0.  0.
<mgrwt>
<rscale>  0 0.38851964E+03</rscale>
<asrwt>0</asrwt>
<pdfrwt beam="1">  1        2 0.17205023E+00 0.38851964E+03</pdfrwt>
<pdfrwt beam="2">  1       -2 0.44762530E-02 0.38851964E+03</pdfrwt>
<totfact> 0.51927271E+03</totfact>
</mgrwt>
</event>
<event>
 4    1  0.4895160E-005  0.3184439E+03  0.7818608E-02  0.1076368E+00
          2   -1    0    0  501    0  0.00000000000E+00  0.00000000000E+00  0.23345044006E+04  0.23345044006E+04  0.25500000000E-02 0.  1.
         -2   -1    0    0    0  501 -0.00000000000E+00 -0.00000000000E+00 -0.10859531685E+02  0.10859531984E+02  0.25500000000E-02 0. -1.
    5000001    1    1    2    0    0 -0.86313457798E+02 -0.27654772873E+02  0.13956361570E+04  0.14043304747E+04  0.12700000000E+03 0.  0.
   -5000001    1    1    2    0    0  0.86313457798E+02  0.27654772873E+02  0.92800871187E+03  0.94103345783E+03  0.12700000000E+03 0.  0.
<mgrwt>
<rscale>  0 0.31844387E+03</rscale>
<asrwt>0</asrwt>
<pdfrwt beam="1">  1        2 0.33350058E+00 0.31844387E+03</pdfrwt>
<pdfrwt beam="2">  1       -2 0.15513619E-02 0.31844387E+03</pdfrwt>
<totfact> 0.68065796E+03</totfact>
</mgrwt>
</event>
<event>
 4    1  0.4895160E-005  0.3423014E+03  0.7818608E-02  0.1065820E+00
         -2   -1    0    0    0  501 -0.00000000000E+00  0.00000000000E+00  0.12190868265E+03  0.12190868268E+03  0.25500000000E-02 0. -1.
          2   -1    0    0  501    0  0.00000000000E+00 -0.00000000000E+00 -0.24028287422E+03  0.24028287423E+03  0.25500000000E-02 0.  1.
    5000001    1    1    2    0    0 -0.11399472184E+03 -0.89291758256E+01 -0.69171605692E+02  0.18435899171E+03  0.12700000000E+03 0.  0.
   -5000001    1    1    2    0    0  0.11399472184E+03  0.89291758256E+01 -0.49202585877E+02  0.17783256520E+03  0.12700000000E+03 0.  0.
<mgrwt>
<rscale>  0 0.34230144E+03</rscale>
<asrwt>0</asrwt>
<pdfrwt beam="1">  1        2 0.34326125E-01 0.34230144E+03</pdfrwt>
<pdfrwt beam="2">  1       -2 0.17415526E-01 0.34230144E+03</pdfrwt>
<totfact> 0.40367734E+03</totfact>
</mgrwt>
</event>
<event>
 4    1  0.4895160E-005  0.3815735E+03  0.7818608E-02  0.1050354E+00
         -2   -1    0    0    0  501 -0.00000000000E+00  0.00000000000E+00  0.57658328727E+02  0.57658328783E+02  0.25500000000E-02 0. -1.
          2   -1    0    0  501    0  0.00000000000E+00 -0.00000000000E+00 -0.63129790273E+03  0.63129790273E+03  0.25500000000E-02 0.  1.
    5000001    1    1    2    0    0  0.16762710119E+00 -0.11429694466E+03 -0.13354047600E+03  0.21685450972E+03  0.12700000000E+03 0.  0.
   -5000001    1    1    2    0    0 -0.16762710119E+00  0.11429694466E+03 -0.44009909800E+03  0.47210172179E+03  0.12700000000E+03 0.  0.
<mgrwt>
<rscale>  0 0.38157349E+03</rscale>
<asrwt>0</asrwt>
<pdfrwt beam="1">  1        2 0.90185411E-01 0.38157349E+03</pdfrwt>
<pdfrwt beam="2">  1       -2 0.82369045E-02 0.38157349E+03</pdfrwt>
<totfact> 0.47123790E+03</totfact>
</mgrwt>
</event>
<event>
 4    1  0.4895160E-005  0.3408912E+03  0.7818608E-02  0.1066417E+00
         -2   -1    0    0    0  501 -0.00000000000E+00  0.00000000000E+00  0.24634160113E+03  0.24634160114E+03  0.25500000000E-02 0. -1.
          2   -1    0    0  501    0  0.00000000000E+00 -0.00000000000E+00 -0.11793255897E+03  0.11793255899E+03  0.25500000000E-02 0.  1.
    5000001    1    1    2    0    0  0.85976805066E+02 -0.59986233508E+01  0.14341536822E+03  0.21005942572E+03  0.12700000000E+03 0.  0.
   -5000001    1    1    2    0    0 -0.85976805066E+02  0.59986233508E+01 -0.15006326051E+02  0.15421473442E+03  0.12700000000E+03 0.  0.
<mgrwt>
<rscale>  0 0.34089116E+03</rscale>
<asrwt>0</asrwt>
<pdfrwt beam="1">  1        2 0.16847509E-01 0.34089116E+03</pdfrwt>
<pdfrwt beam="2">  1       -2 0.35191657E-01 0.34089116E+03</pdfrwt>
<totfact> 0.25911880E+03</totfact>
</mgrwt>
</event>
<event>
 4    1  0.4895160E-005  0.3126820E+03  0.7818608E-02  0.1079067E+00
         -2   -1    0    0    0  501 -0.00000000000E+00  0.00000000000E+00  0.45016551020E+02  0.45016551092E+02  0.25500000000E-02 0. -1.
          2   -1    0    0  501    0  0.00000000000E+00 -0.00000000000E+00 -0.54296722082E+03  0.54296722083E+03  0.25500000000E-02 0.  1.
    5000001    1    1    2    0    0 -0.87490641474E+02 -0.31147638250E+01 -0.29688805815E+03  0.33456812934E+03  0.12700000000E+03 0.  0.
   -5000001    1    1    2    0    0  0.87490641474E+02  0.31147638250E+01 -0.20106261165E+03  0.25341564258E+03  0.12700000000E+03 0.  0.
<mgrwt>
<rscale>  0 0.31268202E+03</rscale>
<asrwt>0</asrwt>
<pdfrwt beam="1">  1        2 0.77566742E-01 0.31268202E+03</pdfrwt>
<pdfrwt beam="2">  1       -2 0.64309362E-02 0.31268202E+03</pdfrwt>
<totfact> 0.82025579E+03</totfact>
</mgrwt>
</event>
<event>
 4    1  0.4895160E-005  0.4352492E+03  0.7818608E-02  0.1032215E+00
         -2   -1    0    0    0  501 -0.00000000000E+00  0.00000000000E+00  0.53542593200E+02  0.53542593261E+02  0.25500000000E-02 0. -1.
          2   -1    0    0  501    0  0.00000000000E+00 -0.00000000000E+00 -0.88453800099E+03  0.88453800099E+03  0.25500000000E-02 0.  1.
    5000001    1    1    2    0    0 -0.75051150110E+01 -0.17401224015E+03 -0.35102399614E+03  0.41192648900E+03  0.12700000000E+03 0.  0.
   -5000001    1    1    2    0    0  0.75051150110E+01  0.17401224015E+03 -0.47997141165E+03  0.52615410525E+03  0.12700000000E+03 0.  0.
<mgrwt>
<rscale>  0 0.43524916E+03</rscale>
<asrwt>0</asrwt>
<pdfrwt beam="1">  1        2 0.12636256E+00 0.43524916E+03</pdfrwt>
<pdfrwt beam="2">  1       -2 0.76489424E-02 0.43524916E+03</pdfrwt>
<totfact> 0.35001701E+03</totfact>
</mgrwt>
</event>
<event>
 4    1  0.4895160E-005  0.2702726E+03  0.7818608E-02  0.1101124E+00
          2   -1    0    0  501    0  0.00000000000E+00  0.00000000000E+00  0.19708065576E+04  0.19708065576E+04  0.25500000000E-02 0.  1.
         -2   -1    0    0    0  501 -0.00000000000E+00 -0.00000000000E+00 -0.92661681427E+01  0.92661684936E+01  0.25500000000E-02 0. -1.
    5000001    1    1    2    0    0  0.35201977904E+02 -0.23530047674E+02  0.11158553385E+04  0.11238571879E+04  0.12700000000E+03 0.  0.
   -5000001    1    1    2    0    0 -0.35201977904E+02  0.23530047674E+02  0.84568505098E+03  0.85621553819E+03  0.12700000000E+03 0.  0.
<mgrwt>
<rscale>  0 0.27027264E+03</rscale>
<asrwt>0</asrwt>
<pdfrwt beam="1">  1        2 0.28154422E+00 0.27027264E+03</pdfrwt>
<pdfrwt beam="2">  1       -2 0.13237363E-02 0.27027264E+03</pdfrwt>
<totfact> 0.12924836E+04</totfact>
</mgrwt>
</event>
<event>
 4    1  0.4895160E-005  0.4523650E+03  0.7818608E-02  0.1027019E+00
          2   -1    0    0  501    0  0.00000000000E+00  0.00000000000E+00  0.21346775113E+03  0.21346775115E+03  0.25500000000E-02 0.  1.
         -2   -1    0    0    0  501 -0.00000000000E+00 -0.00000000000E+00 -0.23965458903E+03  0.23965458904E+03  0.25500000000E-02 0. -1.
    5000001    1    1    2    0    0 -0.12289166754E+03  0.13566508980E+03  0.25986608046E+02  0.22430265790E+03  0.12700000000E+03 0.  0.
   -5000001    1    1    2    0    0  0.12289166754E+03 -0.13566508980E+03 -0.52173445941E+02  0.22881968229E+03  0.12700000000E+03 0.  0.
<mgrwt>
<rscale>  0 0.45236501E+03</rscale>
<asrwt>0</asrwt>
<pdfrwt beam="1">  1        2 0.30495393E-01 0.45236501E+03</pdfrwt>
<pdfrwt beam="2">  1       -2 0.34236370E-01 0.45236501E+03</pdfrwt>
<totfact> 0.13904901E+03</totfact>
</mgrwt>
</event>
<event>
 4    1  0.4895160E-005  0.3516083E+03  0.7818608E-02  0.1061957E+00
          2   -1    0    0  501    0  0.00000000000E+00  0.00000000000E+00  0.17925371189E+03  0.17925371191E+03  0.25500000000E-02 0.  1.
         -2   -1    0    0    0  501 -0.00000000000E+00 -0.00000000000E+00 -0.17242092317E+03  0.17242092319E+03  0.25500000000E-02 0. -1.
    5000001    1    1    2    0    0 -0.92808629528E+02 -0.23347401148E+01  0.81911768270E+02  0.17736242699E+03  0.12700000000E+03 0.  0.
   -5000001    1    1    2    0    0  0.92808629528E+02  0.23347401148E+01 -0.75078979543E+02  0.17431220811E+03  0.12700000000E+03 0.  0.
<mgrwt>
<rscale>  0 0.35160825E+03</rscale>
<asrwt>0</asrwt>
<pdfrwt beam="1">  1        2 0.25607673E-01 0.35160825E+03</pdfrwt>
<pdfrwt beam="2">  1       -2 0.24631561E-01 0.35160825E+03</pdfrwt>
<totfact> 0.30691504E+03</totfact>
</mgrwt>
</event>
<event>
 4    1  0.4895160E-005  0.5185423E+03  0.7818608E-02  0.1009049E+00
          2   -1    0    0  501    0  0.00000000000E+00  0.00000000000E+00  0.89439979691E+03  0.89439979692E+03  0.25500000000E-02 0. -1.
         -2   -1    0    0    0  501 -0.00000000000E+00 -0.00000000000E+00 -0.75158242232E+02  0.75158242275E+02  0.25500000000E-02 0.  1.
    5000001    1    1    2    0    0 -0.11411418002E+03  0.18573598544E+03  0.52137983348E+03  0.57921138898E+03  0.12700000000E+03 0.  0.
   -5000001    1    1    2    0    0  0.11411418002E+03 -0.18573598544E+03  0.29786172121E+03  0.39034665021E+03  0.12700000000E+03 0.  0.
<mgrwt>
<rscale>  0 0.51854225E+03</rscale>
<asrwt>0</asrwt>
<pdfrwt beam="1">  1        2 0.12777138E+00 0.51854225E+03</pdfrwt>
<pdfrwt beam="2">  1       -2 0.10736893E-01 0.51854225E+03</pdfrwt>
<totfact> 0.20061790E+03</totfact>
</mgrwt>
</event>
<event>
 4    1  0.4895160E-005  0.3018113E+03  0.7818608E-02  0.1084339E+00
          2   -1    0    0  501    0  0.00000000000E+00  0.00000000000E+00  0.15336244291E+04  0.15336244291E+04  0.25500000000E-02 0.  1.
         -2   -1    0    0    0  501 -0.00000000000E+00 -0.00000000000E+00 -0.14848821351E+02  0.14848821570E+02  0.25500000000E-02 0. -1.
    5000001    1    1    2    0    0 -0.19901089628E+02 -0.64379915729E+02  0.52412369819E+03  0.54348457009E+03  0.12700000000E+03 0.  0.
   -5000001    1    1    2    0    0  0.19901089628E+02  0.64379915729E+02  0.99465190959E+03  0.10049886806E+04  0.12700000000E+03 0.  0.
<mgrwt>
<rscale>  0 0.30181130E+03</rscale>
<asrwt>0</asrwt>
<pdfrwt beam="1">  1        2 0.21908930E+00 0.30181130E+03</pdfrwt>
<pdfrwt beam="2">  1       -2 0.21212592E-02 0.30181130E+03</pdfrwt>
<totfact> 0.10654747E+04</totfact>
</mgrwt>
</event>
<event>
 4    1  0.4895160E-005  0.7172952E+03  0.7818608E-02  0.9688104E-01
          2   -1    0    0  501    0  0.00000000000E+00  0.00000000000E+00  0.25910449997E+04  0.25910449997E+04  0.25500000000E-02 0.  1.
         -2   -1    0    0    0  501 -0.00000000000E+00 -0.00000000000E+00 -0.49643329965E+02  0.49643330031E+02  0.25500000000E-02 0. -1.
    5000001    1    1    2    0    0 -0.30901560700E+03 -0.29398138886E+02  0.80293600472E+03  0.87016672174E+03  0.12700000000E+03 0.  0.
   -5000001    1    1    2    0    0  0.30901560700E+03  0.29398138886E+02  0.17384656650E+04  0.17705216080E+04  0.12700000000E+03 0.  0.
<mgrwt>
<rscale>  0 0.71729520E+03</rscale>
<asrwt>0</asrwt>
<pdfrwt beam="1">  1        2 0.37014927E+00 0.71729520E+03</pdfrwt>
<pdfrwt beam="2">  1       -2 0.70919045E-02 0.71729520E+03</pdfrwt>
<totfact> 0.48807466E+02</totfact>
</mgrwt>
</event>
<event>
 4    1  0.4895160E-005  0.3248449E+03  0.7818608E-02  0.1073441E+00
         -2   -1    0    0    0  501 -0.00000000000E+00  0.00000000000E+00  0.36309998794E+02  0.36309998884E+02  0.25500000000E-02 0.  1.
          2   -1    0    0  501    0  0.00000000000E+00 -0.00000000000E+00 -0.72655066545E+03  0.72655066545E+03  0.25500000000E-02 0. -1.
    5000001    1    1    2    0    0 -0.76717657473E+02 -0.58289948795E+02 -0.27202796434E+03  0.31529594111E+03  0.12700000000E+03 0.  0.
   -5000001    1    1    2    0    0  0.76717657473E+02  0.58289948795E+02 -0.41821270231E+03  0.44756472322E+03  0.12700000000E+03 0.  0.
<mgrwt>
<rscale>  0 0.32484491E+03</rscale>
<asrwt>0</asrwt>
<pdfrwt beam="1">  1        2 0.10379294E+00 0.32484491E+03</pdfrwt>
<pdfrwt beam="2">  1       -2 0.51871432E-02 0.32484491E+03</pdfrwt>
<totfact> 0.81449753E+03</totfact>
</mgrwt>
</event>
<event>
 4    1  0.4895160E-005  0.5611212E+03  0.7818608E-02  0.9989521E-01
          2   -1    0    0  501    0  0.00000000000E+00  0.00000000000E+00  0.49270878656E+03  0.49270878656E+03  0.25500000000E-02 0.  1.
         -2   -1    0    0    0  501 -0.00000000000E+00 -0.00000000000E+00 -0.15975816102E+03  0.15975816104E+03  0.25500000000E-02 0. -1.
    5000001    1    1    2    0    0 -0.13613534841E+03  0.20143399838E+03  0.23503822430E+03  0.36122078522E+03  0.12700000000E+03 0.  0.
   -5000001    1    1    2    0    0  0.13613534841E+03 -0.20143399838E+03  0.97912401235E+02  0.29124616239E+03  0.12700000000E+03 0.  0.
<mgrwt>
<rscale>  0 0.56112120E+03</rscale>
<asrwt>0</asrwt>
<pdfrwt beam="1">  1        2 0.70386970E-01 0.56112120E+03</pdfrwt>
<pdfrwt beam="2">  1       -2 0.22822594E-01 0.56112120E+03</pdfrwt>
<totfact> 0.11539429E+03</totfact>
</mgrwt>
</event>
<event>
 4    1  0.4895160E-005  0.2850817E+03  0.7818608E-02  0.1092945E+00
         -2   -1    0    0    0  501 -0.00000000000E+00  0.00000000000E+00  0.28522333474E+03  0.28522333475E+03  0.25500000000E-02 0. -1.
          2   -1    0    0  501    0  0.00000000000E+00 -0.00000000000E+00 -0.71235044640E+02  0.71235044686E+02  0.25500000000E-02 0.  1.
    5000001    1    1    2    0    0 -0.22054061644E+02  0.51563776545E+02  0.14738896685E+03  0.20247891800E+03  0.12700000000E+03 0.  0.
   -5000001    1    1    2    0    0  0.22054061644E+02 -0.51563776545E+02  0.66599323253E+02  0.15397946144E+03  0.12700000000E+03 0.  0.
<mgrwt>
<rscale>  0 0.28508172E+03</rscale>
<asrwt>0</asrwt>
<pdfrwt beam="1">  1        2 0.10176435E-01 0.28508172E+03</pdfrwt>
<pdfrwt beam="2">  1       -2 0.40746190E-01 0.28508172E+03</pdfrwt>
<totfact> 0.35935462E+03</totfact>
</mgrwt>
</event>
<event>
 4    1  0.4895160E-005  0.4937766E+03  0.7818608E-02  0.1015416E+00
          2   -1    0    0  501    0  0.00000000000E+00  0.00000000000E+00  0.12033188614E+04  0.12033188614E+04  0.25500000000E-02 0.  1.
         -2   -1    0    0    0  501 -0.00000000000E+00 -0.00000000000E+00 -0.50654758003E+02  0.50654758068E+02  0.25500000000E-02 0. -1.
    5000001    1    1    2    0    0 -0.14992644737E+03  0.11691849368E+03  0.33977193989E+03  0.40953857562E+03  0.12700000000E+03 0.  0.
   -5000001    1    1    2    0    0  0.14992644737E+03 -0.11691849368E+03  0.81289216349E+03  0.84443504383E+03  0.12700000000E+03 0.  0.
<mgrwt>
<rscale>  0 0.49377657E+03</rscale>
<asrwt>0</asrwt>
<pdfrwt beam="1">  1        2 0.17190270E+00 0.49377657E+03</pdfrwt>
<pdfrwt beam="2">  1       -2 0.72363936E-02 0.49377657E+03</pdfrwt>
<totfact> 0.24715592E+03</totfact>
</mgrwt>
</event>
<event>
 4    1  0.4895160E-005  0.8091634E+03  0.7818608E-02  0.9546847E-01
          2   -1    0    0  501    0  0.00000000000E+00  0.00000000000E+00  0.13636475491E+04  0.13636475491E+04  0.25500000000E-02 0.  1.
         -2   -1    0    0    0  501 -0.00000000000E+00 -0.00000000000E+00 -0.12003568551E+03  0.12003568554E+03  0.25500000000E-02 0. -1.
    5000001    1    1    2    0    0  0.82155426446E+02 -0.23336226505E+03  0.11606162146E+04  0.11934682478E+04  0.12700000000E+03 0.  0.
   -5000001    1    1    2    0    0 -0.82155426446E+02  0.23336226505E+03  0.82995648961E+02  0.29021498685E+03  0.12700000000E+03 0.  0.
<mgrwt>
<rscale>  0 0.80916344E+03</rscale>
<asrwt>0</asrwt>
<pdfrwt beam="1">  1        2 0.19480679E+00 0.80916344E+03</pdfrwt>
<pdfrwt beam="2">  1       -2 0.17147955E-01 0.80916344E+03</pdfrwt>
<totfact> 0.48524242E+02</totfact>
</mgrwt>
</event>
<event>
 4    1  0.4895160E-005  0.4620867E+03  0.7818608E-02  0.1024178E+00
          2   -1    0    0  501    0  0.00000000000E+00  0.00000000000E+00  0.26736988418E+04  0.26736988418E+04  0.25500000000E-02 0.  1.
         -2   -1    0    0    0  501 -0.00000000000E+00 -0.00000000000E+00 -0.19965239529E+02  0.19965239692E+02  0.25500000000E-02 0. -1.
    5000001    1    1    2    0    0 -0.81108683520E+00 -0.19051145059E+03  0.15071781687E+04  0.15244704992E+04  0.12700000000E+03 0.  0.
   -5000001    1    1    2    0    0  0.81108683520E+00  0.19051145059E+03  0.11465554336E+04  0.11691935823E+04  0.12700000000E+03 0.  0.
<mgrwt>
<rscale>  0 0.46208674E+03</rscale>
<asrwt>0</asrwt>
<pdfrwt beam="1">  1        2 0.38195675E+00 0.46208674E+03</pdfrwt>
<pdfrwt beam="2">  1       -2 0.28521788E-02 0.46208674E+03</pdfrwt>
<totfact> 0.18412835E+03</totfact>
</mgrwt>
</event>
<event>
 4    1  0.4895160E-005  0.3825149E+03  0.7818608E-02  0.1050008E+00
          2   -1    0    0  501    0  0.00000000000E+00  0.00000000000E+00  0.32336582068E+03  0.32336582069E+03  0.25500000000E-02 0.  1.
         -2   -1    0    0    0  501 -0.00000000000E+00 -0.00000000000E+00 -0.11312082810E+03  0.11312082813E+03  0.25500000000E-02 0. -1.
    5000001    1    1    2    0    0 -0.11281660861E+03  0.68033945322E+02  0.41648311401E+02  0.18766935482E+03  0.12700000000E+03 0.  0.
   -5000001    1    1    2    0    0  0.11281660861E+03 -0.68033945322E+02  0.16859668118E+03  0.24881729401E+03  0.12700000000E+03 0.  0.
<mgrwt>
<rscale>  0 0.38251489E+03</rscale>
<asrwt>0</asrwt>
<pdfrwt beam="1">  1        2 0.46195118E-01 0.38251489E+03</pdfrwt>
<pdfrwt beam="2">  1       -2 0.16160118E-01 0.38251489E+03</pdfrwt>
<totfact> 0.33212163E+03</totfact>
</mgrwt>
</event>
<event>
 4    1  0.4895160E-005  0.3411852E+03  0.7818608E-02  0.1066292E+00
          2   -1    0    0  501    0  0.00000000000E+00  0.00000000000E+00  0.18289784128E+02  0.18289784306E+02  0.25500000000E-02 0.  1.
         -2   -1    0    0    0  501 -0.00000000000E+00 -0.00000000000E+00 -0.15911523699E+04  0.15911523699E+04  0.25500000000E-02 0. -1.
    5000001    1    1    2    0    0 -0.12556375963E+02  0.11280657514E+03 -0.83114475298E+03  0.84841828504E+03  0.12700000000E+03 0.  0.
   -5000001    1    1    2    0    0  0.12556375963E+02 -0.11280657514E+03 -0.74171783280E+03  0.76102386918E+03  0.12700000000E+03 0.  0.
<mgrwt>
<rscale>  0 0.34118519E+03</rscale>
<asrwt>0</asrwt>
<pdfrwt beam="1">  1        2 0.26128273E-02 0.34118519E+03</pdfrwt>
<pdfrwt beam="2">  1       -2 0.22730739E+00 0.34118519E+03</pdfrwt>
<totfact> 0.37114008E+02</totfact>
</mgrwt>
</event>
<event>
 4    1  0.4895160E-005  0.4940317E+03  0.7818608E-02  0.1015349E+00
          2   -1    0    0  501    0  0.00000000000E+00  0.00000000000E+00  0.13777059580E+03  0.13777059583E+03  0.25500000000E-02 0.  1.
         -2   -1    0    0    0  501 -0.00000000000E+00 -0.00000000000E+00 -0.44288726576E+03  0.44288726577E+03  0.25500000000E-02 0. -1.
    5000001    1    1    2    0    0  0.11921279712E+03 -0.12492226027E+03 -0.82702602532E+01  0.21451027788E+03  0.12700000000E+03 0.  0.
   -5000001    1    1    2    0    0 -0.11921279712E+03  0.12492226027E+03 -0.29684640971E+03  0.36614758372E+03  0.12700000000E+03 0.  0.
<mgrwt>
<rscale>  0 0.49403175E+03</rscale>
<asrwt>0</asrwt>
<pdfrwt beam="1">  1        2 0.19681514E-01 0.49403175E+03</pdfrwt>
<pdfrwt beam="2">  1       -2 0.63269609E-01 0.49403175E+03</pdfrwt>
<totfact> 0.67400437E+02</totfact>
</mgrwt>
</event>
<event>
 4    1  0.4895160E-005  0.5560217E+03  0.7818608E-02  0.1000110E+00
         -2   -1    0    0    0  501 -0.00000000000E+00  0.00000000000E+00  0.60366053278E+02  0.60366053332E+02  0.25500000000E-02 0. -1.
          2   -1    0    0  501    0  0.00000000000E+00 -0.00000000000E+00 -0.12803556879E+04  0.12803556879E+04  0.25500000000E-02 0.  1.
    5000001    1    1    2    0    0 -0.22282319569E+03  0.59451467510E+02 -0.82534710471E+03  0.86632066625E+03  0.12700000000E+03 0.  0.
   -5000001    1    1    2    0    0  0.22282319569E+03 -0.59451467510E+02 -0.39464252990E+03  0.47440107497E+03  0.12700000000E+03 0.  0.
<mgrwt>
<rscale>  0 0.55602165E+03</rscale>
<asrwt>0</asrwt>
<pdfrwt beam="1">  1        2 0.18290794E+00 0.55602165E+03</pdfrwt>
<pdfrwt beam="2">  1       -2 0.86237227E-02 0.55602165E+03</pdfrwt>
<totfact> 0.16951803E+03</totfact>
</mgrwt>
</event>
<event>
 4    1  0.4895160E-005  0.4521277E+03  0.7818608E-02  0.1027089E+00
         -2   -1    0    0    0  501 -0.00000000000E+00  0.00000000000E+00  0.31011842443E+02  0.31011842548E+02  0.25500000000E-02 0. -1.
          2   -1    0    0  501    0  0.00000000000E+00 -0.00000000000E+00 -0.16479144254E+04  0.16479144254E+04  0.25500000000E-02 0.  1.
    5000001    1    1    2    0    0 -0.11605113554E+03  0.14635735275E+03 -0.77371137653E+03  0.80600659733E+03  0.12700000000E+03 0.  0.
   -5000001    1    1    2    0    0  0.11605113554E+03 -0.14635735275E+03 -0.84319120645E+03  0.87291967065E+03  0.12700000000E+03 0.  0.
<mgrwt>
<rscale>  0 0.45212769E+03</rscale>
<asrwt>0</asrwt>
<pdfrwt beam="1">  1        2 0.23541629E+00 0.45212769E+03</pdfrwt>
<pdfrwt beam="2">  1       -2 0.44302643E-02 0.45212769E+03</pdfrwt>
<totfact> 0.30924210E+03</totfact>
</mgrwt>
</event>
<event>
 4    1  0.4895160E-005  0.8543034E+03  0.7818608E-02  0.9484579E-01
          2   -1    0    0  501    0  0.00000000000E+00  0.00000000000E+00  0.11300539455E+04  0.11300539455E+04  0.25500000000E-02 0.  1.
         -2   -1    0    0    0  501 -0.00000000000E+00 -0.00000000000E+00 -0.16146004983E+03  0.16146004985E+03  0.25500000000E-02 0. -1.
    5000001    1    1    2    0    0 -0.19361270821E+03  0.20764618569E+03  0.41662546061E+02  0.31379545401E+03  0.12700000000E+03 0.  0.
   -5000001    1    1    2    0    0  0.19361270821E+03 -0.20764618569E+03  0.92693134962E+03  0.97771854136E+03  0.12700000000E+03 0.  0.
<mgrwt>
<rscale>  0 0.85430338E+03</rscale>
<asrwt>0</asrwt>
<pdfrwt beam="1">  1        2 0.16143627E+00 0.85430338E+03</pdfrwt>
<pdfrwt beam="2">  1       -2 0.23065722E-01 0.85430338E+03</pdfrwt>
<totfact> 0.38926177E+02</totfact>
</mgrwt>
</event>
<event>
 4    1  0.4895160E-005  0.4628784E+03  0.7818608E-02  0.1023950E+00
          2   -1    0    0  501    0  0.00000000000E+00  0.00000000000E+00  0.51016733339E+03  0.51016733340E+03  0.25500000000E-02 0.  1.
         -2   -1    0    0    0  501 -0.00000000000E+00 -0.00000000000E+00 -0.10499321749E+03  0.10499321752E+03  0.25500000000E-02 0. -1.
    5000001    1    1    2    0    0 -0.26600754667E+02  0.17817463563E+03  0.10878912422E+03  0.24580047697E+03  0.12700000000E+03 0.  0.
   -5000001    1    1    2    0    0  0.26600754667E+02 -0.17817463563E+03  0.29638499168E+03  0.36936007394E+03  0.12700000000E+03 0.  0.
<mgrwt>
<rscale>  0 0.46287843E+03</rscale>
<asrwt>0</asrwt>
<pdfrwt beam="1">  1        2 0.72881049E-01 0.46287843E+03</pdfrwt>
<pdfrwt beam="2">  1       -2 0.14999031E-01 0.46287843E+03</pdfrwt>
<totfact> 0.22819038E+03</totfact>
</mgrwt>
</event>
<event>
 4    1  0.4895160E-005  0.1493593E+04  0.7818608E-02  0.8888725E-01
          2   -1    0    0  501    0  0.00000000000E+00  0.00000000000E+00  0.18021923814E+04  0.18021923814E+04  0.25500000000E-02 0.  1.
         -2   -1    0    0    0  501 -0.00000000000E+00 -0.00000000000E+00 -0.30945912378E+03  0.30945912380E+03  0.25500000000E-02 0. -1.
    5000001    1    1    2    0    0 -0.52530747615E+03  0.50978438519E+03  0.85355342339E+03  0.11315964433E+04  0.12700000000E+03 0.  0.
   -5000001    1    1    2    0    0  0.52530747615E+03 -0.50978438519E+03  0.63917983419E+03  0.98005506188E+03  0.12700000000E+03 0.  0.
<mgrwt>
<rscale>  0 0.14935928E+04</rscale>
<asrwt>0</asrwt>
<pdfrwt beam="1">  1        2 0.25745606E+00 0.14935928E+04</pdfrwt>
<pdfrwt beam="2">  1       -2 0.44208445E-01 0.14935928E+04</pdfrwt>
<totfact> 0.47669022E+01</totfact>
</mgrwt>
</event>
<event>
 4    1  0.4895160E-005  0.5191844E+03  0.7818608E-02  0.1008889E+00
         -2   -1    0    0    0  501 -0.00000000000E+00  0.00000000000E+00  0.13876153750E+03  0.13876153752E+03  0.25500000000E-02 0. -1.
          2   -1    0    0  501    0  0.00000000000E+00 -0.00000000000E+00 -0.48563960521E+03  0.48563960522E+03  0.25500000000E-02 0.  1.
    5000001    1    1    2    0    0 -0.17957165833E+03  0.95200644140E+02 -0.29340350821E+03  0.37884530055E+03  0.12700000000E+03 0.  0.
   -5000001    1    1    2    0    0  0.17957165833E+03 -0.95200644140E+02 -0.53474559505E+02  0.24555584219E+03  0.12700000000E+03 0.  0.
<mgrwt>
<rscale>  0 0.51918435E+03</rscale>
<asrwt>0</asrwt>
<pdfrwt beam="1">  1        2 0.69377086E-01 0.51918435E+03</pdfrwt>
<pdfrwt beam="2">  1       -2 0.19823077E-01 0.51918435E+03</pdfrwt>
<totfact> 0.15014839E+03</totfact>
</mgrwt>
</event>
<event>
 4    1  0.4895160E-005  0.4396183E+03  0.7818608E-02  0.1030864E+00
          2   -1    0    0  501    0  0.00000000000E+00  0.00000000000E+00  0.70688758721E+02  0.70688758767E+02  0.25500000000E-02 0.  1.
         -2   -1    0    0    0  501 -0.00000000000E+00 -0.00000000000E+00 -0.68350408550E+03  0.68350408550E+03  0.25500000000E-02 0. -1.
    5000001    1    1    2    0    0 -0.17935367945E+03 -0.29807456086E+01 -0.30086763626E+03  0.37259490298E+03  0.12700000000E+03 0.  0.
   -5000001    1    1    2    0    0  0.17935367945E+03  0.29807456086E+01 -0.31194769052E+03  0.38159794129E+03  0.12700000000E+03 0.  0.
<mgrwt>
<rscale>  0 0.43961827E+03</rscale>
<asrwt>0</asrwt>
<pdfrwt beam="1">  1        2 0.10098395E-01 0.43961827E+03</pdfrwt>
<pdfrwt beam="2">  1       -2 0.97643437E-01 0.43961827E+03</pdfrwt>
<totfact> 0.57772982E+02</totfact>
</mgrwt>
</event>
<event>
 4    1  0.4895160E-005  0.3480969E+03  0.7818608E-02  0.1063399E+00
         -2   -1    0    0    0  501 -0.00000000000E+00  0.00000000000E+00  0.48935004848E+02  0.48935004914E+02  0.25500000000E-02 0. -1.
          2   -1    0    0  501    0  0.00000000000E+00 -0.00000000000E+00 -0.61904294729E+03  0.61904294730E+03  0.25500000000E-02 0.  1.
    5000001    1    1    2    0    0  0.90923189888E+02  0.11904364514E+02 -0.13947807687E+03  0.20974239982E+03  0.12700000000E+03 0.  0.
   -5000001    1    1    2    0    0 -0.90923189888E+02 -0.11904364514E+02 -0.43062986557E+03  0.45823555239E+03  0.12700000000E+03 0.  0.
<mgrwt>
<rscale>  0 0.34809694E+03</rscale>
<asrwt>0</asrwt>
<pdfrwt beam="1">  1        2 0.88434702E-01 0.34809694E+03</pdfrwt>
<pdfrwt beam="2">  1       -2 0.69907153E-02 0.34809694E+03</pdfrwt>
<totfact> 0.62231792E+03</totfact>
</mgrwt>
</event>
<event>
 4    1  0.4895160E-005  0.2868786E+03  0.7818608E-02  0.1091990E+00
          2   -1    0    0  501    0  0.00000000000E+00  0.00000000000E+00  0.17548747179E+02  0.17548747364E+02  0.25500000000E-02 0. -1.
         -2   -1    0    0    0  501 -0.00000000000E+00 -0.00000000000E+00 -0.11724384274E+04  0.11724384274E+04  0.25500000000E-02 0.  1.
    5000001    1    1    2    0    0  0.28196593621E+02  0.53963302653E+01 -0.82707547686E+03  0.83726161545E+03  0.12700000000E+03 0.  0.
   -5000001    1    1    2    0    0 -0.28196593621E+02 -0.53963302653E+01 -0.32781420332E+03  0.35272555928E+03  0.12700000000E+03 0.  0.
<mgrwt>
<rscale>  0 0.28687855E+03</rscale>
<asrwt>0</asrwt>
<pdfrwt beam="1">  1        2 0.25069646E-02 0.28687855E+03</pdfrwt>
<pdfrwt beam="2">  1       -2 0.16749115E+00 0.28687855E+03</pdfrwt>
<totfact> 0.95154231E+02</totfact>
</mgrwt>
</event>
<event>
 4    1  0.4895160E-005  0.3750281E+03  0.7818608E-02  0.1052787E+00
          2   -1    0    0  501    0  0.00000000000E+00  0.00000000000E+00  0.64282908863E+03  0.64282908863E+03  0.25500000000E-02 0.  1.
         -2   -1    0    0    0  501 -0.00000000000E+00 -0.00000000000E+00 -0.54698074357E+02  0.54698074417E+02  0.25500000000E-02 0. -1.
    5000001    1    1    2    0    0 -0.10988321935E+03  0.47608797287E+02  0.42146202373E+03  0.45617996112E+03  0.12700000000E+03 0.  0.
   -5000001    1    1    2    0    0  0.10988321935E+03 -0.47608797287E+02  0.16666899054E+03  0.24134720193E+03  0.12700000000E+03 0.  0.
<mgrwt>
<rscale>  0 0.37502807E+03</rscale>
<asrwt>0</asrwt>
<pdfrwt beam="1">  1        2 0.91832718E-01 0.37502807E+03</pdfrwt>
<pdfrwt beam="2">  1       -2 0.78140114E-02 0.37502807E+03</pdfrwt>
<totfact> 0.50111848E+03</totfact>
</mgrwt>
</event>
<event>
 4    1  0.4895160E-005  0.7513009E+03  0.7818608E-02  0.9633312E-01
         -2   -1    0    0    0  501 -0.00000000000E+00  0.00000000000E+00  0.17532384869E+03  0.17532384871E+03  0.25500000000E-02 0. -1.
          2   -1    0    0  501    0  0.00000000000E+00 -0.00000000000E+00 -0.80487196490E+03  0.80487196490E+03  0.25500000000E-02 0.  1.
    5000001    1    1    2    0    0 -0.25384310776E+03 -0.24329236599E+03 -0.26671788673E+03  0.45923297988E+03  0.12700000000E+03 0.  0.
   -5000001    1    1    2    0    0  0.25384310776E+03  0.24329236599E+03 -0.36283022948E+03  0.52096283373E+03  0.12700000000E+03 0.  0.
<mgrwt>
<rscale>  0 0.75130087E+03</rscale>
<asrwt>0</asrwt>
<pdfrwt beam="1">  1        2 0.11498171E+00 0.75130087E+03</pdfrwt>
<pdfrwt beam="2">  1       -2 0.25046265E-01 0.75130087E+03</pdfrwt>
<totfact> 0.54045723E+02</totfact>
</mgrwt>
</event>
<event>
 4    1  0.4895160E-005  0.3046447E+03  0.7818608E-02  0.1082942E+00
          2   -1    0    0  501    0  0.00000000000E+00  0.00000000000E+00  0.29546030858E+03  0.29546030859E+03  0.25500000000E-02 0.  1.
         -2   -1    0    0    0  501 -0.00000000000E+00 -0.00000000000E+00 -0.78528653509E+02  0.78528653550E+02  0.25500000000E-02 0. -1.
    5000001    1    1    2    0    0  0.41880013797E+02 -0.59946314648E+02  0.57469874684E+02  0.15741436622E+03  0.12700000000E+03 0.  0.
   -5000001    1    1    2    0    0 -0.41880013797E+02  0.59946314648E+02  0.15946178039E+03  0.21657459593E+03  0.12700000000E+03 0.  0.
<mgrwt>
<rscale>  0 0.30464471E+03</rscale>
<asrwt>0</asrwt>
<pdfrwt beam="1">  1        2 0.42208616E-01 0.30464471E+03</pdfrwt>
<pdfrwt beam="2">  1       -2 0.11218379E-01 0.30464471E+03</pdfrwt>
<totfact> 0.66303161E+03</totfact>
</mgrwt>
</event>
<event>
 4    1  0.4895160E-005  0.3389357E+03  0.7818608E-02  0.1067250E+00
          2   -1    0    0  501    0  0.00000000000E+00  0.00000000000E+00  0.43189077120E+03  0.43189077120E+03  0.25500000000E-02 0.  1.
         -2   -1    0    0    0  501 -0.00000000000E+00 -0.00000000000E+00 -0.66496782726E+02  0.66496782775E+02  0.25500000000E-02 0. -1.
    5000001    1    1    2    0    0 -0.94091527428E+02 -0.60684734216E+02  0.19355188360E+03  0.25715206424E+03  0.12700000000E+03 0.  0.
   -5000001    1    1    2    0    0  0.94091527428E+02  0.60684734216E+02  0.17184210487E+03  0.24123548973E+03  0.12700000000E+03 0.  0.
<mgrwt>
<rscale>  0 0.33893567E+03</rscale>
<asrwt>0</asrwt>
<pdfrwt beam="1">  1        2 0.61698683E-01 0.33893567E+03</pdfrwt>
<pdfrwt beam="2">  1       -2 0.94995402E-02 0.33893567E+03</pdfrwt>
<totfact> 0.57509129E+03</totfact>
</mgrwt>
</event>
<event>
 4    1  0.4895160E-005  0.5310218E+03  0.7818608E-02  0.1005985E+00
          2   -1    0    0  501    0  0.00000000000E+00  0.00000000000E+00  0.40041943819E+04  0.40041943819E+04  0.25500000000E-02 0.  1.
         -2   -1    0    0    0  501 -0.00000000000E+00 -0.00000000000E+00 -0.17605549282E+02  0.17605549466E+02  0.25500000000E-02 0. -1.
    5000001    1    1    2    0    0 -0.16103036008E+03 -0.28232877770E+02  0.32524244862E+04  0.32590062766E+04  0.12700000000E+03 0.  0.
   -5000001    1    1    2    0    0  0.16103036008E+03  0.28232877770E+02  0.73416434638E+03  0.76279365477E+03  0.12700000000E+03 0.  0.
<mgrwt>
<rscale>  0 0.53102181E+03</rscale>
<asrwt>0</asrwt>
<pdfrwt beam="1">  1        2 0.57202697E+00 0.53102181E+03</pdfrwt>
<pdfrwt beam="2">  1       -2 0.25150820E-02 0.53102181E+03</pdfrwt>
<totfact> 0.37530135E+02</totfact>
</mgrwt>
</event>
<event>
 4    1  0.4895160E-005  0.4300020E+03  0.7818608E-02  0.1033859E+00
         -2   -1    0    0    0  501 -0.00000000000E+00  0.00000000000E+00  0.59012600645E+03  0.59012600646E+03  0.25500000000E-02 0. -1.
          2   -1    0    0  501    0  0.00000000000E+00 -0.00000000000E+00 -0.78331460860E+02  0.78331460901E+02  0.25500000000E-02 0.  1.
    5000001    1    1    2    0    0 -0.15755859839E+03 -0.66831433197E+02  0.21178324659E+03  0.30045348380E+03  0.12700000000E+03 0.  0.
   -5000001    1    1    2    0    0  0.15755859839E+03  0.66831433197E+02  0.30001129900E+03  0.36800398356E+03  0.12700000000E+03 0.  0.
<mgrwt>
<rscale>  0 0.43000201E+03</rscale>
<asrwt>0</asrwt>
<pdfrwt beam="1">  1        2 0.11190209E-01 0.43000201E+03</pdfrwt>
<pdfrwt beam="2">  1       -2 0.84303711E-01 0.43000201E+03</pdfrwt>
<totfact> 0.71108318E+02</totfact>
</mgrwt>
</event>
<event>
 4    1  0.4895160E-005  0.3504036E+03  0.7818608E-02  0.1062450E+00
          2   -1    0    0  501    0  0.00000000000E+00  0.00000000000E+00  0.39595155518E+03  0.39595155519E+03  0.25500000000E-02 0.  1.
         -2   -1    0    0    0  501 -0.00000000000E+00 -0.00000000000E+00 -0.77523788085E+02  0.77523788127E+02  0.25500000000E-02 0. -1.
    5000001    1    1    2    0    0  0.61140432427E+02  0.48904433564E+02  0.35100250307E+02  0.15326716436E+03  0.12700000000E+03 0.  0.
   -5000001    1    1    2    0    0 -0.61140432427E+02 -0.48904433564E+02  0.28332751679E+03  0.32020817895E+03  0.12700000000E+03 0.  0.
<mgrwt>
<rscale>  0 0.35040356E+03</rscale>
<asrwt>0</asrwt>
<pdfrwt beam="1">  1        2 0.56564508E-01 0.35040356E+03</pdfrwt>
<pdfrwt beam="2">  1       -2 0.11074827E-01 0.35040356E+03</pdfrwt>
<totfact> 0.49499098E+03</totfact>
</mgrwt>
</event>
<event>
 4    1  0.4895160E-005  0.4351680E+03  0.7818608E-02  0.1032240E+00
          2   -1    0    0  501    0  0.00000000000E+00  0.00000000000E+00  0.12624933414E+04  0.12624933414E+04  0.25500000000E-02 0.  1.
         -2   -1    0    0    0  501 -0.00000000000E+00 -0.00000000000E+00 -0.37499451333E+02  0.37499451419E+02  0.25500000000E-02 0. -1.
    5000001    1    1    2    0    0  0.10854300723E+03  0.39394017209E+02  0.21303835444E+03  0.27358328435E+03  0.12700000000E+03 0.  0.
   -5000001    1    1    2    0    0 -0.10854300723E+03 -0.39394017209E+02  0.10119555356E+04  0.10264095085E+04  0.12700000000E+03 0.  0.
<mgrwt>
<rscale>  0 0.43516805E+03</rscale>
<asrwt>0</asrwt>
<pdfrwt beam="1">  1        2 0.18035617E+00 0.43516805E+03</pdfrwt>
<pdfrwt beam="2">  1       -2 0.53570652E-02 0.43516805E+03</pdfrwt>
<totfact> 0.36660736E+03</totfact>
</mgrwt>
</event>
<event>
 4    1  0.4895160E-005  0.3717824E+03  0.7818608E-02  0.1054014E+00
         -2   -1    0    0    0  501 -0.00000000000E+00  0.00000000000E+00  0.30269916837E+02  0.30269916944E+02  0.25500000000E-02 0. -1.
          2   -1    0    0  501    0  0.00000000000E+00 -0.00000000000E+00 -0.11415803055E+04  0.11415803055E+04  0.25500000000E-02 0.  1.
    5000001    1    1    2    0    0 -0.12631192847E+03  0.14731861052E+01 -0.71229513123E+03  0.73447275479E+03  0.12700000000E+03 0.  0.
   -5000001    1    1    2    0    0  0.12631192847E+03 -0.14731861052E+01 -0.39901525742E+03  0.43737746765E+03  0.12700000000E+03 0.  0.
<mgrwt>
<rscale>  0 0.37178241E+03</rscale>
<asrwt>0</asrwt>
<pdfrwt beam="1">  1        2 0.16308287E+00 0.37178241E+03</pdfrwt>
<pdfrwt beam="2">  1       -2 0.43242745E-02 0.37178241E+03</pdfrwt>
<totfact> 0.59277311E+03</totfact>
</mgrwt>
</event>
<event>
 4    1  0.4895160E-005  0.3970617E+03  0.7818608E-02  0.1044802E+00
          2   -1    0    0  501    0  0.00000000000E+00  0.00000000000E+00  0.19208272103E+04  0.19208272103E+04  0.25500000000E-02 0.  1.
         -2   -1    0    0    0  501 -0.00000000000E+00 -0.00000000000E+00 -0.20519546049E+02  0.20519546207E+02  0.25500000000E-02 0. -1.
    5000001    1    1    2    0    0 -0.99368712517E+02 -0.67673839460E+02  0.49067542339E+03  0.52090811156E+03  0.12700000000E+03 0.  0.
   -5000001    1    1    2    0    0  0.99368712517E+02  0.67673839460E+02  0.14096322408E+04  0.14204386449E+04  0.12700000000E+03 0.  0.
<mgrwt>
<rscale>  0 0.39706172E+03</rscale>
<asrwt>0</asrwt>
<pdfrwt beam="1">  1        2 0.27440362E+00 0.39706172E+03</pdfrwt>
<pdfrwt beam="2">  1       -2 0.29313666E-02 0.39706172E+03</pdfrwt>
<totfact> 0.42310467E+03</totfact>
</mgrwt>
</event>
<event>
 4    1  0.4895160E-005  0.4351232E+03  0.7818608E-02  0.1032254E+00
          2   -1    0    0  501    0  0.00000000000E+00  0.00000000000E+00  0.71795373660E+03  0.71795373660E+03  0.25500000000E-02 0.  1.
         -2   -1    0    0    0  501 -0.00000000000E+00 -0.00000000000E+00 -0.65927712679E+02  0.65927712728E+02  0.25500000000E-02 0. -1.
    5000001    1    1    2    0    0  0.22452753881E+02 -0.15633636539E+03  0.18348971566E+03  0.27339104055E+03  0.12700000000E+03 0.  0.
   -5000001    1    1    2    0    0 -0.22452753881E+02  0.15633636539E+03  0.46853630826E+03  0.51049040878E+03  0.12700000000E+03 0.  0.
<mgrwt>
<rscale>  0 0.43512319E+03</rscale>
<asrwt>0</asrwt>
<pdfrwt beam="1">  1        2 0.10256483E+00 0.43512319E+03</pdfrwt>
<pdfrwt beam="2">  1       -2 0.94182441E-02 0.43512319E+03</pdfrwt>
<totfact> 0.32727468E+03</totfact>
</mgrwt>
</event>
<event>
 4    1  0.4895160E-005  0.4211389E+03  0.7818608E-02  0.1036696E+00
          2   -1    0    0  501    0  0.00000000000E+00  0.00000000000E+00  0.57200086678E+03  0.57200086678E+03  0.25500000000E-02 0.  1.
         -2   -1    0    0    0  501 -0.00000000000E+00 -0.00000000000E+00 -0.77516477548E+02  0.77516477589E+02  0.25500000000E-02 0. -1.
    5000001    1    1    2    0    0 -0.48878572793E+02 -0.97728561814E+02  0.50514308989E+02  0.17498766267E+03  0.12700000000E+03 0.  0.
   -5000001    1    1    2    0    0  0.48878572793E+02  0.97728561814E+02  0.44397008024E+03  0.47452968171E+03  0.12700000000E+03 0.  0.
<mgrwt>
<rscale>  0 0.42113890E+03</rscale>
<asrwt>0</asrwt>
<pdfrwt beam="1">  1        2 0.81714407E-01 0.42113890E+03</pdfrwt>
<pdfrwt beam="2">  1       -2 0.11073783E-01 0.42113890E+03</pdfrwt>
<totfact> 0.32967681E+03</totfact>
</mgrwt>
</event>
<event>
 4    1  0.4895160E-005  0.3169045E+03  0.7818608E-02  0.1077083E+00
          2   -1    0    0  501    0  0.00000000000E+00  0.00000000000E+00  0.12092994759E+04  0.12092994759E+04  0.25500000000E-02 0.  1.
         -2   -1    0    0    0  501 -0.00000000000E+00 -0.00000000000E+00 -0.20761702196E+02  0.20761702352E+02  0.25500000000E-02 0. -1.
    5000001    1    1    2    0    0  0.42666238763E+02  0.44972249112E+02  0.31612009443E+03  0.34627131736E+03  0.12700000000E+03 0.  0.
   -5000001    1    1    2    0    0 -0.42666238763E+02 -0.44972249112E+02  0.87241767928E+03  0.88378986090E+03  0.12700000000E+03 0.  0.
<mgrwt>
<rscale>  0 0.31690450E+03</rscale>
<asrwt>0</asrwt>
<pdfrwt beam="1">  1        2 0.17275708E+00 0.31690450E+03</pdfrwt>
<pdfrwt beam="2">  1       -2 0.29659572E-02 0.31690450E+03</pdfrwt>
<totfact> 0.95712178E+03</totfact>
</mgrwt>
</event>
<event>
 4    1  0.4895160E-005  0.4149489E+03  0.7818608E-02  0.1038723E+00
          2   -1    0    0  501    0  0.00000000000E+00  0.00000000000E+00  0.29441332732E+04  0.29441332732E+04  0.25500000000E-02 0. -1.
         -2   -1    0    0    0  501 -0.00000000000E+00 -0.00000000000E+00 -0.14620818650E+02  0.14620818872E+02  0.25500000000E-02 0.  1.
    5000001    1    1    2    0    0 -0.80492790474E+02  0.10511207390E+03  0.77384221137E+03  0.79529139660E+03  0.12700000000E+03 0.  0.
   -5000001    1    1    2    0    0  0.80492790474E+02 -0.10511207390E+03  0.21556702432E+04  0.21634626955E+04  0.12700000000E+03 0.  0.
<mgrwt>
<rscale>  0 0.41494886E+03</rscale>
<asrwt>0</asrwt>
<pdfrwt beam="1">  1        2 0.42059049E+00 0.41494886E+03</pdfrwt>
<pdfrwt beam="2">  1       -2 0.20886883E-02 0.41494886E+03</pdfrwt>
<totfact> 0.21258502E+03</totfact>
</mgrwt>
</event>
<event>
 4    1  0.4895160E-005  0.6356566E+03  0.7818608E-02  0.9834072E-01
         -2   -1    0    0    0  501 -0.00000000000E+00  0.00000000000E+00  0.91792086798E+02  0.91792086833E+02  0.25500000000E-02 0. -1.
          2   -1    0    0  501    0  0.00000000000E+00 -0.00000000000E+00 -0.11004742359E+04  0.11004742359E+04  0.25500000000E-02 0.  1.
    5000001    1    1    2    0    0  0.23482148031E+03  0.16908563779E+03 -0.56807841935E+03  0.65005628299E+03  0.12700000000E+03 0.  0.
   -5000001    1    1    2    0    0 -0.23482148031E+03 -0.16908563779E+03 -0.44060372970E+03  0.54221003970E+03  0.12700000000E+03 0.  0.
<mgrwt>
<rscale>  0 0.63565659E+03</rscale>
<asrwt>0</asrwt>
<pdfrwt beam="1">  1        2 0.15721060E+00 0.63565659E+03</pdfrwt>
<pdfrwt beam="2">  1       -2 0.13113156E-01 0.63565659E+03</pdfrwt>
<totfact> 0.10789040E+03</totfact>
</mgrwt>
</event>
<event>
 4    1  0.4895160E-005  0.3846028E+03  0.7818608E-02  0.1049246E+00
         -2   -1    0    0    0  501 -0.00000000000E+00  0.00000000000E+00  0.73778322248E+02  0.73778322292E+02  0.25500000000E-02 0. -1.
          2   -1    0    0  501    0  0.00000000000E+00 -0.00000000000E+00 -0.50122885799E+03  0.50122885800E+03  0.25500000000E-02 0.  1.
    5000001    1    1    2    0    0 -0.68802745292E+02  0.11768523088E+03 -0.14253754736E+03  0.23458385224E+03  0.12700000000E+03 0.  0.
   -5000001    1    1    2    0    0  0.68802745292E+02 -0.11768523088E+03 -0.28491298839E+03  0.34042332805E+03  0.12700000000E+03 0.  0.
<mgrwt>
<rscale>  0 0.38460278E+03</rscale>
<asrwt>0</asrwt>
<pdfrwt beam="1">  1        2 0.71604121E-01 0.38460278E+03</pdfrwt>
<pdfrwt beam="2">  1       -2 0.10539761E-01 0.38460278E+03</pdfrwt>
<totfact> 0.41417321E+03</totfact>
</mgrwt>
</event>
<event>
 4    1  0.4895160E-005  0.2894254E+03  0.7818608E-02  0.1090650E+00
          2   -1    0    0  501    0  0.00000000000E+00  0.00000000000E+00  0.17418098136E+03  0.17418098138E+03  0.25500000000E-02 0.  1.
         -2   -1    0    0    0  501 -0.00000000000E+00 -0.00000000000E+00 -0.12022993122E+03  0.12022993125E+03  0.25500000000E-02 0. -1.
    5000001    1    1    2    0    0 -0.40883768660E+02 -0.34728318513E+02 -0.17773481430E+02  0.13900516281E+03  0.12700000000E+03 0.  0.
   -5000001    1    1    2    0    0  0.40883768660E+02  0.34728318513E+02  0.71724531574E+02  0.15540574982E+03  0.12700000000E+03 0.  0.
<mgrwt>
<rscale>  0 0.28942541E+03</rscale>
<asrwt>0</asrwt>
<pdfrwt beam="1">  1        2 0.24882997E-01 0.28942541E+03</pdfrwt>
<pdfrwt beam="2">  1       -2 0.17175705E-01 0.28942541E+03</pdfrwt>
<totfact> 0.58674560E+03</totfact>
</mgrwt>
</event>
<event>
 4    1  0.4895160E-005  0.3578128E+03  0.7818608E-02  0.1059453E+00
         -2   -1    0    0    0  501 -0.00000000000E+00  0.00000000000E+00  0.41176245678E+02  0.41176245757E+02  0.25500000000E-02 0. -1.
          2   -1    0    0  501    0  0.00000000000E+00 -0.00000000000E+00 -0.77732936817E+03  0.77732936818E+03  0.25500000000E-02 0.  1.
    5000001    1    1    2    0    0 -0.58381366518E+02  0.64044944994E+02 -0.57733649909E+03  0.59745842710E+03  0.12700000000E+03 0.  0.
   -5000001    1    1    2    0    0  0.58381366518E+02 -0.64044944994E+02 -0.15881662341E+03  0.22104718683E+03  0.12700000000E+03 0.  0.
<mgrwt>
<rscale>  0 0.35781283E+03</rscale>
<asrwt>0</asrwt>
<pdfrwt beam="1">  1        2 0.11104704E+00 0.35781283E+03</pdfrwt>
<pdfrwt beam="2">  1       -2 0.58823213E-02 0.35781283E+03</pdfrwt>
<totfact> 0.61967819E+03</totfact>
</mgrwt>
</event>
<event>
 4    1  0.4895160E-005  0.3474648E+03  0.7818608E-02  0.1063660E+00
          2   -1    0    0  501    0  0.00000000000E+00  0.00000000000E+00  0.45158600006E+03  0.45158600007E+03  0.25500000000E-02 0.  1.
         -2   -1    0    0    0  501 -0.00000000000E+00 -0.00000000000E+00 -0.66837638164E+02  0.66837638212E+02  0.25500000000E-02 0. -1.
    5000001    1    1    2    0    0  0.11747843383E+03  0.15770945336E+02  0.19537182020E+03  0.26143651861E+03  0.12700000000E+03 0.  0.
   -5000001    1    1    2    0    0 -0.11747843383E+03 -0.15770945336E+02  0.18937654170E+03  0.25698711967E+03  0.12700000000E+03 0.  0.
<mgrwt>
<rscale>  0 0.34746477E+03</rscale>
<asrwt>0</asrwt>
<pdfrwt beam="1">  1        2 0.64512283E-01 0.34746477E+03</pdfrwt>
<pdfrwt beam="2">  1       -2 0.95482345E-02 0.34746477E+03</pdfrwt>
<totfact> 0.54350858E+03</totfact>
</mgrwt>
</event>
<event>
 4    1  0.4895160E-005  0.4411819E+03  0.7818608E-02  0.1030385E+00
         -2   -1    0    0    0  501 -0.00000000000E+00  0.00000000000E+00  0.13548955950E+04  0.13548955950E+04  0.25500000000E-02 0. -1.
          2   -1    0    0  501    0  0.00000000000E+00 -0.00000000000E+00 -0.35914480586E+02  0.35914480677E+02  0.25500000000E-02 0.  1.
    5000001    1    1    2    0    0 -0.16470983198E+03  0.22086917208E+02  0.43849831954E+03  0.48582603564E+03  0.12700000000E+03 0.  0.
   -5000001    1    1    2    0    0  0.16470983198E+03 -0.22086917208E+02  0.88048279483E+03  0.90498404000E+03  0.12700000000E+03 0.  0.
<mgrwt>
<rscale>  0 0.44118192E+03</rscale>
<asrwt>0</asrwt>
<pdfrwt beam="1">  1        2 0.51306402E-02 0.44118192E+03</pdfrwt>
<pdfrwt beam="2">  1       -2 0.19355651E+00 0.44118192E+03</pdfrwt>
<totfact> 0.24054324E+02</totfact>
</mgrwt>
</event>
<event>
 4    1  0.4895160E-005  0.6300901E+03  0.7818608E-02  0.9844873E-01
          2   -1    0    0  501    0  0.00000000000E+00  0.00000000000E+00  0.61385178101E+03  0.61385178102E+03  0.25500000000E-02 0.  1.
         -2   -1    0    0    0  501 -0.00000000000E+00 -0.00000000000E+00 -0.16168946796E+03  0.16168946798E+03  0.25500000000E-02 0. -1.
    5000001    1    1    2    0    0  0.21350416614E+03  0.19345073336E+03  0.21275888094E+03  0.38000336396E+03  0.12700000000E+03 0.  0.
   -5000001    1    1    2    0    0 -0.21350416614E+03 -0.19345073336E+03  0.23940343211E+03  0.39553788504E+03  0.12700000000E+03 0.  0.
<mgrwt>
<rscale>  0 0.63009005E+03</rscale>
<asrwt>0</asrwt>
<pdfrwt beam="1">  1        2 0.87693111E-01 0.63009005E+03</pdfrwt>
<pdfrwt beam="2">  1       -2 0.23098495E-01 0.63009005E+03</pdfrwt>
<totfact> 0.87522574E+02</totfact>
</mgrwt>
</event>
<event>
 4    1  0.4895160E-005  0.3820178E+03  0.7818608E-02  0.1050190E+00
          2   -1    0    0  501    0  0.00000000000E+00  0.00000000000E+00  0.12726174047E+03  0.12726174049E+03  0.25500000000E-02 0.  1.
         -2   -1    0    0    0  501 -0.00000000000E+00 -0.00000000000E+00 -0.28668793362E+03  0.28668793363E+03  0.25500000000E-02 0. -1.
    5000001    1    1    2    0    0  0.98166979527E+01  0.46411491863E+02  0.66088846817E+02  0.15082151640E+03  0.12700000000E+03 0.  0.
   -5000001    1    1    2    0    0 -0.98166979527E+01 -0.46411491863E+02 -0.22551503997E+03  0.26312815772E+03  0.12700000000E+03 0.  0.
<mgrwt>
<rscale>  0 0.38201783E+03</rscale>
<asrwt>0</asrwt>
<pdfrwt beam="1">  1        2 0.18180249E-01 0.38201783E+03</pdfrwt>
<pdfrwt beam="2">  1       -2 0.40955419E-01 0.38201783E+03</pdfrwt>
<totfact> 0.17791483E+03</totfact>
</mgrwt>
</event>
<event>
 4    1  0.4895160E-005  0.4115488E+03  0.7818608E-02  0.1039853E+00
          2   -1    0    0  501    0  0.00000000000E+00  0.00000000000E+00  0.33792832940E+04  0.33792832940E+04  0.25500000000E-02 0.  1.
         -2   -1    0    0    0  501 -0.00000000000E+00 -0.00000000000E+00 -0.12530203716E+02  0.12530203975E+02  0.25500000000E-02 0. -1.
    5000001    1    1    2    0    0  0.14051929121E+03  0.19379550874E+02  0.10400646711E+04  0.10573479835E+04  0.12700000000E+03 0.  0.
   -5000001    1    1    2    0    0 -0.14051929121E+03 -0.19379550874E+02  0.23266884192E+04  0.23344655145E+04  0.12700000000E+03 0.  0.
<mgrwt>
<rscale>  0 0.41154882E+03</rscale>
<asrwt>0</asrwt>
<pdfrwt beam="1">  1        2 0.48275551E+00 0.41154882E+03</pdfrwt>
<pdfrwt beam="2">  1       -2 0.17900263E-02 0.41154882E+03</pdfrwt>
<totfact> 0.15385526E+03</totfact>
</mgrwt>
</event>
<event>
 4    1  0.4895160E-005  0.1055590E+04  0.7818608E-02  0.9249591E-01
         -2   -1    0    0    0  501 -0.00000000000E+00  0.00000000000E+00  0.11450916804E+03  0.11450916807E+03  0.25500000000E-02 0. -1.
          2   -1    0    0  501    0  0.00000000000E+00 -0.00000000000E+00 -0.24327105527E+04  0.24327105527E+04  0.25500000000E-02 0.  1.
    5000001    1    1    2    0    0 -0.34642064523E+03 -0.31134643677E+03 -0.16737980240E+04  0.17420311973E+04  0.12700000000E+03 0.  0.
   -5000001    1    1    2    0    0  0.34642064523E+03  0.31134643677E+03 -0.64440336060E+03  0.80518852344E+03  0.12700000000E+03 0.  0.
<mgrwt>
<rscale>  0 0.10555902E+04</rscale>
<asrwt>0</asrwt>
<pdfrwt beam="1">  1        2 0.34753005E+00 0.10555902E+04</pdfrwt>
<pdfrwt beam="2">  1       -2 0.16358454E-01 0.10555902E+04</pdfrwt>
<totfact> 0.14519754E+02</totfact>
</mgrwt>
</event>
<event>
 4    1  0.4895160E-005  0.3684176E+03  0.7818608E-02  0.1055300E+00
         -2   -1    0    0    0  501 -0.00000000000E+00  0.00000000000E+00  0.17855127609E+02  0.17855127791E+02  0.25500000000E-02 0. -1.
          2   -1    0    0  501    0  0.00000000000E+00 -0.00000000000E+00 -0.19004555280E+04  0.19004555280E+04  0.25500000000E-02 0.  1.
    5000001    1    1    2    0    0 -0.62444376697E+02  0.41008249659E+02 -0.15169597671E+04  0.15240987211E+04  0.12700000000E+03 0.  0.
   -5000001    1    1    2    0    0  0.62444376697E+02 -0.41008249659E+02 -0.36564063323E+03  0.39421193461E+03  0.12700000000E+03 0.  0.
<mgrwt>
<rscale>  0 0.36841757E+03</rscale>
<asrwt>0</asrwt>
<pdfrwt beam="1">  1        2 0.27149352E+00 0.36841757E+03</pdfrwt>
<pdfrwt beam="2">  1       -2 0.25507337E-02 0.36841757E+03</pdfrwt>
<totfact> 0.53345908E+03</totfact>
</mgrwt>
</event>
<event>
 4    1  0.4895160E-005  0.3664144E+03  0.7818608E-02  0.1056073E+00
          2   -1    0    0  501    0  0.00000000000E+00  0.00000000000E+00  0.19888237852E+03  0.19888237854E+03  0.25500000000E-02 0.  1.
         -2   -1    0    0    0  501 -0.00000000000E+00 -0.00000000000E+00 -0.16876748753E+03  0.16876748755E+03  0.25500000000E-02 0. -1.
    5000001    1    1    2    0    0 -0.10134883511E+02 -0.11970156667E+03 -0.39942507138E+02  0.17931978363E+03  0.12700000000E+03 0.  0.
   -5000001    1    1    2    0    0  0.10134883511E+02  0.11970156667E+03  0.70057398126E+02  0.18833008246E+03  0.12700000000E+03 0.  0.
<mgrwt>
<rscale>  0 0.36641441E+03</rscale>
<asrwt>0</asrwt>
<pdfrwt beam="1">  1        2 0.28411768E-01 0.36641441E+03</pdfrwt>
<pdfrwt beam="2">  1       -2 0.24109641E-01 0.36641441E+03</pdfrwt>
<totfact> 0.28403955E+03</totfact>
</mgrwt>
</event>
<event>
 4    1  0.4895160E-005  0.3809861E+03  0.7818608E-02  0.1050570E+00
         -2   -1    0    0    0  501 -0.00000000000E+00  0.00000000000E+00  0.16540921296E+03  0.16540921298E+03  0.25500000000E-02 0. -1.
          2   -1    0    0  501    0  0.00000000000E+00 -0.00000000000E+00 -0.21938076910E+03  0.21938076911E+03  0.25500000000E-02 0.  1.
    5000001    1    1    2    0    0  0.12239651001E+03 -0.70740739960E+02 -0.40287022769E+02  0.19426065520E+03  0.12700000000E+03 0.  0.
   -5000001    1    1    2    0    0 -0.12239651001E+03  0.70740739960E+02 -0.13684533373E+02  0.19052932690E+03  0.12700000000E+03 0.  0.
<mgrwt>
<rscale>  0 0.38098609E+03</rscale>
<asrwt>0</asrwt>
<pdfrwt beam="1">  1        2 0.31340110E-01 0.38098609E+03</pdfrwt>
<pdfrwt beam="2">  1       -2 0.23629888E-01 0.38098609E+03</pdfrwt>
<totfact> 0.26415736E+03</totfact>
</mgrwt>
</event>
<event>
 4    1  0.4895160E-005  0.7291610E+03  0.7818608E-02  0.9668623E-01
         -2   -1    0    0    0  501 -0.00000000000E+00  0.00000000000E+00  0.27045549419E+03  0.27045549420E+03  0.25500000000E-02 0. -1.
          2   -1    0    0  501    0  0.00000000000E+00 -0.00000000000E+00 -0.49146323516E+03  0.49146323517E+03  0.25500000000E-02 0.  1.
    5000001    1    1    2    0    0 -0.19654031681E+03  0.17544539768E+03  0.11694626004E+03  0.31498350979E+03  0.12700000000E+03 0.  0.
   -5000001    1    1    2    0    0  0.19654031681E+03 -0.17544539768E+03 -0.33795400101E+03  0.44693521958E+03  0.12700000000E+03 0.  0.
<mgrwt>
<rscale>  0 0.72916098E+03</rscale>
<asrwt>0</asrwt>
<pdfrwt beam="1">  1        2 0.70209034E-01 0.72916098E+03</pdfrwt>
<pdfrwt beam="2">  1       -2 0.38636499E-01 0.72916098E+03</pdfrwt>
<totfact> 0.43603961E+02</totfact>
</mgrwt>
</event>
<event>
 4    1  0.4895160E-005  0.4487360E+03  0.7818608E-02  0.1028100E+00
          2   -1    0    0  501    0  0.00000000000E+00  0.00000000000E+00  0.12389527527E+04  0.12389527527E+04  0.25500000000E-02 0.  1.
         -2   -1    0    0    0  501 -0.00000000000E+00 -0.00000000000E+00 -0.40631903444E+02  0.40631903524E+02  0.25500000000E-02 0. -1.
    5000001    1    1    2    0    0  0.13164233188E+03  0.73082584712E+02  0.29281998918E+03  0.35290694779E+03  0.12700000000E+03 0.  0.
   -5000001    1    1    2    0    0 -0.13164233188E+03 -0.73082584712E+02  0.90550086009E+03  0.92667770846E+03  0.12700000000E+03 0.  0.
<mgrwt>
<rscale>  0 0.44873604E+03</rscale>
<asrwt>0</asrwt>
<pdfrwt beam="1">  1        2 0.17699325E+00 0.44873604E+03</pdfrwt>
<pdfrwt beam="2">  1       -2 0.58045578E-02 0.44873604E+03</pdfrwt>
<totfact> 0.33351708E+03</totfact>
</mgrwt>
</event>
<event>
 4    1  0.4895160E-005  0.4488085E+03  0.7818608E-02  0.1028078E+00
         -2   -1    0    0    0  501 -0.00000000000E+00  0.00000000000E+00  0.10517578876E+03  0.10517578879E+03  0.25500000000E-02 0. -1.
          2   -1    0    0  501    0  0.00000000000E+00 -0.00000000000E+00 -0.47879133645E+03  0.47879133646E+03  0.25500000000E-02 0.  1.
    5000001    1    1    2    0    0 -0.99625336987E+02 -0.58756651069E+02  0.10753364590E+01  0.17177807824E+03  0.12700000000E+03 0.  0.
   -5000001    1    1    2    0    0  0.99625336987E+02  0.58756651069E+02 -0.37469088415E+03  0.41218904701E+03  0.12700000000E+03 0.  0.
<mgrwt>
<rscale>  0 0.44880845E+03</rscale>
<asrwt>0</asrwt>
<pdfrwt beam="1">  1        2 0.68398761E-01 0.44880845E+03</pdfrwt>
<pdfrwt beam="2">  1       -2 0.15025113E-01 0.44880845E+03</pdfrwt>
<totfact> 0.24430690E+03</totfact>
</mgrwt>
</event>
<event>
 4    1  0.4895160E-005  0.4386039E+03  0.7818608E-02  0.1031176E+00
          2   -1    0    0  501    0  0.00000000000E+00  0.00000000000E+00  0.35902466322E+03  0.35902466323E+03  0.25500000000E-02 0.  1.
         -2   -1    0    0    0  501 -0.00000000000E+00 -0.00000000000E+00 -0.13395554093E+03  0.13395554095E+03  0.25500000000E-02 0. -1.
    5000001    1    1    2    0    0  0.75197090054E+02 -0.92360807789E+02  0.26240410164E+03  0.31491273986E+03  0.12700000000E+03 0.  0.
   -5000001    1    1    2    0    0 -0.75197090054E+02  0.92360807789E+02 -0.37334979348E+02  0.17806746432E+03  0.12700000000E+03 0.  0.
<mgrwt>
<rscale>  0 0.43860389E+03</rscale>
<asrwt>0</asrwt>
<pdfrwt beam="1">  1        2 0.51289237E-01 0.43860389E+03</pdfrwt>
<pdfrwt beam="2">  1       -2 0.19136506E-01 0.43860389E+03</pdfrwt>
<totfact> 0.22279411E+03</totfact>
</mgrwt>
</event>
<event>
 4    1  0.4895160E-005  0.2982176E+03  0.7818608E-02  0.1086135E+00
          2   -1    0    0  501    0  0.00000000000E+00  0.00000000000E+00  0.29988824710E+03  0.29988824711E+03  0.25500000000E-02 0.  1.
         -2   -1    0    0    0  501 -0.00000000000E+00 -0.00000000000E+00 -0.74139063551E+02  0.74139063595E+02  0.25500000000E-02 0. -1.
    5000001    1    1    2    0    0  0.49815915220E+02 -0.59572279768E+02  0.12366020144E+03  0.19352345425E+03  0.12700000000E+03 0.  0.
   -5000001    1    1    2    0    0 -0.49815915220E+02  0.59572279768E+02  0.10208898211E+03  0.18050385645E+03  0.12700000000E+03 0.  0.
<mgrwt>
<rscale>  0 0.29821760E+03</rscale>
<asrwt>0</asrwt>
<pdfrwt beam="1">  1        2 0.42841178E-01 0.29821760E+03</pdfrwt>
<pdfrwt beam="2">  1       -2 0.10591295E-01 0.29821760E+03</pdfrwt>
<totfact> 0.71503105E+03</totfact>
</mgrwt>
</event>
<event>
 4    1  0.4895160E-005  0.3747665E+03  0.7818608E-02  0.1052885E+00
         -2   -1    0    0    0  501 -0.00000000000E+00  0.00000000000E+00  0.67939441630E+02  0.67939441678E+02  0.25500000000E-02 0.  1.
          2   -1    0    0  501    0  0.00000000000E+00 -0.00000000000E+00 -0.51682037663E+03  0.51682037664E+03  0.25500000000E-02 0. -1.
    5000001    1    1    2    0    0 -0.10217004703E+03 -0.52212051493E+02 -0.10541808844E+03  0.20101440297E+03  0.12700000000E+03 0.  0.
   -5000001    1    1    2    0    0  0.10217004703E+03  0.52212051493E+02 -0.34346284656E+03  0.38374541535E+03  0.12700000000E+03 0.  0.
<mgrwt>
<rscale>  0 0.37476653E+03</rscale>
<asrwt>0</asrwt>
<pdfrwt beam="1">  1        2 0.73831480E-01 0.37476653E+03</pdfrwt>
<pdfrwt beam="2">  1       -2 0.97056348E-02 0.37476653E+03</pdfrwt>
<totfact> 0.45651251E+03</totfact>
</mgrwt>
</event>
<event>
 4    1  0.4895160E-005  0.5522210E+03  0.7818608E-02  0.1000981E+00
          2   -1    0    0  501    0  0.00000000000E+00  0.00000000000E+00  0.83290835083E+03  0.83290835083E+03  0.25500000000E-02 0.  1.
         -2   -1    0    0    0  501 -0.00000000000E+00 -0.00000000000E+00 -0.91531075890E+02  0.91531075926E+02  0.25500000000E-02 0. -1.
    5000001    1    1    2    0    0 -0.65493616291E+02  0.23397438492E+03  0.42556472152E+03  0.50622895885E+03  0.12700000000E+03 0.  0.
   -5000001    1    1    2    0    0  0.65493616291E+02 -0.23397438492E+03  0.31581255342E+03  0.41821046791E+03  0.12700000000E+03 0.  0.
<mgrwt>
<rscale>  0 0.55222096E+03</rscale>
<asrwt>0</asrwt>
<pdfrwt beam="1">  1        2 0.11898691E+00 0.55222096E+03</pdfrwt>
<pdfrwt beam="2">  1       -2 0.13075868E-01 0.55222096E+03</pdfrwt>
<totfact> 0.15936515E+03</totfact>
</mgrwt>
</event>
<event>
 4    1  0.4895160E-005  0.3497240E+03  0.7818608E-02  0.1062728E+00
          2   -1    0    0  501    0  0.00000000000E+00  0.00000000000E+00  0.23826192335E+03  0.23826192337E+03  0.25500000000E-02 0.  1.
         -2   -1    0    0    0  501 -0.00000000000E+00 -0.00000000000E+00 -0.12833235235E+03  0.12833235238E+03  0.25500000000E-02 0. -1.
    5000001    1    1    2    0    0  0.56760992320E+02 -0.93705844854E+02  0.31313313101E+01  0.16775398906E+03  0.12700000000E+03 0.  0.
   -5000001    1    1    2    0    0 -0.56760992320E+02  0.93705844854E+02  0.10679823969E+03  0.19884028669E+03  0.12700000000E+03 0.  0.
<mgrwt>
<rscale>  0 0.34972397E+03</rscale>
<asrwt>0</asrwt>
<pdfrwt beam="1">  1        2 0.34037417E-01 0.34972397E+03</pdfrwt>
<pdfrwt beam="2">  1       -2 0.18333193E-01 0.34972397E+03</pdfrwt>
<totfact> 0.37365856E+03</totfact>
</mgrwt>
</event>
<event>
 4    1  0.4895160E-005  0.2608563E+03  0.7818608E-02  0.1106630E+00
          2   -1    0    0  501    0  0.00000000000E+00  0.00000000000E+00  0.98920757597E+03  0.98920757597E+03  0.25500000000E-02 0.  1.
         -2   -1    0    0    0  501 -0.00000000000E+00 -0.00000000000E+00 -0.17197098095E+02  0.17197098284E+02  0.25500000000E-02 0. -1.
    5000001    1    1    2    0    0  0.24791494285E+02 -0.16145071858E+02  0.49637069236E+03  0.51321354792E+03  0.12700000000E+03 0.  0.
   -5000001    1    1    2    0    0 -0.24791494285E+02  0.16145071858E+02  0.47563978551E+03  0.49319112634E+03  0.12700000000E+03 0.  0.
<mgrwt>
<rscale>  0 0.26085628E+03</rscale>
<asrwt>0</asrwt>
<pdfrwt beam="1">  1        2 0.14131541E+00 0.26085628E+03</pdfrwt>
<pdfrwt beam="2">  1       -2 0.24567276E-02 0.26085628E+03</pdfrwt>
<totfact> 0.16758095E+04</totfact>
</mgrwt>
</event>
<event>
 4    1  0.4895160E-005  0.3169532E+03  0.7818608E-02  0.1077060E+00
          2   -1    0    0  501    0  0.00000000000E+00  0.00000000000E+00  0.51042575546E+03  0.51042575547E+03  0.25500000000E-02 0.  1.
         -2   -1    0    0    0  501 -0.00000000000E+00 -0.00000000000E+00 -0.49203683153E+02  0.49203683220E+02  0.25500000000E-02 0. -1.
    5000001    1    1    2    0    0 -0.35124388108E+02 -0.86775253632E+02  0.25692815114E+03  0.30150413286E+03  0.12700000000E+03 0.  0.
   -5000001    1    1    2    0    0  0.35124388108E+02  0.86775253632E+02  0.20429392117E+03  0.25812530583E+03  0.12700000000E+03 0.  0.
<mgrwt>
<rscale>  0 0.31695316E+03</rscale>
<asrwt>0</asrwt>
<pdfrwt beam="1">  1        2 0.72917968E-01 0.31695316E+03</pdfrwt>
<pdfrwt beam="2">  1       -2 0.70290973E-02 0.31695316E+03</pdfrwt>
<totfact> 0.76619584E+03</totfact>
</mgrwt>
</event>
<event>
 4    1  0.4895160E-005  0.5273853E+03  0.7818608E-02  0.1006868E+00
          2   -1    0    0  501    0  0.00000000000E+00  0.00000000000E+00  0.31999912541E+03  0.31999912542E+03  0.25500000000E-02 0.  1.
         -2   -1    0    0    0  501 -0.00000000000E+00 -0.00000000000E+00 -0.21729377628E+03  0.21729377630E+03  0.25500000000E-02 0. -1.
    5000001    1    1    2    0    0 -0.72812254453E+02 -0.14878957164E+03 -0.11281061210E+03  0.23726608529E+03  0.12700000000E+03 0.  0.
   -5000001    1    1    2    0    0  0.72812254453E+02  0.14878957164E+03  0.21551596123E+03  0.30002681642E+03  0.12700000000E+03 0.  0.
<mgrwt>
<rscale>  0 0.52738532E+03</rscale>
<asrwt>0</asrwt>
<pdfrwt beam="1">  1        2 0.45714161E-01 0.52738532E+03</pdfrwt>
<pdfrwt beam="2">  1       -2 0.31041968E-01 0.52738532E+03</pdfrwt>
<totfact> 0.10682476E+03</totfact>
</mgrwt>
</event>
<event>
 4    1  0.4895160E-005  0.2897074E+03  0.7818608E-02  0.1090502E+00
          2   -1    0    0  501    0  0.00000000000E+00  0.00000000000E+00  0.45116406539E+03  0.45116406540E+03  0.25500000000E-02 0.  1.
         -2   -1    0    0    0  501 -0.00000000000E+00 -0.00000000000E+00 -0.46507683024E+02  0.46507683094E+02  0.25500000000E-02 0. -1.
    5000001    1    1    2    0    0  0.21711060153E+02  0.53803258398E+02  0.26858070045E+03  0.30270572080E+03  0.12700000000E+03 0.  0.
   -5000001    1    1    2    0    0 -0.21711060153E+02 -0.53803258398E+02  0.13607568191E+03  0.19496602770E+03  0.12700000000E+03 0.  0.
<mgrwt>
<rscale>  0 0.28970741E+03</rscale>
<asrwt>0</asrwt>
<pdfrwt beam="1">  1        2 0.64452014E-01 0.28970741E+03</pdfrwt>
<pdfrwt beam="2">  1       -2 0.66439543E-02 0.28970741E+03</pdfrwt>
<totfact> 0.95515969E+03</totfact>
</mgrwt>
</event>
<event>
 4    1  0.4895160E-005  0.2715568E+03  0.7818608E-02  0.1100392E+00
          2   -1    0    0  501    0  0.00000000000E+00  0.00000000000E+00  0.49444431572E+04  0.49444431572E+04  0.25500000000E-02 0.  1.
         -2   -1    0    0    0  501 -0.00000000000E+00 -0.00000000000E+00 -0.37285850054E+01  0.37285858773E+01  0.25500000000E-02 0. -1.
    5000001    1    1    2    0    0  0.40563120111E+01 -0.42919351478E+02  0.20845714362E+04  0.20888814224E+04  0.12700000000E+03 0.  0.
   -5000001    1    1    2    0    0 -0.40563120111E+01  0.42919351478E+02  0.28561431360E+04  0.28592903207E+04  0.12700000000E+03 0.  0.
<mgrwt>
<rscale>  0 0.27155684E+03</rscale>
<asrwt>0</asrwt>
<pdfrwt beam="1">  1        2 0.70635221E+00 0.27155684E+03</pdfrwt>
<pdfrwt beam="2">  1       -2 0.53265266E-03 0.27155684E+03</pdfrwt>
<totfact> 0.73873985E+02</totfact>
</mgrwt>
</event>
<event>
 4    1  0.4895160E-005  0.3403417E+03  0.7818608E-02  0.1066650E+00
         -2   -1    0    0    0  501 -0.00000000000E+00  0.00000000000E+00  0.42493772789E+02  0.42493772866E+02  0.25500000000E-02 0.  1.
          2   -1    0    0  501    0  0.00000000000E+00 -0.00000000000E+00 -0.68146752261E+03  0.68146752262E+03  0.25500000000E-02 0. -1.
    5000001    1    1    2    0    0 -0.10719858041E+03  0.36124829998E+02 -0.33162979347E+03  0.37269808009E+03  0.12700000000E+03 0.  0.
   -5000001    1    1    2    0    0  0.10719858041E+03 -0.36124829998E+02 -0.30734395635E+03  0.35126321539E+03  0.12700000000E+03 0.  0.
<mgrwt>
<rscale>  0 0.34034175E+03</rscale>
<asrwt>0</asrwt>
<pdfrwt beam="1">  1        2 0.97352497E-01 0.34034175E+03</pdfrwt>
<pdfrwt beam="2">  1       -2 0.60705394E-02 0.34034175E+03</pdfrwt>
<totfact> 0.69160600E+03</totfact>
</mgrwt>
</event>
<event>
 4    1  0.4895160E-005  0.3653776E+03  0.7818608E-02  0.1056475E+00
          2   -1    0    0  501    0  0.00000000000E+00  0.00000000000E+00  0.12466097922E+04  0.12466097922E+04  0.25500000000E-02 0.  1.
         -2   -1    0    0    0  501 -0.00000000000E+00 -0.00000000000E+00 -0.26772766476E+02  0.26772766597E+02  0.25500000000E-02 0. -1.
    5000001    1    1    2    0    0  0.11486430326E+03  0.24644510944E+02  0.81447520535E+03  0.83264639567E+03  0.12700000000E+03 0.  0.
   -5000001    1    1    2    0    0 -0.11486430326E+03 -0.24644510944E+02  0.40536182042E+03  0.44073616318E+03  0.12700000000E+03 0.  0.
<mgrwt>
<rscale>  0 0.36537757E+03</rscale>
<asrwt>0</asrwt>
<pdfrwt beam="1">  1        2 0.17808711E+00 0.36537757E+03</pdfrwt>
<pdfrwt beam="2">  1       -2 0.38246811E-02 0.36537757E+03</pdfrwt>
<totfact> 0.62495593E+03</totfact>
</mgrwt>
</event>
<event>
 4    1  0.4895160E-005  0.5662100E+03  0.7818608E-02  0.9978101E-01
          2   -1    0    0  501    0  0.00000000000E+00  0.00000000000E+00  0.93966968213E+03  0.93966968213E+03  0.25500000000E-02 0.  1.
         -2   -1    0    0    0  501 -0.00000000000E+00 -0.00000000000E+00 -0.85294264438E+02  0.85294264476E+02  0.25500000000E-02 0. -1.
    5000001    1    1    2    0    0 -0.22145912295E+03 -0.12191062324E+03  0.40793705725E+03  0.49643527864E+03  0.12700000000E+03 0.  0.
   -5000001    1    1    2    0    0  0.22145912295E+03  0.12191062324E+03  0.44643836044E+03  0.52852866797E+03  0.12700000000E+03 0.  0.
<mgrwt>
<rscale>  0 0.56620998E+03</rscale>
<asrwt>0</asrwt>
<pdfrwt beam="1">  1        2 0.13423853E+00 0.56620998E+03</pdfrwt>
<pdfrwt beam="2">  1       -2 0.12184895E-01 0.56620998E+03</pdfrwt>
<totfact> 0.15258683E+03</totfact>
</mgrwt>
</event>
<event>
 4    1  0.4895160E-005  0.4175953E+03  0.7818608E-02  0.1037852E+00
          2   -1    0    0  501    0  0.00000000000E+00  0.00000000000E+00  0.42704408755E+03  0.42704408755E+03  0.25500000000E-02 0.  1.
         -2   -1    0    0    0  501 -0.00000000000E+00 -0.00000000000E+00 -0.10208887535E+03  0.10208887538E+03  0.25500000000E-02 0. -1.
    5000001    1    1    2    0    0 -0.15696292652E+03  0.12613661718E+02  0.96992120803E+02  0.22435003067E+03  0.12700000000E+03 0.  0.
   -5000001    1    1    2    0    0  0.15696292652E+03 -0.12613661718E+02  0.22796309139E+03  0.30478293227E+03  0.12700000000E+03 0.  0.
<mgrwt>
<rscale>  0 0.41759526E+03</rscale>
<asrwt>0</asrwt>
<pdfrwt beam="1">  1        2 0.61006299E-01 0.41759526E+03</pdfrwt>
<pdfrwt beam="2">  1       -2 0.14584125E-01 0.41759526E+03</pdfrwt>
<totfact> 0.29129731E+03</totfact>
</mgrwt>
</event>
<event>
 4    1  0.4895160E-005  0.3536887E+03  0.7818608E-02  0.1061111E+00
         -2   -1    0    0    0  501 -0.00000000000E+00  0.00000000000E+00  0.19095924721E+02  0.19095924891E+02  0.25500000000E-02 0. -1.
          2   -1    0    0  501    0  0.00000000000E+00 -0.00000000000E+00 -0.16377279551E+04  0.16377279551E+04  0.25500000000E-02 0.  1.
    5000001    1    1    2    0    0 -0.81785664380E+02  0.91891767190E+02 -0.82550139686E+03  0.84422422851E+03  0.12700000000E+03 0.  0.
   -5000001    1    1    2    0    0  0.81785664380E+02 -0.91891767190E+02 -0.79313063354E+03  0.81259965151E+03  0.12700000000E+03 0.  0.
<mgrwt>
<rscale>  0 0.35368873E+03</rscale>
<asrwt>0</asrwt>
<pdfrwt beam="1">  1        2 0.23396105E+00 0.35368873E+03</pdfrwt>
<pdfrwt beam="2">  1       -2 0.27279903E-02 0.35368873E+03</pdfrwt>
<totfact> 0.65148472E+03</totfact>
</mgrwt>
</event>
<event>
 4    1  0.4895160E-005  0.4354410E+03  0.7818608E-02  0.1032155E+00
         -2   -1    0    0    0  501 -0.00000000000E+00  0.00000000000E+00  0.13511177334E+03  0.13511177337E+03  0.25500000000E-02 0. -1.
          2   -1    0    0  501    0  0.00000000000E+00 -0.00000000000E+00 -0.35083709308E+03  0.35083709309E+03  0.25500000000E-02 0.  1.
    5000001    1    1    2    0    0  0.83833758328E+01 -0.17409955384E+03 -0.74526673526E+02  0.22817572331E+03  0.12700000000E+03 0.  0.
   -5000001    1    1    2    0    0 -0.83833758328E+01  0.17409955384E+03 -0.14119864621E+03  0.25777314315E+03  0.12700000000E+03 0.  0.
<mgrwt>
<rscale>  0 0.43544103E+03</rscale>
<asrwt>0</asrwt>
<pdfrwt beam="1">  1        2 0.50119584E-01 0.43544103E+03</pdfrwt>
<pdfrwt beam="2">  1       -2 0.19301682E-01 0.43544103E+03</pdfrwt>
<totfact> 0.22512031E+03</totfact>
</mgrwt>
</event>
<event>
 4    1  0.4895160E-005  0.2797813E+03  0.7818608E-02  0.1095808E+00
          2   -1    0    0  501    0  0.00000000000E+00  0.00000000000E+00  0.37164039323E+03  0.37164039323E+03  0.25500000000E-02 0.  1.
         -2   -1    0    0    0  501 -0.00000000000E+00 -0.00000000000E+00 -0.52656810884E+02  0.52656810946E+02  0.25500000000E-02 0. -1.
    5000001    1    1    2    0    0  0.27481198132E+02 -0.36061272863E+02  0.10305794110E+03  0.16972204004E+03  0.12700000000E+03 0.  0.
   -5000001    1    1    2    0    0 -0.27481198132E+02  0.36061272863E+02  0.21592564124E+03  0.25457516414E+03  0.12700000000E+03 0.  0.
<mgrwt>
<rscale>  0 0.27978133E+03</rscale>
<asrwt>0</asrwt>
<pdfrwt beam="1">  1        2 0.53091484E-01 0.27978133E+03</pdfrwt>
<pdfrwt beam="2">  1       -2 0.75224016E-02 0.27978133E+03</pdfrwt>
<totfact> 0.97103953E+03</totfact>
</mgrwt>
</event>
<event>
 4    1  0.4895160E-005  0.6542388E+03  0.7818608E-02  0.9798858E-01
          2   -1    0    0  501    0  0.00000000000E+00  0.00000000000E+00  0.17003784679E+04  0.17003784679E+04  0.25500000000E-02 0.  1.
         -2   -1    0    0    0  501 -0.00000000000E+00 -0.00000000000E+00 -0.62931341016E+02  0.62931341068E+02  0.25500000000E-02 0. -1.
    5000001    1    1    2    0    0 -0.27275735822E+03  0.11440398527E+03  0.97572376073E+03  0.10274486389E+04  0.12700000000E+03 0.  0.
   -5000001    1    1    2    0    0  0.27275735822E+03 -0.11440398527E+03  0.66172336614E+03  0.73586117006E+03  0.12700000000E+03 0.  0.
<mgrwt>
<rscale>  0 0.65423879E+03</rscale>
<asrwt>0</asrwt>
<pdfrwt beam="1">  1        2 0.24291127E+00 0.65423879E+03</pdfrwt>
<pdfrwt beam="2">  1       -2 0.89901893E-02 0.65423879E+03</pdfrwt>
<totfact> 0.95181355E+02</totfact>
</mgrwt>
</event>
<event>
 4    1  0.4895160E-005  0.3821130E+03  0.7818608E-02  0.1050156E+00
         -2   -1    0    0    0  501 -0.00000000000E+00  0.00000000000E+00  0.55142214633E+03  0.55142214634E+03  0.25500000000E-02 0. -1.
          2   -1    0    0  501    0  0.00000000000E+00 -0.00000000000E+00 -0.66197182483E+02  0.66197182532E+02  0.25500000000E-02 0.  1.
    5000001    1    1    2    0    0 -0.33588166547E+02  0.13667655516E+03  0.28103030974E+03  0.33899215426E+03  0.12700000000E+03 0.  0.
   -5000001    1    1    2    0    0  0.33588166547E+02 -0.13667655516E+03  0.20419465411E+03  0.27862717461E+03  0.12700000000E+03 0.  0.
<mgrwt>
<rscale>  0 0.38211303E+03</rscale>
<asrwt>0</asrwt>
<pdfrwt beam="1">  1        2 0.94567402E-02 0.38211303E+03</pdfrwt>
<pdfrwt beam="2">  1       -2 0.78774593E-01 0.38211303E+03</pdfrwt>
<totfact> 0.10206230E+03</totfact>
</mgrwt>
</event>
<event>
 4    1  0.4895160E-005  0.2970319E+03  0.7818608E-02  0.1086734E+00
         -2   -1    0    0    0  501 -0.00000000000E+00  0.00000000000E+00  0.97403555995E+01  0.97403559332E+01  0.25500000000E-02 0. -1.
          2   -1    0    0  501    0  0.00000000000E+00 -0.00000000000E+00 -0.22644951992E+04  0.22644951992E+04  0.25500000000E-02 0.  1.
    5000001    1    1    2    0    0 -0.32391892570E+02 -0.56284133677E+02 -0.81068449512E+03  0.82313758815E+03  0.12700000000E+03 0.  0.
   -5000001    1    1    2    0    0  0.32391892570E+02  0.56284133677E+02 -0.14440703485E+04  0.14510979670E+04  0.12700000000E+03 0.  0.
<mgrwt>
<rscale>  0 0.29703191E+03</rscale>
<asrwt>0</asrwt>
<pdfrwt beam="1">  1        2 0.32349898E+00 0.29703191E+03</pdfrwt>
<pdfrwt beam="2">  1       -2 0.13914808E-02 0.29703191E+03</pdfrwt>
<totfact> 0.86436301E+03</totfact>
</mgrwt>
</event>
<event>
 4    1  0.4895160E-005  0.3530866E+03  0.7818608E-02  0.1061355E+00
          2   -1    0    0  501    0  0.00000000000E+00  0.00000000000E+00  0.34742605350E+03  0.34742605351E+03  0.25500000000E-02 0.  1.
         -2   -1    0    0    0  501 -0.00000000000E+00 -0.00000000000E+00 -0.89709824862E+02  0.89709824898E+02  0.25500000000E-02 0. -1.
    5000001    1    1    2    0    0  0.10417495831E+03  0.24460052288E+02  0.54701440639E+02  0.17484840207E+03  0.12700000000E+03 0.  0.
   -5000001    1    1    2    0    0 -0.10417495831E+03 -0.24460052288E+02  0.20301478800E+03  0.26228747634E+03  0.12700000000E+03 0.  0.
<mgrwt>
<rscale>  0 0.35308656E+03</rscale>
<asrwt>0</asrwt>
<pdfrwt beam="1">  1        2 0.49632293E-01 0.35308656E+03</pdfrwt>
<pdfrwt beam="2">  1       -2 0.12815689E-01 0.35308656E+03</pdfrwt>
<totfact> 0.45031919E+03</totfact>
</mgrwt>
</event>
<event>
 4    1  0.4895160E-005  0.3659972E+03  0.7818608E-02  0.1056234E+00
         -2   -1    0    0    0  501 -0.00000000000E+00  0.00000000000E+00  0.14162082730E+04  0.14162082731E+04  0.25500000000E-02 0. -1.
          2   -1    0    0  501    0  0.00000000000E+00 -0.00000000000E+00 -0.23646590123E+02  0.23646590260E+02  0.25500000000E-02 0.  1.
    5000001    1    1    2    0    0 -0.13131984036E+03  0.98282323720E+01  0.71297258660E+03  0.73607092313E+03  0.12700000000E+03 0.  0.
   -5000001    1    1    2    0    0  0.13131984036E+03 -0.98282323720E+01  0.67958909632E+03  0.70378394018E+03  0.12700000000E+03 0.  0.
<mgrwt>
<rscale>  0 0.36599725E+03</rscale>
<asrwt>0</asrwt>
<pdfrwt beam="1">  1        2 0.33780838E-02 0.36599725E+03</pdfrwt>
<pdfrwt beam="2">  1       -2 0.20231550E+00 0.36599725E+03</pdfrwt>
<totfact> 0.37240203E+02</totfact>
</mgrwt>
</event>
<event>
 4    1  0.4895160E-005  0.4914298E+03  0.7818608E-02  0.1016040E+00
         -2   -1    0    0    0  501 -0.00000000000E+00  0.00000000000E+00  0.12653653880E+03  0.12653653883E+03  0.25500000000E-02 0. -1.
          2   -1    0    0  501    0  0.00000000000E+00 -0.00000000000E+00 -0.47714124239E+03  0.47714124240E+03  0.25500000000E-02 0.  1.
    5000001    1    1    2    0    0 -0.30843906071E+02  0.16966270222E+03 -0.32327375137E+03  0.38777789699E+03  0.12700000000E+03 0.  0.
   -5000001    1    1    2    0    0  0.30843906071E+02 -0.16966270222E+03 -0.27330952222E+02  0.21589988424E+03  0.12700000000E+03 0.  0.
<mgrwt>
<rscale>  0 0.49142976E+03</rscale>
<asrwt>0</asrwt>
<pdfrwt beam="1">  1        2 0.68163034E-01 0.49142976E+03</pdfrwt>
<pdfrwt beam="2">  1       -2 0.18076649E-01 0.49142976E+03</pdfrwt>
<totfact> 0.17951295E+03</totfact>
</mgrwt>
</event>
<event>
 4    1  0.4895160E-005  0.3723516E+03  0.7818608E-02  0.1053797E+00
         -2   -1    0    0    0  501 -0.00000000000E+00  0.00000000000E+00  0.38623782999E+02  0.38623783083E+02  0.25500000000E-02 0. -1.
          2   -1    0    0  501    0  0.00000000000E+00 -0.00000000000E+00 -0.89741159406E+03  0.89741159406E+03  0.25500000000E-02 0.  1.
    5000001    1    1    2    0    0  0.11293775621E+03 -0.75458747856E+02 -0.45236108310E+03  0.48908946923E+03  0.12700000000E+03 0.  0.
   -5000001    1    1    2    0    0 -0.11293775621E+03  0.75458747856E+02 -0.40642672796E+03  0.44694590792E+03  0.12700000000E+03 0.  0.
<mgrwt>
<rscale>  0 0.37235161E+03</rscale>
<asrwt>0</asrwt>
<pdfrwt beam="1">  1        2 0.12820164E+00 0.37235161E+03</pdfrwt>
<pdfrwt beam="2">  1       -2 0.55176839E-02 0.37235161E+03</pdfrwt>
<totfact> 0.57002685E+03</totfact>
</mgrwt>
</event>
<event>
 4    1  0.4895160E-005  0.3000411E+03  0.7818608E-02  0.1085220E+00
         -2   -1    0    0    0  501 -0.00000000000E+00  0.00000000000E+00  0.66160399220E+02  0.66160399269E+02  0.25500000000E-02 0. -1.
          2   -1    0    0  501    0  0.00000000000E+00 -0.00000000000E+00 -0.34017581477E+03  0.34017581478E+03  0.25500000000E-02 0.  1.
    5000001    1    1    2    0    0 -0.61376276525E+02 -0.32082659463E+02 -0.83162577549E+02  0.16685730030E+03  0.12700000000E+03 0.  0.
   -5000001    1    1    2    0    0  0.61376276525E+02  0.32082659463E+02 -0.19085283801E+03  0.23947891375E+03  0.12700000000E+03 0.  0.
<mgrwt>
<rscale>  0 0.30004112E+03</rscale>
<asrwt>0</asrwt>
<pdfrwt beam="1">  1        2 0.48596544E-01 0.30004112E+03</pdfrwt>
<pdfrwt beam="2">  1       -2 0.94514858E-02 0.30004112E+03</pdfrwt>
<totfact> 0.74840378E+03</totfact>
</mgrwt>
</event>
<event>
 4    1  0.4895160E-005  0.5157940E+03  0.7818608E-02  0.1009737E+00
         -2   -1    0    0    0  501 -0.00000000000E+00  0.00000000000E+00  0.16597019306E+02  0.16597019502E+02  0.25500000000E-02 0. -1.
          2   -1    0    0  501    0  0.00000000000E+00 -0.00000000000E+00 -0.40073974959E+04  0.40073974959E+04  0.25500000000E-02 0.  1.
    5000001    1    1    2    0    0 -0.41408563499E+02  0.85602922189E+02 -0.40918246894E+03  0.43886424132E+03  0.12700000000E+03 0.  0.
   -5000001    1    1    2    0    0  0.41408563499E+02 -0.85602922189E+02 -0.35816180076E+04  0.35851302741E+04  0.12700000000E+03 0.  0.
<mgrwt>
<rscale>  0 0.51579397E+03</rscale>
<asrwt>0</asrwt>
<pdfrwt beam="1">  1        2 0.57248474E+00 0.51579397E+03</pdfrwt>
<pdfrwt beam="2">  1       -2 0.23710053E-02 0.51579397E+03</pdfrwt>
<totfact> 0.40908367E+02</totfact>
</mgrwt>
</event>
<event>
 4    1  0.4895160E-005  0.3129092E+03  0.7818608E-02  0.1078960E+00
         -2   -1    0    0    0  501 -0.00000000000E+00  0.00000000000E+00  0.47716105993E+02  0.47716106061E+02  0.25500000000E-02 0. -1.
          2   -1    0    0  501    0  0.00000000000E+00 -0.00000000000E+00 -0.51299336906E+03  0.51299336907E+03  0.25500000000E-02 0.  1.
    5000001    1    1    2    0    0 -0.13990944075E+02  0.85124446254E+02 -0.17866845450E+03  0.23557023263E+03  0.12700000000E+03 0.  0.
   -5000001    1    1    2    0    0  0.13990944075E+02 -0.85124446254E+02 -0.28660880857E+03  0.32513924250E+03  0.12700000000E+03 0.  0.
<mgrwt>
<rscale>  0 0.31290923E+03</rscale>
<asrwt>0</asrwt>
<pdfrwt beam="1">  1        2 0.73284764E-01 0.31290923E+03</pdfrwt>
<pdfrwt beam="2">  1       -2 0.68165869E-02 0.31290923E+03</pdfrwt>
<totfact> 0.79878628E+03</totfact>
</mgrwt>
</event>
<event>
 4    1  0.4895160E-005  0.4511224E+03  0.7818608E-02  0.1027388E+00
         -2   -1    0    0    0  501 -0.00000000000E+00  0.00000000000E+00  0.10564606220E+03  0.10564606223E+03  0.25500000000E-02 0. -1.
          2   -1    0    0  501    0  0.00000000000E+00 -0.00000000000E+00 -0.48158775841E+03  0.48158775842E+03  0.25500000000E-02 0.  1.
    5000001    1    1    2    0    0 -0.10997316744E+03 -0.15029842463E+03 -0.19847662511E+03  0.30034261223E+03  0.12700000000E+03 0.  0.
   -5000001    1    1    2    0    0  0.10997316744E+03  0.15029842463E+03 -0.17746507111E+03  0.28689120842E+03  0.12700000000E+03 0.  0.
<mgrwt>
<rscale>  0 0.45112238E+03</rscale>
<asrwt>0</asrwt>
<pdfrwt beam="1">  1        2 0.68798250E-01 0.45112238E+03</pdfrwt>
<pdfrwt beam="2">  1       -2 0.15092295E-01 0.45112238E+03</pdfrwt>
<totfact> 0.24092557E+03</totfact>
</mgrwt>
</event>
<event>
 4    1  0.4895160E-005  0.5475887E+03  0.7818608E-02  0.1002054E+00
          2   -1    0    0  501    0  0.00000000000E+00  0.00000000000E+00  0.92783728869E+03  0.92783728869E+03  0.25500000000E-02 0.  1.
         -2   -1    0    0    0  501 -0.00000000000E+00 -0.00000000000E+00 -0.80793631318E+02  0.80793631358E+02  0.25500000000E-02 0. -1.
    5000001    1    1    2    0    0  0.68580994435E+02 -0.21007997339E+03  0.60769283043E+03  0.65898142931E+03  0.12700000000E+03 0.  0.
   -5000001    1    1    2    0    0 -0.68580994435E+02  0.21007997339E+03  0.23935082694E+03  0.34964949074E+03  0.12700000000E+03 0.  0.
<mgrwt>
<rscale>  0 0.54758869E+03</rscale>
<asrwt>0</asrwt>
<pdfrwt beam="1">  1        2 0.13254818E+00 0.54758869E+03</pdfrwt>
<pdfrwt beam="2">  1       -2 0.11541948E-01 0.54758869E+03</pdfrwt>
<totfact> 0.16971629E+03</totfact>
</mgrwt>
</event>
<event>
 4    1  0.4895160E-005  0.7412980E+03  0.7818608E-02  0.9649102E-01
         -2   -1    0    0    0  501 -0.00000000000E+00  0.00000000000E+00  0.81979466763E+02  0.81979466803E+02  0.25500000000E-02 0. -1.
          2   -1    0    0  501    0  0.00000000000E+00 -0.00000000000E+00 -0.16757938799E+04  0.16757938799E+04  0.25500000000E-02 0.  1.
    5000001    1    1    2    0    0  0.13890721815E+03 -0.24565637795E+03 -0.12805958073E+04  0.13174584976E+04  0.12700000000E+03 0.  0.
   -5000001    1    1    2    0    0 -0.13890721815E+03  0.24565637795E+03 -0.31321860585E+03  0.44031484910E+03  0.12700000000E+03 0.  0.
<mgrwt>
<rscale>  0 0.74129802E+03</rscale>
<asrwt>0</asrwt>
<pdfrwt beam="1">  1        2 0.23939911E+00 0.74129802E+03</pdfrwt>
<pdfrwt beam="2">  1       -2 0.11711353E-01 0.74129802E+03</pdfrwt>
<totfact> 0.63401062E+02</totfact>
</mgrwt>
</event>
<event>
 4    1  0.4895160E-005  0.3202569E+03  0.7818608E-02  0.1075531E+00
         -2   -1    0    0    0  501 -0.00000000000E+00  0.00000000000E+00  0.34336962107E+03  0.34336962108E+03  0.25500000000E-02 0. -1.
          2   -1    0    0  501    0  0.00000000000E+00 -0.00000000000E+00 -0.74674984616E+02  0.74674984660E+02  0.25500000000E-02 0.  1.
    5000001    1    1    2    0    0  0.91479664830E+00 -0.74968222366E+02  0.52922363383E+02  0.15668710146E+03  0.12700000000E+03 0.  0.
   -5000001    1    1    2    0    0 -0.91479664830E+00  0.74968222366E+02  0.21577227308E+03  0.26135750428E+03  0.12700000000E+03 0.  0.
<mgrwt>
<rscale>  0 0.32025690E+03</rscale>
<asrwt>0</asrwt>
<pdfrwt beam="1">  1        2 0.10667855E-01 0.32025690E+03</pdfrwt>
<pdfrwt beam="2">  1       -2 0.49052803E-01 0.32025690E+03</pdfrwt>
<totfact> 0.23656036E+03</totfact>
</mgrwt>
</event>
<event>
 4    1  0.4895160E-005  0.7392696E+03  0.7818608E-02  0.9652337E-01
         -2   -1    0    0    0  501 -0.00000000000E+00  0.00000000000E+00  0.94096552469E+03  0.94096552470E+03  0.25500000000E-02 0. -1.
          2   -1    0    0  501    0  0.00000000000E+00 -0.00000000000E+00 -0.14520178647E+03  0.14520178649E+03  0.25500000000E-02 0.  1.
    5000001    1    1    2    0    0  0.13607730742E+02  0.33519581360E+03  0.52896174172E+03  0.63911730378E+03  0.12700000000E+03 0.  0.
   -5000001    1    1    2    0    0 -0.13607730742E+02 -0.33519581360E+03  0.26680199651E+03  0.44705000741E+03  0.12700000000E+03 0.  0.
<mgrwt>
<rscale>  0 0.73926957E+03</rscale>
<asrwt>0</asrwt>
<pdfrwt beam="1">  1        2 0.20743113E-01 0.73926957E+03</pdfrwt>
<pdfrwt beam="2">  1       -2 0.13442364E+00 0.73926957E+03</pdfrwt>
<totfact> 0.10971017E+02</totfact>
</mgrwt>
</event>
<event>
 4    1  0.4895160E-005  0.4547139E+03  0.7818608E-02  0.1026326E+00
         -2   -1    0    0    0  501 -0.00000000000E+00  0.00000000000E+00  0.42100824275E+02  0.42100824352E+02  0.25500000000E-02 0. -1.
          2   -1    0    0  501    0  0.00000000000E+00 -0.00000000000E+00 -0.12277951719E+04  0.12277951719E+04  0.25500000000E-02 0.  1.
    5000001    1    1    2    0    0  0.37026244518E+02  0.18410092568E+03 -0.64106497443E+03  0.67996867211E+03  0.12700000000E+03 0.  0.
   -5000001    1    1    2    0    0 -0.37026244518E+02 -0.18410092568E+03 -0.54462937324E+03  0.58992732418E+03  0.12700000000E+03 0.  0.
<mgrwt>
<rscale>  0 0.45471393E+03</rscale>
<asrwt>0</asrwt>
<pdfrwt beam="1">  1        2 0.17539929E+00 0.45471393E+03</pdfrwt>
<pdfrwt beam="2">  1       -2 0.60144042E-02 0.45471393E+03</pdfrwt>
<totfact> 0.32009494E+03</totfact>
</mgrwt>
</event>
<event>
 4    1  0.4895160E-005  0.3768371E+03  0.7818608E-02  0.1052109E+00
         -2   -1    0    0    0  501 -0.00000000000E+00  0.00000000000E+00  0.30612608235E+02  0.30612608341E+02  0.25500000000E-02 0. -1.
          2   -1    0    0  501    0  0.00000000000E+00 -0.00000000000E+00 -0.11597036810E+04  0.11597036810E+04  0.25500000000E-02 0.  1.
    5000001    1    1    2    0    0  0.69588968757E+02 -0.90276476811E+02 -0.31224276568E+03  0.35583284215E+03  0.12700000000E+03 0.  0.
   -5000001    1    1    2    0    0 -0.69588968757E+02  0.90276476811E+02 -0.81684830707E+03  0.83448344717E+03  0.12700000000E+03 0.  0.
<mgrwt>
<rscale>  0 0.37683712E+03</rscale>
<asrwt>0</asrwt>
<pdfrwt beam="1">  1        2 0.16567193E+00 0.37683712E+03</pdfrwt>
<pdfrwt beam="2">  1       -2 0.43732305E-02 0.37683712E+03</pdfrwt>
<totfact> 0.56935551E+03</totfact>
</mgrwt>
</event>
<event>
 4    1  0.4895160E-005  0.5756253E+03  0.7818608E-02  0.9957307E-01
         -2   -1    0    0    0  501 -0.00000000000E+00  0.00000000000E+00  0.43685154191E+02  0.43685154265E+02  0.25500000000E-02 0. -1.
          2   -1    0    0  501    0  0.00000000000E+00 -0.00000000000E+00 -0.18962073690E+04  0.18962073690E+04  0.25500000000E-02 0.  1.
    5000001    1    1    2    0    0 -0.18362880466E+03  0.14077011848E+03 -0.13130312327E+04  0.13392967491E+04  0.12700000000E+03 0.  0.
   -5000001    1    1    2    0    0  0.18362880466E+03 -0.14077011848E+03 -0.53949098219E+03  0.60059577423E+03  0.12700000000E+03 0.  0.
<mgrwt>
<rscale>  0 0.57562526E+03</rscale>
<asrwt>0</asrwt>
<pdfrwt beam="1">  1        2 0.27088672E+00 0.57562526E+03</pdfrwt>
<pdfrwt beam="2">  1       -2 0.62407375E-02 0.57562526E+03</pdfrwt>
<totfact> 0.13581236E+03</totfact>
</mgrwt>
</event>
<event>
 4    1  0.4895160E-005  0.3098337E+03  0.7818608E-02  0.1080426E+00
          2   -1    0    0  501    0  0.00000000000E+00  0.00000000000E+00  0.10691410787E+03  0.10691410790E+03  0.25500000000E-02 0.  1.
         -2   -1    0    0    0  501 -0.00000000000E+00 -0.00000000000E+00 -0.22447212982E+03  0.22447212983E+03  0.25500000000E-02 0. -1.
    5000001    1    1    2    0    0  0.10340970803E+02 -0.85837725313E+02 -0.80041149086E+02  0.17323578242E+03  0.12700000000E+03 0.  0.
   -5000001    1    1    2    0    0 -0.10340970803E+02  0.85837725313E+02 -0.37516872862E+02  0.15815045531E+03  0.12700000000E+03 0.  0.
<mgrwt>
<rscale>  0 0.30983375E+03</rscale>
<asrwt>0</asrwt>
<pdfrwt beam="1">  1        2 0.15273444E-01 0.30983375E+03</pdfrwt>
<pdfrwt beam="2">  1       -2 0.32067447E-01 0.30983375E+03</pdfrwt>
<totfact> 0.34499726E+03</totfact>
</mgrwt>
</event>
<event>
 4    1  0.4895160E-005  0.3465737E+03  0.7818608E-02  0.1064030E+00
          2   -1    0    0  501    0  0.00000000000E+00  0.00000000000E+00  0.26980456320E+03  0.26980456322E+03  0.25500000000E-02 0.  1.
         -2   -1    0    0    0  501 -0.00000000000E+00 -0.00000000000E+00 -0.11129659640E+03  0.11129659643E+03  0.25500000000E-02 0. -1.
    5000001    1    1    2    0    0  0.10710354390E+03 -0.36690223952E+02  0.11542459872E+03  0.20559469750E+03  0.12700000000E+03 0.  0.
   -5000001    1    1    2    0    0 -0.10710354390E+03  0.36690223952E+02  0.43083368081E+02  0.17550646215E+03  0.12700000000E+03 0.  0.
<mgrwt>
<rscale>  0 0.34657368E+03</rscale>
<asrwt>0</asrwt>
<pdfrwt beam="1">  1        2 0.38543509E-01 0.34657368E+03</pdfrwt>
<pdfrwt beam="2">  1       -2 0.15899514E-01 0.34657368E+03</pdfrwt>
<totfact> 0.41465315E+03</totfact>
</mgrwt>
</event>
<event>
 4    1  0.4895160E-005  0.2824774E+03  0.7818608E-02  0.1094343E+00
         -2   -1    0    0    0  501 -0.00000000000E+00  0.00000000000E+00  0.25732990477E+02  0.25732990603E+02  0.25500000000E-02 0. -1.
          2   -1    0    0  501    0  0.00000000000E+00 -0.00000000000E+00 -0.77520607767E+03  0.77520607767E+03  0.25500000000E-02 0.  1.
    5000001    1    1    2    0    0  0.39637489542E+02 -0.22361178759E+02 -0.25618327466E+03  0.28953414844E+03  0.12700000000E+03 0.  0.
   -5000001    1    1    2    0    0 -0.39637489542E+02  0.22361178759E+02 -0.49328981253E+03  0.51140491984E+03  0.12700000000E+03 0.  0.
<mgrwt>
<rscale>  0 0.28247740E+03</rscale>
<asrwt>0</asrwt>
<pdfrwt beam="1">  1        2 0.11074371E+00 0.28247740E+03</pdfrwt>
<pdfrwt beam="2">  1       -2 0.36761420E-02 0.28247740E+03</pdfrwt>
<totfact> 0.12618785E+04</totfact>
</mgrwt>
</event>
<event>
 4    1  0.4895160E-005  0.5351723E+03  0.7818608E-02  0.1004985E+00
          2   -1    0    0  501    0  0.00000000000E+00  0.00000000000E+00  0.14949100884E+04  0.14949100884E+04  0.25500000000E-02 0.  1.
         -2   -1    0    0    0  501 -0.00000000000E+00 -0.00000000000E+00 -0.47897423731E+02  0.47897423798E+02  0.25500000000E-02 0. -1.
    5000001    1    1    2    0    0  0.19627556776E+03 -0.11805268352E+03  0.88174179490E+03  0.91981418094E+03  0.12700000000E+03 0.  0.
   -5000001    1    1    2    0    0 -0.19627556776E+03  0.11805268352E+03  0.56527086980E+03  0.62299333129E+03  0.12700000000E+03 0.  0.
<mgrwt>
<rscale>  0 0.53517228E+03</rscale>
<asrwt>0</asrwt>
<pdfrwt beam="1">  1        2 0.21355856E+00 0.53517228E+03</pdfrwt>
<pdfrwt beam="2">  1       -2 0.68424897E-02 0.53517228E+03</pdfrwt>
<totfact> 0.18830981E+03</totfact>
</mgrwt>
</event>
<event>
 4    1  0.4895160E-005  0.2965012E+03  0.7818608E-02  0.1087003E+00
          2   -1    0    0  501    0  0.00000000000E+00  0.00000000000E+00  0.78133498801E+03  0.78133498801E+03  0.25500000000E-02 0.  1.
         -2   -1    0    0    0  501 -0.00000000000E+00 -0.00000000000E+00 -0.28129088574E+02  0.28129088690E+02  0.25500000000E-02 0. -1.
    5000001    1    1    2    0    0 -0.69219733239E+02 -0.32475939236E+02  0.37173224605E+03  0.40019985114E+03  0.12700000000E+03 0.  0.
   -5000001    1    1    2    0    0  0.69219733239E+02  0.32475939236E+02  0.38147365338E+03  0.40926422556E+03  0.12700000000E+03 0.  0.
<mgrwt>
<rscale>  0 0.29650120E+03</rscale>
<asrwt>0</asrwt>
<pdfrwt beam="1">  1        2 0.11161927E+00 0.29650120E+03</pdfrwt>
<pdfrwt beam="2">  1       -2 0.40184416E-02 0.29650120E+03</pdfrwt>
<totfact> 0.10950369E+04</totfact>
</mgrwt>
</event>
<event>
 4    1  0.4895160E-005  0.3138089E+03  0.7818608E-02  0.1078534E+00
          2   -1    0    0  501    0  0.00000000000E+00  0.00000000000E+00  0.11216704424E+04  0.11216704424E+04  0.25500000000E-02 0.  1.
         -2   -1    0    0    0  501 -0.00000000000E+00 -0.00000000000E+00 -0.21948518461E+02  0.21948518609E+02  0.25500000000E-02 0. -1.
    5000001    1    1    2    0    0  0.34980918954E+02  0.18553248428E+02  0.24665651355E+03  0.28024332890E+03  0.12700000000E+03 0.  0.
   -5000001    1    1    2    0    0 -0.34980918954E+02 -0.18553248428E+02  0.85306541043E+03  0.86337563215E+03  0.12700000000E+03 0.  0.
<mgrwt>
<rscale>  0 0.31380889E+03</rscale>
<asrwt>0</asrwt>
<pdfrwt beam="1">  1        2 0.16023868E+00 0.31380889E+03</pdfrwt>
<pdfrwt beam="2">  1       -2 0.31355018E-02 0.31380889E+03</pdfrwt>
<totfact> 0.98444868E+03</totfact>
</mgrwt>
</event>
<event>
 4    1  0.4895160E-005  0.4626226E+03  0.7818608E-02  0.1024023E+00
         -2   -1    0    0    0  501 -0.00000000000E+00  0.00000000000E+00  0.73091546279E+02  0.73091546323E+02  0.25500000000E-02 0. -1.
          2   -1    0    0  501    0  0.00000000000E+00 -0.00000000000E+00 -0.73202597326E+03  0.73202597326E+03  0.25500000000E-02 0.  1.
    5000001    1    1    2    0    0 -0.89594922699E+02  0.13240554457E+03 -0.51865540061E+03  0.55739654017E+03  0.12700000000E+03 0.  0.
   -5000001    1    1    2    0    0  0.89594922699E+02 -0.13240554457E+03 -0.14027902637E+03  0.24772097942E+03  0.12700000000E+03 0.  0.
<mgrwt>
<rscale>  0 0.46262257E+03</rscale>
<asrwt>0</asrwt>
<pdfrwt beam="1">  1        2 0.10457514E+00 0.46262257E+03</pdfrwt>
<pdfrwt beam="2">  1       -2 0.10441650E-01 0.46262257E+03</pdfrwt>
<totfact> 0.27087661E+03</totfact>
</mgrwt>
</event>
<event>
 4    1  0.4895160E-005  0.3641779E+03  0.7818608E-02  0.1056942E+00
          2   -1    0    0  501    0  0.00000000000E+00  0.00000000000E+00  0.13440183524E+04  0.13440183524E+04  0.25500000000E-02 0.  1.
         -2   -1    0    0    0  501 -0.00000000000E+00 -0.00000000000E+00 -0.24669594893E+02  0.24669595025E+02  0.25500000000E-02 0. -1.
    5000001    1    1    2    0    0  0.93785159640E+01  0.10397258196E+03  0.95390671282E+03  0.96796966436E+03  0.12700000000E+03 0.  0.
   -5000001    1    1    2    0    0 -0.93785159640E+01 -0.10397258196E+03  0.36544204474E+03  0.40071828311E+03  0.12700000000E+03 0.  0.
<mgrwt>
<rscale>  0 0.36417791E+03</rscale>
<asrwt>0</asrwt>
<pdfrwt beam="1">  1        2 0.19200260E+00 0.36417791E+03</pdfrwt>
<pdfrwt beam="2">  1       -2 0.35242282E-02 0.36417791E+03</pdfrwt>
<totfact> 0.62735943E+03</totfact>
</mgrwt>
</event>
<event>
 4    1  0.4895160E-005  0.4704488E+03  0.7818608E-02  0.1021794E+00
          2   -1    0    0  501    0  0.00000000000E+00  0.00000000000E+00  0.18420619734E+03  0.18420619736E+03  0.25500000000E-02 0.  1.
         -2   -1    0    0    0  501 -0.00000000000E+00 -0.00000000000E+00 -0.30037277226E+03  0.30037277227E+03  0.25500000000E-02 0. -1.
    5000001    1    1    2    0    0  0.14416561180E+03  0.10503299108E+03  0.30439095016E+02  0.22106829566E+03  0.12700000000E+03 0.  0.
   -5000001    1    1    2    0    0 -0.14416561180E+03 -0.10503299108E+03 -0.14660566993E+03  0.26351067397E+03  0.12700000000E+03 0.  0.
<mgrwt>
<rscale>  0 0.47044883E+03</rscale>
<asrwt>0</asrwt>
<pdfrwt beam="1">  1        2 0.26315171E-01 0.47044883E+03</pdfrwt>
<pdfrwt beam="2">  1       -2 0.42910396E-01 0.47044883E+03</pdfrwt>
<totfact> 0.10643813E+03</totfact>
</mgrwt>
</event>
<event>
 4    1  0.4895160E-005  0.5209166E+03  0.7818608E-02  0.1008459E+00
         -2   -1    0    0    0  501 -0.00000000000E+00  0.00000000000E+00  0.72577607638E+03  0.72577607638E+03  0.25500000000E-02 0. -1.
          2   -1    0    0  501    0  0.00000000000E+00 -0.00000000000E+00 -0.93470319739E+02  0.93470319774E+02  0.25500000000E-02 0.  1.
    5000001    1    1    2    0    0 -0.12144132230E+03 -0.12164660482E+03  0.55028813087E+03  0.59033204064E+03  0.12700000000E+03 0.  0.
   -5000001    1    1    2    0    0  0.12144132230E+03  0.12164660482E+03  0.82017625766E+02  0.22891435552E+03  0.12700000000E+03 0.  0.
<mgrwt>
<rscale>  0 0.52091658E+03</rscale>
<asrwt>0</asrwt>
<pdfrwt beam="1">  1        2 0.13352902E-01 0.52091658E+03</pdfrwt>
<pdfrwt beam="2">  1       -2 0.10368230E+00 0.52091658E+03</pdfrwt>
<totfact> 0.35438385E+02</totfact>
</mgrwt>
</event>
<event>
 4    1  0.4895160E-005  0.3376225E+03  0.7818608E-02  0.1067813E+00
          2   -1    0    0  501    0  0.00000000000E+00  0.00000000000E+00  0.65436330194E+03  0.65436330195E+03  0.25500000000E-02 0.  1.
         -2   -1    0    0    0  501 -0.00000000000E+00 -0.00000000000E+00 -0.43549571694E+02  0.43549571769E+02  0.25500000000E-02 0. -1.
    5000001    1    1    2    0    0 -0.31792777687E+02  0.10262848809E+03  0.36477568521E+03  0.40091606079E+03  0.12700000000E+03 0.  0.
   -5000001    1    1    2    0    0  0.31792777687E+02 -0.10262848809E+03  0.24603804504E+03  0.29699681293E+03  0.12700000000E+03 0.  0.
<mgrwt>
<rscale>  0 0.33762252E+03</rscale>
<asrwt>0</asrwt>
<pdfrwt beam="1">  1        2 0.93480474E-01 0.33762252E+03</pdfrwt>
<pdfrwt beam="2">  1       -2 0.62213673E-02 0.33762252E+03</pdfrwt>
<totfact> 0.69842797E+03</totfact>
</mgrwt>
</event>
<event>
 4    1  0.4895160E-005  0.5285213E+03  0.7818608E-02  0.1006591E+00
          2   -1    0    0  501    0  0.00000000000E+00  0.00000000000E+00  0.45537199246E+04  0.45537199246E+04  0.25500000000E-02 0.  1.
         -2   -1    0    0    0  501 -0.00000000000E+00 -0.00000000000E+00 -0.15335528463E+02  0.15335528675E+02  0.25500000000E-02 0. -1.
    5000001    1    1    2    0    0  0.10640821454E+01 -0.23157570123E+03  0.23446883165E+04  0.23595170564E+04  0.12700000000E+03 0.  0.
   -5000001    1    1    2    0    0 -0.10640821454E+01  0.23157570123E+03  0.21936960796E+04  0.22095383969E+04  0.12700000000E+03 0.  0.
<mgrwt>
<rscale>  0 0.52852134E+03</rscale>
<asrwt>0</asrwt>
<pdfrwt beam="1">  1        2 0.65053212E+00 0.52852134E+03</pdfrwt>
<pdfrwt beam="2">  1       -2 0.21907874E-02 0.52852134E+03</pdfrwt>
<totfact> 0.18549470E+02</totfact>
</mgrwt>
</event>
<event>
 4    1  0.4895160E-005  0.3266144E+03  0.7818608E-02  0.1072645E+00
         -2   -1    0    0    0  501 -0.00000000000E+00  0.00000000000E+00  0.11721443644E+03  0.11721443647E+03  0.25500000000E-02 0. -1.
          2   -1    0    0  501    0  0.00000000000E+00 -0.00000000000E+00 -0.22752516680E+03  0.22752516682E+03  0.25500000000E-02 0.  1.
    5000001    1    1    2    0    0 -0.92744240341E+02  0.37040620339E+02 -0.30028113870E+02  0.16432951437E+03  0.12700000000E+03 0.  0.
   -5000001    1    1    2    0    0  0.92744240341E+02 -0.37040620339E+02 -0.80282616488E+02  0.18041008891E+03  0.12700000000E+03 0.  0.
<mgrwt>
<rscale>  0 0.32661435E+03</rscale>
<asrwt>0</asrwt>
<pdfrwt beam="1">  1        2 0.32503595E-01 0.32661435E+03</pdfrwt>
<pdfrwt beam="2">  1       -2 0.16744920E-01 0.32661435E+03</pdfrwt>
<totfact> 0.45726315E+03</totfact>
</mgrwt>
</event>
<event>
 4    1  0.4895160E-005  0.5191472E+03  0.7818608E-02  0.1008899E+00
          2   -1    0    0  501    0  0.00000000000E+00  0.00000000000E+00  0.94770421074E+02  0.94770421108E+02  0.25500000000E-02 0.  1.
         -2   -1    0    0    0  501 -0.00000000000E+00 -0.00000000000E+00 -0.71096507640E+03  0.71096507640E+03  0.25500000000E-02 0. -1.
    5000001    1    1    2    0    0 -0.14154369805E+03  0.16865463141E+03 -0.22640568445E+03  0.34039320954E+03  0.12700000000E+03 0.  0.
   -5000001    1    1    2    0    0  0.14154369805E+03 -0.16865463141E+03 -0.38978897088E+03  0.46534228797E+03  0.12700000000E+03 0.  0.
<mgrwt>
<rscale>  0 0.51914722E+03</rscale>
<asrwt>0</asrwt>
<pdfrwt beam="1">  1        2 0.13538632E-01 0.51914722E+03</pdfrwt>
<pdfrwt beam="2">  1       -2 0.10156644E+00 0.51914722E+03</pdfrwt>
<totfact> 0.36591785E+02</totfact>
</mgrwt>
</event>
<event>
 4    1  0.4895160E-005  0.4034142E+03  0.7818608E-02  0.1042604E+00
         -2   -1    0    0    0  501 -0.00000000000E+00  0.00000000000E+00  0.10767400562E+03  0.10767400565E+03  0.25500000000E-02 0. -1.
          2   -1    0    0  501    0  0.00000000000E+00 -0.00000000000E+00 -0.37786056704E+03  0.37786056705E+03  0.25500000000E-02 0.  1.
    5000001    1    1    2    0    0 -0.91385986530E+02 -0.10928378209E+03 -0.21367054854E+03  0.28649336271E+03  0.12700000000E+03 0.  0.
   -5000001    1    1    2    0    0  0.91385986530E+02  0.10928378209E+03 -0.56516012880E+02  0.19904120999E+03  0.12700000000E+03 0.  0.
<mgrwt>
<rscale>  0 0.40341423E+03</rscale>
<asrwt>0</asrwt>
<pdfrwt beam="1">  1        2 0.53980080E-01 0.40341423E+03</pdfrwt>
<pdfrwt beam="2">  1       -2 0.15382001E-01 0.40341423E+03</pdfrwt>
<totfact> 0.30470579E+03</totfact>
</mgrwt>
</event>
<event>
 4    1  0.4895160E-005  0.5299788E+03  0.7818608E-02  0.1006237E+00
         -2   -1    0    0    0  501 -0.00000000000E+00  0.00000000000E+00  0.11816110725E+03  0.11816110728E+03  0.25500000000E-02 0. -1.
          2   -1    0    0  501    0  0.00000000000E+00 -0.00000000000E+00 -0.59426823457E+03  0.59426823458E+03  0.25500000000E-02 0.  1.
    5000001    1    1    2    0    0  0.12880213508E+03 -0.17107480811E+03 -0.11607493171E+03  0.27469796094E+03  0.12700000000E+03 0.  0.
   -5000001    1    1    2    0    0 -0.12880213508E+03  0.17107480811E+03 -0.36003219561E+03  0.43773138092E+03  0.12700000000E+03 0.  0.
<mgrwt>
<rscale>  0 0.52997884E+03</rscale>
<asrwt>0</asrwt>
<pdfrwt beam="1">  1        2 0.84895460E-01 0.52997884E+03</pdfrwt>
<pdfrwt beam="2">  1       -2 0.16880159E-01 0.52997884E+03</pdfrwt>
<totfact> 0.15696753E+03</totfact>
</mgrwt>
</event>
<event>
 4    1  0.4895160E-005  0.3038135E+03  0.7818608E-02  0.1083350E+00
          2   -1    0    0  501    0  0.00000000000E+00  0.00000000000E+00  0.47488908584E+02  0.47488908652E+02  0.25500000000E-02 0.  1.
         -2   -1    0    0    0  501 -0.00000000000E+00 -0.00000000000E+00 -0.48591685011E+03  0.48591685012E+03  0.25500000000E-02 0. -1.
    5000001    1    1    2    0    0  0.53742367526E+02 -0.41323051921E+02 -0.30433967296E+03  0.33667116482E+03  0.12700000000E+03 0.  0.
   -5000001    1    1    2    0    0 -0.53742367526E+02  0.41323051921E+02 -0.13408826857E+03  0.19673459395E+03  0.12700000000E+03 0.  0.
<mgrwt>
<rscale>  0 0.30381350E+03</rscale>
<asrwt>0</asrwt>
<pdfrwt beam="1">  1        2 0.67841301E-02 0.30381350E+03</pdfrwt>
<pdfrwt beam="2">  1       -2 0.69416690E-01 0.30381350E+03</pdfrwt>
<totfact> 0.20470623E+03</totfact>
</mgrwt>
</event>
<event>
 4    1  0.4895160E-005  0.3858525E+03  0.7818608E-02  0.1048792E+00
         -2   -1    0    0    0  501 -0.00000000000E+00  0.00000000000E+00  0.45261929585E+02  0.45261929657E+02  0.25500000000E-02 0.  1.
          2   -1    0    0  501    0  0.00000000000E+00 -0.00000000000E+00 -0.82233652792E+03  0.82233652792E+03  0.25500000000E-02 0. -1.
    5000001    1    1    2    0    0  0.32395879802E+02 -0.13801279212E+03 -0.45944655936E+03  0.49730992824E+03  0.12700000000E+03 0.  0.
   -5000001    1    1    2    0    0 -0.32395879802E+02  0.13801279212E+03 -0.31762803897E+03  0.37028852934E+03  0.12700000000E+03 0.  0.
<mgrwt>
<rscale>  0 0.38585250E+03</rscale>
<asrwt>0</asrwt>
<pdfrwt beam="1">  1        2 0.11747664E+00 0.38585250E+03</pdfrwt>
<pdfrwt beam="2">  1       -2 0.64659905E-02 0.38585250E+03</pdfrwt>
<totfact> 0.49946984E+03</totfact>
</mgrwt>
</event>
<event>
 4    1  0.4895160E-005  0.5723881E+03  0.7818608E-02  0.9964408E-01
         -2   -1    0    0    0  501 -0.00000000000E+00  0.00000000000E+00  0.38072160009E+02  0.38072160094E+02  0.25500000000E-02 0. -1.
          2   -1    0    0  501    0  0.00000000000E+00 -0.00000000000E+00 -0.21513631696E+04  0.21513631696E+04  0.25500000000E-02 0.  1.
    5000001    1    1    2    0    0 -0.25415010330E+03 -0.20916602898E+02 -0.95201246923E+03  0.99372356360E+03  0.12700000000E+03 0.  0.
   -5000001    1    1    2    0    0  0.25415010330E+03  0.20916602898E+02 -0.11612785404E+04  0.11957117661E+04  0.12700000000E+03 0.  0.
<mgrwt>
<rscale>  0 0.57238813E+03</rscale>
<asrwt>0</asrwt>
<pdfrwt beam="1">  1        2 0.30733752E+00 0.57238813E+03</pdfrwt>
<pdfrwt beam="2">  1       -2 0.54388814E-02 0.57238813E+03</pdfrwt>
<totfact> 0.12540205E+03</totfact>
</mgrwt>
</event>
<event>
 4    1  0.4895160E-005  0.4396119E+03  0.7818608E-02  0.1030866E+00
         -2   -1    0    0    0  501 -0.00000000000E+00  0.00000000000E+00  0.15081093092E+02  0.15081093308E+02  0.25500000000E-02 0. -1.
          2   -1    0    0  501    0  0.00000000000E+00 -0.00000000000E+00 -0.32036569954E+04  0.32036569954E+04  0.25500000000E-02 0.  1.
    5000001    1    1    2    0    0 -0.26219488101E+02 -0.16993641358E+03 -0.19690456696E+04  0.19806149790E+04  0.12700000000E+03 0.  0.
   -5000001    1    1    2    0    0  0.26219488101E+02  0.16993641358E+03 -0.12195302327E+04  0.12381231097E+04  0.12700000000E+03 0.  0.
<mgrwt>
<rscale>  0 0.43961187E+03</rscale>
<asrwt>0</asrwt>
<pdfrwt beam="1">  1        2 0.45766485E+00 0.43961187E+03</pdfrwt>
<pdfrwt beam="2">  1       -2 0.21544439E-02 0.43961187E+03</pdfrwt>
<totfact> 0.14628084E+03</totfact>
</mgrwt>
</event>
<event>
 4    1  0.4895160E-005  0.4568561E+03  0.7818608E-02  0.1025697E+00
         -2   -1    0    0    0  501 -0.00000000000E+00  0.00000000000E+00  0.35130768550E+02  0.35130768643E+02  0.25500000000E-02 0. -1.
          2   -1    0    0  501    0  0.00000000000E+00 -0.00000000000E+00 -0.14852901438E+04  0.14852901438E+04  0.25500000000E-02 0.  1.
    5000001    1    1    2    0    0  0.50552750695E+02 -0.18292774536E+03 -0.70618207590E+03  0.74218613901E+03  0.12700000000E+03 0.  0.
   -5000001    1    1    2    0    0 -0.50552750695E+02  0.18292774536E+03 -0.74397729933E+03  0.77823477341E+03  0.12700000000E+03 0.  0.
<mgrwt>
<rscale>  0 0.45685615E+03</rscale>
<asrwt>0</asrwt>
<pdfrwt beam="1">  1        2 0.21218427E+00 0.45685615E+03</pdfrwt>
<pdfrwt beam="2">  1       -2 0.50186822E-02 0.45685615E+03</pdfrwt>
<totfact> 0.30912048E+03</totfact>
</mgrwt>
</event>
<event>
 4    1  0.4895160E-005  0.3010553E+03  0.7818608E-02  0.1084714E+00
          2   -1    0    0  501    0  0.00000000000E+00  0.00000000000E+00  0.20837248858E+04  0.20837248858E+04  0.25500000000E-02 0.  1.
         -2   -1    0    0    0  501 -0.00000000000E+00 -0.00000000000E+00 -0.10874067964E+02  0.10874068263E+02  0.25500000000E-02 0. -1.
    5000001    1    1    2    0    0  0.51291397886E+02 -0.53074604573E+02  0.80758261944E+03  0.82083275298E+03  0.12700000000E+03 0.  0.
   -5000001    1    1    2    0    0 -0.51291397886E+02  0.53074604573E+02  0.12652681983E+04  0.12737662010E+04  0.12700000000E+03 0.  0.
<mgrwt>
<rscale>  0 0.30105525E+03</rscale>
<asrwt>0</asrwt>
<pdfrwt beam="1">  1        2 0.29767442E+00 0.30105525E+03</pdfrwt>
<pdfrwt beam="2">  1       -2 0.15534412E-02 0.30105525E+03</pdfrwt>
<totfact> 0.90232268E+03</totfact>
</mgrwt>
</event>
<event>
 4    1  0.4895160E-005  0.5706839E+03  0.7818608E-02  0.9968166E-01
          2   -1    0    0  501    0  0.00000000000E+00  0.00000000000E+00  0.87173200899E+03  0.87173200900E+03  0.25500000000E-02 0.  1.
         -2   -1    0    0    0  501 -0.00000000000E+00 -0.00000000000E+00 -0.93400299926E+02  0.93400299961E+02  0.25500000000E-02 0. -1.
    5000001    1    1    2    0    0 -0.12092936840E+02 -0.25494577925E+03  0.40970116613E+03  0.49912687265E+03  0.12700000000E+03 0.  0.
   -5000001    1    1    2    0    0  0.12092936840E+02  0.25494577925E+03  0.36863054294E+03  0.46600543630E+03  0.12700000000E+03 0.  0.
<mgrwt>
<rscale>  0 0.57068391E+03</rscale>
<asrwt>0</asrwt>
<pdfrwt beam="1">  1        2 0.12453315E+00 0.57068391E+03</pdfrwt>
<pdfrwt beam="2">  1       -2 0.13342900E-01 0.57068391E+03</pdfrwt>
<totfact> 0.14518182E+03</totfact>
</mgrwt>
</event>
<event>
 4    1  0.4895160E-005  0.3516884E+03  0.7818608E-02  0.1061924E+00
         -2   -1    0    0    0  501 -0.00000000000E+00  0.00000000000E+00  0.66147392431E+02  0.66147392480E+02  0.25500000000E-02 0. -1.
          2   -1    0    0  501    0  0.00000000000E+00 -0.00000000000E+00 -0.46745879985E+03  0.46745879986E+03  0.25500000000E-02 0.  1.
    5000001    1    1    2    0    0 -0.73608165827E+02 -0.91819595197E+02 -0.24725294976E+03  0.30184767898E+03  0.12700000000E+03 0.  0.
   -5000001    1    1    2    0    0  0.73608165827E+02  0.91819595197E+02 -0.15405845765E+03  0.23175851336E+03  0.12700000000E+03 0.  0.
<mgrwt>
<rscale>  0 0.35168839E+03</rscale>
<asrwt>0</asrwt>
<pdfrwt beam="1">  1        2 0.66779827E-01 0.35168839E+03</pdfrwt>
<pdfrwt beam="2">  1       -2 0.94496278E-02 0.35168839E+03</pdfrwt>
<totfact> 0.53205274E+03</totfact>
</mgrwt>
</event>
<event>
 4    1  0.4895160E-005  0.7834194E+03  0.7818608E-02  0.9584332E-01
          2   -1    0    0  501    0  0.00000000000E+00  0.00000000000E+00  0.36335595763E+03  0.36335595764E+03  0.25500000000E-02 0.  1.
         -2   -1    0    0    0  501 -0.00000000000E+00 -0.00000000000E+00 -0.42227593495E+03  0.42227593495E+03  0.25500000000E-02 0. -1.
    5000001    1    1    2    0    0 -0.33828071289E+03  0.14563709602E+03  0.11440885048E+02  0.38974850648E+03  0.12700000000E+03 0.  0.
   -5000001    1    1    2    0    0  0.33828071289E+03 -0.14563709602E+03 -0.70360862364E+02  0.39588338612E+03  0.12700000000E+03 0.  0.
<mgrwt>
<rscale>  0 0.78341937E+03</rscale>
<asrwt>0</asrwt>
<pdfrwt beam="1">  1        2 0.51907994E-01 0.78341937E+03</pdfrwt>
<pdfrwt beam="2">  1       -2 0.60325134E-01 0.78341937E+03</pdfrwt>
<totfact> 0.24844208E+02</totfact>
</mgrwt>
</event>
<event>
 4    1  0.4895160E-005  0.3204754E+03  0.7818608E-02  0.1075431E+00
          2   -1    0    0  501    0  0.00000000000E+00  0.00000000000E+00  0.21782268649E+04  0.21782268649E+04  0.25500000000E-02 0.  1.
         -2   -1    0    0    0  501 -0.00000000000E+00 -0.00000000000E+00 -0.11787622996E+02  0.11787623271E+02  0.25500000000E-02 0. -1.
    5000001    1    1    2    0    0  0.47235303068E+02  0.84851402924E+02  0.10095610110E+04  0.10221415603E+04  0.12700000000E+03 0.  0.
   -5000001    1    1    2    0    0 -0.47235303068E+02 -0.84851402924E+02  0.11568782309E+04  0.11678729279E+04  0.12700000000E+03 0.  0.
<mgrwt>
<rscale>  0 0.32047538E+03</rscale>
<asrwt>0</asrwt>
<pdfrwt beam="1">  1        2 0.31117548E+00 0.32047538E+03</pdfrwt>
<pdfrwt beam="2">  1       -2 0.16839450E-02 0.32047538E+03</pdfrwt>
<totfact> 0.72056755E+03</totfact>
</mgrwt>
</event>
<event>
 4    1  0.4895160E-005  0.4848478E+03  0.7818608E-02  0.1017811E+00
          2   -1    0    0  501    0  0.00000000000E+00  0.00000000000E+00  0.15795561741E+04  0.15795561741E+04  0.25500000000E-02 0.  1.
         -2   -1    0    0    0  501 -0.00000000000E+00 -0.00000000000E+00 -0.37206247460E+02  0.37206247547E+02  0.25500000000E-02 0. -1.
    5000001    1    1    2    0    0  0.44229212350E+02 -0.20096710890E+03  0.82857967103E+03  0.86314383119E+03  0.12700000000E+03 0.  0.
   -5000001    1    1    2    0    0 -0.44229212350E+02  0.20096710890E+03  0.71377025556E+03  0.75361859041E+03  0.12700000000E+03 0.  0.
<mgrwt>
<rscale>  0 0.48484784E+03</rscale>
<asrwt>0</asrwt>
<pdfrwt beam="1">  1        2 0.22565089E+00 0.48484784E+03</pdfrwt>
<pdfrwt beam="2">  1       -2 0.53151781E-02 0.48484784E+03</pdfrwt>
<totfact> 0.25292217E+03</totfact>
</mgrwt>
</event>
<event>
 4    1  0.4895160E-005  0.4458803E+03  0.7818608E-02  0.1028958E+00
          2   -1    0    0  501    0  0.00000000000E+00  0.00000000000E+00  0.75882874668E+02  0.75882874711E+02  0.25500000000E-02 0.  1.
         -2   -1    0    0    0  501 -0.00000000000E+00 -0.00000000000E+00 -0.65498714607E+03  0.65498714607E+03  0.25500000000E-02 0. -1.
    5000001    1    1    2    0    0  0.14813584995E+03 -0.92404043026E+02 -0.19842636983E+03  0.29323158331E+03  0.12700000000E+03 0.  0.
   -5000001    1    1    2    0    0 -0.14813584995E+03  0.92404043026E+02 -0.38067790157E+03  0.43763843747E+03  0.12700000000E+03 0.  0.
<mgrwt>
<rscale>  0 0.44588029E+03</rscale>
<asrwt>0</asrwt>
<pdfrwt beam="1">  1        2 0.10840411E-01 0.44588029E+03</pdfrwt>
<pdfrwt beam="2">  1       -2 0.93569589E-01 0.44588029E+03</pdfrwt>
<totfact> 0.58346220E+02</totfact>
</mgrwt>
</event>
<event>
 4    1  0.4895160E-005  0.2971378E+03  0.7818608E-02  0.1086680E+00
          2   -1    0    0  501    0  0.00000000000E+00  0.00000000000E+00  0.51388722452E+03  0.51388722452E+03  0.25500000000E-02 0. -1.
         -2   -1    0    0    0  501 -0.00000000000E+00 -0.00000000000E+00 -0.42952459504E+02  0.42952459580E+02  0.25500000000E-02 0.  1.
    5000001    1    1    2    0    0  0.21091726687E+02 -0.63208215256E+02  0.30813411646E+03  0.33987611440E+03  0.12700000000E+03 0.  0.
   -5000001    1    1    2    0    0 -0.21091726687E+02  0.63208215256E+02  0.16280064855E+03  0.21696356970E+03  0.12700000000E+03 0.  0.
<mgrwt>
<rscale>  0 0.29713781E+03</rscale>
<asrwt>0</asrwt>
<pdfrwt beam="1">  1        2 0.73412454E-01 0.29713781E+03</pdfrwt>
<pdfrwt beam="2">  1       -2 0.61360662E-02 0.29713781E+03</pdfrwt>
<totfact> 0.93624773E+03</totfact>
</mgrwt>
</event>
<event>
 4    1  0.4895160E-005  0.3578294E+03  0.7818608E-02  0.1059447E+00
         -2   -1    0    0    0  501 -0.00000000000E+00  0.00000000000E+00  0.20640930256E+02  0.20640930413E+02  0.25500000000E-02 0. -1.
          2   -1    0    0  501    0  0.00000000000E+00 -0.00000000000E+00 -0.15508253725E+04  0.15508253725E+04  0.25500000000E-02 0.  1.
    5000001    1    1    2    0    0 -0.67150316931E+02 -0.68453523715E+02 -0.40598338044E+03  0.43605797226E+03  0.12700000000E+03 0.  0.
   -5000001    1    1    2    0    0  0.67150316931E+02  0.68453523715E+02 -0.11242010618E+04  0.11354083306E+04  0.12700000000E+03 0.  0.
<mgrwt>
<rscale>  0 0.35782945E+03</rscale>
<asrwt>0</asrwt>
<pdfrwt beam="1">  1        2 0.22154641E+00 0.35782945E+03</pdfrwt>
<pdfrwt beam="2">  1       -2 0.29487053E-02 0.35782945E+03</pdfrwt>
<totfact> 0.64145461E+03</totfact>
</mgrwt>
</event>
<event>
 4    1  0.4895160E-005  0.3660127E+03  0.7818608E-02  0.1056228E+00
         -2   -1    0    0    0  501 -0.00000000000E+00  0.00000000000E+00  0.11251888696E+03  0.11251888699E+03  0.25500000000E-02 0. -1.
          2   -1    0    0  501    0  0.00000000000E+00 -0.00000000000E+00 -0.29765062138E+03  0.29765062139E+03  0.25500000000E-02 0.  1.
    5000001    1    1    2    0    0  0.49585591570E+02  0.11823191310E+03 -0.58486518633E+02  0.18970289673E+03  0.12700000000E+03 0.  0.
   -5000001    1    1    2    0    0 -0.49585591570E+02 -0.11823191310E+03 -0.12664521579E+03  0.22046661164E+03  0.12700000000E+03 0.  0.
<mgrwt>
<rscale>  0 0.36601266E+03</rscale>
<asrwt>0</asrwt>
<pdfrwt beam="1">  1        2 0.42521517E-01 0.36601266E+03</pdfrwt>
<pdfrwt beam="2">  1       -2 0.16074127E-01 0.36601266E+03</pdfrwt>
<totfact> 0.36635893E+03</totfact>
</mgrwt>
</event>
<event>
 4    1  0.4895160E-005  0.3880207E+03  0.7818608E-02  0.1048008E+00
         -2   -1    0    0    0  501 -0.00000000000E+00  0.00000000000E+00  0.34296671831E+02  0.34296671926E+02  0.25500000000E-02 0. -1.
          2   -1    0    0  501    0  0.00000000000E+00 -0.00000000000E+00 -0.10974828985E+04  0.10974828985E+04  0.25500000000E-02 0.  1.
    5000001    1    1    2    0    0  0.13893433063E+02 -0.13338226557E+03 -0.35836465779E+03  0.40316012229E+03  0.12700000000E+03 0.  0.
   -5000001    1    1    2    0    0 -0.13893433063E+02  0.13338226557E+03 -0.70482156888E+03  0.72861944815E+03  0.12700000000E+03 0.  0.
<mgrwt>
<rscale>  0 0.38802067E+03</rscale>
<asrwt>0</asrwt>
<pdfrwt beam="1">  1        2 0.15678325E+00 0.38802067E+03</pdfrwt>
<pdfrwt beam="2">  1       -2 0.48995252E-02 0.38802067E+03</pdfrwt>
<totfact> 0.51914145E+03</totfact>
</mgrwt>
</event>
<event>
 4    1  0.4895160E-005  0.2758163E+03  0.7818608E-02  0.1097996E+00
         -2   -1    0    0    0  501 -0.00000000000E+00  0.00000000000E+00  0.19397162830E+02  0.19397162997E+02  0.25500000000E-02 0. -1.
          2   -1    0    0  501    0  0.00000000000E+00 -0.00000000000E+00 -0.98048673642E+03  0.98048673642E+03  0.25500000000E-02 0.  1.
    5000001    1    1    2    0    0  0.48617686236E+02  0.22426433031E+02 -0.49794438736E+03  0.51666646612E+03  0.12700000000E+03 0.  0.
   -5000001    1    1    2    0    0 -0.48617686236E+02 -0.22426433031E+02 -0.46314518623E+03  0.48321743330E+03  0.12700000000E+03 0.  0.
<mgrwt>
<rscale>  0 0.27581632E+03</rscale>
<asrwt>0</asrwt>
<pdfrwt beam="1">  1        2 0.14006950E+00 0.27581632E+03</pdfrwt>
<pdfrwt beam="2">  1       -2 0.27710239E-02 0.27581632E+03</pdfrwt>
<totfact> 0.14222449E+04</totfact>
</mgrwt>
</event>
<event>
 4    1  0.4895160E-005  0.3403947E+03  0.7818608E-02  0.1066628E+00
          2   -1    0    0  501    0  0.00000000000E+00  0.00000000000E+00  0.13480342716E+03  0.13480342718E+03  0.25500000000E-02 0.  1.
         -2   -1    0    0    0  501 -0.00000000000E+00 -0.00000000000E+00 -0.21488423312E+03  0.21488423313E+03  0.25500000000E-02 0. -1.
    5000001    1    1    2    0    0  0.45172623067E+02  0.34240204677E+02 -0.14082678482E+03  0.19792458365E+03  0.12700000000E+03 0.  0.
   -5000001    1    1    2    0    0 -0.45172623067E+02 -0.34240204677E+02  0.60745978861E+02  0.15176307667E+03  0.12700000000E+03 0.  0.
<mgrwt>
<rscale>  0 0.34039466E+03</rscale>
<asrwt>0</asrwt>
<pdfrwt beam="1">  1        2 0.19257633E-01 0.34039466E+03</pdfrwt>
<pdfrwt beam="2">  1       -2 0.30697747E-01 0.34039466E+03</pdfrwt>
<totfact> 0.28552969E+03</totfact>
</mgrwt>
</event>
<event>
 4    1  0.4895160E-005  0.3613490E+03  0.7818608E-02  0.1058051E+00
         -2   -1    0    0    0  501 -0.00000000000E+00  0.00000000000E+00  0.13770735783E+04  0.13770735783E+04  0.25500000000E-02 0. -1.
          2   -1    0    0  501    0  0.00000000000E+00 -0.00000000000E+00 -0.23704813400E+02  0.23704813537E+02  0.25500000000E-02 0.  1.
    5000001    1    1    2    0    0 -0.10453537375E+03  0.71381470233E+02  0.59075889376E+03  0.61737187271E+03  0.12700000000E+03 0.  0.
   -5000001    1    1    2    0    0  0.10453537375E+03 -0.71381470233E+02  0.76260987118E+03  0.78340651917E+03  0.12700000000E+03 0.  0.
<mgrwt>
<rscale>  0 0.36134899E+03</rscale>
<asrwt>0</asrwt>
<pdfrwt beam="1">  1        2 0.33864019E-02 0.36134899E+03</pdfrwt>
<pdfrwt beam="2">  1       -2 0.19672480E+00 0.36134899E+03</pdfrwt>
<totfact> 0.40297389E+02</totfact>
</mgrwt>
</event>
<event>
 4    1  0.4895160E-005  0.3122043E+03  0.7818608E-02  0.1079294E+00
         -2   -1    0    0    0  501 -0.00000000000E+00  0.00000000000E+00  0.73520735263E+03  0.73520735264E+03  0.25500000000E-02 0. -1.
          2   -1    0    0  501    0  0.00000000000E+00 -0.00000000000E+00 -0.33144232258E+02  0.33144232356E+02  0.25500000000E-02 0.  1.
    5000001    1    1    2    0    0  0.46252580625E+02  0.77196515412E+02  0.38018025447E+03  0.41080972371E+03  0.12700000000E+03 0.  0.
   -5000001    1    1    2    0    0 -0.46252580625E+02 -0.77196515412E+02  0.32188286591E+03  0.35754186128E+03  0.12700000000E+03 0.  0.
<mgrwt>
<rscale>  0 0.31220431E+03</rscale>
<asrwt>0</asrwt>
<pdfrwt beam="1">  1        2 0.47348904E-02 0.31220431E+03</pdfrwt>
<pdfrwt beam="2">  1       -2 0.10502962E+00 0.31220431E+03</pdfrwt>
<totfact> 0.12968470E+03</totfact>
</mgrwt>
</event>
<event>
 4    1  0.4895160E-005  0.6290827E+03  0.7818608E-02  0.9846840E-01
          2   -1    0    0  501    0  0.00000000000E+00  0.00000000000E+00  0.10866711244E+03  0.10866711247E+03  0.25500000000E-02 0.  1.
         -2   -1    0    0    0  501 -0.00000000000E+00 -0.00000000000E+00 -0.91045272958E+03  0.91045272959E+03  0.25500000000E-02 0. -1.
    5000001    1    1    2    0    0 -0.24522994640E+03  0.14212949990E+03 -0.48138539085E+03  0.57288691369E+03  0.12700000000E+03 0.  0.
   -5000001    1    1    2    0    0  0.24522994640E+03 -0.14212949990E+03 -0.32040022629E+03  0.44623292837E+03  0.12700000000E+03 0.  0.
<mgrwt>
<rscale>  0 0.62908273E+03</rscale>
<asrwt>0</asrwt>
<pdfrwt beam="1">  1        2 0.15523874E-01 0.62908273E+03</pdfrwt>
<pdfrwt beam="2">  1       -2 0.13006467E+00 0.62908273E+03</pdfrwt>
<totfact> 0.16908708E+02</totfact>
</mgrwt>
</event>
<event>
 4    1  0.4895160E-005  0.7221904E+03  0.7818608E-02  0.9680019E-01
          2   -1    0    0  501    0  0.00000000000E+00  0.00000000000E+00  0.43211014463E+03  0.43211014464E+03  0.25500000000E-02 0.  1.
         -2   -1    0    0    0  501 -0.00000000000E+00 -0.00000000000E+00 -0.30175116666E+03  0.30175116667E+03  0.25500000000E-02 0. -1.
    5000001    1    1    2    0    0  0.31321354106E+03 -0.12222770756E+03  0.10064924557E+03  0.37323130286E+03  0.12700000000E+03 0.  0.
   -5000001    1    1    2    0    0 -0.31321354106E+03  0.12222770756E+03  0.29709732401E+02  0.36063000846E+03  0.12700000000E+03 0.  0.
<mgrwt>
<rscale>  0 0.72219039E+03</rscale>
<asrwt>0</asrwt>
<pdfrwt beam="1">  1        2 0.61730020E-01 0.72219039E+03</pdfrwt>
<pdfrwt beam="2">  1       -2 0.43107310E-01 0.72219039E+03</pdfrwt>
<totfact> 0.40732928E+02</totfact>
</mgrwt>
</event>
<event>
 4    1  0.4895160E-005  0.4646176E+03  0.7818608E-02  0.1023450E+00
          2   -1    0    0  501    0  0.00000000000E+00  0.00000000000E+00  0.60432090915E+03  0.60432090916E+03  0.25500000000E-02 0. -1.
         -2   -1    0    0    0  501 -0.00000000000E+00 -0.00000000000E+00 -0.89302529228E+02  0.89302529265E+02  0.25500000000E-02 0.  1.
    5000001    1    1    2    0    0  0.19197447660E+03 -0.29059436890E+02  0.27515659582E+03  0.35991499380E+03  0.12700000000E+03 0.  0.
   -5000001    1    1    2    0    0 -0.19197447660E+03  0.29059436890E+02  0.23986178410E+03  0.33370844462E+03  0.12700000000E+03 0.  0.
<mgrwt>
<rscale>  0 0.46461763E+03</rscale>
<asrwt>0</asrwt>
<pdfrwt beam="1">  1        2 0.86331562E-01 0.46461763E+03</pdfrwt>
<pdfrwt beam="2">  1       -2 0.12757504E-01 0.46461763E+03</pdfrwt>
<totfact> 0.24575609E+03</totfact>
</mgrwt>
</event>
<event>
 4    1  0.4895160E-005  0.5367869E+03  0.7818608E-02  0.1004599E+00
         -2   -1    0    0    0  501 -0.00000000000E+00  0.00000000000E+00  0.56850432353E+02  0.56850432410E+02  0.25500000000E-02 0. -1.
          2   -1    0    0  501    0  0.00000000000E+00 -0.00000000000E+00 -0.12670975290E+04  0.12670975290E+04  0.25500000000E-02 0.  1.
    5000001    1    1    2    0    0  0.14836985181E+03  0.15869589714E+03 -0.83528323715E+03  0.87236751829E+03  0.12700000000E+03 0.  0.
   -5000001    1    1    2    0    0 -0.14836985181E+03 -0.15869589714E+03 -0.37496385953E+03  0.45158044316E+03  0.12700000000E+03 0.  0.
<mgrwt>
<rscale>  0 0.53678689E+03</rscale>
<asrwt>0</asrwt>
<pdfrwt beam="1">  1        2 0.18101392E+00 0.53678689E+03</pdfrwt>
<pdfrwt beam="2">  1       -2 0.81214911E-02 0.53678689E+03</pdfrwt>
<totfact> 0.18975878E+03</totfact>
</mgrwt>
</event>
<event>
 4    1  0.4895160E-005  0.4879032E+03  0.7818608E-02  0.1016985E+00
          2   -1    0    0  501    0  0.00000000000E+00  0.00000000000E+00  0.16894735302E+03  0.16894735304E+03  0.25500000000E-02 0.  1.
         -2   -1    0    0    0  501 -0.00000000000E+00 -0.00000000000E+00 -0.35225403361E+03  0.35225403362E+03  0.25500000000E-02 0. -1.
    5000001    1    1    2    0    0  0.57208181653E+02 -0.88023454856E+02 -0.28382652788E+03  0.32818805978E+03  0.12700000000E+03 0.  0.
   -5000001    1    1    2    0    0 -0.57208181653E+02  0.88023454856E+02  0.10051984729E+03  0.19301332688E+03  0.12700000000E+03 0.  0.
<mgrwt>
<rscale>  0 0.48790321E+03</rscale>
<asrwt>0</asrwt>
<pdfrwt beam="1">  1        2 0.24135336E-01 0.48790321E+03</pdfrwt>
<pdfrwt beam="2">  1       -2 0.50322004E-01 0.48790321E+03</pdfrwt>
<totfact> 0.85540540E+02</totfact>
</mgrwt>
</event>
<event>
 4    1  0.4895160E-005  0.4516283E+03  0.7818608E-02  0.1027238E+00
          2   -1    0    0  501    0  0.00000000000E+00  0.00000000000E+00  0.22234130396E+04  0.22234130396E+04  0.25500000000E-02 0.  1.
         -2   -1    0    0    0  501 -0.00000000000E+00 -0.00000000000E+00 -0.22934120400E+02  0.22934120542E+02  0.25500000000E-02 0. -1.
    5000001    1    1    2    0    0  0.13016879017E+03  0.72433074343E+02  0.54031697262E+03  0.57468416986E+03  0.12700000000E+03 0.  0.
   -5000001    1    1    2    0    0 -0.13016879017E+03 -0.72433074343E+02  0.16601619466E+04  0.16716629903E+04  0.12700000000E+03 0.  0.
<mgrwt>
<rscale>  0 0.45162827E+03</rscale>
<asrwt>0</asrwt>
<pdfrwt beam="1">  1        2 0.31763032E+00 0.45162827E+03</pdfrwt>
<pdfrwt beam="2">  1       -2 0.32763041E-02 0.45162827E+03</pdfrwt>
<totfact> 0.25273806E+03</totfact>
</mgrwt>
</event>
<event>
 4    1  0.4895160E-005  0.3976881E+03  0.7818608E-02  0.1044583E+00
          2   -1    0    0  501    0  0.00000000000E+00  0.00000000000E+00  0.99311439978E+03  0.99311439978E+03  0.25500000000E-02 0. -1.
         -2   -1    0    0    0  501 -0.00000000000E+00 -0.00000000000E+00 -0.39813084270E+02  0.39813084352E+02  0.25500000000E-02 0.  1.
    5000001    1    1    2    0    0 -0.67834321321E+02 -0.83726597978E+02  0.19452851810E+03  0.25608979424E+03  0.12700000000E+03 0.  0.
   -5000001    1    1    2    0    0  0.67834321321E+02  0.83726597978E+02  0.75877279741E+03  0.77683768989E+03  0.12700000000E+03 0.  0.
<mgrwt>
<rscale>  0 0.39768806E+03</rscale>
<asrwt>0</asrwt>
<pdfrwt beam="1">  1        2 0.14187348E+00 0.39768806E+03</pdfrwt>
<pdfrwt beam="2">  1       -2 0.56875838E-02 0.39768806E+03</pdfrwt>
<totfact> 0.47527822E+03</totfact>
</mgrwt>
</event>
<event>
 4    1  0.4895160E-005  0.3626995E+03  0.7818608E-02  0.1057520E+00
         -2   -1    0    0    0  501 -0.00000000000E+00  0.00000000000E+00  0.26302274875E+02  0.26302274999E+02  0.25500000000E-02 0. -1.
          2   -1    0    0  501    0  0.00000000000E+00 -0.00000000000E+00 -0.12503759274E+04  0.12503759274E+04  0.25500000000E-02 0.  1.
    5000001    1    1    2    0    0 -0.33815338461E+02 -0.11497997688E+03 -0.43978077641E+03  0.47318073026E+03  0.12700000000E+03 0.  0.
   -5000001    1    1    2    0    0  0.33815338461E+02  0.11497997688E+03 -0.78429287608E+03  0.80349747210E+03  0.12700000000E+03 0.  0.
<mgrwt>
<rscale>  0 0.36269950E+03</rscale>
<asrwt>0</asrwt>
<pdfrwt beam="1">  1        2 0.17862509E+00 0.36269950E+03</pdfrwt>
<pdfrwt beam="2">  1       -2 0.37574686E-02 0.36269950E+03</pdfrwt>
<totfact> 0.63887695E+03</totfact>
</mgrwt>
</event>
<event>
 4    1  0.4895160E-005  0.4558950E+03  0.7818608E-02  0.1025979E+00
         -2   -1    0    0    0  501 -0.00000000000E+00  0.00000000000E+00  0.23218532656E+02  0.23218532796E+02  0.25500000000E-02 0. -1.
          2   -1    0    0  501    0  0.00000000000E+00 -0.00000000000E+00 -0.22378706935E+04  0.22378706935E+04  0.25500000000E-02 0.  1.
    5000001    1    1    2    0    0  0.16562492743E+03 -0.55204401700E+02 -0.74449198310E+03  0.77516221235E+03  0.12700000000E+03 0.  0.
   -5000001    1    1    2    0    0 -0.16562492743E+03  0.55204401700E+02 -0.14701601777E+04  0.14859270139E+04  0.12700000000E+03 0.  0.
<mgrwt>
<rscale>  0 0.45589505E+03</rscale>
<asrwt>0</asrwt>
<pdfrwt beam="1">  1        2 0.31969567E+00 0.45589505E+03</pdfrwt>
<pdfrwt beam="2">  1       -2 0.33169347E-02 0.45589505E+03</pdfrwt>
<totfact> 0.24392570E+03</totfact>
</mgrwt>
</event>
<event>
 4    1  0.4895160E-005  0.4311886E+03  0.7818608E-02  0.1033485E+00
         -2   -1    0    0    0  501 -0.00000000000E+00  0.00000000000E+00  0.74959300861E+02  0.74959300904E+02  0.25500000000E-02 0. -1.
          2   -1    0    0  501    0  0.00000000000E+00 -0.00000000000E+00 -0.62008189208E+03  0.62008189209E+03  0.25500000000E-02 0.  1.
    5000001    1    1    2    0    0 -0.92922562454E+01 -0.10914845147E+03 -0.49092830556E+03  0.51878640275E+03  0.12700000000E+03 0.  0.
   -5000001    1    1    2    0    0  0.92922562454E+01  0.10914845147E+03 -0.54194285663E+02  0.17625479024E+03  0.12700000000E+03 0.  0.
<mgrwt>
<rscale>  0 0.43118861E+03</rscale>
<asrwt>0</asrwt>
<pdfrwt beam="1">  1        2 0.88583124E-01 0.43118861E+03</pdfrwt>
<pdfrwt beam="2">  1       -2 0.10708472E-01 0.43118861E+03</pdfrwt>
<totfact> 0.31705304E+03</totfact>
</mgrwt>
</event>
<event>
 4    1  0.4895160E-005  0.3164836E+03  0.7818608E-02  0.1077279E+00
         -2   -1    0    0    0  501 -0.00000000000E+00  0.00000000000E+00  0.12399705011E+02  0.12399705274E+02  0.25500000000E-02 0. -1.
          2   -1    0    0  501    0  0.00000000000E+00 -0.00000000000E+00 -0.20194401838E+04  0.20194401838E+04  0.25500000000E-02 0.  1.
    5000001    1    1    2    0    0  0.77796408041E+02 -0.76397819527E+01 -0.13432867409E+04  0.13515394613E+04  0.12700000000E+03 0.  0.
   -5000001    1    1    2    0    0 -0.77796408041E+02  0.76397819527E+01 -0.66375373797E+03  0.68030042778E+03  0.12700000000E+03 0.  0.
<mgrwt>
<rscale>  0 0.31648357E+03</rscale>
<asrwt>0</asrwt>
<pdfrwt beam="1">  1        2 0.28849125E+00 0.31648357E+03</pdfrwt>
<pdfrwt beam="2">  1       -2 0.17713877E-02 0.31648357E+03</pdfrwt>
<totfact> 0.80020008E+03</totfact>
</mgrwt>
</event>
<event>
 4    1  0.4895160E-005  0.2720041E+03  0.7818608E-02  0.1100138E+00
         -2   -1    0    0    0  501 -0.00000000000E+00  0.00000000000E+00  0.16386641948E+02  0.16386642146E+02  0.25500000000E-02 0. -1.
          2   -1    0    0  501    0  0.00000000000E+00 -0.00000000000E+00 -0.11287585333E+04  0.11287585333E+04  0.25500000000E-02 0.  1.
    5000001    1    1    2    0    0 -0.26385879462E+02 -0.13011997461E+02 -0.71935023722E+03  0.73106722707E+03  0.12700000000E+03 0.  0.
   -5000001    1    1    2    0    0  0.26385879462E+02  0.13011997461E+02 -0.39302165410E+03  0.41407794835E+03  0.12700000000E+03 0.  0.
<mgrwt>
<rscale>  0 0.27200413E+03</rscale>
<asrwt>0</asrwt>
<pdfrwt beam="1">  1        2 0.16125117E+00 0.27200413E+03</pdfrwt>
<pdfrwt beam="2">  1       -2 0.23409496E-02 0.27200413E+03</pdfrwt>
<totfact> 0.14993394E+04</totfact>
</mgrwt>
</event>
<event>
 4    1  0.4895160E-005  0.2829611E+03  0.7818608E-02  0.1094083E+00
          2   -1    0    0  501    0  0.00000000000E+00  0.00000000000E+00  0.45209946870E+04  0.45209946870E+04  0.25500000000E-02 0. -1.
         -2   -1    0    0    0  501 -0.00000000000E+00 -0.00000000000E+00 -0.44275086512E+01  0.44275093855E+01  0.25500000000E-02 0.  1.
    5000001    1    1    2    0    0 -0.62067618052E+02 -0.49228270913E+01  0.23116183613E+04  0.23159415087E+04  0.12700000000E+03 0.  0.
   -5000001    1    1    2    0    0  0.62067618052E+02  0.49228270913E+01  0.22049488171E+04  0.22094806877E+04  0.12700000000E+03 0.  0.
<mgrwt>
<rscale>  0 0.28296109E+03</rscale>
<asrwt>0</asrwt>
<pdfrwt beam="1">  1        2 0.64585792E+00 0.28296109E+03</pdfrwt>
<pdfrwt beam="2">  1       -2 0.63249979E-03 0.28296109E+03</pdfrwt>
<totfact> 0.12868164E+03</totfact>
</mgrwt>
</event>
<event>
 4    1  0.4895160E-005  0.3111212E+03  0.7818608E-02  0.1079810E+00
          2   -1    0    0  501    0  0.00000000000E+00  0.00000000000E+00  0.73494673224E+03  0.73494673224E+03  0.25500000000E-02 0.  1.
         -2   -1    0    0    0  501 -0.00000000000E+00 -0.00000000000E+00 -0.32926340240E+02  0.32926340339E+02  0.25500000000E-02 0. -1.
    5000001    1    1    2    0    0  0.34490835070E+02 -0.78403050051E+02  0.41785152986E+03  0.44504556730E+03  0.12700000000E+03 0.  0.
   -5000001    1    1    2    0    0 -0.34490835070E+02  0.78403050051E+02  0.28416886213E+03  0.32282750528E+03  0.12700000000E+03 0.  0.
<mgrwt>
<rscale>  0 0.31112124E+03</rscale>
<asrwt>0</asrwt>
<pdfrwt beam="1">  1        2 0.10499238E+00 0.31112124E+03</pdfrwt>
<pdfrwt beam="2">  1       -2 0.47037633E-02 0.31112124E+03</pdfrwt>
<totfact> 0.93121293E+03</totfact>
</mgrwt>
</event>
<event>
 4    1  0.4895160E-005  0.2777328E+03  0.7818608E-02  0.1096934E+00
          2   -1    0    0  501    0  0.00000000000E+00  0.00000000000E+00  0.36316420416E+03  0.36316420417E+03  0.25500000000E-02 0.  1.
         -2   -1    0    0    0  501 -0.00000000000E+00 -0.00000000000E+00 -0.53099622559E+02  0.53099622620E+02  0.25500000000E-02 0. -1.
    5000001    1    1    2    0    0 -0.30697939830E+02  0.29563176169E+02  0.10019743838E+03  0.16728679432E+03  0.12700000000E+03 0.  0.
   -5000001    1    1    2    0    0  0.30697939830E+02 -0.29563176169E+02  0.20986714323E+03  0.24897703248E+03  0.12700000000E+03 0.  0.
<mgrwt>
<rscale>  0 0.27773284E+03</rscale>
<asrwt>0</asrwt>
<pdfrwt beam="1">  1        2 0.51880601E-01 0.27773284E+03</pdfrwt>
<pdfrwt beam="2">  1       -2 0.75856602E-02 0.27773284E+03</pdfrwt>
<totfact> 0.98230866E+03</totfact>
</mgrwt>
</event>
<event>
 4    1  0.4895160E-005  0.3837253E+03  0.7818608E-02  0.1049565E+00
         -2   -1    0    0    0  501 -0.00000000000E+00  0.00000000000E+00  0.86360755982E+02  0.86360756020E+02  0.25500000000E-02 0. -1.
          2   -1    0    0  501    0  0.00000000000E+00 -0.00000000000E+00 -0.42625013344E+03  0.42625013344E+03  0.25500000000E-02 0.  1.
    5000001    1    1    2    0    0  0.13171893124E+03  0.30986954002E+02 -0.10488013883E+03  0.21316404877E+03  0.12700000000E+03 0.  0.
   -5000001    1    1    2    0    0 -0.13171893124E+03 -0.30986954002E+02 -0.23500923862E+03  0.29944684069E+03  0.12700000000E+03 0.  0.
<mgrwt>
<rscale>  0 0.38372534E+03</rscale>
<asrwt>0</asrwt>
<pdfrwt beam="1">  1        2 0.60892875E-01 0.38372534E+03</pdfrwt>
<pdfrwt beam="2">  1       -2 0.12337251E-01 0.38372534E+03</pdfrwt>
<totfact> 0.38401743E+03</totfact>
</mgrwt>
</event>
<event>
 4    1  0.4895160E-005  0.6682169E+03  0.7818608E-02  0.9773184E-01
         -2   -1    0    0    0  501 -0.00000000000E+00  0.00000000000E+00  0.79029503244E+03  0.79029503245E+03  0.25500000000E-02 0. -1.
          2   -1    0    0  501    0  0.00000000000E+00 -0.00000000000E+00 -0.14124909501E+03  0.14124909503E+03  0.25500000000E-02 0.  1.
    5000001    1    1    2    0    0 -0.42723921436E+02 -0.23540019689E+03  0.59720932287E+03  0.65576410506E+03  0.12700000000E+03 0.  0.
   -5000001    1    1    2    0    0  0.42723921436E+02  0.23540019689E+03  0.51836614568E+02  0.27578002242E+03  0.12700000000E+03 0.  0.
<mgrwt>
<rscale>  0 0.66821691E+03</rscale>
<asrwt>0</asrwt>
<pdfrwt beam="1">  1        2 0.20178442E-01 0.66821691E+03</pdfrwt>
<pdfrwt beam="2">  1       -2 0.11289929E+00 0.66821691E+03</pdfrwt>
<totfact> 0.17541296E+02</totfact>
</mgrwt>
</event>
<event>
 4    1  0.4895160E-005  0.6475186E+03  0.7818608E-02  0.9811447E-01
         -2   -1    0    0    0  501 -0.00000000000E+00  0.00000000000E+00  0.25563337366E+03  0.25563337367E+03  0.25500000000E-02 0. -1.
          2   -1    0    0  501    0  0.00000000000E+00 -0.00000000000E+00 -0.41004065024E+03  0.41004065025E+03  0.25500000000E-02 0.  1.
    5000001    1    1    2    0    0  0.27004090267E+03 -0.12362426541E+03 -0.54539488835E+02  0.32757991995E+03  0.12700000000E+03 0.  0.
   -5000001    1    1    2    0    0 -0.27004090267E+03  0.12362426541E+03 -0.99867787743E+02  0.33809410397E+03  0.12700000000E+03 0.  0.
<mgrwt>
<rscale>  0 0.64751857E+03</rscale>
<asrwt>0</asrwt>
<pdfrwt beam="1">  1        2 0.58577236E-01 0.64751857E+03</pdfrwt>
<pdfrwt beam="2">  1       -2 0.36519053E-01 0.64751857E+03</pdfrwt>
<totfact> 0.59722535E+02</totfact>
</mgrwt>
</event>
<event>
 4    1  0.4895160E-005  0.3847215E+03  0.7818608E-02  0.1049202E+00
         -2   -1    0    0    0  501 -0.00000000000E+00  0.00000000000E+00  0.43101104775E+02  0.43101104850E+02  0.25500000000E-02 0. -1.
          2   -1    0    0  501    0  0.00000000000E+00 -0.00000000000E+00 -0.85850853627E+03  0.85850853628E+03  0.25500000000E-02 0.  1.
    5000001    1    1    2    0    0  0.57861401316E+02  0.12667431189E+03 -0.31756600302E+03  0.36928510575E+03  0.12700000000E+03 0.  0.
   -5000001    1    1    2    0    0 -0.57861401316E+02 -0.12667431189E+03 -0.49784142848E+03  0.53232453538E+03  0.12700000000E+03 0.  0.
<mgrwt>
<rscale>  0 0.38472154E+03</rscale>
<asrwt>0</asrwt>
<pdfrwt beam="1">  1        2 0.12264407E+00 0.38472154E+03</pdfrwt>
<pdfrwt beam="2">  1       -2 0.61573012E-02 0.38472154E+03</pdfrwt>
<totfact> 0.51000295E+03</totfact>
</mgrwt>
</event>
<event>
 4    1  0.4895160E-005  0.3399335E+03  0.7818608E-02  0.1066824E+00
         -2   -1    0    0    0  501 -0.00000000000E+00  0.00000000000E+00  0.22422338206E+02  0.22422338351E+02  0.25500000000E-02 0. -1.
          2   -1    0    0  501    0  0.00000000000E+00 -0.00000000000E+00 -0.12883892106E+04  0.12883892106E+04  0.25500000000E-02 0.  1.
    5000001    1    1    2    0    0 -0.99857587591E+02  0.42630529046E+02 -0.75312987812E+03  0.77144184041E+03  0.12700000000E+03 0.  0.
   -5000001    1    1    2    0    0  0.99857587591E+02 -0.42630529046E+02 -0.51283699426E+03  0.53936970854E+03  0.12700000000E+03 0.  0.
<mgrwt>
<rscale>  0 0.33993352E+03</rscale>
<asrwt>0</asrwt>
<pdfrwt beam="1">  1        2 0.18405555E+00 0.33993352E+03</pdfrwt>
<pdfrwt beam="2">  1       -2 0.32031920E-02 0.33993352E+03</pdfrwt>
<totfact> 0.77443144E+03</totfact>
</mgrwt>
</event>
<event>
 4    1  0.4895160E-005  0.3104564E+03  0.7818608E-02  0.1080127E+00
          2   -1    0    0  501    0  0.00000000000E+00  0.00000000000E+00  0.18271423093E+03  0.18271423094E+03  0.25500000000E-02 0.  1.
         -2   -1    0    0    0  501 -0.00000000000E+00 -0.00000000000E+00 -0.13187697571E+03  0.13187697574E+03  0.25500000000E-02 0. -1.
    5000001    1    1    2    0    0 -0.47063187995E+02 -0.49380300112E+02  0.83747774676E+02  0.16672146672E+03  0.12700000000E+03 0.  0.
   -5000001    1    1    2    0    0  0.47063187995E+02  0.49380300112E+02 -0.32910519461E+02  0.14786973996E+03  0.12700000000E+03 0.  0.
<mgrwt>
<rscale>  0 0.31045644E+03</rscale>
<asrwt>0</asrwt>
<pdfrwt beam="1">  1        2 0.26102033E-01 0.31045644E+03</pdfrwt>
<pdfrwt beam="2">  1       -2 0.18839568E-01 0.31045644E+03</pdfrwt>
<totfact> 0.47679307E+03</totfact>
</mgrwt>
</event>
<event>
 4    1  0.4895160E-005  0.6366754E+03  0.7818608E-02  0.9832108E-01
          2   -1    0    0  501    0  0.00000000000E+00  0.00000000000E+00  0.25138690090E+03  0.25138690091E+03  0.25500000000E-02 0.  1.
         -2   -1    0    0    0  501 -0.00000000000E+00 -0.00000000000E+00 -0.40311915700E+03  0.40311915701E+03  0.25500000000E-02 0. -1.
    5000001    1    1    2    0    0 -0.16617156515E+03 -0.14916806063E+03 -0.26913610550E+03  0.37205825171E+03  0.12700000000E+03 0.  0.
   -5000001    1    1    2    0    0  0.16617156515E+03  0.14916806063E+03  0.11740384940E+03  0.28244780621E+03  0.12700000000E+03 0.  0.
<mgrwt>
<rscale>  0 0.63667535E+03</rscale>
<asrwt>0</asrwt>
<pdfrwt beam="1">  1        2 0.35912415E-01 0.63667535E+03</pdfrwt>
<pdfrwt beam="2">  1       -2 0.57588451E-01 0.63667535E+03</pdfrwt>
<totfact> 0.41396840E+02</totfact>
</mgrwt>
</event>
<event>
 4    1  0.4895160E-005  0.2718857E+03  0.7818608E-02  0.1100205E+00
         -2   -1    0    0    0  501 -0.00000000000E+00  0.00000000000E+00  0.41704275656E+02  0.41704275734E+02  0.25500000000E-02 0. -1.
          2   -1    0    0  501    0  0.00000000000E+00 -0.00000000000E+00 -0.44313109425E+03  0.44313109425E+03  0.25500000000E-02 0.  1.
    5000001    1    1    2    0    0  0.44558137831E+02 -0.16421444284E+02 -0.18320774963E+03  0.22792360782E+03  0.12700000000E+03 0.  0.
   -5000001    1    1    2    0    0 -0.44558137831E+02  0.16421444284E+02 -0.21821906897E+03  0.25691176217E+03  0.12700000000E+03 0.  0.
<mgrwt>
<rscale>  0 0.27188572E+03</rscale>
<asrwt>0</asrwt>
<pdfrwt beam="1">  1        2 0.63304439E-01 0.27188572E+03</pdfrwt>
<pdfrwt beam="2">  1       -2 0.59577539E-02 0.27188572E+03</pdfrwt>
<totfact> 0.11490382E+04</totfact>
</mgrwt>
</event>
<event>
 4    1  0.4895160E-005  0.3865113E+03  0.7818608E-02  0.1048553E+00
         -2   -1    0    0    0  501 -0.00000000000E+00  0.00000000000E+00  0.16488253856E+02  0.16488254053E+02  0.25500000000E-02 0. -1.
          2   -1    0    0  501    0  0.00000000000E+00 -0.00000000000E+00 -0.22651124916E+04  0.22651124916E+04  0.25500000000E-02 0.  1.
    5000001    1    1    2    0    0 -0.55731160283E+01 -0.13100291255E+03 -0.14988626317E+04  0.15099374197E+04  0.12700000000E+03 0.  0.
   -5000001    1    1    2    0    0  0.55731160283E+01  0.13100291255E+03 -0.74976160607E+03  0.77166332598E+03  0.12700000000E+03 0.  0.
<mgrwt>
<rscale>  0 0.38651132E+03</rscale>
<asrwt>0</asrwt>
<pdfrwt beam="1">  1        2 0.32358730E+00 0.38651132E+03</pdfrwt>
<pdfrwt beam="2">  1       -2 0.23554663E-02 0.38651132E+03</pdfrwt>
<totfact> 0.39658924E+03</totfact>
</mgrwt>
</event>
<event>
 4    1  0.4895160E-005  0.4164982E+03  0.7818608E-02  0.1038212E+00
          2   -1    0    0  501    0  0.00000000000E+00  0.00000000000E+00  0.13483520806E+04  0.13483520806E+04  0.25500000000E-02 0. -1.
         -2   -1    0    0    0  501 -0.00000000000E+00 -0.00000000000E+00 -0.32163474372E+02  0.32163474473E+02  0.25500000000E-02 0.  1.
    5000001    1    1    2    0    0  0.11340051309E+03 -0.91406982583E+02  0.40084006389E+03  0.44499063996E+03  0.12700000000E+03 0.  0.
   -5000001    1    1    2    0    0 -0.11340051309E+03  0.91406982583E+02  0.91534854230E+03  0.93552491508E+03  0.12700000000E+03 0.  0.
<mgrwt>
<rscale>  0 0.41649820E+03</rscale>
<asrwt>0</asrwt>
<pdfrwt beam="1">  1        2 0.19262169E+00 0.41649820E+03</pdfrwt>
<pdfrwt beam="2">  1       -2 0.45947829E-02 0.41649820E+03</pdfrwt>
<totfact> 0.41747479E+03</totfact>
</mgrwt>
</event>
<event>
 4    1  0.4895160E-005  0.6490244E+03  0.7818608E-02  0.9808612E-01
         -2   -1    0    0    0  501 -0.00000000000E+00  0.00000000000E+00  0.52941333157E+02  0.52941333219E+02  0.25500000000E-02 0. -1.
          2   -1    0    0  501    0  0.00000000000E+00 -0.00000000000E+00 -0.19891481226E+04  0.19891481226E+04  0.25500000000E-02 0.  1.
    5000001    1    1    2    0    0 -0.10976064830E+03 -0.19542170479E+03 -0.34720074545E+03  0.43233598076E+03  0.12700000000E+03 0.  0.
   -5000001    1    1    2    0    0  0.10976064830E+03  0.19542170479E+03 -0.15890060440E+04  0.16097534751E+04  0.12700000000E+03 0.  0.
<mgrwt>
<rscale>  0 0.64902436E+03</rscale>
<asrwt>0</asrwt>
<pdfrwt beam="1">  1        2 0.28416397E+00 0.64902436E+03</pdfrwt>
<pdfrwt beam="2">  1       -2 0.75630489E-02 0.64902436E+03</pdfrwt>
<totfact> 0.89683697E+02</totfact>
</mgrwt>
</event>
<event>
 4    1  0.4895160E-005  0.3244586E+03  0.7818608E-02  0.1073615E+00
          2   -1    0    0  501    0  0.00000000000E+00  0.00000000000E+00  0.19408443278E+03  0.19408443279E+03  0.25500000000E-02 0.  1.
         -2   -1    0    0    0  501 -0.00000000000E+00 -0.00000000000E+00 -0.13560255651E+03  0.13560255654E+03  0.25500000000E-02 0. -1.
    5000001    1    1    2    0    0  0.93114634600E+02  0.38483426497E+02  0.35507651359E+02  0.16595512224E+03  0.12700000000E+03 0.  0.
   -5000001    1    1    2    0    0 -0.93114634600E+02 -0.38483426497E+02  0.22974224906E+02  0.16373186709E+03  0.12700000000E+03 0.  0.
<mgrwt>
<rscale>  0 0.32445860E+03</rscale>
<asrwt>0</asrwt>
<pdfrwt beam="1">  1        2 0.27726347E-01 0.32445860E+03</pdfrwt>
<pdfrwt beam="2">  1       -2 0.19371794E-01 0.32445860E+03</pdfrwt>
<totfact> 0.42564367E+03</totfact>
</mgrwt>
</event>
<event>
 4    1  0.4895160E-005  0.4702339E+03  0.7818608E-02  0.1021854E+00
         -2   -1    0    0    0  501 -0.00000000000E+00  0.00000000000E+00  0.39377316265E+02  0.39377316348E+02  0.25500000000E-02 0.  1.
          2   -1    0    0  501    0  0.00000000000E+00 -0.00000000000E+00 -0.14038536527E+04  0.14038536527E+04  0.25500000000E-02 0. -1.
    5000001    1    1    2    0    0  0.19444053022E+03 -0.35881835920E+02 -0.65919615453E+03  0.69983083390E+03  0.12700000000E+03 0.  0.
   -5000001    1    1    2    0    0 -0.19444053022E+03  0.35881835920E+02 -0.70528018190E+03  0.74340013514E+03  0.12700000000E+03 0.  0.
<mgrwt>
<rscale>  0 0.47023394E+03</rscale>
<asrwt>0</asrwt>
<pdfrwt beam="1">  1        2 0.20055049E+00 0.47023394E+03</pdfrwt>
<pdfrwt beam="2">  1       -2 0.56253318E-02 0.47023394E+03</pdfrwt>
<totfact> 0.28568577E+03</totfact>
</mgrwt>
</event>
<event>
 4    1  0.4895160E-005  0.1213271E+04  0.7818608E-02  0.9101319E-01
         -2   -1    0    0    0  501 -0.00000000000E+00  0.00000000000E+00  0.16924630720E+03  0.16924630721E+03  0.25500000000E-02 0. -1.
          2   -1    0    0  501    0  0.00000000000E+00 -0.00000000000E+00 -0.21743840679E+04  0.21743840679E+04  0.25500000000E-02 0.  1.
    5000001    1    1    2    0    0 -0.21080216715E+03 -0.55213012067E+03 -0.90421990397E+03  0.10876708411E+04  0.12700000000E+03 0.  0.
   -5000001    1    1    2    0    0  0.21080216715E+03  0.55213012067E+03 -0.11009178567E+04  0.12559595340E+04  0.12700000000E+03 0.  0.
<mgrwt>
<rscale>  0 0.12132707E+04</rscale>
<asrwt>0</asrwt>
<pdfrwt beam="1">  1        2 0.31062628E+00 0.12132707E+04</pdfrwt>
<pdfrwt beam="2">  1       -2 0.24178045E-01 0.12132707E+04</pdfrwt>
<totfact> 0.98142597E+01</totfact>
</mgrwt>
</event>
<event>
 4    1  0.4895160E-005  0.4106757E+03  0.7818608E-02  0.1040144E+00
         -2   -1    0    0    0  501 -0.00000000000E+00  0.00000000000E+00  0.17859663169E+02  0.17859663351E+02  0.25500000000E-02 0. -1.
          2   -1    0    0  501    0  0.00000000000E+00 -0.00000000000E+00 -0.23608302498E+04  0.23608302498E+04  0.25500000000E-02 0.  1.
    5000001    1    1    2    0    0 -0.12447861525E+03 -0.74171972717E+02 -0.76035673262E+03  0.78439006115E+03  0.12700000000E+03 0.  0.
   -5000001    1    1    2    0    0  0.12447861525E+03  0.74171972717E+02 -0.15826138540E+04  0.15942998520E+04  0.12700000000E+03 0.  0.
<mgrwt>
<rscale>  0 0.41067570E+03</rscale>
<asrwt>0</asrwt>
<pdfrwt beam="1">  1        2 0.33726127E+00 0.41067570E+03</pdfrwt>
<pdfrwt beam="2">  1       -2 0.25513820E-02 0.41067570E+03</pdfrwt>
<totfact> 0.31497966E+03</totfact>
</mgrwt>
</event>
<event>
 4    1  0.4895160E-005  0.5508135E+03  0.7818608E-02  0.1001306E+00
         -2   -1    0    0    0  501 -0.00000000000E+00  0.00000000000E+00  0.61633839332E+02  0.61633839385E+02  0.25500000000E-02 0. -1.
          2   -1    0    0  501    0  0.00000000000E+00 -0.00000000000E+00 -0.12306367015E+04  0.12306367015E+04  0.25500000000E-02 0.  1.
    5000001    1    1    2    0    0 -0.77650200207E+02  0.17486131216E+03 -0.94118646610E+03  0.96879667426E+03  0.12700000000E+03 0.  0.
   -5000001    1    1    2    0    0  0.77650200207E+02 -0.17486131216E+03 -0.22781639612E+03  0.32347386668E+03  0.12700000000E+03 0.  0.
<mgrwt>
<rscale>  0 0.55081345E+03</rscale>
<asrwt>0</asrwt>
<pdfrwt beam="1">  1        2 0.17580523E+00 0.55081345E+03</pdfrwt>
<pdfrwt beam="2">  1       -2 0.88048349E-02 0.55081345E+03</pdfrwt>
<totfact> 0.17462932E+03</totfact>
</mgrwt>
</event>
<event>
 4    1  0.4895160E-005  0.3750211E+03  0.7818608E-02  0.1052789E+00
         -2   -1    0    0    0  501 -0.00000000000E+00  0.00000000000E+00  0.35481606339E+02  0.35481606431E+02  0.25500000000E-02 0. -1.
          2   -1    0    0  501    0  0.00000000000E+00 -0.00000000000E+00 -0.99094159108E+03  0.99094159109E+03  0.25500000000E-02 0.  1.
    5000001    1    1    2    0    0  0.12169454330E+03 -0.18555376202E+01 -0.65549001773E+03  0.67868193451E+03  0.12700000000E+03 0.  0.
   -5000001    1    1    2    0    0 -0.12169454330E+03  0.18555376202E+01 -0.29996996702E+03  0.34774126301E+03  0.12700000000E+03 0.  0.
<mgrwt>
<rscale>  0 0.37502106E+03</rscale>
<asrwt>0</asrwt>
<pdfrwt beam="1">  1        2 0.14156307E+00 0.37502106E+03</pdfrwt>
<pdfrwt beam="2">  1       -2 0.50688015E-02 0.37502106E+03</pdfrwt>
<totfact> 0.56869156E+03</totfact>
</mgrwt>
</event>
<event>
 4    1  0.4895160E-005  0.4715313E+03  0.7818608E-02  0.1021489E+00
          2   -1    0    0  501    0  0.00000000000E+00  0.00000000000E+00  0.83662459253E+03  0.83662459253E+03  0.25500000000E-02 0.  1.
         -2   -1    0    0    0  501 -0.00000000000E+00 -0.00000000000E+00 -0.66440135609E+02  0.66440135658E+02  0.25500000000E-02 0. -1.
    5000001    1    1    2    0    0 -0.52367397162E+02 -0.14923296902E+03  0.15492342274E+03  0.25523144446E+03  0.12700000000E+03 0.  0.
   -5000001    1    1    2    0    0  0.52367397162E+02  0.14923296902E+03  0.61526103418E+03  0.64783328373E+03  0.12700000000E+03 0.  0.
<mgrwt>
<rscale>  0 0.47153134E+03</rscale>
<asrwt>0</asrwt>
<pdfrwt beam="1">  1        2 0.11951780E+00 0.47153134E+03</pdfrwt>
<pdfrwt beam="2">  1       -2 0.94914476E-02 0.47153134E+03</pdfrwt>
<totfact> 0.26710537E+03</totfact>
</mgrwt>
</event>
<event>
 4    1  0.4895160E-005  0.4955531E+03  0.7818608E-02  0.1014946E+00
         -2   -1    0    0    0  501 -0.00000000000E+00  0.00000000000E+00  0.17491312689E+02  0.17491312875E+02  0.25500000000E-02 0. -1.
          2   -1    0    0  501    0  0.00000000000E+00 -0.00000000000E+00 -0.35099256104E+04  0.35099256104E+04  0.25500000000E-02 0.  1.
    5000001    1    1    2    0    0 -0.10371673901E+02 -0.20786275901E+03 -0.20605222873E+04  0.20748965262E+04  0.12700000000E+03 0.  0.
   -5000001    1    1    2    0    0  0.10371673901E+02  0.20786275901E+03 -0.14319120104E+04  0.14525203970E+04  0.12700000000E+03 0.  0.
<mgrwt>
<rscale>  0 0.49555305E+03</rscale>
<asrwt>0</asrwt>
<pdfrwt beam="1">  1        2 0.50141749E+00 0.49555305E+03</pdfrwt>
<pdfrwt beam="2">  1       -2 0.24987612E-02 0.49555305E+03</pdfrwt>
<totfact> 0.77671426E+02</totfact>
</mgrwt>
</event>
<event>
 4    1  0.4895160E-005  0.3558677E+03  0.7818608E-02  0.1060232E+00
          2   -1    0    0  501    0  0.00000000000E+00  0.00000000000E+00  0.88582049842E+03  0.88582049842E+03  0.25500000000E-02 0.  1.
         -2   -1    0    0    0  501 -0.00000000000E+00 -0.00000000000E+00 -0.35741383843E+02  0.35741383934E+02  0.25500000000E-02 0. -1.
    5000001    1    1    2    0    0 -0.11413967949E+03 -0.40792320428E+02  0.50007467832E+03  0.52999581483E+03  0.12700000000E+03 0.  0.
   -5000001    1    1    2    0    0  0.11413967949E+03  0.40792320428E+02  0.35000443626E+03  0.39156606753E+03  0.12700000000E+03 0.  0.
<mgrwt>
<rscale>  0 0.35586767E+03</rscale>
<asrwt>0</asrwt>
<pdfrwt beam="1">  1        2 0.12654576E+00 0.35586767E+03</pdfrwt>
<pdfrwt beam="2">  1       -2 0.51059129E-02 0.35586767E+03</pdfrwt>
<totfact> 0.65255856E+03</totfact>
</mgrwt>
</event>
<event>
 4    1  0.4895160E-005  0.5668497E+03  0.7818608E-02  0.9976674E-01
         -2   -1    0    0    0  501 -0.00000000000E+00  0.00000000000E+00  0.34956871395E+02  0.34956871488E+02  0.25500000000E-02 0. -1.
          2   -1    0    0  501    0  0.00000000000E+00 -0.00000000000E+00 -0.22979646267E+04  0.22979646267E+04  0.25500000000E-02 0.  1.
    5000001    1    1    2    0    0 -0.22299328099E+03 -0.20529711375E+02 -0.64361658051E+03  0.69319461562E+03  0.12700000000E+03 0.  0.
   -5000001    1    1    2    0    0  0.22299328099E+03  0.20529711375E+02 -0.16193911748E+04  0.16397268826E+04  0.12700000000E+03 0.  0.
<mgrwt>
<rscale>  0 0.56684973E+03</rscale>
<asrwt>0</asrwt>
<pdfrwt beam="1">  1        2 0.32828057E+00 0.56684973E+03</pdfrwt>
<pdfrwt beam="2">  1       -2 0.49938402E-02 0.56684973E+03</pdfrwt>
<totfact> 0.12083995E+03</totfact>
</mgrwt>
</event>
<event>
 4    1  0.4895160E-005  0.3454509E+03  0.7818608E-02  0.1064498E+00
          2   -1    0    0  501    0  0.00000000000E+00  0.00000000000E+00  0.49967858705E+03  0.49967858706E+03  0.25500000000E-02 0.  1.
         -2   -1    0    0    0  501 -0.00000000000E+00 -0.00000000000E+00 -0.59706543447E+02  0.59706543501E+02  0.25500000000E-02 0. -1.
    5000001    1    1    2    0    0 -0.80295682472E+02  0.76889943671E+02  0.27938596121E+03  0.32641227824E+03  0.12700000000E+03 0.  0.
   -5000001    1    1    2    0    0  0.80295682472E+02 -0.76889943671E+02  0.16058608240E+03  0.23297285233E+03  0.12700000000E+03 0.  0.
<mgrwt>
<rscale>  0 0.34545090E+03</rscale>
<asrwt>0</asrwt>
<pdfrwt beam="1">  1        2 0.71382657E-01 0.34545090E+03</pdfrwt>
<pdfrwt beam="2">  1       -2 0.85295060E-02 0.34545090E+03</pdfrwt>
<totfact> 0.58095322E+03</totfact>
</mgrwt>
</event>
<event>
 4    1  0.4895160E-005  0.4265806E+03  0.7818608E-02  0.1034946E+00
         -2   -1    0    0    0  501 -0.00000000000E+00  0.00000000000E+00  0.58928933053E+03  0.58928933054E+03  0.25500000000E-02 0. -1.
          2   -1    0    0  501    0  0.00000000000E+00 -0.00000000000E+00 -0.77199356341E+02  0.77199356383E+02  0.25500000000E-02 0.  1.
    5000001    1    1    2    0    0 -0.14927806621E+03 -0.46749164633E+02  0.36534956516E+03  0.41722743224E+03  0.12700000000E+03 0.  0.
   -5000001    1    1    2    0    0  0.14927806621E+03  0.46749164633E+02  0.14674040903E+03  0.24926125469E+03  0.12700000000E+03 0.  0.
<mgrwt>
<rscale>  0 0.42658062E+03</rscale>
<asrwt>0</asrwt>
<pdfrwt beam="1">  1        2 0.11028480E-01 0.42658062E+03</pdfrwt>
<pdfrwt beam="2">  1       -2 0.84184187E-01 0.42658062E+03</pdfrwt>
<totfact> 0.72637458E+02</totfact>
</mgrwt>
</event>
<event>
 4    1  0.4895160E-005  0.7893669E+03  0.7818608E-02  0.9575537E-01
          2   -1    0    0  501    0  0.00000000000E+00  0.00000000000E+00  0.30884384796E+04  0.30884384796E+04  0.25500000000E-02 0.  1.
         -2   -1    0    0    0  501 -0.00000000000E+00 -0.00000000000E+00 -0.50438122304E+02  0.50438122368E+02  0.25500000000E-02 0. -1.
    5000001    1    1    2    0    0  0.20200462173E+03  0.30947384550E+03  0.12988144571E+04  0.13563288400E+04  0.12700000000E+03 0.  0.
   -5000001    1    1    2    0    0 -0.20200462173E+03 -0.30947384550E+03  0.17391859002E+04  0.17825477619E+04  0.12700000000E+03 0.  0.
<mgrwt>
<rscale>  0 0.78936693E+03</rscale>
<asrwt>0</asrwt>
<pdfrwt beam="1">  1        2 0.44120557E+00 0.78936693E+03</pdfrwt>
<pdfrwt beam="2">  1       -2 0.72054448E-02 0.78936693E+03</pdfrwt>
<totfact> 0.25577310E+02</totfact>
</mgrwt>
</event>
<event>
 4    1  0.4895160E-005  0.4283597E+03  0.7818608E-02  0.1034379E+00
          2   -1    0    0  501    0  0.00000000000E+00  0.00000000000E+00  0.27256033941E+04  0.27256033941E+04  0.25500000000E-02 0.  1.
         -2   -1    0    0    0  501 -0.00000000000E+00 -0.00000000000E+00 -0.16830405318E+02  0.16830405512E+02  0.25500000000E-02 0. -1.
    5000001    1    1    2    0    0  0.31174624371E+02 -0.16859635142E+03  0.14737185031E+04  0.14890842196E+04  0.12700000000E+03 0.  0.
   -5000001    1    1    2    0    0 -0.31174624371E+02  0.16859635142E+03  0.12350544857E+04  0.12533495799E+04  0.12700000000E+03 0.  0.
<mgrwt>
<rscale>  0 0.42835971E+03</rscale>
<asrwt>0</asrwt>
<pdfrwt beam="1">  1        2 0.38937190E+00 0.42835971E+03</pdfrwt>
<pdfrwt beam="2">  1       -2 0.24043437E-02 0.42835971E+03</pdfrwt>
<totfact> 0.22423816E+03</totfact>
</mgrwt>
</event>
<event>
 4    1  0.4895160E-005  0.3957450E+03  0.7818608E-02  0.1045263E+00
          2   -1    0    0  501    0  0.00000000000E+00  0.00000000000E+00  0.24068047467E+04  0.24068047467E+04  0.25500000000E-02 0.  1.
         -2   -1    0    0    0  501 -0.00000000000E+00 -0.00000000000E+00 -0.16267845161E+02  0.16267845361E+02  0.25500000000E-02 0. -1.
    5000001    1    1    2    0    0  0.94412803086E+01  0.75051958363E+02  0.38987780865E+03  0.41695999797E+03  0.12700000000E+03 0.  0.
   -5000001    1    1    2    0    0 -0.94412803086E+01 -0.75051958363E+02  0.20006590929E+04  0.20061125941E+04  0.12700000000E+03 0.  0.
<mgrwt>
<rscale>  0 0.39574500E+03</rscale>
<asrwt>0</asrwt>
<pdfrwt beam="1">  1        2 0.34382900E+00 0.39574500E+03</pdfrwt>
<pdfrwt beam="2">  1       -2 0.23239796E-02 0.39574500E+03</pdfrwt>
<totfact> 0.34366566E+03</totfact>
</mgrwt>
</event>
<event>
 4    1  0.4895160E-005  0.4846121E+03  0.7818608E-02  0.1017875E+00
          2   -1    0    0  501    0  0.00000000000E+00  0.00000000000E+00  0.21852514328E+04  0.21852514328E+04  0.25500000000E-02 0.  1.
         -2   -1    0    0    0  501 -0.00000000000E+00 -0.00000000000E+00 -0.26867490015E+02  0.26867490136E+02  0.25500000000E-02 0. -1.
    5000001    1    1    2    0    0 -0.30877959090E+02 -0.19535006625E+03  0.13480119586E+04  0.13683494939E+04  0.12700000000E+03 0.  0.
   -5000001    1    1    2    0    0  0.30877959090E+02  0.19535006625E+03  0.81037198415E+03  0.84376942907E+03  0.12700000000E+03 0.  0.
<mgrwt>
<rscale>  0 0.48461210E+03</rscale>
<asrwt>0</asrwt>
<pdfrwt beam="1">  1        2 0.31217880E+00 0.48461210E+03</pdfrwt>
<pdfrwt beam="2">  1       -2 0.38382125E-02 0.48461210E+03</pdfrwt>
<totfact> 0.20728705E+03</totfact>
</mgrwt>
</event>
<event>
 4    1  0.4895160E-005  0.3998819E+03  0.7818608E-02  0.1043821E+00
         -2   -1    0    0    0  501 -0.00000000000E+00  0.00000000000E+00  0.69622921839E+02  0.69622921886E+02  0.25500000000E-02 0. -1.
          2   -1    0    0  501    0  0.00000000000E+00 -0.00000000000E+00 -0.57418429549E+03  0.57418429550E+03  0.25500000000E-02 0.  1.
    5000001    1    1    2    0    0  0.25077460718E+02 -0.15224069274E+03 -0.24193646019E+03  0.31379668311E+03  0.12700000000E+03 0.  0.
   -5000001    1    1    2    0    0 -0.25077460718E+02  0.15224069274E+03 -0.26262491346E+03  0.33001053427E+03  0.12700000000E+03 0.  0.
<mgrwt>
<rscale>  0 0.39988192E+03</rscale>
<asrwt>0</asrwt>
<pdfrwt beam="1">  1        2 0.82026325E-01 0.39988192E+03</pdfrwt>
<pdfrwt beam="2">  1       -2 0.99461320E-02 0.39988192E+03</pdfrwt>
<totfact> 0.38997831E+03</totfact>
</mgrwt>
</event>
<event>
 4    1  0.4895160E-005  0.5876742E+03  0.7818608E-02  0.9931313E-01
         -2   -1    0    0    0  501 -0.00000000000E+00  0.00000000000E+00  0.19300427187E+03  0.19300427189E+03  0.25500000000E-02 0. -1.
          2   -1    0    0  501    0  0.00000000000E+00 -0.00000000000E+00 -0.44734881877E+03  0.44734881878E+03  0.25500000000E-02 0.  1.
    5000001    1    1    2    0    0 -0.15790576961E+03 -0.13200597153E+03  0.54674923889E+02  0.24794788948E+03  0.12700000000E+03 0.  0.
   -5000001    1    1    2    0    0  0.15790576961E+03  0.13200597153E+03 -0.30901947079E+03  0.39240520119E+03  0.12700000000E+03 0.  0.
<mgrwt>
<rscale>  0 0.58767417E+03</rscale>
<asrwt>0</asrwt>
<pdfrwt beam="1">  1        2 0.63906974E-01 0.58767417E+03</pdfrwt>
<pdfrwt beam="2">  1       -2 0.27572039E-01 0.58767417E+03</pdfrwt>
<totfact> 0.91617667E+02</totfact>
</mgrwt>
</event>
<event>
 4    1  0.4895160E-005  0.7053059E+03  0.7818608E-02  0.9708201E-01
          2   -1    0    0  501    0  0.00000000000E+00  0.00000000000E+00  0.11105841550E+04  0.11105841550E+04  0.25500000000E-02 0.  1.
         -2   -1    0    0    0  501 -0.00000000000E+00 -0.00000000000E+00 -0.11198079082E+03  0.11198079085E+03  0.25500000000E-02 0. -1.
    5000001    1    1    2    0    0  0.15779608409E+03 -0.26799050461E+03  0.68532018925E+03  0.76322426357E+03  0.12700000000E+03 0.  0.
   -5000001    1    1    2    0    0 -0.15779608409E+03  0.26799050461E+03  0.31328317497E+03  0.45934068232E+03  0.12700000000E+03 0.  0.
<mgrwt>
<rscale>  0 0.70530587E+03</rscale>
<asrwt>0</asrwt>
<pdfrwt beam="1">  1        2 0.15865487E+00 0.70530587E+03</pdfrwt>
<pdfrwt beam="2">  1       -2 0.15997256E-01 0.70530587E+03</pdfrwt>
<totfact> 0.76029398E+02</totfact>
</mgrwt>
</event>
<event>
 4    1  0.4895160E-005  0.4647170E+03  0.7818608E-02  0.1023422E+00
          2   -1    0    0  501    0  0.00000000000E+00  0.00000000000E+00  0.16162223757E+04  0.16162223757E+04  0.25500000000E-02 0.  1.
         -2   -1    0    0    0  501 -0.00000000000E+00 -0.00000000000E+00 -0.33405348743E+02  0.33405348840E+02  0.25500000000E-02 0. -1.
    5000001    1    1    2    0    0 -0.16749109614E+03 -0.82124738951E+02  0.98789052056E+03  0.10133382558E+04  0.12700000000E+03 0.  0.
   -5000001    1    1    2    0    0  0.16749109614E+03  0.82124738951E+02  0.59492650639E+03  0.63628946875E+03  0.12700000000E+03 0.  0.
<mgrwt>
<rscale>  0 0.46471700E+03</rscale>
<asrwt>0</asrwt>
<pdfrwt beam="1">  1        2 0.23088903E+00 0.46471700E+03</pdfrwt>
<pdfrwt beam="2">  1       -2 0.47721903E-02 0.46471700E+03</pdfrwt>
<totfact> 0.28621634E+03</totfact>
</mgrwt>
</event>
<event>
 4    1  0.4895160E-005  0.4413685E+03  0.7818608E-02  0.1030328E+00
          2   -1    0    0  501    0  0.00000000000E+00  0.00000000000E+00  0.90889908082E+02  0.90889908118E+02  0.25500000000E-02 0.  1.
         -2   -1    0    0    0  501 -0.00000000000E+00 -0.00000000000E+00 -0.53583002225E+03  0.53583002226E+03  0.25500000000E-02 0. -1.
    5000001    1    1    2    0    0 -0.38574163850E+02  0.17093003566E+03 -0.28383244636E+03  0.35692422279E+03  0.12700000000E+03 0.  0.
   -5000001    1    1    2    0    0  0.38574163850E+02 -0.17093003566E+03 -0.16110766781E+03  0.26979570759E+03  0.12700000000E+03 0.  0.
<mgrwt>
<rscale>  0 0.44136851E+03</rscale>
<asrwt>0</asrwt>
<pdfrwt beam="1">  1        2 0.12984273E-01 0.44136851E+03</pdfrwt>
<pdfrwt beam="2">  1       -2 0.76547145E-01 0.44136851E+03</pdfrwt>
<totfact> 0.73398102E+02</totfact>
</mgrwt>
</event>
<event>
 4    1  0.4895160E-005  0.3478458E+03  0.7818608E-02  0.1063503E+00
         -2   -1    0    0    0  501 -0.00000000000E+00  0.00000000000E+00  0.19333826709E+02  0.19333826877E+02  0.25500000000E-02 0. -1.
          2   -1    0    0  501    0  0.00000000000E+00 -0.00000000000E+00 -0.15645729561E+04  0.15645729561E+04  0.25500000000E-02 0.  1.
    5000001    1    1    2    0    0 -0.10661721081E+03  0.12499262081E+02 -0.10046556211E+04  0.10183247902E+04  0.12700000000E+03 0.  0.
   -5000001    1    1    2    0    0  0.10661721081E+03 -0.12499262081E+02 -0.54058350828E+03  0.56558199284E+03  0.12700000000E+03 0.  0.
<mgrwt>
<rscale>  0 0.34784584E+03</rscale>
<asrwt>0</asrwt>
<pdfrwt beam="1">  1        2 0.22351034E+00 0.34784584E+03</pdfrwt>
<pdfrwt beam="2">  1       -2 0.27619763E-02 0.34784584E+03</pdfrwt>
<totfact> 0.69599396E+03</totfact>
</mgrwt>
</event>
<event>
 4    1  0.4895160E-005  0.5108662E+03  0.7818608E-02  0.1010981E+00
          2   -1    0    0  501    0  0.00000000000E+00  0.00000000000E+00  0.37789929509E+03  0.37789929510E+03  0.25500000000E-02 0.  1.
         -2   -1    0    0    0  501 -0.00000000000E+00 -0.00000000000E+00 -0.17265463487E+03  0.17265463489E+03  0.25500000000E-02 0. -1.
    5000001    1    1    2    0    0 -0.10866889583E+03  0.16898876479E+03  0.18085507902E+01  0.23769392589E+03  0.12700000000E+03 0.  0.
   -5000001    1    1    2    0    0  0.10866889583E+03 -0.16898876479E+03  0.20343610943E+03  0.31286000410E+03  0.12700000000E+03 0.  0.
<mgrwt>
<rscale>  0 0.51086619E+03</rscale>
<asrwt>0</asrwt>
<pdfrwt beam="1">  1        2 0.53985613E-01 0.51086619E+03</pdfrwt>
<pdfrwt beam="2">  1       -2 0.24664948E-01 0.51086619E+03</pdfrwt>
<totfact> 0.13513931E+03</totfact>
</mgrwt>
</event>
<event>
 4    1  0.4895160E-005  0.3822646E+03  0.7818608E-02  0.1050100E+00
         -2   -1    0    0    0  501 -0.00000000000E+00  0.00000000000E+00  0.30034705978E+02  0.30034706087E+02  0.25500000000E-02 0. -1.
          2   -1    0    0  501    0  0.00000000000E+00 -0.00000000000E+00 -0.12163111968E+04  0.12163111968E+04  0.25500000000E-02 0.  1.
    5000001    1    1    2    0    0 -0.12873702596E+03  0.61310647371E+02 -0.62048153412E+03  0.64919839149E+03  0.12700000000E+03 0.  0.
   -5000001    1    1    2    0    0  0.12873702596E+03 -0.61310647371E+02 -0.56579495668E+03  0.59714751138E+03  0.12700000000E+03 0.  0.
<mgrwt>
<rscale>  0 0.38226456E+03</rscale>
<asrwt>0</asrwt>
<pdfrwt beam="1">  1        2 0.17375871E+00 0.38226456E+03</pdfrwt>
<pdfrwt beam="2">  1       -2 0.42906731E-02 0.38226456E+03</pdfrwt>
<totfact> 0.54549636E+03</totfact>
</mgrwt>
</event>
<event>
 4    1  0.4895160E-005  0.3492487E+03  0.7818608E-02  0.1062924E+00
          2   -1    0    0  501    0  0.00000000000E+00  0.00000000000E+00  0.23304056135E+03  0.23304056136E+03  0.25500000000E-02 0.  1.
         -2   -1    0    0    0  501 -0.00000000000E+00 -0.00000000000E+00 -0.13085132602E+03  0.13085132604E+03  0.25500000000E-02 0. -1.
    5000001    1    1    2    0    0 -0.98045289275E+02 -0.25867091490E+02  0.11766948274E+03  0.20064170140E+03  0.12700000000E+03 0.  0.
   -5000001    1    1    2    0    0  0.98045289275E+02  0.25867091490E+02 -0.15480247415E+02  0.16325018601E+03  0.12700000000E+03 0.  0.
<mgrwt>
<rscale>  0 0.34924872E+03</rscale>
<asrwt>0</asrwt>
<pdfrwt beam="1">  1        2 0.33291508E-01 0.34924872E+03</pdfrwt>
<pdfrwt beam="2">  1       -2 0.18693047E-01 0.34924872E+03</pdfrwt>
<totfact> 0.37037763E+03</totfact>
</mgrwt>
</event>
<event>
 4    1  0.4895160E-005  0.3199899E+03  0.7818608E-02  0.1075654E+00
          2   -1    0    0  501    0  0.00000000000E+00  0.00000000000E+00  0.23647029615E+04  0.23647029615E+04  0.25500000000E-02 0.  1.
         -2   -1    0    0    0  501 -0.00000000000E+00 -0.00000000000E+00 -0.10825201015E+02  0.10825201316E+02  0.25500000000E-02 0. -1.
    5000001    1    1    2    0    0 -0.34713638197E+02  0.90904816970E+02  0.11829828998E+04  0.11937530162E+04  0.12700000000E+03 0.  0.
   -5000001    1    1    2    0    0  0.34713638197E+02 -0.90904816970E+02  0.11708948607E+04  0.11817751466E+04  0.12700000000E+03 0.  0.
<mgrwt>
<rscale>  0 0.31998991E+03</rscale>
<asrwt>0</asrwt>
<pdfrwt beam="1">  1        2 0.33781454E+00 0.31998991E+03</pdfrwt>
<pdfrwt beam="2">  1       -2 0.15464581E-02 0.31998991E+03</pdfrwt>
<totfact> 0.66064060E+03</totfact>
</mgrwt>
</event>
<event>
 4    1  0.4895160E-005  0.4992476E+03  0.7818608E-02  0.1013975E+00
          2   -1    0    0  501    0  0.00000000000E+00  0.00000000000E+00  0.54458700036E+03  0.54458700037E+03  0.25500000000E-02 0.  1.
         -2   -1    0    0    0  501 -0.00000000000E+00 -0.00000000000E+00 -0.11442074295E+03  0.11442074298E+03  0.25500000000E-02 0. -1.
    5000001    1    1    2    0    0 -0.19601900724E+03  0.12541911561E+02  0.99990644899E+02  0.25437743574E+03  0.12700000000E+03 0.  0.
   -5000001    1    1    2    0    0  0.19601900724E+03 -0.12541911561E+02  0.33017561251E+03  0.40463030761E+03  0.12700000000E+03 0.  0.
<mgrwt>
<rscale>  0 0.49924763E+03</rscale>
<asrwt>0</asrwt>
<pdfrwt beam="1">  1        2 0.77798143E-01 0.49924763E+03</pdfrwt>
<pdfrwt beam="2">  1       -2 0.16345820E-01 0.49924763E+03</pdfrwt>
<totfact> 0.18338820E+03</totfact>
</mgrwt>
</event>
<event>
 4    1  0.4895160E-005  0.3730166E+03  0.7818608E-02  0.1053545E+00
         -2   -1    0    0    0  501 -0.00000000000E+00  0.00000000000E+00  0.13404904649E+03  0.13404904652E+03  0.25500000000E-02 0. -1.
          2   -1    0    0  501    0  0.00000000000E+00 -0.00000000000E+00 -0.25949710543E+03  0.25949710544E+03  0.25500000000E-02 0.  1.
    5000001    1    1    2    0    0 -0.46598655343E+02 -0.48688425025E+02  0.62618331694E+02  0.15681853486E+03  0.12700000000E+03 0.  0.
   -5000001    1    1    2    0    0  0.46598655343E+02  0.48688425025E+02 -0.18806639063E+03  0.23672761709E+03  0.12700000000E+03 0.  0.
<mgrwt>
<rscale>  0 0.37301657E+03</rscale>
<asrwt>0</asrwt>
<pdfrwt beam="1">  1        2 0.37071015E-01 0.37301657E+03</pdfrwt>
<pdfrwt beam="2">  1       -2 0.19149864E-01 0.37301657E+03</pdfrwt>
<totfact> 0.31635480E+03</totfact>
</mgrwt>
</event>
<event>
 4    1  0.4895160E-005  0.4496618E+03  0.7818608E-02  0.1027823E+00
          2   -1    0    0  501    0  0.00000000000E+00  0.00000000000E+00  0.11027809348E+04  0.11027809348E+04  0.25500000000E-02 0.  1.
         -2   -1    0    0    0  501 -0.00000000000E+00 -0.00000000000E+00 -0.45837689703E+02  0.45837689774E+02  0.25500000000E-02 0. -1.
    5000001    1    1    2    0    0 -0.69299582534E+02  0.12175325050E+03  0.83916175336E+03  0.86020214744E+03  0.12700000000E+03 0.  0.
   -5000001    1    1    2    0    0  0.69299582534E+02 -0.12175325050E+03  0.21778149175E+03  0.28841647715E+03  0.12700000000E+03 0.  0.
<mgrwt>
<rscale>  0 0.44966179E+03</rscale>
<asrwt>0</asrwt>
<pdfrwt beam="1">  1        2 0.15754011E+00 0.44966179E+03</pdfrwt>
<pdfrwt beam="2">  1       -2 0.65482422E-02 0.44966179E+03</pdfrwt>
<totfact> 0.32950115E+03</totfact>
</mgrwt>
</event>
<event>
 4    1  0.4895160E-005  0.3379189E+03  0.7818608E-02  0.1067686E+00
         -2   -1    0    0    0  501 -0.00000000000E+00  0.00000000000E+00  0.24331591536E+02  0.24331591670E+02  0.25500000000E-02 0. -1.
          2   -1    0    0  501    0  0.00000000000E+00 -0.00000000000E+00 -0.11732602478E+04  0.11732602478E+04  0.25500000000E-02 0.  1.
    5000001    1    1    2    0    0 -0.37851184517E+02  0.10267993720E+03 -0.64900746199E+03  0.67031005318E+03  0.12700000000E+03 0.  0.
   -5000001    1    1    2    0    0  0.37851184517E+02 -0.10267993720E+03 -0.49992119428E+03  0.52728178630E+03  0.12700000000E+03 0.  0.
<mgrwt>
<rscale>  0 0.33791886E+03</rscale>
<asrwt>0</asrwt>
<pdfrwt beam="1">  1        2 0.16760857E+00 0.33791886E+03</pdfrwt>
<pdfrwt beam="2">  1       -2 0.34759424E-02 0.33791886E+03</pdfrwt>
<totfact> 0.79076534E+03</totfact>
</mgrwt>
</event>
<event>
 4    1  0.4895160E-005  0.5919509E+03  0.7818608E-02  0.9922248E-01
         -2   -1    0    0    0  501 -0.00000000000E+00  0.00000000000E+00  0.58524777614E+02  0.58524777670E+02  0.25500000000E-02 0. -1.
          2   -1    0    0  501    0  0.00000000000E+00 -0.00000000000E+00 -0.14968268298E+04  0.14968268298E+04  0.25500000000E-02 0.  1.
    5000001    1    1    2    0    0  0.60260279177E+02  0.25845962612E+03 -0.63442571108E+03  0.69932657783E+03  0.12700000000E+03 0.  0.
   -5000001    1    1    2    0    0 -0.60260279177E+02 -0.25845962612E+03 -0.80387634110E+03  0.85602502963E+03  0.12700000000E+03 0.  0.
<mgrwt>
<rscale>  0 0.59195087E+03</rscale>
<asrwt>0</asrwt>
<pdfrwt beam="1">  1        2 0.21383238E+00 0.59195087E+03</pdfrwt>
<pdfrwt beam="2">  1       -2 0.83606834E-02 0.59195087E+03</pdfrwt>
<totfact> 0.13648851E+03</totfact>
</mgrwt>
</event>
<event>
 4    1  0.4895160E-005  0.6425010E+03  0.7818608E-02  0.9820953E-01
          2   -1    0    0  501    0  0.00000000000E+00  0.00000000000E+00  0.34302593987E+04  0.34302593987E+04  0.25500000000E-02 0.  1.
         -2   -1    0    0    0  501 -0.00000000000E+00 -0.00000000000E+00 -0.30085732948E+02  0.30085733056E+02  0.25500000000E-02 0. -1.
    5000001    1    1    2    0    0  0.27546888452E+03 -0.42390156212E+01  0.22693421262E+04  0.22895291572E+04  0.12700000000E+03 0.  0.
   -5000001    1    1    2    0    0 -0.27546888452E+03  0.42390156212E+01  0.11308315395E+04  0.11708159746E+04  0.12700000000E+03 0.  0.
<mgrwt>
<rscale>  0 0.64250095E+03</rscale>
<asrwt>0</asrwt>
<pdfrwt beam="1">  1        2 0.49003721E+00 0.64250095E+03</pdfrwt>
<pdfrwt beam="2">  1       -2 0.42979605E-02 0.64250095E+03</pdfrwt>
<totfact> 0.37237708E+02</totfact>
</mgrwt>
</event>
<event>
 4    1  0.4895160E-005  0.7729731E+03  0.7818608E-02  0.9599983E-01
          2   -1    0    0  501    0  0.00000000000E+00  0.00000000000E+00  0.79412493798E+03  0.79412493798E+03  0.25500000000E-02 0.  1.
         -2   -1    0    0    0  501 -0.00000000000E+00 -0.00000000000E+00 -0.18809618148E+03  0.18809618150E+03  0.25500000000E-02 0. -1.
    5000001    1    1    2    0    0  0.11139193416E+03 -0.33594953572E+03  0.41647502622E+03  0.56111558614E+03  0.12700000000E+03 0.  0.
   -5000001    1    1    2    0    0 -0.11139193416E+03  0.33594953572E+03  0.18955373028E+03  0.42110553334E+03  0.12700000000E+03 0.  0.
<mgrwt>
<rscale>  0 0.77297314E+03</rscale>
<asrwt>0</asrwt>
<pdfrwt beam="1">  1        2 0.11344642E+00 0.77297314E+03</pdfrwt>
<pdfrwt beam="2">  1       -2 0.26870884E-01 0.77297314E+03</pdfrwt>
<totfact> 0.48371610E+02</totfact>
</mgrwt>
</event>
<event>
 4    1  0.4895160E-005  0.3428260E+03  0.7818608E-02  0.1065599E+00
          2   -1    0    0  501    0  0.00000000000E+00  0.00000000000E+00  0.58040006970E+03  0.58040006970E+03  0.25500000000E-02 0.  1.
         -2   -1    0    0    0  501 -0.00000000000E+00 -0.00000000000E+00 -0.50624434149E+02  0.50624434214E+02  0.25500000000E-02 0. -1.
    5000001    1    1    2    0    0 -0.91743190800E+02 -0.30362518897E+02  0.38005355436E+03  0.41219946603E+03  0.12700000000E+03 0.  0.
   -5000001    1    1    2    0    0  0.91743190800E+02  0.30362518897E+02  0.14972208119E+03  0.21882503789E+03  0.12700000000E+03 0.  0.
<mgrwt>
<rscale>  0 0.34282605E+03</rscale>
<asrwt>0</asrwt>
<pdfrwt beam="1">  1        2 0.82914291E-01 0.34282605E+03</pdfrwt>
<pdfrwt beam="2">  1       -2 0.72320625E-02 0.34282605E+03</pdfrwt>
<totfact> 0.63548545E+03</totfact>
</mgrwt>
</event>
<event>
 4    1  0.4895160E-005  0.3739543E+03  0.7818608E-02  0.1053191E+00
          2   -1    0    0  501    0  0.00000000000E+00  0.00000000000E+00  0.72090447699E+03  0.72090447700E+03  0.25500000000E-02 0.  1.
         -2   -1    0    0    0  501 -0.00000000000E+00 -0.00000000000E+00 -0.48495275815E+02  0.48495275882E+02  0.25500000000E-02 0. -1.
    5000001    1    1    2    0    0 -0.12730353479E+02  0.94018088853E+02  0.54019521933E+03  0.56297543278E+03  0.12700000000E+03 0.  0.
   -5000001    1    1    2    0    0  0.12730353479E+02 -0.94018088853E+02  0.13221398185E+03  0.20642432010E+03  0.12700000000E+03 0.  0.
<mgrwt>
<rscale>  0 0.37395434E+03</rscale>
<asrwt>0</asrwt>
<pdfrwt beam="1">  1        2 0.10298635E+00 0.37395434E+03</pdfrwt>
<pdfrwt beam="2">  1       -2 0.69278967E-02 0.37395434E+03</pdfrwt>
<totfact> 0.52773375E+03</totfact>
</mgrwt>
</event>
<event>
 4    1  0.4895160E-005  0.3859912E+03  0.7818608E-02  0.1048741E+00
          2   -1    0    0  501    0  0.00000000000E+00  0.00000000000E+00  0.23958709936E+03  0.23958709937E+03  0.25500000000E-02 0.  1.
         -2   -1    0    0    0  501 -0.00000000000E+00 -0.00000000000E+00 -0.15546452973E+03  0.15546452975E+03  0.25500000000E-02 0. -1.
    5000001    1    1    2    0    0 -0.57703308612E+02  0.87964634915E+02  0.14466848020E+03  0.21937506236E+03  0.12700000000E+03 0.  0.
   -5000001    1    1    2    0    0  0.57703308612E+02 -0.87964634915E+02 -0.60545910578E+02  0.17567656676E+03  0.12700000000E+03 0.  0.
<mgrwt>
<rscale>  0 0.38599117E+03</rscale>
<asrwt>0</asrwt>
<pdfrwt beam="1">  1        2 0.34226728E-01 0.38599117E+03</pdfrwt>
<pdfrwt beam="2">  1       -2 0.22209219E-01 0.38599117E+03</pdfrwt>
<totfact> 0.26734270E+03</totfact>
</mgrwt>
</event>
<event>
 4    1  0.4895160E-005  0.5450459E+03  0.7818608E-02  0.1002647E+00
         -2   -1    0    0    0  501 -0.00000000000E+00  0.00000000000E+00  0.44473401069E+03  0.44473401070E+03  0.25500000000E-02 0. -1.
          2   -1    0    0  501    0  0.00000000000E+00 -0.00000000000E+00 -0.16699587483E+03  0.16699587485E+03  0.25500000000E-02 0.  1.
    5000001    1    1    2    0    0 -0.23215768371E+03 -0.52397903834E+02  0.18229405526E+03  0.32558079337E+03  0.12700000000E+03 0.  0.
   -5000001    1    1    2    0    0  0.23215768371E+03  0.52397903834E+02  0.95444080596E+02  0.28614909217E+03  0.12700000000E+03 0.  0.
<mgrwt>
<rscale>  0 0.54504585E+03</rscale>
<asrwt>0</asrwt>
<pdfrwt beam="1">  1        2 0.23856554E-01 0.54504585E+03</pdfrwt>
<pdfrwt beam="2">  1       -2 0.63533429E-01 0.54504585E+03</pdfrwt>
<totfact> 0.53459744E+02</totfact>
</mgrwt>
</event>
<event>
 4    1  0.4895160E-005  0.3337282E+03  0.7818608E-02  0.1069499E+00
         -2   -1    0    0    0  501 -0.00000000000E+00  0.00000000000E+00  0.18309155885E+03  0.18309155887E+03  0.25500000000E-02 0. -1.
          2   -1    0    0  501    0  0.00000000000E+00 -0.00000000000E+00 -0.15207489610E+03  0.15207489612E+03  0.25500000000E-02 0.  1.
    5000001    1    1    2    0    0  0.87717067701E+02 -0.53764343802E+02  0.49264807341E+02  0.17070708794E+03  0.12700000000E+03 0.  0.
   -5000001    1    1    2    0    0 -0.87717067701E+02  0.53764343802E+02 -0.18248144594E+02  0.16445936705E+03  0.12700000000E+03 0.  0.
<mgrwt>
<rscale>  0 0.33372821E+03</rscale>
<asrwt>0</asrwt>
<pdfrwt beam="1">  1        2 0.21724985E-01 0.33372821E+03</pdfrwt>
<pdfrwt beam="2">  1       -2 0.26155937E-01 0.33372821E+03</pdfrwt>
<totfact> 0.33188372E+03</totfact>
</mgrwt>
</event>
<event>
 4    1  0.4895160E-005  0.3179445E+03  0.7818608E-02  0.1076599E+00
         -2   -1    0    0    0  501 -0.00000000000E+00  0.00000000000E+00  0.10274423578E+02  0.10274423894E+02  0.25500000000E-02 0. -1.
          2   -1    0    0  501    0  0.00000000000E+00 -0.00000000000E+00 -0.24597168879E+04  0.24597168879E+04  0.25500000000E-02 0.  1.
    5000001    1    1    2    0    0 -0.95541245255E+02 -0.58195198986E-01 -0.11945927394E+04  0.12051178142E+04  0.12700000000E+03 0.  0.
   -5000001    1    1    2    0    0  0.95541245255E+02  0.58195198986E-01 -0.12548497249E+04  0.12648734976E+04  0.12700000000E+03 0.  0.
<mgrwt>
<rscale>  0 0.31794448E+03</rscale>
<asrwt>0</asrwt>
<pdfrwt beam="1">  1        2 0.35138775E+00 0.31794448E+03</pdfrwt>
<pdfrwt beam="2">  1       -2 0.14677764E-02 0.31794448E+03</pdfrwt>
<totfact> 0.63964768E+03</totfact>
</mgrwt>
</event>
<event>
 4    1  0.4895160E-005  0.1224698E+04  0.7818608E-02  0.9091509E-01
          2   -1    0    0  501    0  0.00000000000E+00  0.00000000000E+00  0.26017576510E+04  0.26017576510E+04  0.25500000000E-02 0.  1.
         -2   -1    0    0    0  501 -0.00000000000E+00 -0.00000000000E+00 -0.14412237843E+03  0.14412237845E+03  0.25500000000E-02 0. -1.
    5000001    1    1    2    0    0 -0.45563184626E+02  0.59729131815E+03  0.12357566205E+04  0.13791505892E+04  0.12700000000E+03 0.  0.
   -5000001    1    1    2    0    0  0.45563184626E+02 -0.59729131815E+03  0.12218786521E+04  0.13667294403E+04  0.12700000000E+03 0.  0.
<mgrwt>
<rscale>  0 0.12246983E+04</rscale>
<asrwt>0</asrwt>
<pdfrwt beam="1">  1        2 0.37167968E+00 0.12246983E+04</pdfrwt>
<pdfrwt beam="2">  1       -2 0.20588911E-01 0.12246983E+04</pdfrwt>
<totfact> 0.78314798E+01</totfact>
</mgrwt>
</event>
<event>
 4    1  0.4895160E-005  0.3431270E+03  0.7818608E-02  0.1065472E+00
         -2   -1    0    0    0  501 -0.00000000000E+00  0.00000000000E+00  0.19576995078E+02  0.19576995244E+02  0.25500000000E-02 0. -1.
          2   -1    0    0  501    0  0.00000000000E+00 -0.00000000000E+00 -0.15035015623E+04  0.15035015623E+04  0.25500000000E-02 0.  1.
    5000001    1    1    2    0    0 -0.65811239431E+02 -0.63621385806E+02 -0.10535104922E+04  0.10650784746E+04  0.12700000000E+03 0.  0.
   -5000001    1    1    2    0    0  0.65811239431E+02  0.63621385806E+02 -0.43041407507E+03  0.45800008295E+03  0.12700000000E+03 0.  0.
<mgrwt>
<rscale>  0 0.34312705E+03</rscale>
<asrwt>0</asrwt>
<pdfrwt beam="1">  1        2 0.21478586E+00 0.34312705E+03</pdfrwt>
<pdfrwt beam="2">  1       -2 0.27967146E-02 0.34312705E+03</pdfrwt>
<totfact> 0.73350734E+03</totfact>
</mgrwt>
</event>
<event>
 4    1  0.4895160E-005  0.6760581E+03  0.7818608E-02  0.9759075E-01
          2   -1    0    0  501    0  0.00000000000E+00  0.00000000000E+00  0.25219872702E+03  0.25219872703E+03  0.25500000000E-02 0.  1.
         -2   -1    0    0    0  501 -0.00000000000E+00 -0.00000000000E+00 -0.45306988196E+03  0.45306988196E+03  0.25500000000E-02 0. -1.
    5000001    1    1    2    0    0  0.25920082385E+03 -0.11163232084E+03  0.41409149846E+02  0.31223478319E+03  0.12700000000E+03 0.  0.
   -5000001    1    1    2    0    0 -0.25920082385E+03  0.11163232084E+03 -0.24228030478E+03  0.39303382581E+03  0.12700000000E+03 0.  0.
<mgrwt>
<rscale>  0 0.67605813E+03</rscale>
<asrwt>0</asrwt>
<pdfrwt beam="1">  1        2 0.36028390E-01 0.67605813E+03</pdfrwt>
<pdfrwt beam="2">  1       -2 0.64724268E-01 0.67605813E+03</pdfrwt>
<totfact> 0.32195309E+02</totfact>
</mgrwt>
</event>
<event>
 4    1  0.4895160E-005  0.4079221E+03  0.7818608E-02  0.1041071E+00
         -2   -1    0    0    0  501 -0.00000000000E+00  0.00000000000E+00  0.46511731625E+02  0.46511731695E+02  0.25500000000E-02 0. -1.
          2   -1    0    0  501    0  0.00000000000E+00 -0.00000000000E+00 -0.89440043095E+03  0.89440043096E+03  0.25500000000E-02 0.  1.
    5000001    1    1    2    0    0 -0.12988044568E+03 -0.62621275001E+02 -0.26613600876E+03  0.32824949263E+03  0.12700000000E+03 0.  0.
   -5000001    1    1    2    0    0  0.12988044568E+03  0.62621275001E+02 -0.58175269057E+03  0.61266267002E+03  0.12700000000E+03 0.  0.
<mgrwt>
<rscale>  0 0.40792211E+03</rscale>
<asrwt>0</asrwt>
<pdfrwt beam="1">  1        2 0.12777148E+00 0.40792211E+03</pdfrwt>
<pdfrwt beam="2">  1       -2 0.66445336E-02 0.40792211E+03</pdfrwt>
<totfact> 0.42989099E+03</totfact>
</mgrwt>
</event>
<event>
 4    1  0.4895160E-005  0.3254010E+03  0.7818608E-02  0.1073190E+00
         -2   -1    0    0    0  501 -0.00000000000E+00  0.00000000000E+00  0.85727999370E+03  0.85727999371E+03  0.25500000000E-02 0. -1.
          2   -1    0    0  501    0  0.00000000000E+00 -0.00000000000E+00 -0.30878415069E+02  0.30878415175E+02  0.25500000000E-02 0.  1.
    5000001    1    1    2    0    0 -0.48711049357E+02 -0.78430802387E+02  0.29681412592E+03  0.33578532195E+03  0.12700000000E+03 0.  0.
   -5000001    1    1    2    0    0  0.48711049357E+02  0.78430802387E+02  0.52958745271E+03  0.55237308693E+03  0.12700000000E+03 0.  0.
<mgrwt>
<rscale>  0 0.32540097E+03</rscale>
<asrwt>0</asrwt>
<pdfrwt beam="1">  1        2 0.44112016E-02 0.32540097E+03</pdfrwt>
<pdfrwt beam="2">  1       -2 0.12246859E+00 0.32540097E+03</pdfrwt>
<totfact> 0.98690762E+02</totfact>
</mgrwt>
</event>
<event>
 4    1  0.4895160E-005  0.4483138E+03  0.7818608E-02  0.1028226E+00
         -2   -1    0    0    0  501 -0.00000000000E+00  0.00000000000E+00  0.28307062171E+02  0.28307062286E+02  0.25500000000E-02 0. -1.
          2   -1    0    0  501    0  0.00000000000E+00 -0.00000000000E+00 -0.17750455049E+04  0.17750455049E+04  0.25500000000E-02 0.  1.
    5000001    1    1    2    0    0  0.47985079835E+02 -0.17736032707E+03 -0.79725207326E+03  0.82794874348E+03  0.12700000000E+03 0.  0.
   -5000001    1    1    2    0    0 -0.47985079835E+02  0.17736032707E+03 -0.94948636948E+03  0.97540382372E+03  0.12700000000E+03 0.  0.
<mgrwt>
<rscale>  0 0.44831383E+03</rscale>
<asrwt>0</asrwt>
<pdfrwt beam="1">  1        2 0.25357786E+00 0.44831383E+03</pdfrwt>
<pdfrwt beam="2">  1       -2 0.40438671E-02 0.44831383E+03</pdfrwt>
<totfact> 0.30690792E+03</totfact>
</mgrwt>
</event>
<event>
 4    1  0.4895160E-005  0.9569545E+03  0.7818608E-02  0.9357059E-01
         -2   -1    0    0    0  501 -0.00000000000E+00  0.00000000000E+00  0.31912754754E+03  0.31912754755E+03  0.25500000000E-02 0. -1.
          2   -1    0    0  501    0  0.00000000000E+00 -0.00000000000E+00 -0.71739483684E+03  0.71739483684E+03  0.25500000000E-02 0.  1.
    5000001    1    1    2    0    0 -0.20497848197E+03  0.19650763642E+03  0.19466147988E+03  0.36695166029E+03  0.12700000000E+03 0.  0.
   -5000001    1    1    2    0    0  0.20497848197E+03 -0.19650763642E+03 -0.59292876919E+03  0.66957072410E+03  0.12700000000E+03 0.  0.
<mgrwt>
<rscale>  0 0.95695445E+03</rscale>
<asrwt>0</asrwt>
<pdfrwt beam="1">  1        2 0.10248498E+00 0.95695445E+03</pdfrwt>
<pdfrwt beam="2">  1       -2 0.45589650E-01 0.95695445E+03</pdfrwt>
<totfact> 0.19912134E+02</totfact>
</mgrwt>
</event>
<event>
 4    1  0.4895160E-005  0.2910756E+03  0.7818608E-02  0.1089789E+00
         -2   -1    0    0    0  501 -0.00000000000E+00  0.00000000000E+00  0.17225697886E+04  0.17225697886E+04  0.25500000000E-02 0. -1.
          2   -1    0    0  501    0  0.00000000000E+00 -0.00000000000E+00 -0.12296307481E+02  0.12296307745E+02  0.25500000000E-02 0.  1.
    5000001    1    1    2    0    0 -0.15008495744E+02 -0.65151189981E+02  0.71131008901E+03  0.72564521305E+03  0.12700000000E+03 0.  0.
   -5000001    1    1    2    0    0  0.15008495744E+02  0.65151189981E+02  0.99896339207E+03  0.10092208832E+04  0.12700000000E+03 0.  0.
<mgrwt>
<rscale>  0 0.29107558E+03</rscale>
<asrwt>0</asrwt>
<pdfrwt beam="1">  1        2 0.17566164E-02 0.29107558E+03</pdfrwt>
<pdfrwt beam="2">  1       -2 0.24608125E+00 0.29107558E+03</pdfrwt>
<totfact> 0.49668920E+02</totfact>
</mgrwt>
</event>
<event>
 4    1  0.4895160E-005  0.4688391E+03  0.7818608E-02  0.1022248E+00
          2   -1    0    0  501    0  0.00000000000E+00  0.00000000000E+00  0.70641892906E+03  0.70641892907E+03  0.25500000000E-02 0.  1.
         -2   -1    0    0    0  501 -0.00000000000E+00 -0.00000000000E+00 -0.77790267318E+02  0.77790267360E+02  0.25500000000E-02 0. -1.
    5000001    1    1    2    0    0  0.77258151993E+02 -0.74021814067E+02  0.59106514195E+03  0.61395036692E+03  0.12700000000E+03 0.  0.
   -5000001    1    1    2    0    0 -0.77258151993E+02  0.74021814067E+02  0.37563519793E+02  0.17025882951E+03  0.12700000000E+03 0.  0.
<mgrwt>
<rscale>  0 0.46883907E+03</rscale>
<asrwt>0</asrwt>
<pdfrwt beam="1">  1        2 0.10091699E+00 0.46883907E+03</pdfrwt>
<pdfrwt beam="2">  1       -2 0.11112895E-01 0.46883907E+03</pdfrwt>
<totfact> 0.25576973E+03</totfact>
</mgrwt>
</event>
<event>
 4    1  0.4895160E-005  0.5042239E+03  0.7818608E-02  0.1012682E+00
         -2   -1    0    0    0  501 -0.00000000000E+00  0.00000000000E+00  0.37249870444E+03  0.37249870445E+03  0.25500000000E-02 0. -1.
          2   -1    0    0  501    0  0.00000000000E+00 -0.00000000000E+00 -0.17063262007E+03  0.17063262008E+03  0.25500000000E-02 0.  1.
    5000001    1    1    2    0    0 -0.11379166801E+03 -0.18404116631E+03  0.12757482095E+03  0.28146763499E+03  0.12700000000E+03 0.  0.
   -5000001    1    1    2    0    0  0.11379166801E+03  0.18404116631E+03  0.74291263422E+02  0.26166368954E+03  0.12700000000E+03 0.  0.
<mgrwt>
<rscale>  0 0.50422388E+03</rscale>
<asrwt>0</asrwt>
<pdfrwt beam="1">  1        2 0.24376088E-01 0.50422388E+03</pdfrwt>
<pdfrwt beam="2">  1       -2 0.53214101E-01 0.50422388E+03</pdfrwt>
<totfact> 0.75492564E+02</totfact>
</mgrwt>
</event>
<event>
 4    1  0.4895160E-005  0.3357567E+03  0.7818608E-02  0.1068618E+00
          2   -1    0    0  501    0  0.00000000000E+00  0.00000000000E+00  0.24767987804E+03  0.24767987805E+03  0.25500000000E-02 0.  1.
         -2   -1    0    0    0  501 -0.00000000000E+00 -0.00000000000E+00 -0.11378855539E+03  0.11378855542E+03  0.25500000000E-02 0. -1.
    5000001    1    1    2    0    0 -0.55412713180E+02 -0.93478665460E+02  0.50084026510E+02  0.17448850790E+03  0.12700000000E+03 0.  0.
   -5000001    1    1    2    0    0  0.55412713180E+02  0.93478665460E+02  0.83807296143E+02  0.18697992557E+03  0.12700000000E+03 0.  0.
<mgrwt>
<rscale>  0 0.33575667E+03</rscale>
<asrwt>0</asrwt>
<pdfrwt beam="1">  1        2 0.35382839E-01 0.33575667E+03</pdfrwt>
<pdfrwt beam="2">  1       -2 0.16255508E-01 0.33575667E+03</pdfrwt>
<totfact> 0.43829555E+03</totfact>
</mgrwt>
</event>
<event>
 4    1  0.4895160E-005  0.4368721E+03  0.7818608E-02  0.1031711E+00
          2   -1    0    0  501    0  0.00000000000E+00  0.00000000000E+00  0.43197711797E+03  0.43197711797E+03  0.25500000000E-02 0.  1.
         -2   -1    0    0    0  501 -0.00000000000E+00 -0.00000000000E+00 -0.11045562769E+03  0.11045562772E+03  0.25500000000E-02 0. -1.
    5000001    1    1    2    0    0 -0.15942532672E+03  0.76444135582E+02  0.18315013247E+03  0.28448745436E+03  0.12700000000E+03 0.  0.
   -5000001    1    1    2    0    0  0.15942532672E+03 -0.76444135582E+02  0.13837135781E+03  0.25794529134E+03  0.12700000000E+03 0.  0.
<mgrwt>
<rscale>  0 0.43687208E+03</rscale>
<asrwt>0</asrwt>
<pdfrwt beam="1">  1        2 0.61711017E-01 0.43687208E+03</pdfrwt>
<pdfrwt beam="2">  1       -2 0.15779375E-01 0.43687208E+03</pdfrwt>
<totfact> 0.25227206E+03</totfact>
</mgrwt>
</event>
<event>
 4    1  0.4895160E-005  0.5067231E+03  0.7818608E-02  0.1012039E+00
          2   -1    0    0  501    0  0.00000000000E+00  0.00000000000E+00  0.52335433679E+03  0.52335433680E+03  0.25500000000E-02 0.  1.
         -2   -1    0    0    0  501 -0.00000000000E+00 -0.00000000000E+00 -0.12265507829E+03  0.12265507832E+03  0.25500000000E-02 0. -1.
    5000001    1    1    2    0    0 -0.59876687469E+02  0.20133183560E+03  0.12029243554E+03  0.27334775612E+03  0.12700000000E+03 0.  0.
   -5000001    1    1    2    0    0  0.59876687469E+02 -0.20133183560E+03  0.28040682296E+03  0.37266165900E+03  0.12700000000E+03 0.  0.
<mgrwt>
<rscale>  0 0.50672307E+03</rscale>
<asrwt>0</asrwt>
<pdfrwt beam="1">  1        2 0.74764905E-01 0.50672307E+03</pdfrwt>
<pdfrwt beam="2">  1       -2 0.17522154E-01 0.50672307E+03</pdfrwt>
<totfact> 0.17054920E+03</totfact>
</mgrwt>
</event>
<event>
 4    1  0.4895160E-005  0.3649948E+03  0.7818608E-02  0.1056623E+00
         -2   -1    0    0    0  501 -0.00000000000E+00  0.00000000000E+00  0.18562611174E+03  0.18562611176E+03  0.25500000000E-02 0. -1.
          2   -1    0    0  501    0  0.00000000000E+00 -0.00000000000E+00 -0.17942140832E+03  0.17942140834E+03  0.25500000000E-02 0.  1.
    5000001    1    1    2    0    0 -0.11364808935E+03  0.56192846960E+02 -0.30110489400E+02  0.18195924224E+03  0.12700000000E+03 0.  0.
   -5000001    1    1    2    0    0  0.11364808935E+03 -0.56192846960E+02  0.36315192821E+02  0.18308827787E+03  0.12700000000E+03 0.  0.
<mgrwt>
<rscale>  0 0.36499479E+03</rscale>
<asrwt>0</asrwt>
<pdfrwt beam="1">  1        2 0.25631630E-01 0.36499479E+03</pdfrwt>
<pdfrwt beam="2">  1       -2 0.26518016E-01 0.36499479E+03</pdfrwt>
<totfact> 0.26903553E+03</totfact>
</mgrwt>
</event>
<event>
 4    1  0.4895160E-005  0.3925028E+03  0.7818608E-02  0.1046407E+00
         -2   -1    0    0    0  501 -0.00000000000E+00  0.00000000000E+00  0.64631781841E+02  0.64631781891E+02  0.25500000000E-02 0.  1.
          2   -1    0    0  501    0  0.00000000000E+00 -0.00000000000E+00 -0.59590828674E+03  0.59590828674E+03  0.25500000000E-02 0. -1.
    5000001    1    1    2    0    0 -0.82279065682E+02  0.11196131866E+03 -0.17223494188E+03  0.25514516795E+03  0.12700000000E+03 0.  0.
   -5000001    1    1    2    0    0  0.82279065682E+02 -0.11196131866E+03 -0.35904156302E+03  0.40539490069E+03  0.12700000000E+03 0.  0.
<mgrwt>
<rscale>  0 0.39250281E+03</rscale>
<asrwt>0</asrwt>
<pdfrwt beam="1">  1        2 0.85129752E-01 0.39250281E+03</pdfrwt>
<pdfrwt beam="2">  1       -2 0.92331120E-02 0.39250281E+03</pdfrwt>
<totfact> 0.42069242E+03</totfact>
</mgrwt>
</event>
<event>
 4    1  0.4895160E-005  0.4638159E+03  0.7818608E-02  0.1023680E+00
         -2   -1    0    0    0  501 -0.00000000000E+00  0.00000000000E+00  0.57809312297E+03  0.57809312298E+03  0.25500000000E-02 0. -1.
          2   -1    0    0  501    0  0.00000000000E+00 -0.00000000000E+00 -0.93032229585E+02  0.93032229620E+02  0.25500000000E-02 0.  1.
    5000001    1    1    2    0    0  0.17378638155E+03  0.86294126686E+02  0.23966946358E+03  0.33349487925E+03  0.12700000000E+03 0.  0.
   -5000001    1    1    2    0    0 -0.17378638155E+03 -0.86294126686E+02  0.24539142981E+03  0.33763047335E+03  0.12700000000E+03 0.  0.
<mgrwt>
<rscale>  0 0.46381588E+03</rscale>
<asrwt>0</asrwt>
<pdfrwt beam="1">  1        2 0.13290318E-01 0.46381588E+03</pdfrwt>
<pdfrwt beam="2">  1       -2 0.82584733E-01 0.46381588E+03</pdfrwt>
<totfact> 0.60257590E+02</totfact>
</mgrwt>
</event>
<event>
 4    1  0.4895160E-005  0.3324335E+03  0.7818608E-02  0.1070065E+00
         -2   -1    0    0    0  501 -0.00000000000E+00  0.00000000000E+00  0.85574577183E+02  0.85574577221E+02  0.25500000000E-02 0. -1.
          2   -1    0    0  501    0  0.00000000000E+00 -0.00000000000E+00 -0.32285291893E+03  0.32285291894E+03  0.25500000000E-02 0.  1.
    5000001    1    1    2    0    0 -0.73136160050E+02  0.72932900745E+02 -0.15405387374E+03  0.22478812676E+03  0.12700000000E+03 0.  0.
   -5000001    1    1    2    0    0  0.73136160050E+02 -0.72932900745E+02 -0.83224468003E+02  0.18363936940E+03  0.12700000000E+03 0.  0.
<mgrwt>
<rscale>  0 0.33243346E+03</rscale>
<asrwt>0</asrwt>
<pdfrwt beam="1">  1        2 0.46121845E-01 0.33243346E+03</pdfrwt>
<pdfrwt beam="2">  1       -2 0.12224940E-01 0.33243346E+03</pdfrwt>
<totfact> 0.52574513E+03</totfact>
</mgrwt>
</event>
<event>
 4    1  0.4895160E-005  0.3082014E+03  0.7818608E-02  0.1081211E+00
          2   -1    0    0  501    0  0.00000000000E+00  0.00000000000E+00  0.10148747260E+04  0.10148747260E+04  0.25500000000E-02 0.  1.
         -2   -1    0    0    0  501 -0.00000000000E+00 -0.00000000000E+00 -0.23398969517E+02  0.23398969656E+02  0.25500000000E-02 0. -1.
    5000001    1    1    2    0    0 -0.83419088303E+02 -0.14056648635E+02  0.42335228758E+03  0.45001388097E+03  0.12700000000E+03 0.  0.
   -5000001    1    1    2    0    0  0.83419088303E+02  0.14056648635E+02  0.56812346893E+03  0.58825981472E+03  0.12700000000E+03 0.  0.
<mgrwt>
<rscale>  0 0.30820138E+03</rscale>
<asrwt>0</asrwt>
<pdfrwt beam="1">  1        2 0.14498214E+00 0.30820138E+03</pdfrwt>
<pdfrwt beam="2">  1       -2 0.33427092E-02 0.30820138E+03</pdfrwt>
<totfact> 0.10296950E+04</totfact>
</mgrwt>
</event>
<event>
 4    1  0.4895160E-005  0.5974867E+03  0.7818608E-02  0.9910634E-01
         -2   -1    0    0    0  501 -0.00000000000E+00  0.00000000000E+00  0.16840673058E+03  0.16840673060E+03  0.25500000000E-02 0. -1.
          2   -1    0    0  501    0  0.00000000000E+00 -0.00000000000E+00 -0.52995271321E+03  0.52995271321E+03  0.25500000000E-02 0.  1.
    5000001    1    1    2    0    0 -0.24869028193E+03  0.10288443566E+03 -0.21139853257E+03  0.36503479697E+03  0.12700000000E+03 0.  0.
   -5000001    1    1    2    0    0  0.24869028193E+03 -0.10288443566E+03 -0.15014745006E+03  0.33332464683E+03  0.12700000000E+03 0.  0.
<mgrwt>
<rscale>  0 0.59748675E+03</rscale>
<asrwt>0</asrwt>
<pdfrwt beam="1">  1        2 0.75707529E-01 0.59748675E+03</pdfrwt>
<pdfrwt beam="2">  1       -2 0.24058105E-01 0.59748675E+03</pdfrwt>
<totfact> 0.96660841E+02</totfact>
</mgrwt>
</event>
<event>
 4    1  0.4895160E-005  0.3662596E+03  0.7818608E-02  0.1056132E+00
          2   -1    0    0  501    0  0.00000000000E+00  0.00000000000E+00  0.12447290127E+04  0.12447290127E+04  0.25500000000E-02 0.  1.
         -2   -1    0    0    0  501 -0.00000000000E+00 -0.00000000000E+00 -0.26942837276E+02  0.26942837396E+02  0.25500000000E-02 0. -1.
    5000001    1    1    2    0    0  0.91329472495E+02  0.74808731024E+02  0.40436273327E+03  0.43997231600E+03  0.12700000000E+03 0.  0.
   -5000001    1    1    2    0    0 -0.91329472495E+02 -0.74808731024E+02  0.81342344211E+03  0.83169953407E+03  0.12700000000E+03 0.  0.
<mgrwt>
<rscale>  0 0.36625964E+03</rscale>
<asrwt>0</asrwt>
<pdfrwt beam="1">  1        2 0.17781843E+00 0.36625964E+03</pdfrwt>
<pdfrwt beam="2">  1       -2 0.38489768E-02 0.36625964E+03</pdfrwt>
<totfact> 0.62046734E+03</totfact>
</mgrwt>
</event>
<event>
 4    1  0.4895160E-005  0.6591356E+03  0.7818608E-02  0.9789786E-01
         -2   -1    0    0    0  501 -0.00000000000E+00  0.00000000000E+00  0.12176923150E+03  0.12176923153E+03  0.25500000000E-02 0. -1.
          2   -1    0    0  501    0  0.00000000000E+00 -0.00000000000E+00 -0.89197360798E+03  0.89197360798E+03  0.25500000000E-02 0.  1.
    5000001    1    1    2    0    0 -0.10833570202E+03  0.28416417284E+03 -0.38540715694E+03  0.50710312372E+03  0.12700000000E+03 0.  0.
   -5000001    1    1    2    0    0  0.10833570202E+03 -0.28416417284E+03 -0.38479721953E+03  0.50663971579E+03  0.12700000000E+03 0.  0.
<mgrwt>
<rscale>  0 0.65913562E+03</rscale>
<asrwt>0</asrwt>
<pdfrwt beam="1">  1        2 0.12742480E+00 0.65913562E+03</pdfrwt>
<pdfrwt beam="2">  1       -2 0.17395605E-01 0.65913562E+03</pdfrwt>
<totfact> 0.89856801E+02</totfact>
</mgrwt>
</event>
<event>
 4    1  0.4895160E-005  0.3036518E+03  0.7818608E-02  0.1083429E+00
         -2   -1    0    0    0  501 -0.00000000000E+00  0.00000000000E+00  0.15159269856E+03  0.15159269858E+03  0.25500000000E-02 0. -1.
          2   -1    0    0  501    0  0.00000000000E+00 -0.00000000000E+00 -0.15205948509E+03  0.15205948511E+03  0.25500000000E-02 0.  1.
    5000001    1    1    2    0    0  0.61451028666E+02  0.16487149785E+02 -0.53843648365E+02  0.15190850372E+03  0.12700000000E+03 0.  0.
   -5000001    1    1    2    0    0 -0.61451028666E+02 -0.16487149785E+02  0.53376861837E+02  0.15174367997E+03  0.12700000000E+03 0.  0.
<mgrwt>
<rscale>  0 0.30365182E+03</rscale>
<asrwt>0</asrwt>
<pdfrwt beam="1">  1        2 0.21722784E-01 0.30365182E+03</pdfrwt>
<pdfrwt beam="2">  1       -2 0.21656100E-01 0.30365182E+03</pdfrwt>
<totfact> 0.46132997E+03</totfact>
</mgrwt>
</event>
<event>
 4    1  0.4895160E-005  0.3614639E+03  0.7818608E-02  0.1058006E+00
         -2   -1    0    0    0  501 -0.00000000000E+00  0.00000000000E+00  0.13045922711E+02  0.13045922961E+02  0.25500000000E-02 0. -1.
          2   -1    0    0  501    0  0.00000000000E+00 -0.00000000000E+00 -0.25037740101E+04  0.25037740101E+04  0.25500000000E-02 0.  1.
    5000001    1    1    2    0    0 -0.67344394986E+01  0.10540935454E+03 -0.73471784353E+03  0.75305763013E+03  0.12700000000E+03 0.  0.
   -5000001    1    1    2    0    0  0.67344394986E+01 -0.10540935454E+03 -0.17560102439E+04  0.17637623030E+04  0.12700000000E+03 0.  0.
<mgrwt>
<rscale>  0 0.36146393E+03</rscale>
<asrwt>0</asrwt>
<pdfrwt beam="1">  1        2 0.35768169E+00 0.36146393E+03</pdfrwt>
<pdfrwt beam="2">  1       -2 0.18637049E-02 0.36146393E+03</pdfrwt>
<totfact> 0.42701434E+03</totfact>
</mgrwt>
</event>
<event>
 4    1  0.4895160E-005  0.3184059E+03  0.7818608E-02  0.1076385E+00
         -2   -1    0    0    0  501 -0.00000000000E+00  0.00000000000E+00  0.68424101131E+02  0.68424101179E+02  0.25500000000E-02 0.  1.
          2   -1    0    0  501    0  0.00000000000E+00 -0.00000000000E+00 -0.37041886838E+03  0.37041886839E+03  0.25500000000E-02 0. -1.
    5000001    1    1    2    0    0 -0.81641895365E+02 -0.45330904306E+02 -0.12029338022E+03  0.19829217657E+03  0.12700000000E+03 0.  0.
   -5000001    1    1    2    0    0  0.81641895365E+02  0.45330904306E+02 -0.18170138703E+03  0.24055079300E+03  0.12700000000E+03 0.  0.
<mgrwt>
<rscale>  0 0.31840589E+03</rscale>
<asrwt>0</asrwt>
<pdfrwt beam="1">  1        2 0.52916980E-01 0.31840589E+03</pdfrwt>
<pdfrwt beam="2">  1       -2 0.97748719E-02 0.31840589E+03</pdfrwt>
<totfact> 0.64831647E+03</totfact>
</mgrwt>
</event>
<event>
 4    1  0.4895160E-005  0.7395374E+03  0.7818608E-02  0.9651909E-01
         -2   -1    0    0    0  501 -0.00000000000E+00  0.00000000000E+00  0.14316563241E+03  0.14316563244E+03  0.25500000000E-02 0. -1.
          2   -1    0    0  501    0  0.00000000000E+00 -0.00000000000E+00 -0.95503980136E+03  0.95503980136E+03  0.25500000000E-02 0.  1.
    5000001    1    1    2    0    0  0.28363108328E+03  0.18708545250E+03 -0.29934502578E+03  0.47030203316E+03  0.12700000000E+03 0.  0.
   -5000001    1    1    2    0    0 -0.28363108328E+03 -0.18708545250E+03 -0.51252914316E+03  0.62790340064E+03  0.12700000000E+03 0.  0.
<mgrwt>
<rscale>  0 0.73953736E+03</rscale>
<asrwt>0</asrwt>
<pdfrwt beam="1">  1        2 0.13643425E+00 0.73953736E+03</pdfrwt>
<pdfrwt beam="2">  1       -2 0.20452234E-01 0.73953736E+03</pdfrwt>
<totfact> 0.61697929E+02</totfact>
</mgrwt>
</event>
<event>
 4    1  0.4895160E-005  0.3153980E+03  0.7818608E-02  0.1077787E+00
          2   -1    0    0  501    0  0.00000000000E+00  0.00000000000E+00  0.51799375491E+03  0.51799375491E+03  0.25500000000E-02 0. -1.
         -2   -1    0    0    0  501 -0.00000000000E+00 -0.00000000000E+00 -0.48010189449E+02  0.48010189517E+02  0.25500000000E-02 0.  1.
    5000001    1    1    2    0    0  0.22269974067E+02 -0.82043818286E+02  0.16519156633E+03  0.22504309243E+03  0.12700000000E+03 0.  0.
   -5000001    1    1    2    0    0 -0.22269974067E+02  0.82043818286E+02  0.30479199913E+03  0.34096085200E+03  0.12700000000E+03 0.  0.
<mgrwt>
<rscale>  0 0.31539802E+03</rscale>
<asrwt>0</asrwt>
<pdfrwt beam="1">  1        2 0.73999116E-01 0.31539802E+03</pdfrwt>
<pdfrwt beam="2">  1       -2 0.68585977E-02 0.31539802E+03</pdfrwt>
<totfact> 0.78288889E+03</totfact>
</mgrwt>
</event>
<event>
 4    1  0.4895160E-005  0.5103998E+03  0.7818608E-02  0.1011100E+00
         -2   -1    0    0    0  501 -0.00000000000E+00  0.00000000000E+00  0.10743777729E+03  0.10743777732E+03  0.25500000000E-02 0. -1.
          2   -1    0    0  501    0  0.00000000000E+00 -0.00000000000E+00 -0.60618333728E+03  0.60618333728E+03  0.25500000000E-02 0.  1.
    5000001    1    1    2    0    0 -0.16522449159E+03  0.83214219702E+02 -0.41931838347E+03  0.47558453054E+03  0.12700000000E+03 0.  0.
   -5000001    1    1    2    0    0  0.16522449159E+03 -0.83214219702E+02 -0.79427176521E+02  0.23803658406E+03  0.12700000000E+03 0.  0.
<mgrwt>
<rscale>  0 0.51039981E+03</rscale>
<asrwt>0</asrwt>
<pdfrwt beam="1">  1        2 0.86597618E-01 0.51039981E+03</pdfrwt>
<pdfrwt beam="2">  1       -2 0.15348254E-01 0.51039981E+03</pdfrwt>
<totfact> 0.18012529E+03</totfact>
</mgrwt>
</event>
<event>
 4    1  0.4895160E-005  0.5250541E+03  0.7818608E-02  0.1007439E+00
         -2   -1    0    0    0  501 -0.00000000000E+00  0.00000000000E+00  0.10614804072E+03  0.10614804075E+03  0.25500000000E-02 0. -1.
          2   -1    0    0  501    0  0.00000000000E+00 -0.00000000000E+00 -0.64928614881E+03  0.64928614881E+03  0.25500000000E-02 0.  1.
    5000001    1    1    2    0    0 -0.29024372521E+02 -0.17125361674E+03 -0.48796581526E+03  0.53330090222E+03  0.12700000000E+03 0.  0.
   -5000001    1    1    2    0    0  0.29024372521E+02  0.17125361674E+03 -0.55172292825E+02  0.22213328733E+03  0.12700000000E+03 0.  0.
<mgrwt>
<rscale>  0 0.52505410E+03</rscale>
<asrwt>0</asrwt>
<pdfrwt beam="1">  1        2 0.92755162E-01 0.52505410E+03</pdfrwt>
<pdfrwt beam="2">  1       -2 0.15164006E-01 0.52505410E+03</pdfrwt>
<totfact> 0.16947993E+03</totfact>
</mgrwt>
</event>
<event>
 4    1  0.4895160E-005  0.3775963E+03  0.7818608E-02  0.1051826E+00
          2   -1    0    0  501    0  0.00000000000E+00  0.00000000000E+00  0.85453189541E+03  0.85453189541E+03  0.25500000000E-02 0.  1.
         -2   -1    0    0    0  501 -0.00000000000E+00 -0.00000000000E+00 -0.41712582705E+02  0.41712582782E+02  0.25500000000E-02 0. -1.
    5000001    1    1    2    0    0  0.11809575183E+03  0.37614786748E+02  0.55939341301E+03  0.58686580178E+03  0.12700000000E+03 0.  0.
   -5000001    1    1    2    0    0 -0.11809575183E+03 -0.37614786748E+02  0.25342589970E+03  0.30937867641E+03  0.12700000000E+03 0.  0.
<mgrwt>
<rscale>  0 0.37759625E+03</rscale>
<asrwt>0</asrwt>
<pdfrwt beam="1">  1        2 0.12207600E+00 0.37759625E+03</pdfrwt>
<pdfrwt beam="2">  1       -2 0.59589399E-02 0.37759625E+03</pdfrwt>
<totfact> 0.53957315E+03</totfact>
</mgrwt>
</event>
<event>
 4    1  0.4895160E-005  0.4172186E+03  0.7818608E-02  0.1037975E+00
          2   -1    0    0  501    0  0.00000000000E+00  0.00000000000E+00  0.29776037528E+04  0.29776037528E+04  0.25500000000E-02 0.  1.
         -2   -1    0    0    0  501 -0.00000000000E+00 -0.00000000000E+00 -0.14615054832E+02  0.14615055055E+02  0.25500000000E-02 0. -1.
    5000001    1    1    2    0    0 -0.81271537240E+02  0.13780626144E+03  0.11777936897E+04  0.11953755075E+04  0.12700000000E+03 0.  0.
   -5000001    1    1    2    0    0  0.81271537240E+02 -0.13780626144E+03  0.17851950083E+04  0.17968433004E+04  0.12700000000E+03 0.  0.
<mgrwt>
<rscale>  0 0.41721861E+03</rscale>
<asrwt>0</asrwt>
<pdfrwt beam="1">  1        2 0.42537239E+00 0.41721861E+03</pdfrwt>
<pdfrwt beam="2">  1       -2 0.20878629E-02 0.41721861E+03</pdfrwt>
<totfact> 0.20408663E+03</totfact>
</mgrwt>
</event>
<event>
 4    1  0.4895160E-005  0.5156587E+03  0.7818608E-02  0.1009771E+00
          2   -1    0    0  501    0  0.00000000000E+00  0.00000000000E+00  0.80218872790E+03  0.80218872791E+03  0.25500000000E-02 0.  1.
         -2   -1    0    0    0  501 -0.00000000000E+00 -0.00000000000E+00 -0.82868232449E+02  0.82868232488E+02  0.25500000000E-02 0. -1.
    5000001    1    1    2    0    0  0.54436785348E+02 -0.33120678485E+01 -0.13910320064E+02  0.13891303177E+03  0.12700000000E+03 0.  0.
   -5000001    1    1    2    0    0 -0.54436785348E+02  0.33120678485E+01  0.73323081552E+03  0.74614392862E+03  0.12700000000E+03 0.  0.
<mgrwt>
<rscale>  0 0.51565865E+03</rscale>
<asrwt>0</asrwt>
<pdfrwt beam="1">  1        2 0.11459839E+00 0.51565865E+03</pdfrwt>
<pdfrwt beam="2">  1       -2 0.11838319E-01 0.51565865E+03</pdfrwt>
<totfact> 0.19703229E+03</totfact>
</mgrwt>
</event>
<event>
 4    1  0.4895160E-005  0.4863339E+03  0.7818608E-02  0.1017409E+00
         -2   -1    0    0    0  501 -0.00000000000E+00  0.00000000000E+00  0.20846564953E+03  0.20846564955E+03  0.25500000000E-02 0. -1.
          2   -1    0    0  501    0  0.00000000000E+00 -0.00000000000E+00 -0.28364466272E+03  0.28364466273E+03  0.25500000000E-02 0.  1.
    5000001    1    1    2    0    0 -0.21824941293E+02  0.19167846217E+03  0.39367799897E+02  0.23429849464E+03  0.12700000000E+03 0.  0.
   -5000001    1    1    2    0    0  0.21824941293E+02 -0.19167846217E+03 -0.11454681308E+03  0.25781181763E+03  0.12700000000E+03 0.  0.
<mgrwt>
<rscale>  0 0.48633391E+03</rscale>
<asrwt>0</asrwt>
<pdfrwt beam="1">  1        2 0.40520666E-01 0.48633391E+03</pdfrwt>
<pdfrwt beam="2">  1       -2 0.29780807E-01 0.48633391E+03</pdfrwt>
<totfact> 0.13163631E+03</totfact>
</mgrwt>
</event>
<event>
 4    1  0.4895160E-005  0.2994895E+03  0.7818608E-02  0.1085496E+00
          2   -1    0    0  501    0  0.00000000000E+00  0.00000000000E+00  0.31089735958E+04  0.31089735958E+04  0.25500000000E-02 0.  1.
         -2   -1    0    0    0  501 -0.00000000000E+00 -0.00000000000E+00 -0.72125051434E+01  0.72125055942E+01  0.25500000000E-02 0. -1.
    5000001    1    1    2    0    0  0.47192850942E+02  0.61315089239E+02  0.13683378749E+04  0.13763953812E+04  0.12700000000E+03 0.  0.
   -5000001    1    1    2    0    0 -0.47192850942E+02 -0.61315089239E+02  0.17334232157E+04  0.17397907202E+04  0.12700000000E+03 0.  0.
<mgrwt>
<rscale>  0 0.29948949E+03</rscale>
<asrwt>0</asrwt>
<pdfrwt beam="1">  1        2 0.44414002E+00 0.29948949E+03</pdfrwt>
<pdfrwt beam="2">  1       -2 0.10303557E-02 0.29948949E+03</pdfrwt>
<totfact> 0.49499474E+03</totfact>
</mgrwt>
</event>
<event>
 4    1  0.4895160E-005  0.6681185E+03  0.7818608E-02  0.9773363E-01
         -2   -1    0    0    0  501 -0.00000000000E+00  0.00000000000E+00  0.92931916909E+02  0.92931916944E+02  0.25500000000E-02 0. -1.
          2   -1    0    0  501    0  0.00000000000E+00 -0.00000000000E+00 -0.12008314866E+04  0.12008314866E+04  0.25500000000E-02 0.  1.
    5000001    1    1    2    0    0  0.25565702682E+03 -0.45717681893E+02 -0.87806846622E+03  0.92443704663E+03  0.12700000000E+03 0.  0.
   -5000001    1    1    2    0    0 -0.25565702682E+03  0.45717681893E+02 -0.22983110348E+03  0.36932635693E+03  0.12700000000E+03 0.  0.
<mgrwt>
<rscale>  0 0.66811847E+03</rscale>
<asrwt>0</asrwt>
<pdfrwt beam="1">  1        2 0.17154735E+00 0.66811847E+03</pdfrwt>
<pdfrwt beam="2">  1       -2 0.13275989E-01 0.66811847E+03</pdfrwt>
<totfact> 0.92511881E+02</totfact>
</mgrwt>
</event>
<event>
 4    1  0.4895160E-005  0.7709588E+03  0.7818608E-02  0.9603031E-01
         -2   -1    0    0    0  501 -0.00000000000E+00  0.00000000000E+00  0.17246563626E+03  0.17246563627E+03  0.25500000000E-02 0. -1.
          2   -1    0    0  501    0  0.00000000000E+00 -0.00000000000E+00 -0.86158815255E+03  0.86158815256E+03  0.25500000000E-02 0.  1.
    5000001    1    1    2    0    0  0.11784910769E+03 -0.30978468886E+03 -0.14287981041E+03  0.38262070757E+03  0.12700000000E+03 0.  0.
   -5000001    1    1    2    0    0 -0.11784910769E+03  0.30978468886E+03 -0.54624270588E+03  0.65143308127E+03  0.12700000000E+03 0.  0.
<mgrwt>
<rscale>  0 0.77095875E+03</rscale>
<asrwt>0</asrwt>
<pdfrwt beam="1">  1        2 0.12308402E+00 0.77095875E+03</pdfrwt>
<pdfrwt beam="2">  1       -2 0.24637949E-01 0.77095875E+03</pdfrwt>
<totfact> 0.50895004E+02</totfact>
</mgrwt>
</event>
<event>
 4    1  0.4895160E-005  0.3976479E+03  0.7818608E-02  0.1044597E+00
         -2   -1    0    0    0  501 -0.00000000000E+00  0.00000000000E+00  0.47357933381E+02  0.47357933450E+02  0.25500000000E-02 0. -1.
          2   -1    0    0  501    0  0.00000000000E+00 -0.00000000000E+00 -0.83472744824E+03  0.83472744824E+03  0.25500000000E-02 0.  1.
    5000001    1    1    2    0    0  0.89779239166E+02  0.11705308677E+03 -0.48352362876E+03  0.52123491487E+03  0.12700000000E+03 0.  0.
   -5000001    1    1    2    0    0 -0.89779239166E+02 -0.11705308677E+03 -0.30384588609E+03  0.36085046682E+03  0.12700000000E+03 0.  0.
<mgrwt>
<rscale>  0 0.39764792E+03</rscale>
<asrwt>0</asrwt>
<pdfrwt beam="1">  1        2 0.11924677E+00 0.39764792E+03</pdfrwt>
<pdfrwt beam="2">  1       -2 0.67654196E-02 0.39764792E+03</pdfrwt>
<totfact> 0.45690583E+03</totfact>
</mgrwt>
</event>
<event>
 4    1  0.4895160E-005  0.9579849E+03  0.7818608E-02  0.9355866E-01
         -2   -1    0    0    0  501 -0.00000000000E+00  0.00000000000E+00  0.80180653000E+03  0.80180653000E+03  0.25500000000E-02 0. -1.
          2   -1    0    0  501    0  0.00000000000E+00 -0.00000000000E+00 -0.28614606747E+03  0.28614606748E+03  0.25500000000E-02 0.  1.
    5000001    1    1    2    0    0  0.14227214057E+03 -0.42913778536E+03  0.15066636571E+03  0.49318348975E+03  0.12700000000E+03 0.  0.
   -5000001    1    1    2    0    0 -0.14227214057E+03  0.42913778536E+03  0.36499409681E+03  0.59476910773E+03  0.12700000000E+03 0.  0.
<mgrwt>
<rscale>  0 0.95798494E+03</rscale>
<asrwt>0</asrwt>
<pdfrwt beam="1">  1        2 0.40878009E-01 0.95798494E+03</pdfrwt>
<pdfrwt beam="2">  1       -2 0.11454379E+00 0.95798494E+03</pdfrwt>
<totfact> 0.74902458E+01</totfact>
</mgrwt>
</event>
<event>
 4    1  0.4895160E-005  0.3352733E+03  0.7818608E-02  0.1068827E+00
          2   -1    0    0  501    0  0.00000000000E+00  0.00000000000E+00  0.94336479114E+03  0.94336479115E+03  0.25500000000E-02 0.  1.
         -2   -1    0    0    0  501 -0.00000000000E+00 -0.00000000000E+00 -0.29789159964E+02  0.29789160073E+02  0.25500000000E-02 0. -1.
    5000001    1    1    2    0    0  0.70096941060E+02  0.84020388938E+02  0.45622334683E+03  0.48604706469E+03  0.12700000000E+03 0.  0.
   -5000001    1    1    2    0    0 -0.70096941060E+02 -0.84020388938E+02  0.45735228435E+03  0.48710688653E+03  0.12700000000E+03 0.  0.
<mgrwt>
<rscale>  0 0.33527329E+03</rscale>
<asrwt>0</asrwt>
<pdfrwt beam="1">  1        2 0.13476639E+00 0.33527329E+03</pdfrwt>
<pdfrwt beam="2">  1       -2 0.42555945E-02 0.33527329E+03</pdfrwt>
<totfact> 0.79179347E+03</totfact>
</mgrwt>
</event>
<event>
 4    1  0.4895160E-005  0.3894029E+03  0.7818608E-02  0.1047512E+00
          2   -1    0    0  501    0  0.00000000000E+00  0.00000000000E+00  0.40971606188E+03  0.40971606188E+03  0.25500000000E-02 0.  1.
         -2   -1    0    0    0  501 -0.00000000000E+00 -0.00000000000E+00 -0.92524213664E+02  0.92524213699E+02  0.25500000000E-02 0. -1.
    5000001    1    1    2    0    0 -0.58188465791E+02 -0.20468821218E+00 -0.16327147545E+02  0.14064677456E+03  0.12700000000E+03 0.  0.
   -5000001    1    1    2    0    0  0.58188465791E+02  0.20468821218E+00  0.33351899576E+03  0.36159350102E+03  0.12700000000E+03 0.  0.
<mgrwt>
<rscale>  0 0.38940291E+03</rscale>
<asrwt>0</asrwt>
<pdfrwt beam="1">  1        2 0.58530866E-01 0.38940291E+03</pdfrwt>
<pdfrwt beam="2">  1       -2 0.13217745E-01 0.38940291E+03</pdfrwt>
<totfact> 0.35833391E+03</totfact>
</mgrwt>
</event>
<event>
 4    1  0.4895160E-005  0.4495739E+03  0.7818608E-02  0.1027849E+00
          2   -1    0    0  501    0  0.00000000000E+00  0.00000000000E+00  0.15355562820E+03  0.15355562823E+03  0.25500000000E-02 0.  1.
         -2   -1    0    0    0  501 -0.00000000000E+00 -0.00000000000E+00 -0.32906098266E+03  0.32906098267E+03  0.25500000000E-02 0. -1.
    5000001    1    1    2    0    0 -0.17149710555E+03  0.70413302533E+02 -0.81787704805E+02  0.23913912068E+03  0.12700000000E+03 0.  0.
   -5000001    1    1    2    0    0  0.17149710555E+03 -0.70413302533E+02 -0.93717649654E+02  0.24347749021E+03  0.12700000000E+03 0.  0.
<mgrwt>
<rscale>  0 0.44957387E+03</rscale>
<asrwt>0</asrwt>
<pdfrwt beam="1">  1        2 0.21936518E-01 0.44957387E+03</pdfrwt>
<pdfrwt beam="2">  1       -2 0.47008712E-01 0.44957387E+03</pdfrwt>
<totfact> 0.10937243E+03</totfact>
</mgrwt>
</event>
<event>
 4    1  0.4895160E-005  0.5080968E+03  0.7818608E-02  0.1011687E+00
          2   -1    0    0  501    0  0.00000000000E+00  0.00000000000E+00  0.14107140998E+04  0.14107140998E+04  0.25500000000E-02 0.  1.
         -2   -1    0    0    0  501 -0.00000000000E+00 -0.00000000000E+00 -0.45750304780E+02  0.45750304851E+02  0.25500000000E-02 0. -1.
    5000001    1    1    2    0    0  0.58450240832E+02 -0.20567954669E+03  0.83118422751E+03  0.86759248881E+03  0.12700000000E+03 0.  0.
   -5000001    1    1    2    0    0 -0.58450240832E+02  0.20567954669E+03  0.53377956754E+03  0.58887191587E+03  0.12700000000E+03 0.  0.
<mgrwt>
<rscale>  0 0.50809684E+03</rscale>
<asrwt>0</asrwt>
<pdfrwt beam="1">  1        2 0.20153056E+00 0.50809684E+03</pdfrwt>
<pdfrwt beam="2">  1       -2 0.65357586E-02 0.50809684E+03</pdfrwt>
<totfact> 0.22410693E+03</totfact>
</mgrwt>
</event>
<event>
 4    1  0.4895160E-005  0.4513339E+03  0.7818608E-02  0.1027325E+00
         -2   -1    0    0    0  501 -0.00000000000E+00  0.00000000000E+00  0.11908674085E+03  0.11908674087E+03  0.25500000000E-02 0. -1.
          2   -1    0    0  501    0  0.00000000000E+00 -0.00000000000E+00 -0.42763419369E+03  0.42763419369E+03  0.25500000000E-02 0.  1.
    5000001    1    1    2    0    0  0.14790788654E+03 -0.85642418931E+02 -0.63744880404E+02  0.22226960341E+03  0.12700000000E+03 0.  0.
   -5000001    1    1    2    0    0 -0.14790788654E+03  0.85642418931E+02 -0.24480257243E+03  0.32445133116E+03  0.12700000000E+03 0.  0.
<mgrwt>
<rscale>  0 0.45133386E+03</rscale>
<asrwt>0</asrwt>
<pdfrwt beam="1">  1        2 0.61090598E-01 0.45133386E+03</pdfrwt>
<pdfrwt beam="2">  1       -2 0.17012392E-01 0.45133386E+03</pdfrwt>
<totfact> 0.22475954E+03</totfact>
</mgrwt>
</event>
<event>
 4    1  0.4895160E-005  0.4226542E+03  0.7818608E-02  0.1036206E+00
         -2   -1    0    0    0  501 -0.00000000000E+00  0.00000000000E+00  0.20339390121E+03  0.20339390123E+03  0.25500000000E-02 0. -1.
          2   -1    0    0  501    0  0.00000000000E+00 -0.00000000000E+00 -0.21956970839E+03  0.21956970841E+03  0.25500000000E-02 0.  1.
    5000001    1    1    2    0    0  0.14095776655E+03  0.92950083032E+02 -0.34661138577E+01  0.21130504924E+03  0.12700000000E+03 0.  0.
   -5000001    1    1    2    0    0 -0.14095776655E+03 -0.92950083032E+02 -0.12709693321E+02  0.21165856040E+03  0.12700000000E+03 0.  0.
<mgrwt>
<rscale>  0 0.42265418E+03</rscale>
<asrwt>0</asrwt>
<pdfrwt beam="1">  1        2 0.31367101E-01 0.42265418E+03</pdfrwt>
<pdfrwt beam="2">  1       -2 0.29056272E-01 0.42265418E+03</pdfrwt>
<totfact> 0.18245175E+03</totfact>
</mgrwt>
</event>
<event>
 4    1  0.4895160E-005  0.6724782E+03  0.7818608E-02  0.9765491E-01
         -2   -1    0    0    0  501 -0.00000000000E+00  0.00000000000E+00  0.25349063977E+03  0.25349063978E+03  0.25500000000E-02 0. -1.
          2   -1    0    0  501    0  0.00000000000E+00 -0.00000000000E+00 -0.44599965018E+03  0.44599965019E+03  0.25500000000E-02 0.  1.
    5000001    1    1    2    0    0 -0.23478950331E+03 -0.12911540695E+03 -0.26114930229E+03  0.39512638138E+03  0.12700000000E+03 0.  0.
   -5000001    1    1    2    0    0  0.23478950331E+03  0.12911540695E+03  0.68640291879E+02  0.30436390858E+03  0.12700000000E+03 0.  0.
<mgrwt>
<rscale>  0 0.67247821E+03</rscale>
<asrwt>0</asrwt>
<pdfrwt beam="1">  1        2 0.63714236E-01 0.67247821E+03</pdfrwt>
<pdfrwt beam="2">  1       -2 0.36212948E-01 0.67247821E+03</pdfrwt>
<totfact> 0.55208294E+02</totfact>
</mgrwt>
</event>
<event>
 4    1  0.4895160E-005  0.3381304E+03  0.7818608E-02  0.1067595E+00
          2   -1    0    0  501    0  0.00000000000E+00  0.00000000000E+00  0.18829847585E+04  0.18829847585E+04  0.25500000000E-02 0.  1.
         -2   -1    0    0    0  501 -0.00000000000E+00 -0.00000000000E+00 -0.15179644564E+02  0.15179644778E+02  0.25500000000E-02 0. -1.
    5000001    1    1    2    0    0  0.86760698869E+02  0.53122260165E+02  0.67636583114E+03  0.69566452470E+03  0.12700000000E+03 0.  0.
   -5000001    1    1    2    0    0 -0.86760698869E+02 -0.53122260165E+02  0.11914392828E+04  0.12024998786E+04  0.12700000000E+03 0.  0.
<mgrwt>
<rscale>  0 0.33813039E+03</rscale>
<asrwt>0</asrwt>
<pdfrwt beam="1">  1        2 0.26899756E+00 0.33813039E+03</pdfrwt>
<pdfrwt beam="2">  1       -2 0.21685228E-02 0.33813039E+03</pdfrwt>
<totfact> 0.69267452E+03</totfact>
</mgrwt>
</event>
<event>
 4    1  0.4895160E-005  0.3833533E+03  0.7818608E-02  0.1049701E+00
          2   -1    0    0  501    0  0.00000000000E+00  0.00000000000E+00  0.21554253882E+04  0.21554253882E+04  0.25500000000E-02 0.  1.
         -2   -1    0    0    0  501 -0.00000000000E+00 -0.00000000000E+00 -0.17045329150E+02  0.17045329340E+02  0.25500000000E-02 0. -1.
    5000001    1    1    2    0    0  0.49240897074E+02 -0.12845821334E+03  0.13017973410E+04  0.13151925698E+04  0.12700000000E+03 0.  0.
   -5000001    1    1    2    0    0 -0.49240897074E+02  0.12845821334E+03  0.83658271798E+03  0.85727814772E+03  0.12700000000E+03 0.  0.
<mgrwt>
<rscale>  0 0.38335329E+03</rscale>
<asrwt>0</asrwt>
<pdfrwt beam="1">  1        2 0.30791772E+00 0.38335329E+03</pdfrwt>
<pdfrwt beam="2">  1       -2 0.24350485E-02 0.38335329E+03</pdfrwt>
<totfact> 0.42780002E+03</totfact>
</mgrwt>
</event>
<event>
 4    1  0.4895160E-005  0.1020405E+04  0.7818608E-02  0.9286444E-01
         -2   -1    0    0    0  501 -0.00000000000E+00  0.00000000000E+00  0.91287538799E+03  0.91287538799E+03  0.25500000000E-02 0. -1.
          2   -1    0    0  501    0  0.00000000000E+00 -0.00000000000E+00 -0.28515005279E+03  0.28515005280E+03  0.25500000000E-02 0.  1.
    5000001    1    1    2    0    0  0.46615156313E+03  0.15695880375E+03  0.36948081623E+03  0.62815477348E+03  0.12700000000E+03 0.  0.
   -5000001    1    1    2    0    0 -0.46615156313E+03 -0.15695880375E+03  0.25824451898E+03  0.56987066731E+03  0.12700000000E+03 0.  0.
<mgrwt>
<rscale>  0 0.10204048E+04</rscale>
<asrwt>0</asrwt>
<pdfrwt beam="1">  1        2 0.40735722E-01 0.10204048E+04</pdfrwt>
<pdfrwt beam="2">  1       -2 0.13041077E+00 0.10204048E+04</pdfrwt>
<totfact> 0.54227206E+01</totfact>
</mgrwt>
</event>
<event>
 4    1  0.4895160E-005  0.3391398E+03  0.7818608E-02  0.1067163E+00
         -2   -1    0    0    0  501 -0.00000000000E+00  0.00000000000E+00  0.71088182180E+02  0.71088182225E+02  0.25500000000E-02 0. -1.
          2   -1    0    0  501    0  0.00000000000E+00 -0.00000000000E+00 -0.40448285118E+03  0.40448285119E+03  0.25500000000E-02 0.  1.
    5000001    1    1    2    0    0  0.10240878698E+03 -0.17359700030E+02 -0.10661085826E+03  0.19566244896E+03  0.12700000000E+03 0.  0.
   -5000001    1    1    2    0    0 -0.10240878698E+03  0.17359700030E+02 -0.22678381074E+03  0.27990858445E+03  0.12700000000E+03 0.  0.
<mgrwt>
<rscale>  0 0.33913980E+03</rscale>
<asrwt>0</asrwt>
<pdfrwt beam="1">  1        2 0.57783263E-01 0.33913980E+03</pdfrwt>
<pdfrwt beam="2">  1       -2 0.10155455E-01 0.33913980E+03</pdfrwt>
<totfact> 0.55538385E+03</totfact>
</mgrwt>
</event>
<event>
 4    1  0.4895160E-005  0.2979319E+03  0.7818608E-02  0.1086279E+00
         -2   -1    0    0    0  501 -0.00000000000E+00  0.00000000000E+00  0.99299616296E+01  0.99299619570E+01  0.25500000000E-02 0. -1.
          2   -1    0    0  501    0  0.00000000000E+00 -0.00000000000E+00 -0.22347375654E+04  0.22347375654E+04  0.25500000000E-02 0.  1.
    5000001    1    1    2    0    0 -0.53193446838E+02 -0.54706026073E+02 -0.12290171012E+04  0.12379153150E+04  0.12700000000E+03 0.  0.
   -5000001    1    1    2    0    0  0.53193446838E+02  0.54706026073E+02 -0.99579050259E+03  0.10067522124E+04  0.12700000000E+03 0.  0.
<mgrwt>
<rscale>  0 0.29793193E+03</rscale>
<asrwt>0</asrwt>
<pdfrwt beam="1">  1        2 0.31924790E+00 0.29793193E+03</pdfrwt>
<pdfrwt beam="2">  1       -2 0.14185674E-02 0.29793193E+03</pdfrwt>
<totfact> 0.86913436E+03</totfact>
</mgrwt>
</event>
<event>
 4    1  0.4895160E-005  0.3084116E+03  0.7818608E-02  0.1081110E+00
          2   -1    0    0  501    0  0.00000000000E+00  0.00000000000E+00  0.25784535809E+04  0.25784535809E+04  0.25500000000E-02 0.  1.
         -2   -1    0    0    0  501 -0.00000000000E+00 -0.00000000000E+00 -0.92223634153E+01  0.92223637678E+01  0.25500000000E-02 0. -1.
    5000001    1    1    2    0    0  0.53528495531E+02 -0.60956622264E+02  0.10102342228E+04  0.10214123528E+04  0.12700000000E+03 0.  0.
   -5000001    1    1    2    0    0 -0.53528495531E+02  0.60956622264E+02  0.15589969947E+04  0.15662635919E+04  0.12700000000E+03 0.  0.
<mgrwt>
<rscale>  0 0.30841165E+03</rscale>
<asrwt>0</asrwt>
<pdfrwt beam="1">  1        2 0.36835069E+00 0.30841165E+03</pdfrwt>
<pdfrwt beam="2">  1       -2 0.13174799E-02 0.30841165E+03</pdfrwt>
<totfact> 0.65329583E+03</totfact>
</mgrwt>
</event>
<event>
 4    1  0.4895160E-005  0.3264738E+03  0.7818608E-02  0.1072708E+00
          2   -1    0    0  501    0  0.00000000000E+00  0.00000000000E+00  0.32011295905E+02  0.32011296006E+02  0.25500000000E-02 0.  1.
         -2   -1    0    0    0  501 -0.00000000000E+00 -0.00000000000E+00 -0.83240241872E+03  0.83240241872E+03  0.25500000000E-02 0. -1.
    5000001    1    1    2    0    0  0.68044804155E+02 -0.74861038867E+02 -0.35565312223E+03  0.39096344314E+03  0.12700000000E+03 0.  0.
   -5000001    1    1    2    0    0 -0.68044804155E+02  0.74861038867E+02 -0.44473800058E+03  0.47345027159E+03  0.12700000000E+03 0.  0.
<mgrwt>
<rscale>  0 0.32647377E+03</rscale>
<asrwt>0</asrwt>
<pdfrwt beam="1">  1        2 0.45730428E-02 0.32647377E+03</pdfrwt>
<pdfrwt beam="2">  1       -2 0.11891462E+00 0.32647377E+03</pdfrwt>
<totfact> 0.10107043E+03</totfact>
</mgrwt>
</event>
<event>
 4    1  0.4895160E-005  0.4166237E+03  0.7818608E-02  0.1038171E+00
         -2   -1    0    0    0  501 -0.00000000000E+00  0.00000000000E+00  0.17790424835E+04  0.17790424835E+04  0.25500000000E-02 0. -1.
          2   -1    0    0  501    0  0.00000000000E+00 -0.00000000000E+00 -0.24391675535E+02  0.24391675669E+02  0.25500000000E-02 0.  1.
    5000001    1    1    2    0    0 -0.70039083478E+01  0.16201174216E+03  0.10120003397E+04  0.10327490241E+04  0.12700000000E+03 0.  0.
   -5000001    1    1    2    0    0  0.70039083478E+01 -0.16201174216E+03  0.74265046829E+03  0.77068513505E+03  0.12700000000E+03 0.  0.
<mgrwt>
<rscale>  0 0.41662370E+03</rscale>
<asrwt>0</asrwt>
<pdfrwt beam="1">  1        2 0.34845245E-02 0.41662370E+03</pdfrwt>
<pdfrwt beam="2">  1       -2 0.25414897E+00 0.41662370E+03</pdfrwt>
<totfact> 0.17215245E+02</totfact>
</mgrwt>
</event>
<event>
 4    1  0.4895160E-005  0.8943442E+03  0.7818608E-02  0.9432679E-01
          2   -1    0    0  501    0  0.00000000000E+00  0.00000000000E+00  0.11288162435E+04  0.11288162435E+04  0.25500000000E-02 0.  1.
         -2   -1    0    0    0  501 -0.00000000000E+00 -0.00000000000E+00 -0.17714387828E+03  0.17714387830E+03  0.25500000000E-02 0. -1.
    5000001    1    1    2    0    0  0.30903537548E+03 -0.28623439481E+03  0.35900854944E+03  0.56784604484E+03  0.12700000000E+03 0.  0.
   -5000001    1    1    2    0    0 -0.30903537548E+03  0.28623439481E+03  0.59266381579E+03  0.73811407696E+03  0.12700000000E+03 0.  0.
<mgrwt>
<rscale>  0 0.89434420E+03</rscale>
<asrwt>0</asrwt>
<pdfrwt beam="1">  1        2 0.16125946E+00 0.89434420E+03</pdfrwt>
<pdfrwt beam="2">  1       -2 0.25306268E-01 0.89434420E+03</pdfrwt>
<totfact> 0.32942999E+02</totfact>
</mgrwt>
</event>
<event>
 4    1  0.4895160E-005  0.3905205E+03  0.7818608E-02  0.1047112E+00
         -2   -1    0    0    0  501 -0.00000000000E+00  0.00000000000E+00  0.23507799130E+02  0.23507799268E+02  0.25500000000E-02 0. -1.
          2   -1    0    0  501    0  0.00000000000E+00 -0.00000000000E+00 -0.16218690126E+04  0.16218690126E+04  0.25500000000E-02 0.  1.
    5000001    1    1    2    0    0 -0.14065842946E+03 -0.45064067909E+02 -0.85602212190E+03  0.87790571087E+03  0.12700000000E+03 0.  0.
   -5000001    1    1    2    0    0  0.14065842946E+03  0.45064067909E+02 -0.74233909152E+03  0.76747110095E+03  0.12700000000E+03 0.  0.
<mgrwt>
<rscale>  0 0.39052053E+03</rscale>
<asrwt>0</asrwt>
<pdfrwt beam="1">  1        2 0.23169550E+00 0.39052053E+03</pdfrwt>
<pdfrwt beam="2">  1       -2 0.33582581E-02 0.39052053E+03</pdfrwt>
<totfact> 0.48587995E+03</totfact>
</mgrwt>
</event>
<event>
 4    1  0.4895160E-005  0.2851055E+03  0.7818608E-02  0.1092933E+00
         -2   -1    0    0    0  501 -0.00000000000E+00  0.00000000000E+00  0.87078564987E+01  0.87078568720E+01  0.25500000000E-02 0. -1.
          2   -1    0    0  501    0  0.00000000000E+00 -0.00000000000E+00 -0.23336722908E+04  0.23336722908E+04  0.25500000000E-02 0.  1.
    5000001    1    1    2    0    0 -0.26262863071E+02  0.45087037764E+02 -0.84751388955E+03  0.85856355148E+03  0.12700000000E+03 0.  0.
   -5000001    1    1    2    0    0  0.26262863071E+02 -0.45087037764E+02 -0.14774505448E+04  0.14838165962E+04  0.12700000000E+03 0.  0.
<mgrwt>
<rscale>  0 0.28510548E+03</rscale>
<asrwt>0</asrwt>
<pdfrwt beam="1">  1        2 0.33338136E+00 0.28510548E+03</pdfrwt>
<pdfrwt beam="2">  1       -2 0.12439810E-02 0.28510548E+03</pdfrwt>
<totfact> 0.94096545E+03</totfact>
</mgrwt>
</event>
<event>
 4    1  0.4895160E-005  0.4668977E+03  0.7818608E-02  0.1022799E+00
         -2   -1    0    0    0  501 -0.00000000000E+00  0.00000000000E+00  0.33951366103E+02  0.33951366199E+02  0.25500000000E-02 0. -1.
          2   -1    0    0  501    0  0.00000000000E+00 -0.00000000000E+00 -0.16051890168E+04  0.16051890168E+04  0.25500000000E-02 0.  1.
    5000001    1    1    2    0    0  0.16585486497E+03 -0.64522881062E+02 -0.49829116515E+03  0.54414531486E+03  0.12700000000E+03 0.  0.
   -5000001    1    1    2    0    0 -0.16585486497E+03  0.64522881062E+02 -0.10729464855E+04  0.10949950681E+04  0.12700000000E+03 0.  0.
<mgrwt>
<rscale>  0 0.46689768E+03</rscale>
<asrwt>0</asrwt>
<pdfrwt beam="1">  1        2 0.22931267E+00 0.46689768E+03</pdfrwt>
<pdfrwt beam="2">  1       -2 0.48501962E-02 0.46689768E+03</pdfrwt>
<totfact> 0.28278025E+03</totfact>
</mgrwt>
</event>
<event>
 4    1  0.4895160E-005  0.4543619E+03  0.7818608E-02  0.1026429E+00
          2   -1    0    0  501    0  0.00000000000E+00  0.00000000000E+00  0.98521436908E+03  0.98521436908E+03  0.25500000000E-02 0.  1.
         -2   -1    0    0    0  501 -0.00000000000E+00 -0.00000000000E+00 -0.52385736570E+02  0.52385736632E+02  0.25500000000E-02 0. -1.
    5000001    1    1    2    0    0  0.16504487673E+03  0.67752866446E+02  0.60441735063E+03  0.64286825710E+03  0.12700000000E+03 0.  0.
   -5000001    1    1    2    0    0 -0.16504487673E+03 -0.67752866446E+02  0.32841128188E+03  0.39473184861E+03  0.12700000000E+03 0.  0.
<mgrwt>
<rscale>  0 0.45436188E+03</rscale>
<asrwt>0</asrwt>
<pdfrwt beam="1">  1        2 0.14074490E+00 0.45436188E+03</pdfrwt>
<pdfrwt beam="2">  1       -2 0.74836771E-02 0.45436188E+03</pdfrwt>
<totfact> 0.31351088E+03</totfact>
</mgrwt>
</event>
<event>
 4    1  0.4895160E-005  0.3029948E+03  0.7818608E-02  0.1083753E+00
         -2   -1    0    0    0  501 -0.00000000000E+00  0.00000000000E+00  0.88531179771E+01  0.88531183444E+01  0.25500000000E-02 0.  1.
          2   -1    0    0  501    0  0.00000000000E+00 -0.00000000000E+00 -0.25924714435E+04  0.25924714435E+04  0.25500000000E-02 0. -1.
    5000001    1    1    2    0    0  0.72945473500E+02 -0.33709224189E+02 -0.11277628010E+04  0.11377325209E+04  0.12700000000E+03 0.  0.
   -5000001    1    1    2    0    0 -0.72945473500E+02  0.33709224189E+02 -0.14558555245E+04  0.14635920409E+04  0.12700000000E+03 0.  0.
<mgrwt>
<rscale>  0 0.30299476E+03</rscale>
<asrwt>0</asrwt>
<pdfrwt beam="1">  1        2 0.37035258E+00 0.30299476E+03</pdfrwt>
<pdfrwt beam="2">  1       -2 0.12647328E-02 0.30299476E+03</pdfrwt>
<totfact> 0.68236642E+03</totfact>
</mgrwt>
</event>
<event>
 4    1  0.4895160E-005  0.3511172E+03  0.7818608E-02  0.1062157E+00
         -2   -1    0    0    0  501 -0.00000000000E+00  0.00000000000E+00  0.11068267733E+04  0.11068267733E+04  0.25500000000E-02 0. -1.
          2   -1    0    0  501    0  0.00000000000E+00 -0.00000000000E+00 -0.27846108837E+02  0.27846108954E+02  0.25500000000E-02 0.  1.
    5000001    1    1    2    0    0  0.11537757315E+03  0.35743596595E+02  0.57216470781E+03  0.59840708715E+03  0.12700000000E+03 0.  0.
   -5000001    1    1    2    0    0 -0.11537757315E+03 -0.35743596595E+02  0.50681595661E+03  0.53626579507E+03  0.12700000000E+03 0.  0.
<mgrwt>
<rscale>  0 0.35111718E+03</rscale>
<asrwt>0</asrwt>
<pdfrwt beam="1">  1        2 0.39780155E-02 0.35111718E+03</pdfrwt>
<pdfrwt beam="2">  1       -2 0.15811811E+00 0.35111718E+03</pdfrwt>
<totfact> 0.59306550E+02</totfact>
</mgrwt>
</event>
<event>
 4    1  0.4895160E-005  0.4065084E+03  0.7818608E-02  0.1041549E+00
          2   -1    0    0  501    0  0.00000000000E+00  0.00000000000E+00  0.10570907797E+04  0.10570907797E+04  0.25500000000E-02 0.  1.
         -2   -1    0    0    0  501 -0.00000000000E+00 -0.00000000000E+00 -0.39081103965E+02  0.39081104048E+02  0.25500000000E-02 0. -1.
    5000001    1    1    2    0    0 -0.50089477796E+02  0.13146691080E+03  0.70699085615E+03  0.73195462640E+03  0.12700000000E+03 0.  0.
   -5000001    1    1    2    0    0  0.50089477796E+02 -0.13146691080E+03  0.31101881959E+03  0.36421725736E+03  0.12700000000E+03 0.  0.
<mgrwt>
<rscale>  0 0.40650842E+03</rscale>
<asrwt>0</asrwt>
<pdfrwt beam="1">  1        2 0.15101295E+00 0.40650842E+03</pdfrwt>
<pdfrwt beam="2">  1       -2 0.55830155E-02 0.40650842E+03</pdfrwt>
<totfact> 0.44834436E+03</totfact>
</mgrwt>
</event>
<event>
 4    1  0.4895160E-005  0.5385132E+03  0.7818608E-02  0.1004188E+00
          2   -1    0    0  501    0  0.00000000000E+00  0.00000000000E+00  0.49161638422E+03  0.49161638423E+03  0.25500000000E-02 0.  1.
         -2   -1    0    0    0  501 -0.00000000000E+00 -0.00000000000E+00 -0.14747089685E+03  0.14747089687E+03  0.25500000000E-02 0. -1.
    5000001    1    1    2    0    0 -0.94015256353E+02 -0.20587376499E+03  0.25721610305E+03  0.36539293809E+03  0.12700000000E+03 0.  0.
   -5000001    1    1    2    0    0  0.94015256353E+02  0.20587376499E+03  0.86929384327E+02  0.27369434301E+03  0.12700000000E+03 0.  0.
<mgrwt>
<rscale>  0 0.53851317E+03</rscale>
<asrwt>0</asrwt>
<pdfrwt beam="1">  1        2 0.70230912E-01 0.53851317E+03</pdfrwt>
<pdfrwt beam="2">  1       -2 0.21067271E-01 0.53851317E+03</pdfrwt>
<totfact> 0.13318989E+03</totfact>
</mgrwt>
</event>
<event>
 4    1  0.4895160E-005  0.9513191E+03  0.7818608E-02  0.9363610E-01
         -2   -1    0    0    0  501 -0.00000000000E+00  0.00000000000E+00  0.20169978814E+03  0.20169978816E+03  0.25500000000E-02 0. -1.
          2   -1    0    0  501    0  0.00000000000E+00 -0.00000000000E+00 -0.11217265839E+04  0.11217265839E+04  0.25500000000E-02 0.  1.
    5000001    1    1    2    0    0 -0.17753995562E+03  0.41380721366E+03 -0.57941066426E+03  0.74471643179E+03  0.12700000000E+03 0.  0.
   -5000001    1    1    2    0    0  0.17753995562E+03 -0.41380721366E+03 -0.34061613148E+03  0.57870994025E+03  0.12700000000E+03 0.  0.
<mgrwt>
<rscale>  0 0.95131911E+03</rscale>
<asrwt>0</asrwt>
<pdfrwt beam="1">  1        2 0.16024665E+00 0.95131911E+03</pdfrwt>
<pdfrwt beam="2">  1       -2 0.28814256E-01 0.95131911E+03</pdfrwt>
<totfact> 0.26155981E+02</totfact>
</mgrwt>
</event>
<event>
 4    1  0.4895160E-005  0.5120316E+03  0.7818608E-02  0.1010685E+00
         -2   -1    0    0    0  501 -0.00000000000E+00  0.00000000000E+00  0.77645417288E+02  0.77645417329E+02  0.25500000000E-02 0. -1.
          2   -1    0    0  501    0  0.00000000000E+00 -0.00000000000E+00 -0.84414620263E+03  0.84414620264E+03  0.25500000000E-02 0.  1.
    5000001    1    1    2    0    0  0.15062667491E+03 -0.15876026681E+03 -0.45348065848E+03  0.51929464192E+03  0.12700000000E+03 0.  0.
   -5000001    1    1    2    0    0 -0.15062667491E+03  0.15876026681E+03 -0.31302012686E+03  0.40249697804E+03  0.12700000000E+03 0.  0.
<mgrwt>
<rscale>  0 0.51203158E+03</rscale>
<asrwt>0</asrwt>
<pdfrwt beam="1">  1        2 0.12059231E+00 0.51203158E+03</pdfrwt>
<pdfrwt beam="2">  1       -2 0.11092203E-01 0.51203158E+03</pdfrwt>
<totfact> 0.20526099E+03</totfact>
</mgrwt>
</event>
<event>
 4    1  0.4895160E-005  0.4223377E+03  0.7818608E-02  0.1036308E+00
         -2   -1    0    0    0  501 -0.00000000000E+00  0.00000000000E+00  0.54563050634E+03  0.54563050634E+03  0.25500000000E-02 0. -1.
          2   -1    0    0  501    0  0.00000000000E+00 -0.00000000000E+00 -0.81726156630E+02  0.81726156670E+02  0.25500000000E-02 0.  1.
    5000001    1    1    2    0    0  0.10785584250E+03 -0.68265832119E+02  0.68080792168E+02  0.19250221001E+03  0.12700000000E+03 0.  0.
   -5000001    1    1    2    0    0 -0.10785584250E+03  0.68265832119E+02  0.39582355754E+03  0.43485445300E+03  0.12700000000E+03 0.  0.
<mgrwt>
<rscale>  0 0.42233770E+03</rscale>
<asrwt>0</asrwt>
<pdfrwt beam="1">  1        2 0.11675165E-01 0.42233770E+03</pdfrwt>
<pdfrwt beam="2">  1       -2 0.77947216E-01 0.42233770E+03</pdfrwt>
<totfact> 0.80352909E+02</totfact>
</mgrwt>
</event>
<event>
 4    1  0.4895160E-005  0.4133253E+03  0.7818608E-02  0.1039261E+00
          2   -1    0    0  501    0  0.00000000000E+00  0.00000000000E+00  0.69960941606E+03  0.69960941607E+03  0.25500000000E-02 0.  1.
         -2   -1    0    0    0  501 -0.00000000000E+00 -0.00000000000E+00 -0.61047563029E+02  0.61047563083E+02  0.25500000000E-02 0. -1.
    5000001    1    1    2    0    0  0.76407912388E+02  0.34410432890E+02  0.57665295418E+03  0.59638903120E+03  0.12700000000E+03 0.  0.
   -5000001    1    1    2    0    0 -0.76407912388E+02 -0.34410432890E+02  0.61908898852E+02  0.16426794795E+03  0.12700000000E+03 0.  0.
<mgrwt>
<rscale>  0 0.41332530E+03</rscale>
<asrwt>0</asrwt>
<pdfrwt beam="1">  1        2 0.99944200E-01 0.41332530E+03</pdfrwt>
<pdfrwt beam="2">  1       -2 0.87210807E-02 0.41332530E+03</pdfrwt>
<totfact> 0.38154419E+03</totfact>
</mgrwt>
</event>
<event>
 4    1  0.4895160E-005  0.2793617E+03  0.7818608E-02  0.1096038E+00
          2   -1    0    0  501    0  0.00000000000E+00  0.00000000000E+00  0.15003641731E+04  0.15003641731E+04  0.25500000000E-02 0.  1.
         -2   -1    0    0    0  501 -0.00000000000E+00 -0.00000000000E+00 -0.13004003009E+02  0.13004003259E+02  0.25500000000E-02 0. -1.
    5000001    1    1    2    0    0  0.49480177285E+01 -0.46817832309E+02  0.55875085370E+03  0.57493296027E+03  0.12700000000E+03 0.  0.
   -5000001    1    1    2    0    0 -0.49480177285E+01  0.46817832309E+02  0.92860931640E+03  0.93843521609E+03  0.12700000000E+03 0.  0.
<mgrwt>
<rscale>  0 0.27936170E+03</rscale>
<asrwt>0</asrwt>
<pdfrwt beam="1">  1        2 0.21433773E+00 0.27936170E+03</pdfrwt>
<pdfrwt beam="2">  1       -2 0.18577148E-02 0.27936170E+03</pdfrwt>
<totfact> 0.13440036E+04</totfact>
</mgrwt>
</event>
<event>
 4    1  0.4895160E-005  0.2902682E+03  0.7818608E-02  0.1090209E+00
         -2   -1    0    0    0  501 -0.00000000000E+00  0.00000000000E+00  0.86643552821E+01  0.86643556574E+01  0.25500000000E-02 0. -1.
          2   -1    0    0  501    0  0.00000000000E+00 -0.00000000000E+00 -0.24310994722E+04  0.24310994722E+04  0.25500000000E-02 0.  1.
    5000001    1    1    2    0    0 -0.54820295957E+02 -0.61281169307E+00 -0.84203195217E+03  0.85331849204E+03  0.12700000000E+03 0.  0.
   -5000001    1    1    2    0    0  0.54820295957E+02  0.61281169307E+00 -0.15804031647E+04  0.15864453358E+04  0.12700000000E+03 0.  0.
<mgrwt>
<rscale>  0 0.29026822E+03</rscale>
<asrwt>0</asrwt>
<pdfrwt beam="1">  1        2 0.34729949E+00 0.29026822E+03</pdfrwt>
<pdfrwt beam="2">  1       -2 0.12377666E-02 0.29026822E+03</pdfrwt>
<totfact> 0.84828411E+03</totfact>
</mgrwt>
</event>
<event>
 4    1  0.4895160E-005  0.3140010E+03  0.7818608E-02  0.1078444E+00
          2   -1    0    0  501    0  0.00000000000E+00  0.00000000000E+00  0.43370202160E+03  0.43370202161E+03  0.25500000000E-02 0.  1.
         -2   -1    0    0    0  501 -0.00000000000E+00 -0.00000000000E+00 -0.56834331534E+02  0.56834331592E+02  0.25500000000E-02 0. -1.
    5000001    1    1    2    0    0  0.59722238229E+01  0.86909346320E+02  0.14076043988E+03  0.20864180638E+03  0.12700000000E+03 0.  0.
   -5000001    1    1    2    0    0 -0.59722238229E+01 -0.86909346320E+02  0.23610725018E+03  0.28189454681E+03  0.12700000000E+03 0.  0.
<mgrwt>
<rscale>  0 0.31400105E+03</rscale>
<asrwt>0</asrwt>
<pdfrwt beam="1">  1        2 0.61957433E-01 0.31400105E+03</pdfrwt>
<pdfrwt beam="2">  1       -2 0.81191900E-02 0.31400105E+03</pdfrwt>
<totfact> 0.73190634E+03</totfact>
</mgrwt>
</event>
<event>
 4    1  0.4895160E-005  0.3336172E+03  0.7818608E-02  0.1069548E+00
         -2   -1    0    0    0  501 -0.00000000000E+00  0.00000000000E+00  0.45648388185E+03  0.45648388185E+03  0.25500000000E-02 0. -1.
          2   -1    0    0  501    0  0.00000000000E+00 -0.00000000000E+00 -0.60955279898E+02  0.60955279951E+02  0.25500000000E-02 0.  1.
    5000001    1    1    2    0    0  0.81466307449E+02 -0.12176813758E+01  0.87459517396E+02  0.17440300795E+03  0.12700000000E+03 0.  0.
   -5000001    1    1    2    0    0 -0.81466307449E+02  0.12176813758E+01  0.30806908455E+03  0.34303615386E+03  0.12700000000E+03 0.  0.
<mgrwt>
<rscale>  0 0.33361716E+03</rscale>
<asrwt>0</asrwt>
<pdfrwt beam="1">  1        2 0.87078973E-02 0.33361716E+03</pdfrwt>
<pdfrwt beam="2">  1       -2 0.65211982E-01 0.33361716E+03</pdfrwt>
<totfact> 0.17017326E+03</totfact>
</mgrwt>
</event>
<event>
 4    1  0.4895160E-005  0.4049689E+03  0.7818608E-02  0.1042073E+00
          2   -1    0    0  501    0  0.00000000000E+00  0.00000000000E+00  0.13397002390E+04  0.13397002390E+04  0.25500000000E-02 0.  1.
         -2   -1    0    0    0  501 -0.00000000000E+00 -0.00000000000E+00 -0.30603821229E+02  0.30603821335E+02  0.25500000000E-02 0. -1.
    5000001    1    1    2    0    0 -0.13526253691E+03 -0.29267984055E+02  0.91042549120E+03  0.92959999129E+03  0.12700000000E+03 0.  0.
   -5000001    1    1    2    0    0  0.13526253691E+03  0.29267984055E+02  0.39867092656E+03  0.44070406904E+03  0.12700000000E+03 0.  0.
<mgrwt>
<rscale>  0 0.40496887E+03</rscale>
<asrwt>0</asrwt>
<pdfrwt beam="1">  1        2 0.19138571E+00 0.40496887E+03</pdfrwt>
<pdfrwt beam="2">  1       -2 0.43719753E-02 0.40496887E+03</pdfrwt>
<totfact> 0.45515955E+03</totfact>
</mgrwt>
</event>
<event>
 4    1  0.4895160E-005  0.3418098E+03  0.7818608E-02  0.1066028E+00
          2   -1    0    0  501    0  0.00000000000E+00  0.00000000000E+00  0.54855174937E+02  0.54855174996E+02  0.25500000000E-02 0.  1.
         -2   -1    0    0    0  501 -0.00000000000E+00 -0.00000000000E+00 -0.53246554488E+03  0.53246554489E+03  0.25500000000E-02 0. -1.
    5000001    1    1    2    0    0  0.62639760955E+01  0.86570106537E+02 -0.36676559041E+03  0.39771801449E+03  0.12700000000E+03 0.  0.
   -5000001    1    1    2    0    0 -0.62639760955E+01 -0.86570106537E+02 -0.11084477954E+03  0.18960270540E+03  0.12700000000E+03 0.  0.
<mgrwt>
<rscale>  0 0.34180983E+03</rscale>
<asrwt>0</asrwt>
<pdfrwt beam="1">  1        2 0.78364539E-02 0.34180983E+03</pdfrwt>
<pdfrwt beam="2">  1       -2 0.76066503E-01 0.34180983E+03</pdfrwt>
<totfact> 0.13979686E+03</totfact>
</mgrwt>
</event>
<event>
 4    1  0.4895160E-005  0.3320580E+03  0.7818608E-02  0.1070230E+00
          2   -1    0    0  501    0  0.00000000000E+00  0.00000000000E+00  0.27049282858E+03  0.27049282859E+03  0.25500000000E-02 0.  1.
         -2   -1    0    0    0  501 -0.00000000000E+00 -0.00000000000E+00 -0.10190888482E+03  0.10190888485E+03  0.25500000000E-02 0. -1.
    5000001    1    1    2    0    0 -0.98951949212E+02 -0.11821489264E+00  0.38803997027E+02  0.16560873290E+03  0.12700000000E+03 0.  0.
   -5000001    1    1    2    0    0  0.98951949212E+02  0.11821489264E+00  0.12977994673E+03  0.20679298054E+03  0.12700000000E+03 0.  0.
<mgrwt>
<rscale>  0 0.33205796E+03</rscale>
<asrwt>0</asrwt>
<pdfrwt beam="1">  1        2 0.38641833E-01 0.33205796E+03</pdfrwt>
<pdfrwt beam="2">  1       -2 0.14558412E-01 0.33205796E+03</pdfrwt>
<totfact> 0.47823224E+03</totfact>
</mgrwt>
</event>
<event>
 4    1  0.4895160E-005  0.4313520E+03  0.7818608E-02  0.1033434E+00
         -2   -1    0    0    0  501 -0.00000000000E+00  0.00000000000E+00  0.25961630594E+02  0.25961630719E+02  0.25500000000E-02 0. -1.
          2   -1    0    0  501    0  0.00000000000E+00 -0.00000000000E+00 -0.17917267131E+04  0.17917267131E+04  0.25500000000E-02 0.  1.
    5000001    1    1    2    0    0 -0.16119985700E+03  0.38815401709E+02 -0.65614643569E+03  0.68858490716E+03  0.12700000000E+03 0.  0.
   -5000001    1    1    2    0    0  0.16119985700E+03 -0.38815401709E+02 -0.11096186468E+04  0.11291034366E+04  0.12700000000E+03 0.  0.
<mgrwt>
<rscale>  0 0.43135205E+03</rscale>
<asrwt>0</asrwt>
<pdfrwt beam="1">  1        2 0.25596088E+00 0.43135205E+03</pdfrwt>
<pdfrwt beam="2">  1       -2 0.37088055E-02 0.43135205E+03</pdfrwt>
<totfact> 0.34355522E+03</totfact>
</mgrwt>
</event>
<event>
 4    1  0.4895160E-005  0.4273809E+03  0.7818608E-02  0.1034691E+00
         -2   -1    0    0    0  501 -0.00000000000E+00  0.00000000000E+00  0.50088084031E+02  0.50088084096E+02  0.25500000000E-02 0. -1.
          2   -1    0    0  501    0  0.00000000000E+00 -0.00000000000E+00 -0.91166601583E+03  0.91166601583E+03  0.25500000000E-02 0.  1.
    5000001    1    1    2    0    0  0.12982207439E+02 -0.17131596441E+03 -0.42153606333E+03  0.47258792839E+03  0.12700000000E+03 0.  0.
   -5000001    1    1    2    0    0 -0.12982207439E+02  0.17131596441E+03 -0.44004186847E+03  0.48916617154E+03  0.12700000000E+03 0.  0.
<mgrwt>
<rscale>  0 0.42738088E+03</rscale>
<asrwt>0</asrwt>
<pdfrwt beam="1">  1        2 0.13023799E+00 0.42738088E+03</pdfrwt>
<pdfrwt beam="2">  1       -2 0.71554412E-02 0.42738088E+03</pdfrwt>
<totfact> 0.37347948E+03</totfact>
</mgrwt>
</event>
<event>
 4    1  0.4895160E-005  0.3927983E+03  0.7818608E-02  0.1046302E+00
          2   -1    0    0  501    0  0.00000000000E+00  0.00000000000E+00  0.10000406476E+04  0.10000406476E+04  0.25500000000E-02 0.  1.
         -2   -1    0    0    0  501 -0.00000000000E+00 -0.00000000000E+00 -0.38571052717E+02  0.38571052801E+02  0.25500000000E-02 0. -1.
    5000001    1    1    2    0    0 -0.39278187643E+02  0.13516461243E+03  0.34509885930E+03  0.39374416969E+03  0.12700000000E+03 0.  0.
   -5000001    1    1    2    0    0  0.39278187643E+02 -0.13516461243E+03  0.61637073556E+03  0.64486753068E+03  0.12700000000E+03 0.  0.
<mgrwt>
<rscale>  0 0.39279827E+03</rscale>
<asrwt>0</asrwt>
<pdfrwt beam="1">  1        2 0.14286294E+00 0.39279827E+03</pdfrwt>
<pdfrwt beam="2">  1       -2 0.55101508E-02 0.39279827E+03</pdfrwt>
<totfact> 0.49426825E+03</totfact>
</mgrwt>
</event>
<event>
 4    1  0.4895160E-005  0.5068410E+03  0.7818608E-02  0.1012009E+00
          2   -1    0    0  501    0  0.00000000000E+00  0.00000000000E+00  0.34772467570E+03  0.34772467571E+03  0.25500000000E-02 0.  1.
         -2   -1    0    0    0  501 -0.00000000000E+00 -0.00000000000E+00 -0.18469197059E+03  0.18469197061E+03  0.25500000000E-02 0. -1.
    5000001    1    1    2    0    0  0.92537589909E+02 -0.40407118928E+02  0.28601119890E+03  0.32882722926E+03  0.12700000000E+03 0.  0.
   -5000001    1    1    2    0    0 -0.92537589909E+02  0.40407118928E+02 -0.12297849379E+03  0.20358941707E+03  0.12700000000E+03 0.  0.
<mgrwt>
<rscale>  0 0.50684102E+03</rscale>
<asrwt>0</asrwt>
<pdfrwt beam="1">  1        2 0.49674953E-01 0.50684102E+03</pdfrwt>
<pdfrwt beam="2">  1       -2 0.26384568E-01 0.50684102E+03</pdfrwt>
<totfact> 0.13123457E+03</totfact>
</mgrwt>
</event>
<event>
 4    1  0.4895160E-005  0.2915826E+03  0.7818608E-02  0.1089526E+00
         -2   -1    0    0    0  501 -0.00000000000E+00  0.00000000000E+00  0.54289840906E+02  0.54289840966E+02  0.25500000000E-02 0. -1.
          2   -1    0    0  501    0  0.00000000000E+00 -0.00000000000E+00 -0.39151172390E+03  0.39151172391E+03  0.25500000000E-02 0.  1.
    5000001    1    1    2    0    0 -0.66416978636E+02  0.14450523581E+02 -0.20300536412E+03  0.24891807998E+03  0.12700000000E+03 0.  0.
   -5000001    1    1    2    0    0  0.66416978636E+02 -0.14450523581E+02 -0.13421651887E+03  0.19688348489E+03  0.12700000000E+03 0.  0.
<mgrwt>
<rscale>  0 0.29158264E+03</rscale>
<asrwt>0</asrwt>
<pdfrwt beam="1">  1        2 0.55930244E-01 0.29158264E+03</pdfrwt>
<pdfrwt beam="2">  1       -2 0.77556918E-02 0.29158264E+03</pdfrwt>
<totfact> 0.87658061E+03</totfact>
</mgrwt>
</event>
<event>
 4    1  0.4895160E-005  0.3094972E+03  0.7818608E-02  0.1080587E+00
         -2   -1    0    0    0  501 -0.00000000000E+00  0.00000000000E+00  0.14505723265E+03  0.14505723267E+03  0.25500000000E-02 0. -1.
          2   -1    0    0  501    0  0.00000000000E+00 -0.00000000000E+00 -0.16508746029E+03  0.16508746031E+03  0.25500000000E-02 0.  1.
    5000001    1    1    2    0    0  0.72292749369E+01 -0.57768596870E+02  0.56672264007E+02  0.15076544269E+03  0.12700000000E+03 0.  0.
   -5000001    1    1    2    0    0 -0.72292749369E+01  0.57768596870E+02 -0.76702491646E+02  0.15937925030E+03  0.12700000000E+03 0.  0.
<mgrwt>
<rscale>  0 0.30949721E+03</rscale>
<asrwt>0</asrwt>
<pdfrwt beam="1">  1        2 0.23583923E-01 0.30949721E+03</pdfrwt>
<pdfrwt beam="2">  1       -2 0.20722462E-01 0.30949721E+03</pdfrwt>
<totfact> 0.45382598E+03</totfact>
</mgrwt>
</event>
<event>
 4    1  0.4895160E-005  0.3536579E+03  0.7818608E-02  0.1061124E+00
         -2   -1    0    0    0  501 -0.00000000000E+00  0.00000000000E+00  0.10523579052E+03  0.10523579055E+03  0.25500000000E-02 0. -1.
          2   -1    0    0  501    0  0.00000000000E+00 -0.00000000000E+00 -0.29712784843E+03  0.29712784844E+03  0.25500000000E-02 0.  1.
    5000001    1    1    2    0    0  0.98705482268E+02  0.14595674394E+02 -0.17785931153E+03  0.24024724897E+03  0.12700000000E+03 0.  0.
   -5000001    1    1    2    0    0 -0.98705482268E+02 -0.14595674394E+02 -0.14032746374E+02  0.16211639002E+03  0.12700000000E+03 0.  0.
<mgrwt>
<rscale>  0 0.35365794E+03</rscale>
<asrwt>0</asrwt>
<pdfrwt beam="1">  1        2 0.42446835E-01 0.35365794E+03</pdfrwt>
<pdfrwt beam="2">  1       -2 0.15033684E-01 0.35365794E+03</pdfrwt>
<totfact> 0.41012822E+03</totfact>
</mgrwt>
</event>
<event>
 4    1  0.4895160E-005  0.6521431E+03  0.7818608E-02  0.9802766E-01
          2   -1    0    0  501    0  0.00000000000E+00  0.00000000000E+00  0.32917016316E+04  0.32917016316E+04  0.25500000000E-02 0.  1.
         -2   -1    0    0    0  501 -0.00000000000E+00 -0.00000000000E+00 -0.32300212226E+02  0.32300212327E+02  0.25500000000E-02 0. -1.
    5000001    1    1    2    0    0 -0.28853228397E+03  0.82790910235E+02  0.15817647167E+04  0.16149965426E+04  0.12700000000E+03 0.  0.
   -5000001    1    1    2    0    0  0.28853228397E+03 -0.82790910235E+02  0.16776367027E+04  0.17090053013E+04  0.12700000000E+03 0.  0.
<mgrwt>
<rscale>  0 0.65214312E+03</rscale>
<asrwt>0</asrwt>
<pdfrwt beam="1">  1        2 0.47024313E+00 0.65214312E+03</pdfrwt>
<pdfrwt beam="2">  1       -2 0.46143157E-02 0.65214312E+03</pdfrwt>
<totfact> 0.40095308E+02</totfact>
</mgrwt>
</event>
<event>
 4    1  0.4895160E-005  0.2949595E+03  0.7818608E-02  0.1087788E+00
         -2   -1    0    0    0  501 -0.00000000000E+00  0.00000000000E+00  0.90118764444E+01  0.90118768052E+01  0.25500000000E-02 0. -1.
          2   -1    0    0  501    0  0.00000000000E+00 -0.00000000000E+00 -0.24135127185E+04  0.24135127185E+04  0.25500000000E-02 0.  1.
    5000001    1    1    2    0    0 -0.61437289880E+02 -0.37729524077E+02 -0.10332882300E+04  0.10435571972E+04  0.12700000000E+03 0.  0.
   -5000001    1    1    2    0    0  0.61437289880E+02  0.37729524077E+02 -0.13712126120E+04  0.13789673981E+04  0.12700000000E+03 0.  0.
<mgrwt>
<rscale>  0 0.29495951E+03</rscale>
<asrwt>0</asrwt>
<pdfrwt beam="1">  1        2 0.34478712E+00 0.29495951E+03</pdfrwt>
<pdfrwt beam="2">  1       -2 0.12874125E-02 0.29495951E+03</pdfrwt>
<totfact> 0.81727745E+03</totfact>
</mgrwt>
</event>
<event>
 4    1  0.4895160E-005  0.3352055E+03  0.7818608E-02  0.1068857E+00
          2   -1    0    0  501    0  0.00000000000E+00  0.00000000000E+00  0.15057105199E+03  0.15057105201E+03  0.25500000000E-02 0.  1.
         -2   -1    0    0    0  501 -0.00000000000E+00 -0.00000000000E+00 -0.18656101669E+03  0.18656101670E+03  0.25500000000E-02 0. -1.
    5000001    1    1    2    0    0  0.10146744639E+03  0.35044509920E+02 -0.39041988707E+02  0.17081287198E+03  0.12700000000E+03 0.  0.
   -5000001    1    1    2    0    0 -0.10146744639E+03 -0.35044509920E+02  0.30520240112E+01  0.16631919674E+03  0.12700000000E+03 0.  0.
<mgrwt>
<rscale>  0 0.33520554E+03</rscale>
<asrwt>0</asrwt>
<pdfrwt beam="1">  1        2 0.21510150E-01 0.33520554E+03</pdfrwt>
<pdfrwt beam="2">  1       -2 0.26651574E-01 0.33520554E+03</pdfrwt>
<totfact> 0.32463479E+03</totfact>
</mgrwt>
</event>
<event>
 4    1  0.4895160E-005  0.1013980E+04  0.7818608E-02  0.9293344E-01
         -2   -1    0    0    0  501 -0.00000000000E+00  0.00000000000E+00  0.16158316954E+03  0.16158316956E+03  0.25500000000E-02 0. -1.
          2   -1    0    0  501    0  0.00000000000E+00 -0.00000000000E+00 -0.15907514213E+04  0.15907514213E+04  0.25500000000E-02 0.  1.
    5000001    1    1    2    0    0 -0.28449847135E+03 -0.38697625960E+03 -0.53987891935E+03  0.73368130224E+03  0.12700000000E+03 0.  0.
   -5000001    1    1    2    0    0  0.28449847135E+03  0.38697625960E+03 -0.88928933245E+03  0.10186532887E+04  0.12700000000E+03 0.  0.
<mgrwt>
<rscale>  0 0.10139796E+04</rscale>
<asrwt>0</asrwt>
<pdfrwt beam="1">  1        2 0.22725019E+00 0.10139796E+04</pdfrwt>
<pdfrwt beam="2">  1       -2 0.23083311E-01 0.10139796E+04</pdfrwt>
<totfact> 0.21588299E+02</totfact>
</mgrwt>
</event>
<event>
 4    1  0.4895160E-005  0.4696293E+03  0.7818608E-02  0.1022025E+00
          2   -1    0    0  501    0  0.00000000000E+00  0.00000000000E+00  0.16236908385E+04  0.16236908385E+04  0.25500000000E-02 0.  1.
         -2   -1    0    0    0  501 -0.00000000000E+00 -0.00000000000E+00 -0.33958383768E+02  0.33958383864E+02  0.25500000000E-02 0. -1.
    5000001    1    1    2    0    0 -0.21261948547E+02  0.19157856604E+03  0.64286370456E+03  0.68304989573E+03  0.12700000000E+03 0.  0.
   -5000001    1    1    2    0    0  0.21261948547E+02 -0.19157856604E+03  0.94686875021E+03  0.97459932667E+03  0.12700000000E+03 0.  0.
<mgrwt>
<rscale>  0 0.46962929E+03</rscale>
<asrwt>0</asrwt>
<pdfrwt beam="1">  1        2 0.23195585E+00 0.46962929E+03</pdfrwt>
<pdfrwt beam="2">  1       -2 0.48511974E-02 0.46962929E+03</pdfrwt>
<totfact> 0.27662134E+03</totfact>
</mgrwt>
</event>
<event>
 4    1  0.4895160E-005  0.3502921E+03  0.7818608E-02  0.1062495E+00
         -2   -1    0    0    0  501 -0.00000000000E+00  0.00000000000E+00  0.20215071185E+02  0.20215071346E+02  0.25500000000E-02 0. -1.
          2   -1    0    0  501    0  0.00000000000E+00 -0.00000000000E+00 -0.15174886725E+04  0.15174886725E+04  0.25500000000E-02 0.  1.
    5000001    1    1    2    0    0 -0.91050382244E+02  0.13130346730E+02 -0.10910551462E+04  0.11022671682E+04  0.12700000000E+03 0.  0.
   -5000001    1    1    2    0    0  0.91050382244E+02 -0.13130346730E+02 -0.40621845518E+03  0.43543657568E+03  0.12700000000E+03 0.  0.
<mgrwt>
<rscale>  0 0.35029212E+03</rscale>
<asrwt>0</asrwt>
<pdfrwt beam="1">  1        2 0.21678402E+00 0.35029212E+03</pdfrwt>
<pdfrwt beam="2">  1       -2 0.28878683E-02 0.35029212E+03</pdfrwt>
<totfact> 0.68795470E+03</totfact>
</mgrwt>
</event>
<event>
 4    1  0.4895160E-005  0.5293343E+03  0.7818608E-02  0.1006394E+00
          2   -1    0    0  501    0  0.00000000000E+00  0.00000000000E+00  0.25127717228E+04  0.25127717228E+04  0.25500000000E-02 0.  1.
         -2   -1    0    0    0  501 -0.00000000000E+00 -0.00000000000E+00 -0.27877066112E+02  0.27877066228E+02  0.25500000000E-02 0. -1.
    5000001    1    1    2    0    0  0.11509854647E+03 -0.19374224801E+03  0.15112295280E+04  0.15332082117E+04  0.12700000000E+03 0.  0.
   -5000001    1    1    2    0    0 -0.11509854647E+03  0.19374224801E+03  0.97366512864E+03  0.10074405773E+04  0.12700000000E+03 0.  0.
<mgrwt>
<rscale>  0 0.52933431E+03</rscale>
<asrwt>0</asrwt>
<pdfrwt beam="1">  1        2 0.35896738E+00 0.52933431E+03</pdfrwt>
<pdfrwt beam="2">  1       -2 0.39824381E-02 0.52933431E+03</pdfrwt>
<totfact> 0.13352237E+03</totfact>
</mgrwt>
</event>
<event>
 4    1  0.4895160E-005  0.6468912E+03  0.7818608E-02  0.9812630E-01
          2   -1    0    0  501    0  0.00000000000E+00  0.00000000000E+00  0.97589325236E+03  0.97589325237E+03  0.25500000000E-02 0.  1.
         -2   -1    0    0    0  501 -0.00000000000E+00 -0.00000000000E+00 -0.10720131530E+03  0.10720131533E+03  0.25500000000E-02 0. -1.
    5000001    1    1    2    0    0 -0.88684770280E+02  0.25589677778E+03  0.64035987634E+03  0.70677996618E+03  0.12700000000E+03 0.  0.
   -5000001    1    1    2    0    0  0.88684770280E+02 -0.25589677778E+03  0.22833206072E+03  0.37631460152E+03  0.12700000000E+03 0.  0.
<mgrwt>
<rscale>  0 0.64689115E+03</rscale>
<asrwt>0</asrwt>
<pdfrwt beam="1">  1        2 0.13941333E+00 0.64689115E+03</pdfrwt>
<pdfrwt beam="2">  1       -2 0.15314473E-01 0.64689115E+03</pdfrwt>
<totfact> 0.98772519E+02</totfact>
</mgrwt>
</event>
<event>
 4    1  0.4895160E-005  0.3905669E+03  0.7818608E-02  0.1047096E+00
         -2   -1    0    0    0  501 -0.00000000000E+00  0.00000000000E+00  0.47818779406E+02  0.47818779474E+02  0.25500000000E-02 0. -1.
          2   -1    0    0  501    0  0.00000000000E+00 -0.00000000000E+00 -0.79750319784E+03  0.79750319784E+03  0.25500000000E-02 0.  1.
    5000001    1    1    2    0    0  0.14455673953E+03 -0.22941837324E+02 -0.42713035030E+03  0.46903338366E+03  0.12700000000E+03 0.  0.
   -5000001    1    1    2    0    0 -0.14455673953E+03  0.22941837324E+02 -0.32255406813E+03  0.37628859365E+03  0.12700000000E+03 0.  0.
<mgrwt>
<rscale>  0 0.39056692E+03</rscale>
<asrwt>0</asrwt>
<pdfrwt beam="1">  1        2 0.11392902E+00 0.39056692E+03</pdfrwt>
<pdfrwt beam="2">  1       -2 0.68312547E-02 0.39056692E+03</pdfrwt>
<totfact> 0.47666785E+03</totfact>
</mgrwt>
</event>
<event>
 4    1  0.4895160E-005  0.8881159E+03  0.7818608E-02  0.9440560E-01
          2   -1    0    0  501    0  0.00000000000E+00  0.00000000000E+00  0.22831915195E+03  0.22831915196E+03  0.25500000000E-02 0.  1.
         -2   -1    0    0    0  501 -0.00000000000E+00 -0.00000000000E+00 -0.86364837333E+03  0.86364837333E+03  0.25500000000E-02 0. -1.
    5000001    1    1    2    0    0  0.24128972852E+03 -0.24327729572E+03 -0.74569307539E+01  0.36549853832E+03  0.12700000000E+03 0.  0.
   -5000001    1    1    2    0    0 -0.24128972852E+03  0.24327729572E+03 -0.62787229063E+03  0.72646898697E+03  0.12700000000E+03 0.  0.
<mgrwt>
<rscale>  0 0.88811590E+03</rscale>
<asrwt>0</asrwt>
<pdfrwt beam="1">  1        2 0.32617022E-01 0.88811590E+03</pdfrwt>
<pdfrwt beam="2">  1       -2 0.12337834E+00 0.88811590E+03</pdfrwt>
<totfact> 0.80524357E+01</totfact>
</mgrwt>
</event>
<event>
 4    1  0.4895160E-005  0.4779293E+03  0.7818608E-02  0.1019706E+00
         -2   -1    0    0    0  501 -0.00000000000E+00  0.00000000000E+00  0.96948772391E+02  0.96948772424E+02  0.25500000000E-02 0. -1.
          2   -1    0    0  501    0  0.00000000000E+00 -0.00000000000E+00 -0.58901324118E+03  0.58901324118E+03  0.25500000000E-02 0.  1.
    5000001    1    1    2    0    0  0.13513230027E+03  0.11613442899E+03 -0.10816198434E+03  0.24408186952E+03  0.12700000000E+03 0.  0.
   -5000001    1    1    2    0    0 -0.13513230027E+03 -0.11613442899E+03 -0.38390248445E+03  0.44188014408E+03  0.12700000000E+03 0.  0.
<mgrwt>
<rscale>  0 0.47792933E+03</rscale>
<asrwt>0</asrwt>
<pdfrwt beam="1">  1        2 0.84144747E-01 0.47792933E+03</pdfrwt>
<pdfrwt beam="2">  1       -2 0.13849825E-01 0.47792933E+03</pdfrwt>
<totfact> 0.22109571E+03</totfact>
</mgrwt>
</event>
<event>
 4    1  0.4895160E-005  0.2804394E+03  0.7818608E-02  0.1095449E+00
         -2   -1    0    0    0  501 -0.00000000000E+00  0.00000000000E+00  0.15707031253E+02  0.15707031460E+02  0.25500000000E-02 0. -1.
          2   -1    0    0  501    0  0.00000000000E+00 -0.00000000000E+00 -0.12517686996E+04  0.12517686996E+04  0.25500000000E-02 0.  1.
    5000001    1    1    2    0    0 -0.54172750530E+02 -0.71765084450E+01 -0.72367569372E+03  0.73676434418E+03  0.12700000000E+03 0.  0.
   -5000001    1    1    2    0    0  0.54172750530E+02  0.71765084450E+01 -0.51238597466E+03  0.53071138691E+03  0.12700000000E+03 0.  0.
<mgrwt>
<rscale>  0 0.28043944E+03</rscale>
<asrwt>0</asrwt>
<pdfrwt beam="1">  1        2 0.17882404E+00 0.28043944E+03</pdfrwt>
<pdfrwt beam="2">  1       -2 0.22438624E-02 0.28043944E+03</pdfrwt>
<totfact> 0.13692906E+04</totfact>
</mgrwt>
</event>
<event>
 4    1  0.4895160E-005  0.3437734E+03  0.7818608E-02  0.1065200E+00
          2   -1    0    0  501    0  0.00000000000E+00  0.00000000000E+00  0.23404135893E+03  0.23404135894E+03  0.25500000000E-02 0.  1.
         -2   -1    0    0    0  501 -0.00000000000E+00 -0.00000000000E+00 -0.12623853515E+03  0.12623853518E+03  0.25500000000E-02 0. -1.
    5000001    1    1    2    0    0  0.24536966656E+02  0.30651759823E+02 -0.60300773825E+02  0.14596840904E+03  0.12700000000E+03 0.  0.
   -5000001    1    1    2    0    0 -0.24536966656E+02 -0.30651759823E+02  0.16810359760E+03  0.21431148508E+03  0.12700000000E+03 0.  0.
<mgrwt>
<rscale>  0 0.34377340E+03</rscale>
<asrwt>0</asrwt>
<pdfrwt beam="1">  1        2 0.33434479E-01 0.34377340E+03</pdfrwt>
<pdfrwt beam="2">  1       -2 0.18034077E-01 0.34377340E+03</pdfrwt>
<totfact> 0.39169394E+03</totfact>
</mgrwt>
</event>
<event>
 4    1  0.4895160E-005  0.3689879E+03  0.7818608E-02  0.1055081E+00
          2   -1    0    0  501    0  0.00000000000E+00  0.00000000000E+00  0.27324387341E+04  0.27324387341E+04  0.25500000000E-02 0.  1.
         -2   -1    0    0    0  501 -0.00000000000E+00 -0.00000000000E+00 -0.12457010928E+02  0.12457011189E+02  0.25500000000E-02 0. -1.
    5000001    1    1    2    0    0  0.13281952476E+03 -0.15954640339E+02  0.13327162239E+04  0.13454207929E+04  0.12700000000E+03 0.  0.
   -5000001    1    1    2    0    0 -0.13281952476E+03  0.15954640339E+02  0.13872654992E+04  0.13994749523E+04  0.12700000000E+03 0.  0.
<mgrwt>
<rscale>  0 0.36898791E+03</rscale>
<asrwt>0</asrwt>
<pdfrwt beam="1">  1        2 0.39034857E+00 0.36898791E+03</pdfrwt>
<pdfrwt beam="2">  1       -2 0.17795722E-02 0.36898791E+03</pdfrwt>
<totfact> 0.34940303E+03</totfact>
</mgrwt>
</event>
<event>
 4    1  0.4895160E-005  0.2802299E+03  0.7818608E-02  0.1095563E+00
          2   -1    0    0  501    0  0.00000000000E+00  0.00000000000E+00  0.13849557894E+04  0.13849557894E+04  0.25500000000E-02 0.  1.
         -2   -1    0    0    0  501 -0.00000000000E+00 -0.00000000000E+00 -0.14175322758E+02  0.14175322987E+02  0.25500000000E-02 0. -1.
    5000001    1    1    2    0    0 -0.24259849383E+01 -0.58841882025E+02  0.71490396093E+03  0.72848124605E+03  0.12700000000E+03 0.  0.
   -5000001    1    1    2    0    0  0.24259849383E+01  0.58841882025E+02  0.65587650567E+03  0.67064986630E+03  0.12700000000E+03 0.  0.
<mgrwt>
<rscale>  0 0.28022987E+03</rscale>
<asrwt>0</asrwt>
<pdfrwt beam="1">  1        2 0.19785070E+00 0.28022987E+03</pdfrwt>
<pdfrwt beam="2">  1       -2 0.20250474E-02 0.28022987E+03</pdfrwt>
<totfact> 0.13560572E+04</totfact>
</mgrwt>
</event>
<event>
 4    1  0.4895160E-005  0.3550727E+03  0.7818608E-02  0.1060552E+00
          2   -1    0    0  501    0  0.00000000000E+00  0.00000000000E+00  0.25934850044E+02  0.25934850169E+02  0.25500000000E-02 0.  1.
         -2   -1    0    0    0  501 -0.00000000000E+00 -0.00000000000E+00 -0.12153202100E+04  0.12153202100E+04  0.25500000000E-02 0. -1.
    5000001    1    1    2    0    0  0.53039311141E+02 -0.95794250876E+02 -0.39084236248E+03  0.42529573162E+03  0.12700000000E+03 0.  0.
   -5000001    1    1    2    0    0 -0.53039311141E+02  0.95794250876E+02 -0.79854299743E+03  0.81595932851E+03  0.12700000000E+03 0.  0.
<mgrwt>
<rscale>  0 0.35507265E+03</rscale>
<asrwt>0</asrwt>
<pdfrwt beam="1">  1        2 0.37049794E-02 0.35507265E+03</pdfrwt>
<pdfrwt beam="2">  1       -2 0.17361714E+00 0.35507265E+03</pdfrwt>
<totfact> 0.50754458E+02</totfact>
</mgrwt>
</event>
<event>
 4    1  0.4895160E-005  0.9635968E+03  0.7818608E-02  0.9349398E-01
         -2   -1    0    0    0  501 -0.00000000000E+00  0.00000000000E+00  0.17767917421E+03  0.17767917423E+03  0.25500000000E-02 0. -1.
          2   -1    0    0  501    0  0.00000000000E+00 -0.00000000000E+00 -0.13064541080E+04  0.13064541080E+04  0.25500000000E-02 0.  1.
    5000001    1    1    2    0    0 -0.27528723889E+03 -0.26448040486E+03 -0.15610986579E+03  0.43154633430E+03  0.12700000000E+03 0.  0.
   -5000001    1    1    2    0    0  0.27528723889E+03  0.26448040486E+03 -0.97266506800E+03  0.10525869479E+04  0.12700000000E+03 0.  0.
<mgrwt>
<rscale>  0 0.96359678E+03</rscale>
<asrwt>0</asrwt>
<pdfrwt beam="1">  1        2 0.18663630E+00 0.96359678E+03</pdfrwt>
<pdfrwt beam="2">  1       -2 0.25382740E-01 0.96359678E+03</pdfrwt>
<totfact> 0.25904783E+02</totfact>
</mgrwt>
</event>
<event>
 4    1  0.4895160E-005  0.3088545E+03  0.7818608E-02  0.1080896E+00
         -2   -1    0    0    0  501 -0.00000000000E+00  0.00000000000E+00  0.84462429961E+02  0.84462429999E+02  0.25500000000E-02 0. -1.
          2   -1    0    0  501    0  0.00000000000E+00 -0.00000000000E+00 -0.28234777862E+03  0.28234777863E+03  0.25500000000E-02 0.  1.
    5000001    1    1    2    0    0 -0.18588845559E+02  0.85143303251E+02 -0.85725478087E+02  0.17627474255E+03  0.12700000000E+03 0.  0.
   -5000001    1    1    2    0    0  0.18588845559E+02 -0.85143303251E+02 -0.11215987057E+03  0.19053546608E+03  0.12700000000E+03 0.  0.
<mgrwt>
<rscale>  0 0.30885453E+03</rscale>
<asrwt>0</asrwt>
<pdfrwt beam="1">  1        2 0.40335397E-01 0.30885453E+03</pdfrwt>
<pdfrwt beam="2">  1       -2 0.12066062E-01 0.30885453E+03</pdfrwt>
<totfact> 0.61938495E+03</totfact>
</mgrwt>
</event>
<event>
 4    1  0.4895160E-005  0.4216560E+03  0.7818608E-02  0.1036529E+00
         -2   -1    0    0    0  501 -0.00000000000E+00  0.00000000000E+00  0.42019770790E+02  0.42019770868E+02  0.25500000000E-02 0.  1.
          2   -1    0    0  501    0  0.00000000000E+00 -0.00000000000E+00 -0.10577985430E+04  0.10577985430E+04  0.25500000000E-02 0. -1.
    5000001    1    1    2    0    0 -0.75859125787E+02 -0.14986238846E+03 -0.53475771340E+03  0.57472441612E+03  0.12700000000E+03 0.  0.
   -5000001    1    1    2    0    0  0.75859125787E+02  0.14986238846E+03 -0.48102105882E+03  0.52509389776E+03  0.12700000000E+03 0.  0.
<mgrwt>
<rscale>  0 0.42165603E+03</rscale>
<asrwt>0</asrwt>
<pdfrwt beam="1">  1        2 0.15111406E+00 0.42165603E+03</pdfrwt>
<pdfrwt beam="2">  1       -2 0.60028251E-02 0.42165603E+03</pdfrwt>
<totfact> 0.40048838E+03</totfact>
</mgrwt>
</event>
<event>
 4    1  0.4895160E-005  0.3126629E+03  0.7818608E-02  0.1079076E+00
          2   -1    0    0  501    0  0.00000000000E+00  0.00000000000E+00  0.89677305456E+03  0.89677305457E+03  0.25500000000E-02 0.  1.
         -2   -1    0    0    0  501 -0.00000000000E+00 -0.00000000000E+00 -0.27252745363E+02  0.27252745483E+02  0.25500000000E-02 0. -1.
    5000001    1    1    2    0    0 -0.78162012868E+02 -0.33339094625E+02  0.53231921386E+03  0.55381724506E+03  0.12700000000E+03 0.  0.
   -5000001    1    1    2    0    0  0.78162012868E+02  0.33339094625E+02  0.33720109534E+03  0.37020855499E+03  0.12700000000E+03 0.  0.
<mgrwt>
<rscale>  0 0.31266294E+03</rscale>
<asrwt>0</asrwt>
<pdfrwt beam="1">  1        2 0.12811043E+00 0.31266294E+03</pdfrwt>
<pdfrwt beam="2">  1       -2 0.38932495E-02 0.31266294E+03</pdfrwt>
<totfact> 0.96647558E+03</totfact>
</mgrwt>
</event>
<event>
 4    1  0.4895160E-005  0.6956586E+03  0.7818608E-02  0.9724686E-01
          2   -1    0    0  501    0  0.00000000000E+00  0.00000000000E+00  0.56596000131E+03  0.56596000132E+03  0.25500000000E-02 0.  1.
         -2   -1    0    0    0  501 -0.00000000000E+00 -0.00000000000E+00 -0.21376990608E+03  0.21376990609E+03  0.25500000000E-02 0. -1.
    5000001    1    1    2    0    0  0.10035179619E+03 -0.29996791357E+03  0.25379021816E+03  0.42495847680E+03  0.12700000000E+03 0.  0.
   -5000001    1    1    2    0    0 -0.10035179619E+03  0.29996791357E+03  0.98399877078E+02  0.35477143061E+03  0.12700000000E+03 0.  0.
<mgrwt>
<rscale>  0 0.69565858E+03</rscale>
<asrwt>0</asrwt>
<pdfrwt beam="1">  1        2 0.80851428E-01 0.69565858E+03</pdfrwt>
<pdfrwt beam="2">  1       -2 0.30538558E-01 0.69565858E+03</pdfrwt>
<totfact> 0.57913660E+02</totfact>
</mgrwt>
</event>
<event>
 4    1  0.4895160E-005  0.3873770E+03  0.7818608E-02  0.1048240E+00
          2   -1    0    0  501    0  0.00000000000E+00  0.00000000000E+00  0.20886475742E+03  0.20886475744E+03  0.25500000000E-02 0.  1.
         -2   -1    0    0    0  501 -0.00000000000E+00 -0.00000000000E+00 -0.17961494771E+03  0.17961494773E+03  0.25500000000E-02 0. -1.
    5000001    1    1    2    0    0  0.10958400254E+03 -0.75294600474E+02  0.75694081875E+02  0.19883793527E+03  0.12700000000E+03 0.  0.
   -5000001    1    1    2    0    0 -0.10958400254E+03  0.75294600474E+02 -0.46444272165E+02  0.18964176990E+03  0.12700000000E+03 0.  0.
<mgrwt>
<rscale>  0 0.38737699E+03</rscale>
<asrwt>0</asrwt>
<pdfrwt beam="1">  1        2 0.29837822E-01 0.38737699E+03</pdfrwt>
<pdfrwt beam="2">  1       -2 0.25659278E-01 0.38737699E+03</pdfrwt>
<totfact> 0.24106706E+03</totfact>
</mgrwt>
</event>
<event>
 4    1  0.4895160E-005  0.4575521E+03  0.7818608E-02  0.1025494E+00
         -2   -1    0    0    0  501 -0.00000000000E+00  0.00000000000E+00  0.74808030981E+02  0.74808031024E+02  0.25500000000E-02 0. -1.
          2   -1    0    0  501    0  0.00000000000E+00 -0.00000000000E+00 -0.69963725362E+03  0.69963725363E+03  0.25500000000E-02 0.  1.
    5000001    1    1    2    0    0 -0.17731355278E+03  0.87733513175E+01 -0.19647055243E+03  0.29367796251E+03  0.12700000000E+03 0.  0.
   -5000001    1    1    2    0    0  0.17731355278E+03 -0.87733513175E+01 -0.42835867022E+03  0.48076732214E+03  0.12700000000E+03 0.  0.
<mgrwt>
<rscale>  0 0.45755212E+03</rscale>
<asrwt>0</asrwt>
<pdfrwt beam="1">  1        2 0.99948175E-01 0.45755212E+03</pdfrwt>
<pdfrwt beam="2">  1       -2 0.10686862E-01 0.45755212E+03</pdfrwt>
<totfact> 0.27567601E+03</totfact>
</mgrwt>
</event>
<event>
 4    1  0.4895160E-005  0.5948210E+03  0.7818608E-02  0.9916209E-01
          2   -1    0    0  501    0  0.00000000000E+00  0.00000000000E+00  0.21579918057E+04  0.21579918057E+04  0.25500000000E-02 0.  1.
         -2   -1    0    0    0  501 -0.00000000000E+00 -0.00000000000E+00 -0.40988572054E+02  0.40988572133E+02  0.25500000000E-02 0. -1.
    5000001    1    1    2    0    0 -0.38649449963E+02  0.11673743189E+03  0.19426861887E+04  0.19507126994E+04  0.12700000000E+03 0.  0.
   -5000001    1    1    2    0    0  0.38649449963E+02 -0.11673743189E+03  0.17431704502E+03  0.24826767847E+03  0.12700000000E+03 0.  0.
<mgrwt>
<rscale>  0 0.59482099E+03</rscale>
<asrwt>0</asrwt>
<pdfrwt beam="1">  1        2 0.30828455E+00 0.59482099E+03</pdfrwt>
<pdfrwt beam="2">  1       -2 0.58555102E-02 0.59482099E+03</pdfrwt>
<totfact> 0.11076266E+03</totfact>
</mgrwt>
</event>
<event>
 4    1  0.4895160E-005  0.3242026E+03  0.7818608E-02  0.1073731E+00
          2   -1    0    0  501    0  0.00000000000E+00  0.00000000000E+00  0.26647059201E+04  0.26647059201E+04  0.25500000000E-02 0.  1.
         -2   -1    0    0    0  501 -0.00000000000E+00 -0.00000000000E+00 -0.98610641055E+01  0.98610644353E+01  0.25500000000E-02 0. -1.
    5000001    1    1    2    0    0  0.93161889769E+02  0.38322539227E+02  0.13297793601E+04  0.13396230444E+04  0.12700000000E+03 0.  0.
   -5000001    1    1    2    0    0 -0.93161889769E+02 -0.38322539227E+02  0.13250654959E+04  0.13349439401E+04  0.12700000000E+03 0.  0.
<mgrwt>
<rscale>  0 0.32420263E+03</rscale>
<asrwt>0</asrwt>
<pdfrwt beam="1">  1        2 0.38067225E+00 0.32420263E+03</pdfrwt>
<pdfrwt beam="2">  1       -2 0.14087236E-02 0.32420263E+03</pdfrwt>
<totfact> 0.53523200E+03</totfact>
</mgrwt>
</event>
<event>
 4    1  0.4895160E-005  0.4807937E+03  0.7818608E-02  0.1018917E+00
         -2   -1    0    0    0  501 -0.00000000000E+00  0.00000000000E+00  0.35123142371E+02  0.35123142464E+02  0.25500000000E-02 0. -1.
          2   -1    0    0  501    0  0.00000000000E+00 -0.00000000000E+00 -0.16453725576E+04  0.16453725576E+04  0.25500000000E-02 0.  1.
    5000001    1    1    2    0    0  0.20331513178E+03 -0.21327552087E+01 -0.86765586768E+03  0.90016514939E+03  0.12700000000E+03 0.  0.
   -5000001    1    1    2    0    0 -0.20331513178E+03  0.21327552087E+01 -0.74259354753E+03  0.78033055065E+03  0.12700000000E+03 0.  0.
<mgrwt>
<rscale>  0 0.48079374E+03</rscale>
<asrwt>0</asrwt>
<pdfrwt beam="1">  1        2 0.23505317E+00 0.48079374E+03</pdfrwt>
<pdfrwt beam="2">  1       -2 0.50175928E-02 0.48079374E+03</pdfrwt>
<totfact> 0.25597753E+03</totfact>
</mgrwt>
</event>
<event>
 4    1  0.4895160E-005  0.3242628E+03  0.7818608E-02  0.1073704E+00
          2   -1    0    0  501    0  0.00000000000E+00  0.00000000000E+00  0.67429055812E+03  0.67429055813E+03  0.25500000000E-02 0.  1.
         -2   -1    0    0    0  501 -0.00000000000E+00 -0.00000000000E+00 -0.38984070910E+02  0.38984070993E+02  0.25500000000E-02 0. -1.
    5000001    1    1    2    0    0 -0.70051350702E+02 -0.72457338411E+02  0.31638324797E+03  0.35550614231E+03  0.12700000000E+03 0.  0.
   -5000001    1    1    2    0    0  0.70051350702E+02  0.72457338411E+02  0.31892323924E+03  0.35776848681E+03  0.12700000000E+03 0.  0.
<mgrwt>
<rscale>  0 0.32426280E+03</rscale>
<asrwt>0</asrwt>
<pdfrwt beam="1">  1        2 0.96327226E-01 0.32426280E+03</pdfrwt>
<pdfrwt beam="2">  1       -2 0.55691528E-02 0.32426280E+03</pdfrwt>
<totfact> 0.79859741E+03</totfact>
</mgrwt>
</event>
<event>
 4    1  0.4895160E-005  0.3722771E+03  0.7818608E-02  0.1053826E+00
          2   -1    0    0  501    0  0.00000000000E+00  0.00000000000E+00  0.62142583735E+03  0.62142583735E+03  0.25500000000E-02 0.  1.
         -2   -1    0    0    0  501 -0.00000000000E+00 -0.00000000000E+00 -0.55754925687E+02  0.55754925746E+02  0.25500000000E-02 0. -1.
    5000001    1    1    2    0    0 -0.12097370965E+03 -0.60759372404E+02  0.30805447466E+03  0.35965664059E+03  0.12700000000E+03 0.  0.
   -5000001    1    1    2    0    0  0.12097370965E+03  0.60759372404E+02  0.25761643700E+03  0.31752412251E+03  0.12700000000E+03 0.  0.
<mgrwt>
<rscale>  0 0.37227705E+03</rscale>
<asrwt>0</asrwt>
<pdfrwt beam="1">  1        2 0.88775107E-01 0.37227705E+03</pdfrwt>
<pdfrwt beam="2">  1       -2 0.79649905E-02 0.37227705E+03</pdfrwt>
<totfact> 0.50582286E+03</totfact>
</mgrwt>
</event>
<event>
 4    1  0.4895160E-005  0.8103982E+03  0.7818608E-02  0.9545087E-01
         -2   -1    0    0    0  501 -0.00000000000E+00  0.00000000000E+00  0.10204573940E+03  0.10204573943E+03  0.25500000000E-02 0. -1.
          2   -1    0    0  501    0  0.00000000000E+00 -0.00000000000E+00 -0.16089482674E+04  0.16089482674E+04  0.25500000000E-02 0.  1.
    5000001    1    1    2    0    0  0.31062216317E+03 -0.90952880423E+01 -0.12325278856E+04  0.12774282138E+04  0.12700000000E+03 0.  0.
   -5000001    1    1    2    0    0 -0.31062216317E+03  0.90952880423E+01 -0.27437464236E+03  0.43356579304E+03  0.12700000000E+03 0.  0.
<mgrwt>
<rscale>  0 0.81039821E+03</rscale>
<asrwt>0</asrwt>
<pdfrwt beam="1">  1        2 0.22984974E+00 0.81039821E+03</pdfrwt>
<pdfrwt beam="2">  1       -2 0.14577964E-01 0.81039821E+03</pdfrwt>
<totfact> 0.47463144E+02</totfact>
</mgrwt>
</event>
<event>
 4    1  0.4895160E-005  0.3353222E+03  0.7818608E-02  0.1068806E+00
         -2   -1    0    0    0  501 -0.00000000000E+00  0.00000000000E+00  0.11083746815E+02  0.11083747109E+02  0.25500000000E-02 0. -1.
          2   -1    0    0  501    0  0.00000000000E+00 -0.00000000000E+00 -0.25361679444E+04  0.25361679444E+04  0.25500000000E-02 0.  1.
    5000001    1    1    2    0    0  0.92074050615E+02 -0.46822722770E+02 -0.15376173878E+04  0.15463072881E+04  0.12700000000E+03 0.  0.
   -5000001    1    1    2    0    0 -0.92074050615E+02  0.46822722770E+02 -0.98746680981E+03  0.10009444034E+04  0.12700000000E+03 0.  0.
<mgrwt>
<rscale>  0 0.33532220E+03</rscale>
<asrwt>0</asrwt>
<pdfrwt beam="1">  1        2 0.36230933E+00 0.33532220E+03</pdfrwt>
<pdfrwt beam="2">  1       -2 0.15833940E-02 0.33532220E+03</pdfrwt>
<totfact> 0.52356898E+03</totfact>
</mgrwt>
</event>
<event>
 4    1  0.4895160E-005  0.4218514E+03  0.7818608E-02  0.1036465E+00
          2   -1    0    0  501    0  0.00000000000E+00  0.00000000000E+00  0.79900507330E+03  0.79900507330E+03  0.25500000000E-02 0.  1.
         -2   -1    0    0    0  501 -0.00000000000E+00 -0.00000000000E+00 -0.55681305856E+02  0.55681305915E+02  0.25500000000E-02 0. -1.
    5000001    1    1    2    0    0 -0.16506313763E+03 -0.33220595253E+02  0.36488190957E+03  0.42144662210E+03  0.12700000000E+03 0.  0.
   -5000001    1    1    2    0    0  0.16506313763E+03  0.33220595253E+02  0.37844185788E+03  0.43323975712E+03  0.12700000000E+03 0.  0.
<mgrwt>
<rscale>  0 0.42185138E+03</rscale>
<asrwt>0</asrwt>
<pdfrwt beam="1">  1        2 0.11414358E+00 0.42185138E+03</pdfrwt>
<pdfrwt beam="2">  1       -2 0.79544725E-02 0.42185138E+03</pdfrwt>
<totfact> 0.37485943E+03</totfact>
</mgrwt>
</event>
<event>
 4    1  0.4895160E-005  0.4170647E+03  0.7818608E-02  0.1038026E+00
          2   -1    0    0  501    0  0.00000000000E+00  0.00000000000E+00  0.24132655830E+04  0.24132655830E+04  0.25500000000E-02 0.  1.
         -2   -1    0    0    0  501 -0.00000000000E+00 -0.00000000000E+00 -0.18019459496E+02  0.18019459676E+02  0.25500000000E-02 0. -1.
    5000001    1    1    2    0    0  0.14737433052E+02 -0.84948477835E+02  0.20204587935E+04  0.20262813655E+04  0.12700000000E+03 0.  0.
   -5000001    1    1    2    0    0 -0.14737433052E+02  0.84948477835E+02  0.37478733000E+03  0.40500367720E+03  0.12700000000E+03 0.  0.
<mgrwt>
<rscale>  0 0.41706470E+03</rscale>
<asrwt>0</asrwt>
<pdfrwt beam="1">  1        2 0.34475237E+00 0.41706470E+03</pdfrwt>
<pdfrwt beam="2">  1       -2 0.25742074E-02 0.41706470E+03</pdfrwt>
<totfact> 0.29243525E+03</totfact>
</mgrwt>
</event>
<event>
 4    1  0.4895160E-005  0.2975876E+03  0.7818608E-02  0.1086453E+00
          2   -1    0    0  501    0  0.00000000000E+00  0.00000000000E+00  0.20726219101E+04  0.20726219101E+04  0.25500000000E-02 0.  1.
         -2   -1    0    0    0  501 -0.00000000000E+00 -0.00000000000E+00 -0.10681923471E+02  0.10681923775E+02  0.25500000000E-02 0. -1.
    5000001    1    1    2    0    0 -0.74436809314E+02  0.13131985578E+02  0.11516780504E+04  0.11611221380E+04  0.12700000000E+03 0.  0.
   -5000001    1    1    2    0    0  0.74436809314E+02 -0.13131985578E+02  0.91026193628E+03  0.92218169591E+03  0.12700000000E+03 0.  0.
<mgrwt>
<rscale>  0 0.29758756E+03</rscale>
<asrwt>0</asrwt>
<pdfrwt beam="1">  1        2 0.29608944E+00 0.29758756E+03</pdfrwt>
<pdfrwt beam="2">  1       -2 0.15259860E-02 0.29758756E+03</pdfrwt>
<totfact> 0.93777289E+03</totfact>
</mgrwt>
</event>
<event>
 4    1  0.4895160E-005  0.6320285E+03  0.7818608E-02  0.9841098E-01
          2   -1    0    0  501    0  0.00000000000E+00  0.00000000000E+00  0.35912178032E+04  0.35912178032E+04  0.25500000000E-02 0.  1.
         -2   -1    0    0    0  501 -0.00000000000E+00 -0.00000000000E+00 -0.27808118219E+02  0.27808118336E+02  0.25500000000E-02 0. -1.
    5000001    1    1    2    0    0  0.12475983506E+02 -0.18063564277E+03  0.30742088796E+04  0.30821541365E+04  0.12700000000E+03 0.  0.
   -5000001    1    1    2    0    0 -0.12475983506E+02  0.18063564277E+03  0.48920080537E+03  0.53687178504E+03  0.12700000000E+03 0.  0.
<mgrwt>
<rscale>  0 0.63202851E+03</rscale>
<asrwt>0</asrwt>
<pdfrwt beam="1">  1        2 0.51303103E+00 0.63202851E+03</pdfrwt>
<pdfrwt beam="2">  1       -2 0.39725890E-02 0.63202851E+03</pdfrwt>
<totfact> 0.33744988E+02</totfact>
</mgrwt>
</event>
<event>
 4    1  0.4895160E-005  0.2740977E+03  0.7818608E-02  0.1098957E+00
          2   -1    0    0  501    0  0.00000000000E+00  0.00000000000E+00  0.24130654025E+03  0.24130654027E+03  0.25500000000E-02 0.  1.
         -2   -1    0    0    0  501 -0.00000000000E+00 -0.00000000000E+00 -0.77836192087E+02  0.77836192129E+02  0.25500000000E-02 0. -1.
    5000001    1    1    2    0    0 -0.28256320977E+02 -0.31174224812E+02  0.47133906493E+02  0.14184800707E+03  0.12700000000E+03 0.  0.
   -5000001    1    1    2    0    0  0.28256320977E+02  0.31174224812E+02  0.11633644168E+03  0.17729472533E+03  0.12700000000E+03 0.  0.
<mgrwt>
<rscale>  0 0.27409766E+03</rscale>
<asrwt>0</asrwt>
<pdfrwt beam="1">  1        2 0.34472363E-01 0.27409766E+03</pdfrwt>
<pdfrwt beam="2">  1       -2 0.11119456E-01 0.27409766E+03</pdfrwt>
<totfact> 0.83408181E+03</totfact>
</mgrwt>
</event>
<event>
 4    1  0.4895160E-005  0.3128432E+03  0.7818608E-02  0.1078991E+00
         -2   -1    0    0    0  501 -0.00000000000E+00  0.00000000000E+00  0.11227743585E+02  0.11227743875E+02  0.25500000000E-02 0. -1.
          2   -1    0    0  501    0  0.00000000000E+00 -0.00000000000E+00 -0.21792193516E+04  0.21792193516E+04  0.25500000000E-02 0.  1.
    5000001    1    1    2    0    0 -0.42881390894E+02  0.80450276690E+02 -0.11208170480E+04  0.11316673168E+04  0.12700000000E+03 0.  0.
   -5000001    1    1    2    0    0  0.42881390894E+02 -0.80450276690E+02 -0.10471745600E+04  0.10587797787E+04  0.12700000000E+03 0.  0.
<mgrwt>
<rscale>  0 0.31284320E+03</rscale>
<asrwt>0</asrwt>
<pdfrwt beam="1">  1        2 0.31131678E+00 0.31284320E+03</pdfrwt>
<pdfrwt beam="2">  1       -2 0.16039648E-02 0.31284320E+03</pdfrwt>
<totfact> 0.77310555E+03</totfact>
</mgrwt>
</event>
<event>
 4    1  0.4895160E-005  0.3408829E+03  0.7818608E-02  0.1066420E+00
         -2   -1    0    0    0  501 -0.00000000000E+00  0.00000000000E+00  0.35128562768E+02  0.35128562861E+02  0.25500000000E-02 0. -1.
          2   -1    0    0  501    0  0.00000000000E+00 -0.00000000000E+00 -0.82697078725E+03  0.82697078725E+03  0.25500000000E-02 0.  1.
    5000001    1    1    2    0    0 -0.96222721167E+02  0.44956541370E+02 -0.29346018588E+03  0.33693884219E+03  0.12700000000E+03 0.  0.
   -5000001    1    1    2    0    0  0.96222721167E+02 -0.44956541370E+02 -0.49838203860E+03  0.52516050792E+03  0.12700000000E+03 0.  0.
<mgrwt>
<rscale>  0 0.34088294E+03</rscale>
<asrwt>0</asrwt>
<pdfrwt beam="1">  1        2 0.11813867E+00 0.34088294E+03</pdfrwt>
<pdfrwt beam="2">  1       -2 0.50183666E-02 0.34088294E+03</pdfrwt>
<totfact> 0.73112599E+03</totfact>
</mgrwt>
</event>
<event>
 4    1  0.4895160E-005  0.4857850E+03  0.7818608E-02  0.1017557E+00
          2   -1    0    0  501    0  0.00000000000E+00  0.00000000000E+00  0.23491572251E+04  0.23491572251E+04  0.25500000000E-02 0.  1.
         -2   -1    0    0    0  501 -0.00000000000E+00 -0.00000000000E+00 -0.25114009749E+02  0.25114009878E+02  0.25500000000E-02 0. -1.
    5000001    1    1    2    0    0  0.65830700885E+01  0.36547905572E+02  0.21575439861E+04  0.21615975893E+04  0.12700000000E+03 0.  0.
   -5000001    1    1    2    0    0 -0.65830700885E+01 -0.36547905572E+02  0.16649922923E+03  0.21267364563E+03  0.12700000000E+03 0.  0.
<mgrwt>
<rscale>  0 0.48578496E+03</rscale>
<asrwt>0</asrwt>
<pdfrwt beam="1">  1        2 0.33559397E+00 0.48578496E+03</pdfrwt>
<pdfrwt beam="2">  1       -2 0.35877148E-02 0.48578496E+03</pdfrwt>
<totfact> 0.19010405E+03</totfact>
</mgrwt>
</event>
<event>
 4    1  0.4895160E-005  0.4471543E+03  0.7818608E-02  0.1028574E+00
         -2   -1    0    0    0  501 -0.00000000000E+00  0.00000000000E+00  0.10160337335E+02  0.10160337655E+02  0.25500000000E-02 0. -1.
          2   -1    0    0  501    0  0.00000000000E+00 -0.00000000000E+00 -0.49197908194E+04  0.49197908194E+04  0.25500000000E-02 0.  1.
    5000001    1    1    2    0    0  0.16744182823E+03  0.49580107344E+02 -0.18154712200E+04  0.18282668579E+04  0.12700000000E+03 0.  0.
   -5000001    1    1    2    0    0 -0.16744182823E+03 -0.49580107344E+02 -0.30941592621E+04  0.31016842992E+04  0.12700000000E+03 0.  0.
<mgrwt>
<rscale>  0 0.44715427E+03</rscale>
<asrwt>0</asrwt>
<pdfrwt beam="1">  1        2 0.70282574E+00 0.44715427E+03</pdfrwt>
<pdfrwt beam="2">  1       -2 0.14514799E-02 0.44715427E+03</pdfrwt>
<totfact> 0.17177235E+02</totfact>
</mgrwt>
</event>
<event>
 4    1  0.4895160E-005  0.3962293E+03  0.7818608E-02  0.1045093E+00
          2   -1    0    0  501    0  0.00000000000E+00  0.00000000000E+00  0.18045899397E+04  0.18045899397E+04  0.25500000000E-02 0.  1.
         -2   -1    0    0    0  501 -0.00000000000E+00 -0.00000000000E+00 -0.21749766351E+02  0.21749766501E+02  0.25500000000E-02 0. -1.
    5000001    1    1    2    0    0 -0.13978358256E+03 -0.54620585001E+02  0.77874636366E+03  0.80317977886E+03  0.12700000000E+03 0.  0.
   -5000001    1    1    2    0    0  0.13978358256E+03  0.54620585001E+02  0.10040938097E+04  0.10231599274E+04  0.12700000000E+03 0.  0.
<mgrwt>
<rscale>  0 0.39622928E+03</rscale>
<asrwt>0</asrwt>
<pdfrwt beam="1">  1        2 0.25779866E+00 0.39622928E+03</pdfrwt>
<pdfrwt beam="2">  1       -2 0.31071083E-02 0.39622928E+03</pdfrwt>
<totfact> 0.44263008E+03</totfact>
</mgrwt>
</event>
<event>
 4    1  0.4895160E-005  0.3809535E+03  0.7818608E-02  0.1050582E+00
          2   -1    0    0  501    0  0.00000000000E+00  0.00000000000E+00  0.13590779375E+03  0.13590779378E+03  0.25500000000E-02 0.  1.
         -2   -1    0    0    0  501 -0.00000000000E+00 -0.00000000000E+00 -0.26695596694E+03  0.26695596695E+03  0.25500000000E-02 0. -1.
    5000001    1    1    2    0    0 -0.13706907136E+03 -0.15758277974E+02 -0.10085428704E+03  0.21292449568E+03  0.12700000000E+03 0.  0.
   -5000001    1    1    2    0    0  0.13706907136E+03  0.15758277974E+02 -0.30193886148E+02  0.18993926505E+03  0.12700000000E+03 0.  0.
<mgrwt>
<rscale>  0 0.38095352E+03</rscale>
<asrwt>0</asrwt>
<pdfrwt beam="1">  1        2 0.19415399E-01 0.38095352E+03</pdfrwt>
<pdfrwt beam="2">  1       -2 0.38136566E-01 0.38095352E+03</pdfrwt>
<totfact> 0.18896008E+03</totfact>
</mgrwt>
</event>
<event>
 4    1  0.4895160E-005  0.3658430E+03  0.7818608E-02  0.1056294E+00
          2   -1    0    0  501    0  0.00000000000E+00  0.00000000000E+00  0.34207061698E+03  0.34207061699E+03  0.25500000000E-02 0.  1.
         -2   -1    0    0    0  501 -0.00000000000E+00 -0.00000000000E+00 -0.97816853305E+02  0.97816853339E+02  0.25500000000E-02 0. -1.
    5000001    1    1    2    0    0  0.12782821353E+03  0.22929191493E+02  0.14806827857E+03  0.23434806403E+03  0.12700000000E+03 0.  0.
   -5000001    1    1    2    0    0 -0.12782821353E+03 -0.22929191493E+02  0.96185485114E+02  0.20553940630E+03  0.12700000000E+03 0.  0.
<mgrwt>
<rscale>  0 0.36584298E+03</rscale>
<asrwt>0</asrwt>
<pdfrwt beam="1">  1        2 0.48867231E-01 0.36584298E+03</pdfrwt>
<pdfrwt beam="2">  1       -2 0.13973836E-01 0.36584298E+03</pdfrwt>
<totfact> 0.39760817E+03</totfact>
</mgrwt>
</event>
<event>
 4    1  0.4895160E-005  0.3279403E+03  0.7818608E-02  0.1072052E+00
          2   -1    0    0  501    0  0.00000000000E+00  0.00000000000E+00  0.35658506189E+03  0.35658506190E+03  0.25500000000E-02 0. -1.
         -2   -1    0    0    0  501 -0.00000000000E+00 -0.00000000000E+00 -0.75399146018E+02  0.75399146061E+02  0.25500000000E-02 0.  1.
    5000001    1    1    2    0    0  0.89882749569E+02  0.44958019588E+02  0.10682683403E+03  0.19401315591E+03  0.12700000000E+03 0.  0.
   -5000001    1    1    2    0    0 -0.89882749569E+02 -0.44958019588E+02  0.17435908184E+03  0.23797105206E+03  0.12700000000E+03 0.  0.
<mgrwt>
<rscale>  0 0.32794029E+03</rscale>
<asrwt>0</asrwt>
<pdfrwt beam="1">  1        2 0.50940723E-01 0.32794029E+03</pdfrwt>
<pdfrwt beam="2">  1       -2 0.10771307E-01 0.32794029E+03</pdfrwt>
<totfact> 0.57901095E+03</totfact>
</mgrwt>
</event>
<event>
 4    1  0.4895160E-005  0.5893721E+03  0.7818608E-02  0.9927704E-01
         -2   -1    0    0    0  501 -0.00000000000E+00  0.00000000000E+00  0.14546890480E+03  0.14546890483E+03  0.25500000000E-02 0. -1.
          2   -1    0    0  501    0  0.00000000000E+00 -0.00000000000E+00 -0.59696508134E+03  0.59696508135E+03  0.25500000000E-02 0.  1.
    5000001    1    1    2    0    0  0.12301221171E+03  0.13228324686E+03 -0.47156782031E+03  0.52070727936E+03  0.12700000000E+03 0.  0.
   -5000001    1    1    2    0    0 -0.12301221171E+03 -0.13228324686E+03  0.20071643769E+02  0.22172670681E+03  0.12700000000E+03 0.  0.
<mgrwt>
<rscale>  0 0.58937206E+03</rscale>
<asrwt>0</asrwt>
<pdfrwt beam="1">  1        2 0.85280725E-01 0.58937206E+03</pdfrwt>
<pdfrwt beam="2">  1       -2 0.20781272E-01 0.58937206E+03</pdfrwt>
<totfact> 0.10905100E+03</totfact>
</mgrwt>
</event>
<event>
 4    1  0.4895160E-005  0.3112002E+03  0.7818608E-02  0.1079772E+00
         -2   -1    0    0    0  501 -0.00000000000E+00  0.00000000000E+00  0.23728914082E+02  0.23728914219E+02  0.25500000000E-02 0. -1.
          2   -1    0    0  501    0  0.00000000000E+00 -0.00000000000E+00 -0.10203326376E+04  0.10203326376E+04  0.25500000000E-02 0.  1.
    5000001    1    1    2    0    0  0.53357701552E+02 -0.71588224179E+02 -0.46304015159E+03  0.48837188713E+03  0.12700000000E+03 0.  0.
   -5000001    1    1    2    0    0 -0.53357701552E+02  0.71588224179E+02 -0.53356357195E+03  0.55568966471E+03  0.12700000000E+03 0.  0.
<mgrwt>
<rscale>  0 0.31120016E+03</rscale>
<asrwt>0</asrwt>
<pdfrwt beam="1">  1        2 0.14576178E+00 0.31120016E+03</pdfrwt>
<pdfrwt beam="2">  1       -2 0.33898455E-02 0.31120016E+03</pdfrwt>
<totfact> 0.10011603E+04</totfact>
</mgrwt>
</event>
<event>
 4    1  0.4895160E-005  0.6253102E+03  0.7818608E-02  0.9854244E-01
          2   -1    0    0  501    0  0.00000000000E+00  0.00000000000E+00  0.53550140337E+03  0.53550140338E+03  0.25500000000E-02 0.  1.
         -2   -1    0    0    0  501 -0.00000000000E+00 -0.00000000000E+00 -0.18254520857E+03  0.18254520858E+03  0.25500000000E-02 0. -1.
    5000001    1    1    2    0    0 -0.13308287138E+03  0.24320637722E+03  0.25573460203E+03  0.39798188307E+03  0.12700000000E+03 0.  0.
   -5000001    1    1    2    0    0  0.13308287138E+03 -0.24320637722E+03  0.97221592782E+02  0.32006472889E+03  0.12700000000E+03 0.  0.
<mgrwt>
<rscale>  0 0.62531021E+03</rscale>
<asrwt>0</asrwt>
<pdfrwt beam="1">  1        2 0.76500201E-01 0.62531021E+03</pdfrwt>
<pdfrwt beam="2">  1       -2 0.26077887E-01 0.62531021E+03</pdfrwt>
<totfact> 0.82596350E+02</totfact>
</mgrwt>
</event>
<event>
 4    1  0.4895160E-005  0.4738648E+03  0.7818608E-02  0.1020835E+00
          2   -1    0    0  501    0  0.00000000000E+00  0.00000000000E+00  0.33752426610E+02  0.33752426706E+02  0.25500000000E-02 0.  1.
         -2   -1    0    0    0  501 -0.00000000000E+00 -0.00000000000E+00 -0.16631977419E+04  0.16631977419E+04  0.25500000000E-02 0. -1.
    5000001    1    1    2    0    0 -0.66382036606E+02 -0.14108412172E+03 -0.12633835484E+04  0.12792881984E+04  0.12700000000E+03 0.  0.
   -5000001    1    1    2    0    0  0.66382036606E+02  0.14108412172E+03 -0.36606176690E+03  0.41766197022E+03  0.12700000000E+03 0.  0.
<mgrwt>
<rscale>  0 0.47386479E+03</rscale>
<asrwt>0</asrwt>
<pdfrwt beam="1">  1        2 0.48217763E-02 0.47386479E+03</pdfrwt>
<pdfrwt beam="2">  1       -2 0.23759963E+00 0.47386479E+03</pdfrwt>
<totfact> 0.13867915E+02</totfact>
</mgrwt>
</event>
<event>
 4    1  0.4895160E-005  0.5670549E+03  0.7818608E-02  0.9976217E-01
          2   -1    0    0  501    0  0.00000000000E+00  0.00000000000E+00  0.10544759522E+04  0.10544759522E+04  0.25500000000E-02 0.  1.
         -2   -1    0    0    0  501 -0.00000000000E+00 -0.00000000000E+00 -0.76234844602E+02  0.76234844644E+02  0.25500000000E-02 0. -1.
    5000001    1    1    2    0    0  0.20381353764E+03  0.55871966360E+02  0.76826126851E+03  0.80685563234E+03  0.12700000000E+03 0.  0.
   -5000001    1    1    2    0    0 -0.20381353764E+03 -0.55871966360E+02  0.20997983908E+03  0.32385516450E+03  0.12700000000E+03 0.  0.
<mgrwt>
<rscale>  0 0.56705488E+03</rscale>
<asrwt>0</asrwt>
<pdfrwt beam="1">  1        2 0.15063942E+00 0.56705488E+03</pdfrwt>
<pdfrwt beam="2">  1       -2 0.10890692E-01 0.56705488E+03</pdfrwt>
<totfact> 0.15610718E+03</totfact>
</mgrwt>
</event>
<event>
 4    1  0.4895160E-005  0.4009244E+03  0.7818608E-02  0.1043460E+00
         -2   -1    0    0    0  501 -0.00000000000E+00  0.00000000000E+00  0.81762340157E+02  0.81762340197E+02  0.25500000000E-02 0. -1.
          2   -1    0    0  501    0  0.00000000000E+00 -0.00000000000E+00 -0.49148647326E+03  0.49148647327E+03  0.25500000000E-02 0.  1.
    5000001    1    1    2    0    0 -0.15404327564E+03  0.16065244719E+02 -0.19301428763E+03  0.27815631951E+03  0.12700000000E+03 0.  0.
   -5000001    1    1    2    0    0  0.15404327564E+03 -0.16065244719E+02 -0.21670984548E+03  0.29509249395E+03  0.12700000000E+03 0.  0.
<mgrwt>
<rscale>  0 0.40092435E+03</rscale>
<asrwt>0</asrwt>
<pdfrwt beam="1">  1        2 0.70212352E-01 0.40092435E+03</pdfrwt>
<pdfrwt beam="2">  1       -2 0.11680335E-01 0.40092435E+03</pdfrwt>
<totfact> 0.35881128E+03</totfact>
</mgrwt>
</event>
<event>
 4    1  0.4895160E-005  0.3823101E+03  0.7818608E-02  0.1050083E+00
          2   -1    0    0  501    0  0.00000000000E+00  0.00000000000E+00  0.50209062596E+03  0.50209062597E+03  0.25500000000E-02 0.  1.
         -2   -1    0    0    0  501 -0.00000000000E+00 -0.00000000000E+00 -0.72776198831E+02  0.72776198876E+02  0.25500000000E-02 0. -1.
    5000001    1    1    2    0    0 -0.48967887038E+02 -0.12046003559E+03  0.30365055495E+03  0.35389424078E+03  0.12700000000E+03 0.  0.
   -5000001    1    1    2    0    0  0.48967887038E+02  0.12046003559E+03  0.12566387218E+03  0.22097258406E+03  0.12700000000E+03 0.  0.
<mgrwt>
<rscale>  0 0.38231007E+03</rscale>
<asrwt>0</asrwt>
<pdfrwt beam="1">  1        2 0.71727233E-01 0.38231007E+03</pdfrwt>
<pdfrwt beam="2">  1       -2 0.10396600E-01 0.38231007E+03</pdfrwt>
<totfact> 0.42252298E+03</totfact>
</mgrwt>
</event>
<event>
 4    1  0.4895160E-005  0.4549361E+03  0.7818608E-02  0.1026260E+00
         -2   -1    0    0    0  501 -0.00000000000E+00  0.00000000000E+00  0.15433396999E+02  0.15433397210E+02  0.25500000000E-02 0. -1.
          2   -1    0    0  501    0  0.00000000000E+00 -0.00000000000E+00 -0.33525813331E+04  0.33525813331E+04  0.25500000000E-02 0.  1.
    5000001    1    1    2    0    0 -0.90668788943E+02  0.16091366222E+03 -0.19551754683E+04  0.19679822529E+04  0.12700000000E+03 0.  0.
   -5000001    1    1    2    0    0  0.90668788943E+02 -0.16091366222E+03 -0.13819724678E+04  0.14000324774E+04  0.12700000000E+03 0.  0.
<mgrwt>
<rscale>  0 0.45493612E+03</rscale>
<asrwt>0</asrwt>
<pdfrwt beam="1">  1        2 0.47893973E+00 0.45493612E+03</pdfrwt>
<pdfrwt beam="2">  1       -2 0.22047732E-02 0.45493612E+03</pdfrwt>
<totfact> 0.11626996E+03</totfact>
</mgrwt>
</event>
<event>
 4    1  0.4895160E-005  0.6123772E+03  0.7818608E-02  0.9880055E-01
          2   -1    0    0  501    0  0.00000000000E+00  0.00000000000E+00  0.27731097125E+03  0.27731097126E+03  0.25500000000E-02 0.  1.
         -2   -1    0    0    0  501 -0.00000000000E+00 -0.00000000000E+00 -0.33807338304E+03  0.33807338305E+03  0.25500000000E-02 0. -1.
    5000001    1    1    2    0    0 -0.86435502579E+02  0.48364142857E+02 -0.29206786702E+03  0.33353084620E+03  0.12700000000E+03 0.  0.
   -5000001    1    1    2    0    0  0.86435502579E+02 -0.48364142857E+02  0.23130545522E+03  0.28185350811E+03  0.12700000000E+03 0.  0.
<mgrwt>
<rscale>  0 0.61237720E+03</rscale>
<asrwt>0</asrwt>
<pdfrwt beam="1">  1        2 0.39615853E-01 0.61237720E+03</pdfrwt>
<pdfrwt beam="2">  1       -2 0.48296198E-01 0.61237720E+03</pdfrwt>
<totfact> 0.53272412E+02</totfact>
</mgrwt>
</event>
<event>
 4    1  0.4895160E-005  0.5163166E+03  0.7818608E-02  0.1009606E+00
         -2   -1    0    0    0  501 -0.00000000000E+00  0.00000000000E+00  0.85016785071E+02  0.85016785109E+02  0.25500000000E-02 0. -1.
          2   -1    0    0  501    0  0.00000000000E+00 -0.00000000000E+00 -0.78391242407E+03  0.78391242407E+03  0.25500000000E-02 0.  1.
    5000001    1    1    2    0    0 -0.13102768280E+03  0.18222767068E+03 -0.32942604974E+03  0.41836072936E+03  0.12700000000E+03 0.  0.
   -5000001    1    1    2    0    0  0.13102768280E+03 -0.18222767068E+03 -0.36946958926E+03  0.45056847982E+03  0.12700000000E+03 0.  0.
<mgrwt>
<rscale>  0 0.51631662E+03</rscale>
<asrwt>0</asrwt>
<pdfrwt beam="1">  1        2 0.11198748E+00 0.51631662E+03</pdfrwt>
<pdfrwt beam="2">  1       -2 0.12145255E-01 0.51631662E+03</pdfrwt>
<totfact> 0.19452624E+03</totfact>
</mgrwt>
</event>
<event>
 4    1  0.4895160E-005  0.3282073E+03  0.7818608E-02  0.1071933E+00
         -2   -1    0    0    0  501 -0.00000000000E+00  0.00000000000E+00  0.14456705812E+03  0.14456705814E+03  0.25500000000E-02 0. -1.
          2   -1    0    0  501    0  0.00000000000E+00 -0.00000000000E+00 -0.18628043443E+03  0.18628043444E+03  0.25500000000E-02 0.  1.
    5000001    1    1    2    0    0  0.35483941668E+02  0.96224383438E+02 -0.37807792645E+02  0.16756094792E+03  0.12700000000E+03 0.  0.
   -5000001    1    1    2    0    0 -0.35483941668E+02 -0.96224383438E+02 -0.39055836589E+01  0.16328654466E+03  0.12700000000E+03 0.  0.
<mgrwt>
<rscale>  0 0.32820734E+03</rscale>
<asrwt>0</asrwt>
<pdfrwt beam="1">  1        2 0.26611490E-01 0.32820734E+03</pdfrwt>
<pdfrwt beam="2">  1       -2 0.20652437E-01 0.32820734E+03</pdfrwt>
<totfact> 0.39929090E+03</totfact>
</mgrwt>
</event>
<event>
 4    1  0.4895160E-005  0.3223140E+03  0.7818608E-02  0.1074589E+00
         -2   -1    0    0    0  501 -0.00000000000E+00  0.00000000000E+00  0.18007234948E+02  0.18007235129E+02  0.25500000000E-02 0. -1.
          2   -1    0    0  501    0  0.00000000000E+00 -0.00000000000E+00 -0.14422860732E+04  0.14422860732E+04  0.25500000000E-02 0.  1.
    5000001    1    1    2    0    0  0.45611175388E+01  0.51065214192E+02 -0.32732379924E+03  0.35482154591E+03  0.12700000000E+03 0.  0.
   -5000001    1    1    2    0    0 -0.45611175388E+01 -0.51065214192E+02 -0.10969550391E+04  0.11054717625E+04  0.12700000000E+03 0.  0.
<mgrwt>
<rscale>  0 0.32231404E+03</rscale>
<asrwt>0</asrwt>
<pdfrwt beam="1">  1        2 0.20604079E+00 0.32231404E+03</pdfrwt>
<pdfrwt beam="2">  1       -2 0.25724631E-02 0.32231404E+03</pdfrwt>
<totfact> 0.89208687E+03</totfact>
</mgrwt>
</event>
<event>
 4    1  0.4895160E-005  0.3452029E+03  0.7818608E-02  0.1064601E+00
         -2   -1    0    0    0  501 -0.00000000000E+00  0.00000000000E+00  0.68765098310E+02  0.68765098358E+02  0.25500000000E-02 0. -1.
          2   -1    0    0  501    0  0.00000000000E+00 -0.00000000000E+00 -0.43323233425E+03  0.43323233426E+03  0.25500000000E-02 0.  1.
    5000001    1    1    2    0    0 -0.34613732066E+02  0.87171177088E+02 -0.80799604346E+02  0.17735416720E+03  0.12700000000E+03 0.  0.
   -5000001    1    1    2    0    0  0.34613732066E+02 -0.87171177088E+02 -0.28366763159E+03  0.32464326541E+03  0.12700000000E+03 0.  0.
<mgrwt>
<rscale>  0 0.34520292E+03</rscale>
<asrwt>0</asrwt>
<pdfrwt beam="1">  1        2 0.61890332E-01 0.34520292E+03</pdfrwt>
<pdfrwt beam="2">  1       -2 0.98235857E-02 0.34520292E+03</pdfrwt>
<totfact> 0.54356451E+03</totfact>
</mgrwt>
</event>
<event>
 4    1  0.4895160E-005  0.3697682E+03  0.7818608E-02  0.1054782E+00
         -2   -1    0    0    0  501 -0.00000000000E+00  0.00000000000E+00  0.22878146788E+02  0.22878146930E+02  0.25500000000E-02 0. -1.
          2   -1    0    0  501    0  0.00000000000E+00 -0.00000000000E+00 -0.14940949611E+04  0.14940949611E+04  0.25500000000E-02 0.  1.
    5000001    1    1    2    0    0 -0.62678667840E+02 -0.10619747875E+03 -0.95449133807E+03  0.97076734306E+03  0.12700000000E+03 0.  0.
   -5000001    1    1    2    0    0  0.62678667840E+02  0.10619747875E+03 -0.51672547624E+03  0.54620576497E+03  0.12700000000E+03 0.  0.
<mgrwt>
<rscale>  0 0.36976816E+03</rscale>
<asrwt>0</asrwt>
<pdfrwt beam="1">  1        2 0.21344208E+00 0.36976816E+03</pdfrwt>
<pdfrwt beam="2">  1       -2 0.32683076E-02 0.36976816E+03</pdfrwt>
<totfact> 0.58755089E+03</totfact>
</mgrwt>
</event>
<event>
 4    1  0.4895160E-005  0.4005956E+03  0.7818608E-02  0.1043574E+00
         -2   -1    0    0    0  501 -0.00000000000E+00  0.00000000000E+00  0.61699923427E+02  0.61699923480E+02  0.25500000000E-02 0. -1.
          2   -1    0    0  501    0  0.00000000000E+00 -0.00000000000E+00 -0.65023121462E+03  0.65023121462E+03  0.25500000000E-02 0.  1.
    5000001    1    1    2    0    0 -0.13300137275E+03 -0.77459592340E+02 -0.32509155204E+03  0.38144838551E+03  0.12700000000E+03 0.  0.
   -5000001    1    1    2    0    0  0.13300137275E+03  0.77459592340E+02 -0.26343973915E+03  0.33048275259E+03  0.12700000000E+03 0.  0.
<mgrwt>
<rscale>  0 0.40059564E+03</rscale>
<asrwt>0</asrwt>
<pdfrwt beam="1">  1        2 0.92890169E-01 0.40059564E+03</pdfrwt>
<pdfrwt beam="2">  1       -2 0.88142752E-02 0.40059564E+03</pdfrwt>
<totfact> 0.40920475E+03</totfact>
</mgrwt>
</event>
<event>
 4    1  0.4895160E-005  0.6539157E+03  0.7818608E-02  0.9799459E-01
          2   -1    0    0  501    0  0.00000000000E+00  0.00000000000E+00  0.28301422850E+04  0.28301422850E+04  0.25500000000E-02 0.  1.
         -2   -1    0    0    0  501 -0.00000000000E+00 -0.00000000000E+00 -0.37772455939E+02  0.37772456025E+02  0.25500000000E-02 0. -1.
    5000001    1    1    2    0    0  0.19669019417E+03  0.92870341548E+02  0.23104914270E+04  0.23241797622E+04  0.12700000000E+03 0.  0.
   -5000001    1    1    2    0    0 -0.19669019417E+03 -0.92870341548E+02  0.48187840209E+03  0.54373497884E+03  0.12700000000E+03 0.  0.
<mgrwt>
<rscale>  0 0.65391567E+03</rscale>
<asrwt>0</asrwt>
<pdfrwt beam="1">  1        2 0.40430618E+00 0.65391567E+03</pdfrwt>
<pdfrwt beam="2">  1       -2 0.53960633E-02 0.65391567E+03</pdfrwt>
<totfact> 0.56460536E+02</totfact>
</mgrwt>
</event>
<event>
 4    1  0.4895160E-005  0.5055503E+03  0.7818608E-02  0.1012340E+00
         -2   -1    0    0    0  501 -0.00000000000E+00  0.00000000000E+00  0.66442134250E+02  0.66442134298E+02  0.25500000000E-02 0. -1.
          2   -1    0    0  501    0  0.00000000000E+00 -0.00000000000E+00 -0.96166815824E+03  0.96166815824E+03  0.25500000000E-02 0.  1.
    5000001    1    1    2    0    0  0.48688784379E+02  0.18749210402E+03 -0.24179843447E+03  0.33484230572E+03  0.12700000000E+03 0.  0.
   -5000001    1    1    2    0    0 -0.48688784379E+02 -0.18749210402E+03 -0.65342758952E+03  0.69326798681E+03  0.12700000000E+03 0.  0.
<mgrwt>
<rscale>  0 0.50555033E+03</rscale>
<asrwt>0</asrwt>
<pdfrwt beam="1">  1        2 0.13738116E+00 0.50555033E+03</pdfrwt>
<pdfrwt beam="2">  1       -2 0.94917341E-02 0.50555033E+03</pdfrwt>
<totfact> 0.22206510E+03</totfact>
</mgrwt>
</event>
<event>
 4    1  0.4895160E-005  0.3555017E+03  0.7818608E-02  0.1060379E+00
          2   -1    0    0  501    0  0.00000000000E+00  0.00000000000E+00  0.20684128579E+04  0.20684128579E+04  0.25500000000E-02 0.  1.
         -2   -1    0    0    0  501 -0.00000000000E+00 -0.00000000000E+00 -0.15275172908E+02  0.15275173121E+02  0.25500000000E-02 0. -1.
    5000001    1    1    2    0    0  0.11384470975E+03 -0.29526101897E+01  0.73368004473E+03  0.75324945660E+03  0.12700000000E+03 0.  0.
   -5000001    1    1    2    0    0 -0.11384470975E+03  0.29526101897E+01  0.13194576403E+04  0.13304385744E+04  0.12700000000E+03 0.  0.
<mgrwt>
<rscale>  0 0.35550170E+03</rscale>
<asrwt>0</asrwt>
<pdfrwt beam="1">  1        2 0.29548757E+00 0.35550170E+03</pdfrwt>
<pdfrwt beam="2">  1       -2 0.21821674E-02 0.35550170E+03</pdfrwt>
<totfact> 0.55627303E+03</totfact>
</mgrwt>
</event>
<event>
 4    1  0.4895160E-005  0.3651097E+03  0.7818608E-02  0.1056579E+00
         -2   -1    0    0    0  501 -0.00000000000E+00  0.00000000000E+00  0.11632707509E+02  0.11632707788E+02  0.25500000000E-02 0. -1.
          2   -1    0    0  501    0  0.00000000000E+00 -0.00000000000E+00 -0.28648774291E+04  0.28648774291E+04  0.25500000000E-02 0.  1.
    5000001    1    1    2    0    0 -0.77437943702E+02  0.83630223740E+02 -0.19376092428E+04  0.19451090528E+04  0.12700000000E+03 0.  0.
   -5000001    1    1    2    0    0  0.77437943702E+02 -0.83630223740E+02 -0.91563547879E+03  0.93140108410E+03  0.12700000000E+03 0.  0.
<mgrwt>
<rscale>  0 0.36510975E+03</rscale>
<asrwt>0</asrwt>
<pdfrwt beam="1">  1        2 0.40926775E+00 0.36510975E+03</pdfrwt>
<pdfrwt beam="2">  1       -2 0.16618172E-02 0.36510975E+03</pdfrwt>
<totfact> 0.32992462E+03</totfact>
</mgrwt>
</event>
<event>
 4    1  0.4895160E-005  0.4091286E+03  0.7818608E-02  0.1040664E+00
         -2   -1    0    0    0  501 -0.00000000000E+00  0.00000000000E+00  0.27970414814E+03  0.27970414815E+03  0.25500000000E-02 0. -1.
          2   -1    0    0  501    0  0.00000000000E+00 -0.00000000000E+00 -0.14961007751E+03  0.14961007754E+03  0.25500000000E-02 0.  1.
    5000001    1    1    2    0    0 -0.11882749352E+03 -0.89120388526E+02  0.12848767570E+03  0.23388137949E+03  0.12700000000E+03 0.  0.
   -5000001    1    1    2    0    0  0.11882749352E+03  0.89120388526E+02  0.16063949289E+01  0.19543284620E+03  0.12700000000E+03 0.  0.
<mgrwt>
<rscale>  0 0.40912863E+03</rscale>
<asrwt>0</asrwt>
<pdfrwt beam="1">  1        2 0.21372868E-01 0.40912863E+03</pdfrwt>
<pdfrwt beam="2">  1       -2 0.39957736E-01 0.40912863E+03</pdfrwt>
<totfact> 0.15480407E+03</totfact>
</mgrwt>
</event>
<event>
 4    1  0.4895160E-005  0.3994970E+03  0.7818608E-02  0.1043954E+00
          2   -1    0    0  501    0  0.00000000000E+00  0.00000000000E+00  0.12385142882E+03  0.12385142885E+03  0.25500000000E-02 0. -1.
         -2   -1    0    0    0  501 -0.00000000000E+00 -0.00000000000E+00 -0.32215588795E+03  0.32215588796E+03  0.25500000000E-02 0.  1.
    5000001    1    1    2    0    0  0.36886103499E+02 -0.11340987714E+03 -0.20824262460E+03  0.27150759762E+03  0.12700000000E+03 0.  0.
   -5000001    1    1    2    0    0 -0.36886103499E+02  0.11340987714E+03  0.99381654734E+01  0.17449971919E+03  0.12700000000E+03 0.  0.
<mgrwt>
<rscale>  0 0.39949702E+03</rscale>
<asrwt>0</asrwt>
<pdfrwt beam="1">  1        2 0.17693061E-01 0.39949702E+03</pdfrwt>
<pdfrwt beam="2">  1       -2 0.46022270E-01 0.39949702E+03</pdfrwt>
<totfact> 0.14631685E+03</totfact>
</mgrwt>
</event>
<event>
 4    1  0.4895160E-005  0.3529937E+03  0.7818608E-02  0.1061393E+00
         -2   -1    0    0    0  501 -0.00000000000E+00  0.00000000000E+00  0.28806478315E+02  0.28806478428E+02  0.25500000000E-02 0. -1.
          2   -1    0    0  501    0  0.00000000000E+00 -0.00000000000E+00 -0.10813932548E+04  0.10813932548E+04  0.25500000000E-02 0.  1.
    5000001    1    1    2    0    0 -0.20446704516E+02  0.12057731951E+03 -0.55168383908E+03  0.57917269964E+03  0.12700000000E+03 0.  0.
   -5000001    1    1    2    0    0  0.20446704516E+02 -0.12057731951E+03 -0.50090293744E+03  0.53102703363E+03  0.12700000000E+03 0.  0.
<mgrwt>
<rscale>  0 0.35299366E+03</rscale>
<asrwt>0</asrwt>
<pdfrwt beam="1">  1        2 0.15448473E+00 0.35299366E+03</pdfrwt>
<pdfrwt beam="2">  1       -2 0.41152119E-02 0.35299366E+03</pdfrwt>
<totfact> 0.69082337E+03</totfact>
</mgrwt>
</event>
<event>
 4    1  0.4895160E-005  0.3483165E+03  0.7818608E-02  0.1063308E+00
         -2   -1    0    0    0  501 -0.00000000000E+00  0.00000000000E+00  0.63796370080E+03  0.63796370081E+03  0.25500000000E-02 0. -1.
          2   -1    0    0  501    0  0.00000000000E+00 -0.00000000000E+00 -0.47543615878E+02  0.47543615946E+02  0.25500000000E-02 0.  1.
    5000001    1    1    2    0    0  0.64254863144E+02  0.18124459286E+02  0.48948959653E+03  0.51008455042E+03  0.12700000000E+03 0.  0.
   -5000001    1    1    2    0    0 -0.64254863144E+02 -0.18124459286E+02  0.10093048839E+03  0.17542276634E+03  0.12700000000E+03 0.  0.
<mgrwt>
<rscale>  0 0.34831653E+03</rscale>
<asrwt>0</asrwt>
<pdfrwt beam="1">  1        2 0.67919452E-02 0.34831653E+03</pdfrwt>
<pdfrwt beam="2">  1       -2 0.91137670E-01 0.34831653E+03</pdfrwt>
<totfact> 0.11229876E+03</totfact>
</mgrwt>
</event>
<event>
 4    1  0.4895160E-005  0.1333260E+04  0.7818608E-02  0.9003598E-01
          2   -1    0    0  501    0  0.00000000000E+00  0.00000000000E+00  0.10146255663E+04  0.10146255663E+04  0.25500000000E-02 0.  1.
         -2   -1    0    0    0  501 -0.00000000000E+00 -0.00000000000E+00 -0.43798968355E+03  0.43798968356E+03  0.25500000000E-02 0. -1.
    5000001    1    1    2    0    0  0.55059607023E+03 -0.35310297352E+03  0.26575700062E+03  0.71735174485E+03  0.12700000000E+03 0.  0.
   -5000001    1    1    2    0    0 -0.55059607023E+03  0.35310297352E+03  0.31087888215E+03  0.73526350503E+03  0.12700000000E+03 0.  0.
<mgrwt>
<rscale>  0 0.13332600E+04</rscale>
<asrwt>0</asrwt>
<pdfrwt beam="1">  1        2 0.14494651E+00 0.13332600E+04</pdfrwt>
<pdfrwt beam="2">  1       -2 0.62569954E-01 0.13332600E+04</pdfrwt>
<totfact> 0.63798704E+01</totfact>
</mgrwt>
</event>
<event>
 4    1  0.4895160E-005  0.5427638E+03  0.7818608E-02  0.1003183E+00
          2   -1    0    0  501    0  0.00000000000E+00  0.00000000000E+00  0.28582278439E+04  0.28582278439E+04  0.25500000000E-02 0.  1.
         -2   -1    0    0    0  501 -0.00000000000E+00 -0.00000000000E+00 -0.25767058063E+02  0.25767058189E+02  0.25500000000E-02 0. -1.
    5000001    1    1    2    0    0 -0.75032680996E+02 -0.18331319385E+03  0.21347472890E+04  0.21476751659E+04  0.12700000000E+03 0.  0.
   -5000001    1    1    2    0    0  0.75032680996E+02  0.18331319385E+03  0.69771349680E+03  0.73631973617E+03  0.12700000000E+03 0.  0.
<mgrwt>
<rscale>  0 0.54276375E+03</rscale>
<asrwt>0</asrwt>
<pdfrwt beam="1">  1        2 0.40831793E+00 0.54276375E+03</pdfrwt>
<pdfrwt beam="2">  1       -2 0.36810113E-02 0.54276375E+03</pdfrwt>
<totfact> 0.99407511E+02</totfact>
</mgrwt>
</event>
<event>
 4    1  0.4895160E-005  0.3655808E+03  0.7818608E-02  0.1056396E+00
         -2   -1    0    0    0  501 -0.00000000000E+00  0.00000000000E+00  0.13985024707E+02  0.13985024939E+02  0.25500000000E-02 0. -1.
          2   -1    0    0  501    0  0.00000000000E+00 -0.00000000000E+00 -0.23891503758E+04  0.23891503758E+04  0.25500000000E-02 0.  1.
    5000001    1    1    2    0    0 -0.90778336919E+02 -0.49871161316E+02 -0.65535506660E+03  0.67553467898E+03  0.12700000000E+03 0.  0.
   -5000001    1    1    2    0    0  0.90778336919E+02  0.49871161316E+02 -0.17198102845E+04  0.17276007218E+04  0.12700000000E+03 0.  0.
<mgrwt>
<rscale>  0 0.36558078E+03</rscale>
<asrwt>0</asrwt>
<pdfrwt beam="1">  1        2 0.34130694E+00 0.36558078E+03</pdfrwt>
<pdfrwt beam="2">  1       -2 0.19978622E-02 0.36558078E+03</pdfrwt>
<totfact> 0.43973408E+03</totfact>
</mgrwt>
</event>
<event>
 4    1  0.4895160E-005  0.7044179E+03  0.7818608E-02  0.9709707E-01
          2   -1    0    0  501    0  0.00000000000E+00  0.00000000000E+00  0.78885510280E+03  0.78885510281E+03  0.25500000000E-02 0.  1.
         -2   -1    0    0    0  501 -0.00000000000E+00 -0.00000000000E+00 -0.15725466348E+03  0.15725466350E+03  0.25500000000E-02 0. -1.
    5000001    1    1    2    0    0 -0.20832515987E+03 -0.23598061255E+03  0.18954856452E+03  0.38877227273E+03  0.12700000000E+03 0.  0.
   -5000001    1    1    2    0    0  0.20832515987E+03  0.23598061255E+03  0.44205187480E+03  0.55733749358E+03  0.12700000000E+03 0.  0.
<mgrwt>
<rscale>  0 0.70441790E+03</rscale>
<asrwt>0</asrwt>
<pdfrwt beam="1">  1        2 0.11269359E+00 0.70441790E+03</pdfrwt>
<pdfrwt beam="2">  1       -2 0.22464952E-01 0.70441790E+03</pdfrwt>
<totfact> 0.67465248E+02</totfact>
</mgrwt>
</event>
<event>
 4    1  0.4895160E-005  0.2935851E+03  0.7818608E-02  0.1088492E+00
          2   -1    0    0  501    0  0.00000000000E+00  0.00000000000E+00  0.18999998975E+02  0.18999999146E+02  0.25500000000E-02 0.  1.
         -2   -1    0    0    0  501 -0.00000000000E+00 -0.00000000000E+00 -0.11341083584E+04  0.11341083584E+04  0.25500000000E-02 0. -1.
    5000001    1    1    2    0    0  0.16013291043E+02 -0.31097471662E+02 -0.30314543396E+03  0.33052932149E+03  0.12700000000E+03 0.  0.
   -5000001    1    1    2    0    0 -0.16013291043E+02  0.31097471662E+02 -0.81196292545E+03  0.82257903604E+03  0.12700000000E+03 0.  0.
<mgrwt>
<rscale>  0 0.29358513E+03</rscale>
<asrwt>0</asrwt>
<pdfrwt beam="1">  1        2 0.27142863E-02 0.29358513E+03</pdfrwt>
<pdfrwt beam="2">  1       -2 0.16201544E+00 0.29358513E+03</pdfrwt>
<totfact> 0.93312522E+02</totfact>
</mgrwt>
</event>
<event>
 4    1  0.4895160E-005  0.8730270E+03  0.7818608E-02  0.9459942E-01
          2   -1    0    0  501    0  0.00000000000E+00  0.00000000000E+00  0.46616184769E+03  0.46616184770E+03  0.25500000000E-02 0.  1.
         -2   -1    0    0    0  501 -0.00000000000E+00 -0.00000000000E+00 -0.40875080216E+03  0.40875080217E+03  0.25500000000E-02 0. -1.
    5000001    1    1    2    0    0  0.22668694268E+03  0.99775917399E+02 -0.30828380730E+03  0.41534336340E+03  0.12700000000E+03 0.  0.
   -5000001    1    1    2    0    0 -0.22668694268E+03 -0.99775917399E+02  0.36569485283E+03  0.45956928646E+03  0.12700000000E+03 0.  0.
<mgrwt>
<rscale>  0 0.87302699E+03</rscale>
<asrwt>0</asrwt>
<pdfrwt beam="1">  1        2 0.66594550E-01 0.87302699E+03</pdfrwt>
<pdfrwt beam="2">  1       -2 0.58392971E-01 0.87302699E+03</pdfrwt>
<totfact> 0.20043516E+02</totfact>
</mgrwt>
</event>
<event>
 4    1  0.4895160E-005  0.3239261E+03  0.7818608E-02  0.1073856E+00
          2   -1    0    0  501    0  0.00000000000E+00  0.00000000000E+00  0.67123643880E+03  0.67123643881E+03  0.25500000000E-02 0.  1.
         -2   -1    0    0    0  501 -0.00000000000E+00 -0.00000000000E+00 -0.39080170594E+02  0.39080170678E+02  0.25500000000E-02 0. -1.
    5000001    1    1    2    0    0  0.52934371302E+02  0.58606969767E+02  0.45242611345E+03  0.47650310881E+03  0.12700000000E+03 0.  0.
   -5000001    1    1    2    0    0 -0.52934371302E+02 -0.58606969767E+02  0.17973015476E+03  0.23381350068E+03  0.12700000000E+03 0.  0.
<mgrwt>
<rscale>  0 0.32392613E+03</rscale>
<asrwt>0</asrwt>
<pdfrwt beam="1">  1        2 0.95890910E-01 0.32392613E+03</pdfrwt>
<pdfrwt beam="2">  1       -2 0.55828821E-02 0.32392613E+03</pdfrwt>
<totfact> 0.79983926E+03</totfact>
</mgrwt>
</event>
<event>
 4    1  0.4895160E-005  0.6665813E+03  0.7818608E-02  0.9776154E-01
         -2   -1    0    0    0  501 -0.00000000000E+00  0.00000000000E+00  0.77860695114E+02  0.77860695156E+02  0.25500000000E-02 0. -1.
          2   -1    0    0  501    0  0.00000000000E+00 -0.00000000000E+00 -0.14266847444E+04  0.14266847444E+04  0.25500000000E-02 0.  1.
    5000001    1    1    2    0    0 -0.17881830696E+03  0.22900545048E+03 -0.90607284443E+03  0.95995650041E+03  0.12700000000E+03 0.  0.
   -5000001    1    1    2    0    0  0.17881830696E+03 -0.22900545048E+03 -0.44275120489E+03  0.54458893919E+03  0.12700000000E+03 0.  0.
<mgrwt>
<rscale>  0 0.66658133E+03</rscale>
<asrwt>0</asrwt>
<pdfrwt beam="1">  1        2 0.20381209E+00 0.66658133E+03</pdfrwt>
<pdfrwt beam="2">  1       -2 0.11122957E-01 0.66658133E+03</pdfrwt>
<totfact> 0.93354552E+02</totfact>
</mgrwt>
</event>
<event>
 4    1  0.4895160E-005  0.5828690E+03  0.7818608E-02  0.9941599E-01
         -2   -1    0    0    0  501 -0.00000000000E+00  0.00000000000E+00  0.22707828658E+03  0.22707828659E+03  0.25500000000E-02 0. -1.
          2   -1    0    0  501    0  0.00000000000E+00 -0.00000000000E+00 -0.37402989689E+03  0.37402989689E+03  0.25500000000E-02 0.  1.
    5000001    1    1    2    0    0 -0.13660474207E+03 -0.19118277367E+03  0.46763119897E+02  0.27115954323E+03  0.12700000000E+03 0.  0.
   -5000001    1    1    2    0    0  0.13660474207E+03  0.19118277367E+03 -0.19371473021E+03  0.32994864025E+03  0.12700000000E+03 0.  0.
<mgrwt>
<rscale>  0 0.58286900E+03</rscale>
<asrwt>0</asrwt>
<pdfrwt beam="1">  1        2 0.53432842E-01 0.58286900E+03</pdfrwt>
<pdfrwt beam="2">  1       -2 0.32439755E-01 0.58286900E+03</pdfrwt>
<totfact> 0.82835073E+02</totfact>
</mgrwt>
</event>
<event>
 4    1  0.4895160E-005  0.3929651E+03  0.7818608E-02  0.1046243E+00
          2   -1    0    0  501    0  0.00000000000E+00  0.00000000000E+00  0.18961832734E+03  0.18961832735E+03  0.25500000000E-02 0.  1.
         -2   -1    0    0    0  501 -0.00000000000E+00 -0.00000000000E+00 -0.20359528521E+03  0.20359528523E+03  0.25500000000E-02 0. -1.
    5000001    1    1    2    0    0  0.12427918468E+02 -0.88545170737E+02  0.11342753951E+03  0.19232656379E+03  0.12700000000E+03 0.  0.
   -5000001    1    1    2    0    0 -0.12427918468E+02  0.88545170737E+02 -0.12740449739E+03  0.20088704879E+03  0.12700000000E+03 0.  0.
<mgrwt>
<rscale>  0 0.39296513E+03</rscale>
<asrwt>0</asrwt>
<pdfrwt beam="1">  1        2 0.27088333E-01 0.39296513E+03</pdfrwt>
<pdfrwt beam="2">  1       -2 0.29085041E-01 0.39296513E+03</pdfrwt>
<totfact> 0.21424565E+03</totfact>
</mgrwt>
</event>
<event>
 4    1  0.4895160E-005  0.3135896E+03  0.7818608E-02  0.1078638E+00
          2   -1    0    0  501    0  0.00000000000E+00  0.00000000000E+00  0.99348178054E+03  0.99348178054E+03  0.25500000000E-02 0.  1.
         -2   -1    0    0    0  501 -0.00000000000E+00 -0.00000000000E+00 -0.24745913041E+02  0.24745913173E+02  0.25500000000E-02 0. -1.
    5000001    1    1    2    0    0 -0.76844452100E+02 -0.95540545796E+01  0.32334571981E+03  0.35591825508E+03  0.12700000000E+03 0.  0.
   -5000001    1    1    2    0    0  0.76844452100E+02  0.95540545796E+01  0.64539014768E+03  0.66230943863E+03  0.12700000000E+03 0.  0.
<mgrwt>
<rscale>  0 0.31358963E+03</rscale>
<asrwt>0</asrwt>
<pdfrwt beam="1">  1        2 0.14192598E+00 0.31358963E+03</pdfrwt>
<pdfrwt beam="2">  1       -2 0.35351303E-02 0.31358963E+03</pdfrwt>
<totfact> 0.97525061E+03</totfact>
</mgrwt>
</event>
<event>
 4    1  0.4895160E-005  0.4899859E+03  0.7818608E-02  0.1016426E+00
         -2   -1    0    0    0  501 -0.00000000000E+00  0.00000000000E+00  0.10425479903E+04  0.10425479903E+04  0.25500000000E-02 0. -1.
          2   -1    0    0  501    0  0.00000000000E+00 -0.00000000000E+00 -0.57571976761E+02  0.57571976817E+02  0.25500000000E-02 0.  1.
    5000001    1    1    2    0    0  0.14165132745E+03  0.11655941238E+03  0.26527398348E+03  0.34662729479E+03  0.12700000000E+03 0.  0.
   -5000001    1    1    2    0    0 -0.14165132745E+03 -0.11655941238E+03  0.71970203005E+03  0.75349267232E+03  0.12700000000E+03 0.  0.
<mgrwt>
<rscale>  0 0.48998591E+03</rscale>
<asrwt>0</asrwt>
<pdfrwt beam="1">  1        2 0.82245689E-02 0.48998591E+03</pdfrwt>
<pdfrwt beam="2">  1       -2 0.14893541E+00 0.48998591E+03</pdfrwt>
<totfact> 0.26527932E+02</totfact>
</mgrwt>
</event>
<event>
 4    1  0.4895160E-005  0.3410808E+03  0.7818608E-02  0.1066337E+00
         -2   -1    0    0    0  501 -0.00000000000E+00  0.00000000000E+00  0.11358758049E+03  0.11358758052E+03  0.25500000000E-02 0. -1.
          2   -1    0    0  501    0  0.00000000000E+00 -0.00000000000E+00 -0.25604935155E+03  0.25604935156E+03  0.25500000000E-02 0.  1.
    5000001    1    1    2    0    0  0.71251358617E+02  0.78294402316E+02 -0.11654366573E+03  0.20228246479E+03  0.12700000000E+03 0.  0.
   -5000001    1    1    2    0    0 -0.71251358617E+02 -0.78294402316E+02 -0.25918105336E+02  0.16735446729E+03  0.12700000000E+03 0.  0.
<mgrwt>
<rscale>  0 0.34108079E+03</rscale>
<asrwt>0</asrwt>
<pdfrwt beam="1">  1        2 0.36578479E-01 0.34108079E+03</pdfrwt>
<pdfrwt beam="2">  1       -2 0.16226797E-01 0.34108079E+03</pdfrwt>
<totfact> 0.42411061E+03</totfact>
</mgrwt>
</event>
<event>
 4    1  0.4895160E-005  0.3199501E+03  0.7818608E-02  0.1075672E+00
          2   -1    0    0  501    0  0.00000000000E+00  0.00000000000E+00  0.30827556680E+03  0.30827556681E+03  0.25500000000E-02 0.  1.
         -2   -1    0    0    0  501 -0.00000000000E+00 -0.00000000000E+00 -0.83016686991E+02  0.83016687030E+02  0.25500000000E-02 0. -1.
    5000001    1    1    2    0    0  0.75333945373E+01  0.87950610706E+02  0.16262152930E+03  0.22442554166E+03  0.12700000000E+03 0.  0.
   -5000001    1    1    2    0    0 -0.75333945373E+01 -0.87950610706E+02  0.62637350516E+02  0.16686671219E+03  0.12700000000E+03 0.  0.
<mgrwt>
<rscale>  0 0.31995010E+03</rscale>
<asrwt>0</asrwt>
<pdfrwt beam="1">  1        2 0.44039367E-01 0.31995010E+03</pdfrwt>
<pdfrwt beam="2">  1       -2 0.11859527E-01 0.31995010E+03</pdfrwt>
<totfact> 0.57989766E+03</totfact>
</mgrwt>
</event>
<event>
 4    1  0.4895160E-005  0.4203495E+03  0.7818608E-02  0.1036953E+00
          2   -1    0    0  501    0  0.00000000000E+00  0.00000000000E+00  0.69705024528E+02  0.69705024574E+02  0.25500000000E-02 0.  1.
         -2   -1    0    0    0  501 -0.00000000000E+00 -0.00000000000E+00 -0.63371932012E+03  0.63371932012E+03  0.25500000000E-02 0. -1.
    5000001    1    1    2    0    0 -0.11401830496E+03  0.95091809913E+02 -0.41164966261E+03  0.45566113605E+03  0.12700000000E+03 0.  0.
   -5000001    1    1    2    0    0  0.11401830496E+03 -0.95091809913E+02 -0.15236463298E+03  0.24776320865E+03  0.12700000000E+03 0.  0.
<mgrwt>
<rscale>  0 0.42034948E+03</rscale>
<asrwt>0</asrwt>
<pdfrwt beam="1">  1        2 0.99578610E-02 0.42034948E+03</pdfrwt>
<pdfrwt beam="2">  1       -2 0.90531328E-01 0.42034948E+03</pdfrwt>
<totfact> 0.70001027E+02</totfact>
</mgrwt>
</event>
<event>
 4    1  0.4895160E-005  0.2990500E+03  0.7818608E-02  0.1085716E+00
          2   -1    0    0  501    0  0.00000000000E+00  0.00000000000E+00  0.72153479931E+02  0.72153479976E+02  0.25500000000E-02 0.  1.
         -2   -1    0    0    0  501 -0.00000000000E+00 -0.00000000000E+00 -0.30986334725E+03  0.30986334726E+03  0.25500000000E-02 0. -1.
    5000001    1    1    2    0    0 -0.71050033007E+02 -0.13157776925E+02 -0.78308006526E+02  0.16577809919E+03  0.12700000000E+03 0.  0.
   -5000001    1    1    2    0    0  0.71050033007E+02  0.13157776925E+02 -0.15940186079E+03  0.21623872805E+03  0.12700000000E+03 0.  0.
<mgrwt>
<rscale>  0 0.29904995E+03</rscale>
<asrwt>0</asrwt>
<pdfrwt beam="1">  1        2 0.10307640E-01 0.29904995E+03</pdfrwt>
<pdfrwt beam="2">  1       -2 0.44266192E-01 0.29904995E+03</pdfrwt>
<totfact> 0.30172519E+03</totfact>
</mgrwt>
</event>
<event>
 4    1  0.4895160E-005  0.4269401E+03  0.7818608E-02  0.1034831E+00
         -2   -1    0    0    0  501 -0.00000000000E+00  0.00000000000E+00  0.52018320776E+02  0.52018320838E+02  0.25500000000E-02 0. -1.
          2   -1    0    0  501    0  0.00000000000E+00 -0.00000000000E+00 -0.87602733843E+03  0.87602733844E+03  0.25500000000E-02 0.  1.
    5000001    1    1    2    0    0 -0.64857154937E+02  0.13962576835E+03 -0.57667197602E+03  0.61023059056E+03  0.12700000000E+03 0.  0.
   -5000001    1    1    2    0    0  0.64857154937E+02 -0.13962576835E+03 -0.24733704164E+03  0.31781506871E+03  0.12700000000E+03 0.  0.
<mgrwt>
<rscale>  0 0.42694014E+03</rscale>
<asrwt>0</asrwt>
<pdfrwt beam="1">  1        2 0.12514675E+00 0.42694014E+03</pdfrwt>
<pdfrwt beam="2">  1       -2 0.74311892E-02 0.42694014E+03</pdfrwt>
<totfact> 0.37090321E+03</totfact>
</mgrwt>
</event>
<event>
 4    1  0.4895160E-005  0.3697896E+03  0.7818608E-02  0.1054773E+00
         -2   -1    0    0    0  501 -0.00000000000E+00  0.00000000000E+00  0.16127285517E+02  0.16127285719E+02  0.25500000000E-02 0. -1.
          2   -1    0    0  501    0  0.00000000000E+00 -0.00000000000E+00 -0.21197670303E+04  0.21197670303E+04  0.25500000000E-02 0.  1.
    5000001    1    1    2    0    0  0.12656289822E+03 -0.25708248165E+02 -0.83740703259E+03  0.85677220979E+03  0.12700000000E+03 0.  0.
   -5000001    1    1    2    0    0 -0.12656289822E+03  0.25708248165E+02 -0.12662327122E+04  0.12791221062E+04  0.12700000000E+03 0.  0.
<mgrwt>
<rscale>  0 0.36978961E+03</rscale>
<asrwt>0</asrwt>
<pdfrwt beam="1">  1        2 0.30282368E+00 0.36978961E+03</pdfrwt>
<pdfrwt beam="2">  1       -2 0.23038993E-02 0.36978961E+03</pdfrwt>
<totfact> 0.48398870E+03</totfact>
</mgrwt>
</event>
<event>
 4    1  0.4895160E-005  0.5267689E+03  0.7818608E-02  0.1007019E+00
         -2   -1    0    0    0  501 -0.00000000000E+00  0.00000000000E+00  0.45295216291E+02  0.45295216363E+02  0.25500000000E-02 0. -1.
          2   -1    0    0  501    0  0.00000000000E+00 -0.00000000000E+00 -0.15315386405E+04  0.15315386405E+04  0.25500000000E-02 0.  1.
    5000001    1    1    2    0    0 -0.16398923404E+03  0.92678536036E+02 -0.11420497279E+04  0.11644261939E+04  0.12700000000E+03 0.  0.
   -5000001    1    1    2    0    0  0.16398923404E+03 -0.92678536036E+02 -0.34419369622E+03  0.41240766293E+03  0.12700000000E+03 0.  0.
<mgrwt>
<rscale>  0 0.52676892E+03</rscale>
<asrwt>0</asrwt>
<pdfrwt beam="1">  1        2 0.21879120E+00 0.52676892E+03</pdfrwt>
<pdfrwt beam="2">  1       -2 0.64707461E-02 0.52676892E+03</pdfrwt>
<totfact> 0.19684268E+03</totfact>
</mgrwt>
</event>
<event>
 4    1  0.4895160E-005  0.3967074E+03  0.7818608E-02  0.1044926E+00
          2   -1    0    0  501    0  0.00000000000E+00  0.00000000000E+00  0.59837780125E+03  0.59837780125E+03  0.25500000000E-02 0.  1.
         -2   -1    0    0    0  501 -0.00000000000E+00 -0.00000000000E+00 -0.65751409468E+02  0.65751409517E+02  0.25500000000E-02 0. -1.
    5000001    1    1    2    0    0  0.14584795335E+03 -0.16683021147E+02  0.19799756211E+03  0.27727600562E+03  0.12700000000E+03 0.  0.
   -5000001    1    1    2    0    0 -0.14584795335E+03  0.16683021147E+02  0.33462882967E+03  0.38685320515E+03  0.12700000000E+03 0.  0.
<mgrwt>
<rscale>  0 0.39670737E+03</rscale>
<asrwt>0</asrwt>
<pdfrwt beam="1">  1        2 0.85482547E-01 0.39670737E+03</pdfrwt>
<pdfrwt beam="2">  1       -2 0.93930580E-02 0.39670737E+03</pdfrwt>
<totfact> 0.40744797E+03</totfact>
</mgrwt>
</event>
<event>
 4    1  0.4895160E-005  0.4615365E+03  0.7818608E-02  0.1024337E+00
         -2   -1    0    0    0  501 -0.00000000000E+00  0.00000000000E+00  0.41726780634E+02  0.41726780712E+02  0.25500000000E-02 0. -1.
          2   -1    0    0  501    0  0.00000000000E+00 -0.00000000000E+00 -0.12762545949E+04  0.12762545949E+04  0.25500000000E-02 0.  1.
    5000001    1    1    2    0    0  0.15472080138E+03 -0.41568583182E+02 -0.92294422875E+03  0.94531556788E+03  0.12700000000E+03 0.  0.
   -5000001    1    1    2    0    0 -0.15472080138E+03  0.41568583182E+02 -0.31158358547E+03  0.37266580769E+03  0.12700000000E+03 0.  0.
<mgrwt>
<rscale>  0 0.46153654E+03</rscale>
<asrwt>0</asrwt>
<pdfrwt beam="1">  1        2 0.18232206E+00 0.46153654E+03</pdfrwt>
<pdfrwt beam="2">  1       -2 0.59609695E-02 0.46153654E+03</pdfrwt>
<totfact> 0.30539969E+03</totfact>
</mgrwt>
</event>
<event>
 4    1  0.4895160E-005  0.5923460E+03  0.7818608E-02  0.9921414E-01
         -2   -1    0    0    0  501 -0.00000000000E+00  0.00000000000E+00  0.50005965851E+02  0.50005965916E+02  0.25500000000E-02 0. -1.
          2   -1    0    0  501    0  0.00000000000E+00 -0.00000000000E+00 -0.17541598168E+04  0.17541598168E+04  0.25500000000E-02 0.  1.
    5000001    1    1    2    0    0 -0.17456356503E+03 -0.15447425820E+03 -0.12521643778E+04  0.12799919389E+04  0.12700000000E+03 0.  0.
   -5000001    1    1    2    0    0  0.17456356503E+03  0.15447425820E+03 -0.45198947320E+03  0.52417384384E+03  0.12700000000E+03 0.  0.
<mgrwt>
<rscale>  0 0.59234603E+03</rscale>
<asrwt>0</asrwt>
<pdfrwt beam="1">  1        2 0.25059422E+00 0.59234603E+03</pdfrwt>
<pdfrwt beam="2">  1       -2 0.71437105E-02 0.59234603E+03</pdfrwt>
<totfact> 0.12935104E+03</totfact>
</mgrwt>
</event>
<event>
 4    1  0.4895160E-005  0.3449602E+03  0.7818608E-02  0.1064703E+00
          2   -1    0    0  501    0  0.00000000000E+00  0.00000000000E+00  0.67393124680E+03  0.67393124680E+03  0.25500000000E-02 0.  1.
         -2   -1    0    0    0  501 -0.00000000000E+00 -0.00000000000E+00 -0.44143050829E+02  0.44143050902E+02  0.25500000000E-02 0. -1.
    5000001    1    1    2    0    0  0.77308387662E+02 -0.86499640763E+02  0.28843164870E+03  0.33582821595E+03  0.12700000000E+03 0.  0.
   -5000001    1    1    2    0    0 -0.77308387662E+02  0.86499640763E+02  0.34135654726E+03  0.38224608175E+03  0.12700000000E+03 0.  0.
<mgrwt>
<rscale>  0 0.34496018E+03</rscale>
<asrwt>0</asrwt>
<pdfrwt beam="1">  1        2 0.96275895E-01 0.34496018E+03</pdfrwt>
<pdfrwt beam="2">  1       -2 0.63061499E-02 0.34496018E+03</pdfrwt>
<totfact> 0.66094974E+03</totfact>
</mgrwt>
</event>
<event>
 4    1  0.4895160E-005  0.3118321E+03  0.7818608E-02  0.1079471E+00
          2   -1    0    0  501    0  0.00000000000E+00  0.00000000000E+00  0.10403867327E+03  0.10403867330E+03  0.25500000000E-02 0.  1.
         -2   -1    0    0    0  501 -0.00000000000E+00 -0.00000000000E+00 -0.23366136586E+03  0.23366136588E+03  0.25500000000E-02 0. -1.
    5000001    1    1    2    0    0  0.19590165386E+02 -0.79679598348E+02 -0.23599188087E+02  0.15303115582E+03  0.12700000000E+03 0.  0.
   -5000001    1    1    2    0    0 -0.19590165386E+02  0.79679598348E+02 -0.10602350451E+03  0.18466888336E+03  0.12700000000E+03 0.  0.
<mgrwt>
<rscale>  0 0.31183212E+03</rscale>
<asrwt>0</asrwt>
<pdfrwt beam="1">  1        2 0.14862668E-01 0.31183212E+03</pdfrwt>
<pdfrwt beam="2">  1       -2 0.33380195E-01 0.31183212E+03</pdfrwt>
<totfact> 0.33096204E+03</totfact>
</mgrwt>
</event>
<event>
 4    1  0.4895160E-005  0.3346406E+03  0.7818608E-02  0.1069102E+00
          2   -1    0    0  501    0  0.00000000000E+00  0.00000000000E+00  0.12802174733E+03  0.12802174735E+03  0.25500000000E-02 0.  1.
         -2   -1    0    0    0  501 -0.00000000000E+00 -0.00000000000E+00 -0.21868228627E+03  0.21868228629E+03  0.25500000000E-02 0. -1.
    5000001    1    1    2    0    0  0.31147366818E+02  0.91332522284E+02  0.70419760464E+01  0.15965706221E+03  0.12700000000E+03 0.  0.
   -5000001    1    1    2    0    0 -0.31147366818E+02 -0.91332522284E+02 -0.97702514993E+02  0.18704697143E+03  0.12700000000E+03 0.  0.
<mgrwt>
<rscale>  0 0.33464063E+03</rscale>
<asrwt>0</asrwt>
<pdfrwt beam="1">  1        2 0.18288821E-01 0.33464063E+03</pdfrwt>
<pdfrwt beam="2">  1       -2 0.31240327E-01 0.33464063E+03</pdfrwt>
<totfact> 0.29345929E+03</totfact>
</mgrwt>
</event>
<event>
 4    1  0.4895160E-005  0.3505633E+03  0.7818608E-02  0.1062384E+00
         -2   -1    0    0    0  501 -0.00000000000E+00  0.00000000000E+00  0.13744421609E+02  0.13744421845E+02  0.25500000000E-02 0. -1.
          2   -1    0    0  501    0  0.00000000000E+00 -0.00000000000E+00 -0.22353540425E+04  0.22353540425E+04  0.25500000000E-02 0.  1.
    5000001    1    1    2    0    0 -0.91348349968E+02  0.66454312209E+02 -0.83605584684E+03  0.85315829462E+03  0.12700000000E+03 0.  0.
   -5000001    1    1    2    0    0  0.91348349968E+02 -0.66454312209E+02 -0.13855537740E+04  0.13959401697E+04  0.12700000000E+03 0.  0.
<mgrwt>
<rscale>  0 0.35056325E+03</rscale>
<asrwt>0</asrwt>
<pdfrwt beam="1">  1        2 0.31933606E+00 0.35056325E+03</pdfrwt>
<pdfrwt beam="2">  1       -2 0.19634902E-02 0.35056325E+03</pdfrwt>
<totfact> 0.53822525E+03</totfact>
</mgrwt>
</event>
<event>
 4    1  0.4895160E-005  0.4029090E+03  0.7818608E-02  0.1042777E+00
          2   -1    0    0  501    0  0.00000000000E+00  0.00000000000E+00  0.64403187968E+03  0.64403187969E+03  0.25500000000E-02 0.  1.
         -2   -1    0    0    0  501 -0.00000000000E+00 -0.00000000000E+00 -0.63015373748E+02  0.63015373800E+02  0.25500000000E-02 0. -1.
    5000001    1    1    2    0    0  0.33430612090E+02  0.11806790930E+03  0.46062317690E+03  0.49331566784E+03  0.12700000000E+03 0.  0.
   -5000001    1    1    2    0    0 -0.33430612090E+02 -0.11806790930E+03  0.12039332903E+03  0.21373158565E+03  0.12700000000E+03 0.  0.
<mgrwt>
<rscale>  0 0.40290897E+03</rscale>
<asrwt>0</asrwt>
<pdfrwt beam="1">  1        2 0.92004553E-01 0.40290897E+03</pdfrwt>
<pdfrwt beam="2">  1       -2 0.90021964E-02 0.40290897E+03</pdfrwt>
<totfact> 0.40024068E+03</totfact>
</mgrwt>
</event>
<event>
 4    1  0.4895160E-005  0.3352895E+03  0.7818608E-02  0.1068820E+00
          2   -1    0    0  501    0  0.00000000000E+00  0.00000000000E+00  0.23288331441E+03  0.23288331443E+03  0.25500000000E-02 0.  1.
         -2   -1    0    0    0  501 -0.00000000000E+00 -0.00000000000E+00 -0.12068171500E+03  0.12068171503E+03  0.25500000000E-02 0. -1.
    5000001    1    1    2    0    0  0.78562946792E+02  0.68413572840E+02  0.91441792778E+02  0.18799775271E+03  0.12700000000E+03 0.  0.
   -5000001    1    1    2    0    0 -0.78562946792E+02 -0.68413572840E+02  0.20759806635E+02  0.16556727675E+03  0.12700000000E+03 0.  0.
<mgrwt>
<rscale>  0 0.33528947E+03</rscale>
<asrwt>0</asrwt>
<pdfrwt beam="1">  1        2 0.33269045E-01 0.33528947E+03</pdfrwt>
<pdfrwt beam="2">  1       -2 0.17240245E-01 0.33528947E+03</pdfrwt>
<totfact> 0.42471466E+03</totfact>
</mgrwt>
</event>
<event>
 4    1  0.4895160E-005  0.5606940E+03  0.7818608E-02  0.9990486E-01
         -2   -1    0    0    0  501 -0.00000000000E+00  0.00000000000E+00  0.12002873984E+03  0.12002873987E+03  0.25500000000E-02 0. -1.
          2   -1    0    0  501    0  0.00000000000E+00 -0.00000000000E+00 -0.65479680730E+03  0.65479680731E+03  0.25500000000E-02 0.  1.
    5000001    1    1    2    0    0  0.16658894500E+03  0.18456848490E+03 -0.30256248722E+03  0.41169219191E+03  0.12700000000E+03 0.  0.
   -5000001    1    1    2    0    0 -0.16658894500E+03 -0.18456848490E+03 -0.23220558024E+03  0.36313335527E+03  0.12700000000E+03 0.  0.
<mgrwt>
<rscale>  0 0.56069398E+03</rscale>
<asrwt>0</asrwt>
<pdfrwt beam="1">  1        2 0.93542399E-01 0.56069398E+03</pdfrwt>
<pdfrwt beam="2">  1       -2 0.17146963E-01 0.56069398E+03</pdfrwt>
<totfact> 0.13624189E+03</totfact>
</mgrwt>
</event>
<event>
 4    1  0.4895160E-005  0.3750832E+03  0.7818608E-02  0.1052766E+00
         -2   -1    0    0    0  501 -0.00000000000E+00  0.00000000000E+00  0.38320313057E+02  0.38320313142E+02  0.25500000000E-02 0. -1.
          2   -1    0    0  501    0  0.00000000000E+00 -0.00000000000E+00 -0.91783825451E+03  0.91783825451E+03  0.25500000000E-02 0.  1.
    5000001    1    1    2    0    0 -0.96969891711E+02  0.95769733447E+02 -0.38462052724E+03  0.42736044707E+03  0.12700000000E+03 0.  0.
   -5000001    1    1    2    0    0  0.96969891711E+02 -0.95769733447E+02 -0.49489741421E+03  0.52879812058E+03  0.12700000000E+03 0.  0.
<mgrwt>
<rscale>  0 0.37508319E+03</rscale>
<asrwt>0</asrwt>
<pdfrwt beam="1">  1        2 0.13111974E+00 0.37508319E+03</pdfrwt>
<pdfrwt beam="2">  1       -2 0.54743310E-02 0.37508319E+03</pdfrwt>
<totfact> 0.56020691E+03</totfact>
</mgrwt>
</event>
<event>
 4    1  0.4895160E-005  0.3138366E+03  0.7818608E-02  0.1078521E+00
         -2   -1    0    0    0  501 -0.00000000000E+00  0.00000000000E+00  0.12889400194E+02  0.12889400446E+02  0.25500000000E-02 0. -1.
          2   -1    0    0  501    0  0.00000000000E+00 -0.00000000000E+00 -0.19103569326E+04  0.19103569326E+04  0.25500000000E-02 0.  1.
    5000001    1    1    2    0    0  0.33252624165E+01  0.43979420239E+02 -0.14446660655E+04  0.14509080907E+04  0.12700000000E+03 0.  0.
   -5000001    1    1    2    0    0 -0.33252624165E+01 -0.43979420239E+02 -0.45280146685E+03  0.47233824231E+03  0.12700000000E+03 0.  0.
<mgrwt>
<rscale>  0 0.31383662E+03</rscale>
<asrwt>0</asrwt>
<pdfrwt beam="1">  1        2 0.27290795E+00 0.31383662E+03</pdfrwt>
<pdfrwt beam="2">  1       -2 0.18413441E-02 0.31383662E+03</pdfrwt>
<totfact> 0.85476039E+03</totfact>
</mgrwt>
</event>
<event>
 4    1  0.4895160E-005  0.2946346E+03  0.7818608E-02  0.1087954E+00
         -2   -1    0    0    0  501 -0.00000000000E+00  0.00000000000E+00  0.25564844357E+02  0.25564844485E+02  0.25500000000E-02 0. -1.
          2   -1    0    0  501    0  0.00000000000E+00 -0.00000000000E+00 -0.84891524448E+03  0.84891524448E+03  0.25500000000E-02 0.  1.
    5000001    1    1    2    0    0  0.48402811648E+02 -0.42204394782E+02 -0.29868213716E+03  0.33085353583E+03  0.12700000000E+03 0.  0.
   -5000001    1    1    2    0    0 -0.48402811648E+02  0.42204394782E+02 -0.52466826296E+03  0.54362655314E+03  0.12700000000E+03 0.  0.
<mgrwt>
<rscale>  0 0.29463460E+03</rscale>
<asrwt>0</asrwt>
<pdfrwt beam="1">  1        2 0.12127359E+00 0.29463460E+03</pdfrwt>
<pdfrwt beam="2">  1       -2 0.36521211E-02 0.29463460E+03</pdfrwt>
<totfact> 0.11395976E+04</totfact>
</mgrwt>
</event>
<event>
 4    1  0.4895160E-005  0.5892512E+03  0.7818608E-02  0.9927961E-01
          2   -1    0    0  501    0  0.00000000000E+00  0.00000000000E+00  0.31002594438E+04  0.31002594438E+04  0.25500000000E-02 0.  1.
         -2   -1    0    0    0  501 -0.00000000000E+00 -0.00000000000E+00 -0.27999023366E+02  0.27999023482E+02  0.25500000000E-02 0. -1.
    5000001    1    1    2    0    0 -0.36978455462E+02  0.20641666577E+03  0.66865369382E+03  0.71218116258E+03  0.12700000000E+03 0.  0.
   -5000001    1    1    2    0    0  0.36978455462E+02 -0.20641666577E+03  0.24036067266E+04  0.24160773047E+04  0.12700000000E+03 0.  0.
<mgrwt>
<rscale>  0 0.58925117E+03</rscale>
<asrwt>0</asrwt>
<pdfrwt beam="1">  1        2 0.44289381E+00 0.58925117E+03</pdfrwt>
<pdfrwt beam="2">  1       -2 0.39998640E-02 0.58925117E+03</pdfrwt>
<totfact> 0.64441849E+02</totfact>
</mgrwt>
</event>
<event>
 4    1  0.4895160E-005  0.2919328E+03  0.7818608E-02  0.1089344E+00
         -2   -1    0    0    0  501 -0.00000000000E+00  0.00000000000E+00  0.16176147097E+02  0.16176147298E+02  0.25500000000E-02 0. -1.
          2   -1    0    0  501    0  0.00000000000E+00 -0.00000000000E+00 -0.13171360313E+04  0.13171360313E+04  0.25500000000E-02 0.  1.
    5000001    1    1    2    0    0  0.66730170043E+02 -0.15309456804E+02 -0.54939212055E+03  0.56802112389E+03  0.12700000000E+03 0.  0.
   -5000001    1    1    2    0    0 -0.66730170043E+02  0.15309456804E+02 -0.75156776369E+03  0.76529105475E+03  0.12700000000E+03 0.  0.
<mgrwt>
<rscale>  0 0.29193278E+03</rscale>
<asrwt>0</asrwt>
<pdfrwt beam="1">  1        2 0.18816222E+00 0.29193278E+03</pdfrwt>
<pdfrwt beam="2">  1       -2 0.23108790E-02 0.29193278E+03</pdfrwt>
<totfact> 0.12119560E+04</totfact>
</mgrwt>
</event>
<event>
 4    1  0.4895160E-005  0.4498342E+03  0.7818608E-02  0.1027771E+00
         -2   -1    0    0    0  501 -0.00000000000E+00  0.00000000000E+00  0.11659765641E+02  0.11659765920E+02  0.25500000000E-02 0. -1.
          2   -1    0    0  501    0  0.00000000000E+00 -0.00000000000E+00 -0.43386556274E+04  0.43386556274E+04  0.25500000000E-02 0.  1.
    5000001    1    1    2    0    0 -0.13686784607E+03 -0.77283658648E+02 -0.12084164752E+04  0.12251958818E+04  0.12700000000E+03 0.  0.
   -5000001    1    1    2    0    0  0.13686784607E+03  0.77283658648E+02 -0.31185793865E+04  0.31251195115E+04  0.12700000000E+03 0.  0.
<mgrwt>
<rscale>  0 0.44983423E+03</rscale>
<asrwt>0</asrwt>
<pdfrwt beam="1">  1        2 0.61980692E+00 0.44983423E+03</pdfrwt>
<pdfrwt beam="2">  1       -2 0.16656836E-02 0.44983423E+03</pdfrwt>
<totfact> 0.41236683E+02</totfact>
</mgrwt>
</event>
<event>
 4    1  0.4895160E-005  0.4831768E+03  0.7818608E-02  0.1018266E+00
          2   -1    0    0  501    0  0.00000000000E+00  0.00000000000E+00  0.45476349224E+03  0.45476349225E+03  0.25500000000E-02 0.  1.
         -2   -1    0    0    0  501 -0.00000000000E+00 -0.00000000000E+00 -0.12834134320E+03  0.12834134322E+03  0.25500000000E-02 0. -1.
    5000001    1    1    2    0    0  0.11784913592E+03  0.15925854934E+03  0.97284822684E+02  0.25464689493E+03  0.12700000000E+03 0.  0.
   -5000001    1    1    2    0    0 -0.11784913592E+03 -0.15925854934E+03  0.22913732636E+03  0.32845794054E+03  0.12700000000E+03 0.  0.
<mgrwt>
<rscale>  0 0.48317681E+03</rscale>
<asrwt>0</asrwt>
<pdfrwt beam="1">  1        2 0.64966215E-01 0.48317681E+03</pdfrwt>
<pdfrwt beam="2">  1       -2 0.18334477E-01 0.48317681E+03</pdfrwt>
<totfact> 0.18487196E+03</totfact>
</mgrwt>
</event>
<event>
 4    1  0.4895160E-005  0.3987527E+03  0.7818608E-02  0.1044212E+00
          2   -1    0    0  501    0  0.00000000000E+00  0.00000000000E+00  0.11752630020E+04  0.11752630020E+04  0.25500000000E-02 0.  1.
         -2   -1    0    0    0  501 -0.00000000000E+00 -0.00000000000E+00 -0.33823007497E+02  0.33823007593E+02  0.25500000000E-02 0. -1.
    5000001    1    1    2    0    0  0.10541933905E+02  0.68456357135E+02  0.15469870318E+03  0.21179729452E+03  0.12700000000E+03 0.  0.
   -5000001    1    1    2    0    0 -0.10541933905E+02 -0.68456357135E+02  0.98674129134E+03  0.99728871508E+03  0.12700000000E+03 0.  0.
<mgrwt>
<rscale>  0 0.39875270E+03</rscale>
<asrwt>0</asrwt>
<pdfrwt beam="1">  1        2 0.16789472E+00 0.39875270E+03</pdfrwt>
<pdfrwt beam="2">  1       -2 0.48318582E-02 0.39875270E+03</pdfrwt>
<totfact> 0.47953071E+03</totfact>
</mgrwt>
</event>
<event>
 4    1  0.4895160E-005  0.5187971E+03  0.7818608E-02  0.1008986E+00
          2   -1    0    0  501    0  0.00000000000E+00  0.00000000000E+00  0.50672309025E+03  0.50672309025E+03  0.25500000000E-02 0.  1.
         -2   -1    0    0    0  501 -0.00000000000E+00 -0.00000000000E+00 -0.13278971719E+03  0.13278971722E+03  0.25500000000E-02 0. -1.
    5000001    1    1    2    0    0 -0.15247421792E+03 -0.15015054872E+03  0.27725638886E+03  0.37255023765E+03  0.12700000000E+03 0.  0.
   -5000001    1    1    2    0    0  0.15247421792E+03  0.15015054872E+03  0.96676984197E+02  0.26696256982E+03  0.12700000000E+03 0.  0.
<mgrwt>
<rscale>  0 0.51879713E+03</rscale>
<asrwt>0</asrwt>
<pdfrwt beam="1">  1        2 0.72389014E-01 0.51879713E+03</pdfrwt>
<pdfrwt beam="2">  1       -2 0.18969959E-01 0.51879713E+03</pdfrwt>
<totfact> 0.15441201E+03</totfact>
</mgrwt>
</event>
<event>
 4    1  0.4895160E-005  0.3473470E+03  0.7818608E-02  0.1063709E+00
          2   -1    0    0  501    0  0.00000000000E+00  0.00000000000E+00  0.29785030254E+04  0.29785030254E+04  0.25500000000E-02 0.  1.
         -2   -1    0    0    0  501 -0.00000000000E+00 -0.00000000000E+00 -0.10126728472E+02  0.10126728793E+02  0.25500000000E-02 0. -1.
    5000001    1    1    2    0    0 -0.10671005913E+03  0.49367925583E+02  0.16086553180E+04  0.16179385529E+04  0.12700000000E+03 0.  0.
   -5000001    1    1    2    0    0  0.10671005913E+03 -0.49367925583E+02  0.13597209788E+04  0.13706912012E+04  0.12700000000E+03 0.  0.
<mgrwt>
<rscale>  0 0.34734704E+03</rscale>
<asrwt>0</asrwt>
<pdfrwt beam="1">  1        2 0.42550019E+00 0.34734704E+03</pdfrwt>
<pdfrwt beam="2">  1       -2 0.14466764E-02 0.34734704E+03</pdfrwt>
<totfact> 0.35284341E+03</totfact>
</mgrwt>
</event>
<event>
 4    1  0.4895160E-005  0.4704602E+03  0.7818608E-02  0.1021790E+00
         -2   -1    0    0    0  501 -0.00000000000E+00  0.00000000000E+00  0.20494955564E+03  0.20494955566E+03  0.25500000000E-02 0. -1.
          2   -1    0    0  501    0  0.00000000000E+00 -0.00000000000E+00 -0.26998445067E+03  0.26998445068E+03  0.25500000000E-02 0.  1.
    5000001    1    1    2    0    0  0.10857951793E+03  0.48585629425E+02  0.12727268793E+03  0.21558620595E+03  0.12700000000E+03 0.  0.
   -5000001    1    1    2    0    0 -0.10857951793E+03 -0.48585629425E+02 -0.19230758296E+03  0.25934780039E+03  0.12700000000E+03 0.  0.
<mgrwt>
<rscale>  0 0.47046017E+03</rscale>
<asrwt>0</asrwt>
<pdfrwt beam="1">  1        2 0.38569207E-01 0.47046017E+03</pdfrwt>
<pdfrwt beam="2">  1       -2 0.29278508E-01 0.47046017E+03</pdfrwt>
<totfact> 0.14335122E+03</totfact>
</mgrwt>
</event>
<event>
 4    1  0.4895160E-005  0.4777417E+03  0.7818608E-02  0.1019758E+00
         -2   -1    0    0    0  501 -0.00000000000E+00  0.00000000000E+00  0.19095585555E+02  0.19095585726E+02  0.25500000000E-02 0. -1.
          2   -1    0    0  501    0  0.00000000000E+00 -0.00000000000E+00 -0.29880880447E+04  0.29880880447E+04  0.25500000000E-02 0.  1.
    5000001    1    1    2    0    0  0.11885380682E+03 -0.16191868049E+03 -0.16369244849E+04  0.16540842348E+04  0.12700000000E+03 0.  0.
   -5000001    1    1    2    0    0 -0.11885380682E+03  0.16191868049E+03 -0.13320679743E+04  0.13530993957E+04  0.12700000000E+03 0.  0.
<mgrwt>
<rscale>  0 0.47774173E+03</rscale>
<asrwt>0</asrwt>
<pdfrwt beam="1">  1        2 0.42686942E+00 0.47774173E+03</pdfrwt>
<pdfrwt beam="2">  1       -2 0.27279427E-02 0.47774173E+03</pdfrwt>
<totfact> 0.13422335E+03</totfact>
</mgrwt>
</event>
<event>
 4    1  0.4895160E-005  0.5629807E+03  0.7818608E-02  0.9985333E-01
         -2   -1    0    0    0  501 -0.00000000000E+00  0.00000000000E+00  0.72748019622E+02  0.72748019667E+02  0.25500000000E-02 0. -1.
          2   -1    0    0  501    0  0.00000000000E+00 -0.00000000000E+00 -0.10891953575E+04  0.10891953575E+04  0.25500000000E-02 0.  1.
    5000001    1    1    2    0    0  0.17400430619E+03 -0.16366107352E+03 -0.34775044995E+03  0.44059257937E+03  0.12700000000E+03 0.  0.
   -5000001    1    1    2    0    0 -0.17400430619E+03  0.16366107352E+03 -0.66869688789E+03  0.72135079776E+03  0.12700000000E+03 0.  0.
<mgrwt>
<rscale>  0 0.56298066E+03</rscale>
<asrwt>0</asrwt>
<pdfrwt beam="1">  1        2 0.15559933E+00 0.56298066E+03</pdfrwt>
<pdfrwt beam="2">  1       -2 0.10392575E-01 0.56298066E+03</pdfrwt>
<totfact> 0.16074298E+03</totfact>
</mgrwt>
</event>
<event>
 4    1  0.4895160E-005  0.7399866E+03  0.7818608E-02  0.9651192E-01
         -2   -1    0    0    0  501 -0.00000000000E+00  0.00000000000E+00  0.54975903146E+02  0.54975903205E+02  0.25500000000E-02 0. -1.
          2   -1    0    0  501    0  0.00000000000E+00 -0.00000000000E+00 -0.24900918293E+04  0.24900918293E+04  0.25500000000E-02 0.  1.
    5000001    1    1    2    0    0 -0.16525450513E+03  0.16686850905E+03 -0.33657648721E+03  0.42961247948E+03  0.12700000000E+03 0.  0.
   -5000001    1    1    2    0    0  0.16525450513E+03 -0.16686850905E+03 -0.20985394390E+04  0.21154552531E+04  0.12700000000E+03 0.  0.
<mgrwt>
<rscale>  0 0.73998661E+03</rscale>
<asrwt>0</asrwt>
<pdfrwt beam="1">  1        2 0.35572733E+00 0.73998661E+03</pdfrwt>
<pdfrwt beam="2">  1       -2 0.78537020E-02 0.73998661E+03</pdfrwt>
<totfact> 0.46712709E+02</totfact>
</mgrwt>
</event>
<event>
 4    1  0.4895160E-005  0.4031366E+03  0.7818608E-02  0.1042699E+00
         -2   -1    0    0    0  501 -0.00000000000E+00  0.00000000000E+00  0.40126578591E+02  0.40126578672E+02  0.25500000000E-02 0. -1.
          2   -1    0    0  501    0  0.00000000000E+00 -0.00000000000E+00 -0.10125405671E+04  0.10125405671E+04  0.25500000000E-02 0.  1.
    5000001    1    1    2    0    0  0.46540218110E+02 -0.89320883309E+02 -0.17333676728E+03  0.23731592232E+03  0.12700000000E+03 0.  0.
   -5000001    1    1    2    0    0 -0.46540218110E+02  0.89320883309E+02 -0.79907722122E+03  0.81535122344E+03  0.12700000000E+03 0.  0.
<mgrwt>
<rscale>  0 0.40313665E+03</rscale>
<asrwt>0</asrwt>
<pdfrwt beam="1">  1        2 0.14464864E+00 0.40313665E+03</pdfrwt>
<pdfrwt beam="2">  1       -2 0.57323690E-02 0.40313665E+03</pdfrwt>
<totfact> 0.45721900E+03</totfact>
</mgrwt>
</event>
<event>
 4    1  0.4895160E-005  0.5409042E+03  0.7818608E-02  0.1003621E+00
         -2   -1    0    0    0  501 -0.00000000000E+00  0.00000000000E+00  0.21314589217E+03  0.21314589219E+03  0.25500000000E-02 0. -1.
          2   -1    0    0  501    0  0.00000000000E+00 -0.00000000000E+00 -0.34316557929E+03  0.34316557929E+03  0.25500000000E-02 0.  1.
    5000001    1    1    2    0    0  0.12716400756E+03 -0.19430292016E+03 -0.78292232641E+01  0.26479162815E+03  0.12700000000E+03 0.  0.
   -5000001    1    1    2    0    0 -0.12716400756E+03  0.19430292016E+03 -0.12219046385E+03  0.29151984333E+03  0.12700000000E+03 0.  0.
<mgrwt>
<rscale>  0 0.54090418E+03</rscale>
<asrwt>0</asrwt>
<pdfrwt beam="1">  1        2 0.49023654E-01 0.54090418E+03</pdfrwt>
<pdfrwt beam="2">  1       -2 0.30449413E-01 0.54090418E+03</pdfrwt>
<totfact> 0.10250571E+03</totfact>
</mgrwt>
</event>
<event>
 4    1  0.4895160E-005  0.5082296E+03  0.7818608E-02  0.1011653E+00
          2   -1    0    0  501    0  0.00000000000E+00  0.00000000000E+00  0.48104823505E+03  0.48104823506E+03  0.25500000000E-02 0.  1.
         -2   -1    0    0    0  501 -0.00000000000E+00 -0.00000000000E+00 -0.13423670511E+03  0.13423670514E+03  0.25500000000E-02 0. -1.
    5000001    1    1    2    0    0 -0.16708414733E+03  0.49956005237E+02  0.10833785271E+02  0.21600714259E+03  0.12700000000E+03 0.  0.
   -5000001    1    1    2    0    0  0.16708414733E+03 -0.49956005237E+02  0.33597774466E+03  0.39927779760E+03  0.12700000000E+03 0.  0.
<mgrwt>
<rscale>  0 0.50822959E+03</rscale>
<asrwt>0</asrwt>
<pdfrwt beam="1">  1        2 0.68721176E-01 0.50822959E+03</pdfrwt>
<pdfrwt beam="2">  1       -2 0.19176672E-01 0.50822959E+03</pdfrwt>
<totfact> 0.16071884E+03</totfact>
</mgrwt>
</event>
<event>
 4    1  0.4895160E-005  0.5595711E+03  0.7818608E-02  0.9993026E-01
         -2   -1    0    0    0  501 -0.00000000000E+00  0.00000000000E+00  0.39528475176E+02  0.39528475258E+02  0.25500000000E-02 0. -1.
          2   -1    0    0  501    0  0.00000000000E+00 -0.00000000000E+00 -0.19803432247E+04  0.19803432247E+04  0.25500000000E-02 0.  1.
    5000001    1    1    2    0    0 -0.17172346990E+03  0.18009976805E+03 -0.10246813273E+04  0.10620855423E+04  0.12700000000E+03 0.  0.
   -5000001    1    1    2    0    0  0.17172346990E+03 -0.18009976805E+03 -0.91613342223E+03  0.95778615770E+03  0.12700000000E+03 0.  0.
<mgrwt>
<rscale>  0 0.55957108E+03</rscale>
<asrwt>0</asrwt>
<pdfrwt beam="1">  1        2 0.28290611E+00 0.55957108E+03</pdfrwt>
<pdfrwt beam="2">  1       -2 0.56469263E-02 0.55957108E+03</pdfrwt>
<totfact> 0.14419685E+03</totfact>
</mgrwt>
</event>
<event>
 4    1  0.4895160E-005  0.3013483E+03  0.7818608E-02  0.1084569E+00
         -2   -1    0    0    0  501 -0.00000000000E+00  0.00000000000E+00  0.53146429227E+02  0.53146429288E+02  0.25500000000E-02 0. -1.
          2   -1    0    0  501    0  0.00000000000E+00 -0.00000000000E+00 -0.42717268356E+03  0.42717268357E+03  0.25500000000E-02 0.  1.
    5000001    1    1    2    0    0  0.78580971734E+02  0.17862409836E+02 -0.17278646340E+03  0.22908120119E+03  0.12700000000E+03 0.  0.
   -5000001    1    1    2    0    0 -0.78580971734E+02 -0.17862409836E+02 -0.20123979094E+03  0.25123791167E+03  0.12700000000E+03 0.  0.
<mgrwt>
<rscale>  0 0.30134832E+03</rscale>
<asrwt>0</asrwt>
<pdfrwt beam="1">  1        2 0.61024667E-01 0.30134832E+03</pdfrwt>
<pdfrwt beam="2">  1       -2 0.75923473E-02 0.30134832E+03</pdfrwt>
<totfact> 0.82532229E+03</totfact>
</mgrwt>
</event>
<event>
 4    1  0.4895160E-005  0.4956108E+03  0.7818608E-02  0.1014931E+00
          2   -1    0    0  501    0  0.00000000000E+00  0.00000000000E+00  0.11018057963E+04  0.11018057963E+04  0.25500000000E-02 0.  1.
         -2   -1    0    0    0  501 -0.00000000000E+00 -0.00000000000E+00 -0.55733517531E+02  0.55733517589E+02  0.25500000000E-02 0. -1.
    5000001    1    1    2    0    0  0.45807951030E+02 -0.20779822429E+03  0.52255576099E+03  0.57833553733E+03  0.12700000000E+03 0.  0.
   -5000001    1    1    2    0    0 -0.45807951030E+02  0.20779822429E+03  0.52351651774E+03  0.57920377652E+03  0.12700000000E+03 0.  0.
<mgrwt>
<rscale>  0 0.49561079E+03</rscale>
<asrwt>0</asrwt>
<pdfrwt beam="1">  1        2 0.15740083E+00 0.49561079E+03</pdfrwt>
<pdfrwt beam="2">  1       -2 0.79619310E-02 0.49561079E+03</pdfrwt>
<totfact> 0.24255013E+03</totfact>
</mgrwt>
</event>
<event>
 4    1  0.4895160E-005  0.4708363E+03  0.7818608E-02  0.1021684E+00
          2   -1    0    0  501    0  0.00000000000E+00  0.00000000000E+00  0.50969348337E+03  0.50969348338E+03  0.25500000000E-02 0.  1.
         -2   -1    0    0    0  501 -0.00000000000E+00 -0.00000000000E+00 -0.10873535764E+03  0.10873535767E+03  0.25500000000E-02 0. -1.
    5000001    1    1    2    0    0 -0.48538753699E+02  0.17193047520E+03  0.87668946035E+02  0.23607402020E+03  0.12700000000E+03 0.  0.
   -5000001    1    1    2    0    0  0.48538753699E+02 -0.17193047520E+03  0.31328917970E+03  0.38235482085E+03  0.12700000000E+03 0.  0.
<mgrwt>
<rscale>  0 0.47083629E+03</rscale>
<asrwt>0</asrwt>
<pdfrwt beam="1">  1        2 0.72813355E-01 0.47083629E+03</pdfrwt>
<pdfrwt beam="2">  1       -2 0.15533623E-01 0.47083629E+03</pdfrwt>
<totfact> 0.21543177E+03</totfact>
</mgrwt>
</event>
<event>
 4    1  0.4895160E-005  0.2893237E+03  0.7818608E-02  0.1090703E+00
         -2   -1    0    0    0  501 -0.00000000000E+00  0.00000000000E+00  0.37248481471E+02  0.37248481559E+02  0.25500000000E-02 0. -1.
          2   -1    0    0  501    0  0.00000000000E+00 -0.00000000000E+00 -0.56182292668E+03  0.56182292669E+03  0.25500000000E-02 0.  1.
    5000001    1    1    2    0    0 -0.31619488952E+02 -0.60896608942E+02 -0.24265894300E+03  0.28234828082E+03  0.12700000000E+03 0.  0.
   -5000001    1    1    2    0    0  0.31619488952E+02  0.60896608942E+02 -0.28191550221E+03  0.31672312743E+03  0.12700000000E+03 0.  0.
<mgrwt>
<rscale>  0 0.28932370E+03</rscale>
<asrwt>0</asrwt>
<pdfrwt beam="1">  1        2 0.80260413E-01 0.28932370E+03</pdfrwt>
<pdfrwt beam="2">  1       -2 0.53212120E-02 0.28932370E+03</pdfrwt>
<totfact> 0.10528493E+04</totfact>
</mgrwt>
</event>
<event>
 4    1  0.4895160E-005  0.4226808E+03  0.7818608E-02  0.1036197E+00
          2   -1    0    0  501    0  0.00000000000E+00  0.00000000000E+00  0.35090729500E+04  0.35090729500E+04  0.25500000000E-02 0.  1.
         -2   -1    0    0    0  501 -0.00000000000E+00 -0.00000000000E+00 -0.12728366902E+02  0.12728367157E+02  0.25500000000E-02 0. -1.
    5000001    1    1    2    0    0  0.10964727802E+02  0.10839704163E+03  0.28238027941E+04  0.28287561513E+04  0.12700000000E+03 0.  0.
   -5000001    1    1    2    0    0 -0.10964727802E+02 -0.10839704163E+03  0.67254178908E+03  0.69304516588E+03  0.12700000000E+03 0.  0.
<mgrwt>
<rscale>  0 0.42268082E+03</rscale>
<asrwt>0</asrwt>
<pdfrwt beam="1">  1        2 0.50129581E+00 0.42268082E+03</pdfrwt>
<pdfrwt beam="2">  1       -2 0.18183393E-02 0.42268082E+03</pdfrwt>
<totfact> 0.12620149E+03</totfact>
</mgrwt>
</event>
<event>
 4    1  0.4895160E-005  0.3679958E+03  0.7818608E-02  0.1055462E+00
         -2   -1    0    0    0  501 -0.00000000000E+00  0.00000000000E+00  0.29182586856E+02  0.29182586967E+02  0.25500000000E-02 0. -1.
          2   -1    0    0  501    0  0.00000000000E+00 -0.00000000000E+00 -0.11601176102E+04  0.11601176102E+04  0.25500000000E-02 0.  1.
    5000001    1    1    2    0    0 -0.83481461987E+02 -0.10350680040E+03 -0.54417154643E+03  0.57439923761E+03  0.12700000000E+03 0.  0.
   -5000001    1    1    2    0    0  0.83481461987E+02  0.10350680040E+03 -0.58676347688E+03  0.61490095952E+03  0.12700000000E+03 0.  0.
<mgrwt>
<rscale>  0 0.36799583E+03</rscale>
<asrwt>0</asrwt>
<pdfrwt beam="1">  1        2 0.16573106E+00 0.36799583E+03</pdfrwt>
<pdfrwt beam="2">  1       -2 0.41689417E-02 0.36799583E+03</pdfrwt>
<totfact> 0.61181018E+03</totfact>
</mgrwt>
</event>
<event>
 4    1  0.4895160E-005  0.4244829E+03  0.7818608E-02  0.1035617E+00
          2   -1    0    0  501    0  0.00000000000E+00  0.00000000000E+00  0.71276798330E+03  0.71276798330E+03  0.25500000000E-02 0.  1.
         -2   -1    0    0    0  501 -0.00000000000E+00 -0.00000000000E+00 -0.63199278814E+02  0.63199278865E+02  0.25500000000E-02 0. -1.
    5000001    1    1    2    0    0  0.87576529000E+02  0.11562823134E+03  0.48703562117E+03  0.52380552937E+03  0.12700000000E+03 0.  0.
   -5000001    1    1    2    0    0 -0.87576529000E+02 -0.11562823134E+03  0.16253308331E+03  0.25216173279E+03  0.12700000000E+03 0.  0.
<mgrwt>
<rscale>  0 0.42448285E+03</rscale>
<asrwt>0</asrwt>
<pdfrwt beam="1">  1        2 0.10182399E+00 0.42448285E+03</pdfrwt>
<pdfrwt beam="2">  1       -2 0.90284695E-02 0.42448285E+03</pdfrwt>
<totfact> 0.35314179E+03</totfact>
</mgrwt>
</event>
<event>
 4    1  0.4895160E-005  0.3746974E+03  0.7818608E-02  0.1052911E+00
         -2   -1    0    0    0  501 -0.00000000000E+00  0.00000000000E+00  0.16410295399E+03  0.16410295401E+03  0.25500000000E-02 0. -1.
          2   -1    0    0  501    0  0.00000000000E+00 -0.00000000000E+00 -0.21388731141E+03  0.21388731142E+03  0.25500000000E-02 0.  1.
    5000001    1    1    2    0    0  0.27188969543E+02  0.93406263754E+02  0.73466304395E+02  0.17604052958E+03  0.12700000000E+03 0.  0.
   -5000001    1    1    2    0    0 -0.27188969543E+02 -0.93406263754E+02 -0.12325066181E+03  0.20194973585E+03  0.12700000000E+03 0.  0.
<mgrwt>
<rscale>  0 0.37469742E+03</rscale>
<asrwt>0</asrwt>
<pdfrwt beam="1">  1        2 0.30555330E-01 0.37469742E+03</pdfrwt>
<pdfrwt beam="2">  1       -2 0.23443279E-01 0.37469742E+03</pdfrwt>
<totfact> 0.27540905E+03</totfact>
</mgrwt>
</event>
<event>
 4    1  0.4895160E-005  0.3302842E+03  0.7818608E-02  0.1071011E+00
          2   -1    0    0  501    0  0.00000000000E+00  0.00000000000E+00  0.78487294539E+02  0.78487294581E+02  0.25500000000E-02 0.  1.
         -2   -1    0    0    0  501 -0.00000000000E+00 -0.00000000000E+00 -0.34746907692E+03  0.34746907693E+03  0.25500000000E-02 0. -1.
    5000001    1    1    2    0    0 -0.46884120542E+02 -0.72979732842E+02 -0.56909709286E+02  0.16398742993E+03  0.12700000000E+03 0.  0.
   -5000001    1    1    2    0    0  0.46884120542E+02  0.72979732842E+02 -0.21207207310E+03  0.26196894158E+03  0.12700000000E+03 0.  0.
<mgrwt>
<rscale>  0 0.33028417E+03</rscale>
<asrwt>0</asrwt>
<pdfrwt beam="1">  1        2 0.11212471E-01 0.33028417E+03</pdfrwt>
<pdfrwt beam="2">  1       -2 0.49638439E-01 0.33028417E+03</pdfrwt>
<totfact> 0.21738293E+03</totfact>
</mgrwt>
</event>
<event>
 4    1  0.4895160E-005  0.4797709E+03  0.7818608E-02  0.1019198E+00
         -2   -1    0    0    0  501 -0.00000000000E+00  0.00000000000E+00  0.81427461190E+02  0.81427461230E+02  0.25500000000E-02 0. -1.
          2   -1    0    0  501    0  0.00000000000E+00 -0.00000000000E+00 -0.70670283724E+03  0.70670283724E+03  0.25500000000E-02 0.  1.
    5000001    1    1    2    0    0 -0.20228709855E+03 -0.93949162650E+01 -0.27946920881E+03  0.36775042266E+03  0.12700000000E+03 0.  0.
   -5000001    1    1    2    0    0  0.20228709855E+03  0.93949162650E+01 -0.34580616724E+03  0.42037987582E+03  0.12700000000E+03 0.  0.
<mgrwt>
<rscale>  0 0.47977085E+03</rscale>
<asrwt>0</asrwt>
<pdfrwt beam="1">  1        2 0.10095754E+00 0.47977085E+03</pdfrwt>
<pdfrwt beam="2">  1       -2 0.11632495E-01 0.47977085E+03</pdfrwt>
<totfact> 0.23733608E+03</totfact>
</mgrwt>
</event>
<event>
 4    1  0.4895160E-005  0.3046642E+03  0.7818608E-02  0.1082932E+00
         -2   -1    0    0    0  501 -0.00000000000E+00  0.00000000000E+00  0.29862039542E+02  0.29862039651E+02  0.25500000000E-02 0. -1.
          2   -1    0    0  501    0  0.00000000000E+00 -0.00000000000E+00 -0.77707597912E+03  0.77707597913E+03  0.25500000000E-02 0.  1.
    5000001    1    1    2    0    0 -0.82922761980E+02  0.31008094973E+01 -0.33707200907E+03  0.36963811867E+03  0.12700000000E+03 0.  0.
   -5000001    1    1    2    0    0  0.82922761980E+02 -0.31008094973E+01 -0.41014193051E+03  0.43729990011E+03  0.12700000000E+03 0.  0.
<mgrwt>
<rscale>  0 0.30466423E+03</rscale>
<asrwt>0</asrwt>
<pdfrwt beam="1">  1        2 0.11101084E+00 0.30466423E+03</pdfrwt>
<pdfrwt beam="2">  1       -2 0.42660061E-02 0.30466423E+03</pdfrwt>
<totfact> 0.10081960E+04</totfact>
</mgrwt>
</event>
<event>
 4    1  0.4895160E-005  0.2792960E+03  0.7818608E-02  0.1096074E+00
          2   -1    0    0  501    0  0.00000000000E+00  0.00000000000E+00  0.12998808519E+03  0.12998808522E+03  0.25500000000E-02 0.  1.
         -2   -1    0    0    0  501 -0.00000000000E+00 -0.00000000000E+00 -0.15002573236E+03  0.15002573238E+03  0.25500000000E-02 0. -1.
    5000001    1    1    2    0    0 -0.27695921194E+02  0.38564589162E+02  0.23507612935E+02  0.13760777396E+03  0.12700000000E+03 0.  0.
   -5000001    1    1    2    0    0  0.27695921194E+02 -0.38564589162E+02 -0.43545260104E+02  0.14240604364E+03  0.12700000000E+03 0.  0.
<mgrwt>
<rscale>  0 0.27929596E+03</rscale>
<asrwt>0</asrwt>
<pdfrwt beam="1">  1        2 0.18569726E-01 0.27929596E+03</pdfrwt>
<pdfrwt beam="2">  1       -2 0.21432247E-01 0.27929596E+03</pdfrwt>
<totfact> 0.56066748E+03</totfact>
</mgrwt>
</event>
<event>
 4    1  0.4895160E-005  0.3424373E+03  0.7818608E-02  0.1065763E+00
         -2   -1    0    0    0  501 -0.00000000000E+00  0.00000000000E+00  0.10383699292E+02  0.10383699605E+02  0.25500000000E-02 0. -1.
          2   -1    0    0  501    0  0.00000000000E+00 -0.00000000000E+00 -0.28232540192E+04  0.28232540192E+04  0.25500000000E-02 0.  1.
    5000001    1    1    2    0    0 -0.46832714499E+02  0.97045090715E+02 -0.10779547349E+04  0.10907458289E+04  0.12700000000E+03 0.  0.
   -5000001    1    1    2    0    0  0.46832714499E+02 -0.97045090715E+02 -0.17349155850E+04  0.17428918899E+04  0.12700000000E+03 0.  0.
<mgrwt>
<rscale>  0 0.34243727E+03</rscale>
<asrwt>0</asrwt>
<pdfrwt beam="1">  1        2 0.40332151E+00 0.34243727E+03</pdfrwt>
<pdfrwt beam="2">  1       -2 0.14833874E-02 0.34243727E+03</pdfrwt>
<totfact> 0.41065549E+03</totfact>
</mgrwt>
</event>
<event>
 4    1  0.4895160E-005  0.3392276E+03  0.7818608E-02  0.1067125E+00
          2   -1    0    0  501    0  0.00000000000E+00  0.00000000000E+00  0.40512797820E+03  0.40512797821E+03  0.25500000000E-02 0.  1.
         -2   -1    0    0    0  501 -0.00000000000E+00 -0.00000000000E+00 -0.71011731081E+02  0.71011731127E+02  0.25500000000E-02 0. -1.
    5000001    1    1    2    0    0 -0.10196011955E+03  0.27884534576E+02  0.22080748215E+03  0.27578679704E+03  0.12700000000E+03 0.  0.
   -5000001    1    1    2    0    0  0.10196011955E+03 -0.27884534576E+02  0.11330876497E+03  0.20035291230E+03  0.12700000000E+03 0.  0.
<mgrwt>
<rscale>  0 0.33922759E+03</rscale>
<asrwt>0</asrwt>
<pdfrwt beam="1">  1        2 0.57875422E-01 0.33922759E+03</pdfrwt>
<pdfrwt beam="2">  1       -2 0.10144534E-01 0.33922759E+03</pdfrwt>
<totfact> 0.55537917E+03</totfact>
</mgrwt>
</event>
<event>
 4    1  0.4895160E-005  0.4548833E+03  0.7818608E-02  0.1026276E+00
         -2   -1    0    0    0  501 -0.00000000000E+00  0.00000000000E+00  0.11512965407E+03  0.11512965409E+03  0.25500000000E-02 0. -1.
          2   -1    0    0  501    0  0.00000000000E+00 -0.00000000000E+00 -0.44931689444E+03  0.44931689445E+03  0.25500000000E-02 0.  1.
    5000001    1    1    2    0    0 -0.11553586415E+03  0.22777217141E+02  0.15836955020E+02  0.17391706837E+03  0.12700000000E+03 0.  0.
   -5000001    1    1    2    0    0  0.11553586415E+03 -0.22777217141E+02 -0.35002419540E+03  0.39052948018E+03  0.12700000000E+03 0.  0.
<mgrwt>
<rscale>  0 0.45488328E+03</rscale>
<asrwt>0</asrwt>
<pdfrwt beam="1">  1        2 0.64188127E-01 0.45488328E+03</pdfrwt>
<pdfrwt beam="2">  1       -2 0.16447094E-01 0.45488328E+03</pdfrwt>
<totfact> 0.22530456E+03</totfact>
</mgrwt>
</event>
<event>
 4    1  0.4895160E-005  0.3891617E+03  0.7818608E-02  0.1047599E+00
          2   -1    0    0  501    0  0.00000000000E+00  0.00000000000E+00  0.16793244276E+03  0.16793244278E+03  0.25500000000E-02 0.  1.
         -2   -1    0    0    0  501 -0.00000000000E+00 -0.00000000000E+00 -0.22545797825E+03  0.22545797826E+03  0.25500000000E-02 0. -1.
    5000001    1    1    2    0    0 -0.51520938778E+02 -0.13777503604E+03 -0.18840749285E+02  0.19524431240E+03  0.12700000000E+03 0.  0.
   -5000001    1    1    2    0    0  0.51520938778E+02  0.13777503604E+03 -0.38684786202E+02  0.19814610865E+03  0.12700000000E+03 0.  0.
<mgrwt>
<rscale>  0 0.38916171E+03</rscale>
<asrwt>0</asrwt>
<pdfrwt beam="1">  1        2 0.23990349E-01 0.38916171E+03</pdfrwt>
<pdfrwt beam="2">  1       -2 0.32208282E-01 0.38916171E+03</pdfrwt>
<totfact> 0.20368729E+03</totfact>
</mgrwt>
</event>
<event>
 4    1  0.4895160E-005  0.5350472E+03  0.7818608E-02  0.1005015E+00
          2   -1    0    0  501    0  0.00000000000E+00  0.00000000000E+00  0.26223643130E+03  0.26223643131E+03  0.25500000000E-02 0.  1.
         -2   -1    0    0    0  501 -0.00000000000E+00 -0.00000000000E+00 -0.27291739841E+03  0.27291739843E+03  0.25500000000E-02 0. -1.
    5000001    1    1    2    0    0  0.55981287882E+02 -0.22806534122E+03  0.11756199850E+02  0.26723568754E+03  0.12700000000E+03 0.  0.
   -5000001    1    1    2    0    0 -0.55981287882E+02  0.22806534122E+03 -0.22437166962E+02  0.26791814220E+03  0.12700000000E+03 0.  0.
<mgrwt>
<rscale>  0 0.53504723E+03</rscale>
<asrwt>0</asrwt>
<pdfrwt beam="1">  1        2 0.37462347E-01 0.53504723E+03</pdfrwt>
<pdfrwt beam="2">  1       -2 0.38988200E-01 0.53504723E+03</pdfrwt>
<totfact> 0.86469340E+02</totfact>
</mgrwt>
</event>
<event>
 4    1  0.4895160E-005  0.3098005E+03  0.7818608E-02  0.1080442E+00
         -2   -1    0    0    0  501 -0.00000000000E+00  0.00000000000E+00  0.13999981680E+03  0.13999981683E+03  0.25500000000E-02 0. -1.
          2   -1    0    0  501    0  0.00000000000E+00 -0.00000000000E+00 -0.17138657171E+03  0.17138657172E+03  0.25500000000E-02 0.  1.
    5000001    1    1    2    0    0  0.20009089733E+01  0.61946981184E+02  0.48063633766E+02  0.14926669088E+03  0.12700000000E+03 0.  0.
   -5000001    1    1    2    0    0 -0.20009089733E+01 -0.61946981184E+02 -0.79450388668E+02  0.16211969767E+03  0.12700000000E+03 0.  0.
<mgrwt>
<rscale>  0 0.30980051E+03</rscale>
<asrwt>0</asrwt>
<pdfrwt beam="1">  1        2 0.24483796E-01 0.30980051E+03</pdfrwt>
<pdfrwt beam="2">  1       -2 0.19999974E-01 0.30980051E+03</pdfrwt>
<totfact> 0.46247261E+03</totfact>
</mgrwt>
</event>
<event>
 4    1  0.4895160E-005  0.3926797E+03  0.7818608E-02  0.1046344E+00
         -2   -1    0    0    0  501 -0.00000000000E+00  0.00000000000E+00  0.32353137246E+02  0.32353137347E+02  0.25500000000E-02 0. -1.
          2   -1    0    0  501    0  0.00000000000E+00 -0.00000000000E+00 -0.11915177135E+04  0.11915177135E+04  0.25500000000E-02 0.  1.
    5000001    1    1    2    0    0 -0.97158123940E+02  0.56531990203E+02 -0.27128306027E+03  0.31993603385E+03  0.12700000000E+03 0.  0.
   -5000001    1    1    2    0    0  0.97158123940E+02 -0.56531990203E+02 -0.88788151597E+03  0.90393481699E+03  0.12700000000E+03 0.  0.
<mgrwt>
<rscale>  0 0.39267970E+03</rscale>
<asrwt>0</asrwt>
<pdfrwt beam="1">  1        2 0.17021679E+00 0.39267970E+03</pdfrwt>
<pdfrwt beam="2">  1       -2 0.46218775E-02 0.39267970E+03</pdfrwt>
<totfact> 0.50266498E+03</totfact>
</mgrwt>
</event>
<event>
 4    1  0.4895160E-005  0.1002187E+04  0.7818608E-02  0.9306149E-01
          2   -1    0    0  501    0  0.00000000000E+00  0.00000000000E+00  0.17742627717E+04  0.17742627717E+04  0.25500000000E-02 0.  1.
         -2   -1    0    0    0  501 -0.00000000000E+00 -0.00000000000E+00 -0.14152059870E+03  0.14152059872E+03  0.25500000000E-02 0. -1.
    5000001    1    1    2    0    0  0.10103093831E+03  0.27799567786E+03  0.15504784474E+04  0.15835407362E+04  0.12700000000E+03 0.  0.
   -5000001    1    1    2    0    0 -0.10103093831E+03 -0.27799567786E+03  0.82263725540E+02  0.33224263415E+03  0.12700000000E+03 0.  0.
<mgrwt>
<rscale>  0 0.10021871E+04</rscale>
<asrwt>0</asrwt>
<pdfrwt beam="1">  1        2 0.25346608E+00 0.10021871E+04</pdfrwt>
<pdfrwt beam="2">  1       -2 0.20217231E-01 0.10021871E+04</pdfrwt>
<totfact> 0.21957692E+02</totfact>
</mgrwt>
</event>
<event>
 4    1  0.4895160E-005  0.1016914E+04  0.7818608E-02  0.9290186E-01
          2   -1    0    0  501    0  0.00000000000E+00  0.00000000000E+00  0.38977417786E+04  0.38977417786E+04  0.25500000000E-02 0.  1.
         -2   -1    0    0    0  501 -0.00000000000E+00 -0.00000000000E+00 -0.66327821332E+02  0.66327821381E+02  0.25500000000E-02 0. -1.
    5000001    1    1    2    0    0  0.39168678183E+03  0.26175715564E+03  0.24733498297E+04  0.25210164069E+04  0.12700000000E+03 0.  0.
   -5000001    1    1    2    0    0 -0.39168678183E+03 -0.26175715564E+03  0.13580641275E+04  0.14430531931E+04  0.12700000000E+03 0.  0.
<mgrwt>
<rscale>  0 0.10169144E+04</rscale>
<asrwt>0</asrwt>
<pdfrwt beam="1">  1        2 0.55682034E+00 0.10169144E+04</pdfrwt>
<pdfrwt beam="2">  1       -2 0.94754015E-02 0.10169144E+04</pdfrwt>
<totfact> 0.52293684E+01</totfact>
</mgrwt>
</event>
<event>
 4    1  0.4895160E-005  0.7330714E+03  0.7818608E-02  0.9662289E-01
          2   -1    0    0  501    0  0.00000000000E+00  0.00000000000E+00  0.94565285417E+02  0.94565285451E+02  0.25500000000E-02 0.  1.
         -2   -1    0    0    0  501 -0.00000000000E+00 -0.00000000000E+00 -0.14206949478E+04  0.14206949478E+04  0.25500000000E-02 0. -1.
    5000001    1    1    2    0    0 -0.47009827973E+02 -0.34001544454E+03 -0.62177665950E+03  0.72149541977E+03  0.12700000000E+03 0.  0.
   -5000001    1    1    2    0    0  0.47009827973E+02  0.34001544454E+03 -0.70435300285E+03  0.79376481345E+03  0.12700000000E+03 0.  0.
<mgrwt>
<rscale>  0 0.73307141E+03</rscale>
<asrwt>0</asrwt>
<pdfrwt beam="1">  1        2 0.13509327E-01 0.73307141E+03</pdfrwt>
<pdfrwt beam="2">  1       -2 0.20295641E+00 0.73307141E+03</pdfrwt>
<totfact> 0.59100064E+01</totfact>
</mgrwt>
</event>
<event>
 4    1  0.4895160E-005  0.4619944E+03  0.7818608E-02  0.1024204E+00
          2   -1    0    0  501    0  0.00000000000E+00  0.00000000000E+00  0.53372952389E+03  0.53372952390E+03  0.25500000000E-02 0.  1.
         -2   -1    0    0    0  501 -0.00000000000E+00 -0.00000000000E+00 -0.99975186727E+02  0.99975186760E+02  0.25500000000E-02 0. -1.
    5000001    1    1    2    0    0 -0.31981126621E+02  0.19028373063E+03  0.21706232769E+03  0.31697909191E+03  0.12700000000E+03 0.  0.
   -5000001    1    1    2    0    0  0.31981126621E+02 -0.19028373063E+03  0.21669200947E+03  0.31672561875E+03  0.12700000000E+03 0.  0.
<mgrwt>
<rscale>  0 0.46199441E+03</rscale>
<asrwt>0</asrwt>
<pdfrwt beam="1">  1        2 0.76247074E-01 0.46199441E+03</pdfrwt>
<pdfrwt beam="2">  1       -2 0.14282170E-01 0.46199441E+03</pdfrwt>
<totfact> 0.23524734E+03</totfact>
</mgrwt>
</event>
<event>
 4    1  0.4895160E-005  0.3934763E+03  0.7818608E-02  0.1046062E+00
         -2   -1    0    0    0  501 -0.00000000000E+00  0.00000000000E+00  0.26614004805E+02  0.26614004927E+02  0.25500000000E-02 0. -1.
          2   -1    0    0  501    0  0.00000000000E+00 -0.00000000000E+00 -0.14543432720E+04  0.14543432720E+04  0.25500000000E-02 0.  1.
    5000001    1    1    2    0    0  0.62749987529E+02  0.35346908088E+02 -0.12101973727E+04  0.12189723729E+04  0.12700000000E+03 0.  0.
   -5000001    1    1    2    0    0 -0.62749987529E+02 -0.35346908088E+02 -0.21753189445E+03  0.26198490405E+03  0.12700000000E+03 0.  0.
<mgrwt>
<rscale>  0 0.39347630E+03</rscale>
<asrwt>0</asrwt>
<pdfrwt beam="1">  1        2 0.20776327E+00 0.39347630E+03</pdfrwt>
<pdfrwt beam="2">  1       -2 0.38020016E-02 0.39347630E+03</pdfrwt>
<totfact> 0.49025579E+03</totfact>
</mgrwt>
</event>
<event>
 4    1  0.4895160E-005  0.3164797E+03  0.7818608E-02  0.1077281E+00
         -2   -1    0    0    0  501 -0.00000000000E+00  0.00000000000E+00  0.28853995756E+02  0.28853995869E+02  0.25500000000E-02 0. -1.
          2   -1    0    0  501    0  0.00000000000E+00 -0.00000000000E+00 -0.86781246317E+03  0.86781246318E+03  0.25500000000E-02 0.  1.
    5000001    1    1    2    0    0 -0.82090548901E+02 -0.39015588865E+02 -0.34725730087E+03  0.38075938255E+03  0.12700000000E+03 0.  0.
   -5000001    1    1    2    0    0  0.82090548901E+02  0.39015588865E+02 -0.49170116655E+03  0.51590707650E+03  0.12700000000E+03 0.  0.
<mgrwt>
<rscale>  0 0.31647974E+03</rscale>
<asrwt>0</asrwt>
<pdfrwt beam="1">  1        2 0.12397319E+00 0.31647974E+03</pdfrwt>
<pdfrwt beam="2">  1       -2 0.41220000E-02 0.31647974E+03</pdfrwt>
<totfact> 0.92541912E+03</totfact>
</mgrwt>
</event>
<event>
 4    1  0.4895160E-005  0.4863187E+03  0.7818608E-02  0.1017413E+00
          2   -1    0    0  501    0  0.00000000000E+00  0.00000000000E+00  0.21676060702E+04  0.21676060702E+04  0.25500000000E-02 0.  1.
         -2   -1    0    0    0  501 -0.00000000000E+00 -0.00000000000E+00 -0.27277311892E+02  0.27277312012E+02  0.25500000000E-02 0. -1.
    5000001    1    1    2    0    0 -0.10662370300E+03 -0.17048445060E+03  0.12986934519E+04  0.13202905907E+04  0.12700000000E+03 0.  0.
   -5000001    1    1    2    0    0  0.10662370300E+03  0.17048445060E+03  0.84163530637E+03  0.87459279146E+03  0.12700000000E+03 0.  0.
<mgrwt>
<rscale>  0 0.48631869E+03</rscale>
<asrwt>0</asrwt>
<pdfrwt beam="1">  1        2 0.30965803E+00 0.48631869E+03</pdfrwt>
<pdfrwt beam="2">  1       -2 0.38967587E-02 0.48631869E+03</pdfrwt>
<totfact> 0.20668938E+03</totfact>
</mgrwt>
</event>
<event>
 4    1  0.4895160E-005  0.3148271E+03  0.7818608E-02  0.1078055E+00
          2   -1    0    0  501    0  0.00000000000E+00  0.00000000000E+00  0.11429968110E+04  0.11429968110E+04  0.25500000000E-02 0.  1.
         -2   -1    0    0    0  501 -0.00000000000E+00 -0.00000000000E+00 -0.21678995175E+02  0.21678995325E+02  0.25500000000E-02 0. -1.
    5000001    1    1    2    0    0 -0.83426926232E+02  0.19265886897E+02  0.42631382120E+03  0.45299415069E+03  0.12700000000E+03 0.  0.
   -5000001    1    1    2    0    0  0.83426926232E+02 -0.19265886897E+02  0.69500399466E+03  0.71168165567E+03  0.12700000000E+03 0.  0.
<mgrwt>
<rscale>  0 0.31482708E+03</rscale>
<asrwt>0</asrwt>
<pdfrwt beam="1">  1        2 0.16328534E+00 0.31482708E+03</pdfrwt>
<pdfrwt beam="2">  1       -2 0.30969978E-02 0.31482708E+03</pdfrwt>
<totfact> 0.97572972E+03</totfact>
</mgrwt>
</event>
<event>
 4    1  0.4895160E-005  0.4020582E+03  0.7818608E-02  0.1043069E+00
          2   -1    0    0  501    0  0.00000000000E+00  0.00000000000E+00  0.91452317502E+03  0.91452317502E+03  0.25500000000E-02 0.  1.
         -2   -1    0    0    0  501 -0.00000000000E+00 -0.00000000000E+00 -0.44189903741E+02  0.44189903815E+02  0.25500000000E-02 0. -1.
    5000001    1    1    2    0    0 -0.36803004955E+02 -0.15083481352E+03  0.46698796190E+03  0.50824438876E+03  0.12700000000E+03 0.  0.
   -5000001    1    1    2    0    0  0.36803004955E+02  0.15083481352E+03  0.40334530938E+03  0.45046869008E+03  0.12700000000E+03 0.  0.
<mgrwt>
<rscale>  0 0.40205816E+03</rscale>
<asrwt>0</asrwt>
<pdfrwt beam="1">  1        2 0.13064617E+00 0.40205816E+03</pdfrwt>
<pdfrwt beam="2">  1       -2 0.63128434E-02 0.40205816E+03</pdfrwt>
<totfact> 0.45201814E+03</totfact>
</mgrwt>
</event>
<event>
 4    1  0.4895160E-005  0.2838020E+03  0.7818608E-02  0.1093630E+00
          2   -1    0    0  501    0  0.00000000000E+00  0.00000000000E+00  0.26437952687E+03  0.26437952689E+03  0.25500000000E-02 0.  1.
         -2   -1    0    0    0  501 -0.00000000000E+00 -0.00000000000E+00 -0.76162808352E+02  0.76162808395E+02  0.25500000000E-02 0. -1.
    5000001    1    1    2    0    0  0.61340301167E+02 -0.12837386520E+01  0.11279826613E+03  0.18060102263E+03  0.12700000000E+03 0.  0.
   -5000001    1    1    2    0    0 -0.61340301167E+02  0.12837386520E+01  0.75418452392E+02  0.15994131265E+03  0.12700000000E+03 0.  0.
<mgrwt>
<rscale>  0 0.28380195E+03</rscale>
<asrwt>0</asrwt>
<pdfrwt beam="1">  1        2 0.37768504E-01 0.28380195E+03</pdfrwt>
<pdfrwt beam="2">  1       -2 0.10880401E-01 0.28380195E+03</pdfrwt>
<totfact> 0.78331289E+03</totfact>
</mgrwt>
</event>
<event>
 4    1  0.4895160E-005  0.4951992E+03  0.7818608E-02  0.1015040E+00
          2   -1    0    0  501    0  0.00000000000E+00  0.00000000000E+00  0.16399210758E+04  0.16399210758E+04  0.25500000000E-02 0.  1.
         -2   -1    0    0    0  501 -0.00000000000E+00 -0.00000000000E+00 -0.37383245178E+02  0.37383245265E+02  0.25500000000E-02 0. -1.
    5000001    1    1    2    0    0  0.17239434678E+02  0.20502143778E+03  0.62058579738E+03  0.66602306264E+03  0.12700000000E+03 0.  0.
   -5000001    1    1    2    0    0 -0.17239434678E+02 -0.20502143778E+03  0.98195203328E+03  0.10112812585E+04  0.12700000000E+03 0.  0.
<mgrwt>
<rscale>  0 0.49519924E+03</rscale>
<asrwt>0</asrwt>
<pdfrwt beam="1">  1        2 0.23427454E+00 0.49519924E+03</pdfrwt>
<pdfrwt beam="2">  1       -2 0.53404614E-02 0.49519924E+03</pdfrwt>
<totfact> 0.23384970E+03</totfact>
</mgrwt>
</event>
<event>
 4    1  0.4895160E-005  0.2959288E+03  0.7818608E-02  0.1087294E+00
         -2   -1    0    0    0  501 -0.00000000000E+00  0.00000000000E+00  0.13950980061E+02  0.13950980295E+02  0.25500000000E-02 0. -1.
          2   -1    0    0  501    0  0.00000000000E+00 -0.00000000000E+00 -0.15693139580E+04  0.15693139580E+04  0.25500000000E-02 0.  1.
    5000001    1    1    2    0    0 -0.29863931512E+02 -0.67463849976E+02 -0.87357358114E+03  0.88583464999E+03  0.12700000000E+03 0.  0.
   -5000001    1    1    2    0    0  0.29863931512E+02  0.67463849976E+02 -0.68178939679E+03  0.69743028830E+03  0.12700000000E+03 0.  0.
<mgrwt>
<rscale>  0 0.29592883E+03</rscale>
<asrwt>0</asrwt>
<pdfrwt beam="1">  1        2 0.22418760E+00 0.29592883E+03</pdfrwt>
<pdfrwt beam="2">  1       -2 0.19929982E-02 0.29592883E+03</pdfrwt>
<totfact> 0.11204368E+04</totfact>
</mgrwt>
</event>
<event>
 4    1  0.4895160E-005  0.2886429E+03  0.7818608E-02  0.1091060E+00
          2   -1    0    0  501    0  0.00000000000E+00  0.00000000000E+00  0.95588517876E+03  0.95588517877E+03  0.25500000000E-02 0.  1.
         -2   -1    0    0    0  501 -0.00000000000E+00 -0.00000000000E+00 -0.21789937372E+02  0.21789937521E+02  0.25500000000E-02 0. -1.
    5000001    1    1    2    0    0  0.44175860244E+02 -0.49114514598E+02  0.52912909713E+03  0.54815175235E+03  0.12700000000E+03 0.  0.
   -5000001    1    1    2    0    0 -0.44175860244E+02  0.49114514598E+02  0.40496614426E+03  0.42952336394E+03  0.12700000000E+03 0.  0.
<mgrwt>
<rscale>  0 0.28864288E+03</rscale>
<asrwt>0</asrwt>
<pdfrwt beam="1">  1        2 0.13655507E+00 0.28864288E+03</pdfrwt>
<pdfrwt beam="2">  1       -2 0.31128473E-02 0.28864288E+03</pdfrwt>
<totfact> 0.12396250E+04</totfact>
</mgrwt>
</event>
<event>
 4    1  0.4895160E-005  0.3116833E+03  0.7818608E-02  0.1079542E+00
          2   -1    0    0  501    0  0.00000000000E+00  0.00000000000E+00  0.25280200820E+04  0.25280200820E+04  0.25500000000E-02 0. -1.
         -2   -1    0    0    0  501 -0.00000000000E+00 -0.00000000000E+00 -0.96069711933E+01  0.96069715317E+01  0.25500000000E-02 0.  1.
    5000001    1    1    2    0    0 -0.46368660225E+02  0.40405876938E+02  0.17977240250E+04  0.18032535478E+04  0.12700000000E+03 0.  0.
   -5000001    1    1    2    0    0  0.46368660225E+02 -0.40405876938E+02  0.72068908583E+03  0.73437350577E+03  0.12700000000E+03 0.  0.
<mgrwt>
<rscale>  0 0.31168328E+03</rscale>
<asrwt>0</asrwt>
<pdfrwt beam="1">  1        2 0.36114529E+00 0.31168328E+03</pdfrwt>
<pdfrwt beam="2">  1       -2 0.13724262E-02 0.31168328E+03</pdfrwt>
<totfact> 0.65240069E+03</totfact>
</mgrwt>
</event>
<event>
 4    1  0.4895160E-005  0.4748895E+03  0.7818608E-02  0.1020549E+00
          2   -1    0    0  501    0  0.00000000000E+00  0.00000000000E+00  0.10999447216E+03  0.10999447219E+03  0.25500000000E-02 0.  1.
         -2   -1    0    0    0  501 -0.00000000000E+00 -0.00000000000E+00 -0.51257126956E+03  0.51257126956E+03  0.25500000000E-02 0. -1.
    5000001    1    1    2    0    0  0.16973587548E+03 -0.19747964146E+02 -0.33910091825E+03  0.40039815468E+03  0.12700000000E+03 0.  0.
   -5000001    1    1    2    0    0 -0.16973587548E+03  0.19747964146E+02 -0.63475879148E+02  0.22216758708E+03  0.12700000000E+03 0.  0.
<mgrwt>
<rscale>  0 0.47488949E+03</rscale>
<asrwt>0</asrwt>
<pdfrwt beam="1">  1        2 0.15713496E-01 0.47488949E+03</pdfrwt>
<pdfrwt beam="2">  1       -2 0.73224466E-01 0.47488949E+03</pdfrwt>
<totfact> 0.64231697E+02</totfact>
</mgrwt>
</event>
<event>
 4    1  0.4895160E-005  0.3675434E+03  0.7818608E-02  0.1055636E+00
         -2   -1    0    0    0  501 -0.00000000000E+00  0.00000000000E+00  0.12555432714E+02  0.12555432973E+02  0.25500000000E-02 0. -1.
          2   -1    0    0  501    0  0.00000000000E+00 -0.00000000000E+00 -0.26898347743E+04  0.26898347743E+04  0.25500000000E-02 0.  1.
    5000001    1    1    2    0    0 -0.10994156264E+03 -0.42920322116E+02 -0.17867088622E+04  0.17951007937E+04  0.12700000000E+03 0.  0.
   -5000001    1    1    2    0    0  0.10994156264E+03  0.42920322116E+02 -0.89057047940E+03  0.90728941360E+03  0.12700000000E+03 0.  0.
<mgrwt>
<rscale>  0 0.36754341E+03</rscale>
<asrwt>0</asrwt>
<pdfrwt beam="1">  1        2 0.38426174E+00 0.36754341E+03</pdfrwt>
<pdfrwt beam="2">  1       -2 0.17936350E-02 0.36754341E+03</pdfrwt>
<totfact> 0.36329618E+03</totfact>
</mgrwt>
</event>
<event>
 4    1  0.4895160E-005  0.3626678E+03  0.7818608E-02  0.1057533E+00
         -2   -1    0    0    0  501 -0.00000000000E+00  0.00000000000E+00  0.46919328409E+02  0.46919328479E+02  0.25500000000E-02 0. -1.
          2   -1    0    0  501    0  0.00000000000E+00 -0.00000000000E+00 -0.70081952475E+03  0.70081952476E+03  0.25500000000E-02 0.  1.
    5000001    1    1    2    0    0  0.11053720537E+03  0.60632738901E+01 -0.46522340455E+03  0.49478990814E+03  0.12700000000E+03 0.  0.
   -5000001    1    1    2    0    0 -0.11053720537E+03 -0.60632738901E+01 -0.18867679180E+03  0.25294894510E+03  0.12700000000E+03 0.  0.
<mgrwt>
<rscale>  0 0.36266779E+03</rscale>
<asrwt>0</asrwt>
<pdfrwt beam="1">  1        2 0.10011707E+00 0.36266779E+03</pdfrwt>
<pdfrwt beam="2">  1       -2 0.67027616E-02 0.36266779E+03</pdfrwt>
<totfact> 0.57450789E+03</totfact>
</mgrwt>
</event>
<event>
 4    1  0.4895160E-005  0.3220907E+03  0.7818608E-02  0.1074691E+00
         -2   -1    0    0    0  501 -0.00000000000E+00  0.00000000000E+00  0.11402089845E+04  0.11402089845E+04  0.25500000000E-02 0. -1.
          2   -1    0    0  501    0  0.00000000000E+00 -0.00000000000E+00 -0.22746362148E+02  0.22746362291E+02  0.25500000000E-02 0.  1.
    5000001    1    1    2    0    0 -0.74325308333E+02 -0.55585059511E+02  0.43403819245E+03  0.46166232552E+03  0.12700000000E+03 0.  0.
   -5000001    1    1    2    0    0  0.74325308333E+02  0.55585059511E+02  0.68342442991E+03  0.70129302128E+03  0.12700000000E+03 0.  0.
<mgrwt>
<rscale>  0 0.32209071E+03</rscale>
<asrwt>0</asrwt>
<pdfrwt beam="1">  1        2 0.32494798E-02 0.32209071E+03</pdfrwt>
<pdfrwt beam="2">  1       -2 0.16288702E+00 0.32209071E+03</pdfrwt>
<totfact> 0.72041293E+02</totfact>
</mgrwt>
</event>
<event>
 4    1  0.4895160E-005  0.2686869E+03  0.7818608E-02  0.1102033E+00
          2   -1    0    0  501    0  0.00000000000E+00  0.00000000000E+00  0.13752090842E+04  0.13752090842E+04  0.25500000000E-02 0.  1.
         -2   -1    0    0    0  501 -0.00000000000E+00 -0.00000000000E+00 -0.13123941209E+02  0.13123941457E+02  0.25500000000E-02 0. -1.
    5000001    1    1    2    0    0 -0.11846702269E+02  0.31685522345E+02  0.53721073144E+03  0.55305396360E+03  0.12700000000E+03 0.  0.
   -5000001    1    1    2    0    0  0.11846702269E+02 -0.31685522345E+02  0.82487441160E+03  0.83527906210E+03  0.12700000000E+03 0.  0.
<mgrwt>
<rscale>  0 0.26868691E+03</rscale>
<asrwt>0</asrwt>
<pdfrwt beam="1">  1        2 0.19645860E+00 0.26868691E+03</pdfrwt>
<pdfrwt beam="2">  1       -2 0.18748473E-02 0.26868691E+03</pdfrwt>
<totfact> 0.15343910E+04</totfact>
</mgrwt>
</event>
<event>
 4    1  0.4895160E-005  0.5398592E+03  0.7818608E-02  0.1003869E+00
         -2   -1    0    0    0  501 -0.00000000000E+00  0.00000000000E+00  0.53344037367E+03  0.53344037367E+03  0.25500000000E-02 0. -1.
          2   -1    0    0  501    0  0.00000000000E+00 -0.00000000000E+00 -0.13658882796E+03  0.13658882798E+03  0.25500000000E-02 0.  1.
    5000001    1    1    2    0    0 -0.20388337547E+03  0.11938244468E+03  0.23591487337E+03  0.35721901736E+03  0.12700000000E+03 0.  0.
   -5000001    1    1    2    0    0  0.20388337547E+03 -0.11938244468E+03  0.16093667235E+03  0.31281018429E+03  0.12700000000E+03 0.  0.
<mgrwt>
<rscale>  0 0.53985922E+03</rscale>
<asrwt>0</asrwt>
<pdfrwt beam="1">  1        2 0.19512690E-01 0.53985922E+03</pdfrwt>
<pdfrwt beam="2">  1       -2 0.76205768E-01 0.53985922E+03</pdfrwt>
<totfact> 0.45500210E+02</totfact>
</mgrwt>
</event>
<event>
 4    1  0.4895160E-005  0.3992825E+03  0.7818608E-02  0.1044028E+00
         -2   -1    0    0    0  501 -0.00000000000E+00  0.00000000000E+00  0.14289188778E+03  0.14289188781E+03  0.25500000000E-02 0.  1.
          2   -1    0    0  501    0  0.00000000000E+00 -0.00000000000E+00 -0.27892850881E+03  0.27892850882E+03  0.25500000000E-02 0. -1.
    5000001    1    1    2    0    0 -0.11552819580E+03 -0.84806827326E+02 -0.83626864757E+01  0.19167132418E+03  0.12700000000E+03 0.  0.
   -5000001    1    1    2    0    0  0.11552819580E+03  0.84806827326E+02 -0.12767393455E+03  0.23014907245E+03  0.12700000000E+03 0.  0.
<mgrwt>
<rscale>  0 0.39928246E+03</rscale>
<asrwt>0</asrwt>
<pdfrwt beam="1">  1        2 0.39846929E-01 0.39928246E+03</pdfrwt>
<pdfrwt beam="2">  1       -2 0.20413127E-01 0.39928246E+03</pdfrwt>
<totfact> 0.26222416E+03</totfact>
</mgrwt>
</event>
<event>
 4    1  0.4895160E-005  0.3829483E+03  0.7818608E-02  0.1049849E+00
         -2   -1    0    0    0  501 -0.00000000000E+00  0.00000000000E+00  0.30177588321E+02  0.30177588429E+02  0.25500000000E-02 0. -1.
          2   -1    0    0  501    0  0.00000000000E+00 -0.00000000000E+00 -0.12148864301E+04  0.12148864301E+04  0.25500000000E-02 0.  1.
    5000001    1    1    2    0    0 -0.64472893570E+02  0.11585402930E+03 -0.76907560686E+03  0.79068653661E+03  0.12700000000E+03 0.  0.
   -5000001    1    1    2    0    0  0.64472893570E+02 -0.11585402930E+03 -0.41563323494E+03  0.45437748194E+03  0.12700000000E+03 0.  0.
<mgrwt>
<rscale>  0 0.38294826E+03</rscale>
<asrwt>0</asrwt>
<pdfrwt beam="1">  1        2 0.17355517E+00 0.38294826E+03</pdfrwt>
<pdfrwt beam="2">  1       -2 0.43110848E-02 0.38294826E+03</pdfrwt>
<totfact> 0.54255226E+03</totfact>
</mgrwt>
</event>
<event>
 4    1  0.4895160E-005  0.6978497E+03  0.7818608E-02  0.9720917E-01
         -2   -1    0    0    0  501 -0.00000000000E+00  0.00000000000E+00  0.35066189599E+02  0.35066189691E+02  0.25500000000E-02 0. -1.
          2   -1    0    0  501    0  0.00000000000E+00 -0.00000000000E+00 -0.34719638118E+04  0.34719638118E+04  0.25500000000E-02 0.  1.
    5000001    1    1    2    0    0 -0.16324761312E+03  0.22060693807E+03 -0.84363493133E+03  0.89619534795E+03  0.12700000000E+03 0.  0.
   -5000001    1    1    2    0    0  0.16324761312E+03 -0.22060693807E+03 -0.25932626909E+04  0.26108346536E+04  0.12700000000E+03 0.  0.
<mgrwt>
<rscale>  0 0.69784967E+03</rscale>
<asrwt>0</asrwt>
<pdfrwt beam="1">  1        2 0.49599461E+00 0.69784967E+03</pdfrwt>
<pdfrwt beam="2">  1       -2 0.50094579E-02 0.69784967E+03</pdfrwt>
<totfact> 0.27574674E+02</totfact>
</mgrwt>
</event>
<event>
 4    1  0.4895160E-005  0.3618154E+03  0.7818608E-02  0.1057867E+00
          2   -1    0    0  501    0  0.00000000000E+00  0.00000000000E+00  0.85502974364E+03  0.85502974364E+03  0.25500000000E-02 0.  1.
         -2   -1    0    0    0  501 -0.00000000000E+00 -0.00000000000E+00 -0.38276567297E+02  0.38276567382E+02  0.25500000000E-02 0. -1.
    5000001    1    1    2    0    0  0.12203957128E+03 -0.21320397070E+02  0.49568087644E+03  0.52647578060E+03  0.12700000000E+03 0.  0.
   -5000001    1    1    2    0    0 -0.12203957128E+03  0.21320397070E+02  0.32107229990E+03  0.36683053042E+03  0.12700000000E+03 0.  0.
<mgrwt>
<rscale>  0 0.36181544E+03</rscale>
<asrwt>0</asrwt>
<pdfrwt beam="1">  1        2 0.12214709E+00 0.36181544E+03</pdfrwt>
<pdfrwt beam="2">  1       -2 0.54680818E-02 0.36181544E+03</pdfrwt>
<totfact> 0.61510481E+03</totfact>
</mgrwt>
</event>
<event>
 4    1  0.4895160E-005  0.2988543E+03  0.7818608E-02  0.1085815E+00
         -2   -1    0    0    0  501 -0.00000000000E+00  0.00000000000E+00  0.66913097157E+02  0.66913097206E+02  0.25500000000E-02 0. -1.
          2   -1    0    0  501    0  0.00000000000E+00 -0.00000000000E+00 -0.33369359118E+03  0.33369359119E+03  0.25500000000E-02 0.  1.
    5000001    1    1    2    0    0 -0.33400332601E+02 -0.71016983587E+02 -0.12486188419E+03  0.19462395613E+03  0.12700000000E+03 0.  0.
   -5000001    1    1    2    0    0  0.33400332601E+02  0.71016983587E+02 -0.14191860983E+03  0.20598273227E+03  0.12700000000E+03 0.  0.
<mgrwt>
<rscale>  0 0.29885429E+03</rscale>
<asrwt>0</asrwt>
<pdfrwt beam="1">  1        2 0.47670512E-01 0.29885429E+03</pdfrwt>
<pdfrwt beam="2">  1       -2 0.95590141E-02 0.29885429E+03</pdfrwt>
<totfact> 0.75040644E+03</totfact>
</mgrwt>
</event>
<event>
 4    1  0.4895160E-005  0.3443357E+03  0.7818608E-02  0.1064964E+00
          2   -1    0    0  501    0  0.00000000000E+00  0.00000000000E+00  0.85288817639E+03  0.85288817640E+03  0.25500000000E-02 0.  1.
         -2   -1    0    0    0  501 -0.00000000000E+00 -0.00000000000E+00 -0.34754575481E+02  0.34754575574E+02  0.25500000000E-02 0. -1.
    5000001    1    1    2    0    0 -0.37099811892E+02 -0.90339193476E+02  0.24653599023E+03  0.29401795932E+03  0.12700000000E+03 0.  0.
   -5000001    1    1    2    0    0  0.37099811892E+02  0.90339193476E+02  0.57159761068E+03  0.59362479266E+03  0.12700000000E+03 0.  0.
<mgrwt>
<rscale>  0 0.34433569E+03</rscale>
<asrwt>0</asrwt>
<pdfrwt beam="1">  1        2 0.12184117E+00 0.34433569E+03</pdfrwt>
<pdfrwt beam="2">  1       -2 0.49649395E-02 0.34433569E+03</pdfrwt>
<totfact> 0.71474123E+03</totfact>
</mgrwt>
</event>
<event>
 4    1  0.4895160E-005  0.6519807E+03  0.7818608E-02  0.9803070E-01
         -2   -1    0    0    0  501 -0.00000000000E+00  0.00000000000E+00  0.13057443982E+03  0.13057443984E+03  0.25500000000E-02 0. -1.
          2   -1    0    0  501    0  0.00000000000E+00 -0.00000000000E+00 -0.81386302291E+03  0.81386302292E+03  0.25500000000E-02 0.  1.
    5000001    1    1    2    0    0  0.29617881840E+03  0.45700234257E+02 -0.31531763716E+03  0.45317172924E+03  0.12700000000E+03 0.  0.
   -5000001    1    1    2    0    0 -0.29617881840E+03 -0.45700234257E+02 -0.36797094593E+03  0.49126573352E+03  0.12700000000E+03 0.  0.
<mgrwt>
<rscale>  0 0.65198070E+03</rscale>
<asrwt>0</asrwt>
<pdfrwt beam="1">  1        2 0.11626614E+00 0.65198070E+03</pdfrwt>
<pdfrwt beam="2">  1       -2 0.18653492E-01 0.65198070E+03</pdfrwt>
<totfact> 0.89882539E+02</totfact>
</mgrwt>
</event>
<event>
 4    1  0.4895160E-005  0.3288572E+03  0.7818608E-02  0.1071644E+00
          2   -1    0    0  501    0  0.00000000000E+00  0.00000000000E+00  0.73583821980E+03  0.73583821981E+03  0.25500000000E-02 0.  1.
         -2   -1    0    0    0  501 -0.00000000000E+00 -0.00000000000E+00 -0.36742814608E+02  0.36742814696E+02  0.25500000000E-02 0. -1.
    5000001    1    1    2    0    0 -0.83608626491E+02 -0.59630695401E+02  0.30487750361E+03  0.34586921584E+03  0.12700000000E+03 0.  0.
   -5000001    1    1    2    0    0  0.83608626491E+02  0.59630695401E+02  0.39421790158E+03  0.42671181866E+03  0.12700000000E+03 0.  0.
<mgrwt>
<rscale>  0 0.32885722E+03</rscale>
<asrwt>0</asrwt>
<pdfrwt beam="1">  1        2 0.10511973E+00 0.32885722E+03</pdfrwt>
<pdfrwt beam="2">  1       -2 0.52489741E-02 0.32885722E+03</pdfrwt>
<totfact> 0.78794214E+03</totfact>
</mgrwt>
</event>
<event>
 4    1  0.4895160E-005  0.3788091E+03  0.7818608E-02  0.1051375E+00
         -2   -1    0    0    0  501 -0.00000000000E+00  0.00000000000E+00  0.97344141697E+02  0.97344141730E+02  0.25500000000E-02 0. -1.
          2   -1    0    0  501    0  0.00000000000E+00 -0.00000000000E+00 -0.36852833629E+03  0.36852833630E+03  0.25500000000E-02 0.  1.
    5000001    1    1    2    0    0  0.17322242564E+02 -0.23912284906E+02 -0.30454656248E+03  0.33128456978E+03  0.12700000000E+03 0.  0.
   -5000001    1    1    2    0    0 -0.17322242564E+02  0.23912284906E+02  0.33362367882E+02  0.13458790825E+03  0.12700000000E+03 0.  0.
<mgrwt>
<rscale>  0 0.37880905E+03</rscale>
<asrwt>0</asrwt>
<pdfrwt beam="1">  1        2 0.52646904E-01 0.37880905E+03</pdfrwt>
<pdfrwt beam="2">  1       -2 0.13906306E-01 0.37880905E+03</pdfrwt>
<totfact> 0.36985233E+03</totfact>
</mgrwt>
</event>
<event>
 4    1  0.4895160E-005  0.2995958E+03  0.7818608E-02  0.1085443E+00
         -2   -1    0    0    0  501 -0.00000000000E+00  0.00000000000E+00  0.20953847741E+02  0.20953847896E+02  0.25500000000E-02 0. -1.
          2   -1    0    0  501    0  0.00000000000E+00 -0.00000000000E+00 -0.10708965923E+04  0.10708965923E+04  0.25500000000E-02 0.  1.
    5000001    1    1    2    0    0  0.32256125496E+02  0.72449191905E+02 -0.54169648019E+03  0.56200838045E+03  0.12700000000E+03 0.  0.
   -5000001    1    1    2    0    0 -0.32256125496E+02 -0.72449191905E+02 -0.50824626436E+03  0.52984205975E+03  0.12700000000E+03 0.  0.
<mgrwt>
<rscale>  0 0.29959576E+03</rscale>
<asrwt>0</asrwt>
<pdfrwt beam="1">  1        2 0.15298519E+00 0.29959576E+03</pdfrwt>
<pdfrwt beam="2">  1       -2 0.29934075E-02 0.29959576E+03</pdfrwt>
<totfact> 0.11259080E+04</totfact>
</mgrwt>
</event>
<event>
 4    1  0.4895160E-005  0.4530749E+03  0.7818608E-02  0.1026809E+00
         -2   -1    0    0    0  501 -0.00000000000E+00  0.00000000000E+00  0.61962518373E+02  0.61962518426E+02  0.25500000000E-02 0. -1.
          2   -1    0    0  501    0  0.00000000000E+00 -0.00000000000E+00 -0.82822983745E+03  0.82822983746E+03  0.25500000000E-02 0.  1.
    5000001    1    1    2    0    0  0.16614583999E+03  0.67192821572E+02 -0.27425416193E+03  0.35137396140E+03  0.12700000000E+03 0.  0.
   -5000001    1    1    2    0    0 -0.16614583999E+03 -0.67192821572E+02 -0.49201315715E+03  0.53881839448E+03  0.12700000000E+03 0.  0.
<mgrwt>
<rscale>  0 0.45307486E+03</rscale>
<asrwt>0</asrwt>
<pdfrwt beam="1">  1        2 0.11831854E+00 0.45307486E+03</pdfrwt>
<pdfrwt beam="2">  1       -2 0.88517888E-02 0.45307486E+03</pdfrwt>
<totfact> 0.30246907E+03</totfact>
</mgrwt>
</event>
<event>
 4    1  0.4895160E-005  0.4376746E+03  0.7818608E-02  0.1031463E+00
          2   -1    0    0  501    0  0.00000000000E+00  0.00000000000E+00  0.20537532693E+03  0.20537532695E+03  0.25500000000E-02 0.  1.
         -2   -1    0    0    0  501 -0.00000000000E+00 -0.00000000000E+00 -0.23318166510E+03  0.23318166512E+03  0.25500000000E-02 0. -1.
    5000001    1    1    2    0    0 -0.16375665992E+03  0.18590866565E+02 -0.81855058783E+02  0.22358692859E+03  0.12700000000E+03 0.  0.
   -5000001    1    1    2    0    0  0.16375665992E+03 -0.18590866565E+02  0.54048720610E+02  0.21497006347E+03  0.12700000000E+03 0.  0.
<mgrwt>
<rscale>  0 0.43767459E+03</rscale>
<asrwt>0</asrwt>
<pdfrwt beam="1">  1        2 0.29339333E-01 0.43767459E+03</pdfrwt>
<pdfrwt beam="2">  1       -2 0.33311666E-01 0.43767459E+03</pdfrwt>
<totfact> 0.15276795E+03</totfact>
</mgrwt>
</event>
<event>
 4    1  0.4895160E-005  0.1197739E+04  0.7818608E-02  0.9114838E-01
         -2   -1    0    0    0  501 -0.00000000000E+00  0.00000000000E+00  0.35406566230E+03  0.35406566231E+03  0.25500000000E-02 0. -1.
          2   -1    0    0  501    0  0.00000000000E+00 -0.00000000000E+00 -0.10129332572E+04  0.10129332572E+04  0.25500000000E-02 0.  1.
    5000001    1    1    2    0    0  0.23625803097E+03  0.20644626728E+02 -0.94008773234E+03  0.97782309356E+03  0.12700000000E+03 0.  0.
   -5000001    1    1    2    0    0 -0.23625803097E+03 -0.20644626728E+02  0.28122013744E+03  0.38917582596E+03  0.12700000000E+03 0.  0.
<mgrwt>
<rscale>  0 0.11977393E+04</rscale>
<asrwt>0</asrwt>
<pdfrwt beam="1">  1        2 0.14470475E+00 0.11977393E+04</pdfrwt>
<pdfrwt beam="2">  1       -2 0.50580809E-01 0.11977393E+04</pdfrwt>
<totfact> 0.10058174E+02</totfact>
</mgrwt>
</event>
<event>
 4    1  0.4895160E-005  0.2933929E+03  0.7818608E-02  0.1088591E+00
         -2   -1    0    0    0  501 -0.00000000000E+00  0.00000000000E+00  0.11104345963E+02  0.11104346256E+02  0.25500000000E-02 0. -1.
          2   -1    0    0  501    0  0.00000000000E+00 -0.00000000000E+00 -0.19379662688E+04  0.19379662688E+04  0.25500000000E-02 0.  1.
    5000001    1    1    2    0    0  0.13606771437E+02 -0.72050902580E+02 -0.93824679081E+03  0.94963809804E+03  0.12700000000E+03 0.  0.
   -5000001    1    1    2    0    0 -0.13606771437E+02  0.72050902580E+02 -0.98861513206E+03  0.99943251704E+03  0.12700000000E+03 0.  0.
<mgrwt>
<rscale>  0 0.29339290E+03</rscale>
<asrwt>0</asrwt>
<pdfrwt beam="1">  1        2 0.27685211E+00 0.29339290E+03</pdfrwt>
<pdfrwt beam="2">  1       -2 0.15863364E-02 0.29339290E+03</pdfrwt>
<totfact> 0.10307291E+04</totfact>
</mgrwt>
</event>
<event>
 4    1  0.4895160E-005  0.4538764E+03  0.7818608E-02  0.1026572E+00
          2   -1    0    0  501    0  0.00000000000E+00  0.00000000000E+00  0.15613276342E+04  0.15613276342E+04  0.25500000000E-02 0.  1.
         -2   -1    0    0    0  501 -0.00000000000E+00 -0.00000000000E+00 -0.32985348116E+02  0.32985348215E+02  0.25500000000E-02 0. -1.
    5000001    1    1    2    0    0 -0.18722887155E+03 -0.70666829750E+01  0.82160578317E+03  0.85221455707E+03  0.12700000000E+03 0.  0.
   -5000001    1    1    2    0    0  0.18722887155E+03  0.70666829750E+01  0.70673650294E+03  0.74209842537E+03  0.12700000000E+03 0.  0.
<mgrwt>
<rscale>  0 0.45387635E+03</rscale>
<asrwt>0</asrwt>
<pdfrwt beam="1">  1        2 0.22304678E+00 0.45387635E+03</pdfrwt>
<pdfrwt beam="2">  1       -2 0.47121931E-02 0.45387635E+03</pdfrwt>
<totfact> 0.31130115E+03</totfact>
</mgrwt>
</event>
<event>
 4    1  0.4895160E-005  0.3916452E+03  0.7818608E-02  0.1046712E+00
          2   -1    0    0  501    0  0.00000000000E+00  0.00000000000E+00  0.95392565857E+03  0.95392565857E+03  0.25500000000E-02 0.  1.
         -2   -1    0    0    0  501 -0.00000000000E+00 -0.00000000000E+00 -0.40198609107E+02  0.40198609188E+02  0.25500000000E-02 0. -1.
    5000001    1    1    2    0    0 -0.91225798912E+02  0.10827682311E+03  0.33857990465E+03  0.38834439438E+03  0.12700000000E+03 0.  0.
   -5000001    1    1    2    0    0  0.91225798912E+02 -0.10827682311E+03  0.57514714481E+03  0.60577987338E+03  0.12700000000E+03 0.  0.
<mgrwt>
<rscale>  0 0.39164517E+03</rscale>
<asrwt>0</asrwt>
<pdfrwt beam="1">  1        2 0.13627507E+00 0.39164517E+03</pdfrwt>
<pdfrwt beam="2">  1       -2 0.57426596E-02 0.39164517E+03</pdfrwt>
<totfact> 0.49455141E+03</totfact>
</mgrwt>
</event>
<event>
 4    1  0.4895160E-005  0.3341408E+03  0.7818608E-02  0.1069319E+00
         -2   -1    0    0    0  501 -0.00000000000E+00  0.00000000000E+00  0.59533104625E+02  0.59533104679E+02  0.25500000000E-02 0. -1.
          2   -1    0    0  501    0  0.00000000000E+00 -0.00000000000E+00 -0.46885695583E+03  0.46885695584E+03  0.25500000000E-02 0.  1.
    5000001    1    1    2    0    0 -0.66748291853E+02 -0.81853508208E+02 -0.24429583262E+03  0.29489792320E+03  0.12700000000E+03 0.  0.
   -5000001    1    1    2    0    0  0.66748291853E+02  0.81853508208E+02 -0.16502801859E+03  0.23349213732E+03  0.12700000000E+03 0.  0.
<mgrwt>
<rscale>  0 0.33414075E+03</rscale>
<asrwt>0</asrwt>
<pdfrwt beam="1">  1        2 0.66979563E-01 0.33414075E+03</pdfrwt>
<pdfrwt beam="2">  1       -2 0.85047295E-02 0.33414075E+03</pdfrwt>
<totfact> 0.62578555E+03</totfact>
</mgrwt>
</event>
<event>
 4    1  0.4895160E-005  0.5142714E+03  0.7818608E-02  0.1010120E+00
         -2   -1    0    0    0  501 -0.00000000000E+00  0.00000000000E+00  0.15297939497E+03  0.15297939499E+03  0.25500000000E-02 0. -1.
          2   -1    0    0  501    0  0.00000000000E+00 -0.00000000000E+00 -0.43220699059E+03  0.43220699060E+03  0.25500000000E-02 0.  1.
    5000001    1    1    2    0    0  0.19216846248E+03 -0.11242877063E+03 -0.11627122358E+03  0.28145504769E+03  0.12700000000E+03 0.  0.
   -5000001    1    1    2    0    0 -0.19216846248E+03  0.11242877063E+03 -0.16295637203E+03  0.30373133790E+03  0.12700000000E+03 0.  0.
<mgrwt>
<rscale>  0 0.51427138E+03</rscale>
<asrwt>0</asrwt>
<pdfrwt beam="1">  1        2 0.61743855E-01 0.51427138E+03</pdfrwt>
<pdfrwt beam="2">  1       -2 0.21854199E-01 0.51427138E+03</pdfrwt>
<totfact> 0.14430007E+03</totfact>
</mgrwt>
</event>
<event>
 4    1  0.4895160E-005  0.5529546E+03  0.7818608E-02  0.1000812E+00
          2   -1    0    0  501    0  0.00000000000E+00  0.00000000000E+00  0.11169160798E+04  0.11169160798E+04  0.25500000000E-02 0.  1.
         -2   -1    0    0    0  501 -0.00000000000E+00 -0.00000000000E+00 -0.68438170936E+02  0.68438170984E+02  0.25500000000E-02 0. -1.
    5000001    1    1    2    0    0  0.13068839273E+03 -0.11841958215E+03  0.15787738927E+03  0.26862040777E+03  0.12700000000E+03 0.  0.
   -5000001    1    1    2    0    0 -0.13068839273E+03  0.11841958215E+03  0.89060051958E+03  0.91673384300E+03  0.12700000000E+03 0.  0.
<mgrwt>
<rscale>  0 0.55295459E+03</rscale>
<asrwt>0</asrwt>
<pdfrwt beam="1">  1        2 0.15955944E+00 0.55295459E+03</pdfrwt>
<pdfrwt beam="2">  1       -2 0.97768814E-02 0.55295459E+03</pdfrwt>
<totfact> 0.17103727E+03</totfact>
</mgrwt>
</event>
<event>
 4    1  0.4895160E-005  0.4440722E+03  0.7818608E-02  0.1029505E+00
         -2   -1    0    0    0  501 -0.00000000000E+00  0.00000000000E+00  0.38751097258E+02  0.38751097342E+02  0.25500000000E-02 0. -1.
          2   -1    0    0  501    0  0.00000000000E+00 -0.00000000000E+00 -0.12722225677E+04  0.12722225677E+04  0.25500000000E-02 0.  1.
    5000001    1    1    2    0    0 -0.16827379790E+03  0.31819710300E+02 -0.43373836676E+03  0.48330790996E+03  0.12700000000E+03 0.  0.
   -5000001    1    1    2    0    0  0.16827379790E+03 -0.31819710300E+02 -0.79973310367E+03  0.82766575507E+03  0.12700000000E+03 0.  0.
<mgrwt>
<rscale>  0 0.44407216E+03</rscale>
<asrwt>0</asrwt>
<pdfrwt beam="1">  1        2 0.18174605E+00 0.44407216E+03</pdfrwt>
<pdfrwt beam="2">  1       -2 0.55358719E-02 0.44407216E+03</pdfrwt>
<totfact> 0.34427039E+03</totfact>
</mgrwt>
</event>
<event>
 4    1  0.4895160E-005  0.3163723E+03  0.7818608E-02  0.1077331E+00
          2   -1    0    0  501    0  0.00000000000E+00  0.00000000000E+00  0.15578265129E+03  0.15578265131E+03  0.25500000000E-02 0.  1.
         -2   -1    0    0    0  501 -0.00000000000E+00 -0.00000000000E+00 -0.16062669902E+03  0.16062669904E+03  0.25500000000E-02 0. -1.
    5000001    1    1    2    0    0 -0.89337173406E+02 -0.23046577972E+02 -0.21958328385E+02  0.15850376492E+03  0.12700000000E+03 0.  0.
   -5000001    1    1    2    0    0  0.89337173406E+02  0.23046577972E+02  0.17114280652E+02  0.15790558543E+03  0.12700000000E+03 0.  0.
<mgrwt>
<rscale>  0 0.31637227E+03</rscale>
<asrwt>0</asrwt>
<pdfrwt beam="1">  1        2 0.22254665E-01 0.31637227E+03</pdfrwt>
<pdfrwt beam="2">  1       -2 0.22946671E-01 0.31637227E+03</pdfrwt>
<totfact> 0.40629690E+03</totfact>
</mgrwt>
</event>
<event>
 4    1  0.4895160E-005  0.2822003E+03  0.7818608E-02  0.1094493E+00
          2   -1    0    0  501    0  0.00000000000E+00  0.00000000000E+00  0.16172297167E+04  0.16172297167E+04  0.25500000000E-02 0.  1.
         -2   -1    0    0    0  501 -0.00000000000E+00 -0.00000000000E+00 -0.12310710559E+02  0.12310710823E+02  0.25500000000E-02 0. -1.
    5000001    1    1    2    0    0  0.78043848752E+01 -0.60981752882E+02  0.80679822965E+03  0.81904338467E+03  0.12700000000E+03 0.  0.
   -5000001    1    1    2    0    0 -0.78043848752E+01  0.60981752882E+02  0.79812077652E+03  0.81049704288E+03  0.12700000000E+03 0.  0.
<mgrwt>
<rscale>  0 0.28220026E+03</rscale>
<asrwt>0</asrwt>
<pdfrwt beam="1">  1        2 0.23103256E+00 0.28220026E+03</pdfrwt>
<pdfrwt beam="2">  1       -2 0.17586749E-02 0.28220026E+03</pdfrwt>
<totfact> 0.12731580E+04</totfact>
</mgrwt>
</event>
<event>
 4    1  0.4895160E-005  0.3951891E+03  0.7818608E-02  0.1045458E+00
         -2   -1    0    0    0  501 -0.00000000000E+00  0.00000000000E+00  0.67354133987E+02  0.67354134036E+02  0.25500000000E-02 0. -1.
          2   -1    0    0  501    0  0.00000000000E+00 -0.00000000000E+00 -0.57967645695E+03  0.57967645696E+03  0.25500000000E-02 0.  1.
    5000001    1    1    2    0    0 -0.96207906626E+01  0.14422637470E+03 -0.32976177215E+03  0.38179265727E+03  0.12700000000E+03 0.  0.
   -5000001    1    1    2    0    0  0.96207906626E+01 -0.14422637470E+03 -0.18256055082E+03  0.26523793373E+03  0.12700000000E+03 0.  0.
<mgrwt>
<rscale>  0 0.39518910E+03</rscale>
<asrwt>0</asrwt>
<pdfrwt beam="1">  1        2 0.82810919E-01 0.39518910E+03</pdfrwt>
<pdfrwt beam="2">  1       -2 0.96220195E-02 0.39518910E+03</pdfrwt>
<totfact> 0.40666850E+03</totfact>
</mgrwt>
</event>
<event>
 4    1  0.4895160E-005  0.3628860E+03  0.7818608E-02  0.1057447E+00
         -2   -1    0    0    0  501 -0.00000000000E+00  0.00000000000E+00  0.10344709136E+03  0.10344709139E+03  0.25500000000E-02 0. -1.
          2   -1    0    0  501    0  0.00000000000E+00 -0.00000000000E+00 -0.31824548485E+03  0.31824548486E+03  0.25500000000E-02 0.  1.
    5000001    1    1    2    0    0  0.36090008533E+02 -0.11708360965E+03 -0.58351372124E+02  0.18586269931E+03  0.12700000000E+03 0.  0.
   -5000001    1    1    2    0    0 -0.36090008533E+02  0.11708360965E+03 -0.15644702136E+03  0.23582987694E+03  0.12700000000E+03 0.  0.
<mgrwt>
<rscale>  0 0.36288604E+03</rscale>
<asrwt>0</asrwt>
<pdfrwt beam="1">  1        2 0.45463640E-01 0.36288604E+03</pdfrwt>
<pdfrwt beam="2">  1       -2 0.14778156E-01 0.36288604E+03</pdfrwt>
<totfact> 0.39190653E+03</totfact>
</mgrwt>
</event>
<event>
 4    1  0.4895160E-005  0.4029444E+03  0.7818608E-02  0.1042765E+00
          2   -1    0    0  501    0  0.00000000000E+00  0.00000000000E+00  0.37724872099E+04  0.37724872099E+04  0.25500000000E-02 0.  1.
         -2   -1    0    0    0  501 -0.00000000000E+00 -0.00000000000E+00 -0.10759758591E+02  0.10759758893E+02  0.25500000000E-02 0. -1.
    5000001    1    1    2    0    0 -0.85194857623E+02 -0.81237131203E+02  0.28477222725E+04  0.28529824353E+04  0.12700000000E+03 0.  0.
   -5000001    1    1    2    0    0  0.85194857623E+02  0.81237131203E+02  0.91400517881E+03  0.93026453342E+03  0.12700000000E+03 0.  0.
<mgrwt>
<rscale>  0 0.40294442E+03</rscale>
<asrwt>0</asrwt>
<pdfrwt beam="1">  1        2 0.53892750E+00 0.40294442E+03</pdfrwt>
<pdfrwt beam="2">  1       -2 0.15371062E-02 0.40294442E+03</pdfrwt>
<totfact> 0.11243852E+03</totfact>
</mgrwt>
</event>
<event>
 4    1  0.4895160E-005  0.7446074E+03  0.7818608E-02  0.9643849E-01
         -2   -1    0    0    0  501 -0.00000000000E+00  0.00000000000E+00  0.23031284391E+03  0.23031284393E+03  0.25500000000E-02 0. -1.
          2   -1    0    0  501    0  0.00000000000E+00 -0.00000000000E+00 -0.60183372268E+03  0.60183372268E+03  0.25500000000E-02 0.  1.
    5000001    1    1    2    0    0  0.29647295830E+02  0.19195268028E+03 -0.51111607910E+03  0.56133184475E+03  0.12700000000E+03 0.  0.
   -5000001    1    1    2    0    0 -0.29647295830E+02 -0.19195268028E+03  0.13959520034E+03  0.27081472186E+03  0.12700000000E+03 0.  0.
<mgrwt>
<rscale>  0 0.74460738E+03</rscale>
<asrwt>0</asrwt>
<pdfrwt beam="1">  1        2 0.85976245E-01 0.74460738E+03</pdfrwt>
<pdfrwt beam="2">  1       -2 0.32901835E-01 0.74460738E+03</pdfrwt>
<totfact> 0.46802217E+02</totfact>
</mgrwt>
</event>
<event>
 4    1  0.4895160E-005  0.6060112E+03  0.7818608E-02  0.9893013E-01
         -2   -1    0    0    0  501 -0.00000000000E+00  0.00000000000E+00  0.22974677932E+03  0.22974677933E+03  0.25500000000E-02 0. -1.
          2   -1    0    0  501    0  0.00000000000E+00 -0.00000000000E+00 -0.39962431447E+03  0.39962431448E+03  0.25500000000E-02 0.  1.
    5000001    1    1    2    0    0  0.24667548590E+02 -0.23846293091E+03 -0.22508621032E+03  0.35251363016E+03  0.12700000000E+03 0.  0.
   -5000001    1    1    2    0    0 -0.24667548590E+02  0.23846293091E+03  0.55208675164E+02  0.27685746366E+03  0.12700000000E+03 0.  0.
<mgrwt>
<rscale>  0 0.60601122E+03</rscale>
<asrwt>0</asrwt>
<pdfrwt beam="1">  1        2 0.57089188E-01 0.60601122E+03</pdfrwt>
<pdfrwt beam="2">  1       -2 0.32820968E-01 0.60601122E+03</pdfrwt>
<totfact> 0.75280728E+02</totfact>
</mgrwt>
</event>
<event>
 4    1  0.4895160E-005  0.5311311E+03  0.7818608E-02  0.1005958E+00
          2   -1    0    0  501    0  0.00000000000E+00  0.00000000000E+00  0.50406943790E+02  0.50406943854E+02  0.25500000000E-02 0.  1.
         -2   -1    0    0    0  501 -0.00000000000E+00 -0.00000000000E+00 -0.13991137999E+04  0.13991137999E+04  0.25500000000E-02 0. -1.
    5000001    1    1    2    0    0 -0.16250816825E+03 -0.15062943048E+03 -0.47570942439E+03  0.53993202028E+03  0.12700000000E+03 0.  0.
   -5000001    1    1    2    0    0  0.16250816825E+03  0.15062943048E+03 -0.87299743169E+03  0.90958872344E+03  0.12700000000E+03 0.  0.
<mgrwt>
<rscale>  0 0.53113106E+03</rscale>
<asrwt>0</asrwt>
<pdfrwt beam="1">  1        2 0.72009928E-02 0.53113106E+03</pdfrwt>
<pdfrwt beam="2">  1       -2 0.19987338E+00 0.53113106E+03</pdfrwt>
<totfact> 0.13925818E+02</totfact>
</mgrwt>
</event>
<event>
 4    1  0.4895160E-005  0.3646932E+03  0.7818608E-02  0.1056741E+00
         -2   -1    0    0    0  501 -0.00000000000E+00  0.00000000000E+00  0.67903791043E+02  0.67903791091E+02  0.25500000000E-02 0. -1.
          2   -1    0    0  501    0  0.00000000000E+00 -0.00000000000E+00 -0.48966741058E+03  0.48966741058E+03  0.25500000000E-02 0.  1.
    5000001    1    1    2    0    0 -0.75901597757E+02  0.95457191117E+02 -0.28337295339E+03  0.33362008122E+03  0.12700000000E+03 0.  0.
   -5000001    1    1    2    0    0  0.75901597757E+02 -0.95457191117E+02 -0.13839066614E+03  0.22395112046E+03  0.12700000000E+03 0.  0.
<mgrwt>
<rscale>  0 0.36469315E+03</rscale>
<asrwt>0</asrwt>
<pdfrwt beam="1">  1        2 0.69952485E-01 0.36469315E+03</pdfrwt>
<pdfrwt beam="2">  1       -2 0.97005418E-02 0.36469315E+03</pdfrwt>
<totfact> 0.48506053E+03</totfact>
</mgrwt>
</event>
<event>
 4    1  0.4895160E-005  0.6121071E+03  0.7818608E-02  0.9880601E-01
         -2   -1    0    0    0  501 -0.00000000000E+00  0.00000000000E+00  0.10972943304E+03  0.10972943307E+03  0.25500000000E-02 0. -1.
          2   -1    0    0  501    0  0.00000000000E+00 -0.00000000000E+00 -0.85363396729E+03  0.85363396729E+03  0.25500000000E-02 0.  1.
    5000001    1    1    2    0    0  0.17486441666E+03 -0.21665178418E+03 -0.36420812583E+03  0.47570171192E+03  0.12700000000E+03 0.  0.
   -5000001    1    1    2    0    0 -0.17486441666E+03  0.21665178418E+03 -0.37969640842E+03  0.48766168844E+03  0.12700000000E+03 0.  0.
<mgrwt>
<rscale>  0 0.61210709E+03</rscale>
<asrwt>0</asrwt>
<pdfrwt beam="1">  1        2 0.12194771E+00 0.61210709E+03</pdfrwt>
<pdfrwt beam="2">  1       -2 0.15675634E-01 0.61210709E+03</pdfrwt>
<totfact> 0.11383533E+03</totfact>
</mgrwt>
</event>
<event>
 4    1  0.4895160E-005  0.4539148E+03  0.7818608E-02  0.1026561E+00
          2   -1    0    0  501    0  0.00000000000E+00  0.00000000000E+00  0.33016816264E+03  0.33016816264E+03  0.25500000000E-02 0.  1.
         -2   -1    0    0    0  501 -0.00000000000E+00 -0.00000000000E+00 -0.15601041697E+03  0.15601041699E+03  0.25500000000E-02 0. -1.
    5000001    1    1    2    0    0  0.15172394959E+03  0.10907798264E+03  0.11011353161E+03  0.25134071103E+03  0.12700000000E+03 0.  0.
   -5000001    1    1    2    0    0 -0.15172394959E+03 -0.10907798264E+03  0.64044214059E+02  0.23483786861E+03  0.12700000000E+03 0.  0.
<mgrwt>
<rscale>  0 0.45391485E+03</rscale>
<asrwt>0</asrwt>
<pdfrwt beam="1">  1        2 0.47166880E-01 0.45391485E+03</pdfrwt>
<pdfrwt beam="2">  1       -2 0.22287202E-01 0.45391485E+03</pdfrwt>
<totfact> 0.18744145E+03</totfact>
</mgrwt>
</event>
<event>
 4    1  0.4895160E-005  0.3251033E+03  0.7818608E-02  0.1073324E+00
          2   -1    0    0  501    0  0.00000000000E+00  0.00000000000E+00  0.89495868975E+03  0.89495868975E+03  0.25500000000E-02 0.  1.
         -2   -1    0    0    0  501 -0.00000000000E+00 -0.00000000000E+00 -0.29524315739E+02  0.29524315849E+02  0.25500000000E-02 0. -1.
    5000001    1    1    2    0    0  0.78621078047E+02 -0.36599234603E+00  0.25035381638E+03  0.29152605585E+03  0.12700000000E+03 0.  0.
   -5000001    1    1    2    0    0 -0.78621078047E+02  0.36599234603E+00  0.61508055763E+03  0.63295694975E+03  0.12700000000E+03 0.  0.
<mgrwt>
<rscale>  0 0.32510333E+03</rscale>
<asrwt>0</asrwt>
<pdfrwt beam="1">  1        2 0.12785124E+00 0.32510333E+03</pdfrwt>
<pdfrwt beam="2">  1       -2 0.42177596E-02 0.32510333E+03</pdfrwt>
<totfact> 0.85957117E+03</totfact>
</mgrwt>
</event>
<event>
 4    1  0.4895160E-005  0.7973465E+03  0.7818608E-02  0.9563866E-01
         -2   -1    0    0    0  501 -0.00000000000E+00  0.00000000000E+00  0.10296107861E+03  0.10296107864E+03  0.25500000000E-02 0. -1.
          2   -1    0    0  501    0  0.00000000000E+00 -0.00000000000E+00 -0.15436937860E+04  0.15436937860E+04  0.25500000000E-02 0.  1.
    5000001    1    1    2    0    0  0.12828041409E+03 -0.33778874005E+03 -0.94897853161E+03  0.10233505514E+04  0.12700000000E+03 0.  0.
   -5000001    1    1    2    0    0 -0.12828041409E+03  0.33778874005E+03 -0.49175417579E+03  0.62330431328E+03  0.12700000000E+03 0.  0.
<mgrwt>
<rscale>  0 0.79734654E+03</rscale>
<asrwt>0</asrwt>
<pdfrwt beam="1">  1        2 0.22052767E+00 0.79734654E+03</pdfrwt>
<pdfrwt beam="2">  1       -2 0.14708726E-01 0.79734654E+03</pdfrwt>
<totfact> 0.50592466E+02</totfact>
</mgrwt>
</event>
<event>
 4    1  0.4895160E-005  0.2881904E+03  0.7818608E-02  0.1091298E+00
          2   -1    0    0  501    0  0.00000000000E+00  0.00000000000E+00  0.12439066083E+04  0.12439066083E+04  0.25500000000E-02 0.  1.
         -2   -1    0    0    0  501 -0.00000000000E+00 -0.00000000000E+00 -0.16692106659E+02  0.16692106854E+02  0.25500000000E-02 0. -1.
    5000001    1    1    2    0    0  0.57425120730E+02 -0.34645097347E+02  0.56250321459E+03  0.58054870053E+03  0.12700000000E+03 0.  0.
   -5000001    1    1    2    0    0 -0.57425120730E+02  0.34645097347E+02  0.66471128701E+03  0.68005001459E+03  0.12700000000E+03 0.  0.
<mgrwt>
<rscale>  0 0.28819037E+03</rscale>
<asrwt>0</asrwt>
<pdfrwt beam="1">  1        2 0.17770103E+00 0.28819037E+03</pdfrwt>
<pdfrwt beam="2">  1       -2 0.23845855E-02 0.28819037E+03</pdfrwt>
<totfact> 0.12647972E+04</totfact>
</mgrwt>
</event>
<event>
 4    1  0.4895160E-005  0.3756735E+03  0.7818608E-02  0.1052545E+00
         -2   -1    0    0    0  501 -0.00000000000E+00  0.00000000000E+00  0.25884089966E+02  0.25884090091E+02  0.25500000000E-02 0. -1.
          2   -1    0    0  501    0  0.00000000000E+00 -0.00000000000E+00 -0.13631019005E+04  0.13631019005E+04  0.25500000000E-02 0.  1.
    5000001    1    1    2    0    0 -0.10591965901E+03 -0.13523593007E+02 -0.99413684757E+03  0.10078883537E+04  0.12700000000E+03 0.  0.
   -5000001    1    1    2    0    0  0.10591965901E+03  0.13523593007E+02 -0.34308096296E+03  0.38109763693E+03  0.12700000000E+03 0.  0.
<mgrwt>
<rscale>  0 0.37567354E+03</rscale>
<asrwt>0</asrwt>
<pdfrwt beam="1">  1        2 0.19472880E+00 0.37567354E+03</pdfrwt>
<pdfrwt beam="2">  1       -2 0.36977280E-02 0.37567354E+03</pdfrwt>
<totfact> 0.57028246E+03</totfact>
</mgrwt>
</event>
<event>
 4    1  0.4895160E-005  0.2630278E+03  0.7818608E-02  0.1105338E+00
          2   -1    0    0  501    0  0.00000000000E+00  0.00000000000E+00  0.91144765261E+02  0.91144765297E+02  0.25500000000E-02 0.  1.
         -2   -1    0    0    0  501 -0.00000000000E+00 -0.00000000000E+00 -0.18976309123E+03  0.18976309125E+03  0.25500000000E-02 0. -1.
    5000001    1    1    2    0    0  0.11088709990E+02 -0.26699484893E+02 -0.29876359197E+02  0.13363165352E+03  0.12700000000E+03 0.  0.
   -5000001    1    1    2    0    0 -0.11088709990E+02  0.26699484893E+02 -0.68741966774E+02  0.14727620303E+03  0.12700000000E+03 0.  0.
<mgrwt>
<rscale>  0 0.26302785E+03</rscale>
<asrwt>0</asrwt>
<pdfrwt beam="1">  1        2 0.13020681E-01 0.26302785E+03</pdfrwt>
<pdfrwt beam="2">  1       -2 0.27109013E-01 0.26302785E+03</pdfrwt>
<totfact> 0.56304794E+03</totfact>
</mgrwt>
</event>
<event>
 4    1  0.4895160E-005  0.5327289E+03  0.7818608E-02  0.1005572E+00
          2   -1    0    0  501    0  0.00000000000E+00  0.00000000000E+00  0.10243171338E+04  0.10243171338E+04  0.25500000000E-02 0.  1.
         -2   -1    0    0    0  501 -0.00000000000E+00 -0.00000000000E+00 -0.69265680050E+02  0.69265680097E+02  0.25500000000E-02 0. -1.
    5000001    1    1    2    0    0 -0.88831097082E+02  0.77241248009E+02  0.89300157923E+03  0.90963618811E+03  0.12700000000E+03 0.  0.
   -5000001    1    1    2    0    0  0.88831097082E+02 -0.77241248009E+02  0.62049874476E+02  0.18394662575E+03  0.12700000000E+03 0.  0.
<mgrwt>
<rscale>  0 0.53272891E+03</rscale>
<asrwt>0</asrwt>
<pdfrwt beam="1">  1        2 0.14633101E+00 0.53272891E+03</pdfrwt>
<pdfrwt beam="2">  1       -2 0.98950980E-02 0.53272891E+03</pdfrwt>
<totfact> 0.19017446E+03</totfact>
</mgrwt>
</event>
<event>
 4    1  0.4895160E-005  0.4469309E+03  0.7818608E-02  0.1028641E+00
         -2   -1    0    0    0  501 -0.00000000000E+00  0.00000000000E+00  0.42482681553E+02  0.42482681630E+02  0.25500000000E-02 0. -1.
          2   -1    0    0  501    0  0.00000000000E+00 -0.00000000000E+00 -0.11754624829E+04  0.11754624829E+04  0.25500000000E-02 0.  1.
    5000001    1    1    2    0    0  0.13764791169E+03  0.70259797346E+02 -0.29500868965E+03  0.35643023677E+03  0.12700000000E+03 0.  0.
   -5000001    1    1    2    0    0 -0.13764791169E+03 -0.70259797346E+02 -0.83797111165E+03  0.86151492772E+03  0.12700000000E+03 0.  0.
<mgrwt>
<rscale>  0 0.44693086E+03</rscale>
<asrwt>0</asrwt>
<pdfrwt beam="1">  1        2 0.16792319E+00 0.44693086E+03</pdfrwt>
<pdfrwt beam="2">  1       -2 0.60689553E-02 0.44693086E+03</pdfrwt>
<totfact> 0.33740929E+03</totfact>
</mgrwt>
</event>
<event>
 4    1  0.4895160E-005  0.5181867E+03  0.7818608E-02  0.1009138E+00
         -2   -1    0    0    0  501 -0.00000000000E+00  0.00000000000E+00  0.30723012548E+03  0.30723012549E+03  0.25500000000E-02 0.  1.
          2   -1    0    0  501    0  0.00000000000E+00 -0.00000000000E+00 -0.21849867194E+03  0.21849867196E+03  0.25500000000E-02 0. -1.
    5000001    1    1    2    0    0  0.22363944443E+03  0.27808885465E+02  0.29578293884E+02  0.26036860542E+03  0.12700000000E+03 0.  0.
   -5000001    1    1    2    0    0 -0.22363944443E+03 -0.27808885465E+02  0.59153159658E+02  0.26536019203E+03  0.12700000000E+03 0.  0.
<mgrwt>
<rscale>  0 0.51818674E+03</rscale>
<asrwt>0</asrwt>
<pdfrwt beam="1">  1        2 0.31214096E-01 0.51818674E+03</pdfrwt>
<pdfrwt beam="2">  1       -2 0.43890018E-01 0.51818674E+03</pdfrwt>
<totfact> 0.84074447E+02</totfact>
</mgrwt>
</event>
<event>
 4    1  0.4895160E-005  0.5470587E+03  0.7818608E-02  0.1002177E+00
          2   -1    0    0  501    0  0.00000000000E+00  0.00000000000E+00  0.18908568960E+03  0.18908568962E+03  0.25500000000E-02 0.  1.
         -2   -1    0    0    0  501 -0.00000000000E+00 -0.00000000000E+00 -0.39568462399E+03  0.39568462400E+03  0.25500000000E-02 0. -1.
    5000001    1    1    2    0    0 -0.16023049433E+03  0.18135161814E+03 -0.91249419139E+02  0.28812788343E+03  0.12700000000E+03 0.  0.
   -5000001    1    1    2    0    0  0.16023049433E+03 -0.18135161814E+03 -0.11534951525E+03  0.29664243018E+03  0.12700000000E+03 0.  0.
<mgrwt>
<rscale>  0 0.54705868E+03</rscale>
<asrwt>0</asrwt>
<pdfrwt beam="1">  1        2 0.27012242E-01 0.54705868E+03</pdfrwt>
<pdfrwt beam="2">  1       -2 0.56526374E-01 0.54705868E+03</pdfrwt>
<totfact> 0.59301157E+02</totfact>
</mgrwt>
</event>
<event>
 4    1  0.4895160E-005  0.4497427E+03  0.7818608E-02  0.1027799E+00
         -2   -1    0    0    0  501 -0.00000000000E+00  0.00000000000E+00  0.59957828966E+03  0.59957828967E+03  0.25500000000E-02 0. -1.
          2   -1    0    0  501    0  0.00000000000E+00 -0.00000000000E+00 -0.84337805388E+02  0.84337805427E+02  0.25500000000E-02 0.  1.
    5000001    1    1    2    0    0  0.30167210249E+02 -0.18307877874E+03  0.25275944679E+03  0.33829608000E+03  0.12700000000E+03 0.  0.
   -5000001    1    1    2    0    0 -0.30167210249E+02  0.18307877874E+03  0.26248103748E+03  0.34562001510E+03  0.12700000000E+03 0.  0.
<mgrwt>
<rscale>  0 0.44974267E+03</rscale>
<asrwt>0</asrwt>
<pdfrwt beam="1">  1        2 0.12048258E-01 0.44974267E+03</pdfrwt>
<pdfrwt beam="2">  1       -2 0.85654041E-01 0.44974267E+03</pdfrwt>
<totfact> 0.62611604E+02</totfact>
</mgrwt>
</event>
<event>
 4    1  0.4895160E-005  0.6785775E+03  0.7818608E-02  0.9754585E-01
         -2   -1    0    0    0  501 -0.00000000000E+00  0.00000000000E+00  0.81436255868E+02  0.81436255908E+02  0.25500000000E-02 0. -1.
          2   -1    0    0  501    0  0.00000000000E+00 -0.00000000000E+00 -0.14135825399E+04  0.14135825399E+04  0.25500000000E-02 0.  1.
    5000001    1    1    2    0    0  0.33183677507E+02  0.29023480022E+03 -0.40866573868E+03  0.51814484624E+03  0.12700000000E+03 0.  0.
   -5000001    1    1    2    0    0 -0.33183677507E+02 -0.29023480022E+03 -0.92348054533E+03  0.97687394955E+03  0.12700000000E+03 0.  0.
<mgrwt>
<rscale>  0 0.67857754E+03</rscale>
<asrwt>0</asrwt>
<pdfrwt beam="1">  1        2 0.20194035E+00 0.67857754E+03</pdfrwt>
<pdfrwt beam="2">  1       -2 0.11633752E-01 0.67857754E+03</pdfrwt>
<totfact> 0.88076227E+02</totfact>
</mgrwt>
</event>
<event>
 4    1  0.4895160E-005  0.3937034E+03  0.7818608E-02  0.1045982E+00
          2   -1    0    0  501    0  0.00000000000E+00  0.00000000000E+00  0.51702147068E+04  0.51702147068E+04  0.25500000000E-02 0.  1.
         -2   -1    0    0    0  501 -0.00000000000E+00 -0.00000000000E+00 -0.74949669767E+01  0.74949674105E+01  0.25500000000E-02 0. -1.
    5000001    1    1    2    0    0  0.79883126333E+02 -0.11271433508E+03  0.33633649739E+04  0.33685959661E+04  0.12700000000E+03 0.  0.
   -5000001    1    1    2    0    0 -0.79883126333E+02  0.11271433508E+03  0.17993547659E+04  0.18091137081E+04  0.12700000000E+03 0.  0.
<mgrwt>
<rscale>  0 0.39370339E+03</rscale>
<asrwt>0</asrwt>
<pdfrwt beam="1">  1        2 0.73859991E+00 0.39370339E+03</pdfrwt>
<pdfrwt beam="2">  1       -2 0.10707128E-02 0.39370339E+03</pdfrwt>
<totfact> 0.15760934E+02</totfact>
</mgrwt>
</event>
<event>
 4    1  0.4895160E-005  0.3264185E+03  0.7818608E-02  0.1072733E+00
         -2   -1    0    0    0  501 -0.00000000000E+00  0.00000000000E+00  0.10113277254E+02  0.10113277576E+02  0.25500000000E-02 0. -1.
          2   -1    0    0  501    0  0.00000000000E+00 -0.00000000000E+00 -0.26338906834E+04  0.26338906834E+04  0.25500000000E-02 0.  1.
    5000001    1    1    2    0    0 -0.44527036288E+02  0.96326103093E+01 -0.20557188319E+04  0.20601418301E+04  0.12700000000E+03 0.  0.
   -5000001    1    1    2    0    0  0.44527036288E+02 -0.96326103093E+01 -0.56805857423E+03  0.58386213090E+03  0.12700000000E+03 0.  0.
<mgrwt>
<rscale>  0 0.32641855E+03</rscale>
<asrwt>0</asrwt>
<pdfrwt beam="1">  1        2 0.37626966E+00 0.32641855E+03</pdfrwt>
<pdfrwt beam="2">  1       -2 0.14447556E-02 0.32641855E+03</pdfrwt>
<totfact> 0.53470082E+03</totfact>
</mgrwt>
</event>
<event>
 4    1  0.4895160E-005  0.3845191E+03  0.7818608E-02  0.1049276E+00
          2   -1    0    0  501    0  0.00000000000E+00  0.00000000000E+00  0.94010056647E+03  0.94010056648E+03  0.25500000000E-02 0.  1.
         -2   -1    0    0    0  501 -0.00000000000E+00 -0.00000000000E+00 -0.39318925297E+02  0.39318925380E+02  0.25500000000E-02 0. -1.
    5000001    1    1    2    0    0 -0.91918542349E+02  0.83396642830E+02  0.26268415406E+03  0.31707409743E+03  0.12700000000E+03 0.  0.
   -5000001    1    1    2    0    0  0.91918542349E+02 -0.83396642830E+02  0.63809748711E+03  0.66234539443E+03  0.12700000000E+03 0.  0.
<mgrwt>
<rscale>  0 0.38451915E+03</rscale>
<asrwt>0</asrwt>
<pdfrwt beam="1">  1        2 0.13430008E+00 0.38451915E+03</pdfrwt>
<pdfrwt beam="2">  1       -2 0.56169894E-02 0.38451915E+03</pdfrwt>
<totfact> 0.52173489E+03</totfact>
</mgrwt>
</event>
<event>
 4    1  0.4895160E-005  0.6706520E+03  0.7818608E-02  0.9768781E-01
         -2   -1    0    0    0  501 -0.00000000000E+00  0.00000000000E+00  0.14390441165E+03  0.14390441167E+03  0.25500000000E-02 0. -1.
          2   -1    0    0  501    0  0.00000000000E+00 -0.00000000000E+00 -0.78137653631E+03  0.78137653631E+03  0.25500000000E-02 0.  1.
    5000001    1    1    2    0    0  0.19075585422E+03 -0.22940764381E+03 -0.43660629362E+03  0.54384714634E+03  0.12700000000E+03 0.  0.
   -5000001    1    1    2    0    0 -0.19075585422E+03  0.22940764381E+03 -0.20086583104E+03  0.38143380164E+03  0.12700000000E+03 0.  0.
<mgrwt>
<rscale>  0 0.67065201E+03</rscale>
<asrwt>0</asrwt>
<pdfrwt beam="1">  1        2 0.11162522E+00 0.67065201E+03</pdfrwt>
<pdfrwt beam="2">  1       -2 0.20557774E-01 0.67065201E+03</pdfrwt>
<totfact> 0.79920674E+02</totfact>
</mgrwt>
</event>
<event>
 4    1  0.4895160E-005  0.3941463E+03  0.7818608E-02  0.1045826E+00
         -2   -1    0    0    0  501 -0.00000000000E+00  0.00000000000E+00  0.20957299494E+02  0.20957299650E+02  0.25500000000E-02 0. -1.
          2   -1    0    0  501    0  0.00000000000E+00 -0.00000000000E+00 -0.18531882896E+04  0.18531882896E+04  0.25500000000E-02 0.  1.
    5000001    1    1    2    0    0 -0.11776877008E+03 -0.83652471867E+02 -0.11201689205E+04  0.11365626378E+04  0.12700000000E+03 0.  0.
   -5000001    1    1    2    0    0  0.11776877008E+03  0.83652471867E+02 -0.71206206960E+03  0.73758295141E+03  0.12700000000E+03 0.  0.
<mgrwt>
<rscale>  0 0.39414628E+03</rscale>
<asrwt>0</asrwt>
<pdfrwt beam="1">  1        2 0.26474108E+00 0.39414628E+03</pdfrwt>
<pdfrwt beam="2">  1       -2 0.29939011E-02 0.39414628E+03</pdfrwt>
<totfact> 0.44277344E+03</totfact>
</mgrwt>
</event>
<event>
 4    1  0.4895160E-005  0.4836317E+03  0.7818608E-02  0.1018142E+00
         -2   -1    0    0    0  501 -0.00000000000E+00  0.00000000000E+00  0.14549209687E+03  0.14549209689E+03  0.25500000000E-02 0. -1.
          2   -1    0    0  501    0  0.00000000000E+00 -0.00000000000E+00 -0.40191115059E+03  0.40191115060E+03  0.25500000000E-02 0.  1.
    5000001    1    1    2    0    0  0.91186825071E+02  0.18370913121E+03 -0.14721041962E+03  0.28260217551E+03  0.12700000000E+03 0.  0.
   -5000001    1    1    2    0    0 -0.91186825071E+02 -0.18370913121E+03 -0.10920863410E+03  0.26480107198E+03  0.12700000000E+03 0.  0.
<mgrwt>
<rscale>  0 0.48363166E+03</rscale>
<asrwt>0</asrwt>
<pdfrwt beam="1">  1        2 0.57415878E-01 0.48363166E+03</pdfrwt>
<pdfrwt beam="2">  1       -2 0.20784585E-01 0.48363166E+03</pdfrwt>
<totfact> 0.17071043E+03</totfact>
</mgrwt>
</event>
<event>
 4    1  0.4895160E-005  0.4425914E+03  0.7818608E-02  0.1029955E+00
         -2   -1    0    0    0  501 -0.00000000000E+00  0.00000000000E+00  0.33108538961E+03  0.33108538962E+03  0.25500000000E-02 0. -1.
          2   -1    0    0  501    0  0.00000000000E+00 -0.00000000000E+00 -0.14791285762E+03  0.14791285764E+03  0.25500000000E-02 0.  1.
    5000001    1    1    2    0    0 -0.60759600566E+02  0.16430117467E+03  0.14184060535E+03  0.25871676093E+03  0.12700000000E+03 0.  0.
   -5000001    1    1    2    0    0  0.60759600566E+02 -0.16430117467E+03  0.41331926634E+02  0.22028148633E+03  0.12700000000E+03 0.  0.
<mgrwt>
<rscale>  0 0.44259140E+03</rscale>
<asrwt>0</asrwt>
<pdfrwt beam="1">  1        2 0.21130408E-01 0.44259140E+03</pdfrwt>
<pdfrwt beam="2">  1       -2 0.47297913E-01 0.44259140E+03</pdfrwt>
<totfact> 0.11279777E+03</totfact>
</mgrwt>
</event>
<event>
 4    1  0.4895160E-005  0.3547209E+03  0.7818608E-02  0.1060694E+00
          2   -1    0    0  501    0  0.00000000000E+00  0.00000000000E+00  0.11278802735E+03  0.11278802738E+03  0.25500000000E-02 0.  1.
         -2   -1    0    0    0  501 -0.00000000000E+00 -0.00000000000E+00 -0.27890124520E+03  0.27890124521E+03  0.25500000000E-02 0. -1.
    5000001    1    1    2    0    0 -0.85440835438E+02  0.89462717427E+02 -0.77646264818E+02  0.19355013978E+03  0.12700000000E+03 0.  0.
   -5000001    1    1    2    0    0  0.85440835438E+02 -0.89462717427E+02 -0.88466953038E+02  0.19813913281E+03  0.12700000000E+03 0.  0.
<mgrwt>
<rscale>  0 0.35472086E+03</rscale>
<asrwt>0</asrwt>
<pdfrwt beam="1">  1        2 0.16112575E-01 0.35472086E+03</pdfrwt>
<pdfrwt beam="2">  1       -2 0.39843035E-01 0.35472086E+03</pdfrwt>
<totfact> 0.21599498E+03</totfact>
</mgrwt>
</event>
<event>
 4    1  0.4895160E-005  0.2871123E+03  0.7818608E-02  0.1091867E+00
          2   -1    0    0  501    0  0.00000000000E+00  0.00000000000E+00  0.58682993611E+03  0.58682993612E+03  0.25500000000E-02 0.  1.
         -2   -1    0    0    0  501 -0.00000000000E+00 -0.00000000000E+00 -0.35118129883E+02  0.35118129975E+02  0.25500000000E-02 0. -1.
    5000001    1    1    2    0    0 -0.37385410355E+02 -0.98581347696E+01  0.15751376208E+03  0.20599620621E+03  0.12700000000E+03 0.  0.
   -5000001    1    1    2    0    0  0.37385410355E+02  0.98581347696E+01  0.39419804415E+03  0.41595185988E+03  0.12700000000E+03 0.  0.
<mgrwt>
<rscale>  0 0.28711231E+03</rscale>
<asrwt>0</asrwt>
<pdfrwt beam="1">  1        2 0.83832847E-01 0.28711231E+03</pdfrwt>
<pdfrwt beam="2">  1       -2 0.50168758E-02 0.28711231E+03</pdfrwt>
<totfact> 0.10958954E+04</totfact>
</mgrwt>
</event>
<event>
 4    1  0.4895160E-005  0.4725644E+03  0.7818608E-02  0.1021199E+00
         -2   -1    0    0    0  501 -0.00000000000E+00  0.00000000000E+00  0.27341197064E+02  0.27341197183E+02  0.25500000000E-02 0. -1.
          2   -1    0    0  501    0  0.00000000000E+00 -0.00000000000E+00 -0.20419474513E+04  0.20419474513E+04  0.25500000000E-02 0.  1.
    5000001    1    1    2    0    0 -0.77551548362E+01  0.11586678954E+03 -0.29832108404E+03  0.34439762561E+03  0.12700000000E+03 0.  0.
   -5000001    1    1    2    0    0  0.77551548362E+01 -0.11586678954E+03 -0.17162851702E+04  0.17248910229E+04  0.12700000000E+03 0.  0.
<mgrwt>
<rscale>  0 0.47256444E+03</rscale>
<asrwt>0</asrwt>
<pdfrwt beam="1">  1        2 0.29170668E+00 0.47256444E+03</pdfrwt>
<pdfrwt beam="2">  1       -2 0.39058866E-02 0.47256444E+03</pdfrwt>
<totfact> 0.23805816E+03</totfact>
</mgrwt>
</event>
<event>
 4    1  0.4895160E-005  0.5012028E+03  0.7818608E-02  0.1013465E+00
         -2   -1    0    0    0  501 -0.00000000000E+00  0.00000000000E+00  0.17950254353E+03  0.17950254354E+03  0.25500000000E-02 0. -1.
          2   -1    0    0  501    0  0.00000000000E+00 -0.00000000000E+00 -0.34986171379E+03  0.34986171379E+03  0.25500000000E-02 0.  1.
    5000001    1    1    2    0    0 -0.13378863320E+03 -0.16909782310E+03 -0.71064737514E+02  0.26013971068E+03  0.12700000000E+03 0.  0.
   -5000001    1    1    2    0    0  0.13378863320E+03  0.16909782310E+03 -0.99294432745E+02  0.26922454666E+03  0.12700000000E+03 0.  0.
<mgrwt>
<rscale>  0 0.50120282E+03</rscale>
<asrwt>0</asrwt>
<pdfrwt beam="1">  1        2 0.49980245E-01 0.50120282E+03</pdfrwt>
<pdfrwt beam="2">  1       -2 0.25643221E-01 0.50120282E+03</pdfrwt>
<totfact> 0.13720995E+03</totfact>
</mgrwt>
</event>
<event>
 4    1  0.4895160E-005  0.2908198E+03  0.7818608E-02  0.1089922E+00
         -2   -1    0    0    0  501 -0.00000000000E+00  0.00000000000E+00  0.11360992975E+03  0.11360992978E+03  0.25500000000E-02 0. -1.
          2   -1    0    0  501    0  0.00000000000E+00 -0.00000000000E+00 -0.18611080727E+03  0.18611080729E+03  0.25500000000E-02 0.  1.
    5000001    1    1    2    0    0 -0.48633558929E+02 -0.44830420585E+02 -0.62323887315E+02  0.15616739927E+03  0.12700000000E+03 0.  0.
   -5000001    1    1    2    0    0  0.48633558929E+02  0.44830420585E+02 -0.10176990213E+02  0.14355333780E+03  0.12700000000E+03 0.  0.
<mgrwt>
<rscale>  0 0.29081978E+03</rscale>
<asrwt>0</asrwt>
<pdfrwt beam="1">  1        2 0.26587258E-01 0.29081978E+03</pdfrwt>
<pdfrwt beam="2">  1       -2 0.16229990E-01 0.29081978E+03</pdfrwt>
<totfact> 0.59922219E+03</totfact>
</mgrwt>
</event>
<event>
 4    1  0.4895160E-005  0.5515282E+03  0.7818608E-02  0.1001141E+00
         -2   -1    0    0    0  501 -0.00000000000E+00  0.00000000000E+00  0.11449681157E+03  0.11449681160E+03  0.25500000000E-02 0. -1.
          2   -1    0    0  501    0  0.00000000000E+00 -0.00000000000E+00 -0.66417430110E+03  0.66417430110E+03  0.25500000000E-02 0.  1.
    5000001    1    1    2    0    0 -0.11537030460E+03 -0.21396727478E+03 -0.31537948406E+03  0.41795396974E+03  0.12700000000E+03 0.  0.
   -5000001    1    1    2    0    0  0.11537030460E+03  0.21396727478E+03 -0.23429800547E+03  0.36071714296E+03  0.12700000000E+03 0.  0.
<mgrwt>
<rscale>  0 0.55152820E+03</rscale>
<asrwt>0</asrwt>
<pdfrwt beam="1">  1        2 0.94882041E-01 0.55152820E+03</pdfrwt>
<pdfrwt beam="2">  1       -2 0.16356688E-01 0.55152820E+03</pdfrwt>
<totfact> 0.14513720E+03</totfact>
</mgrwt>
</event>
<event>
 4    1  0.4895160E-005  0.3060820E+03  0.7818608E-02  0.1082239E+00
          2   -1    0    0  501    0  0.00000000000E+00  0.00000000000E+00  0.78834076269E+03  0.78834076269E+03  0.25500000000E-02 0.  1.
         -2   -1    0    0    0  501 -0.00000000000E+00 -0.00000000000E+00 -0.29709930243E+02  0.29709930353E+02  0.25500000000E-02 0. -1.
    5000001    1    1    2    0    0  0.50176718605E+02  0.67134829640E+02  0.42304907467E+03  0.44958237067E+03  0.12700000000E+03 0.  0.
   -5000001    1    1    2    0    0 -0.50176718605E+02 -0.67134829640E+02  0.33558175778E+03  0.36846832238E+03  0.12700000000E+03 0.  0.
<mgrwt>
<rscale>  0 0.30608201E+03</rscale>
<asrwt>0</asrwt>
<pdfrwt beam="1">  1        2 0.11262010E+00 0.30608201E+03</pdfrwt>
<pdfrwt beam="2">  1       -2 0.42442762E-02 0.30608201E+03</pdfrwt>
<totfact> 0.99827932E+03</totfact>
</mgrwt>
</event>
<event>
 4    1  0.4895160E-005  0.5456077E+03  0.7818608E-02  0.1002516E+00
          2   -1    0    0  501    0  0.00000000000E+00  0.00000000000E+00  0.24173241452E+03  0.24173241454E+03  0.25500000000E-02 0.  1.
         -2   -1    0    0    0  501 -0.00000000000E+00 -0.00000000000E+00 -0.30786910924E+03  0.30786910925E+03  0.25500000000E-02 0. -1.
    5000001    1    1    2    0    0 -0.18844942390E+03  0.10337666300E+03 -0.14384159156E+03  0.28813073992E+03  0.12700000000E+03 0.  0.
   -5000001    1    1    2    0    0  0.18844942390E+03 -0.10337666300E+03  0.77704896848E+02  0.26147078387E+03  0.12700000000E+03 0.  0.
<mgrwt>
<rscale>  0 0.54560771E+03</rscale>
<asrwt>0</asrwt>
<pdfrwt beam="1">  1        2 0.34533202E-01 0.54560771E+03</pdfrwt>
<pdfrwt beam="2">  1       -2 0.43981301E-01 0.54560771E+03</pdfrwt>
<totfact> 0.74810912E+02</totfact>
</mgrwt>
</event>
<event>
 4    1  0.4895160E-005  0.2922502E+03  0.7818608E-02  0.1089180E+00
         -2   -1    0    0    0  501 -0.00000000000E+00  0.00000000000E+00  0.94991210496E+01  0.94991213919E+01  0.25500000000E-02 0. -1.
          2   -1    0    0  501    0  0.00000000000E+00 -0.00000000000E+00 -0.22478436597E+04  0.22478436597E+04  0.25500000000E-02 0.  1.
    5000001    1    1    2    0    0 -0.38355421179E+02 -0.57212381612E+02 -0.95009859533E+03  0.96102067397E+03  0.12700000000E+03 0.  0.
   -5000001    1    1    2    0    0  0.38355421179E+02  0.57212381612E+02 -0.12882459433E+04  0.12963221071E+04  0.12700000000E+03 0.  0.
<mgrwt>
<rscale>  0 0.29225016E+03</rscale>
<asrwt>0</asrwt>
<pdfrwt beam="1">  1        2 0.32112018E+00 0.29225016E+03</pdfrwt>
<pdfrwt beam="2">  1       -2 0.13570188E-02 0.29225016E+03</pdfrwt>
<totfact> 0.91362261E+03</totfact>
</mgrwt>
</event>
<event>
 4    1  0.4895160E-005  0.3623145E+03  0.7818608E-02  0.1057671E+00
         -2   -1    0    0    0  501 -0.00000000000E+00  0.00000000000E+00  0.18947836041E+03  0.18947836043E+03  0.25500000000E-02 0. -1.
          2   -1    0    0  501    0  0.00000000000E+00 -0.00000000000E+00 -0.17320152474E+03  0.17320152476E+03  0.25500000000E-02 0.  1.
    5000001    1    1    2    0    0 -0.37754046389E+02 -0.93485350061E+02 -0.72714715913E+02  0.17771130691E+03  0.12700000000E+03 0.  0.
   -5000001    1    1    2    0    0  0.37754046389E+02  0.93485350061E+02  0.88991551588E+02  0.18496857827E+03  0.12700000000E+03 0.  0.
<mgrwt>
<rscale>  0 0.36231445E+03</rscale>
<asrwt>0</asrwt>
<pdfrwt beam="1">  1        2 0.24743075E-01 0.36231445E+03</pdfrwt>
<pdfrwt beam="2">  1       -2 0.27068337E-01 0.36231445E+03</pdfrwt>
<totfact> 0.26977472E+03</totfact>
</mgrwt>
</event>
<event>
 4    1  0.4895160E-005  0.4068395E+03  0.7818608E-02  0.1041437E+00
         -2   -1    0    0    0  501 -0.00000000000E+00  0.00000000000E+00  0.64577105190E+02  0.64577105240E+02  0.25500000000E-02 0.  1.
          2   -1    0    0  501    0  0.00000000000E+00 -0.00000000000E+00 -0.64077798403E+03  0.64077798403E+03  0.25500000000E-02 0. -1.
    5000001    1    1    2    0    0 -0.13520827625E+03 -0.26492159393E+02 -0.15084453683E+03  0.24055391655E+03  0.12700000000E+03 0.  0.
   -5000001    1    1    2    0    0  0.13520827625E+03  0.26492159393E+02 -0.42535634201E+03  0.46480117272E+03  0.12700000000E+03 0.  0.
<mgrwt>
<rscale>  0 0.40683946E+03</rscale>
<asrwt>0</asrwt>
<pdfrwt beam="1">  1        2 0.91539709E-01 0.40683946E+03</pdfrwt>
<pdfrwt beam="2">  1       -2 0.92253011E-02 0.40683946E+03</pdfrwt>
<totfact> 0.38729197E+03</totfact>
</mgrwt>
</event>
<event>
 4    1  0.4895160E-005  0.3930692E+03  0.7818608E-02  0.1046206E+00
         -2   -1    0    0    0  501 -0.00000000000E+00  0.00000000000E+00  0.27252441385E+02  0.27252441504E+02  0.25500000000E-02 0. -1.
          2   -1    0    0  501    0  0.00000000000E+00 -0.00000000000E+00 -0.14173355427E+04  0.14173355427E+04  0.25500000000E-02 0.  1.
    5000001    1    1    2    0    0 -0.50332123654E+01 -0.14095865367E+03 -0.50756648792E+03  0.54189243853E+03  0.12700000000E+03 0.  0.
   -5000001    1    1    2    0    0  0.50332123654E+01  0.14095865367E+03 -0.88251661340E+03  0.90269554569E+03  0.12700000000E+03 0.  0.
<mgrwt>
<rscale>  0 0.39306922E+03</rscale>
<asrwt>0</asrwt>
<pdfrwt beam="1">  1        2 0.20247646E+00 0.39306922E+03</pdfrwt>
<pdfrwt beam="2">  1       -2 0.38932068E-02 0.39306922E+03</pdfrwt>
<totfact> 0.49430028E+03</totfact>
</mgrwt>
</event>
<event>
 4    1  0.4895160E-005  0.3440534E+03  0.7818608E-02  0.1065083E+00
         -2   -1    0    0    0  501 -0.00000000000E+00  0.00000000000E+00  0.10758194525E+03  0.10758194528E+03  0.25500000000E-02 0. -1.
          2   -1    0    0  501    0  0.00000000000E+00 -0.00000000000E+00 -0.27507581330E+03  0.27507581332E+03  0.25500000000E-02 0.  1.
    5000001    1    1    2    0    0  0.71332068913E+02  0.24239114407E+02  0.14407187322E+02  0.14836564889E+03  0.12700000000E+03 0.  0.
   -5000001    1    1    2    0    0 -0.71332068913E+02 -0.24239114407E+02 -0.18190105538E+03  0.23429210971E+03  0.12700000000E+03 0.  0.
<mgrwt>
<rscale>  0 0.34405343E+03</rscale>
<asrwt>0</asrwt>
<pdfrwt beam="1">  1        2 0.39296544E-01 0.34405343E+03</pdfrwt>
<pdfrwt beam="2">  1       -2 0.15368849E-01 0.34405343E+03</pdfrwt>
<totfact> 0.42959833E+03</totfact>
</mgrwt>
</event>
<event>
 4    1  0.4895160E-005  0.3270747E+03  0.7818608E-02  0.1072439E+00
         -2   -1    0    0    0  501 -0.00000000000E+00  0.00000000000E+00  0.32648552424E+03  0.32648552425E+03  0.25500000000E-02 0. -1.
          2   -1    0    0  501    0  0.00000000000E+00 -0.00000000000E+00 -0.81916229917E+02  0.81916229956E+02  0.25500000000E-02 0.  1.
    5000001    1    1    2    0    0  0.59174796731E+02 -0.82647408895E+02  0.14329807383E+03  0.21678465981E+03  0.12700000000E+03 0.  0.
   -5000001    1    1    2    0    0 -0.59174796731E+02  0.82647408895E+02  0.10127122050E+03  0.19161709440E+03  0.12700000000E+03 0.  0.
<mgrwt>
<rscale>  0 0.32707469E+03</rscale>
<asrwt>0</asrwt>
<pdfrwt beam="1">  1        2 0.11702318E-01 0.32707469E+03</pdfrwt>
<pdfrwt beam="2">  1       -2 0.46640790E-01 0.32707469E+03</pdfrwt>
<totfact> 0.23336401E+03</totfact>
</mgrwt>
</event>
<event>
 4    1  0.4895160E-005  0.3887420E+03  0.7818608E-02  0.1047749E+00
         -2   -1    0    0    0  501 -0.00000000000E+00  0.00000000000E+00  0.26057925770E+02  0.26057925895E+02  0.25500000000E-02 0. -1.
          2   -1    0    0  501    0  0.00000000000E+00 -0.00000000000E+00 -0.14498504193E+04  0.14498504193E+04  0.25500000000E-02 0.  1.
    5000001    1    1    2    0    0 -0.69722081758E+02 -0.79728816539E+01 -0.22087692647E+03  0.26427325285E+03  0.12700000000E+03 0.  0.
   -5000001    1    1    2    0    0  0.69722081758E+02  0.79728816539E+01 -0.12029155670E+04  0.12116350923E+04  0.12700000000E+03 0.  0.
<mgrwt>
<rscale>  0 0.38874205E+03</rscale>
<asrwt>0</asrwt>
<pdfrwt beam="1">  1        2 0.20712144E+00 0.38874205E+03</pdfrwt>
<pdfrwt beam="2">  1       -2 0.37225617E-02 0.38874205E+03</pdfrwt>
<totfact> 0.50887710E+03</totfact>
</mgrwt>
</event>
<event>
 4    1  0.4895160E-005  0.2978448E+03  0.7818608E-02  0.1086323E+00
         -2   -1    0    0    0  501 -0.00000000000E+00  0.00000000000E+00  0.10831056523E+02  0.10831056823E+02  0.25500000000E-02 0. -1.
          2   -1    0    0  501    0  0.00000000000E+00 -0.00000000000E+00 -0.20476194255E+04  0.20476194255E+04  0.25500000000E-02 0.  1.
    5000001    1    1    2    0    0 -0.46865621338E+02 -0.54800790959E+02 -0.81697604992E+03  0.82992673128E+03  0.12700000000E+03 0.  0.
   -5000001    1    1    2    0    0  0.46865621338E+02  0.54800790959E+02 -0.12198123191E+04  0.12285237511E+04  0.12700000000E+03 0.  0.
<mgrwt>
<rscale>  0 0.29784481E+03</rscale>
<asrwt>0</asrwt>
<pdfrwt beam="1">  1        2 0.29251681E+00 0.29784481E+03</pdfrwt>
<pdfrwt beam="2">  1       -2 0.15472951E-02 0.29784481E+03</pdfrwt>
<totfact> 0.94515128E+03</totfact>
</mgrwt>
</event>
<event>
 4    1  0.4895160E-005  0.3487156E+03  0.7818608E-02  0.1063143E+00
          2   -1    0    0  501    0  0.00000000000E+00  0.00000000000E+00  0.29164857350E+04  0.29164857350E+04  0.25500000000E-02 0.  1.
         -2   -1    0    0    0  501 -0.00000000000E+00 -0.00000000000E+00 -0.10423725164E+02  0.10423725476E+02  0.25500000000E-02 0. -1.
    5000001    1    1    2    0    0 -0.90510027127E+02  0.68526870133E+02  0.11408180689E+04  0.11534655883E+04  0.12700000000E+03 0.  0.
   -5000001    1    1    2    0    0  0.90510027127E+02 -0.68526870133E+02  0.17652439409E+04  0.17734438722E+04  0.12700000000E+03 0.  0.
<mgrwt>
<rscale>  0 0.34871562E+03</rscale>
<asrwt>0</asrwt>
<pdfrwt beam="1">  1        2 0.41664054E+00 0.34871562E+03</pdfrwt>
<pdfrwt beam="2">  1       -2 0.14891046E-02 0.34871562E+03</pdfrwt>
<totfact> 0.36472193E+03</totfact>
</mgrwt>
</event>
<event>
 4    1  0.4895160E-005  0.4752180E+03  0.7818608E-02  0.1020458E+00
          2   -1    0    0  501    0  0.00000000000E+00  0.00000000000E+00  0.31234977299E+03  0.31234977300E+03  0.25500000000E-02 0.  1.
         -2   -1    0    0    0  501 -0.00000000000E+00 -0.00000000000E+00 -0.18075264007E+03  0.18075264009E+03  0.25500000000E-02 0. -1.
    5000001    1    1    2    0    0  0.15767569997E+03 -0.10405116667E+03 -0.48884157706E+01  0.22768655704E+03  0.12700000000E+03 0.  0.
   -5000001    1    1    2    0    0 -0.15767569997E+03  0.10405116667E+03  0.13648554868E+03  0.26541585606E+03  0.12700000000E+03 0.  0.
<mgrwt>
<rscale>  0 0.47521804E+03</rscale>
<asrwt>0</asrwt>
<pdfrwt beam="1">  1        2 0.44621396E-01 0.47521804E+03</pdfrwt>
<pdfrwt beam="2">  1       -2 0.25821806E-01 0.47521804E+03</pdfrwt>
<totfact> 0.15342862E+03</totfact>
</mgrwt>
</event>
<event>
 4    1  0.4895160E-005  0.2829558E+03  0.7818608E-02  0.1094085E+00
          2   -1    0    0  501    0  0.00000000000E+00  0.00000000000E+00  0.19254735258E+04  0.19254735258E+04  0.25500000000E-02 0.  1.
         -2   -1    0    0    0  501 -0.00000000000E+00 -0.00000000000E+00 -0.10395363235E+02  0.10395363548E+02  0.25500000000E-02 0. -1.
    5000001    1    1    2    0    0  0.47091453367E+02 -0.37231699382E+02  0.84240649253E+03  0.85403834989E+03  0.12700000000E+03 0.  0.
   -5000001    1    1    2    0    0 -0.47091453367E+02  0.37231699382E+02  0.10726716700E+04  0.10818305394E+04  0.12700000000E+03 0.  0.
<mgrwt>
<rscale>  0 0.28295581E+03</rscale>
<asrwt>0</asrwt>
<pdfrwt beam="1">  1        2 0.27506776E+00 0.28295581E+03</pdfrwt>
<pdfrwt beam="2">  1       -2 0.14850513E-02 0.28295581E+03</pdfrwt>
<totfact> 0.11507047E+04</totfact>
</mgrwt>
</event>
<event>
 4    1  0.4895160E-005  0.2848424E+03  0.7818608E-02  0.1093073E+00
          2   -1    0    0  501    0  0.00000000000E+00  0.00000000000E+00  0.28127871150E+02  0.28127871266E+02  0.25500000000E-02 0.  1.
         -2   -1    0    0    0  501 -0.00000000000E+00 -0.00000000000E+00 -0.72112826819E+03  0.72112826819E+03  0.25500000000E-02 0. -1.
    5000001    1    1    2    0    0 -0.58411629044E+01 -0.61740295001E+02 -0.30027505992E+03  0.33187361272E+03  0.12700000000E+03 0.  0.
   -5000001    1    1    2    0    0  0.58411629044E+01  0.61740295001E+02 -0.39272533712E+03  0.41738252674E+03  0.12700000000E+03 0.  0.
<mgrwt>
<rscale>  0 0.28484243E+03</rscale>
<asrwt>0</asrwt>
<pdfrwt beam="1">  1        2 0.40182678E-02 0.28484243E+03</pdfrwt>
<pdfrwt beam="2">  1       -2 0.10301831E+00 0.28484243E+03</pdfrwt>
<totfact> 0.16865328E+03</totfact>
</mgrwt>
</event>
<event>
 4    1  0.4895160E-005  0.6712582E+03  0.7818608E-02  0.9767687E-01
         -2   -1    0    0    0  501 -0.00000000000E+00  0.00000000000E+00  0.49410095923E+02  0.49410095989E+02  0.25500000000E-02 0. -1.
          2   -1    0    0  501    0  0.00000000000E+00 -0.00000000000E+00 -0.22798357609E+04  0.22798357609E+04  0.25500000000E-02 0.  1.
    5000001    1    1    2    0    0 -0.21917276546E+03 -0.86637436815E+02 -0.41281037818E+03  0.49202048221E+03  0.12700000000E+03 0.  0.
   -5000001    1    1    2    0    0  0.21917276546E+03  0.86637436815E+02 -0.18176152868E+04  0.18372253747E+04  0.12700000000E+03 0.  0.
<mgrwt>
<rscale>  0 0.67125823E+03</rscale>
<asrwt>0</asrwt>
<pdfrwt beam="1">  1        2 0.32569076E+00 0.67125823E+03</pdfrwt>
<pdfrwt beam="2">  1       -2 0.70585866E-02 0.67125823E+03</pdfrwt>
<totfact> 0.71280584E+02</totfact>
</mgrwt>
</event>
<event>
 4    1  0.4895160E-005  0.3001677E+03  0.7818608E-02  0.1085157E+00
         -2   -1    0    0    0  501 -0.00000000000E+00  0.00000000000E+00  0.11881232775E+02  0.11881233049E+02  0.25500000000E-02 0. -1.
          2   -1    0    0  501    0  0.00000000000E+00 -0.00000000000E+00 -0.18958604307E+04  0.18958604307E+04  0.25500000000E-02 0.  1.
    5000001    1    1    2    0    0  0.59403892938E+02 -0.35159777190E+02 -0.68530517806E+03  0.70038362310E+03  0.12700000000E+03 0.  0.
   -5000001    1    1    2    0    0 -0.59403892938E+02  0.35159777190E+02 -0.11986740198E+04  0.12073580406E+04  0.12700000000E+03 0.  0.
<mgrwt>
<rscale>  0 0.30016768E+03</rscale>
<asrwt>0</asrwt>
<pdfrwt beam="1">  1        2 0.27083701E+00 0.30016768E+03</pdfrwt>
<pdfrwt beam="2">  1       -2 0.16973202E-02 0.30016768E+03</pdfrwt>
<totfact> 0.97897758E+03</totfact>
</mgrwt>
</event>
<event>
 4    1  0.4895160E-005  0.3236095E+03  0.7818608E-02  0.1074000E+00
          2   -1    0    0  501    0  0.00000000000E+00  0.00000000000E+00  0.64386867617E+03  0.64386867617E+03  0.25500000000E-02 0.  1.
         -2   -1    0    0    0  501 -0.00000000000E+00 -0.00000000000E+00 -0.40661682083E+02  0.40661682163E+02  0.25500000000E-02 0. -1.
    5000001    1    1    2    0    0  0.32604832206E+02  0.61736803113E+02  0.45380608487E+03  0.47638584215E+03  0.12700000000E+03 0.  0.
   -5000001    1    1    2    0    0 -0.32604832206E+02 -0.61736803113E+02  0.14940090922E+03  0.20814451618E+03  0.12700000000E+03 0.  0.
<mgrwt>
<rscale>  0 0.32360954E+03</rscale>
<asrwt>0</asrwt>
<pdfrwt beam="1">  1        2 0.91981238E-01 0.32360954E+03</pdfrwt>
<pdfrwt beam="2">  1       -2 0.58088118E-02 0.32360954E+03</pdfrwt>
<totfact> 0.79022547E+03</totfact>
</mgrwt>
</event>
<event>
 4    1  0.4895160E-005  0.3282927E+03  0.7818608E-02  0.1071895E+00
         -2   -1    0    0    0  501 -0.00000000000E+00  0.00000000000E+00  0.12329042647E+03  0.12329042650E+03  0.25500000000E-02 0. -1.
          2   -1    0    0  501    0  0.00000000000E+00 -0.00000000000E+00 -0.21854104799E+03  0.21854104801E+03  0.25500000000E-02 0.  1.
    5000001    1    1    2    0    0 -0.44599261601E+02 -0.93795449688E+02 -0.42082382227E+02  0.16937121187E+03  0.12700000000E+03 0.  0.
   -5000001    1    1    2    0    0  0.44599261601E+02  0.93795449688E+02 -0.53168239294E+02  0.17246026263E+03  0.12700000000E+03 0.  0.
<mgrwt>
<rscale>  0 0.32829267E+03</rscale>
<asrwt>0</asrwt>
<pdfrwt beam="1">  1        2 0.31220150E-01 0.32829267E+03</pdfrwt>
<pdfrwt beam="2">  1       -2 0.17612918E-01 0.32829267E+03</pdfrwt>
<totfact> 0.43901493E+03</totfact>
</mgrwt>
</event>
<event>
 4    1  0.4895160E-005  0.5080284E+03  0.7818608E-02  0.1011704E+00
          2   -1    0    0  501    0  0.00000000000E+00  0.00000000000E+00  0.90866430929E+03  0.90866430930E+03  0.25500000000E-02 0.  1.
         -2   -1    0    0    0  501 -0.00000000000E+00 -0.00000000000E+00 -0.71008864842E+02  0.71008864888E+02  0.25500000000E-02 0. -1.
    5000001    1    1    2    0    0 -0.21798596355E+03 -0.21588033705E+02  0.45788866427E+03  0.52323508328E+03  0.12700000000E+03 0.  0.
   -5000001    1    1    2    0    0  0.21798596355E+03  0.21588033705E+02  0.37976678018E+03  0.45643809091E+03  0.12700000000E+03 0.  0.
<mgrwt>
<rscale>  0 0.50802843E+03</rscale>
<asrwt>0</asrwt>
<pdfrwt beam="1">  1        2 0.12980918E+00 0.50802843E+03</pdfrwt>
<pdfrwt beam="2">  1       -2 0.10144124E-01 0.50802843E+03</pdfrwt>
<totfact> 0.21538293E+03</totfact>
</mgrwt>
</event>
<event>
 4    1  0.4895160E-005  0.5263159E+03  0.7818608E-02  0.1007130E+00
         -2   -1    0    0    0  501 -0.00000000000E+00  0.00000000000E+00  0.10294685001E+03  0.10294685004E+03  0.25500000000E-02 0. -1.
          2   -1    0    0  501    0  0.00000000000E+00 -0.00000000000E+00 -0.67269763593E+03  0.67269763593E+03  0.25500000000E-02 0.  1.
    5000001    1    1    2    0    0 -0.19960082430E+03  0.11411278208E+03 -0.26107182416E+03  0.37033729688E+03  0.12700000000E+03 0.  0.
   -5000001    1    1    2    0    0  0.19960082430E+03 -0.11411278208E+03 -0.30867896176E+03  0.40530718909E+03  0.12700000000E+03 0.  0.
<mgrwt>
<rscale>  0 0.52631588E+03</rscale>
<asrwt>0</asrwt>
<pdfrwt beam="1">  1        2 0.96099660E-01 0.52631588E+03</pdfrwt>
<pdfrwt beam="2">  1       -2 0.14706693E-01 0.52631588E+03</pdfrwt>
<totfact> 0.17099643E+03</totfact>
</mgrwt>
</event>
<event>
 4    1  0.4895160E-005  0.4146262E+03  0.7818608E-02  0.1038830E+00
         -2   -1    0    0    0  501 -0.00000000000E+00  0.00000000000E+00  0.49221712426E+02  0.49221712492E+02  0.25500000000E-02 0. -1.
          2   -1    0    0  501    0  0.00000000000E+00 -0.00000000000E+00 -0.87316603058E+03  0.87316603058E+03  0.25500000000E-02 0.  1.
    5000001    1    1    2    0    0  0.14974934096E+03  0.65839556028E+02 -0.43307856447E+03  0.48004765937E+03  0.12700000000E+03 0.  0.
   -5000001    1    1    2    0    0 -0.14974934096E+03 -0.65839556028E+02 -0.39086575368E+03  0.44234008371E+03  0.12700000000E+03 0.  0.
<mgrwt>
<rscale>  0 0.41462623E+03</rscale>
<asrwt>0</asrwt>
<pdfrwt beam="1">  1        2 0.12473799E+00 0.41462623E+03</pdfrwt>
<pdfrwt beam="2">  1       -2 0.70316738E-02 0.41462623E+03</pdfrwt>
<totfact> 0.40611513E+03</totfact>
</mgrwt>
</event>
<event>
 4    1  0.4895160E-005  0.5019982E+03  0.7818608E-02  0.1013259E+00
          2   -1    0    0  501    0  0.00000000000E+00  0.00000000000E+00  0.53037786791E+03  0.53037786791E+03  0.25500000000E-02 0. -1.
         -2   -1    0    0    0  501 -0.00000000000E+00 -0.00000000000E+00 -0.11878426865E+03  0.11878426868E+03  0.25500000000E-02 0.  1.
    5000001    1    1    2    0    0  0.55850549670E+02 -0.20646389366E+03  0.24916911351E+03  0.35208077257E+03  0.12700000000E+03 0.  0.
   -5000001    1    1    2    0    0 -0.55850549670E+02  0.20646389366E+03  0.16242448574E+03  0.29708136403E+03  0.12700000000E+03 0.  0.
<mgrwt>
<rscale>  0 0.50199820E+03</rscale>
<asrwt>0</asrwt>
<pdfrwt beam="1">  1        2 0.75768266E-01 0.50199820E+03</pdfrwt>
<pdfrwt beam="2">  1       -2 0.16969181E-01 0.50199820E+03</pdfrwt>
<totfact> 0.17739936E+03</totfact>
</mgrwt>
</event>
<event>
 4    1  0.4895160E-005  0.3786593E+03  0.7818608E-02  0.1051430E+00
         -2   -1    0    0    0  501 -0.00000000000E+00  0.00000000000E+00  0.95272449365E+03  0.95272449365E+03  0.25500000000E-02 0. -1.
          2   -1    0    0  501    0  0.00000000000E+00 -0.00000000000E+00 -0.37624426868E+02  0.37624426954E+02  0.25500000000E-02 0.  1.
    5000001    1    1    2    0    0 -0.37393785721E+02 -0.13243461322E+03  0.38452946605E+03  0.42770215366E+03  0.12700000000E+03 0.  0.
   -5000001    1    1    2    0    0  0.37393785721E+02  0.13243461322E+03  0.53057060074E+03  0.56264676695E+03  0.12700000000E+03 0.  0.
<mgrwt>
<rscale>  0 0.37865928E+03</rscale>
<asrwt>0</asrwt>
<pdfrwt beam="1">  1        2 0.53749174E-02 0.37865928E+03</pdfrwt>
<pdfrwt beam="2">  1       -2 0.13610352E+00 0.37865928E+03</pdfrwt>
<totfact> 0.58422281E+02</totfact>
</mgrwt>
</event>
<event>
 4    1  0.4895160E-005  0.6656576E+03  0.7818608E-02  0.9777834E-01
          2   -1    0    0  501    0  0.00000000000E+00  0.00000000000E+00  0.22519605659E+04  0.22519605659E+04  0.25500000000E-02 0.  1.
         -2   -1    0    0    0  501 -0.00000000000E+00 -0.00000000000E+00 -0.49190474908E+02  0.49190474974E+02  0.25500000000E-02 0. -1.
    5000001    1    1    2    0    0  0.11854588053E+03  0.27279427363E+03  0.82970747097E+03  0.89051295830E+03  0.12700000000E+03 0.  0.
   -5000001    1    1    2    0    0 -0.11854588053E+03 -0.27279427363E+03  0.13730626201E+04  0.14106380826E+04  0.12700000000E+03 0.  0.
<mgrwt>
<rscale>  0 0.66565760E+03</rscale>
<asrwt>0</asrwt>
<pdfrwt beam="1">  1        2 0.32170864E+00 0.66565760E+03</pdfrwt>
<pdfrwt beam="2">  1       -2 0.70272110E-02 0.66565760E+03</pdfrwt>
<totfact> 0.74188321E+02</totfact>
</mgrwt>
</event>
<event>
 4    1  0.4895160E-005  0.6322807E+03  0.7818608E-02  0.9840608E-01
         -2   -1    0    0    0  501 -0.00000000000E+00  0.00000000000E+00  0.30707019686E+03  0.30707019687E+03  0.25500000000E-02 0. -1.
          2   -1    0    0  501    0  0.00000000000E+00 -0.00000000000E+00 -0.32547843078E+03  0.32547843079E+03  0.25500000000E-02 0.  1.
    5000001    1    1    2    0    0 -0.11843536677E+03 -0.26403594069E+03 -0.60910049047E+00  0.31602418433E+03  0.12700000000E+03 0.  0.
   -5000001    1    1    2    0    0  0.11843536677E+03  0.26403594069E+03 -0.17799133433E+02  0.31652444334E+03  0.12700000000E+03 0.  0.
<mgrwt>
<rscale>  0 0.63228072E+03</rscale>
<asrwt>0</asrwt>
<pdfrwt beam="1">  1        2 0.46496918E-01 0.63228072E+03</pdfrwt>
<pdfrwt beam="2">  1       -2 0.43867171E-01 0.63228072E+03</pdfrwt>
<totfact> 0.54050997E+02</totfact>
</mgrwt>
</event>
<event>
 4    1  0.4895160E-005  0.3496537E+03  0.7818608E-02  0.1062757E+00
          2   -1    0    0  501    0  0.00000000000E+00  0.00000000000E+00  0.65360870780E+02  0.65360870829E+02  0.25500000000E-02 0.  1.
         -2   -1    0    0    0  501 -0.00000000000E+00 -0.00000000000E+00 -0.46762571396E+03  0.46762571397E+03  0.25500000000E-02 0. -1.
    5000001    1    1    2    0    0 -0.87283806111E+02  0.76304583423E+02 -0.15305997715E+03  0.23021122662E+03  0.12700000000E+03 0.  0.
   -5000001    1    1    2    0    0  0.87283806111E+02 -0.76304583423E+02 -0.24920486604E+03  0.30277535818E+03  0.12700000000E+03 0.  0.
<mgrwt>
<rscale>  0 0.34965368E+03</rscale>
<asrwt>0</asrwt>
<pdfrwt beam="1">  1        2 0.93372675E-02 0.34965368E+03</pdfrwt>
<pdfrwt beam="2">  1       -2 0.66803672E-01 0.34965368E+03</pdfrwt>
<totfact> 0.14815249E+03</totfact>
</mgrwt>
</event>
<event>
 4    1  0.4895160E-005  0.4183216E+03  0.7818608E-02  0.1037614E+00
          2   -1    0    0  501    0  0.00000000000E+00  0.00000000000E+00  0.12483838676E+04  0.12483838676E+04  0.25500000000E-02 0.  1.
         -2   -1    0    0    0  501 -0.00000000000E+00 -0.00000000000E+00 -0.35043899900E+02  0.35043899992E+02  0.25500000000E-02 0. -1.
    5000001    1    1    2    0    0 -0.11184609708E+03  0.70192111513E+02  0.29707505073E+03  0.34902588403E+03  0.12700000000E+03 0.  0.
   -5000001    1    1    2    0    0  0.11184609708E+03 -0.70192111513E+02  0.91626491692E+03  0.93440188352E+03  0.12700000000E+03 0.  0.
<mgrwt>
<rscale>  0 0.41832160E+03</rscale>
<asrwt>0</asrwt>
<pdfrwt beam="1">  1        2 0.17834053E+00 0.41832160E+03</pdfrwt>
<pdfrwt beam="2">  1       -2 0.50062721E-02 0.41832160E+03</pdfrwt>
<totfact> 0.41411639E+03</totfact>
</mgrwt>
</event>
<event>
 4    1  0.4895160E-005  0.3373492E+03  0.7818608E-02  0.1067931E+00
          2   -1    0    0  501    0  0.00000000000E+00  0.00000000000E+00  0.40414828941E+02  0.40414829022E+02  0.25500000000E-02 0.  1.
         -2   -1    0    0    0  501 -0.00000000000E+00 -0.00000000000E+00 -0.70397746576E+03  0.70397746577E+03  0.25500000000E-02 0. -1.
    5000001    1    1    2    0    0  0.77901766972E+02 -0.39950793710E+02 -0.48237018007E+03  0.50643335379E+03  0.12700000000E+03 0.  0.
   -5000001    1    1    2    0    0 -0.77901766972E+02  0.39950793710E+02 -0.18119245675E+03  0.23795894100E+03  0.12700000000E+03 0.  0.
<mgrwt>
<rscale>  0 0.33734925E+03</rscale>
<asrwt>0</asrwt>
<pdfrwt beam="1">  1        2 0.57735474E-02 0.33734925E+03</pdfrwt>
<pdfrwt beam="2">  1       -2 0.10056820E+00 0.33734925E+03</pdfrwt>
<totfact> 0.11060796E+03</totfact>
</mgrwt>
</event>
<event>
 4    1  0.4895160E-005  0.7124981E+03  0.7818608E-02  0.9696094E-01
         -2   -1    0    0    0  501 -0.00000000000E+00  0.00000000000E+00  0.80368663916E+02  0.80368663956E+02  0.25500000000E-02 0.  1.
          2   -1    0    0  501    0  0.00000000000E+00 -0.00000000000E+00 -0.15791400537E+04  0.15791400537E+04  0.25500000000E-02 0. -1.
    5000001    1    1    2    0    0  0.16443192551E+03 -0.26519865770E+03 -0.10191661268E+04  0.10734042948E+04  0.12700000000E+03 0.  0.
   -5000001    1    1    2    0    0 -0.16443192551E+03  0.26519865770E+03 -0.47960526303E+03  0.58610442286E+03  0.12700000000E+03 0.  0.
<mgrwt>
<rscale>  0 0.71249807E+03</rscale>
<asrwt>0</asrwt>
<pdfrwt beam="1">  1        2 0.22559142E+00 0.71249807E+03</pdfrwt>
<pdfrwt beam="2">  1       -2 0.11481239E-01 0.71249807E+03</pdfrwt>
<totfact> 0.73583381E+02</totfact>
</mgrwt>
</event>
<event>
 4    1  0.4895160E-005  0.4849043E+03  0.7818608E-02  0.1017796E+00
         -2   -1    0    0    0  501 -0.00000000000E+00  0.00000000000E+00  0.14107662735E+03  0.14107662737E+03  0.25500000000E-02 0. -1.
          2   -1    0    0  501    0  0.00000000000E+00 -0.00000000000E+00 -0.41667459084E+03  0.41667459085E+03  0.25500000000E-02 0.  1.
    5000001    1    1    2    0    0 -0.19700735962E+03  0.61971670345E+02 -0.13928019656E+03  0.27960751210E+03  0.12700000000E+03 0.  0.
   -5000001    1    1    2    0    0  0.19700735962E+03 -0.61971670345E+02 -0.13631776693E+03  0.27814370612E+03  0.12700000000E+03 0.  0.
<mgrwt>
<rscale>  0 0.48490430E+03</rscale>
<asrwt>0</asrwt>
<pdfrwt beam="1">  1        2 0.59524941E-01 0.48490430E+03</pdfrwt>
<pdfrwt beam="2">  1       -2 0.20153804E-01 0.48490430E+03</pdfrwt>
<totfact> 0.17307123E+03</totfact>
</mgrwt>
</event>
<event>
 4    1  0.4895160E-005  0.5206622E+03  0.7818608E-02  0.1008522E+00
         -2   -1    0    0    0  501 -0.00000000000E+00  0.00000000000E+00  0.15146627085E+03  0.15146627087E+03  0.25500000000E-02 0. -1.
          2   -1    0    0  501    0  0.00000000000E+00 -0.00000000000E+00 -0.44744141529E+03  0.44744141530E+03  0.25500000000E-02 0.  1.
    5000001    1    1    2    0    0 -0.68706840897E+02 -0.14923152692E+03 -0.32859484479E+03  0.38870843911E+03  0.12700000000E+03 0.  0.
   -5000001    1    1    2    0    0  0.68706840897E+02  0.14923152692E+03  0.32619700354E+02  0.21019924706E+03  0.12700000000E+03 0.  0.
<mgrwt>
<rscale>  0 0.52066220E+03</rscale>
<asrwt>0</asrwt>
<pdfrwt beam="1">  1        2 0.63920202E-01 0.52066220E+03</pdfrwt>
<pdfrwt beam="2">  1       -2 0.21638039E-01 0.52066220E+03</pdfrwt>
<totfact> 0.14128029E+03</totfact>
</mgrwt>
</event>
<event>
 4    1  0.4895160E-005  0.8365352E+03  0.7818608E-02  0.9508589E-01
         -2   -1    0    0    0  501 -0.00000000000E+00  0.00000000000E+00  0.53000501842E+02  0.53000501904E+02  0.25500000000E-02 0. -1.
          2   -1    0    0  501    0  0.00000000000E+00 -0.00000000000E+00 -0.33008704659E+04  0.33008704659E+04  0.25500000000E-02 0.  1.
    5000001    1    1    2    0    0  0.13617233999E+03  0.19553407490E+03 -0.34322066443E+03  0.43669887236E+03  0.12700000000E+03 0.  0.
   -5000001    1    1    2    0    0 -0.13617233999E+03 -0.19553407490E+03 -0.29046492997E+04  0.29171720955E+04  0.12700000000E+03 0.  0.
<mgrwt>
<rscale>  0 0.83653521E+03</rscale>
<asrwt>0</asrwt>
<pdfrwt beam="1">  1        2 0.47155280E+00 0.83653521E+03</pdfrwt>
<pdfrwt beam="2">  1       -2 0.75715023E-02 0.83653521E+03</pdfrwt>
<totfact> 0.17831974E+02</totfact>
</mgrwt>
</event>
<event>
 4    1  0.4895160E-005  0.1406000E+04  0.7818608E-02  0.8949487E-01
         -2   -1    0    0    0  501 -0.00000000000E+00  0.00000000000E+00  0.17637705780E+03  0.17637705782E+03  0.25500000000E-02 0. -1.
          2   -1    0    0  501    0  0.00000000000E+00 -0.00000000000E+00 -0.28020045526E+04  0.28020045526E+04  0.25500000000E-02 0.  1.
    5000001    1    1    2    0    0 -0.11959642347E+03  0.55666665565E+03 -0.48179058034E+03  0.75659251472E+03  0.12700000000E+03 0.  0.
   -5000001    1    1    2    0    0  0.11959642347E+03 -0.55666665565E+03 -0.21438369145E+04  0.22217890957E+04  0.12700000000E+03 0.  0.
<mgrwt>
<rscale>  0 0.14060005E+04</rscale>
<asrwt>0</asrwt>
<pdfrwt beam="1">  1        2 0.40028634E+00 0.14060005E+04</pdfrwt>
<pdfrwt beam="2">  1       -2 0.25196724E-01 0.14060005E+04</pdfrwt>
<totfact> 0.41997143E+01</totfact>
</mgrwt>
</event>
<event>
 4    1  0.4895160E-005  0.5145046E+03  0.7818608E-02  0.1010061E+00
          2   -1    0    0  501    0  0.00000000000E+00  0.00000000000E+00  0.65421141213E+03  0.65421141214E+03  0.25500000000E-02 0.  1.
         -2   -1    0    0    0  501 -0.00000000000E+00 -0.00000000000E+00 -0.10115805778E+03  0.10115805781E+03  0.25500000000E-02 0. -1.
    5000001    1    1    2    0    0 -0.19273696912E+03  0.10328473267E+03  0.34592651006E+03  0.42849670434E+03  0.12700000000E+03 0.  0.
   -5000001    1    1    2    0    0  0.19273696912E+03 -0.10328473267E+03  0.20712684429E+03  0.32687276561E+03  0.12700000000E+03 0.  0.
<mgrwt>
<rscale>  0 0.51450464E+03</rscale>
<asrwt>0</asrwt>
<pdfrwt beam="1">  1        2 0.93458774E-01 0.51450464E+03</pdfrwt>
<pdfrwt beam="2">  1       -2 0.14451151E-01 0.51450464E+03</pdfrwt>
<totfact> 0.18207035E+03</totfact>
</mgrwt>
</event>
<event>
 4    1  0.4895160E-005  0.4405301E+03  0.7818608E-02  0.1030584E+00
          2   -1    0    0  501    0  0.00000000000E+00  0.00000000000E+00  0.85520251104E+03  0.85520251104E+03  0.25500000000E-02 0.  1.
         -2   -1    0    0    0  501 -0.00000000000E+00 -0.00000000000E+00 -0.56731224821E+02  0.56731224878E+02  0.25500000000E-02 0. -1.
    5000001    1    1    2    0    0 -0.49660526046E+02 -0.12216964916E+03  0.14573631466E+03  0.23400782985E+03  0.12700000000E+03 0.  0.
   -5000001    1    1    2    0    0  0.49660526046E+02  0.12216964916E+03  0.65273497156E+03  0.67792590606E+03  0.12700000000E+03 0.  0.
<mgrwt>
<rscale>  0 0.44053007E+03</rscale>
<asrwt>0</asrwt>
<pdfrwt beam="1">  1        2 0.12217179E+00 0.44053007E+03</pdfrwt>
<pdfrwt beam="2">  1       -2 0.81044606E-02 0.44053007E+03</pdfrwt>
<totfact> 0.33383251E+03</totfact>
</mgrwt>
</event>
<event>
 4    1  0.4895160E-005  0.5756619E+03  0.7818608E-02  0.9957227E-01
         -2   -1    0    0    0  501 -0.00000000000E+00  0.00000000000E+00  0.12318023927E+03  0.12318023929E+03  0.25500000000E-02 0. -1.
          2   -1    0    0  501    0  0.00000000000E+00 -0.00000000000E+00 -0.67256446897E+03  0.67256446897E+03  0.25500000000E-02 0.  1.
    5000001    1    1    2    0    0  0.98444594409E+01 -0.25738512161E+03 -0.24797240071E+03  0.37942499354E+03  0.12700000000E+03 0.  0.
   -5000001    1    1    2    0    0 -0.98444594409E+01  0.25738512161E+03 -0.30141182900E+03  0.41631971473E+03  0.12700000000E+03 0.  0.
<mgrwt>
<rscale>  0 0.57566189E+03</rscale>
<asrwt>0</asrwt>
<pdfrwt beam="1">  1        2 0.96080636E-01 0.57566189E+03</pdfrwt>
<pdfrwt beam="2">  1       -2 0.17597177E-01 0.57566189E+03</pdfrwt>
<totfact> 0.12619099E+03</totfact>
</mgrwt>
</event>
<event>
 4    1  0.4895160E-005  0.1039000E+04  0.7818608E-02  0.9266775E-01
         -2   -1    0    0    0  501 -0.00000000000E+00  0.00000000000E+00  0.21373114490E+03  0.21373114491E+03  0.25500000000E-02 0. -1.
          2   -1    0    0  501    0  0.00000000000E+00 -0.00000000000E+00 -0.12627082128E+04  0.12627082128E+04  0.25500000000E-02 0.  1.
    5000001    1    1    2    0    0 -0.97586216512E+02 -0.24223853135E+03  0.87620697001E+02  0.30332979126E+03  0.12700000000E+03 0.  0.
   -5000001    1    1    2    0    0  0.97586216512E+02  0.24223853135E+03 -0.11365977649E+04  0.11731095664E+04  0.12700000000E+03 0.  0.
<mgrwt>
<rscale>  0 0.10389997E+04</rscale>
<asrwt>0</asrwt>
<pdfrwt beam="1">  1        2 0.18038688E+00 0.10389997E+04</pdfrwt>
<pdfrwt beam="2">  1       -2 0.30533021E-01 0.10389997E+04</pdfrwt>
<totfact> 0.19421640E+02</totfact>
</mgrwt>
</event>
<event>
 4    1  0.4895160E-005  0.3085261E+03  0.7818608E-02  0.1081054E+00
         -2   -1    0    0    0  501 -0.00000000000E+00  0.00000000000E+00  0.21134904536E+02  0.21134904690E+02  0.25500000000E-02 0. -1.
          2   -1    0    0  501    0  0.00000000000E+00 -0.00000000000E+00 -0.11259616679E+04  0.11259616679E+04  0.25500000000E-02 0.  1.
    5000001    1    1    2    0    0 -0.20059016809E+02 -0.85210488134E+02 -0.56064434767E+03  0.58147594620E+03  0.12700000000E+03 0.  0.
   -5000001    1    1    2    0    0  0.20059016809E+02  0.85210488134E+02 -0.54418241572E+03  0.56562062641E+03  0.12700000000E+03 0.  0.
<mgrwt>
<rscale>  0 0.30852613E+03</rscale>
<asrwt>0</asrwt>
<pdfrwt beam="1">  1        2 0.16085163E+00 0.30852613E+03</pdfrwt>
<pdfrwt beam="2">  1       -2 0.30192728E-02 0.30852613E+03</pdfrwt>
<totfact> 0.10354090E+04</totfact>
</mgrwt>
</event>
<event>
 4    1  0.4895160E-005  0.3712939E+03  0.7818608E-02  0.1054199E+00
         -2   -1    0    0    0  501 -0.00000000000E+00  0.00000000000E+00  0.21116521219E+02  0.21116521373E+02  0.25500000000E-02 0. -1.
          2   -1    0    0  501    0  0.00000000000E+00 -0.00000000000E+00 -0.16321245514E+04  0.16321245514E+04  0.25500000000E-02 0.  1.
    5000001    1    1    2    0    0  0.80698460616E+02 -0.85255429585E+02 -0.50498943344E+03  0.53378278139E+03  0.12700000000E+03 0.  0.
   -5000001    1    1    2    0    0 -0.80698460616E+02  0.85255429585E+02 -0.11060185967E+04  0.11194582914E+04  0.12700000000E+03 0.  0.
<mgrwt>
<rscale>  0 0.37129392E+03</rscale>
<asrwt>0</asrwt>
<pdfrwt beam="1">  1        2 0.23316057E+00 0.37129392E+03</pdfrwt>
<pdfrwt beam="2">  1       -2 0.30166469E-02 0.37129392E+03</pdfrwt>
<totfact> 0.56418600E+03</totfact>
</mgrwt>
</event>
<event>
 4    1  0.4895160E-005  0.4266606E+03  0.7818608E-02  0.1034920E+00
         -2   -1    0    0    0  501 -0.00000000000E+00  0.00000000000E+00  0.24608744998E+02  0.24608745130E+02  0.25500000000E-02 0. -1.
          2   -1    0    0  501    0  0.00000000000E+00 -0.00000000000E+00 -0.18493349372E+04  0.18493349372E+04  0.25500000000E-02 0.  1.
    5000001    1    1    2    0    0 -0.10076875756E+03 -0.11938566081E+03 -0.60261650004E+03  0.63536046826E+03  0.12700000000E+03 0.  0.
   -5000001    1    1    2    0    0  0.10076875756E+03  0.11938566081E+03 -0.12221096922E+04  0.12385832141E+04  0.12700000000E+03 0.  0.
<mgrwt>
<rscale>  0 0.42666058E+03</rscale>
<asrwt>0</asrwt>
<pdfrwt beam="1">  1        2 0.26419062E+00 0.42666058E+03</pdfrwt>
<pdfrwt beam="2">  1       -2 0.35155362E-02 0.42666058E+03</pdfrwt>
<totfact> 0.34881548E+03</totfact>
</mgrwt>
</event>
<event>
 4    1  0.4895160E-005  0.2961012E+03  0.7818608E-02  0.1087206E+00
          2   -1    0    0  501    0  0.00000000000E+00  0.00000000000E+00  0.88302373905E+03  0.88302373905E+03  0.25500000000E-02 0.  1.
         -2   -1    0    0    0  501 -0.00000000000E+00 -0.00000000000E+00 -0.24822640024E+02  0.24822640155E+02  0.25500000000E-02 0. -1.
    5000001    1    1    2    0    0 -0.88364579037E+01  0.75386553355E+02  0.41265665114E+03  0.43837852040E+03  0.12700000000E+03 0.  0.
   -5000001    1    1    2    0    0  0.88364579037E+01 -0.75386553355E+02  0.44554444788E+03  0.46946785881E+03  0.12700000000E+03 0.  0.
<mgrwt>
<rscale>  0 0.29610120E+03</rscale>
<asrwt>0</asrwt>
<pdfrwt beam="1">  1        2 0.12614622E+00 0.29610120E+03</pdfrwt>
<pdfrwt beam="2">  1       -2 0.35460923E-02 0.29610120E+03</pdfrwt>
<totfact> 0.11327606E+04</totfact>
</mgrwt>
</event>
<event>
 4    1  0.4895160E-005  0.3699578E+03  0.7818608E-02  0.1054709E+00
          2   -1    0    0  501    0  0.00000000000E+00  0.00000000000E+00  0.15350019003E+04  0.15350019003E+04  0.25500000000E-02 0.  1.
         -2   -1    0    0    0  501 -0.00000000000E+00 -0.00000000000E+00 -0.22291298702E+02  0.22291298848E+02  0.25500000000E-02 0. -1.
    5000001    1    1    2    0    0  0.64642966248E+01 -0.45475016443E+02  0.12884454099E+04  0.12955038937E+04  0.12700000000E+03 0.  0.
   -5000001    1    1    2    0    0 -0.64642966248E+01  0.45475016443E+02  0.22426519171E+03  0.26178930548E+03  0.12700000000E+03 0.  0.
<mgrwt>
<rscale>  0 0.36995776E+03</rscale>
<asrwt>0</asrwt>
<pdfrwt beam="1">  1        2 0.21928601E+00 0.36995776E+03</pdfrwt>
<pdfrwt beam="2">  1       -2 0.31844710E-02 0.36995776E+03</pdfrwt>
<totfact> 0.58231721E+03</totfact>
</mgrwt>
</event>
<event>
 4    1  0.4895160E-005  0.3731537E+03  0.7818608E-02  0.1053494E+00
         -2   -1    0    0    0  501 -0.00000000000E+00  0.00000000000E+00  0.34173480700E+03  0.34173480701E+03  0.25500000000E-02 0. -1.
          2   -1    0    0  501    0  0.00000000000E+00 -0.00000000000E+00 -0.10186529957E+03  0.10186529960E+03  0.25500000000E-02 0.  1.
    5000001    1    1    2    0    0 -0.13102894181E+03 -0.24402214492E+01  0.73780119693E+02  0.19684268931E+03  0.12700000000E+03 0.  0.
   -5000001    1    1    2    0    0  0.13102894181E+03  0.24402214492E+01  0.16608938774E+03  0.24675741730E+03  0.12700000000E+03 0.  0.
<mgrwt>
<rscale>  0 0.37315369E+03</rscale>
<asrwt>0</asrwt>
<pdfrwt beam="1">  1        2 0.14552186E-01 0.37315369E+03</pdfrwt>
<pdfrwt beam="2">  1       -2 0.48819258E-01 0.37315369E+03</pdfrwt>
<totfact> 0.16398137E+03</totfact>
</mgrwt>
</event>
<event>
 4    1  0.4895160E-005  0.4879488E+03  0.7818608E-02  0.1016973E+00
         -2   -1    0    0    0  501 -0.00000000000E+00  0.00000000000E+00  0.22659746737E+03  0.22659746738E+03  0.25500000000E-02 0. -1.
          2   -1    0    0  501    0  0.00000000000E+00 -0.00000000000E+00 -0.26268391588E+03  0.26268391590E+03  0.25500000000E-02 0.  1.
    5000001    1    1    2    0    0  0.55873192850E+02  0.15720577332E+03  0.10703331172E+03  0.23541579952E+03  0.12700000000E+03 0.  0.
   -5000001    1    1    2    0    0 -0.55873192850E+02 -0.15720577332E+03 -0.14311976024E+03  0.25386558376E+03  0.12700000000E+03 0.  0.
<mgrwt>
<rscale>  0 0.48794881E+03</rscale>
<asrwt>0</asrwt>
<pdfrwt beam="1">  1        2 0.37526273E-01 0.48794881E+03</pdfrwt>
<pdfrwt beam="2">  1       -2 0.32371067E-01 0.48794881E+03</pdfrwt>
<totfact> 0.12276376E+03</totfact>
</mgrwt>
</event>
<event>
 4    1  0.4895160E-005  0.2895571E+03  0.7818608E-02  0.1090581E+00
          2   -1    0    0  501    0  0.00000000000E+00  0.00000000000E+00  0.16307819263E+03  0.16307819265E+03  0.25500000000E-02 0.  1.
         -2   -1    0    0    0  501 -0.00000000000E+00 -0.00000000000E+00 -0.12853237015E+03  0.12853237017E+03  0.25500000000E-02 0. -1.
    5000001    1    1    2    0    0 -0.49350486912E+02  0.10229967154E+02 -0.30938328419E+02  0.14009390762E+03  0.12700000000E+03 0.  0.
   -5000001    1    1    2    0    0  0.49350486912E+02 -0.10229967154E+02  0.65484150901E+02  0.15151665521E+03  0.12700000000E+03 0.  0.
<mgrwt>
<rscale>  0 0.28955709E+03</rscale>
<asrwt>0</asrwt>
<pdfrwt beam="1">  1        2 0.23296885E-01 0.28955709E+03</pdfrwt>
<pdfrwt beam="2">  1       -2 0.18361767E-01 0.28955709E+03</pdfrwt>
<totfact> 0.56453740E+03</totfact>
</mgrwt>
</event>
<event>
 4    1  0.4895160E-005  0.3827226E+03  0.7818608E-02  0.1049932E+00
          2   -1    0    0  501    0  0.00000000000E+00  0.00000000000E+00  0.75963870209E+02  0.75963870252E+02  0.25500000000E-02 0.  1.
         -2   -1    0    0    0  501 -0.00000000000E+00 -0.00000000000E+00 -0.48206015027E+03  0.48206015028E+03  0.25500000000E-02 0. -1.
    5000001    1    1    2    0    0 -0.80890724420E+02  0.10196789808E+03 -0.28991333427E+03  0.34222726794E+03  0.12700000000E+03 0.  0.
   -5000001    1    1    2    0    0  0.80890724420E+02 -0.10196789808E+03 -0.11618294580E+03  0.21579675259E+03  0.12700000000E+03 0.  0.
<mgrwt>
<rscale>  0 0.38272264E+03</rscale>
<asrwt>0</asrwt>
<pdfrwt beam="1">  1        2 0.10851982E-01 0.38272264E+03</pdfrwt>
<pdfrwt beam="2">  1       -2 0.68865734E-01 0.38272264E+03</pdfrwt>
<totfact> 0.11515131E+03</totfact>
</mgrwt>
</event>
<event>
 4    1  0.4895160E-005  0.4596865E+03  0.7818608E-02  0.1024872E+00
          2   -1    0    0  501    0  0.00000000000E+00  0.00000000000E+00  0.23446961697E+04  0.23446961697E+04  0.25500000000E-02 0.  1.
         -2   -1    0    0    0  501 -0.00000000000E+00 -0.00000000000E+00 -0.22530812309E+02  0.22530812453E+02  0.25500000000E-02 0. -1.
    5000001    1    1    2    0    0  0.14012767342E+03  0.77826008864E+02  0.17013367128E+04  0.17135834566E+04  0.12700000000E+03 0.  0.
   -5000001    1    1    2    0    0 -0.14012767342E+03 -0.77826008864E+02  0.62082864459E+03  0.65364352552E+03  0.12700000000E+03 0.  0.
<mgrwt>
<rscale>  0 0.45968646E+03</rscale>
<asrwt>0</asrwt>
<pdfrwt beam="1">  1        2 0.33495653E+00 0.45968646E+03</pdfrwt>
<pdfrwt beam="2">  1       -2 0.32186881E-02 0.45968646E+03</pdfrwt>
<totfact> 0.22564300E+03</totfact>
</mgrwt>
</event>
<event>
 4    1  0.4895160E-005  0.4024240E+03  0.7818608E-02  0.1042944E+00
         -2   -1    0    0    0  501 -0.00000000000E+00  0.00000000000E+00  0.14877090853E+03  0.14877090855E+03  0.25500000000E-02 0. -1.
          2   -1    0    0  501    0  0.00000000000E+00 -0.00000000000E+00 -0.27213829688E+03  0.27213829689E+03  0.25500000000E-02 0.  1.
    5000001    1    1    2    0    0 -0.20341234658E+02  0.15150200137E+03 -0.94603888849E+02  0.22010342576E+03  0.12700000000E+03 0.  0.
   -5000001    1    1    2    0    0  0.20341234658E+02 -0.15150200137E+03 -0.28763499501E+02  0.20080577967E+03  0.12700000000E+03 0.  0.
<mgrwt>
<rscale>  0 0.40242396E+03</rscale>
<asrwt>0</asrwt>
<pdfrwt beam="1">  1        2 0.38876900E-01 0.40242396E+03</pdfrwt>
<pdfrwt beam="2">  1       -2 0.21252987E-01 0.40242396E+03</pdfrwt>
<totfact> 0.25121509E+03</totfact>
</mgrwt>
</event>
<event>
 4    1  0.4895160E-005  0.4308712E+03  0.7818608E-02  0.1033585E+00
          2   -1    0    0  501    0  0.00000000000E+00  0.00000000000E+00  0.28453558806E+03  0.28453558808E+03  0.25500000000E-02 0.  1.
         -2   -1    0    0    0  501 -0.00000000000E+00 -0.00000000000E+00 -0.16311665092E+03  0.16311665094E+03  0.25500000000E-02 0. -1.
    5000001    1    1    2    0    0 -0.17062290200E+03  0.74447567629E+01  0.95415473099E+02  0.23323960126E+03  0.12700000000E+03 0.  0.
   -5000001    1    1    2    0    0  0.17062290200E+03 -0.74447567629E+01  0.26003464042E+02  0.21441263776E+03  0.12700000000E+03 0.  0.
<mgrwt>
<rscale>  0 0.43087117E+03</rscale>
<asrwt>0</asrwt>
<pdfrwt beam="1">  1        2 0.40647941E-01 0.43087117E+03</pdfrwt>
<pdfrwt beam="2">  1       -2 0.23302379E-01 0.43087117E+03</pdfrwt>
<totfact> 0.20380813E+03</totfact>
</mgrwt>
</event>
<event>
 4    1  0.4895160E-005  0.4249184E+03  0.7818608E-02  0.1035477E+00
          2   -1    0    0  501    0  0.00000000000E+00  0.00000000000E+00  0.62082081136E+03  0.62082081136E+03  0.25500000000E-02 0.  1.
         -2   -1    0    0    0  501 -0.00000000000E+00 -0.00000000000E+00 -0.72708451123E+02  0.72708451168E+02  0.25500000000E-02 0. -1.
    5000001    1    1    2    0    0 -0.15093232451E+03  0.70658813659E+02  0.33145312543E+03  0.39212677655E+03  0.12700000000E+03 0.  0.
   -5000001    1    1    2    0    0  0.15093232451E+03 -0.70658813659E+02  0.21665923480E+03  0.30140248598E+03  0.12700000000E+03 0.  0.
<mgrwt>
<rscale>  0 0.42491844E+03</rscale>
<asrwt>0</asrwt>
<pdfrwt beam="1">  1        2 0.88688687E-01 0.42491844E+03</pdfrwt>
<pdfrwt beam="2">  1       -2 0.10386922E-01 0.42491844E+03</pdfrwt>
<totfact> 0.33252838E+03</totfact>
</mgrwt>
</event>
<event>
 4    1  0.4895160E-005  0.2697461E+03  0.7818608E-02  0.1101425E+00
         -2   -1    0    0    0  501 -0.00000000000E+00  0.00000000000E+00  0.30547065216E+03  0.30547065217E+03  0.25500000000E-02 0. -1.
          2   -1    0    0  501    0  0.00000000000E+00 -0.00000000000E+00 -0.59549872048E+02  0.59549872102E+02  0.25500000000E-02 0.  1.
    5000001    1    1    2    0    0  0.36493059504E+02 -0.79819765961E+01  0.15788981748E+03  0.20604283488E+03  0.12700000000E+03 0.  0.
   -5000001    1    1    2    0    0 -0.36493059504E+02  0.79819765961E+01  0.88030962633E+02  0.15897768939E+03  0.12700000000E+03 0.  0.
<mgrwt>
<rscale>  0 0.26974609E+03</rscale>
<asrwt>0</asrwt>
<pdfrwt beam="1">  1        2 0.85071246E-02 0.26974609E+03</pdfrwt>
<pdfrwt beam="2">  1       -2 0.43638664E-01 0.26974609E+03</pdfrwt>
<totfact> 0.39325696E+03</totfact>
</mgrwt>
</event>
<event>
 4    1  0.4895160E-005  0.3982795E+03  0.7818608E-02  0.1044377E+00
          2   -1    0    0  501    0  0.00000000000E+00  0.00000000000E+00  0.19431505218E+03  0.19431505219E+03  0.25500000000E-02 0.  1.
         -2   -1    0    0    0  501 -0.00000000000E+00 -0.00000000000E+00 -0.20408424819E+03  0.20408424821E+03  0.25500000000E-02 0. -1.
    5000001    1    1    2    0    0  0.24913145031E+02  0.15061564675E+03 -0.19785504340E+02  0.19956503707E+03  0.12700000000E+03 0.  0.
   -5000001    1    1    2    0    0 -0.24913145031E+02 -0.15061564675E+03  0.10016308328E+02  0.19883426333E+03  0.12700000000E+03 0.  0.
<mgrwt>
<rscale>  0 0.39827951E+03</rscale>
<asrwt>0</asrwt>
<pdfrwt beam="1">  1        2 0.27759293E-01 0.39827951E+03</pdfrwt>
<pdfrwt beam="2">  1       -2 0.29154892E-01 0.39827951E+03</pdfrwt>
<totfact> 0.20759229E+03</totfact>
</mgrwt>
</event>
<event>
 4    1  0.4895160E-005  0.4271524E+03  0.7818608E-02  0.1034763E+00
          2   -1    0    0  501    0  0.00000000000E+00  0.00000000000E+00  0.15424611710E+04  0.15424611710E+04  0.25500000000E-02 0.  1.
         -2   -1    0    0    0  501 -0.00000000000E+00 -0.00000000000E+00 -0.29572736631E+02  0.29572736741E+02  0.25500000000E-02 0. -1.
    5000001    1    1    2    0    0 -0.68612973141E+02  0.13564958977E+03  0.46254688310E+03  0.50317707654E+03  0.12700000000E+03 0.  0.
   -5000001    1    1    2    0    0  0.68612973141E+02 -0.13564958977E+03  0.10503415512E+04  0.10688568312E+04  0.12700000000E+03 0.  0.
<mgrwt>
<rscale>  0 0.42715242E+03</rscale>
<asrwt>0</asrwt>
<pdfrwt beam="1">  1        2 0.22035165E+00 0.42715242E+03</pdfrwt>
<pdfrwt beam="2">  1       -2 0.42246756E-02 0.42715242E+03</pdfrwt>
<totfact> 0.37632578E+03</totfact>
</mgrwt>
</event>
<event>
 4    1  0.4895160E-005  0.5065684E+03  0.7818608E-02  0.1012079E+00
         -2   -1    0    0    0  501 -0.00000000000E+00  0.00000000000E+00  0.60311354534E+02  0.60311354588E+02  0.25500000000E-02 0.  1.
          2   -1    0    0  501    0  0.00000000000E+00 -0.00000000000E+00 -0.10636950278E+04  0.10636950278E+04  0.25500000000E-02 0. -1.
    5000001    1    1    2    0    0  0.18939934621E+03  0.11002961231E+03 -0.51661937332E+03  0.57532877976E+03  0.12700000000E+03 0.  0.
   -5000001    1    1    2    0    0 -0.18939934621E+03 -0.11002961231E+03 -0.48676429997E+03  0.54867760265E+03  0.12700000000E+03 0.  0.
<mgrwt>
<rscale>  0 0.50656841E+03</rscale>
<asrwt>0</asrwt>
<pdfrwt beam="1">  1        2 0.15195642E+00 0.50656841E+03</pdfrwt>
<pdfrwt beam="2">  1       -2 0.86159084E-02 0.50656841E+03</pdfrwt>
<totfact> 0.22511929E+03</totfact>
</mgrwt>
</event>
<event>
 4    1  0.4895160E-005  0.4684996E+03  0.7818608E-02  0.1022345E+00
         -2   -1    0    0    0  501 -0.00000000000E+00  0.00000000000E+00  0.12492818552E+03  0.12492818555E+03  0.25500000000E-02 0.  1.
          2   -1    0    0  501    0  0.00000000000E+00 -0.00000000000E+00 -0.43923616231E+03  0.43923616232E+03  0.25500000000E-02 0. -1.
    5000001    1    1    2    0    0  0.79235394164E+02  0.88944595496E+02 -0.34584999429E+03  0.38720873867E+03  0.12700000000E+03 0.  0.
   -5000001    1    1    2    0    0 -0.79235394164E+02 -0.88944595496E+02  0.31542017499E+02  0.17695560919E+03  0.12700000000E+03 0.  0.
<mgrwt>
<rscale>  0 0.46849963E+03</rscale>
<asrwt>0</asrwt>
<pdfrwt beam="1">  1        2 0.62748023E-01 0.46849963E+03</pdfrwt>
<pdfrwt beam="2">  1       -2 0.17846884E-01 0.46849963E+03</pdfrwt>
<totfact> 0.20118333E+03</totfact>
</mgrwt>
</event>
<event>
 4    1  0.4895160E-005  0.4807484E+03  0.7818608E-02  0.1018930E+00
          2   -1    0    0  501    0  0.00000000000E+00  0.00000000000E+00  0.23284000389E+04  0.23284000389E+04  0.25500000000E-02 0. -1.
         -2   -1    0    0    0  501 -0.00000000000E+00 -0.00000000000E+00 -0.24815218394E+02  0.24815218525E+02  0.25500000000E-02 0.  1.
    5000001    1    1    2    0    0 -0.83603087594E+02  0.18528075508E+03  0.10625599610E+04  0.10892571345E+04  0.12700000000E+03 0.  0.
   -5000001    1    1    2    0    0  0.83603087594E+02 -0.18528075508E+03  0.12410248595E+04  0.12639581229E+04  0.12700000000E+03 0.  0.
<mgrwt>
<rscale>  0 0.48074840E+03</rscale>
<asrwt>0</asrwt>
<pdfrwt beam="1">  1        2 0.33262863E+00 0.48074840E+03</pdfrwt>
<pdfrwt beam="2">  1       -2 0.35450306E-02 0.48074840E+03</pdfrwt>
<totfact> 0.19836952E+03</totfact>
</mgrwt>
</event>
<event>
 4    1  0.4895160E-005  0.3683763E+03  0.7818608E-02  0.1055316E+00
         -2   -1    0    0    0  501 -0.00000000000E+00  0.00000000000E+00  0.35943945328E+03  0.35943945329E+03  0.25500000000E-02 0. -1.
          2   -1    0    0  501    0  0.00000000000E+00 -0.00000000000E+00 -0.94383829546E+02  0.94383829581E+02  0.25500000000E-02 0.  1.
    5000001    1    1    2    0    0  0.89069756733E+02  0.52935017022E+01  0.10353887967E+02  0.15555592474E+03  0.12700000000E+03 0.  0.
   -5000001    1    1    2    0    0 -0.89069756733E+02 -0.52935017022E+01  0.25470173576E+03  0.29826735813E+03  0.12700000000E+03 0.  0.
<mgrwt>
<rscale>  0 0.36837629E+03</rscale>
<asrwt>0</asrwt>
<pdfrwt beam="1">  1        2 0.13483404E-01 0.36837629E+03</pdfrwt>
<pdfrwt beam="2">  1       -2 0.51348493E-01 0.36837629E+03</pdfrwt>
<totfact> 0.16240992E+03</totfact>
</mgrwt>
</event>
<event>
 4    1  0.4895160E-005  0.4010329E+03  0.7818608E-02  0.1043423E+00
          2   -1    0    0  501    0  0.00000000000E+00  0.00000000000E+00  0.10496835606E+04  0.10496835606E+04  0.25500000000E-02 0.  1.
         -2   -1    0    0    0  501 -0.00000000000E+00 -0.00000000000E+00 -0.38303787994E+02  0.38303788079E+02  0.25500000000E-02 0. -1.
    5000001    1    1    2    0    0  0.15084188930E+03 -0.32337278338E+02  0.55099566736E+03  0.58610937596E+03  0.12700000000E+03 0.  0.
   -5000001    1    1    2    0    0 -0.15084188930E+03  0.32337278338E+02  0.46038410522E+03  0.50187797269E+03  0.12700000000E+03 0.  0.
<mgrwt>
<rscale>  0 0.40103295E+03</rscale>
<asrwt>0</asrwt>
<pdfrwt beam="1">  1        2 0.14995482E+00 0.40103295E+03</pdfrwt>
<pdfrwt beam="2">  1       -2 0.54719689E-02 0.40103295E+03</pdfrwt>
<totfact> 0.46702594E+03</totfact>
</mgrwt>
</event>
<event>
 4    1  0.4895160E-005  0.5068742E+03  0.7818608E-02  0.1012000E+00
          2   -1    0    0  501    0  0.00000000000E+00  0.00000000000E+00  0.47572210408E+04  0.47572210408E+04  0.25500000000E-02 0.  1.
         -2   -1    0    0    0  501 -0.00000000000E+00 -0.00000000000E+00 -0.13501656389E+02  0.13501656630E+02  0.25500000000E-02 0. -1.
    5000001    1    1    2    0    0  0.14938773998E+03  0.11602541123E+03  0.34166717669E+04  0.34242595631E+04  0.12700000000E+03 0.  0.
   -5000001    1    1    2    0    0 -0.14938773998E+03 -0.11602541123E+03  0.13270476175E+04  0.13464631343E+04  0.12700000000E+03 0.  0.
<mgrwt>
<rscale>  0 0.50687420E+03</rscale>
<asrwt>0</asrwt>
<pdfrwt beam="1">  1        2 0.67960468E+00 0.50687420E+03</pdfrwt>
<pdfrwt beam="2">  1       -2 0.19288033E-02 0.50687420E+03</pdfrwt>
<totfact> 0.15387424E+02</totfact>
</mgrwt>
</event>
<event>
 4    1  0.4895160E-005  0.1096213E+04  0.7818608E-02  0.9208891E-01
         -2   -1    0    0    0  501 -0.00000000000E+00  0.00000000000E+00  0.67270708882E+03  0.67270708882E+03  0.25500000000E-02 0. -1.
          2   -1    0    0  501    0  0.00000000000E+00 -0.00000000000E+00 -0.44658437943E+03  0.44658437943E+03  0.25500000000E-02 0.  1.
    5000001    1    1    2    0    0 -0.47335093115E+03 -0.16692629261E+03 -0.70631750906E+02  0.52253548723E+03  0.12700000000E+03 0.  0.
   -5000001    1    1    2    0    0  0.47335093115E+03  0.16692629261E+03  0.29675446029E+03  0.59675598102E+03  0.12700000000E+03 0.  0.
<mgrwt>
<rscale>  0 0.10962125E+04</rscale>
<asrwt>0</asrwt>
<pdfrwt beam="1">  1        2 0.63797768E-01 0.10962125E+04</pdfrwt>
<pdfrwt beam="2">  1       -2 0.96101013E-01 0.10962125E+04</pdfrwt>
<totfact> 0.68881422E+01</totfact>
</mgrwt>
</event>
<event>
 4    1  0.4895160E-005  0.3887843E+03  0.7818608E-02  0.1047734E+00
          2   -1    0    0  501    0  0.00000000000E+00  0.00000000000E+00  0.12186448482E+04  0.12186448482E+04  0.25500000000E-02 0.  1.
         -2   -1    0    0    0  501 -0.00000000000E+00 -0.00000000000E+00 -0.31008466495E+02  0.31008466600E+02  0.25500000000E-02 0. -1.
    5000001    1    1    2    0    0 -0.11842980372E+03  0.86942472412E+02  0.56603834920E+03  0.59842545458E+03  0.12700000000E+03 0.  0.
   -5000001    1    1    2    0    0  0.11842980372E+03 -0.86942472412E+02  0.62159803246E+03  0.65122786018E+03  0.12700000000E+03 0.  0.
<mgrwt>
<rscale>  0 0.38878430E+03</rscale>
<asrwt>0</asrwt>
<pdfrwt beam="1">  1        2 0.17409210E+00 0.38878430E+03</pdfrwt>
<pdfrwt beam="2">  1       -2 0.44297814E-02 0.38878430E+03</pdfrwt>
<totfact> 0.51817084E+03</totfact>
</mgrwt>
</event>
<event>
 4    1  0.4895160E-005  0.4189849E+03  0.7818608E-02  0.1037397E+00
          2   -1    0    0  501    0  0.00000000000E+00  0.00000000000E+00  0.14733403005E+04  0.14733403005E+04  0.25500000000E-02 0.  1.
         -2   -1    0    0    0  501 -0.00000000000E+00 -0.00000000000E+00 -0.29787481026E+02  0.29787481135E+02  0.25500000000E-02 0. -1.
    5000001    1    1    2    0    0 -0.30884529722E+01 -0.16180632555E+03  0.86380294850E+03  0.88796135016E+03  0.12700000000E+03 0.  0.
   -5000001    1    1    2    0    0  0.30884529722E+01  0.16180632555E+03  0.57974987093E+03  0.61516643144E+03  0.12700000000E+03 0.  0.
<mgrwt>
<rscale>  0 0.41898495E+03</rscale>
<asrwt>0</asrwt>
<pdfrwt beam="1">  1        2 0.21047718E+00 0.41898495E+03</pdfrwt>
<pdfrwt beam="2">  1       -2 0.42553545E-02 0.41898495E+03</pdfrwt>
<totfact> 0.40389847E+03</totfact>
</mgrwt>
</event>
<event>
 4    1  0.4895160E-005  0.3675247E+03  0.7818608E-02  0.1055643E+00
         -2   -1    0    0    0  501 -0.00000000000E+00  0.00000000000E+00  0.62542004584E+02  0.62542004636E+02  0.25500000000E-02 0. -1.
          2   -1    0    0  501    0  0.00000000000E+00 -0.00000000000E+00 -0.53993471929E+03  0.53993471929E+03  0.25500000000E-02 0.  1.
    5000001    1    1    2    0    0 -0.13094728649E+03 -0.20570799299E+02 -0.25233791298E+03  0.31204770782E+03  0.12700000000E+03 0.  0.
   -5000001    1    1    2    0    0  0.13094728649E+03  0.20570799299E+02 -0.22505480172E+03  0.29042901611E+03  0.12700000000E+03 0.  0.
<mgrwt>
<rscale>  0 0.36752469E+03</rscale>
<asrwt>0</asrwt>
<pdfrwt beam="1">  1        2 0.77133529E-01 0.36752469E+03</pdfrwt>
<pdfrwt beam="2">  1       -2 0.89345724E-02 0.36752469E+03</pdfrwt>
<totfact> 0.49554910E+03</totfact>
</mgrwt>
</event>
<event>
 4    1  0.4895160E-005  0.2935583E+03  0.7818608E-02  0.1088506E+00
         -2   -1    0    0    0  501 -0.00000000000E+00  0.00000000000E+00  0.15914862399E+02  0.15914862603E+02  0.25500000000E-02 0. -1.
          2   -1    0    0  501    0  0.00000000000E+00 -0.00000000000E+00 -0.13537103363E+04  0.13537103363E+04  0.25500000000E-02 0.  1.
    5000001    1    1    2    0    0 -0.61592700305E+01  0.46187051214E+02 -0.40316601623E+03  0.42525641318E+03  0.12700000000E+03 0.  0.
   -5000001    1    1    2    0    0  0.61592700305E+01 -0.46187051214E+02 -0.93462945764E+03  0.94436878570E+03  0.12700000000E+03 0.  0.
<mgrwt>
<rscale>  0 0.29355827E+03</rscale>
<asrwt>0</asrwt>
<pdfrwt beam="1">  1        2 0.19338712E+00 0.29355827E+03</pdfrwt>
<pdfrwt beam="2">  1       -2 0.22735526E-02 0.29355827E+03</pdfrwt>
<totfact> 0.11881458E+04</totfact>
</mgrwt>
</event>
<event>
 4    1  0.4895160E-005  0.3198040E+03  0.7818608E-02  0.1075740E+00
         -2   -1    0    0    0  501 -0.00000000000E+00  0.00000000000E+00  0.12620704610E+03  0.12620704612E+03  0.25500000000E-02 0. -1.
          2   -1    0    0  501    0  0.00000000000E+00 -0.00000000000E+00 -0.20259284803E+03  0.20259284805E+03  0.25500000000E-02 0.  1.
    5000001    1    1    2    0    0 -0.62401541419E+02 -0.20534770990E+02  0.35402901387E+02  0.14730239176E+03  0.12700000000E+03 0.  0.
   -5000001    1    1    2    0    0  0.62401541419E+02  0.20534770990E+02 -0.11178870332E+03  0.18149750241E+03  0.12700000000E+03 0.  0.
<mgrwt>
<rscale>  0 0.31980397E+03</rscale>
<asrwt>0</asrwt>
<pdfrwt beam="1">  1        2 0.28941835E-01 0.31980397E+03</pdfrwt>
<pdfrwt beam="2">  1       -2 0.18029578E-01 0.31980397E+03</pdfrwt>
<totfact> 0.45843233E+03</totfact>
</mgrwt>
</event>
<event>
 4    1  0.4895160E-005  0.4297186E+03  0.7818608E-02  0.1033949E+00
         -2   -1    0    0    0  501 -0.00000000000E+00  0.00000000000E+00  0.70098246798E+02  0.70098246844E+02  0.25500000000E-02 0. -1.
          2   -1    0    0  501    0  0.00000000000E+00 -0.00000000000E+00 -0.65856887288E+03  0.65856887288E+03  0.25500000000E-02 0.  1.
    5000001    1    1    2    0    0  0.67730888591E+02 -0.13783748401E+03 -0.15806354254E+03  0.25436141364E+03  0.12700000000E+03 0.  0.
   -5000001    1    1    2    0    0 -0.67730888591E+02  0.13783748401E+03 -0.43040708354E+03  0.47430570609E+03  0.12700000000E+03 0.  0.
<mgrwt>
<rscale>  0 0.42971862E+03</rscale>
<asrwt>0</asrwt>
<pdfrwt beam="1">  1        2 0.94081264E-01 0.42971862E+03</pdfrwt>
<pdfrwt beam="2">  1       -2 0.10014036E-01 0.42971862E+03</pdfrwt>
<totfact> 0.32901703E+03</totfact>
</mgrwt>
</event>
<event>
 4    1  0.4895160E-005  0.5137432E+03  0.7818608E-02  0.1010253E+00
         -2   -1    0    0    0  501 -0.00000000000E+00  0.00000000000E+00  0.15154596229E+04  0.15154596229E+04  0.25500000000E-02 0. -1.
          2   -1    0    0  501    0  0.00000000000E+00 -0.00000000000E+00 -0.43539932837E+02  0.43539932911E+02  0.25500000000E-02 0.  1.
    5000001    1    1    2    0    0  0.20921757118E+03 -0.44091085986E+02  0.93116661595E+03  0.96380303102E+03  0.12700000000E+03 0.  0.
   -5000001    1    1    2    0    0 -0.20921757118E+03  0.44091085986E+02  0.54075307407E+03  0.59519652474E+03  0.12700000000E+03 0.  0.
<mgrwt>
<rscale>  0 0.51374317E+03</rscale>
<asrwt>0</asrwt>
<pdfrwt beam="1">  1        2 0.62199914E-02 0.51374317E+03</pdfrwt>
<pdfrwt beam="2">  1       -2 0.21649420E+00 0.51374317E+03</pdfrwt>
<totfact> 0.13264314E+02</totfact>
</mgrwt>
</event>
<event>
 4    1  0.4895160E-005  0.6951712E+03  0.7818608E-02  0.9725526E-01
         -2   -1    0    0    0  501 -0.00000000000E+00  0.00000000000E+00  0.24834841767E+03  0.24834841768E+03  0.25500000000E-02 0. -1.
          2   -1    0    0  501    0  0.00000000000E+00 -0.00000000000E+00 -0.48647681066E+03  0.48647681066E+03  0.25500000000E-02 0.  1.
    5000001    1    1    2    0    0  0.11132046860E+02 -0.25886562213E+03  0.85771402533E+02  0.30103333085E+03  0.12700000000E+03 0.  0.
   -5000001    1    1    2    0    0 -0.11132046860E+02  0.25886562213E+03 -0.32389979552E+03  0.43379189749E+03  0.12700000000E+03 0.  0.
<mgrwt>
<rscale>  0 0.69517119E+03</rscale>
<asrwt>0</asrwt>
<pdfrwt beam="1">  1        2 0.69496687E-01 0.69517119E+03</pdfrwt>
<pdfrwt beam="2">  1       -2 0.35478345E-01 0.69517119E+03</pdfrwt>
<totfact> 0.52006684E+02</totfact>
</mgrwt>
</event>
<event>
 4    1  0.4895160E-005  0.6911750E+03  0.7818608E-02  0.9732444E-01
          2   -1    0    0  501    0  0.00000000000E+00  0.00000000000E+00  0.12683630643E+04  0.12683630643E+04  0.25500000000E-02 0.  1.
         -2   -1    0    0    0  501 -0.00000000000E+00 -0.00000000000E+00 -0.94161307452E+02  0.94161307486E+02  0.25500000000E-02 0. -1.
    5000001    1    1    2    0    0  0.27752965499E+03 -0.14602593148E+03  0.72587147876E+03  0.80085247440E+03  0.12700000000E+03 0.  0.
   -5000001    1    1    2    0    0 -0.27752965499E+03  0.14602593148E+03  0.44833027806E+03  0.56167189737E+03  0.12700000000E+03 0.  0.
<mgrwt>
<rscale>  0 0.69117501E+03</rscale>
<asrwt>0</asrwt>
<pdfrwt beam="1">  1        2 0.18119472E+00 0.69117501E+03</pdfrwt>
<pdfrwt beam="2">  1       -2 0.13451615E-01 0.69117501E+03</pdfrwt>
<totfact> 0.82931337E+02</totfact>
</mgrwt>
</event>
<event>
 4    1  0.4895160E-005  0.4812423E+03  0.7818608E-02  0.1018794E+00
         -2   -1    0    0    0  501 -0.00000000000E+00  0.00000000000E+00  0.27647288387E+02  0.27647288505E+02  0.25500000000E-02 0. -1.
          2   -1    0    0  501    0  0.00000000000E+00 -0.00000000000E+00 -0.20941850117E+04  0.20941850117E+04  0.25500000000E-02 0.  1.
    5000001    1    1    2    0    0 -0.15655366922E+02  0.20348138942E+03 -0.10815216717E+04  0.11079115004E+04  0.12700000000E+03 0.  0.
   -5000001    1    1    2    0    0  0.15655366922E+02 -0.20348138942E+03 -0.98501605158E+03  0.10139207998E+04  0.12700000000E+03 0.  0.
<mgrwt>
<rscale>  0 0.48124230E+03</rscale>
<asrwt>0</asrwt>
<pdfrwt beam="1">  1        2 0.29916919E+00 0.48124230E+03</pdfrwt>
<pdfrwt beam="2">  1       -2 0.39496140E-02 0.48124230E+03</pdfrwt>
<totfact> 0.22035446E+03</totfact>
</mgrwt>
</event>
<event>
 4    1  0.4895160E-005  0.3282489E+03  0.7818608E-02  0.1071914E+00
          2   -1    0    0  501    0  0.00000000000E+00  0.00000000000E+00  0.36658705999E+03  0.36658706000E+03  0.25500000000E-02 0.  1.
         -2   -1    0    0    0  501 -0.00000000000E+00 -0.00000000000E+00 -0.73480056189E+02  0.73480056233E+02  0.25500000000E-02 0. -1.
    5000001    1    1    2    0    0 -0.24711014313E+02  0.78014458451E+02  0.23251156057E+03  0.27728598189E+03  0.12700000000E+03 0.  0.
   -5000001    1    1    2    0    0  0.24711014313E+02 -0.78014458451E+02  0.60595443229E+02  0.16278113434E+03  0.12700000000E+03 0.  0.
<mgrwt>
<rscale>  0 0.32824892E+03</rscale>
<asrwt>0</asrwt>
<pdfrwt beam="1">  1        2 0.52369581E-01 0.32824892E+03</pdfrwt>
<pdfrwt beam="2">  1       -2 0.10497151E-01 0.32824892E+03</pdfrwt>
<totfact> 0.58565060E+03</totfact>
</mgrwt>
</event>
<event>
 4    1  0.4895160E-005  0.5284023E+03  0.7818608E-02  0.1006620E+00
         -2   -1    0    0    0  501 -0.00000000000E+00  0.00000000000E+00  0.22664297314E+03  0.22664297315E+03  0.25500000000E-02 0. -1.
          2   -1    0    0  501    0  0.00000000000E+00 -0.00000000000E+00 -0.30798331869E+03  0.30798331870E+03  0.25500000000E-02 0.  1.
    5000001    1    1    2    0    0  0.87048254649E+02  0.15842158185E+03  0.10594512968E+03  0.24500646265E+03  0.12700000000E+03 0.  0.
   -5000001    1    1    2    0    0 -0.87048254649E+02 -0.15842158185E+03 -0.18728547523E+03  0.28961982920E+03  0.12700000000E+03 0.  0.
<mgrwt>
<rscale>  0 0.52840233E+03</rscale>
<asrwt>0</asrwt>
<pdfrwt beam="1">  1        2 0.43997617E-01 0.52840233E+03</pdfrwt>
<pdfrwt beam="2">  1       -2 0.32377568E-01 0.52840233E+03</pdfrwt>
<totfact> 0.10302194E+03</totfact>
</mgrwt>
</event>
<event>
 4    1  0.4895160E-005  0.3639493E+03  0.7818608E-02  0.1057031E+00
          2   -1    0    0  501    0  0.00000000000E+00  0.00000000000E+00  0.23839263334E+04  0.23839263334E+04  0.25500000000E-02 0.  1.
         -2   -1    0    0    0  501 -0.00000000000E+00 -0.00000000000E+00 -0.13890851298E+02  0.13890851532E+02  0.25500000000E-02 0. -1.
    5000001    1    1    2    0    0 -0.30550064664E-01  0.11502005804E+03  0.15887995897E+04  0.15980121248E+04  0.12700000000E+03 0.  0.
   -5000001    1    1    2    0    0  0.30550064664E-01 -0.11502005804E+03  0.78123589238E+03  0.79980506014E+03  0.12700000000E+03 0.  0.
<mgrwt>
<rscale>  0 0.36394926E+03</rscale>
<asrwt>0</asrwt>
<pdfrwt beam="1">  1        2 0.34056103E+00 0.36394926E+03</pdfrwt>
<pdfrwt beam="2">  1       -2 0.19844066E-02 0.36394926E+03</pdfrwt>
<totfact> 0.44686242E+03</totfact>
</mgrwt>
</event>
<event>
 4    1  0.4895160E-005  0.2880955E+03  0.7818608E-02  0.1091348E+00
          2   -1    0    0  501    0  0.00000000000E+00  0.00000000000E+00  0.56704480227E+03  0.56704480228E+03  0.25500000000E-02 0.  1.
         -2   -1    0    0    0  501 -0.00000000000E+00 -0.00000000000E+00 -0.36592782819E+02  0.36592782908E+02  0.25500000000E-02 0. -1.
    5000001    1    1    2    0    0  0.60952944025E+02  0.29340110027E+02  0.27922577850E+03  0.31412121677E+03  0.12700000000E+03 0.  0.
   -5000001    1    1    2    0    0 -0.60952944025E+02 -0.29340110027E+02  0.25122624095E+03  0.28951636842E+03  0.12700000000E+03 0.  0.
<mgrwt>
<rscale>  0 0.28809545E+03</rscale>
<asrwt>0</asrwt>
<pdfrwt beam="1">  1        2 0.81006397E-01 0.28809545E+03</pdfrwt>
<pdfrwt beam="2">  1       -2 0.52275406E-02 0.28809545E+03</pdfrwt>
<totfact> 0.10703372E+04</totfact>
</mgrwt>
</event>
<event>
 4    1  0.4895160E-005  0.2961228E+03  0.7818608E-02  0.1087195E+00
          2   -1    0    0  501    0  0.00000000000E+00  0.00000000000E+00  0.12838555610E+04  0.12838555610E+04  0.25500000000E-02 0.  1.
         -2   -1    0    0    0  501 -0.00000000000E+00 -0.00000000000E+00 -0.17075271726E+02  0.17075271916E+02  0.25500000000E-02 0. -1.
    5000001    1    1    2    0    0  0.19140131998E+02 -0.61247414490E+02  0.81322194266E+03  0.82557647645E+03  0.12700000000E+03 0.  0.
   -5000001    1    1    2    0    0 -0.19140131998E+02  0.61247414490E+02  0.45355834658E+03  0.47535435644E+03  0.12700000000E+03 0.  0.
<mgrwt>
<rscale>  0 0.29612283E+03</rscale>
<asrwt>0</asrwt>
<pdfrwt beam="1">  1        2 0.18340798E+00 0.29612283E+03</pdfrwt>
<pdfrwt beam="2">  1       -2 0.24393240E-02 0.29612283E+03</pdfrwt>
<totfact> 0.11653360E+04</totfact>
</mgrwt>
</event>
<event>
 4    1  0.4895160E-005  0.7175509E+03  0.7818608E-02  0.9687680E-01
          2   -1    0    0  501    0  0.00000000000E+00  0.00000000000E+00  0.10723027533E+04  0.10723027533E+04  0.25500000000E-02 0.  1.
         -2   -1    0    0    0  501 -0.00000000000E+00 -0.00000000000E+00 -0.12004056829E+03  0.12004056831E+03  0.25500000000E-02 0. -1.
    5000001    1    1    2    0    0 -0.25744611944E+03 -0.19316944518E+03  0.31850830393E+03  0.47028659202E+03  0.12700000000E+03 0.  0.
   -5000001    1    1    2    0    0  0.25744611944E+03  0.19316944518E+03  0.63375388109E+03  0.72205672960E+03  0.12700000000E+03 0.  0.
<mgrwt>
<rscale>  0 0.71755092E+03</rscale>
<asrwt>0</asrwt>
<pdfrwt beam="1">  1        2 0.15318611E+00 0.71755092E+03</pdfrwt>
<pdfrwt beam="2">  1       -2 0.17148652E-01 0.71755092E+03</pdfrwt>
<totfact> 0.71079592E+02</totfact>
</mgrwt>
</event>
<event>
 4    1  0.4895160E-005  0.4428687E+03  0.7818608E-02  0.1029870E+00
          2   -1    0    0  501    0  0.00000000000E+00  0.00000000000E+00  0.13719254986E+03  0.13719254989E+03  0.25500000000E-02 0.  1.
         -2   -1    0    0    0  501 -0.00000000000E+00 -0.00000000000E+00 -0.35740399185E+03  0.35740399186E+03  0.25500000000E-02 0. -1.
    5000001    1    1    2    0    0  0.10836806584E+03 -0.51664300810E+02 -0.26197158290E+03  0.31491419136E+03  0.12700000000E+03 0.  0.
   -5000001    1    1    2    0    0 -0.10836806584E+03  0.51664300810E+02  0.41760140910E+02  0.17968235039E+03  0.12700000000E+03 0.  0.
<mgrwt>
<rscale>  0 0.44286867E+03</rscale>
<asrwt>0</asrwt>
<pdfrwt beam="1">  1        2 0.19598936E-01 0.44286867E+03</pdfrwt>
<pdfrwt beam="2">  1       -2 0.51057713E-01 0.44286867E+03</pdfrwt>
<totfact> 0.10555707E+03</totfact>
</mgrwt>
</event>
<event>
 4    1  0.4895160E-005  0.5406269E+03  0.7818608E-02  0.1003687E+00
          2   -1    0    0  501    0  0.00000000000E+00  0.00000000000E+00  0.27801873660E+03  0.27801873661E+03  0.25500000000E-02 0.  1.
         -2   -1    0    0    0  501 -0.00000000000E+00 -0.00000000000E+00 -0.26282168571E+03  0.26282168573E+03  0.25500000000E-02 0. -1.
    5000001    1    1    2    0    0  0.10775123276E+02 -0.21815360656E+03 -0.88529251861E+02  0.26771912105E+03  0.12700000000E+03 0.  0.
   -5000001    1    1    2    0    0 -0.10775123276E+02  0.21815360656E+03  0.10372630275E+03  0.27312130129E+03  0.12700000000E+03 0.  0.
<mgrwt>
<rscale>  0 0.54062687E+03</rscale>
<asrwt>0</asrwt>
<pdfrwt beam="1">  1        2 0.39716962E-01 0.54062687E+03</pdfrwt>
<pdfrwt beam="2">  1       -2 0.37545955E-01 0.54062687E+03</pdfrwt>
<totfact> 0.87150588E+02</totfact>
</mgrwt>
</event>
<event>
 4    1  0.4895160E-005  0.8929892E+03  0.7818608E-02  0.9434388E-01
          2   -1    0    0  501    0  0.00000000000E+00  0.00000000000E+00  0.15220255560E+04  0.15220255560E+04  0.25500000000E-02 0.  1.
         -2   -1    0    0    0  501 -0.00000000000E+00 -0.00000000000E+00 -0.13098164253E+03  0.13098164255E+03  0.25500000000E-02 0. -1.
    5000001    1    1    2    0    0 -0.29944432345E+03  0.24365138092E+03  0.35321707147E+03  0.53844609558E+03  0.12700000000E+03 0.  0.
   -5000001    1    1    2    0    0  0.29944432345E+03 -0.24365138092E+03  0.10378268420E+04  0.11145611029E+04  0.12700000000E+03 0.  0.
<mgrwt>
<rscale>  0 0.89298915E+03</rscale>
<asrwt>0</asrwt>
<pdfrwt beam="1">  1        2 0.21743221E+00 0.89298915E+03</pdfrwt>
<pdfrwt beam="2">  1       -2 0.18711664E-01 0.89298915E+03</pdfrwt>
<totfact> 0.34210738E+02</totfact>
</mgrwt>
</event>
<event>
 4    1  0.4895160E-005  0.5565897E+03  0.7818608E-02  0.9999801E-01
          2   -1    0    0  501    0  0.00000000000E+00  0.00000000000E+00  0.10024320452E+04  0.10024320453E+04  0.25500000000E-02 0.  1.
         -2   -1    0    0    0  501 -0.00000000000E+00 -0.00000000000E+00 -0.77260116666E+02  0.77260116708E+02  0.25500000000E-02 0. -1.
    5000001    1    1    2    0    0  0.16878484871E+03 -0.18040978123E+03  0.42995274503E+03  0.51188316760E+03  0.12700000000E+03 0.  0.
   -5000001    1    1    2    0    0 -0.16878484871E+03  0.18040978123E+03  0.49521918356E+03  0.56780899436E+03  0.12700000000E+03 0.  0.
<mgrwt>
<rscale>  0 0.55658968E+03</rscale>
<asrwt>0</asrwt>
<pdfrwt beam="1">  1        2 0.14320457E+00 0.55658968E+03</pdfrwt>
<pdfrwt beam="2">  1       -2 0.11037160E-01 0.55658968E+03</pdfrwt>
<totfact> 0.16414472E+03</totfact>
</mgrwt>
</event>
<event>
 4    1  0.4895160E-005  0.2637545E+03  0.7818608E-02  0.1104908E+00
         -2   -1    0    0    0  501 -0.00000000000E+00  0.00000000000E+00  0.15141219014E+02  0.15141219229E+02  0.25500000000E-02 0. -1.
          2   -1    0    0  501    0  0.00000000000E+00 -0.00000000000E+00 -0.11486263388E+04  0.11486263388E+04  0.25500000000E-02 0.  1.
    5000001    1    1    2    0    0  0.31042945149E+01  0.29330549134E+02 -0.47930686173E+03  0.49672324836E+03  0.12700000000E+03 0.  0.
   -5000001    1    1    2    0    0 -0.31042945149E+01 -0.29330549134E+02 -0.65417825809E+03  0.66704430971E+03  0.12700000000E+03 0.  0.
<mgrwt>
<rscale>  0 0.26375445E+03</rscale>
<asrwt>0</asrwt>
<pdfrwt beam="1">  1        2 0.16408942E+00 0.26375445E+03</pdfrwt>
<pdfrwt beam="2">  1       -2 0.21630320E-02 0.26375445E+03</pdfrwt>
<totfact> 0.16405971E+04</totfact>
</mgrwt>
</event>
<event>
 4    1  0.4895160E-005  0.4357954E+03  0.7818608E-02  0.1032045E+00
         -2   -1    0    0    0  501 -0.00000000000E+00  0.00000000000E+00  0.85095086995E+02  0.85095087033E+02  0.25500000000E-02 0. -1.
          2   -1    0    0  501    0  0.00000000000E+00 -0.00000000000E+00 -0.55795708612E+03  0.55795708612E+03  0.25500000000E-02 0.  1.
    5000001    1    1    2    0    0  0.13131490296E+03 -0.11726693114E+03 -0.20861832265E+03  0.30107431213E+03  0.12700000000E+03 0.  0.
   -5000001    1    1    2    0    0 -0.13131490296E+03  0.11726693114E+03 -0.26424367647E+03  0.34197786102E+03  0.12700000000E+03 0.  0.
<mgrwt>
<rscale>  0 0.43579540E+03</rscale>
<asrwt>0</asrwt>
<pdfrwt beam="1">  1        2 0.79708153E-01 0.43579540E+03</pdfrwt>
<pdfrwt beam="2">  1       -2 0.12156441E-01 0.43579540E+03</pdfrwt>
<totfact> 0.29155115E+03</totfact>
</mgrwt>
</event>
<event>
 4    1  0.4895160E-005  0.4183260E+03  0.7818608E-02  0.1037613E+00
         -2   -1    0    0    0  501 -0.00000000000E+00  0.00000000000E+00  0.12175492486E+03  0.12175492489E+03  0.25500000000E-02 0. -1.
          2   -1    0    0  501    0  0.00000000000E+00 -0.00000000000E+00 -0.35932151786E+03  0.35932151787E+03  0.25500000000E-02 0.  1.
    5000001    1    1    2    0    0  0.11031504852E+03  0.44923960158E+01  0.24069990842E+02  0.16999398816E+03  0.12700000000E+03 0.  0.
   -5000001    1    1    2    0    0 -0.11031504852E+03 -0.44923960158E+01 -0.26163658384E+03  0.31108245459E+03  0.12700000000E+03 0.  0.
<mgrwt>
<rscale>  0 0.41832602E+03</rscale>
<asrwt>0</asrwt>
<pdfrwt beam="1">  1        2 0.51331645E-01 0.41832602E+03</pdfrwt>
<pdfrwt beam="2">  1       -2 0.17393561E-01 0.41832602E+03</pdfrwt>
<totfact> 0.26188227E+03</totfact>
</mgrwt>
</event>
<event>
 4    1  0.4895160E-005  0.4073840E+03  0.7818608E-02  0.1041252E+00
         -2   -1    0    0    0  501 -0.00000000000E+00  0.00000000000E+00  0.41565382676E+02  0.41565382754E+02  0.25500000000E-02 0. -1.
          2   -1    0    0  501    0  0.00000000000E+00 -0.00000000000E+00 -0.99819677861E+03  0.99819677862E+03  0.25500000000E-02 0.  1.
    5000001    1    1    2    0    0  0.10615659384E+03  0.10224168719E+03 -0.63227710953E+03  0.66153301372E+03  0.12700000000E+03 0.  0.
   -5000001    1    1    2    0    0 -0.10615659384E+03 -0.10224168719E+03 -0.32435428641E+03  0.37822914765E+03  0.12700000000E+03 0.  0.
<mgrwt>
<rscale>  0 0.40738400E+03</rscale>
<asrwt>0</asrwt>
<pdfrwt beam="1">  1        2 0.14259952E+00 0.40738400E+03</pdfrwt>
<pdfrwt beam="2">  1       -2 0.59379125E-02 0.40738400E+03</pdfrwt>
<totfact> 0.44164955E+03</totfact>
</mgrwt>
</event>
<event>
 4    1  0.4895160E-005  0.6406512E+03  0.7818608E-02  0.9824481E-01
          2   -1    0    0  501    0  0.00000000000E+00  0.00000000000E+00  0.28607535637E+04  0.28607535637E+04  0.25500000000E-02 0.  1.
         -2   -1    0    0    0  501 -0.00000000000E+00 -0.00000000000E+00 -0.35867641394E+02  0.35867641485E+02  0.25500000000E-02 0. -1.
    5000001    1    1    2    0    0  0.25739107370E+03 -0.95722321838E+02  0.18880807010E+04  0.19121690985E+04  0.12700000000E+03 0.  0.
   -5000001    1    1    2    0    0 -0.25739107370E+03  0.95722321838E+02  0.93680522131E+03  0.98445210671E+03  0.12700000000E+03 0.  0.
<mgrwt>
<rscale>  0 0.64065118E+03</rscale>
<asrwt>0</asrwt>
<pdfrwt beam="1">  1        2 0.40867917E+00 0.64065118E+03</pdfrwt>
<pdfrwt beam="2">  1       -2 0.51239476E-02 0.64065118E+03</pdfrwt>
<totfact> 0.59009990E+02</totfact>
</mgrwt>
</event>
<event>
 4    1  0.4895160E-005  0.4710544E+03  0.7818608E-02  0.1021623E+00
         -2   -1    0    0    0  501 -0.00000000000E+00  0.00000000000E+00  0.10294534014E+03  0.10294534017E+03  0.25500000000E-02 0. -1.
          2   -1    0    0  501    0  0.00000000000E+00 -0.00000000000E+00 -0.53885946725E+03  0.53885946725E+03  0.25500000000E-02 0.  1.
    5000001    1    1    2    0    0  0.15450989317E+03 -0.12244913244E+03 -0.18820074267E+03  0.30069189657E+03  0.12700000000E+03 0.  0.
   -5000001    1    1    2    0    0 -0.15450989317E+03  0.12244913244E+03 -0.24771338444E+03  0.34111291086E+03  0.12700000000E+03 0.  0.
<mgrwt>
<rscale>  0 0.47105444E+03</rscale>
<asrwt>0</asrwt>
<pdfrwt beam="1">  1        2 0.76979923E-01 0.47105444E+03</pdfrwt>
<pdfrwt beam="2">  1       -2 0.14706477E-01 0.47105444E+03</pdfrwt>
<totfact> 0.22164062E+03</totfact>
</mgrwt>
</event>
<event>
 4    1  0.4895160E-005  0.8279658E+03  0.7818608E-02  0.9520397E-01
          2   -1    0    0  501    0  0.00000000000E+00  0.00000000000E+00  0.16522302637E+04  0.16522302637E+04  0.25500000000E-02 0.  1.
         -2   -1    0    0    0  501 -0.00000000000E+00 -0.00000000000E+00 -0.10372757895E+03  0.10372757898E+03  0.25500000000E-02 0. -1.
    5000001    1    1    2    0    0  0.31567833788E+03 -0.14461584703E+03  0.37926634429E+03  0.52965886769E+03  0.12700000000E+03 0.  0.
   -5000001    1    1    2    0    0 -0.31567833788E+03  0.14461584703E+03  0.11692363404E+04  0.12262989750E+04  0.12700000000E+03 0.  0.
<mgrwt>
<rscale>  0 0.82796581E+03</rscale>
<asrwt>0</asrwt>
<pdfrwt beam="1">  1        2 0.23603287E+00 0.82796581E+03</pdfrwt>
<pdfrwt beam="2">  1       -2 0.14818227E-01 0.82796581E+03</pdfrwt>
<totfact> 0.43806737E+02</totfact>
</mgrwt>
</event>
<event>
 4    1  0.4895160E-005  0.3901036E+03  0.7818608E-02  0.1047261E+00
         -2   -1    0    0    0  501 -0.00000000000E+00  0.00000000000E+00  0.16155365762E+03  0.16155365764E+03  0.25500000000E-02 0. -1.
          2   -1    0    0  501    0  0.00000000000E+00 -0.00000000000E+00 -0.23549581038E+03  0.23549581039E+03  0.25500000000E-02 0.  1.
    5000001    1    1    2    0    0 -0.24920958939E+02 -0.64028652724E+02  0.96495300868E+02  0.17366941485E+03  0.12700000000E+03 0.  0.
   -5000001    1    1    2    0    0  0.24920958939E+02  0.64028652724E+02 -0.17043745362E+03  0.22338005319E+03  0.12700000000E+03 0.  0.
<mgrwt>
<rscale>  0 0.39010362E+03</rscale>
<asrwt>0</asrwt>
<pdfrwt beam="1">  1        2 0.33642258E-01 0.39010362E+03</pdfrwt>
<pdfrwt beam="2">  1       -2 0.23079094E-01 0.39010362E+03</pdfrwt>
<totfact> 0.25475454E+03</totfact>
</mgrwt>
</event>
<event>
 4    1  0.4895160E-005  0.3680870E+03  0.7818608E-02  0.1055427E+00
          2   -1    0    0  501    0  0.00000000000E+00  0.00000000000E+00  0.87291767951E+03  0.87291767951E+03  0.25500000000E-02 0.  1.
         -2   -1    0    0    0  501 -0.00000000000E+00 -0.00000000000E+00 -0.38803214710E+02  0.38803214794E+02  0.25500000000E-02 0. -1.
    5000001    1    1    2    0    0  0.12467757265E+03  0.31570296050E+02  0.33118886635E+03  0.37730126677E+03  0.12700000000E+03 0.  0.
   -5000001    1    1    2    0    0 -0.12467757265E+03 -0.31570296050E+02  0.50292559845E+03  0.53441962753E+03  0.12700000000E+03 0.  0.
<mgrwt>
<rscale>  0 0.36808701E+03</rscale>
<asrwt>0</asrwt>
<pdfrwt beam="1">  1        2 0.12470253E+00 0.36808701E+03</pdfrwt>
<pdfrwt beam="2">  1       -2 0.55433162E-02 0.36808701E+03</pdfrwt>
<totfact> 0.58663217E+03</totfact>
</mgrwt>
</event>
<event>
 4    1  0.4895160E-005  0.6235831E+03  0.7818608E-02  0.9857651E-01
         -2   -1    0    0    0  501 -0.00000000000E+00  0.00000000000E+00  0.10971975354E+03  0.10971975357E+03  0.25500000000E-02 0. -1.
          2   -1    0    0  501    0  0.00000000000E+00 -0.00000000000E+00 -0.88602074094E+03  0.88602074094E+03  0.25500000000E-02 0.  1.
    5000001    1    1    2    0    0  0.75570928491E+02  0.25903955866E+03 -0.53338529952E+03  0.61109846664E+03  0.12700000000E+03 0.  0.
   -5000001    1    1    2    0    0 -0.75570928491E+02 -0.25903955866E+03 -0.24291568788E+03  0.38464202787E+03  0.12700000000E+03 0.  0.
<mgrwt>
<rscale>  0 0.62358312E+03</rscale>
<asrwt>0</asrwt>
<pdfrwt beam="1">  1        2 0.12657439E+00 0.62358312E+03</pdfrwt>
<pdfrwt beam="2">  1       -2 0.15674251E-01 0.62358312E+03</pdfrwt>
<totfact> 0.10836374E+03</totfact>
</mgrwt>
</event>
<event>
 4    1  0.4895160E-005  0.3761844E+03  0.7818608E-02  0.1052353E+00
         -2   -1    0    0    0  501 -0.00000000000E+00  0.00000000000E+00  0.31142868328E+02  0.31142868432E+02  0.25500000000E-02 0. -1.
          2   -1    0    0  501    0  0.00000000000E+00 -0.00000000000E+00 -0.11360118178E+04  0.11360118178E+04  0.25500000000E-02 0.  1.
    5000001    1    1    2    0    0  0.72696575373E+02 -0.10442484659E+03 -0.72407171745E+03  0.74605508689E+03  0.12700000000E+03 0.  0.
   -5000001    1    1    2    0    0 -0.72696575373E+02  0.10442484659E+03 -0.38079723202E+03  0.42109959935E+03  0.12700000000E+03 0.  0.
<mgrwt>
<rscale>  0 0.37618435E+03</rscale>
<asrwt>0</asrwt>
<pdfrwt beam="1">  1        2 0.16228738E+00 0.37618435E+03</pdfrwt>
<pdfrwt beam="2">  1       -2 0.44489819E-02 0.37618435E+03</pdfrwt>
<totfact> 0.57184774E+03</totfact>
</mgrwt>
</event>
<event>
 4    1  0.4895160E-005  0.4692728E+03  0.7818608E-02  0.1022126E+00
         -2   -1    0    0    0  501 -0.00000000000E+00  0.00000000000E+00  0.20479567811E+03  0.20479567813E+03  0.25500000000E-02 0. -1.
          2   -1    0    0  501    0  0.00000000000E+00 -0.00000000000E+00 -0.26882525539E+03  0.26882525540E+03  0.25500000000E-02 0.  1.
    5000001    1    1    2    0    0  0.15061924006E+03 -0.98795958129E+02  0.49219829797E+02  0.22582822778E+03  0.12700000000E+03 0.  0.
   -5000001    1    1    2    0    0 -0.15061924006E+03  0.98795958129E+02 -0.11324940707E+03  0.24779270574E+03  0.12700000000E+03 0.  0.
<mgrwt>
<rscale>  0 0.46927284E+03</rscale>
<asrwt>0</asrwt>
<pdfrwt beam="1">  1        2 0.38403607E-01 0.46927284E+03</pdfrwt>
<pdfrwt beam="2">  1       -2 0.29256526E-01 0.46927284E+03</pdfrwt>
<totfact> 0.14422733E+03</totfact>
</mgrwt>
</event>
<event>
 4    1  0.4895160E-005  0.3181422E+03  0.7818608E-02  0.1076507E+00
         -2   -1    0    0    0  501 -0.00000000000E+00  0.00000000000E+00  0.66898092159E+02  0.66898092208E+02  0.25500000000E-02 0. -1.
          2   -1    0    0  501    0  0.00000000000E+00 -0.00000000000E+00 -0.37824131556E+03  0.37824131557E+03  0.25500000000E-02 0.  1.
    5000001    1    1    2    0    0  0.89539419970E+02 -0.58227907234E+01 -0.20256847534E+03  0.25537071058E+03  0.12700000000E+03 0.  0.
   -5000001    1    1    2    0    0 -0.89539419970E+02  0.58227907234E+01 -0.10877474806E+03  0.18976869720E+03  0.12700000000E+03 0.  0.
<mgrwt>
<rscale>  0 0.31814225E+03</rscale>
<asrwt>0</asrwt>
<pdfrwt beam="1">  1        2 0.54034473E-01 0.31814225E+03</pdfrwt>
<pdfrwt beam="2">  1       -2 0.95568705E-02 0.31814225E+03</pdfrwt>
<totfact> 0.65692254E+03</totfact>
</mgrwt>
</event>
<event>
 4    1  0.4895160E-005  0.4915557E+03  0.7818608E-02  0.1016007E+00
          2   -1    0    0  501    0  0.00000000000E+00  0.00000000000E+00  0.24835500842E+04  0.24835500842E+04  0.25500000000E-02 0.  1.
         -2   -1    0    0    0  501 -0.00000000000E+00 -0.00000000000E+00 -0.24322748290E+02  0.24322748423E+02  0.25500000000E-02 0. -1.
    5000001    1    1    2    0    0 -0.77567684700E+02 -0.11679165718E+03  0.42907343099E+03  0.46892435006E+03  0.12700000000E+03 0.  0.
   -5000001    1    1    2    0    0  0.77567684700E+02  0.11679165718E+03  0.20301539049E+04  0.20389484826E+04  0.12700000000E+03 0.  0.
<mgrwt>
<rscale>  0 0.49155575E+03</rscale>
<asrwt>0</asrwt>
<pdfrwt beam="1">  1        2 0.35479294E+00 0.49155575E+03</pdfrwt>
<pdfrwt beam="2">  1       -2 0.34746777E-02 0.49155575E+03</pdfrwt>
<totfact> 0.17058495E+03</totfact>
</mgrwt>
</event>
<event>
 4    1  0.4895160E-005  0.4025619E+03  0.7818608E-02  0.1042896E+00
          2   -1    0    0  501    0  0.00000000000E+00  0.00000000000E+00  0.73139519458E+03  0.73139519458E+03  0.25500000000E-02 0.  1.
         -2   -1    0    0    0  501 -0.00000000000E+00 -0.00000000000E+00 -0.55392796628E+02  0.55392796686E+02  0.25500000000E-02 0. -1.
    5000001    1    1    2    0    0  0.12669325974E+03  0.16296418408E+02  0.16244537542E+03  0.24255773604E+03  0.12700000000E+03 0.  0.
   -5000001    1    1    2    0    0 -0.12669325974E+03 -0.16296418408E+02  0.51355702253E+03  0.54423025523E+03  0.12700000000E+03 0.  0.
<mgrwt>
<rscale>  0 0.40256192E+03</rscale>
<asrwt>0</asrwt>
<pdfrwt beam="1">  1        2 0.10448503E+00 0.40256192E+03</pdfrwt>
<pdfrwt beam="2">  1       -2 0.79132568E-02 0.40256192E+03</pdfrwt>
<totfact> 0.42147341E+03</totfact>
</mgrwt>
</event>
<event>
 4    1  0.4895160E-005  0.3210558E+03  0.7818608E-02  0.1075164E+00
          2   -1    0    0  501    0  0.00000000000E+00  0.00000000000E+00  0.27288739972E+04  0.27288739972E+04  0.25500000000E-02 0.  1.
         -2   -1    0    0    0  501 -0.00000000000E+00 -0.00000000000E+00 -0.94431635394E+01  0.94431638837E+01  0.25500000000E-02 0. -1.
    5000001    1    1    2    0    0  0.77892132650E+02  0.38442357491E+02  0.96930941616E+03  0.98144523201E+03  0.12700000000E+03 0.  0.
   -5000001    1    1    2    0    0 -0.77892132650E+02 -0.38442357491E+02  0.17501214175E+04  0.17568719291E+04  0.12700000000E+03 0.  0.
<mgrwt>
<rscale>  0 0.32105578E+03</rscale>
<asrwt>0</asrwt>
<pdfrwt beam="1">  1        2 0.38983934E+00 0.32105578E+03</pdfrwt>
<pdfrwt beam="2">  1       -2 0.13490227E-02 0.32105578E+03</pdfrwt>
<totfact> 0.52882339E+03</totfact>
</mgrwt>
</event>
<event>
 4    1  0.4895160E-005  0.5946056E+03  0.7818608E-02  0.9916661E-01
          2   -1    0    0  501    0  0.00000000000E+00  0.00000000000E+00  0.11172330587E+03  0.11172330590E+03  0.25500000000E-02 0.  1.
         -2   -1    0    0    0  501 -0.00000000000E+00 -0.00000000000E+00 -0.79114160099E+03  0.79114160099E+03  0.25500000000E-02 0. -1.
    5000001    1    1    2    0    0  0.14543889267E+03 -0.22158535500E+03 -0.40774099366E+03  0.50262735596E+03  0.12700000000E+03 0.  0.
   -5000001    1    1    2    0    0 -0.14543889267E+03  0.22158535500E+03 -0.27167730146E+03  0.40023755093E+03  0.12700000000E+03 0.  0.
<mgrwt>
<rscale>  0 0.59460560E+03</rscale>
<asrwt>0</asrwt>
<pdfrwt beam="1">  1        2 0.15960473E-01 0.59460560E+03</pdfrwt>
<pdfrwt beam="2">  1       -2 0.11302023E+00 0.59460560E+03</pdfrwt>
<totfact> 0.23168156E+02</totfact>
</mgrwt>
</event>
<event>
 4    1  0.4895160E-005  0.6212643E+03  0.7818608E-02  0.9862246E-01
          2   -1    0    0  501    0  0.00000000000E+00  0.00000000000E+00  0.28009579891E+03  0.28009579892E+03  0.25500000000E-02 0.  1.
         -2   -1    0    0    0  501 -0.00000000000E+00 -0.00000000000E+00 -0.34449757855E+03  0.34449757856E+03  0.25500000000E-02 0. -1.
    5000001    1    1    2    0    0 -0.18831680693E+03  0.17106056540E+03  0.93522760718E+02  0.29933333189E+03  0.12700000000E+03 0.  0.
   -5000001    1    1    2    0    0  0.18831680693E+03 -0.17106056540E+03 -0.15792454036E+03  0.32526004559E+03  0.12700000000E+03 0.  0.
<mgrwt>
<rscale>  0 0.62126427E+03</rscale>
<asrwt>0</asrwt>
<pdfrwt beam="1">  1        2 0.40013686E-01 0.62126427E+03</pdfrwt>
<pdfrwt beam="2">  1       -2 0.49213940E-01 0.62126427E+03</pdfrwt>
<totfact> 0.50715640E+02</totfact>
</mgrwt>
</event>
<event>
 4    1  0.4895160E-005  0.2920900E+03  0.7818608E-02  0.1089263E+00
         -2   -1    0    0    0  501 -0.00000000000E+00  0.00000000000E+00  0.26784031809E+02  0.26784031930E+02  0.25500000000E-02 0. -1.
          2   -1    0    0  501    0  0.00000000000E+00 -0.00000000000E+00 -0.79633782901E+03  0.79633782902E+03  0.25500000000E-02 0.  1.
    5000001    1    1    2    0    0 -0.54729533983E+02  0.44458064718E+02 -0.42735605068E+03  0.45136906790E+03  0.12700000000E+03 0.  0.
   -5000001    1    1    2    0    0  0.54729533983E+02 -0.44458064718E+02 -0.34219774653E+03  0.37175279305E+03  0.12700000000E+03 0.  0.
<mgrwt>
<rscale>  0 0.29208997E+03</rscale>
<asrwt>0</asrwt>
<pdfrwt beam="1">  1        2 0.11376253E+00 0.29208997E+03</pdfrwt>
<pdfrwt beam="2">  1       -2 0.38262908E-02 0.29208997E+03</pdfrwt>
<totfact> 0.11508968E+04</totfact>
</mgrwt>
</event>
<event>
 4    1  0.4895160E-005  0.3386512E+03  0.7818608E-02  0.1067372E+00
          2   -1    0    0  501    0  0.00000000000E+00  0.00000000000E+00  0.19563973691E+04  0.19563973691E+04  0.25500000000E-02 0.  1.
         -2   -1    0    0    0  501 -0.00000000000E+00 -0.00000000000E+00 -0.14655076157E+02  0.14655076379E+02  0.25500000000E-02 0. -1.
    5000001    1    1    2    0    0 -0.88095400801E+02  0.66217140313E+02  0.10867877624E+04  0.10997191231E+04  0.12700000000E+03 0.  0.
   -5000001    1    1    2    0    0  0.88095400801E+02 -0.66217140313E+02  0.85495453058E+03  0.87133332237E+03  0.12700000000E+03 0.  0.
<mgrwt>
<rscale>  0 0.33865116E+03</rscale>
<asrwt>0</asrwt>
<pdfrwt beam="1">  1        2 0.27948517E+00 0.33865116E+03</pdfrwt>
<pdfrwt beam="2">  1       -2 0.20935835E-02 0.33865116E+03</pdfrwt>
<totfact> 0.67153506E+03</totfact>
</mgrwt>
</event>
<event>
 4    1  0.4895160E-005  0.6333228E+03  0.7818608E-02  0.9838586E-01
          2   -1    0    0  501    0  0.00000000000E+00  0.00000000000E+00  0.17621743696E+04  0.17621743696E+04  0.25500000000E-02 0.  1.
         -2   -1    0    0    0  501 -0.00000000000E+00 -0.00000000000E+00 -0.56903819051E+02  0.56903819108E+02  0.25500000000E-02 0. -1.
    5000001    1    1    2    0    0 -0.20185843492E+03  0.20541438473E+03  0.95228109198E+03  0.10029507343E+04  0.12700000000E+03 0.  0.
   -5000001    1    1    2    0    0  0.20185843492E+03 -0.20541438473E+03  0.75298945861E+03  0.81612745450E+03  0.12700000000E+03 0.  0.
<mgrwt>
<rscale>  0 0.63332283E+03</rscale>
<asrwt>0</asrwt>
<pdfrwt beam="1">  1        2 0.25173915E+00 0.63332283E+03</pdfrwt>
<pdfrwt beam="2">  1       -2 0.81291184E-02 0.63332283E+03</pdfrwt>
<totfact> 0.10415527E+03</totfact>
</mgrwt>
</event>
<event>
 4    1  0.4895160E-005  0.5309252E+03  0.7818608E-02  0.1006008E+00
          2   -1    0    0  501    0  0.00000000000E+00  0.00000000000E+00  0.98738303422E+03  0.98738303422E+03  0.25500000000E-02 0.  1.
         -2   -1    0    0    0  501 -0.00000000000E+00 -0.00000000000E+00 -0.71370873546E+02  0.71370873592E+02  0.25500000000E-02 0. -1.
    5000001    1    1    2    0    0 -0.62199786143E+02 -0.22334675487E+03  0.50639510265E+03  0.57124214331E+03  0.12700000000E+03 0.  0.
   -5000001    1    1    2    0    0  0.62199786143E+02  0.22334675487E+03  0.40961705802E+03  0.48751176450E+03  0.12700000000E+03 0.  0.
<mgrwt>
<rscale>  0 0.53092519E+03</rscale>
<asrwt>0</asrwt>
<pdfrwt beam="1">  1        2 0.14105472E+00 0.53092519E+03</pdfrwt>
<pdfrwt beam="2">  1       -2 0.10195839E-01 0.53092519E+03</pdfrwt>
<totfact> 0.19075453E+03</totfact>
</mgrwt>
</event>
<event>
 4    1  0.4895160E-005  0.5346012E+03  0.7818608E-02  0.1005122E+00
          2   -1    0    0  501    0  0.00000000000E+00  0.00000000000E+00  0.31635443408E+04  0.31635443408E+04  0.25500000000E-02 0.  1.
         -2   -1    0    0    0  501 -0.00000000000E+00 -0.00000000000E+00 -0.22585301893E+02  0.22585302037E+02  0.25500000000E-02 0. -1.
    5000001    1    1    2    0    0 -0.13312824650E+03  0.13955008656E+02  0.41786205392E+03  0.45678831902E+03  0.12700000000E+03 0.  0.
   -5000001    1    1    2    0    0  0.13312824650E+03 -0.13955008656E+02  0.27230969850E+04  0.27293413238E+04  0.12700000000E+03 0.  0.
<mgrwt>
<rscale>  0 0.53460118E+03</rscale>
<asrwt>0</asrwt>
<pdfrwt beam="1">  1        2 0.45193476E+00 0.53460118E+03</pdfrwt>
<pdfrwt beam="2">  1       -2 0.32264728E-02 0.53460118E+03</pdfrwt>
<totfact> 0.82997944E+02</totfact>
</mgrwt>
</event>
<event>
 4    1  0.4895160E-005  0.2891786E+03  0.7818608E-02  0.1090779E+00
         -2   -1    0    0    0  501 -0.00000000000E+00  0.00000000000E+00  0.86256710852E+01  0.86256714621E+01  0.25500000000E-02 0. -1.
          2   -1    0    0  501    0  0.00000000000E+00 -0.00000000000E+00 -0.24237033711E+04  0.24237033711E+04  0.25500000000E-02 0.  1.
    5000001    1    1    2    0    0 -0.70995262320E+01  0.63635517661E+02 -0.14264209181E+04  0.14334941639E+04  0.12700000000E+03 0.  0.
   -5000001    1    1    2    0    0  0.70995262320E+01 -0.63635517661E+02 -0.98865678185E+03  0.99883487858E+03  0.12700000000E+03 0.  0.
<mgrwt>
<rscale>  0 0.28917862E+03</rscale>
<asrwt>0</asrwt>
<pdfrwt beam="1">  1        2 0.34624290E+00 0.28917862E+03</pdfrwt>
<pdfrwt beam="2">  1       -2 0.12322403E-02 0.28917862E+03</pdfrwt>
<totfact> 0.86108502E+03</totfact>
</mgrwt>
</event>
<event>
 4    1  0.4895160E-005  0.8903262E+03  0.7818608E-02  0.9437756E-01
          2   -1    0    0  501    0  0.00000000000E+00  0.00000000000E+00  0.42632838517E+04  0.42632838517E+04  0.25500000000E-02 0.  1.
         -2   -1    0    0    0  501 -0.00000000000E+00 -0.00000000000E+00 -0.46482995142E+02  0.46482995212E+02  0.25500000000E-02 0. -1.
    5000001    1    1    2    0    0  0.20308936954E+03 -0.31478513606E+03  0.11198358060E+04  0.11876431309E+04  0.12700000000E+03 0.  0.
   -5000001    1    1    2    0    0 -0.20308936954E+03  0.31478513606E+03  0.30969650506E+04  0.31221237161E+04  0.12700000000E+03 0.  0.
<mgrwt>
<rscale>  0 0.89032624E+03</rscale>
<asrwt>0</asrwt>
<pdfrwt beam="1">  1        2 0.60904004E+00 0.89032624E+03</pdfrwt>
<pdfrwt beam="2">  1       -2 0.66404334E-02 0.89032624E+03</pdfrwt>
<totfact> 0.52609067E+01</totfact>
</mgrwt>
</event>
<event>
 4    1  0.4895160E-005  0.5719709E+03  0.7818608E-02  0.9965327E-01
          2   -1    0    0  501    0  0.00000000000E+00  0.00000000000E+00  0.75788368620E+03  0.75788368621E+03  0.25500000000E-02 0.  1.
         -2   -1    0    0    0  501 -0.00000000000E+00 -0.00000000000E+00 -0.10791587199E+03  0.10791587202E+03  0.25500000000E-02 0. -1.
    5000001    1    1    2    0    0 -0.55020297618E+02 -0.21163354395E+03  0.52718037889E+03  0.58469149298E+03  0.12700000000E+03 0.  0.
   -5000001    1    1    2    0    0  0.55020297618E+02  0.21163354395E+03  0.12278743532E+03  0.28110806525E+03  0.12700000000E+03 0.  0.
<mgrwt>
<rscale>  0 0.57197090E+03</rscale>
<asrwt>0</asrwt>
<pdfrwt beam="1">  1        2 0.10826910E+00 0.57197090E+03</pdfrwt>
<pdfrwt beam="2">  1       -2 0.15416553E-01 0.57197090E+03</pdfrwt>
<totfact> 0.13642687E+03</totfact>
</mgrwt>
</event>
<event>
 4    1  0.4895160E-005  0.4018289E+03  0.7818608E-02  0.1043148E+00
          2   -1    0    0  501    0  0.00000000000E+00  0.00000000000E+00  0.11605180499E+04  0.11605180499E+04  0.25500000000E-02 0.  1.
         -2   -1    0    0    0  501 -0.00000000000E+00 -0.00000000000E+00 -0.34783266013E+02  0.34783266107E+02  0.25500000000E-02 0. -1.
    5000001    1    1    2    0    0 -0.10161338199E+03  0.29581349807E+02  0.22321893691E+03  0.27776974178E+03  0.12700000000E+03 0.  0.
   -5000001    1    1    2    0    0  0.10161338199E+03 -0.29581349807E+02  0.90251584700E+03  0.91753157425E+03  0.12700000000E+03 0.  0.
<mgrwt>
<rscale>  0 0.40182886E+03</rscale>
<asrwt>0</asrwt>
<pdfrwt beam="1">  1        2 0.16578826E+00 0.40182886E+03</pdfrwt>
<pdfrwt beam="2">  1       -2 0.49690390E-02 0.40182886E+03</pdfrwt>
<totfact> 0.46818890E+03</totfact>
</mgrwt>
</event>
<event>
 4    1  0.4895160E-005  0.5358382E+03  0.7818608E-02  0.1004826E+00
          2   -1    0    0  501    0  0.00000000000E+00  0.00000000000E+00  0.21421104091E+03  0.21421104092E+03  0.25500000000E-02 0.  1.
         -2   -1    0    0    0  501 -0.00000000000E+00 -0.00000000000E+00 -0.33509316022E+03  0.33509316023E+03  0.25500000000E-02 0. -1.
    5000001    1    1    2    0    0 -0.17226097132E+03 -0.15090748968E+03 -0.11847415723E+03  0.28742310034E+03  0.12700000000E+03 0.  0.
   -5000001    1    1    2    0    0  0.17226097132E+03  0.15090748968E+03 -0.24079620831E+01  0.26188110081E+03  0.12700000000E+03 0.  0.
<mgrwt>
<rscale>  0 0.53583824E+03</rscale>
<asrwt>0</asrwt>
<pdfrwt beam="1">  1        2 0.30601578E-01 0.53583824E+03</pdfrwt>
<pdfrwt beam="2">  1       -2 0.47870451E-01 0.53583824E+03</pdfrwt>
<totfact> 0.72331417E+02</totfact>
</mgrwt>
</event>
<event>
 4    1  0.4895160E-005  0.3162159E+03  0.7818608E-02  0.1077404E+00
          2   -1    0    0  501    0  0.00000000000E+00  0.00000000000E+00  0.22082445866E+04  0.22082445866E+04  0.25500000000E-02 0.  1.
         -2   -1    0    0    0  501 -0.00000000000E+00 -0.00000000000E+00 -0.11320363293E+02  0.11320363580E+02  0.25500000000E-02 0. -1.
    5000001    1    1    2    0    0  0.19271022423E+02  0.86265089644E+02  0.13265673352E+04  0.13355609057E+04  0.12700000000E+03 0.  0.
   -5000001    1    1    2    0    0 -0.19271022423E+02 -0.86265089644E+02  0.87035688808E+03  0.88400404446E+03  0.12700000000E+03 0.  0.
<mgrwt>
<rscale>  0 0.31621595E+03</rscale>
<asrwt>0</asrwt>
<pdfrwt beam="1">  1        2 0.31546357E+00 0.31621595E+03</pdfrwt>
<pdfrwt beam="2">  1       -2 0.16171945E-02 0.31621595E+03</pdfrwt>
<totfact> 0.73915437E+03</totfact>
</mgrwt>
</event>
<event>
 4    1  0.4895160E-005  0.3403111E+03  0.7818608E-02  0.1066664E+00
         -2   -1    0    0    0  501 -0.00000000000E+00  0.00000000000E+00  0.46382994573E+03  0.46382994573E+03  0.25500000000E-02 0. -1.
          2   -1    0    0  501    0  0.00000000000E+00 -0.00000000000E+00 -0.62421392754E+02  0.62421392806E+02  0.25500000000E-02 0.  1.
    5000001    1    1    2    0    0  0.61086367765E+02  0.51492760414E+02  0.76599323811E+02  0.16846217709E+03  0.12700000000E+03 0.  0.
   -5000001    1    1    2    0    0 -0.61086367765E+02 -0.51492760414E+02  0.32480922916E+03  0.35778916145E+03  0.12700000000E+03 0.  0.
<mgrwt>
<rscale>  0 0.34031110E+03</rscale>
<asrwt>0</asrwt>
<pdfrwt beam="1">  1        2 0.89173421E-02 0.34031110E+03</pdfrwt>
<pdfrwt beam="2">  1       -2 0.66261419E-01 0.34031110E+03</pdfrwt>
<totfact> 0.15969219E+03</totfact>
</mgrwt>
</event>
<event>
 4    1  0.4895160E-005  0.9957004E+03  0.7818608E-02  0.9313273E-01
          2   -1    0    0  501    0  0.00000000000E+00  0.00000000000E+00  0.18931876900E+04  0.18931876901E+04  0.25500000000E-02 0.  1.
         -2   -1    0    0    0  501 -0.00000000000E+00 -0.00000000000E+00 -0.13091930624E+03  0.13091930627E+03  0.25500000000E-02 0. -1.
    5000001    1    1    2    0    0 -0.22372303759E+03 -0.10683977928E+03  0.42331275568E+02  0.28175818156E+03  0.12700000000E+03 0.  0.
   -5000001    1    1    2    0    0  0.22372303759E+03  0.10683977928E+03  0.17199371082E+04  0.17423488148E+04  0.12700000000E+03 0.  0.
<mgrwt>
<rscale>  0 0.99570039E+03</rscale>
<asrwt>0</asrwt>
<pdfrwt beam="1">  1        2 0.27045538E+00 0.99570039E+03</pdfrwt>
<pdfrwt beam="2">  1       -2 0.18702758E-01 0.99570039E+03</pdfrwt>
<totfact> 0.21877394E+02</totfact>
</mgrwt>
</event>
<event>
 4    1  0.4895160E-005  0.3408216E+03  0.7818608E-02  0.1066447E+00
         -2   -1    0    0    0  501 -0.00000000000E+00  0.00000000000E+00  0.64295183515E+02  0.64295183566E+02  0.25500000000E-02 0.  1.
          2   -1    0    0  501    0  0.00000000000E+00 -0.00000000000E+00 -0.45166438404E+03  0.45166438404E+03  0.25500000000E-02 0. -1.
    5000001    1    1    2    0    0  0.41960120644E+02 -0.10553570631E+03 -0.18835211505E+03  0.25397629077E+03  0.12700000000E+03 0.  0.
   -5000001    1    1    2    0    0 -0.41960120644E+02  0.10553570631E+03 -0.19901708548E+03  0.26198327684E+03  0.12700000000E+03 0.  0.
<mgrwt>
<rscale>  0 0.34082162E+03</rscale>
<asrwt>0</asrwt>
<pdfrwt beam="1">  1        2 0.64523482E-01 0.34082162E+03</pdfrwt>
<pdfrwt beam="2">  1       -2 0.91850264E-02 0.34082162E+03</pdfrwt>
<totfact> 0.57768396E+03</totfact>
</mgrwt>
</event>
<event>
 4    1  0.4895160E-005  0.7397375E+03  0.7818608E-02  0.9651590E-01
          2   -1    0    0  501    0  0.00000000000E+00  0.00000000000E+00  0.40527131302E+03  0.40527131303E+03  0.25500000000E-02 0. -1.
         -2   -1    0    0    0  501 -0.00000000000E+00 -0.00000000000E+00 -0.33755877668E+03  0.33755877669E+03  0.25500000000E-02 0.  1.
    5000001    1    1    2    0    0  0.33181372133E+02  0.33745591500E+03  0.10964623889E+03  0.37832366531E+03  0.12700000000E+03 0.  0.
   -5000001    1    1    2    0    0 -0.33181372133E+02 -0.33745591500E+03 -0.41933702548E+02  0.36450642441E+03  0.12700000000E+03 0.  0.
<mgrwt>
<rscale>  0 0.73973749E+03</rscale>
<asrwt>0</asrwt>
<pdfrwt beam="1">  1        2 0.57895902E-01 0.73973749E+03</pdfrwt>
<pdfrwt beam="2">  1       -2 0.48222682E-01 0.73973749E+03</pdfrwt>
<totfact> 0.34972200E+02</totfact>
</mgrwt>
</event>
<event>
 4    1  0.4895160E-005  0.3700289E+03  0.7818608E-02  0.1054682E+00
         -2   -1    0    0    0  501 -0.00000000000E+00  0.00000000000E+00  0.56359615605E+03  0.56359615605E+03  0.25500000000E-02 0. -1.
          2   -1    0    0  501    0  0.00000000000E+00 -0.00000000000E+00 -0.60735608816E+02  0.60735608870E+02  0.25500000000E-02 0.  1.
    5000001    1    1    2    0    0 -0.89710937972E+02  0.90461170687E+02  0.17846607617E+03  0.25339774296E+03  0.12700000000E+03 0.  0.
   -5000001    1    1    2    0    0  0.89710937972E+02 -0.90461170687E+02  0.32439447107E+03  0.37093402197E+03  0.12700000000E+03 0.  0.
<mgrwt>
<rscale>  0 0.37002895E+03</rscale>
<asrwt>0</asrwt>
<pdfrwt beam="1">  1        2 0.86765157E-02 0.37002895E+03</pdfrwt>
<pdfrwt beam="2">  1       -2 0.80513735E-01 0.37002895E+03</pdfrwt>
<totfact> 0.10840764E+03</totfact>
</mgrwt>
</event>
<event>
 4    1  0.4895160E-005  0.4403109E+03  0.7818608E-02  0.1030651E+00
          2   -1    0    0  501    0  0.00000000000E+00  0.00000000000E+00  0.16125746452E+04  0.16125746452E+04  0.25500000000E-02 0.  1.
         -2   -1    0    0    0  501 -0.00000000000E+00 -0.00000000000E+00 -0.30056541453E+02  0.30056541561E+02  0.25500000000E-02 0. -1.
    5000001    1    1    2    0    0 -0.15342092957E+02 -0.14582890060E+03  0.11796370311E+04  0.11954806452E+04  0.12700000000E+03 0.  0.
   -5000001    1    1    2    0    0  0.15342092957E+02  0.14582890060E+03  0.40288107268E+03  0.44715054153E+03  0.12700000000E+03 0.  0.
<mgrwt>
<rscale>  0 0.44031088E+03</rscale>
<asrwt>0</asrwt>
<pdfrwt beam="1">  1        2 0.23036793E+00 0.44031088E+03</pdfrwt>
<pdfrwt beam="2">  1       -2 0.42937894E-02 0.44031088E+03</pdfrwt>
<totfact> 0.33811370E+03</totfact>
</mgrwt>
</event>
<event>
 4    1  0.4895160E-005  0.6065466E+03  0.7818608E-02  0.9891916E-01
         -2   -1    0    0    0  501 -0.00000000000E+00  0.00000000000E+00  0.18136187500E+03  0.18136187502E+03  0.25500000000E-02 0.  1.
          2   -1    0    0  501    0  0.00000000000E+00 -0.00000000000E+00 -0.50713354414E+03  0.50713354415E+03  0.25500000000E-02 0. -1.
    5000001    1    1    2    0    0  0.26907424001E+03  0.52085055497E+02 -0.19359443600E+03  0.35877793312E+03  0.12700000000E+03 0.  0.
   -5000001    1    1    2    0    0 -0.26907424001E+03 -0.52085055497E+02 -0.13217723314E+03  0.32971748605E+03  0.12700000000E+03 0.  0.
<mgrwt>
<rscale>  0 0.60654659E+03</rscale>
<asrwt>0</asrwt>
<pdfrwt beam="1">  1        2 0.72447648E-01 0.60654659E+03</pdfrwt>
<pdfrwt beam="2">  1       -2 0.25908840E-01 0.60654659E+03</pdfrwt>
<totfact> 0.88980049E+02</totfact>
</mgrwt>
</event>
<event>
 4    1  0.4895160E-005  0.3730680E+03  0.7818608E-02  0.1053526E+00
         -2   -1    0    0    0  501 -0.00000000000E+00  0.00000000000E+00  0.12334026922E+02  0.12334027185E+02  0.25500000000E-02 0. -1.
          2   -1    0    0  501    0  0.00000000000E+00 -0.00000000000E+00 -0.28210528150E+04  0.28210528150E+04  0.25500000000E-02 0.  1.
    5000001    1    1    2    0    0 -0.12075955148E+03  0.56432317782E+02 -0.16320099098E+04  0.16423619642E+04  0.12700000000E+03 0.  0.
   -5000001    1    1    2    0    0  0.12075955148E+03 -0.56432317782E+02 -0.11767088783E+04  0.11910248780E+04  0.12700000000E+03 0.  0.
<mgrwt>
<rscale>  0 0.37306805E+03</rscale>
<asrwt>0</asrwt>
<pdfrwt beam="1">  1        2 0.40300713E+00 0.37306805E+03</pdfrwt>
<pdfrwt beam="2">  1       -2 0.17620057E-02 0.37306805E+03</pdfrwt>
<totfact> 0.31882897E+03</totfact>
</mgrwt>
</event>
<event>
 4    1  0.4895160E-005  0.8966168E+03  0.7818608E-02  0.9429821E-01
          2   -1    0    0  501    0  0.00000000000E+00  0.00000000000E+00  0.30066223006E+04  0.30066223006E+04  0.25500000000E-02 0.  1.
         -2   -1    0    0    0  501 -0.00000000000E+00 -0.00000000000E+00 -0.66845910873E+02  0.66845910921E+02  0.25500000000E-02 0. -1.
    5000001    1    1    2    0    0 -0.39439214372E+03 -0.16963128623E+03  0.15489126107E+04  0.16123210635E+04  0.12700000000E+03 0.  0.
   -5000001    1    1    2    0    0  0.39439214372E+03  0.16963128623E+03  0.13908637790E+04  0.14611471480E+04  0.12700000000E+03 0.  0.
<mgrwt>
<rscale>  0 0.89661677E+03</rscale>
<asrwt>0</asrwt>
<pdfrwt beam="1">  1        2 0.42951750E+00 0.89661677E+03</pdfrwt>
<pdfrwt beam="2">  1       -2 0.95494152E-02 0.89661677E+03</pdfrwt>
<totfact> 0.17860533E+02</totfact>
</mgrwt>
</event>
<event>
 4    1  0.4895160E-005  0.3473902E+03  0.7818608E-02  0.1063691E+00
         -2   -1    0    0    0  501 -0.00000000000E+00  0.00000000000E+00  0.33031665606E+02  0.33031665705E+02  0.25500000000E-02 0. -1.
          2   -1    0    0  501    0  0.00000000000E+00 -0.00000000000E+00 -0.91336569292E+03  0.91336569293E+03  0.25500000000E-02 0.  1.
    5000001    1    1    2    0    0 -0.62081509507E+02 -0.17486035212E+02 -0.71097340813E+03  0.72510141519E+03  0.12700000000E+03 0.  0.
   -5000001    1    1    2    0    0  0.62081509507E+02  0.17486035212E+02 -0.16936061919E+03  0.22129594344E+03  0.12700000000E+03 0.  0.
<mgrwt>
<rscale>  0 0.34739021E+03</rscale>
<asrwt>0</asrwt>
<pdfrwt beam="1">  1        2 0.13048080E+00 0.34739021E+03</pdfrwt>
<pdfrwt beam="2">  1       -2 0.47188099E-02 0.34739021E+03</pdfrwt>
<totfact> 0.70684398E+03</totfact>
</mgrwt>
</event>
<event>
 4    1  0.4895160E-005  0.3737573E+03  0.7818608E-02  0.1053265E+00
          2   -1    0    0  501    0  0.00000000000E+00  0.00000000000E+00  0.52117579115E+02  0.52117579178E+02  0.25500000000E-02 0.  1.
         -2   -1    0    0    0  501 -0.00000000000E+00 -0.00000000000E+00 -0.67009319414E+03  0.67009319414E+03  0.25500000000E-02 0. -1.
    5000001    1    1    2    0    0  0.12569960109E+03  0.28883858556E+02 -0.39879226905E+03  0.43794855960E+03  0.12700000000E+03 0.  0.
   -5000001    1    1    2    0    0 -0.12569960109E+03 -0.28883858556E+02 -0.21918334597E+03  0.28426221372E+03  0.12700000000E+03 0.  0.
<mgrwt>
<rscale>  0 0.37375733E+03</rscale>
<asrwt>0</asrwt>
<pdfrwt beam="1">  1        2 0.74453689E-02 0.37375733E+03</pdfrwt>
<pdfrwt beam="2">  1       -2 0.95727594E-01 0.37375733E+03</pdfrwt>
<totfact> 0.89143204E+02</totfact>
</mgrwt>
</event>
<event>
 4    1  0.4895160E-005  0.4016987E+03  0.7818608E-02  0.1043193E+00
          2   -1    0    0  501    0  0.00000000000E+00  0.00000000000E+00  0.40616676898E+03  0.40616676898E+03  0.25500000000E-02 0.  1.
         -2   -1    0    0    0  501 -0.00000000000E+00 -0.00000000000E+00 -0.99319961056E+02  0.99319961089E+02  0.25500000000E-02 0. -1.
    5000001    1    1    2    0    0 -0.13465414021E+02 -0.13644216367E+03  0.60835161201E+02  0.19653930457E+03  0.12700000000E+03 0.  0.
   -5000001    1    1    2    0    0  0.13465414021E+02  0.13644216367E+03  0.24601164672E+03  0.30894742550E+03  0.12700000000E+03 0.  0.
<mgrwt>
<rscale>  0 0.40169873E+03</rscale>
<asrwt>0</asrwt>
<pdfrwt beam="1">  1        2 0.58023826E-01 0.40169873E+03</pdfrwt>
<pdfrwt beam="2">  1       -2 0.14188566E-01 0.40169873E+03</pdfrwt>
<totfact> 0.32199932E+03</totfact>
</mgrwt>
</event>
<event>
 4    1  0.4895160E-005  0.4080515E+03  0.7818608E-02  0.1041027E+00
          2   -1    0    0  501    0  0.00000000000E+00  0.00000000000E+00  0.21436460960E+03  0.21436460962E+03  0.25500000000E-02 0.  1.
         -2   -1    0    0    0  501 -0.00000000000E+00 -0.00000000000E+00 -0.19418552794E+03  0.19418552796E+03  0.25500000000E-02 0. -1.
    5000001    1    1    2    0    0 -0.40200277432E+02  0.86378788528E+02  0.13838725489E+03  0.21061194109E+03  0.12700000000E+03 0.  0.
   -5000001    1    1    2    0    0  0.40200277432E+02 -0.86378788528E+02 -0.11820817323E+03  0.19793819649E+03  0.12700000000E+03 0.  0.
<mgrwt>
<rscale>  0 0.40805149E+03</rscale>
<asrwt>0</asrwt>
<pdfrwt beam="1">  1        2 0.30623516E-01 0.40805149E+03</pdfrwt>
<pdfrwt beam="2">  1       -2 0.27740790E-01 0.40805149E+03</pdfrwt>
<totfact> 0.20374600E+03</totfact>
</mgrwt>
</event>
<event>
 4    1  0.4895160E-005  0.3374998E+03  0.7818608E-02  0.1067866E+00
          2   -1    0    0  501    0  0.00000000000E+00  0.00000000000E+00  0.18054279065E+03  0.18054279067E+03  0.25500000000E-02 0.  1.
         -2   -1    0    0    0  501 -0.00000000000E+00 -0.00000000000E+00 -0.15772729856E+03  0.15772729858E+03  0.25500000000E-02 0. -1.
    5000001    1    1    2    0    0 -0.10034745905E+03 -0.24218249799E+02 -0.29812638250E+02  0.16635483029E+03  0.12700000000E+03 0.  0.
   -5000001    1    1    2    0    0  0.10034745905E+03  0.24218249799E+02  0.52628130343E+02  0.17191525896E+03  0.12700000000E+03 0.  0.
<mgrwt>
<rscale>  0 0.33749979E+03</rscale>
<asrwt>0</asrwt>
<pdfrwt beam="1">  1        2 0.25791827E-01 0.33749979E+03</pdfrwt>
<pdfrwt beam="2">  1       -2 0.22532471E-01 0.33749979E+03</pdfrwt>
<totfact> 0.35575077E+03</totfact>
</mgrwt>
</event>
<event>
 4    1  0.4895160E-005  0.5912547E+03  0.7818608E-02  0.9923718E-01
         -2   -1    0    0    0  501 -0.00000000000E+00  0.00000000000E+00  0.22770137652E+03  0.22770137654E+03  0.25500000000E-02 0. -1.
          2   -1    0    0  501    0  0.00000000000E+00 -0.00000000000E+00 -0.38381640475E+03  0.38381640476E+03  0.25500000000E-02 0.  1.
    5000001    1    1    2    0    0  0.25383243796E+03  0.22975969498E+02 -0.16020055394E+03  0.32672927512E+03  0.12700000000E+03 0.  0.
   -5000001    1    1    2    0    0 -0.25383243796E+03 -0.22975969498E+02  0.40855257152E+01  0.28478850618E+03  0.12700000000E+03 0.  0.
<mgrwt>
<rscale>  0 0.59125468E+03</rscale>
<asrwt>0</asrwt>
<pdfrwt beam="1">  1        2 0.54830915E-01 0.59125468E+03</pdfrwt>
<pdfrwt beam="2">  1       -2 0.32528768E-01 0.59125468E+03</pdfrwt>
<totfact> 0.80079050E+02</totfact>
</mgrwt>
</event>
<event>
 4    1  0.4895160E-005  0.1211123E+04  0.7818608E-02  0.9103176E-01
         -2   -1    0    0    0  501 -0.00000000000E+00  0.00000000000E+00  0.98576422246E+02  0.98576422279E+02  0.25500000000E-02 0. -1.
          2   -1    0    0  501    0  0.00000000000E+00 -0.00000000000E+00 -0.37200019103E+04  0.37200019103E+04  0.25500000000E-02 0.  1.
    5000001    1    1    2    0    0 -0.93004096800E+02 -0.37424991459E+03 -0.39413093739E+03  0.56584534672E+03  0.12700000000E+03 0.  0.
   -5000001    1    1    2    0    0  0.93004096800E+02  0.37424991459E+03 -0.32272945506E+04  0.32527329858E+04  0.12700000000E+03 0.  0.
<mgrwt>
<rscale>  0 0.12111226E+04</rscale>
<asrwt>0</asrwt>
<pdfrwt beam="1">  1        2 0.53142876E+00 0.12111226E+04</pdfrwt>
<pdfrwt beam="2">  1       -2 0.14082348E-01 0.12111226E+04</pdfrwt>
<totfact> 0.34570845E+01</totfact>
</mgrwt>
</event>
<event>
 4    1  0.4895160E-005  0.4972415E+03  0.7818608E-02  0.1014501E+00
         -2   -1    0    0    0  501 -0.00000000000E+00  0.00000000000E+00  0.61694531582E+03  0.61694531583E+03  0.25500000000E-02 0. -1.
          2   -1    0    0  501    0  0.00000000000E+00 -0.00000000000E+00 -0.10019085489E+03  0.10019085493E+03  0.25500000000E-02 0.  1.
    5000001    1    1    2    0    0  0.65449588298E+02  0.19230770783E+03  0.16252186752E+03  0.28949656392E+03  0.12700000000E+03 0.  0.
   -5000001    1    1    2    0    0 -0.65449588298E+02 -0.19230770783E+03  0.35423259341E+03  0.42763960684E+03  0.12700000000E+03 0.  0.
<mgrwt>
<rscale>  0 0.49724151E+03</rscale>
<asrwt>0</asrwt>
<pdfrwt beam="1">  1        2 0.14312979E-01 0.49724151E+03</pdfrwt>
<pdfrwt beam="2">  1       -2 0.88135045E-01 0.49724151E+03</pdfrwt>
<totfact> 0.47525739E+02</totfact>
</mgrwt>
</event>
<event>
 4    1  0.4895160E-005  0.3310083E+03  0.7818608E-02  0.1070692E+00
          2   -1    0    0  501    0  0.00000000000E+00  0.00000000000E+00  0.49787778035E+03  0.49787778036E+03  0.25500000000E-02 0.  1.
         -2   -1    0    0    0  501 -0.00000000000E+00 -0.00000000000E+00 -0.55016776252E+02  0.55016776311E+02  0.25500000000E-02 0. -1.
    5000001    1    1    2    0    0 -0.53794038075E+02 -0.87980259997E+02  0.26329914684E+03  0.30998349215E+03  0.12700000000E+03 0.  0.
   -5000001    1    1    2    0    0  0.53794038075E+02  0.87980259997E+02  0.17956185726E+03  0.24291106452E+03  0.12700000000E+03 0.  0.
<mgrwt>
<rscale>  0 0.33100834E+03</rscale>
<asrwt>0</asrwt>
<pdfrwt beam="1">  1        2 0.71125396E-01 0.33100834E+03</pdfrwt>
<pdfrwt beam="2">  1       -2 0.78595396E-02 0.33100834E+03</pdfrwt>
<totfact> 0.66261248E+03</totfact>
</mgrwt>
</event>
<event>
 4    1  0.4895160E-005  0.3054355E+03  0.7818608E-02  0.1082555E+00
          2   -1    0    0  501    0  0.00000000000E+00  0.00000000000E+00  0.14964583035E+04  0.14964583035E+04  0.25500000000E-02 0.  1.
         -2   -1    0    0    0  501 -0.00000000000E+00 -0.00000000000E+00 -0.15585277970E+02  0.15585278178E+02  0.25500000000E-02 0. -1.
    5000001    1    1    2    0    0  0.65863504551E+02 -0.13781529696E+02  0.48483851464E+03  0.50569290787E+03  0.12700000000E+03 0.  0.
   -5000001    1    1    2    0    0 -0.65863504551E+02  0.13781529696E+02  0.99603451084E+03  0.10063506738E+04  0.12700000000E+03 0.  0.
<mgrwt>
<rscale>  0 0.30543555E+03</rscale>
<asrwt>0</asrwt>
<pdfrwt beam="1">  1        2 0.21377969E+00 0.30543555E+03</pdfrwt>
<pdfrwt beam="2">  1       -2 0.22264690E-02 0.30543555E+03</pdfrwt>
<totfact> 0.10360292E+04</totfact>
</mgrwt>
</event>
<event>
 4    1  0.4895160E-005  0.2983401E+03  0.7818608E-02  0.1086073E+00
         -2   -1    0    0    0  501 -0.00000000000E+00  0.00000000000E+00  0.23658445520E+04  0.23658445520E+04  0.25500000000E-02 0. -1.
          2   -1    0    0  501    0  0.00000000000E+00 -0.00000000000E+00 -0.94053970905E+01  0.94053974362E+01  0.25500000000E-02 0.  1.
    5000001    1    1    2    0    0 -0.35223247889E+02  0.69097961327E+02  0.12607676205E+04  0.12695192785E+04  0.12700000000E+03 0.  0.
   -5000001    1    1    2    0    0  0.35223247889E+02 -0.69097961327E+02  0.10956715344E+04  0.11057306710E+04  0.12700000000E+03 0.  0.
<mgrwt>
<rscale>  0 0.29834013E+03</rscale>
<asrwt>0</asrwt>
<pdfrwt beam="1">  1        2 0.13436286E-02 0.29834013E+03</pdfrwt>
<pdfrwt beam="2">  1       -2 0.33797769E+00 0.29834013E+03</pdfrwt>
<totfact> 0.20782928E+02</totfact>
</mgrwt>
</event>
<event>
 4    1  0.4895160E-005  0.4095122E+03  0.7818608E-02  0.1040535E+00
         -2   -1    0    0    0  501 -0.00000000000E+00  0.00000000000E+00  0.23109364663E+02  0.23109364804E+02  0.25500000000E-02 0. -1.
          2   -1    0    0  501    0  0.00000000000E+00 -0.00000000000E+00 -0.18142025998E+04  0.18142025998E+04  0.25500000000E-02 0.  1.
    5000001    1    1    2    0    0 -0.14494126602E+03  0.17038234471E+02 -0.11964423050E+04  0.12119824509E+04  0.12700000000E+03 0.  0.
   -5000001    1    1    2    0    0  0.14494126602E+03 -0.17038234471E+02 -0.59465093007E+03  0.62532951366E+03  0.12700000000E+03 0.  0.
<mgrwt>
<rscale>  0 0.40951224E+03</rscale>
<asrwt>0</asrwt>
<pdfrwt beam="1">  1        2 0.25917171E+00 0.40951224E+03</pdfrwt>
<pdfrwt beam="2">  1       -2 0.33013390E-02 0.40951224E+03</pdfrwt>
<totfact> 0.39947674E+03</totfact>
</mgrwt>
</event>
<event>
 4    1  0.4895160E-005  0.3554182E+03  0.7818608E-02  0.1060413E+00
         -2   -1    0    0    0  501 -0.00000000000E+00  0.00000000000E+00  0.50611411498E+02  0.50611411562E+02  0.25500000000E-02 0. -1.
          2   -1    0    0  501    0  0.00000000000E+00 -0.00000000000E+00 -0.62398036539E+03  0.62398036540E+03  0.25500000000E-02 0.  1.
    5000001    1    1    2    0    0 -0.61514478421E+02  0.97750262468E+02 -0.37391884303E+03  0.41144069566E+03  0.12700000000E+03 0.  0.
   -5000001    1    1    2    0    0  0.61514478421E+02 -0.97750262468E+02 -0.19945011087E+03  0.26315108131E+03  0.12700000000E+03 0.  0.
<mgrwt>
<rscale>  0 0.35541822E+03</rscale>
<asrwt>0</asrwt>
<pdfrwt beam="1">  1        2 0.89140047E-01 0.35541822E+03</pdfrwt>
<pdfrwt beam="2">  1       -2 0.72302020E-02 0.35541822E+03</pdfrwt>
<totfact> 0.58532352E+03</totfact>
</mgrwt>
</event>
<event>
 4    1  0.4895160E-005  0.3106401E+03  0.7818608E-02  0.1080039E+00
          2   -1    0    0  501    0  0.00000000000E+00  0.00000000000E+00  0.11353977867E+03  0.11353977870E+03  0.25500000000E-02 0.  1.
         -2   -1    0    0    0  501 -0.00000000000E+00 -0.00000000000E+00 -0.21247454752E+03  0.21247454754E+03  0.25500000000E-02 0. -1.
    5000001    1    1    2    0    0 -0.67432303815E+02  0.58115683412E+02 -0.40638862383E+02  0.16032799316E+03  0.12700000000E+03 0.  0.
   -5000001    1    1    2    0    0  0.67432303815E+02 -0.58115683412E+02 -0.58295906466E+02  0.16568633307E+03  0.12700000000E+03 0.  0.
<mgrwt>
<rscale>  0 0.31064007E+03</rscale>
<asrwt>0</asrwt>
<pdfrwt beam="1">  1        2 0.16219968E-01 0.31064007E+03</pdfrwt>
<pdfrwt beam="2">  1       -2 0.30353507E-01 0.31064007E+03</pdfrwt>
<totfact> 0.35537060E+03</totfact>
</mgrwt>
</event>
<event>
 4    1  0.4895160E-005  0.3824577E+03  0.7818608E-02  0.1050029E+00
         -2   -1    0    0    0  501 -0.00000000000E+00  0.00000000000E+00  0.61685144135E+02  0.61685144188E+02  0.25500000000E-02 0. -1.
          2   -1    0    0  501    0  0.00000000000E+00 -0.00000000000E+00 -0.59282457067E+03  0.59282457068E+03  0.25500000000E-02 0.  1.
    5000001    1    1    2    0    0 -0.76985777559E+02  0.84728326837E+02 -0.41212326511E+03  0.44618413795E+03  0.12700000000E+03 0.  0.
   -5000001    1    1    2    0    0  0.76985777559E+02 -0.84728326837E+02 -0.11901616143E+03  0.20832557691E+03  0.12700000000E+03 0.  0.
<mgrwt>
<rscale>  0 0.38245768E+03</rscale>
<asrwt>0</asrwt>
<pdfrwt beam="1">  1        2 0.84689221E-01 0.38245768E+03</pdfrwt>
<pdfrwt beam="2">  1       -2 0.88121638E-02 0.38245768E+03</pdfrwt>
<totfact> 0.45559939E+03</totfact>
</mgrwt>
</event>
<event>
 4    1  0.4895160E-005  0.3698549E+03  0.7818608E-02  0.1054748E+00
          2   -1    0    0  501    0  0.00000000000E+00  0.00000000000E+00  0.22219163322E+04  0.22219163322E+04  0.25500000000E-02 0.  1.
         -2   -1    0    0    0  501 -0.00000000000E+00 -0.00000000000E+00 -0.15391291267E+02  0.15391291479E+02  0.25500000000E-02 0. -1.
    5000001    1    1    2    0    0  0.14958755624E+02 -0.10323757220E+03  0.59042444241E+03  0.61287175076E+03  0.12700000000E+03 0.  0.
   -5000001    1    1    2    0    0 -0.14958755624E+02  0.10323757220E+03  0.16161005985E+04  0.16244358729E+04  0.12700000000E+03 0.  0.
<mgrwt>
<rscale>  0 0.36985490E+03</rscale>
<asrwt>0</asrwt>
<pdfrwt beam="1">  1        2 0.31741657E+00 0.36985490E+03</pdfrwt>
<pdfrwt beam="2">  1       -2 0.21987562E-02 0.36985490E+03</pdfrwt>
<totfact> 0.46186894E+03</totfact>
</mgrwt>
</event>
<event>
 4    1  0.4895160E-005  0.4644561E+03  0.7818608E-02  0.1023497E+00
         -2   -1    0    0    0  501 -0.00000000000E+00  0.00000000000E+00  0.12558677211E+03  0.12558677213E+03  0.25500000000E-02 0. -1.
          2   -1    0    0  501    0  0.00000000000E+00 -0.00000000000E+00 -0.42942313328E+03  0.42942313329E+03  0.25500000000E-02 0.  1.
    5000001    1    1    2    0    0 -0.81424022160E+02  0.14999860483E+03 -0.40642312625E+02  0.21658774299E+03  0.12700000000E+03 0.  0.
   -5000001    1    1    2    0    0  0.81424022160E+02 -0.14999860483E+03 -0.26319404855E+03  0.33842216243E+03  0.12700000000E+03 0.  0.
<mgrwt>
<rscale>  0 0.46445609E+03</rscale>
<asrwt>0</asrwt>
<pdfrwt beam="1">  1        2 0.61346161E-01 0.46445609E+03</pdfrwt>
<pdfrwt beam="2">  1       -2 0.17940968E-01 0.46445609E+03</pdfrwt>
<totfact> 0.20443120E+03</totfact>
</mgrwt>
</event>
<event>
 4    1  0.4895160E-005  0.3595902E+03  0.7818608E-02  0.1058746E+00
          2   -1    0    0  501    0  0.00000000000E+00  0.00000000000E+00  0.31091027981E+03  0.31091027982E+03  0.25500000000E-02 0.  1.
         -2   -1    0    0    0  501 -0.00000000000E+00 -0.00000000000E+00 -0.10397301095E+03  0.10397301098E+03  0.25500000000E-02 0. -1.
    5000001    1    1    2    0    0 -0.49168910041E+02  0.38659784994E+02  0.23135014277E+03  0.27122693312E+03  0.12700000000E+03 0.  0.
   -5000001    1    1    2    0    0  0.49168910041E+02 -0.38659784994E+02 -0.24412873912E+02  0.14365635768E+03  0.12700000000E+03 0.  0.
<mgrwt>
<rscale>  0 0.35959020E+03</rscale>
<asrwt>0</asrwt>
<pdfrwt beam="1">  1        2 0.44415754E-01 0.35959020E+03</pdfrwt>
<pdfrwt beam="2">  1       -2 0.14853287E-01 0.35959020E+03</pdfrwt>
<totfact> 0.39850023E+03</totfact>
</mgrwt>
</event>
<event>
 4    1  0.4895160E-005  0.3683853E+03  0.7818608E-02  0.1055312E+00
          2   -1    0    0  501    0  0.00000000000E+00  0.00000000000E+00  0.77100796021E+02  0.77100796063E+02  0.25500000000E-02 0.  1.
         -2   -1    0    0    0  501 -0.00000000000E+00 -0.00000000000E+00 -0.44003346086E+03  0.44003346087E+03  0.25500000000E-02 0. -1.
    5000001    1    1    2    0    0  0.30280161713E+02 -0.12990827986E+03 -0.17836502818E+03  0.25639058611E+03  0.12700000000E+03 0.  0.
   -5000001    1    1    2    0    0 -0.30280161713E+02  0.12990827986E+03 -0.18456763667E+03  0.26074367082E+03  0.12700000000E+03 0.  0.
<mgrwt>
<rscale>  0 0.36838529E+03</rscale>
<asrwt>0</asrwt>
<pdfrwt beam="1">  1        2 0.11014400E-01 0.36838529E+03</pdfrwt>
<pdfrwt beam="2">  1       -2 0.62861922E-01 0.36838529E+03</pdfrwt>
<totfact> 0.13716911E+03</totfact>
</mgrwt>
</event>
<event>
 4    1  0.4895160E-005  0.4873092E+03  0.7818608E-02  0.1017146E+00
         -2   -1    0    0    0  501 -0.00000000000E+00  0.00000000000E+00  0.29834578648E+02  0.29834578757E+02  0.25500000000E-02 0. -1.
          2   -1    0    0  501    0  0.00000000000E+00 -0.00000000000E+00 -0.19898910994E+04  0.19898910994E+04  0.25500000000E-02 0.  1.
    5000001    1    1    2    0    0  0.45918885859E+02 -0.20155550009E+03 -0.88685207241E+03  0.91943937376E+03  0.12700000000E+03 0.  0.
   -5000001    1    1    2    0    0 -0.45918885859E+02  0.20155550009E+03 -0.10732044484E+04  0.11002863044E+04  0.12700000000E+03 0.  0.
<mgrwt>
<rscale>  0 0.48730919E+03</rscale>
<asrwt>0</asrwt>
<pdfrwt beam="1">  1        2 0.28427007E+00 0.48730919E+03</pdfrwt>
<pdfrwt beam="2">  1       -2 0.42620839E-02 0.48730919E+03</pdfrwt>
<totfact> 0.22100365E+03</totfact>
</mgrwt>
</event>
<event>
 4    1  0.4895160E-005  0.3806434E+03  0.7818608E-02  0.1050696E+00
         -2   -1    0    0    0  501 -0.00000000000E+00  0.00000000000E+00  0.51105241519E+02  0.51105241582E+02  0.25500000000E-02 0. -1.
          2   -1    0    0  501    0  0.00000000000E+00 -0.00000000000E+00 -0.70877937203E+03  0.70877937204E+03  0.25500000000E-02 0.  1.
    5000001    1    1    2    0    0 -0.13548648468E+03  0.25822885954E+02 -0.39413621042E+03  0.43645820113E+03  0.12700000000E+03 0.  0.
   -5000001    1    1    2    0    0  0.13548648468E+03 -0.25822885954E+02 -0.26353792010E+03  0.32342641249E+03  0.12700000000E+03 0.  0.
<mgrwt>
<rscale>  0 0.38064336E+03</rscale>
<asrwt>0</asrwt>
<pdfrwt beam="1">  1        2 0.10125419E+00 0.38064336E+03</pdfrwt>
<pdfrwt beam="2">  1       -2 0.73007492E-02 0.38064336E+03</pdfrwt>
<totfact> 0.49646314E+03</totfact>
</mgrwt>
</event>
<event>
 4    1  0.4895160E-005  0.8183115E+03  0.7818608E-02  0.9533884E-01
          2   -1    0    0  501    0  0.00000000000E+00  0.00000000000E+00  0.18033757741E+04  0.18033757741E+04  0.25500000000E-02 0.  1.
         -2   -1    0    0    0  501 -0.00000000000E+00 -0.00000000000E+00 -0.92830580466E+02  0.92830580501E+02  0.25500000000E-02 0. -1.
    5000001    1    1    2    0    0 -0.73984691863E+02 -0.31526157588E+03  0.35604338915E+03  0.49775444831E+03  0.12700000000E+03 0.  0.
   -5000001    1    1    2    0    0  0.73984691863E+02  0.31526157588E+03  0.13545018044E+04  0.13984519062E+04  0.12700000000E+03 0.  0.
<mgrwt>
<rscale>  0 0.81831148E+03</rscale>
<asrwt>0</asrwt>
<pdfrwt beam="1">  1        2 0.25762511E+00 0.81831148E+03</pdfrwt>
<pdfrwt beam="2">  1       -2 0.13261512E-01 0.81831148E+03</pdfrwt>
<totfact> 0.44187190E+02</totfact>
</mgrwt>
</event>
<event>
 4    1  0.4895160E-005  0.3037902E+03  0.7818608E-02  0.1083361E+00
         -2   -1    0    0    0  501 -0.00000000000E+00  0.00000000000E+00  0.18769301184E+02  0.18769301358E+02  0.25500000000E-02 0. -1.
          2   -1    0    0  501    0  0.00000000000E+00 -0.00000000000E+00 -0.12292475317E+04  0.12292475317E+04  0.25500000000E-02 0.  1.
    5000001    1    1    2    0    0 -0.50981394630E+02  0.61819564054E+02 -0.51134679227E+03  0.53294024343E+03  0.12700000000E+03 0.  0.
   -5000001    1    1    2    0    0  0.50981394630E+02 -0.61819564054E+02 -0.69913143819E+03  0.71507658958E+03  0.12700000000E+03 0.  0.
<mgrwt>
<rscale>  0 0.30379017E+03</rscale>
<asrwt>0</asrwt>
<pdfrwt beam="1">  1        2 0.17560674E+00 0.30379017E+03</pdfrwt>
<pdfrwt beam="2">  1       -2 0.26813295E-02 0.30379017E+03</pdfrwt>
<totfact> 0.10838997E+04</totfact>
</mgrwt>
</event>
<event>
 4    1  0.4895160E-005  0.3438393E+03  0.7818608E-02  0.1065172E+00
         -2   -1    0    0    0  501 -0.00000000000E+00  0.00000000000E+00  0.11453656000E+02  0.11453656284E+02  0.25500000000E-02 0. -1.
          2   -1    0    0  501    0  0.00000000000E+00 -0.00000000000E+00 -0.25805176957E+04  0.25805176957E+04  0.25500000000E-02 0.  1.
    5000001    1    1    2    0    0 -0.11372794642E+03 -0.20294264265E+02 -0.12164949961E+04  0.12285499495E+04  0.12700000000E+03 0.  0.
   -5000001    1    1    2    0    0  0.11372794642E+03  0.20294264265E+02 -0.13525690436E+04  0.13634214024E+04  0.12700000000E+03 0.  0.
<mgrwt>
<rscale>  0 0.34383928E+03</rscale>
<asrwt>0</asrwt>
<pdfrwt beam="1">  1        2 0.36864501E+00 0.34383928E+03</pdfrwt>
<pdfrwt beam="2">  1       -2 0.16362382E-02 0.34383928E+03</pdfrwt>
<totfact> 0.47361351E+03</totfact>
</mgrwt>
</event>
<event>
 4    1  0.4895160E-005  0.7616092E+03  0.7818608E-02  0.9617311E-01
          2   -1    0    0  501    0  0.00000000000E+00  0.00000000000E+00  0.14313765399E+04  0.14313765399E+04  0.25500000000E-02 0.  1.
         -2   -1    0    0    0  501 -0.00000000000E+00 -0.00000000000E+00 -0.10130956582E+03  0.10130956585E+03  0.25500000000E-02 0. -1.
    5000001    1    1    2    0    0  0.94764402368E+02 -0.34626248448E+03  0.66047290373E+03  0.76238537281E+03  0.12700000000E+03 0.  0.
   -5000001    1    1    2    0    0 -0.94764402368E+02  0.34626248448E+03  0.66959407033E+03  0.77030073292E+03  0.12700000000E+03 0.  0.
<mgrwt>
<rscale>  0 0.76160918E+03</rscale>
<asrwt>0</asrwt>
<pdfrwt beam="1">  1        2 0.20448236E+00 0.76160918E+03</pdfrwt>
<pdfrwt beam="2">  1       -2 0.14472796E-01 0.76160918E+03</pdfrwt>
<totfact> 0.59691941E+02</totfact>
</mgrwt>
</event>
<event>
 4    1  0.4895160E-005  0.1092697E+04  0.7818608E-02  0.9212339E-01
          2   -1    0    0  501    0  0.00000000000E+00  0.00000000000E+00  0.18618137569E+04  0.18618137569E+04  0.25500000000E-02 0.  1.
         -2   -1    0    0    0  501 -0.00000000000E+00 -0.00000000000E+00 -0.16032567376E+03  0.16032567378E+03  0.25500000000E-02 0. -1.
    5000001    1    1    2    0    0  0.50288553478E+03 -0.15611034078E+03  0.71854306149E+03  0.89983189030E+03  0.12700000000E+03 0.  0.
   -5000001    1    1    2    0    0 -0.50288553478E+03  0.15611034078E+03  0.98294502162E+03  0.11223075403E+04  0.12700000000E+03 0.  0.
<mgrwt>
<rscale>  0 0.10926967E+04</rscale>
<asrwt>0</asrwt>
<pdfrwt beam="1">  1        2 0.26597338E+00 0.10926967E+04</pdfrwt>
<pdfrwt beam="2">  1       -2 0.22903669E-01 0.10926967E+04</pdfrwt>
<totfact> 0.15774910E+02</totfact>
</mgrwt>
</event>
<event>
 4    1  0.4895160E-005  0.3937079E+03  0.7818608E-02  0.1045980E+00
         -2   -1    0    0    0  501 -0.00000000000E+00  0.00000000000E+00  0.34014577997E+02  0.34014578093E+02  0.25500000000E-02 0. -1.
          2   -1    0    0  501    0  0.00000000000E+00 -0.00000000000E+00 -0.11392605848E+04  0.11392605848E+04  0.25500000000E-02 0.  1.
    5000001    1    1    2    0    0  0.60284819494E+02 -0.13470094758E+03 -0.63919189566E+03  0.66818701290E+03  0.12700000000E+03 0.  0.
   -5000001    1    1    2    0    0 -0.60284819494E+02  0.13470094758E+03 -0.46605411110E+03  0.50508814994E+03  0.12700000000E+03 0.  0.
<mgrwt>
<rscale>  0 0.39370785E+03</rscale>
<asrwt>0</asrwt>
<pdfrwt beam="1">  1        2 0.16275149E+00 0.39370785E+03</pdfrwt>
<pdfrwt beam="2">  1       -2 0.48592261E-02 0.39370785E+03</pdfrwt>
<totfact> 0.49790240E+03</totfact>
</mgrwt>
</event>
<event>
 4    1  0.4895160E-005  0.3378583E+03  0.7818608E-02  0.1067712E+00
         -2   -1    0    0    0  501 -0.00000000000E+00  0.00000000000E+00  0.15400680738E+03  0.15400680740E+03  0.25500000000E-02 0. -1.
          2   -1    0    0  501    0  0.00000000000E+00 -0.00000000000E+00 -0.18529735509E+03  0.18529735511E+03  0.25500000000E-02 0.  1.
    5000001    1    1    2    0    0 -0.98779930504E+02 -0.14233888046E+02  0.34043489287E+02  0.16506979555E+03  0.12700000000E+03 0.  0.
   -5000001    1    1    2    0    0  0.98779930504E+02  0.14233888046E+02 -0.65334036995E+02  0.17423436696E+03  0.12700000000E+03 0.  0.
<mgrwt>
<rscale>  0 0.33785828E+03</rscale>
<asrwt>0</asrwt>
<pdfrwt beam="1">  1        2 0.26471051E-01 0.33785828E+03</pdfrwt>
<pdfrwt beam="2">  1       -2 0.22000973E-01 0.33785828E+03</pdfrwt>
<totfact> 0.36024184E+03</totfact>
</mgrwt>
</event>
<event>
 4    1  0.4895160E-005  0.5337162E+03  0.7818608E-02  0.1005335E+00
         -2   -1    0    0    0  501 -0.00000000000E+00  0.00000000000E+00  0.25838594298E+02  0.25838594424E+02  0.25500000000E-02 0. -1.
          2   -1    0    0  501    0  0.00000000000E+00 -0.00000000000E+00 -0.27560803318E+04  0.27560803318E+04  0.25500000000E-02 0.  1.
    5000001    1    1    2    0    0  0.39070079481E+02  0.22966076639E+03 -0.15138058326E+04  0.15368824410E+04  0.12700000000E+03 0.  0.
   -5000001    1    1    2    0    0 -0.39070079481E+02 -0.22966076639E+03 -0.12164359049E+04  0.12450364852E+04  0.12700000000E+03 0.  0.
<mgrwt>
<rscale>  0 0.53371619E+03</rscale>
<asrwt>0</asrwt>
<pdfrwt beam="1">  1        2 0.39372557E+00 0.53371619E+03</pdfrwt>
<pdfrwt beam="2">  1       -2 0.36912295E-02 0.53371619E+03</pdfrwt>
<totfact> 0.11216590E+03</totfact>
</mgrwt>
</event>
<event>
 4    1  0.4895160E-005  0.3634618E+03  0.7818608E-02  0.1057221E+00
          2   -1    0    0  501    0  0.00000000000E+00  0.00000000000E+00  0.17072648324E+03  0.17072648326E+03  0.25500000000E-02 0.  1.
         -2   -1    0    0    0  501 -0.00000000000E+00 -0.00000000000E+00 -0.19344466286E+03  0.19344466288E+03  0.25500000000E-02 0. -1.
    5000001    1    1    2    0    0 -0.77326229129E+01 -0.12327225055E+03 -0.51950937279E+02  0.18461782443E+03  0.12700000000E+03 0.  0.
   -5000001    1    1    2    0    0  0.77326229129E+01  0.12327225055E+03  0.29232757656E+02  0.17955332170E+03  0.12700000000E+03 0.  0.
<mgrwt>
<rscale>  0 0.36346184E+03</rscale>
<asrwt>0</asrwt>
<pdfrwt beam="1">  1        2 0.24389498E-01 0.36346184E+03</pdfrwt>
<pdfrwt beam="2">  1       -2 0.27634952E-01 0.36346184E+03</pdfrwt>
<totfact> 0.26417093E+03</totfact>
</mgrwt>
</event>
<event>
 4    1  0.4895160E-005  0.3058764E+03  0.7818608E-02  0.1082339E+00
         -2   -1    0    0    0  501 -0.00000000000E+00  0.00000000000E+00  0.59003796947E+02  0.59003797002E+02  0.25500000000E-02 0. -1.
          2   -1    0    0  501    0  0.00000000000E+00 -0.00000000000E+00 -0.39641667320E+03  0.39641667321E+03  0.25500000000E-02 0.  1.
    5000001    1    1    2    0    0  0.12975607014E+02 -0.67755406221E+02 -0.24318031665E+03  0.28288659893E+03  0.12700000000E+03 0.  0.
   -5000001    1    1    2    0    0 -0.12975607014E+02  0.67755406221E+02 -0.94232559610E+02  0.17253387128E+03  0.12700000000E+03 0.  0.
<mgrwt>
<rscale>  0 0.30587637E+03</rscale>
<asrwt>0</asrwt>
<pdfrwt beam="1">  1        2 0.56630952E-01 0.30587637E+03</pdfrwt>
<pdfrwt beam="2">  1       -2 0.84291141E-02 0.30587637E+03</pdfrwt>
<totfact> 0.76035662E+03</totfact>
</mgrwt>
</event>
<event>
 4    1  0.4895160E-005  0.4171864E+03  0.7818608E-02  0.1037986E+00
          2   -1    0    0  501    0  0.00000000000E+00  0.00000000000E+00  0.22368395247E+03  0.22368395248E+03  0.25500000000E-02 0.  1.
         -2   -1    0    0    0  501 -0.00000000000E+00 -0.00000000000E+00 -0.19452051384E+03  0.19452051385E+03  0.25500000000E-02 0. -1.
    5000001    1    1    2    0    0  0.10709689871E+03 -0.11231421811E+03 -0.42985666598E+02  0.20508777837E+03  0.12700000000E+03 0.  0.
   -5000001    1    1    2    0    0 -0.10709689871E+03  0.11231421811E+03  0.72149105229E+02  0.21311668796E+03  0.12700000000E+03 0.  0.
<mgrwt>
<rscale>  0 0.41718637E+03</rscale>
<asrwt>0</asrwt>
<pdfrwt beam="1">  1        2 0.31954851E-01 0.41718637E+03</pdfrwt>
<pdfrwt beam="2">  1       -2 0.27788645E-01 0.41718637E+03</pdfrwt>
<totfact> 0.19380539E+03</totfact>
</mgrwt>
</event>
<event>
 4    1  0.4895160E-005  0.5496376E+03  0.7818608E-02  0.1001578E+00
          2   -1    0    0  501    0  0.00000000000E+00  0.00000000000E+00  0.60561281725E+03  0.60561281725E+03  0.25500000000E-02 0.  1.
         -2   -1    0    0    0  501 -0.00000000000E+00 -0.00000000000E+00 -0.12470901229E+03  0.12470901232E+03  0.25500000000E-02 0. -1.
    5000001    1    1    2    0    0  0.65108525630E+02 -0.23484379439E+03  0.24360982140E+03  0.36724034767E+03  0.12700000000E+03 0.  0.
   -5000001    1    1    2    0    0 -0.65108525630E+02  0.23484379439E+03  0.23729398356E+03  0.36308148191E+03  0.12700000000E+03 0.  0.
<mgrwt>
<rscale>  0 0.54963761E+03</rscale>
<asrwt>0</asrwt>
<pdfrwt beam="1">  1        2 0.86516116E-01 0.54963761E+03</pdfrwt>
<pdfrwt beam="2">  1       -2 0.17815573E-01 0.54963761E+03</pdfrwt>
<totfact> 0.14001793E+03</totfact>
</mgrwt>
</event>
<event>
 4    1  0.4895160E-005  0.2681713E+03  0.7818608E-02  0.1102331E+00
         -2   -1    0    0    0  501 -0.00000000000E+00  0.00000000000E+00  0.12389661775E+04  0.12389661775E+04  0.25500000000E-02 0. -1.
          2   -1    0    0  501    0  0.00000000000E+00 -0.00000000000E+00 -0.14511264573E+02  0.14511264797E+02  0.25500000000E-02 0.  1.
    5000001    1    1    2    0    0 -0.86888579400E+01 -0.36908703370E+02  0.70712771257E+03  0.71944169362E+03  0.12700000000E+03 0.  0.
   -5000001    1    1    2    0    0  0.86888579400E+01  0.36908703370E+02  0.51732720036E+03  0.53403574868E+03  0.12700000000E+03 0.  0.
<mgrwt>
<rscale>  0 0.26817133E+03</rscale>
<asrwt>0</asrwt>
<pdfrwt beam="1">  1        2 0.20730378E-02 0.26817133E+03</pdfrwt>
<pdfrwt beam="2">  1       -2 0.17699517E+00 0.26817133E+03</pdfrwt>
<totfact> 0.10621868E+03</totfact>
</mgrwt>
</event>
<event>
 4    1  0.4895160E-005  0.2982855E+03  0.7818608E-02  0.1086101E+00
          2   -1    0    0  501    0  0.00000000000E+00  0.00000000000E+00  0.65725955625E+03  0.65725955626E+03  0.25500000000E-02 0.  1.
         -2   -1    0    0    0  501 -0.00000000000E+00 -0.00000000000E+00 -0.33842892091E+02  0.33842892188E+02  0.25500000000E-02 0. -1.
    5000001    1    1    2    0    0 -0.56428094984E+02  0.53147462209E+02  0.33553785649E+03  0.36704691224E+03  0.12700000000E+03 0.  0.
   -5000001    1    1    2    0    0  0.56428094984E+02 -0.53147462209E+02  0.28787880767E+03  0.32405553621E+03  0.12700000000E+03 0.  0.
<mgrwt>
<rscale>  0 0.29828553E+03</rscale>
<asrwt>0</asrwt>
<pdfrwt beam="1">  1        2 0.93894227E-01 0.29828553E+03</pdfrwt>
<pdfrwt beam="2">  1       -2 0.48346986E-02 0.29828553E+03</pdfrwt>
<totfact> 0.10186383E+04</totfact>
</mgrwt>
</event>
<event>
 4    1  0.4895160E-005  0.7569903E+03  0.7818608E-02  0.9624447E-01
         -2   -1    0    0    0  501 -0.00000000000E+00  0.00000000000E+00  0.70959613627E+02  0.70959613673E+02  0.25500000000E-02 0. -1.
          2   -1    0    0  501    0  0.00000000000E+00 -0.00000000000E+00 -0.20188750949E+04  0.20188750949E+04  0.25500000000E-02 0.  1.
    5000001    1    1    2    0    0  0.18044956614E+01 -0.27187112110E+03 -0.16107945506E+04  0.16385070177E+04  0.12700000000E+03 0.  0.
   -5000001    1    1    2    0    0 -0.18044956614E+01  0.27187112110E+03 -0.33712093071E+03  0.45132769095E+03  0.12700000000E+03 0.  0.
<mgrwt>
<rscale>  0 0.75699035E+03</rscale>
<asrwt>0</asrwt>
<pdfrwt beam="1">  1        2 0.28841069E+00 0.75699035E+03</pdfrwt>
<pdfrwt beam="2">  1       -2 0.10137089E-01 0.75699035E+03</pdfrwt>
<totfact> 0.53712423E+02</totfact>
</mgrwt>
</event>
<event>
 4    1  0.4895160E-005  0.4388920E+03  0.7818608E-02  0.1031087E+00
         -2   -1    0    0    0  501 -0.00000000000E+00  0.00000000000E+00  0.10313351213E+03  0.10313351216E+03  0.25500000000E-02 0.  1.
          2   -1    0    0  501    0  0.00000000000E+00 -0.00000000000E+00 -0.46693404681E+03  0.46693404682E+03  0.25500000000E-02 0. -1.
    5000001    1    1    2    0    0 -0.27361691374E+02 -0.15146540023E+03 -0.30049807084E+03  0.36071944805E+03  0.12700000000E+03 0.  0.
   -5000001    1    1    2    0    0  0.27361691374E+02  0.15146540023E+03 -0.63302463841E+02  0.20934811093E+03  0.12700000000E+03 0.  0.
<mgrwt>
<rscale>  0 0.43889201E+03</rscale>
<asrwt>0</asrwt>
<pdfrwt beam="1">  1        2 0.66704863E-01 0.43889201E+03</pdfrwt>
<pdfrwt beam="2">  1       -2 0.14733359E-01 0.43889201E+03</pdfrwt>
<totfact> 0.25955422E+03</totfact>
</mgrwt>
</event>
<event>
 4    1  0.4895160E-005  0.6135026E+03  0.7818608E-02  0.9877782E-01
         -2   -1    0    0    0  501 -0.00000000000E+00  0.00000000000E+00  0.24338262358E+02  0.24338262492E+02  0.25500000000E-02 0.  1.
          2   -1    0    0  501    0  0.00000000000E+00 -0.00000000000E+00 -0.38661909765E+04  0.38661909765E+04  0.25500000000E-02 0. -1.
    5000001    1    1    2    0    0  0.22262497813E+03 -0.11810644668E+03 -0.11584582490E+04  0.11923361641E+04  0.12700000000E+03 0.  0.
   -5000001    1    1    2    0    0 -0.22262497813E+03  0.11810644668E+03 -0.26833944652E+04  0.26981930749E+04  0.12700000000E+03 0.  0.
<mgrwt>
<rscale>  0 0.61350263E+03</rscale>
<asrwt>0</asrwt>
<pdfrwt beam="1">  1        2 0.55231260E+00 0.61350263E+03</pdfrwt>
<pdfrwt beam="2">  1       -2 0.34768971E-02 0.61350263E+03</pdfrwt>
<totfact> 0.27934476E+02</totfact>
</mgrwt>
</event>
<event>
 4    1  0.4895160E-005  0.3041048E+03  0.7818608E-02  0.1083206E+00
          2   -1    0    0  501    0  0.00000000000E+00  0.00000000000E+00  0.25074628647E+04  0.25074628647E+04  0.25500000000E-02 0.  1.
         -2   -1    0    0    0  501 -0.00000000000E+00 -0.00000000000E+00 -0.92204497004E+01  0.92204500530E+01  0.25500000000E-02 0. -1.
    5000001    1    1    2    0    0 -0.11385895257E+02  0.77263317264E+02  0.14962418426E+04  0.15036515256E+04  0.12700000000E+03 0.  0.
   -5000001    1    1    2    0    0  0.11385895257E+02 -0.77263317264E+02  0.10020005723E+04  0.10130317891E+04  0.12700000000E+03 0.  0.
<mgrwt>
<rscale>  0 0.30410482E+03</rscale>
<asrwt>0</asrwt>
<pdfrwt beam="1">  1        2 0.35820961E+00 0.30410482E+03</pdfrwt>
<pdfrwt beam="2">  1       -2 0.13172048E-02 0.30410482E+03</pdfrwt>
<totfact> 0.70952941E+03</totfact>
</mgrwt>
</event>
<event>
 4    1  0.4895160E-005  0.3698450E+03  0.7818608E-02  0.1054752E+00
          2   -1    0    0  501    0  0.00000000000E+00  0.00000000000E+00  0.10521930007E+04  0.10521930007E+04  0.25500000000E-02 0.  1.
         -2   -1    0    0    0  501 -0.00000000000E+00 -0.00000000000E+00 -0.32500062186E+02  0.32500062286E+02  0.25500000000E-02 0. -1.
    5000001    1    1    2    0    0 -0.31871262651E+02  0.12883376108E+03  0.44739557473E+03  0.48363800064E+03  0.12700000000E+03 0.  0.
   -5000001    1    1    2    0    0  0.31871262651E+02 -0.12883376108E+03  0.57229736375E+03  0.60105506232E+03  0.12700000000E+03 0.  0.
<mgrwt>
<rscale>  0 0.36984504E+03</rscale>
<asrwt>0</asrwt>
<pdfrwt beam="1">  1        2 0.15031325E+00 0.36984504E+03</pdfrwt>
<pdfrwt beam="2">  1       -2 0.46428672E-02 0.36984504E+03</pdfrwt>
<totfact> 0.59824211E+03</totfact>
</mgrwt>
</event>
<event>
 4    1  0.4895160E-005  0.4097576E+03  0.7818608E-02  0.1040452E+00
         -2   -1    0    0    0  501 -0.00000000000E+00  0.00000000000E+00  0.17185691169E+02  0.17185691358E+02  0.25500000000E-02 0. -1.
          2   -1    0    0  501    0  0.00000000000E+00 -0.00000000000E+00 -0.24424572179E+04  0.24424572179E+04  0.25500000000E-02 0.  1.
    5000001    1    1    2    0    0  0.15390329110E+03 -0.24196109547E+02 -0.97443900342E+03  0.99495328841E+03  0.12700000000E+03 0.  0.
   -5000001    1    1    2    0    0 -0.15390329110E+03  0.24196109547E+02 -0.14508325233E+04  0.14646896208E+04  0.12700000000E+03 0.  0.
<mgrwt>
<rscale>  0 0.40975757E+03</rscale>
<asrwt>0</asrwt>
<pdfrwt beam="1">  1        2 0.34892224E+00 0.40975757E+03</pdfrwt>
<pdfrwt beam="2">  1       -2 0.24551003E-02 0.40975757E+03</pdfrwt>
<totfact> 0.30359173E+03</totfact>
</mgrwt>
</event>
<event>
 4    1  0.4895160E-005  0.3760370E+03  0.7818608E-02  0.1052408E+00
          2   -1    0    0  501    0  0.00000000000E+00  0.00000000000E+00  0.59991466726E+03  0.59991466727E+03  0.25500000000E-02 0.  1.
         -2   -1    0    0    0  501 -0.00000000000E+00 -0.00000000000E+00 -0.58926636171E+02  0.58926636227E+02  0.25500000000E-02 0. -1.
    5000001    1    1    2    0    0 -0.20344683853E+02  0.13389094720E+03  0.21848212462E+03  0.28671262735E+03  0.12700000000E+03 0.  0.
   -5000001    1    1    2    0    0  0.20344683853E+02 -0.13389094720E+03  0.32250590647E+03  0.37212867615E+03  0.12700000000E+03 0.  0.
<mgrwt>
<rscale>  0 0.37603698E+03</rscale>
<asrwt>0</asrwt>
<pdfrwt beam="1">  1        2 0.85702094E-01 0.37603698E+03</pdfrwt>
<pdfrwt beam="2">  1       -2 0.84180910E-02 0.37603698E+03</pdfrwt>
<totfact> 0.48298967E+03</totfact>
</mgrwt>
</event>
<event>
 4    1  0.4895160E-005  0.2878338E+03  0.7818608E-02  0.1091486E+00
          2   -1    0    0  501    0  0.00000000000E+00  0.00000000000E+00  0.39567603807E+03  0.39567603807E+03  0.25500000000E-02 0.  1.
         -2   -1    0    0    0  501 -0.00000000000E+00 -0.00000000000E+00 -0.52346027378E+02  0.52346027440E+02  0.25500000000E-02 0. -1.
    5000001    1    1    2    0    0 -0.48680283311E+02  0.27313797560E+02  0.23128754898E+03  0.26970121214E+03  0.12700000000E+03 0.  0.
   -5000001    1    1    2    0    0  0.48680283311E+02 -0.27313797560E+02  0.11204246171E+03  0.17832085337E+03  0.12700000000E+03 0.  0.
<mgrwt>
<rscale>  0 0.28783376E+03</rscale>
<asrwt>0</asrwt>
<pdfrwt beam="1">  1        2 0.56525149E-01 0.28783376E+03</pdfrwt>
<pdfrwt beam="2">  1       -2 0.74780038E-02 0.28783376E+03</pdfrwt>
<totfact> 0.91682795E+03</totfact>
</mgrwt>
</event>
<event>
 4    1  0.4895160E-005  0.4451197E+03  0.7818608E-02  0.1029187E+00
          2   -1    0    0  501    0  0.00000000000E+00  0.00000000000E+00  0.25682906809E+03  0.25682906810E+03  0.25500000000E-02 0.  1.
         -2   -1    0    0    0  501 -0.00000000000E+00 -0.00000000000E+00 -0.19286321277E+03  0.19286321278E+03  0.25500000000E-02 0. -1.
    5000001    1    1    2    0    0  0.18039808437E+03  0.13335794650E+02  0.58377296281E+02  0.22860057083E+03  0.12700000000E+03 0.  0.
   -5000001    1    1    2    0    0 -0.18039808437E+03 -0.13335794650E+02  0.55885590405E+01  0.22109171005E+03  0.12700000000E+03 0.  0.
<mgrwt>
<rscale>  0 0.44511967E+03</rscale>
<asrwt>0</asrwt>
<pdfrwt beam="1">  1        2 0.36689867E-01 0.44511967E+03</pdfrwt>
<pdfrwt beam="2">  1       -2 0.27551888E-01 0.44511967E+03</pdfrwt>
<totfact> 0.16910647E+03</totfact>
</mgrwt>
</event>
<event>
 4    1  0.4895160E-005  0.3270993E+03  0.7818608E-02  0.1072428E+00
         -2   -1    0    0    0  501 -0.00000000000E+00  0.00000000000E+00  0.98390701254E+01  0.98390704559E+01  0.25500000000E-02 0. -1.
          2   -1    0    0  501    0  0.00000000000E+00 -0.00000000000E+00 -0.27185989364E+04  0.27185989364E+04  0.25500000000E-02 0.  1.
    5000001    1    1    2    0    0 -0.70360721663E+02  0.62127109282E+02 -0.99959673977E+03  0.10119945904E+04  0.12700000000E+03 0.  0.
   -5000001    1    1    2    0    0  0.70360721663E+02 -0.62127109282E+02 -0.17091631265E+04  0.17164434165E+04  0.12700000000E+03 0.  0.
<mgrwt>
<rscale>  0 0.32709929E+03</rscale>
<asrwt>0</asrwt>
<pdfrwt beam="1">  1        2 0.38837080E+00 0.32709929E+03</pdfrwt>
<pdfrwt beam="2">  1       -2 0.14055832E-02 0.32709929E+03</pdfrwt>
<totfact> 0.50387893E+03</totfact>
</mgrwt>
</event>
<event>
 4    1  0.4895160E-005  0.6421806E+03  0.7818608E-02  0.9821563E-01
          2   -1    0    0  501    0  0.00000000000E+00  0.00000000000E+00  0.42424389103E+03  0.42424389103E+03  0.25500000000E-02 0. -1.
         -2   -1    0    0    0  501 -0.00000000000E+00 -0.00000000000E+00 -0.24301819724E+03  0.24301819726E+03  0.25500000000E-02 0.  1.
    5000001    1    1    2    0    0  0.21460294953E+03  0.18386069250E+03  0.17823192016E+03  0.35742803130E+03  0.12700000000E+03 0.  0.
   -5000001    1    1    2    0    0 -0.21460294953E+03 -0.18386069250E+03  0.29937736196E+01  0.30983405699E+03  0.12700000000E+03 0.  0.
<mgrwt>
<rscale>  0 0.64218062E+03</rscale>
<asrwt>0</asrwt>
<pdfrwt beam="1">  1        2 0.60606270E-01 0.64218062E+03</pdfrwt>
<pdfrwt beam="2">  1       -2 0.34716886E-01 0.64218062E+03</pdfrwt>
<totfact> 0.63314226E+02</totfact>
</mgrwt>
</event>
<event>
 4    1  0.4895160E-005  0.5243271E+03  0.7818608E-02  0.1007617E+00
          2   -1    0    0  501    0  0.00000000000E+00  0.00000000000E+00  0.95931212795E+03  0.95931212795E+03  0.25500000000E-02 0. -1.
         -2   -1    0    0    0  501 -0.00000000000E+00 -0.00000000000E+00 -0.71644805484E+02  0.71644805529E+02  0.25500000000E-02 0.  1.
    5000001    1    1    2    0    0  0.18223874346E+03 -0.13729842961E+03  0.48947909205E+03  0.55477977608E+03  0.12700000000E+03 0.  0.
   -5000001    1    1    2    0    0 -0.18223874346E+03  0.13729842961E+03  0.39818823042E+03  0.47617715741E+03  0.12700000000E+03 0.  0.
<mgrwt>
<rscale>  0 0.52432711E+03</rscale>
<asrwt>0</asrwt>
<pdfrwt beam="1">  1        2 0.13704458E+00 0.52432711E+03</pdfrwt>
<pdfrwt beam="2">  1       -2 0.10234973E-01 0.52432711E+03</pdfrwt>
<totfact> 0.19727525E+03</totfact>
</mgrwt>
</event>
<event>
 4    1  0.4895160E-005  0.4687079E+03  0.7818608E-02  0.1022286E+00
         -2   -1    0    0    0  501 -0.00000000000E+00  0.00000000000E+00  0.16062359944E+03  0.16062359946E+03  0.25500000000E-02 0. -1.
          2   -1    0    0  501    0  0.00000000000E+00 -0.00000000000E+00 -0.34192836370E+03  0.34192836371E+03  0.25500000000E-02 0.  1.
    5000001    1    1    2    0    0 -0.31144083914E+02 -0.14888439167E+03 -0.22481224018E+03  0.29967659131E+03  0.12700000000E+03 0.  0.
   -5000001    1    1    2    0    0  0.31144083914E+02  0.14888439167E+03  0.43507475918E+02  0.20287537186E+03  0.12700000000E+03 0.  0.
<mgrwt>
<rscale>  0 0.46870786E+03</rscale>
<asrwt>0</asrwt>
<pdfrwt beam="1">  1        2 0.48846909E-01 0.46870786E+03</pdfrwt>
<pdfrwt beam="2">  1       -2 0.22946229E-01 0.46870786E+03</pdfrwt>
<totfact> 0.17141746E+03</totfact>
</mgrwt>
</event>
<event>
 4    1  0.4895160E-005  0.5935113E+03  0.7818608E-02  0.9918960E-01
         -2   -1    0    0    0  501 -0.00000000000E+00  0.00000000000E+00  0.97733759501E+02  0.97733759534E+02  0.25500000000E-02 0. -1.
          2   -1    0    0  501    0  0.00000000000E+00 -0.00000000000E+00 -0.90105922042E+03  0.90105922043E+03  0.25500000000E-02 0.  1.
    5000001    1    1    2    0    0  0.24460861044E+03 -0.47670621903E+02 -0.56850349445E+03  0.63358589291E+03  0.12700000000E+03 0.  0.
   -5000001    1    1    2    0    0 -0.24460861044E+03  0.47670621903E+02 -0.23482196647E+03  0.36520708705E+03  0.12700000000E+03 0.  0.
<mgrwt>
<rscale>  0 0.59351126E+03</rscale>
<asrwt>0</asrwt>
<pdfrwt beam="1">  1        2 0.12872274E+00 0.59351126E+03</pdfrwt>
<pdfrwt beam="2">  1       -2 0.13961966E-01 0.59351126E+03</pdfrwt>
<totfact> 0.12878632E+03</totfact>
</mgrwt>
</event>
<event>
 4    1  0.4895160E-005  0.2576979E+03  0.7818608E-02  0.1108534E+00
         -2   -1    0    0    0  501 -0.00000000000E+00  0.00000000000E+00  0.13096149985E+03  0.13096149987E+03  0.25500000000E-02 0. -1.
          2   -1    0    0  501    0  0.00000000000E+00 -0.00000000000E+00 -0.12677046838E+03  0.12677046841E+03  0.25500000000E-02 0.  1.
    5000001    1    1    2    0    0  0.17351950319E+02  0.39840637447E+00 -0.11013535188E+02  0.12865281522E+03  0.12700000000E+03 0.  0.
   -5000001    1    1    2    0    0 -0.17351950319E+02 -0.39840637447E+00  0.15204566655E+02  0.12907915306E+03  0.12700000000E+03 0.  0.
<mgrwt>
<rscale>  0 0.25769789E+03</rscale>
<asrwt>0</asrwt>
<pdfrwt beam="1">  1        2 0.18110067E-01 0.25769789E+03</pdfrwt>
<pdfrwt beam="2">  1       -2 0.18708786E-01 0.25769789E+03</pdfrwt>
<totfact> 0.72578044E+03</totfact>
</mgrwt>
</event>
<event>
 4    1  0.4895160E-005  0.4848957E+03  0.7818608E-02  0.1017798E+00
         -2   -1    0    0    0  501 -0.00000000000E+00  0.00000000000E+00  0.52547892049E+02  0.52547892111E+02  0.25500000000E-02 0. -1.
          2   -1    0    0  501    0  0.00000000000E+00 -0.00000000000E+00 -0.11186167351E+04  0.11186167351E+04  0.25500000000E-02 0.  1.
    5000001    1    1    2    0    0 -0.57771916622E+02 -0.10873377553E+03 -0.13256674589E+03  0.22105105837E+03  0.12700000000E+03 0.  0.
   -5000001    1    1    2    0    0  0.57771916622E+02  0.10873377553E+03 -0.93350209712E+03  0.95011356880E+03  0.12700000000E+03 0.  0.
<mgrwt>
<rscale>  0 0.48489566E+03</rscale>
<asrwt>0</asrwt>
<pdfrwt beam="1">  1        2 0.15980238E+00 0.48489566E+03</pdfrwt>
<pdfrwt beam="2">  1       -2 0.75068424E-02 0.48489566E+03</pdfrwt>
<totfact> 0.26037962E+03</totfact>
</mgrwt>
</event>
<event>
 4    1  0.4895160E-005  0.5990769E+03  0.7818608E-02  0.9907323E-01
          2   -1    0    0  501    0  0.00000000000E+00  0.00000000000E+00  0.15854200522E+04  0.15854200522E+04  0.25500000000E-02 0.  1.
         -2   -1    0    0    0  501 -0.00000000000E+00 -0.00000000000E+00 -0.56592742162E+02  0.56592742219E+02  0.25500000000E-02 0. -1.
    5000001    1    1    2    0    0 -0.25081659982E+03 -0.18223528738E+02  0.48552464825E+03  0.56134147166E+03  0.12700000000E+03 0.  0.
   -5000001    1    1    2    0    0  0.25081659982E+03  0.18223528738E+02  0.10433026618E+04  0.10806713227E+04  0.12700000000E+03 0.  0.
<mgrwt>
<rscale>  0 0.59907685E+03</rscale>
<asrwt>0</asrwt>
<pdfrwt beam="1">  1        2 0.22648855E+00 0.59907685E+03</pdfrwt>
<pdfrwt beam="2">  1       -2 0.80846783E-02 0.59907685E+03</pdfrwt>
<totfact> 0.12953119E+03</totfact>
</mgrwt>
</event>
<event>
 4    1  0.4895160E-005  0.3848564E+03  0.7818608E-02  0.1049153E+00
         -2   -1    0    0    0  501 -0.00000000000E+00  0.00000000000E+00  0.17538940084E+02  0.17538940269E+02  0.25500000000E-02 0. -1.
          2   -1    0    0  501    0  0.00000000000E+00 -0.00000000000E+00 -0.21112229103E+04  0.21112229103E+04  0.25500000000E-02 0.  1.
    5000001    1    1    2    0    0 -0.74702055594E+02 -0.12277383347E+03 -0.96012179629E+03  0.97908971755E+03  0.12700000000E+03 0.  0.
   -5000001    1    1    2    0    0  0.74702055594E+02  0.12277383347E+03 -0.11335621739E+04  0.11496721330E+04  0.12700000000E+03 0.  0.
<mgrwt>
<rscale>  0 0.38485640E+03</rscale>
<asrwt>0</asrwt>
<pdfrwt beam="1">  1        2 0.30160311E+00 0.38485640E+03</pdfrwt>
<pdfrwt beam="2">  1       -2 0.25055642E-02 0.38485640E+03</pdfrwt>
<totfact> 0.43109163E+03</totfact>
</mgrwt>
</event>
<event>
 4    1  0.4895160E-005  0.4875301E+03  0.7818608E-02  0.1017086E+00
          2   -1    0    0  501    0  0.00000000000E+00  0.00000000000E+00  0.38064583838E+03  0.38064583839E+03  0.25500000000E-02 0.  1.
         -2   -1    0    0    0  501 -0.00000000000E+00 -0.00000000000E+00 -0.15610681034E+03  0.15610681036E+03  0.25500000000E-02 0. -1.
    5000001    1    1    2    0    0 -0.16547056366E+03 -0.12592568841E+03  0.10413271444E+03  0.26497246773E+03  0.12700000000E+03 0.  0.
   -5000001    1    1    2    0    0  0.16547056366E+03  0.12592568841E+03  0.12040631360E+03  0.27178018102E+03  0.12700000000E+03 0.  0.
<mgrwt>
<rscale>  0 0.48753013E+03</rscale>
<asrwt>0</asrwt>
<pdfrwt beam="1">  1        2 0.54377977E-01 0.48753013E+03</pdfrwt>
<pdfrwt beam="2">  1       -2 0.22300973E-01 0.48753013E+03</pdfrwt>
<totfact> 0.16025042E+03</totfact>
</mgrwt>
</event>
<event>
 4    1  0.4895160E-005  0.4252582E+03  0.7818608E-02  0.1035368E+00
          2   -1    0    0  501    0  0.00000000000E+00  0.00000000000E+00  0.96690243249E+02  0.96690243282E+02  0.25500000000E-02 0.  1.
         -2   -1    0    0    0  501 -0.00000000000E+00 -0.00000000000E+00 -0.46758738396E+03  0.46758738396E+03  0.25500000000E-02 0. -1.
    5000001    1    1    2    0    0  0.54944626540E+02 -0.14701546839E+03 -0.27396102971E+03  0.34031765416E+03  0.12700000000E+03 0.  0.
   -5000001    1    1    2    0    0 -0.54944626540E+02  0.14701546839E+03 -0.96936110999E+02  0.22395997309E+03  0.12700000000E+03 0.  0.
<mgrwt>
<rscale>  0 0.42525822E+03</rscale>
<asrwt>0</asrwt>
<pdfrwt beam="1">  1        2 0.13812892E-01 0.42525822E+03</pdfrwt>
<pdfrwt beam="2">  1       -2 0.66798196E-01 0.42525822E+03</pdfrwt>
<totfact> 0.91483476E+02</totfact>
</mgrwt>
</event>
<event>
 4    1  0.4895160E-005  0.2952159E+03  0.7818608E-02  0.1087657E+00
          2   -1    0    0  501    0  0.00000000000E+00  0.00000000000E+00  0.54544622145E+03  0.54544622146E+03  0.25500000000E-02 0.  1.
         -2   -1    0    0    0  501 -0.00000000000E+00 -0.00000000000E+00 -0.39945474164E+02  0.39945474245E+02  0.25500000000E-02 0. -1.
    5000001    1    1    2    0    0  0.47208996486E+02  0.58383992720E+02  0.24350729068E+03  0.28471420859E+03  0.12700000000E+03 0.  0.
   -5000001    1    1    2    0    0 -0.47208996486E+02 -0.58383992720E+02  0.26199345660E+03  0.30067748712E+03  0.12700000000E+03 0.  0.
<mgrwt>
<rscale>  0 0.29521591E+03</rscale>
<asrwt>0</asrwt>
<pdfrwt beam="1">  1        2 0.77920891E-01 0.29521591E+03</pdfrwt>
<pdfrwt beam="2">  1       -2 0.57064961E-02 0.29521591E+03</pdfrwt>
<totfact> 0.97889851E+03</totfact>
</mgrwt>
</event>
<event>
 4    1  0.4895160E-005  0.5388669E+03  0.7818608E-02  0.1004104E+00
         -2   -1    0    0    0  501 -0.00000000000E+00  0.00000000000E+00  0.50504824278E+02  0.50504824343E+02  0.25500000000E-02 0. -1.
          2   -1    0    0  501    0  0.00000000000E+00 -0.00000000000E+00 -0.14373752873E+04  0.14373752873E+04  0.25500000000E-02 0.  1.
    5000001    1    1    2    0    0 -0.16241055094E+03  0.90822452918E+02 -0.11014797836E+04  0.11242831577E+04  0.12700000000E+03 0.  0.
   -5000001    1    1    2    0    0  0.16241055094E+03 -0.90822452918E+02 -0.28539067937E+03  0.36359695390E+03  0.12700000000E+03 0.  0.
<mgrwt>
<rscale>  0 0.53886691E+03</rscale>
<asrwt>0</asrwt>
<pdfrwt beam="1">  1        2 0.20533930E+00 0.53886691E+03</pdfrwt>
<pdfrwt beam="2">  1       -2 0.72149758E-02 0.53886691E+03</pdfrwt>
<totfact> 0.18559954E+03</totfact>
</mgrwt>
</event>
<event>
 4    1  0.4895160E-005  0.5666492E+03  0.7818608E-02  0.9977121E-01
          2   -1    0    0  501    0  0.00000000000E+00  0.00000000000E+00  0.32342665686E+04  0.32342665686E+04  0.25500000000E-02 0.  1.
         -2   -1    0    0    0  501 -0.00000000000E+00 -0.00000000000E+00 -0.24819484798E+02  0.24819484929E+02  0.25500000000E-02 0. -1.
    5000001    1    1    2    0    0 -0.23247142722E+03 -0.63409511508E+02  0.20531971481E+04  0.20711859548E+04  0.12700000000E+03 0.  0.
   -5000001    1    1    2    0    0  0.23247142722E+03  0.63409511508E+02  0.11562499358E+04  0.11879000987E+04  0.12700000000E+03 0.  0.
<mgrwt>
<rscale>  0 0.56664920E+03</rscale>
<asrwt>0</asrwt>
<pdfrwt beam="1">  1        2 0.46203745E+00 0.56664920E+03</pdfrwt>
<pdfrwt beam="2">  1       -2 0.35456456E-02 0.56664920E+03</pdfrwt>
<totfact> 0.65402694E+02</totfact>
</mgrwt>
</event>
<event>
 4    1  0.4895160E-005  0.3782026E+03  0.7818608E-02  0.1051600E+00
          2   -1    0    0  501    0  0.00000000000E+00  0.00000000000E+00  0.49237146635E+03  0.49237146636E+03  0.25500000000E-02 0.  1.
         -2   -1    0    0    0  501 -0.00000000000E+00 -0.00000000000E+00 -0.72626658640E+02  0.72626658685E+02  0.25500000000E-02 0. -1.
    5000001    1    1    2    0    0 -0.10189131268E+03 -0.95082409368E+02  0.18833788720E+03  0.26650077659E+03  0.12700000000E+03 0.  0.
   -5000001    1    1    2    0    0  0.10189131268E+03  0.95082409368E+02  0.23140692052E+03  0.29849734845E+03  0.12700000000E+03 0.  0.
<mgrwt>
<rscale>  0 0.37820256E+03</rscale>
<asrwt>0</asrwt>
<pdfrwt beam="1">  1        2 0.70338780E-01 0.37820256E+03</pdfrwt>
<pdfrwt beam="2">  1       -2 0.10375237E-01 0.37820256E+03</pdfrwt>
<totfact> 0.43319892E+03</totfact>
</mgrwt>
</event>
<event>
 4    1  0.4895160E-005  0.2891311E+03  0.7818608E-02  0.1090804E+00
          2   -1    0    0  501    0  0.00000000000E+00  0.00000000000E+00  0.97979609421E+03  0.97979609422E+03  0.25500000000E-02 0.  1.
         -2   -1    0    0    0  501 -0.00000000000E+00 -0.00000000000E+00 -0.21330148490E+02  0.21330148642E+02  0.25500000000E-02 0. -1.
    5000001    1    1    2    0    0 -0.47795075184E+00 -0.60597099274E+02  0.36450027796E+03  0.39071945115E+03  0.12700000000E+03 0.  0.
   -5000001    1    1    2    0    0  0.47795075184E+00  0.60597099274E+02  0.59396566777E+03  0.61040679171E+03  0.12700000000E+03 0.  0.
<mgrwt>
<rscale>  0 0.28913109E+03</rscale>
<asrwt>0</asrwt>
<pdfrwt beam="1">  1        2 0.13997088E+00 0.28913109E+03</pdfrwt>
<pdfrwt beam="2">  1       -2 0.30471639E-02 0.28913109E+03</pdfrwt>
<totfact> 0.12380648E+04</totfact>
</mgrwt>
</event>
<event>
 4    1  0.4895160E-005  0.6167178E+03  0.7818608E-02  0.9871316E-01
          2   -1    0    0  501    0  0.00000000000E+00  0.00000000000E+00  0.39796164561E+03  0.39796164562E+03  0.25500000000E-02 0.  1.
         -2   -1    0    0    0  501 -0.00000000000E+00 -0.00000000000E+00 -0.23893062648E+03  0.23893062650E+03  0.25500000000E-02 0. -1.
    5000001    1    1    2    0    0 -0.24357343601E+02  0.13699648203E+03  0.33162201023E+03  0.38139674087E+03  0.12700000000E+03 0.  0.
   -5000001    1    1    2    0    0  0.24357343601E+02 -0.13699648203E+03 -0.17259099110E+03  0.25549553125E+03  0.12700000000E+03 0.  0.
<mgrwt>
<rscale>  0 0.61671785E+03</rscale>
<asrwt>0</asrwt>
<pdfrwt beam="1">  1        2 0.56851664E-01 0.61671785E+03</pdfrwt>
<pdfrwt beam="2">  1       -2 0.34132947E-01 0.61671785E+03</pdfrwt>
<totfact> 0.70242282E+02</totfact>
</mgrwt>
</event>
<event>
 4    1  0.4895160E-005  0.3730250E+03  0.7818608E-02  0.1053542E+00
          2   -1    0    0  501    0  0.00000000000E+00  0.00000000000E+00  0.35385121199E+03  0.35385121199E+03  0.25500000000E-02 0.  1.
         -2   -1    0    0    0  501 -0.00000000000E+00 -0.00000000000E+00 -0.98309414277E+02  0.98309414310E+02  0.25500000000E-02 0. -1.
    5000001    1    1    2    0    0  0.22327528110E+02 -0.96634078385E+02  0.24161740603E+03  0.29042147736E+03  0.12700000000E+03 0.  0.
   -5000001    1    1    2    0    0 -0.22327528110E+02  0.96634078385E+02  0.13924391678E+02  0.16173914894E+03  0.12700000000E+03 0.  0.
<mgrwt>
<rscale>  0 0.37302496E+03</rscale>
<asrwt>0</asrwt>
<pdfrwt beam="1">  1        2 0.50550173E-01 0.37302496E+03</pdfrwt>
<pdfrwt beam="2">  1       -2 0.14044202E-01 0.37302496E+03</pdfrwt>
<totfact> 0.38022391E+03</totfact>
</mgrwt>
</event>
<event>
 4    1  0.4895160E-005  0.3069117E+03  0.7818608E-02  0.1081836E+00
         -2   -1    0    0    0  501 -0.00000000000E+00  0.00000000000E+00  0.29814212569E+02  0.29814212678E+02  0.25500000000E-02 0. -1.
          2   -1    0    0  501    0  0.00000000000E+00 -0.00000000000E+00 -0.78984799989E+03  0.78984799989E+03  0.25500000000E-02 0.  1.
    5000001    1    1    2    0    0  0.75248498719E+02  0.26043543993E+02 -0.46774747695E+03  0.49117950379E+03  0.12700000000E+03 0.  0.
   -5000001    1    1    2    0    0 -0.75248498719E+02 -0.26043543993E+02 -0.29228631037E+03  0.32848270878E+03  0.12700000000E+03 0.  0.
<mgrwt>
<rscale>  0 0.30691169E+03</rscale>
<asrwt>0</asrwt>
<pdfrwt beam="1">  1        2 0.11283542E+00 0.30691169E+03</pdfrwt>
<pdfrwt beam="2">  1       -2 0.42591737E-02 0.30691169E+03</pdfrwt>
<totfact> 0.99074396E+03</totfact>
</mgrwt>
</event>
<event>
 4    1  0.4895160E-005  0.3986022E+03  0.7818608E-02  0.1044265E+00
          2   -1    0    0  501    0  0.00000000000E+00  0.00000000000E+00  0.42683969310E+03  0.42683969311E+03  0.25500000000E-02 0.  1.
         -2   -1    0    0    0  501 -0.00000000000E+00 -0.00000000000E+00 -0.93058204089E+02  0.93058204124E+02  0.25500000000E-02 0. -1.
    5000001    1    1    2    0    0  0.86617412108E+02 -0.32859987753E+02  0.32668553185E+03  0.36253936558E+03  0.12700000000E+03 0.  0.
   -5000001    1    1    2    0    0 -0.86617412108E+02  0.32859987753E+02  0.70959571605E+01  0.15735853165E+03  0.12700000000E+03 0.  0.
<mgrwt>
<rscale>  0 0.39860223E+03</rscale>
<asrwt>0</asrwt>
<pdfrwt beam="1">  1        2 0.60977099E-01 0.39860223E+03</pdfrwt>
<pdfrwt beam="2">  1       -2 0.13294029E-01 0.39860223E+03</pdfrwt>
<totfact> 0.33948884E+03</totfact>
</mgrwt>
</event>
<event>
 4    1  0.4895160E-005  0.4201880E+03  0.7818608E-02  0.1037005E+00
         -2   -1    0    0    0  501 -0.00000000000E+00  0.00000000000E+00  0.40361249422E+02  0.40361249503E+02  0.25500000000E-02 0. -1.
          2   -1    0    0  501    0  0.00000000000E+00 -0.00000000000E+00 -0.10936105907E+04  0.10936105907E+04  0.25500000000E-02 0.  1.
    5000001    1    1    2    0    0 -0.51553046306E+02 -0.15862669305E+03 -0.56385783671E+03  0.60156861982E+03  0.12700000000E+03 0.  0.
   -5000001    1    1    2    0    0  0.51553046306E+02  0.15862669305E+03 -0.48939150453E+03  0.53240322035E+03  0.12700000000E+03 0.  0.
<mgrwt>
<rscale>  0 0.42018800E+03</rscale>
<asrwt>0</asrwt>
<pdfrwt beam="1">  1        2 0.15623007E+00 0.42018800E+03</pdfrwt>
<pdfrwt beam="2">  1       -2 0.57658934E-02 0.42018800E+03</pdfrwt>
<totfact> 0.40637945E+03</totfact>
</mgrwt>
</event>
<event>
 4    1  0.4895160E-005  0.2899390E+03  0.7818608E-02  0.1090381E+00
          2   -1    0    0  501    0  0.00000000000E+00  0.00000000000E+00  0.56138029420E+03  0.56138029420E+03  0.25500000000E-02 0.  1.
         -2   -1    0    0    0  501 -0.00000000000E+00 -0.00000000000E+00 -0.37436585392E+02  0.37436585478E+02  0.25500000000E-02 0. -1.
    5000001    1    1    2    0    0  0.19235085707E+02 -0.64714220485E+02  0.22449654025E+03  0.26661885800E+03  0.12700000000E+03 0.  0.
   -5000001    1    1    2    0    0 -0.19235085707E+02  0.64714220485E+02  0.29944716855E+03  0.33219802168E+03  0.12700000000E+03 0.  0.
<mgrwt>
<rscale>  0 0.28993904E+03</rscale>
<asrwt>0</asrwt>
<pdfrwt beam="1">  1        2 0.80197171E-01 0.28993904E+03</pdfrwt>
<pdfrwt beam="2">  1       -2 0.53480846E-02 0.28993904E+03</pdfrwt>
<totfact> 0.10457988E+04</totfact>
</mgrwt>
</event>
<event>
 4    1  0.4895160E-005  0.2712722E+03  0.7818608E-02  0.1100554E+00
          2   -1    0    0  501    0  0.00000000000E+00  0.00000000000E+00  0.14414949133E+03  0.14414949136E+03  0.25500000000E-02 0.  1.
         -2   -1    0    0    0  501 -0.00000000000E+00 -0.00000000000E+00 -0.12762554399E+03  0.12762554401E+03  0.25500000000E-02 0. -1.
    5000001    1    1    2    0    0 -0.40583098569E+02  0.16508101429E+02  0.26968806058E+02  0.13702489483E+03  0.12700000000E+03 0.  0.
   -5000001    1    1    2    0    0  0.40583098569E+02 -0.16508101429E+02 -0.10444858713E+02  0.13475014054E+03  0.12700000000E+03 0.  0.
<mgrwt>
<rscale>  0 0.27127224E+03</rscale>
<asrwt>0</asrwt>
<pdfrwt beam="1">  1        2 0.20592784E-01 0.27127224E+03</pdfrwt>
<pdfrwt beam="2">  1       -2 0.18232221E-01 0.27127224E+03</pdfrwt>
<totfact> 0.65553638E+03</totfact>
</mgrwt>
</event>
<event>
 4    1  0.4895160E-005  0.4556675E+03  0.7818608E-02  0.1026045E+00
         -2   -1    0    0    0  501 -0.00000000000E+00  0.00000000000E+00  0.25749189191E+02  0.25749189317E+02  0.25500000000E-02 0. -1.
          2   -1    0    0  501    0  0.00000000000E+00 -0.00000000000E+00 -0.20159167995E+04  0.20159167995E+04  0.25500000000E-02 0.  1.
    5000001    1    1    2    0    0 -0.14789765999E+03  0.56634067410E+00 -0.15234378013E+04  0.15358599458E+04  0.12700000000E+03 0.  0.
   -5000001    1    1    2    0    0  0.14789765999E+03 -0.56634067410E+00 -0.46672980898E+03  0.50580604302E+03  0.12700000000E+03 0.  0.
<mgrwt>
<rscale>  0 0.45566752E+03</rscale>
<asrwt>0</asrwt>
<pdfrwt beam="1">  1        2 0.28798801E+00 0.45566752E+03</pdfrwt>
<pdfrwt beam="2">  1       -2 0.36784569E-02 0.45566752E+03</pdfrwt>
<totfact> 0.26890217E+03</totfact>
</mgrwt>
</event>
<event>
 4    1  0.4895160E-005  0.4446781E+03  0.7818608E-02  0.1029321E+00
          2   -1    0    0  501    0  0.00000000000E+00  0.00000000000E+00  0.11500036912E+04  0.11500036912E+04  0.25500000000E-02 0.  1.
         -2   -1    0    0    0  501 -0.00000000000E+00 -0.00000000000E+00 -0.42986507505E+02  0.42986507581E+02  0.25500000000E-02 0. -1.
    5000001    1    1    2    0    0 -0.15813337335E+03  0.80157886280E+02  0.66965297292E+03  0.70426951847E+03  0.12700000000E+03 0.  0.
   -5000001    1    1    2    0    0  0.15813337335E+03 -0.80157886280E+02  0.43736421073E+03  0.48872068027E+03  0.12700000000E+03 0.  0.
<mgrwt>
<rscale>  0 0.44467805E+03</rscale>
<asrwt>0</asrwt>
<pdfrwt beam="1">  1        2 0.16428624E+00 0.44467805E+03</pdfrwt>
<pdfrwt beam="2">  1       -2 0.61409298E-02 0.44467805E+03</pdfrwt>
<totfact> 0.34235096E+03</totfact>
</mgrwt>
</event>
<event>
 4    1  0.4895160E-005  0.4820202E+03  0.7818608E-02  0.1018581E+00
         -2   -1    0    0    0  501 -0.00000000000E+00  0.00000000000E+00  0.25582597976E+03  0.25582597977E+03  0.25500000000E-02 0. -1.
          2   -1    0    0  501    0  0.00000000000E+00 -0.00000000000E+00 -0.22705227751E+03  0.22705227752E+03  0.25500000000E-02 0.  1.
    5000001    1    1    2    0    0 -0.15196481228E+02 -0.10015489887E+03 -0.16396077388E+03  0.23081176786E+03  0.12700000000E+03 0.  0.
   -5000001    1    1    2    0    0  0.15196481228E+02  0.10015489887E+03  0.19273447613E+03  0.25206648944E+03  0.12700000000E+03 0.  0.
<mgrwt>
<rscale>  0 0.48202021E+03</rscale>
<asrwt>0</asrwt>
<pdfrwt beam="1">  1        2 0.32436040E-01 0.48202021E+03</pdfrwt>
<pdfrwt beam="2">  1       -2 0.36546568E-01 0.48202021E+03</pdfrwt>
<totfact> 0.11479959E+03</totfact>
</mgrwt>
</event>
<event>
 4    1  0.4895160E-005  0.5825036E+03  0.7818608E-02  0.9942385E-01
          2   -1    0    0  501    0  0.00000000000E+00  0.00000000000E+00  0.23660275068E+04  0.23660275068E+04  0.25500000000E-02 0.  1.
         -2   -1    0    0    0  501 -0.00000000000E+00 -0.00000000000E+00 -0.35852334119E+02  0.35852334210E+02  0.25500000000E-02 0. -1.
    5000001    1    1    2    0    0  0.95456444879E+02  0.23815805916E+03  0.94428816509E+03  0.98673214843E+03  0.12700000000E+03 0.  0.
   -5000001    1    1    2    0    0 -0.95456444879E+02 -0.23815805916E+03  0.13858870075E+04  0.14151476925E+04  0.12700000000E+03 0.  0.
<mgrwt>
<rscale>  0 0.58250359E+03</rscale>
<asrwt>0</asrwt>
<pdfrwt beam="1">  1        2 0.33800403E+00 0.58250359E+03</pdfrwt>
<pdfrwt beam="2">  1       -2 0.51217605E-02 0.58250359E+03</pdfrwt>
<totfact> 0.10721770E+03</totfact>
</mgrwt>
</event>
<event>
 4    1  0.4895160E-005  0.5377447E+03  0.7818608E-02  0.1004371E+00
          2   -1    0    0  501    0  0.00000000000E+00  0.00000000000E+00  0.43374395801E+03  0.43374395802E+03  0.25500000000E-02 0.  1.
         -2   -1    0    0    0  501 -0.00000000000E+00 -0.00000000000E+00 -0.16667053001E+03  0.16667053003E+03  0.25500000000E-02 0. -1.
    5000001    1    1    2    0    0  0.92754215226E+02 -0.11307463275E+03  0.34174744278E+03  0.39282251929E+03  0.12700000000E+03 0.  0.
   -5000001    1    1    2    0    0 -0.92754215226E+02  0.11307463275E+03 -0.74674014771E+02  0.20759196877E+03  0.12700000000E+03 0.  0.
<mgrwt>
<rscale>  0 0.53774468E+03</rscale>
<asrwt>0</asrwt>
<pdfrwt beam="1">  1        2 0.61963423E-01 0.53774468E+03</pdfrwt>
<pdfrwt beam="2">  1       -2 0.23810076E-01 0.53774468E+03</pdfrwt>
<totfact> 0.12352609E+03</totfact>
</mgrwt>
</event>
<event>
 4    1  0.4895160E-005  0.2930915E+03  0.7818608E-02  0.1088746E+00
         -2   -1    0    0    0  501 -0.00000000000E+00  0.00000000000E+00  0.24408209588E+02  0.24408209721E+02  0.25500000000E-02 0. -1.
          2   -1    0    0  501    0  0.00000000000E+00 -0.00000000000E+00 -0.87985388138E+03  0.87985388138E+03  0.25500000000E-02 0.  1.
    5000001    1    1    2    0    0 -0.63349712517E+02  0.36511276485E+02 -0.42967075067E+03  0.45397380251E+03  0.12700000000E+03 0.  0.
   -5000001    1    1    2    0    0  0.63349712517E+02 -0.36511276485E+02 -0.42577492112E+03  0.45028828859E+03  0.12700000000E+03 0.  0.
<mgrwt>
<rscale>  0 0.29309151E+03</rscale>
<asrwt>0</asrwt>
<pdfrwt beam="1">  1        2 0.12569339E+00 0.29309151E+03</pdfrwt>
<pdfrwt beam="2">  1       -2 0.34868876E-02 0.29309151E+03</pdfrwt>
<totfact> 0.11667152E+04</totfact>
</mgrwt>
</event>
<event>
 4    1  0.4895160E-005  0.3191805E+03  0.7818608E-02  0.1076027E+00
         -2   -1    0    0    0  501 -0.00000000000E+00  0.00000000000E+00  0.82431323123E+02  0.82431323162E+02  0.25500000000E-02 0. -1.
          2   -1    0    0  501    0  0.00000000000E+00 -0.00000000000E+00 -0.30897290429E+03  0.30897290430E+03  0.25500000000E-02 0.  1.
    5000001    1    1    2    0    0 -0.90225568236E+02  0.97121849721E+01 -0.72506187598E+02  0.17210789331E+03  0.12700000000E+03 0.  0.
   -5000001    1    1    2    0    0  0.90225568236E+02 -0.97121849721E+01 -0.15403539357E+03  0.21929633415E+03  0.12700000000E+03 0.  0.
<mgrwt>
<rscale>  0 0.31918048E+03</rscale>
<asrwt>0</asrwt>
<pdfrwt beam="1">  1        2 0.44138986E-01 0.31918048E+03</pdfrwt>
<pdfrwt beam="2">  1       -2 0.11775903E-01 0.31918048E+03</pdfrwt>
<totfact> 0.58510189E+03</totfact>
</mgrwt>
</event>
<event>
 4    1  0.4895160E-005  0.3197234E+03  0.7818608E-02  0.1075777E+00
         -2   -1    0    0    0  501 -0.00000000000E+00  0.00000000000E+00  0.30999705255E+03  0.30999705256E+03  0.25500000000E-02 0. -1.
          2   -1    0    0  501    0  0.00000000000E+00 -0.00000000000E+00 -0.82438726431E+02  0.82438726470E+02  0.25500000000E-02 0.  1.
    5000001    1    1    2    0    0 -0.22327550699E+02  0.48387954931E+02  0.14162263967E+02  0.13845390360E+03  0.12700000000E+03 0.  0.
   -5000001    1    1    2    0    0  0.22327550699E+02 -0.48387954931E+02  0.21339606215E+03  0.25398187542E+03  0.12700000000E+03 0.  0.
<mgrwt>
<rscale>  0 0.31972339E+03</rscale>
<asrwt>0</asrwt>
<pdfrwt beam="1">  1        2 0.11776961E-01 0.31972339E+03</pdfrwt>
<pdfrwt beam="2">  1       -2 0.44285292E-01 0.31972339E+03</pdfrwt>
<totfact> 0.25622185E+03</totfact>
</mgrwt>
</event>
<event>
 4    1  0.4895160E-005  0.9905389E+03  0.7818608E-02  0.9318983E-01
          2   -1    0    0  501    0  0.00000000000E+00  0.00000000000E+00  0.17721449036E+04  0.17721449036E+04  0.25500000000E-02 0.  1.
         -2   -1    0    0    0  501 -0.00000000000E+00 -0.00000000000E+00 -0.13841520743E+03  0.13841520746E+03  0.25500000000E-02 0. -1.
    5000001    1    1    2    0    0 -0.34698176154E+03 -0.67650656993E+02  0.19427519555E+03  0.42290046801E+03  0.12700000000E+03 0.  0.
   -5000001    1    1    2    0    0  0.34698176154E+03  0.67650656993E+02  0.14394545006E+04  0.14876596430E+04  0.12700000000E+03 0.  0.
<mgrwt>
<rscale>  0 0.99053885E+03</rscale>
<asrwt>0</asrwt>
<pdfrwt beam="1">  1        2 0.25316355E+00 0.99053885E+03</pdfrwt>
<pdfrwt beam="2">  1       -2 0.19773601E-01 0.99053885E+03</pdfrwt>
<totfact> 0.22904283E+02</totfact>
</mgrwt>
</event>
<event>
 4    1  0.4895160E-005  0.2906197E+03  0.7818608E-02  0.1090026E+00
          2   -1    0    0  501    0  0.00000000000E+00  0.00000000000E+00  0.60009528655E+02  0.60009528709E+02  0.25500000000E-02 0. -1.
         -2   -1    0    0    0  501 -0.00000000000E+00 -0.00000000000E+00 -0.35185989119E+03  0.35185989120E+03  0.25500000000E-02 0.  1.
    5000001    1    1    2    0    0  0.37806216842E+02  0.59557402325E+02 -0.15030526544E+03  0.20903843432E+03  0.12700000000E+03 0.  0.
   -5000001    1    1    2    0    0 -0.37806216842E+02 -0.59557402325E+02 -0.14154509710E+03  0.20283098559E+03  0.12700000000E+03 0.  0.
<mgrwt>
<rscale>  0 0.29061966E+03</rscale>
<asrwt>0</asrwt>
<pdfrwt beam="1">  1        2 0.85727900E-02 0.29061966E+03</pdfrwt>
<pdfrwt beam="2">  1       -2 0.50265697E-01 0.29061966E+03</pdfrwt>
<totfact> 0.29549647E+03</totfact>
</mgrwt>
</event>
<event>
 4    1  0.4895160E-005  0.2695164E+03  0.7818608E-02  0.1101557E+00
          2   -1    0    0  501    0  0.00000000000E+00  0.00000000000E+00  0.24186940621E+03  0.24186940623E+03  0.25500000000E-02 0.  1.
         -2   -1    0    0    0  501 -0.00000000000E+00 -0.00000000000E+00 -0.75080874897E+02  0.75080874940E+02  0.25500000000E-02 0. -1.
    5000001    1    1    2    0    0 -0.33615303697E+02 -0.29460260421E+02  0.90136639250E+02  0.16202317526E+03  0.12700000000E+03 0.  0.
   -5000001    1    1    2    0    0  0.33615303697E+02  0.29460260421E+02  0.76651892067E+02  0.15492710591E+03  0.12700000000E+03 0.  0.
<mgrwt>
<rscale>  0 0.26951636E+03</rscale>
<asrwt>0</asrwt>
<pdfrwt beam="1">  1        2 0.34552772E-01 0.26951636E+03</pdfrwt>
<pdfrwt beam="2">  1       -2 0.10725839E-01 0.26951636E+03</pdfrwt>
<totfact> 0.88074419E+03</totfact>
</mgrwt>
</event>
<event>
 4    1  0.4895160E-005  0.3579162E+03  0.7818608E-02  0.1059412E+00
          2   -1    0    0  501    0  0.00000000000E+00  0.00000000000E+00  0.29232790680E+04  0.29232790680E+04  0.25500000000E-02 0.  1.
         -2   -1    0    0    0  501 -0.00000000000E+00 -0.00000000000E+00 -0.10955507236E+02  0.10955507532E+02  0.25500000000E-02 0. -1.
    5000001    1    1    2    0    0  0.11887040197E+03 -0.40892993767E+02  0.13764266211E+04  0.13879775404E+04  0.12700000000E+03 0.  0.
   -5000001    1    1    2    0    0 -0.11887040197E+03  0.40892993767E+02  0.15358969396E+04  0.15462570351E+04  0.12700000000E+03 0.  0.
<mgrwt>
<rscale>  0 0.35791622E+03</rscale>
<asrwt>0</asrwt>
<pdfrwt beam="1">  1        2 0.41761158E+00 0.35791622E+03</pdfrwt>
<pdfrwt beam="2">  1       -2 0.15650714E-02 0.35791622E+03</pdfrwt>
<totfact> 0.33595385E+03</totfact>
</mgrwt>
</event>
<event>
 4    1  0.4895160E-005  0.3675077E+03  0.7818608E-02  0.1055650E+00
          2   -1    0    0  501    0  0.00000000000E+00  0.00000000000E+00  0.25645223944E+03  0.25645223945E+03  0.25500000000E-02 0.  1.
         -2   -1    0    0    0  501 -0.00000000000E+00 -0.00000000000E+00 -0.13166382107E+03  0.13166382109E+03  0.25500000000E-02 0. -1.
    5000001    1    1    2    0    0 -0.57412177151E+01 -0.85666019884E+02  0.16939118813E+03  0.22846006907E+03  0.12700000000E+03 0.  0.
   -5000001    1    1    2    0    0  0.57412177151E+01  0.85666019884E+02 -0.44602769760E+02  0.15965599148E+03  0.12700000000E+03 0.  0.
<mgrwt>
<rscale>  0 0.36750772E+03</rscale>
<asrwt>0</asrwt>
<pdfrwt beam="1">  1        2 0.36636034E-01 0.36750772E+03</pdfrwt>
<pdfrwt beam="2">  1       -2 0.18809118E-01 0.36750772E+03</pdfrwt>
<totfact> 0.33036274E+03</totfact>
</mgrwt>
</event>
<event>
 4    1  0.4895160E-005  0.4035162E+03  0.7818608E-02  0.1042569E+00
          2   -1    0    0  501    0  0.00000000000E+00  0.00000000000E+00  0.33580177988E+03  0.33580177989E+03  0.25500000000E-02 0.  1.
         -2   -1    0    0    0  501 -0.00000000000E+00 -0.00000000000E+00 -0.12122129832E+03  0.12122129835E+03  0.25500000000E-02 0. -1.
    5000001    1    1    2    0    0 -0.55950934975E+02 -0.14109785425E+03  0.62869493964E+02  0.20765520670E+03  0.12700000000E+03 0.  0.
   -5000001    1    1    2    0    0  0.55950934975E+02  0.14109785425E+03  0.15171098760E+03  0.24936787154E+03  0.12700000000E+03 0.  0.
<mgrwt>
<rscale>  0 0.40351618E+03</rscale>
<asrwt>0</asrwt>
<pdfrwt beam="1">  1        2 0.47971683E-01 0.40351618E+03</pdfrwt>
<pdfrwt beam="2">  1       -2 0.17317328E-01 0.40351618E+03</pdfrwt>
<totfact> 0.28392682E+03</totfact>
</mgrwt>
</event>
<event>
 4    1  0.4895160E-005  0.2798526E+03  0.7818608E-02  0.1095769E+00
          2   -1    0    0  501    0  0.00000000000E+00  0.00000000000E+00  0.30608717688E+03  0.30608717689E+03  0.25500000000E-02 0.  1.
         -2   -1    0    0    0  501 -0.00000000000E+00 -0.00000000000E+00 -0.63966628570E+02  0.63966628620E+02  0.25500000000E-02 0. -1.
    5000001    1    1    2    0    0 -0.51307795194E+02  0.26921581411E+02  0.10830122576E+03  0.17667885242E+03  0.12700000000E+03 0.  0.
   -5000001    1    1    2    0    0  0.51307795194E+02 -0.26921581411E+02  0.13381932256E+03  0.19337495309E+03  0.12700000000E+03 0.  0.
<mgrwt>
<rscale>  0 0.27985257E+03</rscale>
<asrwt>0</asrwt>
<pdfrwt beam="1">  1        2 0.43726740E-01 0.27985257E+03</pdfrwt>
<pdfrwt beam="2">  1       -2 0.91380898E-02 0.27985257E+03</pdfrwt>
<totfact> 0.88222982E+03</totfact>
</mgrwt>
</event>
<event>
 4    1  0.4895160E-005  0.3168824E+03  0.7818608E-02  0.1077093E+00
          2   -1    0    0  501    0  0.00000000000E+00  0.00000000000E+00  0.91290751666E+03  0.91290751666E+03  0.25500000000E-02 0.  1.
         -2   -1    0    0    0  501 -0.00000000000E+00 -0.00000000000E+00 -0.27498526116E+02  0.27498526234E+02  0.25500000000E-02 0. -1.
    5000001    1    1    2    0    0  0.70048441159E+02 -0.49785704882E+02  0.32439814438E+03  0.35881549102E+03  0.12700000000E+03 0.  0.
   -5000001    1    1    2    0    0 -0.70048441159E+02  0.49785704882E+02  0.56101084616E+03  0.58159055187E+03  0.12700000000E+03 0.  0.
<mgrwt>
<rscale>  0 0.31688238E+03</rscale>
<asrwt>0</asrwt>
<pdfrwt beam="1">  1        2 0.13041537E+00 0.31688238E+03</pdfrwt>
<pdfrwt beam="2">  1       -2 0.39283606E-02 0.31688238E+03</pdfrwt>
<totfact> 0.93188970E+03</totfact>
</mgrwt>
</event>
<event>
 4    1  0.4895160E-005  0.2792184E+03  0.7818608E-02  0.1096117E+00
          2   -1    0    0  501    0  0.00000000000E+00  0.00000000000E+00  0.66983853951E+03  0.66983853952E+03  0.25500000000E-02 0.  1.
         -2   -1    0    0    0  501 -0.00000000000E+00 -0.00000000000E+00 -0.29097649703E+02  0.29097649815E+02  0.25500000000E-02 0. -1.
    5000001    1    1    2    0    0  0.93372800979E+01 -0.28491565339E+02  0.44459450326E+03  0.46334892514E+03  0.12700000000E+03 0.  0.
   -5000001    1    1    2    0    0 -0.93372800979E+01  0.28491565339E+02  0.19614638655E+03  0.23558726419E+03  0.12700000000E+03 0.  0.
<mgrwt>
<rscale>  0 0.27921839E+03</rscale>
<asrwt>0</asrwt>
<pdfrwt beam="1">  1        2 0.95691224E-01 0.27921839E+03</pdfrwt>
<pdfrwt beam="2">  1       -2 0.41568069E-02 0.27921839E+03</pdfrwt>
<totfact> 0.12491470E+04</totfact>
</mgrwt>
</event>
<event>
 4    1  0.4895160E-005  0.3491044E+03  0.7818608E-02  0.1062983E+00
          2   -1    0    0  501    0  0.00000000000E+00  0.00000000000E+00  0.26421353757E+03  0.26421353758E+03  0.25500000000E-02 0.  1.
         -2   -1    0    0    0  501 -0.00000000000E+00 -0.00000000000E+00 -0.11531758513E+03  0.11531758516E+03  0.25500000000E-02 0. -1.
    5000001    1    1    2    0    0  0.78542373442E+02  0.74316069125E+02  0.18507621164E+02  0.16781929149E+03  0.12700000000E+03 0.  0.
   -5000001    1    1    2    0    0 -0.78542373442E+02 -0.74316069125E+02  0.13038833128E+03  0.21171183125E+03  0.12700000000E+03 0.  0.
<mgrwt>
<rscale>  0 0.34910438E+03</rscale>
<asrwt>0</asrwt>
<pdfrwt beam="1">  1        2 0.37744791E-01 0.34910438E+03</pdfrwt>
<pdfrwt beam="2">  1       -2 0.16473941E-01 0.34910438E+03</pdfrwt>
<totfact> 0.39980090E+03</totfact>
</mgrwt>
</event>
<event>
 4    1  0.4895160E-005  0.2782788E+03  0.7818608E-02  0.1096633E+00
         -2   -1    0    0    0  501 -0.00000000000E+00  0.00000000000E+00  0.10524674245E+02  0.10524674554E+02  0.25500000000E-02 0. -1.
          2   -1    0    0  501    0  0.00000000000E+00 -0.00000000000E+00 -0.18394651876E+04  0.18394651876E+04  0.25500000000E-02 0.  1.
    5000001    1    1    2    0    0  0.12491033458E+02  0.54148615782E+02 -0.99387768649E+03  0.10034988561E+04  0.12700000000E+03 0.  0.
   -5000001    1    1    2    0    0 -0.12491033458E+02 -0.54148615782E+02 -0.83506282691E+03  0.84649100609E+03  0.12700000000E+03 0.  0.
<mgrwt>
<rscale>  0 0.27827880E+03</rscale>
<asrwt>0</asrwt>
<pdfrwt beam="1">  1        2 0.26278054E+00 0.27827880E+03</pdfrwt>
<pdfrwt beam="2">  1       -2 0.15035261E-02 0.27827880E+03</pdfrwt>
<totfact> 0.12445040E+04</totfact>
</mgrwt>
</event>
<event>
 4    1  0.4895160E-005  0.2992916E+03  0.7818608E-02  0.1085595E+00
          2   -1    0    0  501    0  0.00000000000E+00  0.00000000000E+00  0.93551232854E+03  0.93551232855E+03  0.25500000000E-02 0.  1.
         -2   -1    0    0    0  501 -0.00000000000E+00 -0.00000000000E+00 -0.23937541674E+02  0.23937541809E+02  0.25500000000E-02 0. -1.
    5000001    1    1    2    0    0 -0.69665571024E+02  0.17217512820E+02  0.34873640471E+03  0.37801562733E+03  0.12700000000E+03 0.  0.
   -5000001    1    1    2    0    0  0.69665571024E+02 -0.17217512820E+02  0.56283838216E+03  0.58143424303E+03  0.12700000000E+03 0.  0.
<mgrwt>
<rscale>  0 0.29929160E+03</rscale>
<asrwt>0</asrwt>
<pdfrwt beam="1">  1        2 0.13364459E+00 0.29929160E+03</pdfrwt>
<pdfrwt beam="2">  1       -2 0.34196495E-02 0.29929160E+03</pdfrwt>
<totfact> 0.11096534E+04</totfact>
</mgrwt>
</event>
<event>
 4    1  0.4895160E-005  0.4165324E+03  0.7818608E-02  0.1038201E+00
         -2   -1    0    0    0  501 -0.00000000000E+00  0.00000000000E+00  0.56398723641E+02  0.56398723699E+02  0.25500000000E-02 0. -1.
          2   -1    0    0  501    0  0.00000000000E+00 -0.00000000000E+00 -0.76907430271E+03  0.76907430271E+03  0.25500000000E-02 0.  1.
    5000001    1    1    2    0    0 -0.24068004523E+02 -0.16322011302E+03 -0.34628432511E+03  0.40405681278E+03  0.12700000000E+03 0.  0.
   -5000001    1    1    2    0    0  0.24068004523E+02  0.16322011302E+03 -0.36639125395E+03  0.42141621363E+03  0.12700000000E+03 0.  0.
<mgrwt>
<rscale>  0 0.41653240E+03</rscale>
<asrwt>0</asrwt>
<pdfrwt beam="1">  1        2 0.10986775E+00 0.41653240E+03</pdfrwt>
<pdfrwt beam="2">  1       -2 0.80569610E-02 0.41653240E+03</pdfrwt>
<totfact> 0.38527105E+03</totfact>
</mgrwt>
</event>
<event>
 4    1  0.4895160E-005  0.4070669E+03  0.7818608E-02  0.1041360E+00
         -2   -1    0    0    0  501 -0.00000000000E+00  0.00000000000E+00  0.54878841343E+02  0.54878841402E+02  0.25500000000E-02 0. -1.
          2   -1    0    0  501    0  0.00000000000E+00 -0.00000000000E+00 -0.75486057312E+03  0.75486057312E+03  0.25500000000E-02 0.  1.
    5000001    1    1    2    0    0  0.12828126518E+03  0.85319582755E+02 -0.42859237680E+03  0.47281702555E+03  0.12700000000E+03 0.  0.
   -5000001    1    1    2    0    0 -0.12828126518E+03 -0.85319582755E+02 -0.27138935497E+03  0.33692238897E+03  0.12700000000E+03 0.  0.
<mgrwt>
<rscale>  0 0.40706694E+03</rscale>
<asrwt>0</asrwt>
<pdfrwt beam="1">  1        2 0.10783722E+00 0.40706694E+03</pdfrwt>
<pdfrwt beam="2">  1       -2 0.78398350E-02 0.40706694E+03</pdfrwt>
<totfact> 0.41152186E+03</totfact>
</mgrwt>
</event>
<event>
 4    1  0.4895160E-005  0.3993096E+03  0.7818608E-02  0.1044019E+00
         -2   -1    0    0    0  501 -0.00000000000E+00  0.00000000000E+00  0.19834608268E+02  0.19834608432E+02  0.25500000000E-02 0. -1.
          2   -1    0    0  501    0  0.00000000000E+00 -0.00000000000E+00 -0.20097215419E+04  0.20097215419E+04  0.25500000000E-02 0.  1.
    5000001    1    1    2    0    0 -0.48855644665E+02  0.14519840059E+03 -0.91242409952E+03  0.93387161159E+03  0.12700000000E+03 0.  0.
   -5000001    1    1    2    0    0  0.48855644665E+02 -0.14519840059E+03 -0.10774628341E+04  0.10956845388E+04  0.12700000000E+03 0.  0.
<mgrwt>
<rscale>  0 0.39930960E+03</rscale>
<asrwt>0</asrwt>
<pdfrwt beam="1">  1        2 0.28710295E+00 0.39930960E+03</pdfrwt>
<pdfrwt beam="2">  1       -2 0.28335168E-02 0.39930960E+03</pdfrwt>
<totfact> 0.40234964E+03</totfact>
</mgrwt>
</event>
<event>
 4    1  0.4895160E-005  0.8136316E+03  0.7818608E-02  0.9540493E-01
          2   -1    0    0  501    0  0.00000000000E+00  0.00000000000E+00  0.65081200980E+03  0.65081200980E+03  0.25500000000E-02 0.  1.
         -2   -1    0    0    0  501 -0.00000000000E+00 -0.00000000000E+00 -0.25429629555E+03  0.25429629556E+03  0.25500000000E-02 0. -1.
    5000001    1    1    2    0    0  0.49262713488E+02  0.29375365366E+03 -0.75707426559E+02  0.33253366508E+03  0.12700000000E+03 0.  0.
   -5000001    1    1    2    0    0 -0.49262713488E+02 -0.29375365366E+03  0.47222314081E+03  0.57257464028E+03  0.12700000000E+03 0.  0.
<mgrwt>
<rscale>  0 0.81363157E+03</rscale>
<asrwt>0</asrwt>
<pdfrwt beam="1">  1        2 0.92973143E-01 0.81363157E+03</pdfrwt>
<pdfrwt beam="2">  1       -2 0.36328043E-01 0.81363157E+03</pdfrwt>
<totfact> 0.35225522E+02</totfact>
</mgrwt>
</event>
<event>
 4    1  0.4895160E-005  0.2802079E+03  0.7818608E-02  0.1095575E+00
          2   -1    0    0  501    0  0.00000000000E+00  0.00000000000E+00  0.94385707265E+03  0.94385707266E+03  0.25500000000E-02 0.  1.
         -2   -1    0    0    0  501 -0.00000000000E+00 -0.00000000000E+00 -0.20796704992E+02  0.20796705148E+02  0.25500000000E-02 0. -1.
    5000001    1    1    2    0    0  0.14643181615E+02 -0.50847759088E+02  0.37043360207E+03  0.39515815937E+03  0.12700000000E+03 0.  0.
   -5000001    1    1    2    0    0 -0.14643181615E+02  0.50847759088E+02  0.55262676559E+03  0.56949561844E+03  0.12700000000E+03 0.  0.
<mgrwt>
<rscale>  0 0.28020790E+03</rscale>
<asrwt>0</asrwt>
<pdfrwt beam="1">  1        2 0.13483673E+00 0.28020790E+03</pdfrwt>
<pdfrwt beam="2">  1       -2 0.29709578E-02 0.28020790E+03</pdfrwt>
<totfact> 0.13500166E+04</totfact>
</mgrwt>
</event>
<event>
 4    1  0.4895160E-005  0.3288363E+03  0.7818608E-02  0.1071653E+00
         -2   -1    0    0    0  501 -0.00000000000E+00  0.00000000000E+00  0.20951237212E+02  0.20951237368E+02  0.25500000000E-02 0. -1.
          2   -1    0    0  501    0  0.00000000000E+00 -0.00000000000E+00 -0.12902976393E+04  0.12902976393E+04  0.25500000000E-02 0.  1.
    5000001    1    1    2    0    0  0.79201769226E+02 -0.61039987912E+02 -0.75466654612E+03  0.77178325727E+03  0.12700000000E+03 0.  0.
   -5000001    1    1    2    0    0 -0.79201769226E+02  0.61039987912E+02 -0.51467985595E+03  0.53946561938E+03  0.12700000000E+03 0.  0.
<mgrwt>
<rscale>  0 0.32883632E+03</rscale>
<asrwt>0</asrwt>
<pdfrwt beam="1">  1        2 0.18432818E+00 0.32883632E+03</pdfrwt>
<pdfrwt beam="2">  1       -2 0.29930347E-02 0.32883632E+03</pdfrwt>
<totfact> 0.85476562E+03</totfact>
</mgrwt>
</event>
<event>
 4    1  0.4895160E-005  0.3371950E+03  0.7818608E-02  0.1067997E+00
         -2   -1    0    0    0  501 -0.00000000000E+00  0.00000000000E+00  0.59165256849E+03  0.59165256849E+03  0.25500000000E-02 0. -1.
          2   -1    0    0  501    0  0.00000000000E+00 -0.00000000000E+00 -0.48043582563E+02  0.48043582631E+02  0.25500000000E-02 0.  1.
    5000001    1    1    2    0    0 -0.92289659792E+02  0.20281128182E+02  0.16171642320E+03  0.22629606050E+03  0.12700000000E+03 0.  0.
   -5000001    1    1    2    0    0  0.92289659792E+02 -0.20281128182E+02  0.38189256273E+03  0.41340009063E+03  0.12700000000E+03 0.  0.
<mgrwt>
<rscale>  0 0.33719495E+03</rscale>
<asrwt>0</asrwt>
<pdfrwt beam="1">  1        2 0.68633688E-02 0.33719495E+03</pdfrwt>
<pdfrwt beam="2">  1       -2 0.84521797E-01 0.33719495E+03</pdfrwt>
<totfact> 0.13128727E+03</totfact>
</mgrwt>
</event>
<event>
 4    1  0.4895160E-005  0.2601779E+03  0.7818608E-02  0.1107036E+00
         -2   -1    0    0    0  501 -0.00000000000E+00  0.00000000000E+00  0.50419663368E+02  0.50419663432E+02  0.25500000000E-02 0. -1.
          2   -1    0    0  501    0  0.00000000000E+00 -0.00000000000E+00 -0.33564541388E+03  0.33564541389E+03  0.25500000000E-02 0.  1.
    5000001    1    1    2    0    0 -0.26509009651E+02 -0.37409561395E+01 -0.15566793189E+03  0.20267764397E+03  0.12700000000E+03 0.  0.
   -5000001    1    1    2    0    0  0.26509009651E+02  0.37409561395E+01 -0.12955781862E+03  0.18338743335E+03  0.12700000000E+03 0.  0.
<mgrwt>
<rscale>  0 0.26017785E+03</rscale>
<asrwt>0</asrwt>
<pdfrwt beam="1">  1        2 0.47949344E-01 0.26017785E+03</pdfrwt>
<pdfrwt beam="2">  1       -2 0.72028092E-02 0.26017785E+03</pdfrwt>
<totfact> 0.11553662E+04</totfact>
</mgrwt>
</event>
<event>
 4    1  0.4895160E-005  0.7778498E+03  0.7818608E-02  0.9592644E-01
          2   -1    0    0  501    0  0.00000000000E+00  0.00000000000E+00  0.10351017203E+04  0.10351017203E+04  0.25500000000E-02 0.  1.
         -2   -1    0    0    0  501 -0.00000000000E+00 -0.00000000000E+00 -0.14613303938E+03  0.14613303940E+03  0.25500000000E-02 0. -1.
    5000001    1    1    2    0    0  0.32275327106E+03  0.57661872404E+02  0.19201908285E+03  0.40061813949E+03  0.12700000000E+03 0.  0.
   -5000001    1    1    2    0    0 -0.32275327106E+03 -0.57661872404E+02  0.69694959810E+03  0.78061662024E+03  0.12700000000E+03 0.  0.
<mgrwt>
<rscale>  0 0.77784976E+03</rscale>
<asrwt>0</asrwt>
<pdfrwt beam="1">  1        2 0.14787168E+00 0.77784976E+03</pdfrwt>
<pdfrwt beam="2">  1       -2 0.20876148E-01 0.77784976E+03</pdfrwt>
<totfact> 0.53049242E+02</totfact>
</mgrwt>
</event>
<event>
 4    1  0.4895160E-005  0.3377866E+03  0.7818608E-02  0.1067743E+00
         -2   -1    0    0    0  501 -0.00000000000E+00  0.00000000000E+00  0.71591140619E+02  0.71591140664E+02  0.25500000000E-02 0. -1.
          2   -1    0    0  501    0  0.00000000000E+00 -0.00000000000E+00 -0.39844249221E+03  0.39844249222E+03  0.25500000000E-02 0.  1.
    5000001    1    1    2    0    0  0.47801157376E+02  0.34363126093E+02 -0.29492287951E+03  0.32645716402E+03  0.12700000000E+03 0.  0.
   -5000001    1    1    2    0    0 -0.47801157376E+02 -0.34363126093E+02 -0.31928472081E+02  0.14357646886E+03  0.12700000000E+03 0.  0.
<mgrwt>
<rscale>  0 0.33778663E+03</rscale>
<asrwt>0</asrwt>
<pdfrwt beam="1">  1        2 0.56920355E-01 0.33778663E+03</pdfrwt>
<pdfrwt beam="2">  1       -2 0.10227306E-01 0.33778663E+03</pdfrwt>
<totfact> 0.55816976E+03</totfact>
</mgrwt>
</event>
<event>
 4    1  0.4895160E-005  0.3544741E+03  0.7818608E-02  0.1060794E+00
          2   -1    0    0  501    0  0.00000000000E+00  0.00000000000E+00  0.19797314228E+04  0.19797314228E+04  0.25500000000E-02 0.  1.
         -2   -1    0    0    0  501 -0.00000000000E+00 -0.00000000000E+00 -0.15867285917E+02  0.15867286122E+02  0.25500000000E-02 0. -1.
    5000001    1    1    2    0    0 -0.76217571823E+02  0.73279295425E+02  0.62123311871E+03  0.64283634089E+03  0.12700000000E+03 0.  0.
   -5000001    1    1    2    0    0  0.76217571823E+02 -0.73279295425E+02  0.13426310182E+04  0.13527623680E+04  0.12700000000E+03 0.  0.
<mgrwt>
<rscale>  0 0.35447406E+03</rscale>
<asrwt>0</asrwt>
<pdfrwt beam="1">  1        2 0.28281876E+00 0.35447406E+03</pdfrwt>
<pdfrwt beam="2">  1       -2 0.22667552E-02 0.35447406E+03</pdfrwt>
<totfact> 0.58130267E+03</totfact>
</mgrwt>
</event>
<event>
 4    1  0.4895160E-005  0.5452932E+03  0.7818608E-02  0.1002589E+00
         -2   -1    0    0    0  501 -0.00000000000E+00  0.00000000000E+00  0.50942768692E+02  0.50942768756E+02  0.25500000000E-02 0. -1.
          2   -1    0    0  501    0  0.00000000000E+00 -0.00000000000E+00 -0.14592091677E+04  0.14592091677E+04  0.25500000000E-02 0.  1.
    5000001    1    1    2    0    0 -0.23803733786E+03 -0.12142087293E+02 -0.80767996124E+03  0.85163673259E+03  0.12700000000E+03 0.  0.
   -5000001    1    1    2    0    0  0.23803733786E+03  0.12142087293E+02 -0.60058643778E+03  0.65851520388E+03  0.12700000000E+03 0.  0.
<mgrwt>
<rscale>  0 0.54529315E+03</rscale>
<asrwt>0</asrwt>
<pdfrwt beam="1">  1        2 0.20845843E+00 0.54529315E+03</pdfrwt>
<pdfrwt beam="2">  1       -2 0.72775393E-02 0.54529315E+03</pdfrwt>
<totfact> 0.17829441E+03</totfact>
</mgrwt>
</event>
<event>
 4    1  0.4895160E-005  0.6422541E+03  0.7818608E-02  0.9821423E-01
         -2   -1    0    0    0  501 -0.00000000000E+00  0.00000000000E+00  0.58499892791E+03  0.58499892792E+03  0.25500000000E-02 0. -1.
          2   -1    0    0  501    0  0.00000000000E+00 -0.00000000000E+00 -0.17627826178E+03  0.17627826180E+03  0.25500000000E-02 0.  1.
    5000001    1    1    2    0    0  0.28715465270E+03 -0.24218238866E+02  0.27884976761E+03  0.42063108606E+03  0.12700000000E+03 0.  0.
   -5000001    1    1    2    0    0 -0.28715465270E+03  0.24218238866E+02  0.12987089852E+03  0.34064610366E+03  0.12700000000E+03 0.  0.
<mgrwt>
<rscale>  0 0.64225414E+03</rscale>
<asrwt>0</asrwt>
<pdfrwt beam="1">  1        2 0.25182609E-01 0.64225414E+03</pdfrwt>
<pdfrwt beam="2">  1       -2 0.83571276E-01 0.64225414E+03</pdfrwt>
<totfact> 0.27495695E+02</totfact>
</mgrwt>
</event>
<event>
 4    1  0.4895160E-005  0.6181277E+03  0.7818608E-02  0.9868494E-01
         -2   -1    0    0    0  501 -0.00000000000E+00  0.00000000000E+00  0.56974694194E+02  0.56974694251E+02  0.25500000000E-02 0. -1.
          2   -1    0    0  501    0  0.00000000000E+00 -0.00000000000E+00 -0.16765420769E+04  0.16765420769E+04  0.25500000000E-02 0.  1.
    5000001    1    1    2    0    0 -0.24549849205E+03 -0.44031673710E+02 -0.11774057133E+04  0.12102154814E+04  0.12700000000E+03 0.  0.
   -5000001    1    1    2    0    0  0.24549849205E+03  0.44031673710E+02 -0.44216166942E+03  0.52330128969E+03  0.12700000000E+03 0.  0.
<mgrwt>
<rscale>  0 0.61812773E+03</rscale>
<asrwt>0</asrwt>
<pdfrwt beam="1">  1        2 0.23950598E+00 0.61812773E+03</pdfrwt>
<pdfrwt beam="2">  1       -2 0.81392431E-02 0.61812773E+03</pdfrwt>
<totfact> 0.11499452E+03</totfact>
</mgrwt>
</event>
<event>
 4    1  0.4895160E-005  0.4500584E+03  0.7818608E-02  0.1027705E+00
         -2   -1    0    0    0  501 -0.00000000000E+00  0.00000000000E+00  0.30215120323E+02  0.30215120431E+02  0.25500000000E-02 0. -1.
          2   -1    0    0  501    0  0.00000000000E+00 -0.00000000000E+00 -0.16759208520E+04  0.16759208520E+04  0.25500000000E-02 0.  1.
    5000001    1    1    2    0    0  0.13080791169E+03 -0.13171320613E+03 -0.84967798064E+03  0.87894297267E+03  0.12700000000E+03 0.  0.
   -5000001    1    1    2    0    0 -0.13080791169E+03  0.13171320613E+03 -0.79602775105E+03  0.82719299977E+03  0.12700000000E+03 0.  0.
<mgrwt>
<rscale>  0 0.45005844E+03</rscale>
<asrwt>0</asrwt>
<pdfrwt beam="1">  1        2 0.23941721E+00 0.45005844E+03</pdfrwt>
<pdfrwt beam="2">  1       -2 0.43164468E-02 0.45005844E+03</pdfrwt>
<totfact> 0.31151615E+03</totfact>
</mgrwt>
</event>
<event>
 4    1  0.4895160E-005  0.3728243E+03  0.7818608E-02  0.1053618E+00
          2   -1    0    0  501    0  0.00000000000E+00  0.00000000000E+00  0.19657987422E+04  0.19657987422E+04  0.25500000000E-02 0.  1.
         -2   -1    0    0    0  501 -0.00000000000E+00 -0.00000000000E+00 -0.17677030471E+02  0.17677030655E+02  0.25500000000E-02 0. -1.
    5000001    1    1    2    0    0  0.52393404845E+02  0.10463587962E+03  0.60063626979E+03  0.62496933106E+03  0.12700000000E+03 0.  0.
   -5000001    1    1    2    0    0 -0.52393404845E+02 -0.10463587962E+03  0.13474854419E+04  0.13585064418E+04  0.12700000000E+03 0.  0.
<mgrwt>
<rscale>  0 0.37282427E+03</rscale>
<asrwt>0</asrwt>
<pdfrwt beam="1">  1        2 0.28082820E+00 0.37282427E+03</pdfrwt>
<pdfrwt beam="2">  1       -2 0.25252918E-02 0.37282427E+03</pdfrwt>
<totfact> 0.50274723E+03</totfact>
</mgrwt>
</event>
<event>
 4    1  0.4895160E-005  0.2984319E+03  0.7818608E-02  0.1086027E+00
          2   -1    0    0  501    0  0.00000000000E+00  0.00000000000E+00  0.42640314147E+02  0.42640314223E+02  0.25500000000E-02 0.  1.
         -2   -1    0    0    0  501 -0.00000000000E+00 -0.00000000000E+00 -0.52216778269E+03  0.52216778269E+03  0.25500000000E-02 0. -1.
    5000001    1    1    2    0    0 -0.20080322514E+02  0.74441187479E+02 -0.26596690167E+03  0.30465078783E+03  0.12700000000E+03 0.  0.
   -5000001    1    1    2    0    0  0.20080322514E+02 -0.74441187479E+02 -0.21356056687E+03  0.26015730908E+03  0.12700000000E+03 0.  0.
<mgrwt>
<rscale>  0 0.29843189E+03</rscale>
<asrwt>0</asrwt>
<pdfrwt beam="1">  1        2 0.60914737E-02 0.29843189E+03</pdfrwt>
<pdfrwt beam="2">  1       -2 0.74595394E-01 0.29843189E+03</pdfrwt>
<totfact> 0.20151022E+03</totfact>
</mgrwt>
</event>
<event>
 4    1  0.4895160E-005  0.3787981E+03  0.7818608E-02  0.1051379E+00
         -2   -1    0    0    0  501 -0.00000000000E+00  0.00000000000E+00  0.41312810945E+02  0.41312811024E+02  0.25500000000E-02 0. -1.
          2   -1    0    0  501    0  0.00000000000E+00 -0.00000000000E+00 -0.86830199315E+03  0.86830199315E+03  0.25500000000E-02 0.  1.
    5000001    1    1    2    0    0 -0.58103950549E+02 -0.12106986760E+02 -0.71932441532E+03  0.73285691829E+03  0.12700000000E+03 0.  0.
   -5000001    1    1    2    0    0  0.58103950549E+02  0.12106986760E+02 -0.10766476688E+03  0.17675788589E+03  0.12700000000E+03 0.  0.
<mgrwt>
<rscale>  0 0.37879808E+03</rscale>
<asrwt>0</asrwt>
<pdfrwt beam="1">  1        2 0.12404313E+00 0.37879808E+03</pdfrwt>
<pdfrwt beam="2">  1       -2 0.59018307E-02 0.37879808E+03</pdfrwt>
<totfact> 0.53651867E+03</totfact>
</mgrwt>
</event>
<event>
 4    1  0.4895160E-005  0.1479267E+04  0.7818608E-02  0.8898358E-01
          2   -1    0    0  501    0  0.00000000000E+00  0.00000000000E+00  0.15278016135E+04  0.15278016135E+04  0.25500000000E-02 0.  1.
         -2   -1    0    0    0  501 -0.00000000000E+00 -0.00000000000E+00 -0.35806854632E+03  0.35806854633E+03  0.25500000000E-02 0. -1.
    5000001    1    1    2    0    0  0.22387256072E+03 -0.17421172467E+03  0.14405110408E+04  0.14736586128E+04  0.12700000000E+03 0.  0.
   -5000001    1    1    2    0    0 -0.22387256072E+03  0.17421172467E+03 -0.27077797365E+03  0.41221154699E+03  0.12700000000E+03 0.  0.
<mgrwt>
<rscale>  0 0.14792670E+04</rscale>
<asrwt>0</asrwt>
<pdfrwt beam="1">  1        2 0.21825737E+00 0.14792670E+04</pdfrwt>
<pdfrwt beam="2">  1       -2 0.51152649E-01 0.14792670E+04</pdfrwt>
<totfact> 0.49438974E+01</totfact>
</mgrwt>
</event>
<event>
 4    1  0.4895160E-005  0.5269229E+03  0.7818608E-02  0.1006981E+00
          2   -1    0    0  501    0  0.00000000000E+00  0.00000000000E+00  0.11495708488E+04  0.11495708488E+04  0.25500000000E-02 0.  1.
         -2   -1    0    0    0  501 -0.00000000000E+00 -0.00000000000E+00 -0.60380734916E+02  0.60380734969E+02  0.25500000000E-02 0. -1.
    5000001    1    1    2    0    0 -0.16832191164E+03  0.12334438088E+03  0.31801079948E+03  0.40100619798E+03  0.12700000000E+03 0.  0.
   -5000001    1    1    2    0    0  0.16832191164E+03 -0.12334438088E+03  0.77117931440E+03  0.80894538579E+03  0.12700000000E+03 0.  0.
<mgrwt>
<rscale>  0 0.52692289E+03</rscale>
<asrwt>0</asrwt>
<pdfrwt beam="1">  1        2 0.16422440E+00 0.52692289E+03</pdfrwt>
<pdfrwt beam="2">  1       -2 0.86258198E-02 0.52692289E+03</pdfrwt>
<totfact> 0.20043300E+03</totfact>
</mgrwt>
</event>
<event>
 4    1  0.4895160E-005  0.3347305E+03  0.7818608E-02  0.1069063E+00
          2   -1    0    0  501    0  0.00000000000E+00  0.00000000000E+00  0.16706668579E+04  0.16706668579E+04  0.25500000000E-02 0.  1.
         -2   -1    0    0    0  501 -0.00000000000E+00 -0.00000000000E+00 -0.16766434219E+02  0.16766434413E+02  0.25500000000E-02 0. -1.
    5000001    1    1    2    0    0  0.10121718270E+03  0.38892187108E+02  0.77067715024E+03  0.78856184931E+03  0.12700000000E+03 0.  0.
   -5000001    1    1    2    0    0 -0.10121718270E+03 -0.38892187108E+02  0.88322327339E+03  0.89887144295E+03  0.12700000000E+03 0.  0.
<mgrwt>
<rscale>  0 0.33473050E+03</rscale>
<asrwt>0</asrwt>
<pdfrwt beam="1">  1        2 0.23866681E+00 0.33473050E+03</pdfrwt>
<pdfrwt beam="2">  1       -2 0.23952037E-02 0.33473050E+03</pdfrwt>
<totfact> 0.76107181E+03</totfact>
</mgrwt>
</event>
<event>
 4    1  0.4895160E-005  0.2770759E+03  0.7818608E-02  0.1097297E+00
         -2   -1    0    0    0  501 -0.00000000000E+00  0.00000000000E+00  0.64541758436E+02  0.64541758487E+02  0.25500000000E-02 0. -1.
          2   -1    0    0  501    0  0.00000000000E+00 -0.00000000000E+00 -0.29736962857E+03  0.29736962858E+03  0.25500000000E-02 0.  1.
    5000001    1    1    2    0    0  0.35898283904E+02 -0.37700285952E+02 -0.14098127618E+03  0.19676056155E+03  0.12700000000E+03 0.  0.
   -5000001    1    1    2    0    0 -0.35898283904E+02  0.37700285952E+02 -0.91846593954E+02  0.16515082552E+03  0.12700000000E+03 0.  0.
<mgrwt>
<rscale>  0 0.27707587E+03</rscale>
<asrwt>0</asrwt>
<pdfrwt beam="1">  1        2 0.42481375E-01 0.27707587E+03</pdfrwt>
<pdfrwt beam="2">  1       -2 0.92202514E-02 0.27707587E+03</pdfrwt>
<totfact> 0.89694205E+03</totfact>
</mgrwt>
</event>
<event>
 4    1  0.4895160E-005  0.3657898E+03  0.7818608E-02  0.1056315E+00
          2   -1    0    0  501    0  0.00000000000E+00  0.00000000000E+00  0.58979167123E+03  0.58979167123E+03  0.25500000000E-02 0. -1.
         -2   -1    0    0    0  501 -0.00000000000E+00 -0.00000000000E+00 -0.56715860195E+02  0.56715860252E+02  0.25500000000E-02 0.  1.
    5000001    1    1    2    0    0 -0.12141519958E+03 -0.50591799735E+02  0.27451312500E+03  0.32982970862E+03  0.12700000000E+03 0.  0.
   -5000001    1    1    2    0    0  0.12141519958E+03  0.50591799735E+02  0.25856268603E+03  0.31667782286E+03  0.12700000000E+03 0.  0.
<mgrwt>
<rscale>  0 0.36578979E+03</rscale>
<asrwt>0</asrwt>
<pdfrwt beam="1">  1        2 0.84255959E-01 0.36578979E+03</pdfrwt>
<pdfrwt beam="2">  1       -2 0.81022652E-02 0.36578979E+03</pdfrwt>
<totfact> 0.52289043E+03</totfact>
</mgrwt>
</event>
<event>
 4    1  0.4895160E-005  0.8667419E+03  0.7818608E-02  0.9468138E-01
         -2   -1    0    0    0  501 -0.00000000000E+00  0.00000000000E+00  0.15459918473E+03  0.15459918475E+03  0.25500000000E-02 0. -1.
          2   -1    0    0  501    0  0.00000000000E+00 -0.00000000000E+00 -0.12148213304E+04  0.12148213304E+04  0.25500000000E-02 0.  1.
    5000001    1    1    2    0    0  0.38611127158E+03 -0.14873884986E+03 -0.56459005162E+03  0.71140430550E+03  0.12700000000E+03 0.  0.
   -5000001    1    1    2    0    0 -0.38611127158E+03  0.14873884986E+03 -0.49563209401E+03  0.65801620961E+03  0.12700000000E+03 0.  0.
<mgrwt>
<rscale>  0 0.86674192E+03</rscale>
<asrwt>0</asrwt>
<pdfrwt beam="1">  1        2 0.17354590E+00 0.86674192E+03</pdfrwt>
<pdfrwt beam="2">  1       -2 0.22085598E-01 0.86674192E+03</pdfrwt>
<totfact> 0.37585613E+02</totfact>
</mgrwt>
</event>
<event>
 4    1  0.4895160E-005  0.3707876E+03  0.7818608E-02  0.1054392E+00
          2   -1    0    0  501    0  0.00000000000E+00  0.00000000000E+00  0.28084435431E+03  0.28084435432E+03  0.25500000000E-02 0. -1.
         -2   -1    0    0    0  501 -0.00000000000E+00 -0.00000000000E+00 -0.12238402906E+03  0.12238402909E+03  0.25500000000E-02 0.  1.
    5000001    1    1    2    0    0  0.53073256676E+01 -0.13466084270E+03  0.69494023944E+02  0.19778809273E+03  0.12700000000E+03 0.  0.
   -5000001    1    1    2    0    0 -0.53073256676E+01  0.13466084270E+03  0.88966301301E+02  0.20544029067E+03  0.12700000000E+03 0.  0.
<mgrwt>
<rscale>  0 0.37078761E+03</rscale>
<asrwt>0</asrwt>
<pdfrwt beam="1">  1        2 0.40120622E-01 0.37078761E+03</pdfrwt>
<pdfrwt beam="2">  1       -2 0.17483433E-01 0.37078761E+03</pdfrwt>
<totfact> 0.33883008E+03</totfact>
</mgrwt>
</event>
<event>
 4    1  0.4895160E-005  0.5261710E+03  0.7818608E-02  0.1007165E+00
         -2   -1    0    0    0  501 -0.00000000000E+00  0.00000000000E+00  0.53496329829E+03  0.53496329830E+03  0.25500000000E-02 0. -1.
          2   -1    0    0  501    0  0.00000000000E+00 -0.00000000000E+00 -0.12938081209E+03  0.12938081211E+03  0.25500000000E-02 0.  1.
    5000001    1    1    2    0    0 -0.80782417602E+02 -0.19123404837E+03  0.76602327733E+02  0.25513364510E+03  0.12700000000E+03 0.  0.
   -5000001    1    1    2    0    0  0.80782417602E+02  0.19123404837E+03  0.32898015847E+03  0.40921046531E+03  0.12700000000E+03 0.  0.
<mgrwt>
<rscale>  0 0.52617102E+03</rscale>
<asrwt>0</asrwt>
<pdfrwt beam="1">  1        2 0.18482973E-01 0.52617102E+03</pdfrwt>
<pdfrwt beam="2">  1       -2 0.76423328E-01 0.52617102E+03</pdfrwt>
<totfact> 0.48195891E+02</totfact>
</mgrwt>
</event>
<event>
 4    1  0.4895160E-005  0.3192209E+03  0.7818608E-02  0.1076008E+00
          2   -1    0    0  501    0  0.00000000000E+00  0.00000000000E+00  0.13131004502E+02  0.13131004749E+02  0.25500000000E-02 0.  1.
         -2   -1    0    0    0  501 -0.00000000000E+00 -0.00000000000E+00 -0.19401021675E+04  0.19401021675E+04  0.25500000000E-02 0. -1.
    5000001    1    1    2    0    0 -0.77933956038E+02  0.12750329193E+01 -0.61352918786E+03  0.63136549761E+03  0.12700000000E+03 0.  0.
   -5000001    1    1    2    0    0  0.77933956038E+02 -0.12750329193E+01 -0.13134419752E+04  0.13218676747E+04  0.12700000000E+03 0.  0.
<mgrwt>
<rscale>  0 0.31922087E+03</rscale>
<asrwt>0</asrwt>
<pdfrwt beam="1">  1        2 0.18758590E-02 0.31922087E+03</pdfrwt>
<pdfrwt beam="2">  1       -2 0.27715727E+00 0.31922087E+03</pdfrwt>
<totfact> 0.29778489E+02</totfact>
</mgrwt>
</event>
<event>
 4    1  0.4895160E-005  0.4630407E+03  0.7818608E-02  0.1023903E+00
          2   -1    0    0  501    0  0.00000000000E+00  0.00000000000E+00  0.21148133719E+02  0.21148133873E+02  0.25500000000E-02 0.  1.
         -2   -1    0    0    0  501 -0.00000000000E+00 -0.00000000000E+00 -0.25345814435E+04  0.25345814435E+04  0.25500000000E-02 0. -1.
    5000001    1    1    2    0    0 -0.18154575680E+03 -0.65320239030E+02 -0.11699590483E+04  0.11925429846E+04  0.12700000000E+03 0.  0.
   -5000001    1    1    2    0    0  0.18154575680E+03  0.65320239030E+02 -0.13434742615E+04  0.13631865928E+04  0.12700000000E+03 0.  0.
<mgrwt>
<rscale>  0 0.46304068E+03</rscale>
<asrwt>0</asrwt>
<pdfrwt beam="1">  1        2 0.30211636E-02 0.46304068E+03</pdfrwt>
<pdfrwt beam="2">  1       -2 0.36208287E+00 0.46304068E+03</pdfrwt>
<totfact> 0.47060618E+01</totfact>
</mgrwt>
</event>
<event>
 4    1  0.4895160E-005  0.3143702E+03  0.7818608E-02  0.1078270E+00
          2   -1    0    0  501    0  0.00000000000E+00  0.00000000000E+00  0.17081349568E+03  0.17081349570E+03  0.25500000000E-02 0.  1.
         -2   -1    0    0    0  501 -0.00000000000E+00 -0.00000000000E+00 -0.14464405216E+03  0.14464405218E+03  0.25500000000E-02 0. -1.
    5000001    1    1    2    0    0 -0.72313096177E+02  0.10778495238E+02 -0.43969622791E+02  0.15299571094E+03  0.12700000000E+03 0.  0.
   -5000001    1    1    2    0    0  0.72313096177E+02 -0.10778495238E+02  0.70139066315E+02  0.16246183694E+03  0.12700000000E+03 0.  0.
<mgrwt>
<rscale>  0 0.31437020E+03</rscale>
<asrwt>0</asrwt>
<pdfrwt beam="1">  1        2 0.24401928E-01 0.31437020E+03</pdfrwt>
<pdfrwt beam="2">  1       -2 0.20663436E-01 0.31437020E+03</pdfrwt>
<totfact> 0.43908117E+03</totfact>
</mgrwt>
</event>
<event>
 4    1  0.4895160E-005  0.4028339E+03  0.7818608E-02  0.1042803E+00
          2   -1    0    0  501    0  0.00000000000E+00  0.00000000000E+00  0.84562279405E+03  0.84562279405E+03  0.25500000000E-02 0.  1.
         -2   -1    0    0    0  501 -0.00000000000E+00 -0.00000000000E+00 -0.47975032875E+02  0.47975032942E+02  0.25500000000E-02 0. -1.
    5000001    1    1    2    0    0  0.89369038965E+02  0.12666845062E+03  0.44363420305E+03  0.48679772763E+03  0.12700000000E+03 0.  0.
   -5000001    1    1    2    0    0 -0.89369038965E+02 -0.12666845062E+03  0.35401355812E+03  0.40680009936E+03  0.12700000000E+03 0.  0.
<mgrwt>
<rscale>  0 0.40283387E+03</rscale>
<asrwt>0</asrwt>
<pdfrwt beam="1">  1        2 0.12080325E+00 0.40283387E+03</pdfrwt>
<pdfrwt beam="2">  1       -2 0.68535765E-02 0.40283387E+03</pdfrwt>
<totfact> 0.44047116E+03</totfact>
</mgrwt>
</event>
<event>
 4    1  0.4895160E-005  0.4356484E+03  0.7818608E-02  0.1032090E+00
         -2   -1    0    0    0  501 -0.00000000000E+00  0.00000000000E+00  0.16991425473E+03  0.16991425475E+03  0.25500000000E-02 0.  1.
          2   -1    0    0  501    0  0.00000000000E+00 -0.00000000000E+00 -0.27924315478E+03  0.27924315479E+03  0.25500000000E-02 0. -1.
    5000001    1    1    2    0    0 -0.13137716633E+03 -0.75750507615E+02 -0.14870858484E+03  0.24746988189E+03  0.12700000000E+03 0.  0.
   -5000001    1    1    2    0    0  0.13137716633E+03  0.75750507615E+02  0.39379684801E+02  0.20168752765E+03  0.12700000000E+03 0.  0.
<mgrwt>
<rscale>  0 0.43564845E+03</rscale>
<asrwt>0</asrwt>
<pdfrwt beam="1">  1        2 0.39891879E-01 0.43564845E+03</pdfrwt>
<pdfrwt beam="2">  1       -2 0.24273465E-01 0.43564845E+03</pdfrwt>
<totfact> 0.19355584E+03</totfact>
</mgrwt>
</event>
<event>
 4    1  0.4895160E-005  0.4365419E+03  0.7818608E-02  0.1031813E+00
          2   -1    0    0  501    0  0.00000000000E+00  0.00000000000E+00  0.15337626530E+04  0.15337626530E+04  0.25500000000E-02 0.  1.
         -2   -1    0    0    0  501 -0.00000000000E+00 -0.00000000000E+00 -0.31062307330E+02  0.31062307434E+02  0.25500000000E-02 0. -1.
    5000001    1    1    2    0    0  0.32791107357E+02 -0.12803915351E+03  0.11761497647E+04  0.11903472395E+04  0.12700000000E+03 0.  0.
   -5000001    1    1    2    0    0 -0.32791107357E+02  0.12803915351E+03  0.32655058096E+03  0.37447772094E+03  0.12700000000E+03 0.  0.
<mgrwt>
<rscale>  0 0.43654190E+03</rscale>
<asrwt>0</asrwt>
<pdfrwt beam="1">  1        2 0.21910898E+00 0.43654190E+03</pdfrwt>
<pdfrwt beam="2">  1       -2 0.44374718E-02 0.43654190E+03</pdfrwt>
<totfact> 0.35266744E+03</totfact>
</mgrwt>
</event>
<event>
 4    1  0.4895160E-005  0.1138406E+04  0.7818608E-02  0.9168546E-01
          2   -1    0    0  501    0  0.00000000000E+00  0.00000000000E+00  0.10155130419E+04  0.10155130419E+04  0.25500000000E-02 0.  1.
         -2   -1    0    0    0  501 -0.00000000000E+00 -0.00000000000E+00 -0.31904292349E+03  0.31904292350E+03  0.25500000000E-02 0. -1.
    5000001    1    1    2    0    0 -0.80776002997E+02  0.49648646886E+03  0.73706889921E+02  0.52400885684E+03  0.12700000000E+03 0.  0.
   -5000001    1    1    2    0    0  0.80776002997E+02 -0.49648646886E+03  0.62276322845E+03  0.81054710852E+03  0.12700000000E+03 0.  0.
<mgrwt>
<rscale>  0 0.11384063E+04</rscale>
<asrwt>0</asrwt>
<pdfrwt beam="1">  1        2 0.14507329E+00 0.11384063E+04</pdfrwt>
<pdfrwt beam="2">  1       -2 0.45577560E-01 0.11384063E+04</pdfrwt>
<totfact> 0.12416680E+02</totfact>
</mgrwt>
</event>
<event>
 4    1  0.4895160E-005  0.4014566E+03  0.7818608E-02  0.1043276E+00
         -2   -1    0    0    0  501 -0.00000000000E+00  0.00000000000E+00  0.41156085582E+02  0.41156085661E+02  0.25500000000E-02 0. -1.
          2   -1    0    0  501    0  0.00000000000E+00 -0.00000000000E+00 -0.97900108789E+03  0.97900108790E+03  0.25500000000E-02 0.  1.
    5000001    1    1    2    0    0  0.91338518804E+02  0.10764756950E+03 -0.30360916525E+03  0.35810368535E+03  0.12700000000E+03 0.  0.
   -5000001    1    1    2    0    0 -0.91338518804E+02 -0.10764756950E+03 -0.63423583706E+03  0.66205348821E+03  0.12700000000E+03 0.  0.
<mgrwt>
<rscale>  0 0.40145661E+03</rscale>
<asrwt>0</asrwt>
<pdfrwt beam="1">  1        2 0.13985728E+00 0.40145661E+03</pdfrwt>
<pdfrwt beam="2">  1       -2 0.58794414E-02 0.40145661E+03</pdfrwt>
<totfact> 0.46051321E+03</totfact>
</mgrwt>
</event>
<event>
 4    1  0.4895160E-005  0.3065061E+03  0.7818608E-02  0.1082033E+00
          2   -1    0    0  501    0  0.00000000000E+00  0.00000000000E+00  0.33203109285E+03  0.33203109286E+03  0.25500000000E-02 0.  1.
         -2   -1    0    0    0  501 -0.00000000000E+00 -0.00000000000E+00 -0.70735852753E+02  0.70735852799E+02  0.25500000000E-02 0. -1.
    5000001    1    1    2    0    0 -0.84926420130E+02  0.11461539892E+02  0.13550053057E+03  0.20453180075E+03  0.12700000000E+03 0.  0.
   -5000001    1    1    2    0    0  0.84926420130E+02 -0.11461539892E+02  0.12579470952E+03  0.19823514491E+03  0.12700000000E+03 0.  0.
<mgrwt>
<rscale>  0 0.30650613E+03</rscale>
<asrwt>0</asrwt>
<pdfrwt beam="1">  1        2 0.47433014E-01 0.30650613E+03</pdfrwt>
<pdfrwt beam="2">  1       -2 0.10105122E-01 0.30650613E+03</pdfrwt>
<totfact> 0.69124522E+03</totfact>
</mgrwt>
</event>
<event>
 4    1  0.4895160E-005  0.4677016E+03  0.7818608E-02  0.1022571E+00
         -2   -1    0    0    0  501 -0.00000000000E+00  0.00000000000E+00  0.27012420791E+02  0.27012420911E+02  0.25500000000E-02 0. -1.
          2   -1    0    0  501    0  0.00000000000E+00 -0.00000000000E+00 -0.20244834114E+04  0.20244834114E+04  0.25500000000E-02 0.  1.
    5000001    1    1    2    0    0  0.88239543022E+02  0.16559553035E+03 -0.12525789210E+04  0.12729065362E+04  0.12700000000E+03 0.  0.
   -5000001    1    1    2    0    0 -0.88239543022E+02 -0.16559553035E+03 -0.74489206967E+03  0.77858929615E+03  0.12700000000E+03 0.  0.
<mgrwt>
<rscale>  0 0.46770161E+03</rscale>
<asrwt>0</asrwt>
<pdfrwt beam="1">  1        2 0.28921182E+00 0.46770161E+03</pdfrwt>
<pdfrwt beam="2">  1       -2 0.38589185E-02 0.46770161E+03</pdfrwt>
<totfact> 0.24744061E+03</totfact>
</mgrwt>
</event>
<event>
 4    1  0.4895160E-005  0.5518827E+03  0.7818608E-02  0.1001059E+00
         -2   -1    0    0    0  501 -0.00000000000E+00  0.00000000000E+00  0.52690533212E+02  0.52690533274E+02  0.25500000000E-02 0. -1.
          2   -1    0    0  501    0  0.00000000000E+00 -0.00000000000E+00 -0.14451100236E+04  0.14451100236E+04  0.25500000000E-02 0.  1.
    5000001    1    1    2    0    0  0.21509177400E+03  0.33258217790E+02 -0.39103392168E+03  0.46519577406E+03  0.12700000000E+03 0.  0.
   -5000001    1    1    2    0    0 -0.21509177400E+03 -0.33258217790E+02 -0.10013855687E+04  0.10326047829E+04  0.12700000000E+03 0.  0.
<mgrwt>
<rscale>  0 0.55188266E+03</rscale>
<asrwt>0</asrwt>
<pdfrwt beam="1">  1        2 0.20644426E+00 0.55188266E+03</pdfrwt>
<pdfrwt beam="2">  1       -2 0.75272200E-02 0.55188266E+03</pdfrwt>
<totfact> 0.17189401E+03</totfact>
</mgrwt>
</event>
<event>
 4    1  0.4895160E-005  0.3812702E+03  0.7818608E-02  0.1050465E+00
         -2   -1    0    0    0  501 -0.00000000000E+00  0.00000000000E+00  0.19180211937E+03  0.19180211938E+03  0.25500000000E-02 0. -1.
          2   -1    0    0  501    0  0.00000000000E+00 -0.00000000000E+00 -0.18947514784E+03  0.18947514786E+03  0.25500000000E-02 0.  1.
    5000001    1    1    2    0    0 -0.62129842769E+02 -0.10495947466E+03  0.74213639848E+02  0.19108446568E+03  0.12700000000E+03 0.  0.
   -5000001    1    1    2    0    0  0.62129842769E+02  0.10495947466E+03 -0.71886668321E+02  0.19019280156E+03  0.12700000000E+03 0.  0.
<mgrwt>
<rscale>  0 0.38127017E+03</rscale>
<asrwt>0</asrwt>
<pdfrwt beam="1">  1        2 0.27067878E-01 0.38127017E+03</pdfrwt>
<pdfrwt beam="2">  1       -2 0.27400303E-01 0.38127017E+03</pdfrwt>
<totfact> 0.23879911E+03</totfact>
</mgrwt>
</event>
<event>
 4    1  0.4895160E-005  0.4754415E+03  0.7818608E-02  0.1020396E+00
          2   -1    0    0  501    0  0.00000000000E+00  0.00000000000E+00  0.30823166199E+03  0.30823166200E+03  0.25500000000E-02 0.  1.
         -2   -1    0    0    0  501 -0.00000000000E+00 -0.00000000000E+00 -0.18333986643E+03  0.18333986644E+03  0.25500000000E-02 0. -1.
    5000001    1    1    2    0    0 -0.17454456510E+03  0.23124298502E+02  0.16259069953E+03  0.27122919083E+03  0.12700000000E+03 0.  0.
   -5000001    1    1    2    0    0  0.17454456510E+03 -0.23124298502E+02 -0.37698903960E+02  0.22034233762E+03  0.12700000000E+03 0.  0.
<mgrwt>
<rscale>  0 0.47544149E+03</rscale>
<asrwt>0</asrwt>
<pdfrwt beam="1">  1        2 0.44033094E-01 0.47544149E+03</pdfrwt>
<pdfrwt beam="2">  1       -2 0.26191410E-01 0.47544149E+03</pdfrwt>
<totfact> 0.15175093E+03</totfact>
</mgrwt>
</event>
<event>
 4    1  0.4895160E-005  0.5161543E+03  0.7818608E-02  0.1009646E+00
          2   -1    0    0  501    0  0.00000000000E+00  0.00000000000E+00  0.34357462161E+03  0.34357462162E+03  0.25500000000E-02 0.  1.
         -2   -1    0    0    0  501 -0.00000000000E+00 -0.00000000000E+00 -0.19385543201E+03  0.19385543202E+03  0.25500000000E-02 0. -1.
    5000001    1    1    2    0    0 -0.61809853490E+02 -0.16100324782E+03 -0.75062692753E+02  0.22694913888E+03  0.12700000000E+03 0.  0.
   -5000001    1    1    2    0    0  0.61809853490E+02  0.16100324782E+03  0.22478188235E+03  0.31048091476E+03  0.12700000000E+03 0.  0.
<mgrwt>
<rscale>  0 0.51615427E+03</rscale>
<asrwt>0</asrwt>
<pdfrwt beam="1">  1        2 0.49082088E-01 0.51615427E+03</pdfrwt>
<pdfrwt beam="2">  1       -2 0.27693634E-01 0.51615427E+03</pdfrwt>
<totfact> 0.12181750E+03</totfact>
</mgrwt>
</event>
<event>
 4    1  0.4895160E-005  0.4817540E+03  0.7818608E-02  0.1018654E+00
          2   -1    0    0  501    0  0.00000000000E+00  0.00000000000E+00  0.92389384488E+03  0.92389384488E+03  0.25500000000E-02 0.  1.
         -2   -1    0    0    0  501 -0.00000000000E+00 -0.00000000000E+00 -0.62801289555E+02  0.62801289607E+02  0.25500000000E-02 0. -1.
    5000001    1    1    2    0    0  0.15493951124E+03  0.13365318006E+03  0.42065989013E+03  0.48471967966E+03  0.12700000000E+03 0.  0.
   -5000001    1    1    2    0    0 -0.15493951124E+03 -0.13365318006E+03  0.44043266519E+03  0.50197545483E+03  0.12700000000E+03 0.  0.
<mgrwt>
<rscale>  0 0.48175398E+03</rscale>
<asrwt>0</asrwt>
<pdfrwt beam="1">  1        2 0.13198484E+00 0.48175398E+03</pdfrwt>
<pdfrwt beam="2">  1       -2 0.89716126E-02 0.48175398E+03</pdfrwt>
<totfact> 0.25662371E+03</totfact>
</mgrwt>
</event>
<event>
 4    1  0.4895160E-005  0.3599968E+03  0.7818608E-02  0.1058585E+00
         -2   -1    0    0    0  501 -0.00000000000E+00  0.00000000000E+00  0.25855371228E+02  0.25855371353E+02  0.25500000000E-02 0. -1.
          2   -1    0    0  501    0  0.00000000000E+00 -0.00000000000E+00 -0.12531021843E+04  0.12531021843E+04  0.25500000000E-02 0.  1.
    5000001    1    1    2    0    0  0.10471391084E+03 -0.39388378663E+02 -0.39595110125E+03  0.43060738740E+03  0.12700000000E+03 0.  0.
   -5000001    1    1    2    0    0 -0.10471391084E+03  0.39388378663E+02 -0.83129571183E+03  0.84835016827E+03  0.12700000000E+03 0.  0.
<mgrwt>
<rscale>  0 0.35999679E+03</rscale>
<asrwt>0</asrwt>
<pdfrwt beam="1">  1        2 0.17901456E+00 0.35999679E+03</pdfrwt>
<pdfrwt beam="2">  1       -2 0.36936253E-02 0.35999679E+03</pdfrwt>
<totfact> 0.65335326E+03</totfact>
</mgrwt>
</event>
<event>
 4    1  0.4895160E-005  0.4082457E+03  0.7818608E-02  0.1040961E+00
         -2   -1    0    0    0  501 -0.00000000000E+00  0.00000000000E+00  0.28381772518E+02  0.28381772633E+02  0.25500000000E-02 0. -1.
          2   -1    0    0  501    0  0.00000000000E+00 -0.00000000000E+00 -0.14680597598E+04  0.14680597598E+04  0.25500000000E-02 0.  1.
    5000001    1    1    2    0    0  0.11397010712E+03  0.63704436771E+02 -0.10575803507E+04  0.10731507997E+04  0.12700000000E+03 0.  0.
   -5000001    1    1    2    0    0 -0.11397010712E+03 -0.63704436771E+02 -0.38209763650E+03  0.42329073271E+03  0.12700000000E+03 0.  0.
<mgrwt>
<rscale>  0 0.40824570E+03</rscale>
<asrwt>0</asrwt>
<pdfrwt beam="1">  1        2 0.20972277E+00 0.40824570E+03</pdfrwt>
<pdfrwt beam="2">  1       -2 0.40545399E-02 0.40824570E+03</pdfrwt>
<totfact> 0.43749696E+03</totfact>
</mgrwt>
</event>
<event>
 4    1  0.4895160E-005  0.7453684E+03  0.7818608E-02  0.9642645E-01
         -2   -1    0    0    0  501 -0.00000000000E+00  0.00000000000E+00  0.34379615870E+03  0.34379615871E+03  0.25500000000E-02 0. -1.
          2   -1    0    0  501    0  0.00000000000E+00 -0.00000000000E+00 -0.40399956215E+03  0.40399956216E+03  0.25500000000E-02 0.  1.
    5000001    1    1    2    0    0  0.24996556996E+03  0.24046590457E+03 -0.79839963986E+02  0.37790217951E+03  0.12700000000E+03 0.  0.
   -5000001    1    1    2    0    0 -0.24996556996E+03 -0.24046590457E+03  0.19636560532E+02  0.36989354136E+03  0.12700000000E+03 0.  0.
<mgrwt>
<rscale>  0 0.74536836E+03</rscale>
<asrwt>0</asrwt>
<pdfrwt beam="1">  1        2 0.57714223E-01 0.74536836E+03</pdfrwt>
<pdfrwt beam="2">  1       -2 0.49113737E-01 0.74536836E+03</pdfrwt>
<totfact> 0.33813960E+02</totfact>
</mgrwt>
</event>
<event>
 4    1  0.4895160E-005  0.7449541E+03  0.7818608E-02  0.9643300E-01
         -2   -1    0    0    0  501 -0.00000000000E+00  0.00000000000E+00  0.63076030686E+02  0.63076030737E+02  0.25500000000E-02 0. -1.
          2   -1    0    0  501    0  0.00000000000E+00 -0.00000000000E+00 -0.21995541469E+04  0.21995541469E+04  0.25500000000E-02 0.  1.
    5000001    1    1    2    0    0 -0.20086955512E+03 -0.20912675526E+03 -0.47206940562E+03  0.56838464235E+03  0.12700000000E+03 0.  0.
   -5000001    1    1    2    0    0  0.20086955512E+03  0.20912675526E+03 -0.16644087106E+04  0.16942455353E+04  0.12700000000E+03 0.  0.
<mgrwt>
<rscale>  0 0.74495408E+03</rscale>
<asrwt>0</asrwt>
<pdfrwt beam="1">  1        2 0.31422197E+00 0.74495408E+03</pdfrwt>
<pdfrwt beam="2">  1       -2 0.90108629E-02 0.74495408E+03</pdfrwt>
<totfact> 0.52711010E+02</totfact>
</mgrwt>
</event>
<event>
 4    1  0.4895160E-005  0.4371749E+03  0.7818608E-02  0.1031617E+00
         -2   -1    0    0    0  501 -0.00000000000E+00  0.00000000000E+00  0.90757235781E+02  0.90757235817E+02  0.25500000000E-02 0.  1.
          2   -1    0    0  501    0  0.00000000000E+00 -0.00000000000E+00 -0.52646454810E+03  0.52646454811E+03  0.25500000000E-02 0. -1.
    5000001    1    1    2    0    0 -0.55832492552E+02  0.14095936645E+03 -0.86433572358E+02  0.21583922870E+03  0.12700000000E+03 0.  0.
   -5000001    1    1    2    0    0  0.55832492552E+02 -0.14095936645E+03 -0.34927373996E+03  0.40138255523E+03  0.12700000000E+03 0.  0.
<mgrwt>
<rscale>  0 0.43717487E+03</rscale>
<asrwt>0</asrwt>
<pdfrwt beam="1">  1        2 0.75209220E-01 0.43717487E+03</pdfrwt>
<pdfrwt beam="2">  1       -2 0.12965320E-01 0.43717487E+03</pdfrwt>
<totfact> 0.28028700E+03</totfact>
</mgrwt>
</event>
<event>
 4    1  0.4895160E-005  0.4524330E+03  0.7818608E-02  0.1026999E+00
         -2   -1    0    0    0  501 -0.00000000000E+00  0.00000000000E+00  0.49547239249E+02  0.49547239315E+02  0.25500000000E-02 0. -1.
          2   -1    0    0  501    0  0.00000000000E+00 -0.00000000000E+00 -0.10328306222E+04  0.10328306222E+04  0.25500000000E-02 0.  1.
    5000001    1    1    2    0    0 -0.15799802166E+03  0.99605024614E+02 -0.46134560986E+03  0.51366653338E+03  0.12700000000E+03 0.  0.
   -5000001    1    1    2    0    0  0.15799802166E+03 -0.99605024614E+02 -0.52193777311E+03  0.56871132816E+03  0.12700000000E+03 0.  0.
<mgrwt>
<rscale>  0 0.45243300E+03</rscale>
<asrwt>0</asrwt>
<pdfrwt beam="1">  1        2 0.14754722E+00 0.45243300E+03</pdfrwt>
<pdfrwt beam="2">  1       -2 0.70781777E-02 0.45243300E+03</pdfrwt>
<totfact> 0.32043077E+03</totfact>
</mgrwt>
</event>
<event>
 4    1  0.4895160E-005  0.5248614E+03  0.7818608E-02  0.1007486E+00
          2   -1    0    0  501    0  0.00000000000E+00  0.00000000000E+00  0.16700522952E+04  0.16700522952E+04  0.25500000000E-02 0.  1.
         -2   -1    0    0    0  501 -0.00000000000E+00 -0.00000000000E+00 -0.41238156667E+02  0.41238156746E+02  0.25500000000E-02 0. -1.
    5000001    1    1    2    0    0 -0.14311778016E+03 -0.17479827489E+03  0.94898722751E+03  0.98373924079E+03  0.12700000000E+03 0.  0.
   -5000001    1    1    2    0    0  0.14311778016E+03  0.17479827489E+03  0.67982691104E+03  0.72755121117E+03  0.12700000000E+03 0.  0.
<mgrwt>
<rscale>  0 0.52486142E+03</rscale>
<asrwt>0</asrwt>
<pdfrwt beam="1">  1        2 0.23857887E+00 0.52486142E+03</pdfrwt>
<pdfrwt beam="2">  1       -2 0.58911660E-02 0.52486142E+03</pdfrwt>
<totfact> 0.19365098E+03</totfact>
</mgrwt>
</event>
<event>
 4    1  0.4895160E-005  0.6346559E+03  0.7818608E-02  0.9836005E-01
          2   -1    0    0  501    0  0.00000000000E+00  0.00000000000E+00  0.19817166802E+04  0.19817166802E+04  0.25500000000E-02 0.  1.
         -2   -1    0    0    0  501 -0.00000000000E+00 -0.00000000000E+00 -0.50813022182E+02  0.50813022246E+02  0.25500000000E-02 0. -1.
    5000001    1    1    2    0    0  0.12118928177E+03 -0.25614624329E+03  0.75617243601E+03  0.81744938250E+03  0.12700000000E+03 0.  0.
   -5000001    1    1    2    0    0 -0.12118928177E+03  0.25614624329E+03  0.11747312220E+04  0.12150803200E+04  0.12700000000E+03 0.  0.
<mgrwt>
<rscale>  0 0.63465586E+03</rscale>
<asrwt>0</asrwt>
<pdfrwt beam="1">  1        2 0.28310242E+00 0.63465586E+03</pdfrwt>
<pdfrwt beam="2">  1       -2 0.72590023E-02 0.63465586E+03</pdfrwt>
<totfact> 0.96629438E+02</totfact>
</mgrwt>
</event>
<event>
 4    1  0.4895160E-005  0.2864125E+03  0.7818608E-02  0.1092237E+00
          2   -1    0    0  501    0  0.00000000000E+00  0.00000000000E+00  0.91242309260E+03  0.91242309261E+03  0.25500000000E-02 0.  1.
         -2   -1    0    0    0  501 -0.00000000000E+00 -0.00000000000E+00 -0.22476441559E+02  0.22476441703E+02  0.25500000000E-02 0. -1.
    5000001    1    1    2    0    0 -0.45922528917E+02 -0.30951612198E+02  0.56321312644E+03  0.58000422994E+03  0.12700000000E+03 0.  0.
   -5000001    1    1    2    0    0  0.45922528917E+02  0.30951612198E+02  0.32673352461E+03  0.35489530437E+03  0.12700000000E+03 0.  0.
<mgrwt>
<rscale>  0 0.28641246E+03</rscale>
<asrwt>0</asrwt>
<pdfrwt beam="1">  1        2 0.13034614E+00 0.28641246E+03</pdfrwt>
<pdfrwt beam="2">  1       -2 0.32109206E-02 0.28641246E+03</pdfrwt>
<totfact> 0.12581288E+04</totfact>
</mgrwt>
</event>
<event>
 4    1  0.4895160E-005  0.3783054E+03  0.7818608E-02  0.1051562E+00
         -2   -1    0    0    0  501 -0.00000000000E+00  0.00000000000E+00  0.23092344483E+02  0.23092344624E+02  0.25500000000E-02 0. -1.
          2   -1    0    0  501    0  0.00000000000E+00 -0.00000000000E+00 -0.15493772111E+04  0.15493772111E+04  0.25500000000E-02 0.  1.
    5000001    1    1    2    0    0  0.10666084536E+03  0.64774170635E+02 -0.49771984554E+03  0.52860786388E+03  0.12700000000E+03 0.  0.
   -5000001    1    1    2    0    0 -0.10666084536E+03 -0.64774170635E+02 -0.10285650211E+04  0.10438616918E+04  0.12700000000E+03 0.  0.
<mgrwt>
<rscale>  0 0.37830544E+03</rscale>
<asrwt>0</asrwt>
<pdfrwt beam="1">  1        2 0.22133954E+00 0.37830544E+03</pdfrwt>
<pdfrwt beam="2">  1       -2 0.32989073E-02 0.37830544E+03</pdfrwt>
<totfact> 0.54304048E+03</totfact>
</mgrwt>
</event>
<event>
 4    1  0.4895160E-005  0.3422609E+03  0.7818608E-02  0.1065837E+00
          2   -1    0    0  501    0  0.00000000000E+00  0.00000000000E+00  0.81215344712E+03  0.81215344712E+03  0.25500000000E-02 0.  1.
         -2   -1    0    0    0  501 -0.00000000000E+00 -0.00000000000E+00 -0.36059235863E+02  0.36059235953E+02  0.25500000000E-02 0. -1.
    5000001    1    1    2    0    0 -0.11261039350E+01  0.69429052719E+02  0.16179141339E+03  0.21708782305E+03  0.12700000000E+03 0.  0.
   -5000001    1    1    2    0    0  0.11261039350E+01 -0.69429052719E+02  0.61430279787E+03  0.63112486003E+03  0.12700000000E+03 0.  0.
<mgrwt>
<rscale>  0 0.34226091E+03</rscale>
<asrwt>0</asrwt>
<pdfrwt beam="1">  1        2 0.11602190E+00 0.34226091E+03</pdfrwt>
<pdfrwt beam="2">  1       -2 0.51513204E-02 0.34226091E+03</pdfrwt>
<totfact> 0.71871514E+03</totfact>
</mgrwt>
</event>
<event>
 4    1  0.4895160E-005  0.3005619E+03  0.7818608E-02  0.1084960E+00
         -2   -1    0    0    0  501 -0.00000000000E+00  0.00000000000E+00  0.14139924941E+02  0.14139925171E+02  0.25500000000E-02 0. -1.
          2   -1    0    0  501    0  0.00000000000E+00 -0.00000000000E+00 -0.15972056529E+04  0.15972056529E+04  0.25500000000E-02 0.  1.
    5000001    1    1    2    0    0  0.63063982837E+02  0.48624206125E+02 -0.73429466368E+03  0.74943914527E+03  0.12700000000E+03 0.  0.
   -5000001    1    1    2    0    0 -0.63063982837E+02 -0.48624206125E+02 -0.84877106432E+03  0.86190643284E+03  0.12700000000E+03 0.  0.
<mgrwt>
<rscale>  0 0.30056193E+03</rscale>
<asrwt>0</asrwt>
<pdfrwt beam="1">  1        2 0.22817212E+00 0.30056193E+03</pdfrwt>
<pdfrwt beam="2">  1       -2 0.20199903E-02 0.30056193E+03</pdfrwt>
<totfact> 0.10640093E+04</totfact>
</mgrwt>
</event>
<event>
 4    1  0.4895160E-005  0.3729456E+03  0.7818608E-02  0.1053572E+00
         -2   -1    0    0    0  501 -0.00000000000E+00  0.00000000000E+00  0.42195028878E+02  0.42195028955E+02  0.25500000000E-02 0. -1.
          2   -1    0    0  501    0  0.00000000000E+00 -0.00000000000E+00 -0.82408042820E+03  0.82408042820E+03  0.25500000000E-02 0.  1.
    5000001    1    1    2    0    0  0.43230446141E+02  0.12400620279E+03 -0.30413460496E+03  0.35478622822E+03  0.12700000000E+03 0.  0.
   -5000001    1    1    2    0    0 -0.43230446141E+02 -0.12400620279E+03 -0.47775079436E+03  0.51148922893E+03  0.12700000000E+03 0.  0.
<mgrwt>
<rscale>  0 0.37294556E+03</rscale>
<asrwt>0</asrwt>
<pdfrwt beam="1">  1        2 0.11772577E+00 0.37294556E+03</pdfrwt>
<pdfrwt beam="2">  1       -2 0.60278617E-02 0.37294556E+03</pdfrwt>
<totfact> 0.55506714E+03</totfact>
</mgrwt>
</event>
<event>
 4    1  0.4895160E-005  0.3101756E+03  0.7818608E-02  0.1080262E+00
          2   -1    0    0  501    0  0.00000000000E+00  0.00000000000E+00  0.82510465138E+03  0.82510465139E+03  0.25500000000E-02 0.  1.
         -2   -1    0    0    0  501 -0.00000000000E+00 -0.00000000000E+00 -0.29150506959E+02  0.29150507071E+02  0.25500000000E-02 0. -1.
    5000001    1    1    2    0    0 -0.66180842461E+02 -0.10195166771E+02  0.55949462160E+03  0.57762191521E+03  0.12700000000E+03 0.  0.
   -5000001    1    1    2    0    0  0.66180842461E+02  0.10195166771E+02  0.23645952282E+03  0.27663324325E+03  0.12700000000E+03 0.  0.
<mgrwt>
<rscale>  0 0.31017556E+03</rscale>
<asrwt>0</asrwt>
<pdfrwt beam="1">  1        2 0.11787209E+00 0.31017556E+03</pdfrwt>
<pdfrwt beam="2">  1       -2 0.41643581E-02 0.31017556E+03</pdfrwt>
<totfact> 0.97100614E+03</totfact>
</mgrwt>
</event>
<event>
 4    1  0.4895160E-005  0.3682737E+03  0.7818608E-02  0.1055355E+00
         -2   -1    0    0    0  501 -0.00000000000E+00  0.00000000000E+00  0.14134223931E+03  0.14134223933E+03  0.25500000000E-02 0. -1.
          2   -1    0    0  501    0  0.00000000000E+00 -0.00000000000E+00 -0.23988851712E+03  0.23988851713E+03  0.25500000000E-02 0.  1.
    5000001    1    1    2    0    0 -0.70341574321E+01  0.77639610638E+02  0.62699006141E+02  0.16167112878E+03  0.12700000000E+03 0.  0.
   -5000001    1    1    2    0    0  0.70341574321E+01 -0.77639610638E+02 -0.16124528395E+03  0.21955962768E+03  0.12700000000E+03 0.  0.
<mgrwt>
<rscale>  0 0.36827370E+03</rscale>
<asrwt>0</asrwt>
<pdfrwt beam="1">  1        2 0.34269788E-01 0.36827370E+03</pdfrwt>
<pdfrwt beam="2">  1       -2 0.20191749E-01 0.36827370E+03</pdfrwt>
<totfact> 0.31469999E+03</totfact>
</mgrwt>
</event>
<event>
 4    1  0.4895160E-005  0.3904391E+03  0.7818608E-02  0.1047141E+00
          2   -1    0    0  501    0  0.00000000000E+00  0.00000000000E+00  0.12423933415E+04  0.12423933416E+04  0.25500000000E-02 0.  1.
         -2   -1    0    0    0  501 -0.00000000000E+00 -0.00000000000E+00 -0.30675200741E+02  0.30675200847E+02  0.25500000000E-02 0. -1.
    5000001    1    1    2    0    0 -0.96127626612E+02 -0.11105094586E+03  0.53993090487E+03  0.57378324758E+03  0.12700000000E+03 0.  0.
   -5000001    1    1    2    0    0  0.96127626612E+02  0.11105094586E+03  0.67178723594E+03  0.69928529481E+03  0.12700000000E+03 0.  0.
<mgrwt>
<rscale>  0 0.39043906E+03</rscale>
<asrwt>0</asrwt>
<pdfrwt beam="1">  1        2 0.17748475E+00 0.39043906E+03</pdfrwt>
<pdfrwt beam="2">  1       -2 0.43821719E-02 0.39043906E+03</pdfrwt>
<totfact> 0.51132635E+03</totfact>
</mgrwt>
</event>
<event>
 4    1  0.4895160E-005  0.3851895E+03  0.7818608E-02  0.1049032E+00
          2   -1    0    0  501    0  0.00000000000E+00  0.00000000000E+00  0.81522760750E+03  0.81522760750E+03  0.25500000000E-02 0.  1.
         -2   -1    0    0    0  501 -0.00000000000E+00 -0.00000000000E+00 -0.45499865736E+02  0.45499865807E+02  0.25500000000E-02 0. -1.
    5000001    1    1    2    0    0  0.54946697621E+02 -0.11545419695E+03  0.23306309458E+03  0.29461197740E+03  0.12700000000E+03 0.  0.
   -5000001    1    1    2    0    0 -0.54946697621E+02  0.11545419695E+03  0.53666464718E+03  0.56611549590E+03  0.12700000000E+03 0.  0.
<mgrwt>
<rscale>  0 0.38518955E+03</rscale>
<asrwt>0</asrwt>
<pdfrwt beam="1">  1        2 0.11646108E+00 0.38518955E+03</pdfrwt>
<pdfrwt beam="2">  1       -2 0.64999811E-02 0.38518955E+03</pdfrwt>
<totfact> 0.50087454E+03</totfact>
</mgrwt>
</event>
<event>
 4    1  0.4895160E-005  0.4031147E+03  0.7818608E-02  0.1042706E+00
         -2   -1    0    0    0  501 -0.00000000000E+00  0.00000000000E+00  0.72689790909E+02  0.72689790954E+02  0.25500000000E-02 0. -1.
          2   -1    0    0  501    0  0.00000000000E+00 -0.00000000000E+00 -0.55888669906E+03  0.55888669907E+03  0.25500000000E-02 0.  1.
    5000001    1    1    2    0    0 -0.15176407043E+02 -0.13100909771E+03 -0.37513908142E+03  0.41743506971E+03  0.12700000000E+03 0.  0.
   -5000001    1    1    2    0    0  0.15176407043E+02  0.13100909771E+03 -0.11105782673E+03  0.21414142031E+03  0.12700000000E+03 0.  0.
<mgrwt>
<rscale>  0 0.40311466E+03</rscale>
<asrwt>0</asrwt>
<pdfrwt beam="1">  1        2 0.79840955E-01 0.40311466E+03</pdfrwt>
<pdfrwt beam="2">  1       -2 0.10384256E-01 0.40311466E+03</pdfrwt>
<totfact> 0.37536652E+03</totfact>
</mgrwt>
</event>
<event>
 4    1  0.4895160E-005  0.3101792E+03  0.7818608E-02  0.1080260E+00
          2   -1    0    0  501    0  0.00000000000E+00  0.00000000000E+00  0.17496915126E+04  0.17496915126E+04  0.25500000000E-02 0.  1.
         -2   -1    0    0    0  501 -0.00000000000E+00 -0.00000000000E+00 -0.13746871549E+02  0.13746871785E+02  0.25500000000E-02 0. -1.
    5000001    1    1    2    0    0  0.35758133492E+02 -0.80442253945E+02  0.94300529833E+03  0.95558233189E+03  0.12700000000E+03 0.  0.
   -5000001    1    1    2    0    0 -0.35758133492E+02  0.80442253945E+02  0.79293934273E+03  0.80785605251E+03  0.12700000000E+03 0.  0.
<mgrwt>
<rscale>  0 0.31017920E+03</rscale>
<asrwt>0</asrwt>
<pdfrwt beam="1">  1        2 0.24995616E+00 0.31017920E+03</pdfrwt>
<pdfrwt beam="2">  1       -2 0.19638370E-02 0.31017920E+03</pdfrwt>
<totfact> 0.93225544E+03</totfact>
</mgrwt>
</event>
<event>
 4    1  0.4895160E-005  0.6431165E+03  0.7818608E-02  0.9819782E-01
         -2   -1    0    0    0  501 -0.00000000000E+00  0.00000000000E+00  0.59960892012E+02  0.59960892066E+02  0.25500000000E-02 0. -1.
          2   -1    0    0  501    0  0.00000000000E+00 -0.00000000000E+00 -0.17244525537E+04  0.17244525537E+04  0.25500000000E-02 0.  1.
    5000001    1    1    2    0    0  0.27890255734E+03 -0.46425681232E+02 -0.59471484304E+03  0.67063904218E+03  0.12700000000E+03 0.  0.
   -5000001    1    1    2    0    0 -0.27890255734E+03  0.46425681232E+02 -0.10697768187E+04  0.11137744036E+04  0.12700000000E+03 0.  0.
<mgrwt>
<rscale>  0 0.64311652E+03</rscale>
<asrwt>0</asrwt>
<pdfrwt beam="1">  1        2 0.24635033E+00 0.64311652E+03</pdfrwt>
<pdfrwt beam="2">  1       -2 0.85658428E-02 0.64311652E+03</pdfrwt>
<totfact> 0.10006045E+03</totfact>
</mgrwt>
</event>
<event>
 4    1  0.4895160E-005  0.5201001E+03  0.7818608E-02  0.1008662E+00
         -2   -1    0    0    0  501 -0.00000000000E+00  0.00000000000E+00  0.55276016529E+02  0.55276016588E+02  0.25500000000E-02 0. -1.
          2   -1    0    0  501    0  0.00000000000E+00 -0.00000000000E+00 -0.12234243091E+04  0.12234243091E+04  0.25500000000E-02 0.  1.
    5000001    1    1    2    0    0  0.12167968073E+03 -0.85627456089E+02 -0.10053364605E+04  0.10241915860E+04  0.12700000000E+03 0.  0.
   -5000001    1    1    2    0    0 -0.12167968073E+03  0.85627456089E+02 -0.16281183207E+03  0.25450873973E+03  0.12700000000E+03 0.  0.
<mgrwt>
<rscale>  0 0.52010008E+03</rscale>
<asrwt>0</asrwt>
<pdfrwt beam="1">  1        2 0.17477488E+00 0.52010008E+03</pdfrwt>
<pdfrwt beam="2">  1       -2 0.78965746E-02 0.52010008E+03</pdfrwt>
<totfact> 0.20975831E+03</totfact>
</mgrwt>
</event>
<event>
 4    1  0.4895160E-005  0.3076434E+03  0.7818608E-02  0.1081481E+00
          2   -1    0    0  501    0  0.00000000000E+00  0.00000000000E+00  0.92012237457E+03  0.92012237458E+03  0.25500000000E-02 0.  1.
         -2   -1    0    0    0  501 -0.00000000000E+00 -0.00000000000E+00 -0.25715176996E+02  0.25715177122E+02  0.25500000000E-02 0. -1.
    5000001    1    1    2    0    0 -0.52834040436E+02 -0.47585836581E+02  0.60019510053E+03  0.61759129396E+03  0.12700000000E+03 0.  0.
   -5000001    1    1    2    0    0  0.52834040436E+02  0.47585836581E+02  0.29421209705E+03  0.32824625774E+03  0.12700000000E+03 0.  0.
<mgrwt>
<rscale>  0 0.30764336E+03</rscale>
<asrwt>0</asrwt>
<pdfrwt beam="1">  1        2 0.13144603E+00 0.30764336E+03</pdfrwt>
<pdfrwt beam="2">  1       -2 0.36735973E-02 0.30764336E+03</pdfrwt>
<totfact> 0.10194313E+04</totfact>
</mgrwt>
</event>
<event>
 4    1  0.4895160E-005  0.4783825E+03  0.7818608E-02  0.1019581E+00
         -2   -1    0    0    0  501 -0.00000000000E+00  0.00000000000E+00  0.11047693867E+03  0.11047693870E+03  0.25500000000E-02 0. -1.
          2   -1    0    0  501    0  0.00000000000E+00 -0.00000000000E+00 -0.51786788107E+03  0.51786788108E+03  0.25500000000E-02 0.  1.
    5000001    1    1    2    0    0  0.77513273590E+02 -0.18699877638E+03 -0.21725729321E+03  0.32296529442E+03  0.12700000000E+03 0.  0.
   -5000001    1    1    2    0    0 -0.77513273590E+02  0.18699877638E+03 -0.19013364920E+03  0.30537952536E+03  0.12700000000E+03 0.  0.
<mgrwt>
<rscale>  0 0.47838252E+03</rscale>
<asrwt>0</asrwt>
<pdfrwt beam="1">  1        2 0.73981125E-01 0.47838252E+03</pdfrwt>
<pdfrwt beam="2">  1       -2 0.15782420E-01 0.47838252E+03</pdfrwt>
<totfact> 0.20602418E+03</totfact>
</mgrwt>
</event>
<event>
 4    1  0.4895160E-005  0.4985254E+03  0.7818608E-02  0.1014165E+00
         -2   -1    0    0    0  501 -0.00000000000E+00  0.00000000000E+00  0.25129186364E+03  0.25129186365E+03  0.25500000000E-02 0. -1.
          2   -1    0    0  501    0  0.00000000000E+00 -0.00000000000E+00 -0.24724993397E+03  0.24724993398E+03  0.25500000000E-02 0.  1.
    5000001    1    1    2    0    0  0.15558528497E+03  0.13949044954E+03  0.50380907065E+02  0.24966297725E+03  0.12700000000E+03 0.  0.
   -5000001    1    1    2    0    0 -0.15558528497E+03 -0.13949044954E+03 -0.46338977395E+02  0.24887882039E+03  0.12700000000E+03 0.  0.
<mgrwt>
<rscale>  0 0.49852541E+03</rscale>
<asrwt>0</asrwt>
<pdfrwt beam="1">  1        2 0.35321419E-01 0.49852541E+03</pdfrwt>
<pdfrwt beam="2">  1       -2 0.35898838E-01 0.49852541E+03</pdfrwt>
<totfact> 0.10806996E+03</totfact>
</mgrwt>
</event>
<event>
 4    1  0.4895160E-005  0.2911135E+03  0.7818608E-02  0.1089769E+00
         -2   -1    0    0    0  501 -0.00000000000E+00  0.00000000000E+00  0.26970232745E+03  0.26970232746E+03  0.25500000000E-02 0. -1.
          2   -1    0    0  501    0  0.00000000000E+00 -0.00000000000E+00 -0.78556107476E+02  0.78556107518E+02  0.25500000000E-02 0.  1.
    5000001    1    1    2    0    0 -0.36597219649E+02  0.49843432210E+02  0.13759775799E+03  0.19719499797E+03  0.12700000000E+03 0.  0.
   -5000001    1    1    2    0    0  0.36597219649E+02 -0.49843432210E+02  0.53548461987E+02  0.15106343701E+03  0.12700000000E+03 0.  0.
<mgrwt>
<rscale>  0 0.29111348E+03</rscale>
<asrwt>0</asrwt>
<pdfrwt beam="1">  1        2 0.11222301E-01 0.29111348E+03</pdfrwt>
<pdfrwt beam="2">  1       -2 0.38528904E-01 0.29111348E+03</pdfrwt>
<totfact> 0.35456766E+03</totfact>
</mgrwt>
</event>
<event>
 4    1  0.4895160E-005  0.3115827E+03  0.7818608E-02  0.1079590E+00
         -2   -1    0    0    0  501 -0.00000000000E+00  0.00000000000E+00  0.24818323229E+02  0.24818323360E+02  0.25500000000E-02 0. -1.
          2   -1    0    0  501    0  0.00000000000E+00 -0.00000000000E+00 -0.97794436664E+03  0.97794436665E+03  0.25500000000E-02 0.  1.
    5000001    1    1    2    0    0 -0.48218723465E+02  0.71027942332E+02 -0.38714756638E+03  0.41639194522E+03  0.12700000000E+03 0.  0.
   -5000001    1    1    2    0    0  0.48218723465E+02 -0.71027942332E+02 -0.56597847703E+03  0.58637074479E+03  0.12700000000E+03 0.  0.
<mgrwt>
<rscale>  0 0.31158267E+03</rscale>
<asrwt>0</asrwt>
<pdfrwt beam="1">  1        2 0.13970631E+00 0.31158267E+03</pdfrwt>
<pdfrwt beam="2">  1       -2 0.35454754E-02 0.31158267E+03</pdfrwt>
<totfact> 0.99178948E+03</totfact>
</mgrwt>
</event>
<event>
 4    1  0.4895160E-005  0.7345120E+03  0.7818608E-02  0.9659967E-01
          2   -1    0    0  501    0  0.00000000000E+00  0.00000000000E+00  0.59735877143E+03  0.59735877144E+03  0.25500000000E-02 0.  1.
         -2   -1    0    0    0  501 -0.00000000000E+00 -0.00000000000E+00 -0.22578889695E+03  0.22578889696E+03  0.25500000000E-02 0. -1.
    5000001    1    1    2    0    0  0.31472622356E+03 -0.14012350833E+03  0.19452221218E+03  0.41551785090E+03  0.12700000000E+03 0.  0.
   -5000001    1    1    2    0    0 -0.31472622356E+03  0.14012350833E+03  0.17704766230E+03  0.40762981750E+03  0.12700000000E+03 0.  0.
<mgrwt>
<rscale>  0 0.73451202E+03</rscale>
<asrwt>0</asrwt>
<pdfrwt beam="1">  1        2 0.85336968E-01 0.73451202E+03</pdfrwt>
<pdfrwt beam="2">  1       -2 0.32255557E-01 0.73451202E+03</pdfrwt>
<totfact> 0.49025863E+02</totfact>
</mgrwt>
</event>
<event>
 4    1  0.4895160E-005  0.2895737E+03  0.7818608E-02  0.1090572E+00
         -2   -1    0    0    0  501 -0.00000000000E+00  0.00000000000E+00  0.11746649086E+03  0.11746649089E+03  0.25500000000E-02 0. -1.
          2   -1    0    0  501    0  0.00000000000E+00 -0.00000000000E+00 -0.17846140437E+03  0.17846140439E+03  0.25500000000E-02 0.  1.
    5000001    1    1    2    0    0  0.66037720755E+02  0.12288799876E+02 -0.12152515435E+02  0.14418279646E+03  0.12700000000E+03 0.  0.
   -5000001    1    1    2    0    0 -0.66037720755E+02 -0.12288799876E+02 -0.48842398071E+02  0.15174509881E+03  0.12700000000E+03 0.  0.
<mgrwt>
<rscale>  0 0.28957372E+03</rscale>
<asrwt>0</asrwt>
<pdfrwt beam="1">  1        2 0.25494486E-01 0.28957372E+03</pdfrwt>
<pdfrwt beam="2">  1       -2 0.16780927E-01 0.28957372E+03</pdfrwt>
<totfact> 0.59375092E+03</totfact>
</mgrwt>
</event>
<event>
 4    1  0.4895160E-005  0.3423381E+03  0.7818608E-02  0.1065804E+00
          2   -1    0    0  501    0  0.00000000000E+00  0.00000000000E+00  0.76649496376E+03  0.76649496377E+03  0.25500000000E-02 0.  1.
         -2   -1    0    0    0  501 -0.00000000000E+00 -0.00000000000E+00 -0.38224440663E+02  0.38224440748E+02  0.25500000000E-02 0. -1.
    5000001    1    1    2    0    0 -0.70033638628E+02  0.70301127014E+02  0.22863294047E+03  0.27973019227E+03  0.12700000000E+03 0.  0.
   -5000001    1    1    2    0    0  0.70033638628E+02 -0.70301127014E+02  0.49963758263E+03  0.52498921225E+03  0.12700000000E+03 0.  0.
<mgrwt>
<rscale>  0 0.34233809E+03</rscale>
<asrwt>0</asrwt>
<pdfrwt beam="1">  1        2 0.10949928E+00 0.34233809E+03</pdfrwt>
<pdfrwt beam="2">  1       -2 0.54606345E-02 0.34233809E+03</pdfrwt>
<totfact> 0.70628885E+03</totfact>
</mgrwt>
</event>
<event>
 4    1  0.4895160E-005  0.2670222E+03  0.7818608E-02  0.1102996E+00
         -2   -1    0    0    0  501 -0.00000000000E+00  0.00000000000E+00  0.37052160833E+01  0.37052169608E+01  0.25500000000E-02 0. -1.
          2   -1    0    0  501    0  0.00000000000E+00 -0.00000000000E+00 -0.48108413499E+04  0.48108413499E+04  0.25500000000E-02 0.  1.
    5000001    1    1    2    0    0  0.77988970448E+01 -0.38084016790E+02 -0.26488053997E+04  0.26521331528E+04  0.12700000000E+03 0.  0.
   -5000001    1    1    2    0    0 -0.77988970448E+01  0.38084016790E+02 -0.21583307341E+04  0.21624134140E+04  0.12700000000E+03 0.  0.
<mgrwt>
<rscale>  0 0.26702216E+03</rscale>
<asrwt>0</asrwt>
<pdfrwt beam="1">  1        2 0.68725905E+00 0.26702216E+03</pdfrwt>
<pdfrwt beam="2">  1       -2 0.52931973E-03 0.26702216E+03</pdfrwt>
<totfact> 0.97641179E+02</totfact>
</mgrwt>
</event>
<event>
 4    1  0.4895160E-005  0.5580797E+03  0.7818608E-02  0.9996409E-01
         -2   -1    0    0    0  501 -0.00000000000E+00  0.00000000000E+00  0.67894683251E+02  0.67894683299E+02  0.25500000000E-02 0. -1.
          2   -1    0    0  501    0  0.00000000000E+00 -0.00000000000E+00 -0.11468236718E+04  0.11468236719E+04  0.25500000000E-02 0.  1.
    5000001    1    1    2    0    0 -0.24336870424E+03 -0.49468586886E+02 -0.52277934083E+03  0.59253920249E+03  0.12700000000E+03 0.  0.
   -5000001    1    1    2    0    0  0.24336870424E+03  0.49468586886E+02 -0.55614964777E+03  0.62217915266E+03  0.12700000000E+03 0.  0.
<mgrwt>
<rscale>  0 0.55807967E+03</rscale>
<asrwt>0</asrwt>
<pdfrwt beam="1">  1        2 0.16383194E+00 0.55807967E+03</pdfrwt>
<pdfrwt beam="2">  1       -2 0.96992412E-02 0.55807967E+03</pdfrwt>
<totfact> 0.16653815E+03</totfact>
</mgrwt>
</event>
<event>
 4    1  0.4895160E-005  0.4147683E+03  0.7818608E-02  0.1038783E+00
         -2   -1    0    0    0  501 -0.00000000000E+00  0.00000000000E+00  0.44281546460E+02  0.44281546533E+02  0.25500000000E-02 0. -1.
          2   -1    0    0  501    0  0.00000000000E+00 -0.00000000000E+00 -0.97124384210E+03  0.97124384211E+03  0.25500000000E-02 0.  1.
    5000001    1    1    2    0    0  0.69845678196E+02 -0.94931682268E+02 -0.18443970392E+03  0.25305621400E+03  0.12700000000E+03 0.  0.
   -5000001    1    1    2    0    0 -0.69845678196E+02  0.94931682268E+02 -0.74252259172E+03  0.76246917464E+03  0.12700000000E+03 0.  0.
<mgrwt>
<rscale>  0 0.41476827E+03</rscale>
<asrwt>0</asrwt>
<pdfrwt beam="1">  1        2 0.13874911E+00 0.41476827E+03</pdfrwt>
<pdfrwt beam="2">  1       -2 0.63259358E-02 0.41476827E+03</pdfrwt>
<totfact> 0.41569939E+03</totfact>
</mgrwt>
</event>
<event>
 4    1  0.4895160E-005  0.7547833E+03  0.7818608E-02  0.9627876E-01
         -2   -1    0    0    0  501 -0.00000000000E+00  0.00000000000E+00  0.61964404026E+02  0.61964404078E+02  0.25500000000E-02 0. -1.
          2   -1    0    0  501    0  0.00000000000E+00 -0.00000000000E+00 -0.22984882884E+04  0.22984882884E+04  0.25500000000E-02 0.  1.
    5000001    1    1    2    0    0 -0.23035799180E+03 -0.27053373726E+03 -0.10979584885E+04  0.11609888672E+04  0.12700000000E+03 0.  0.
   -5000001    1    1    2    0    0  0.23035799180E+03  0.27053373726E+03 -0.11385653959E+04  0.11994638253E+04  0.12700000000E+03 0.  0.
<mgrwt>
<rscale>  0 0.75478330E+03</rscale>
<asrwt>0</asrwt>
<pdfrwt beam="1">  1        2 0.32835542E+00 0.75478330E+03</pdfrwt>
<pdfrwt beam="2">  1       -2 0.88520591E-02 0.75478330E+03</pdfrwt>
<totfact> 0.48278841E+02</totfact>
</mgrwt>
</event>
<event>
 4    1  0.4895160E-005  0.4766969E+03  0.7818608E-02  0.1020047E+00
          2   -1    0    0  501    0  0.00000000000E+00  0.00000000000E+00  0.29877716418E+04  0.29877716418E+04  0.25500000000E-02 0.  1.
         -2   -1    0    0    0  501 -0.00000000000E+00 -0.00000000000E+00 -0.19014165092E+02  0.19014165263E+02  0.25500000000E-02 0. -1.
    5000001    1    1    2    0    0 -0.18291521368E+02  0.17207207719E+03  0.21379814663E+04  0.21487291895E+04  0.12700000000E+03 0.  0.
   -5000001    1    1    2    0    0  0.18291521368E+02 -0.17207207719E+03  0.83077601039E+03  0.85805661756E+03  0.12700000000E+03 0.  0.
<mgrwt>
<rscale>  0 0.47669690E+03</rscale>
<asrwt>0</asrwt>
<pdfrwt beam="1">  1        2 0.42682444E+00 0.47669690E+03</pdfrwt>
<pdfrwt beam="2">  1       -2 0.27163099E-02 0.47669690E+03</pdfrwt>
<totfact> 0.13515644E+03</totfact>
</mgrwt>
</event>
<event>
 4    1  0.4895160E-005  0.5736020E+03  0.7818608E-02  0.9961739E-01
         -2   -1    0    0    0  501 -0.00000000000E+00  0.00000000000E+00  0.19539022935E+03  0.19539022937E+03  0.25500000000E-02 0. -1.
          2   -1    0    0  501    0  0.00000000000E+00 -0.00000000000E+00 -0.42097715009E+03  0.42097715009E+03  0.25500000000E-02 0.  1.
    5000001    1    1    2    0    0  0.62150210778E+02 -0.19708797710E+03 -0.27723737236E+03  0.36836921703E+03  0.12700000000E+03 0.  0.
   -5000001    1    1    2    0    0 -0.62150210778E+02  0.19708797710E+03  0.51650451629E+02  0.24799816243E+03  0.12700000000E+03 0.  0.
<mgrwt>
<rscale>  0 0.57360203E+03</rscale>
<asrwt>0</asrwt>
<pdfrwt beam="1">  1        2 0.60139592E-01 0.57360203E+03</pdfrwt>
<pdfrwt beam="2">  1       -2 0.27912890E-01 0.57360203E+03</pdfrwt>
<totfact> 0.95893299E+02</totfact>
</mgrwt>
</event>
<event>
 4    1  0.4895160E-005  0.7251821E+03  0.7818608E-02  0.9675111E-01
          2   -1    0    0  501    0  0.00000000000E+00  0.00000000000E+00  0.60773768425E+03  0.60773768425E+03  0.25500000000E-02 0.  1.
         -2   -1    0    0    0  501 -0.00000000000E+00 -0.00000000000E+00 -0.21633063189E+03  0.21633063190E+03  0.25500000000E-02 0. -1.
    5000001    1    1    2    0    0 -0.30096061594E+03  0.93947002165E+02  0.33917301372E+03  0.48017774292E+03  0.12700000000E+03 0.  0.
   -5000001    1    1    2    0    0  0.30096061594E+03 -0.93947002165E+02  0.52234038645E+02  0.34389057323E+03  0.12700000000E+03 0.  0.
<mgrwt>
<rscale>  0 0.72518212E+03</rscale>
<asrwt>0</asrwt>
<pdfrwt beam="1">  1        2 0.86819670E-01 0.72518212E+03</pdfrwt>
<pdfrwt beam="2">  1       -2 0.30904376E-01 0.72518212E+03</pdfrwt>
<totfact> 0.52049524E+02</totfact>
</mgrwt>
</event>
<event>
 4    1  0.4895160E-005  0.3355052E+03  0.7818608E-02  0.1068727E+00
          2   -1    0    0  501    0  0.00000000000E+00  0.00000000000E+00  0.93192479354E+03  0.93192479355E+03  0.25500000000E-02 0.  1.
         -2   -1    0    0    0  501 -0.00000000000E+00 -0.00000000000E+00 -0.30196579882E+02  0.30196579990E+02  0.25500000000E-02 0. -1.
    5000001    1    1    2    0    0 -0.38132245068E+02 -0.10263396540E+03  0.46495447051E+03  0.49426658659E+03  0.12700000000E+03 0.  0.
   -5000001    1    1    2    0    0  0.38132245068E+02  0.10263396540E+03  0.43677374315E+03  0.46785478695E+03  0.12700000000E+03 0.  0.
<mgrwt>
<rscale>  0 0.33550524E+03</rscale>
<asrwt>0</asrwt>
<pdfrwt beam="1">  1        2 0.13313214E+00 0.33550524E+03</pdfrwt>
<pdfrwt beam="2">  1       -2 0.43137962E-02 0.33550524E+03</pdfrwt>
<totfact> 0.78834688E+03</totfact>
</mgrwt>
</event>
<event>
 4    1  0.4895160E-005  0.3192924E+03  0.7818608E-02  0.1075975E+00
         -2   -1    0    0    0  501 -0.00000000000E+00  0.00000000000E+00  0.50046242781E+01  0.50046249278E+01  0.25500000000E-02 0. -1.
          2   -1    0    0  501    0  0.00000000000E+00 -0.00000000000E+00 -0.50926727893E+04  0.50926727893E+04  0.25500000000E-02 0.  1.
    5000001    1    1    2    0    0 -0.71750671692E+02  0.37568439269E+02 -0.33884051626E+04  0.33917514785E+04  0.12700000000E+03 0.  0.
   -5000001    1    1    2    0    0  0.71750671692E+02 -0.37568439269E+02 -0.16992630025E+04  0.17059259357E+04  0.12700000000E+03 0.  0.
<mgrwt>
<rscale>  0 0.31929244E+03</rscale>
<asrwt>0</asrwt>
<pdfrwt beam="1">  1        2 0.72752136E+00 0.31929244E+03</pdfrwt>
<pdfrwt beam="2">  1       -2 0.71494964E-03 0.31929244E+03</pdfrwt>
<totfact> 0.34643259E+02</totfact>
</mgrwt>
</event>
<event>
 4    1  0.4895160E-005  0.3742826E+03  0.7818608E-02  0.1053067E+00
          2   -1    0    0  501    0  0.00000000000E+00  0.00000000000E+00  0.28722895354E+03  0.28722895355E+03  0.25500000000E-02 0.  1.
         -2   -1    0    0    0  501 -0.00000000000E+00 -0.00000000000E+00 -0.12193014117E+03  0.12193014119E+03  0.25500000000E-02 0. -1.
    5000001    1    1    2    0    0 -0.12070794564E+03  0.15956187987E+02  0.15237231559E+03  0.23274735365E+03  0.12700000000E+03 0.  0.
   -5000001    1    1    2    0    0  0.12070794564E+03 -0.15956187987E+02  0.12926496787E+02  0.17641174109E+03  0.12700000000E+03 0.  0.
<mgrwt>
<rscale>  0 0.37428260E+03</rscale>
<asrwt>0</asrwt>
<pdfrwt beam="1">  1        2 0.41032707E-01 0.37428260E+03</pdfrwt>
<pdfrwt beam="2">  1       -2 0.17418592E-01 0.37428260E+03</pdfrwt>
<totfact> 0.33279225E+03</totfact>
</mgrwt>
</event>
<event>
 4    1  0.4895160E-005  0.6583346E+03  0.7818608E-02  0.9791264E-01
          2   -1    0    0  501    0  0.00000000000E+00  0.00000000000E+00  0.30358993487E+03  0.30358993488E+03  0.25500000000E-02 0.  1.
         -2   -1    0    0    0  501 -0.00000000000E+00 -0.00000000000E+00 -0.35689953460E+03  0.35689953461E+03  0.25500000000E-02 0. -1.
    5000001    1    1    2    0    0  0.29945585979E+03 -0.30886711951E+02 -0.66714251789E+02  0.33347802376E+03  0.12700000000E+03 0.  0.
   -5000001    1    1    2    0    0 -0.29945585979E+03  0.30886711951E+02  0.13404652056E+02  0.32701144573E+03  0.12700000000E+03 0.  0.
<mgrwt>
<rscale>  0 0.65833459E+03</rscale>
<asrwt>0</asrwt>
<pdfrwt beam="1">  1        2 0.43369991E-01 0.65833459E+03</pdfrwt>
<pdfrwt beam="2">  1       -2 0.50985648E-01 0.65833459E+03</pdfrwt>
<totfact> 0.43146862E+02</totfact>
</mgrwt>
</event>
<event>
 4    1  0.4895160E-005  0.7057971E+03  0.7818608E-02  0.9707369E-01
          2   -1    0    0  501    0  0.00000000000E+00  0.00000000000E+00  0.10826499129E+04  0.10826499129E+04  0.25500000000E-02 0.  1.
         -2   -1    0    0    0  501 -0.00000000000E+00 -0.00000000000E+00 -0.11503014444E+03  0.11503014447E+03  0.25500000000E-02 0. -1.
    5000001    1    1    2    0    0  0.20129857689E+03 -0.14382415924E+03  0.85248223625E+03  0.89669474681E+03  0.12700000000E+03 0.  0.
   -5000001    1    1    2    0    0 -0.20129857689E+03  0.14382415924E+03  0.11513753219E+03  0.30098531054E+03  0.12700000000E+03 0.  0.
<mgrwt>
<rscale>  0 0.70579707E+03</rscale>
<asrwt>0</asrwt>
<pdfrwt beam="1">  1        2 0.15466428E+00 0.70579707E+03</pdfrwt>
<pdfrwt beam="2">  1       -2 0.16432877E-01 0.70579707E+03</pdfrwt>
<totfact> 0.75417157E+02</totfact>
</mgrwt>
</event>
<event>
 4    1  0.4895160E-005  0.3413520E+03  0.7818608E-02  0.1066222E+00
         -2   -1    0    0    0  501 -0.00000000000E+00  0.00000000000E+00  0.78642048804E+02  0.78642048845E+02  0.25500000000E-02 0. -1.
          2   -1    0    0  501    0  0.00000000000E+00 -0.00000000000E+00 -0.37041623944E+03  0.37041623945E+03  0.25500000000E-02 0.  1.
    5000001    1    1    2    0    0 -0.40416751106E+02  0.10138810331E+03 -0.10248998677E+03  0.19633201127E+03  0.12700000000E+03 0.  0.
   -5000001    1    1    2    0    0  0.40416751106E+02 -0.10138810331E+03 -0.18928420387E+03  0.25272627702E+03  0.12700000000E+03 0.  0.
<mgrwt>
<rscale>  0 0.34135197E+03</rscale>
<asrwt>0</asrwt>
<pdfrwt beam="1">  1        2 0.52916605E-01 0.34135197E+03</pdfrwt>
<pdfrwt beam="2">  1       -2 0.11234579E-01 0.34135197E+03</pdfrwt>
<totfact> 0.51976801E+03</totfact>
</mgrwt>
</event>
<event>
 4    1  0.4895160E-005  0.3235906E+03  0.7818608E-02  0.1074009E+00
         -2   -1    0    0    0  501 -0.00000000000E+00  0.00000000000E+00  0.28886192062E+03  0.28886192063E+03  0.25500000000E-02 0. -1.
          2   -1    0    0  501    0  0.00000000000E+00 -0.00000000000E+00 -0.90623636586E+02  0.90623636621E+02  0.25500000000E-02 0.  1.
    5000001    1    1    2    0    0  0.87383902189E+02  0.27929235467E+02  0.51732444586E+02  0.16498858863E+03  0.12700000000E+03 0.  0.
   -5000001    1    1    2    0    0 -0.87383902189E+02 -0.27929235467E+02  0.14650583945E+03  0.21449696862E+03  0.12700000000E+03 0.  0.
<mgrwt>
<rscale>  0 0.32359059E+03</rscale>
<asrwt>0</asrwt>
<pdfrwt beam="1">  1        2 0.12946234E-01 0.32359059E+03</pdfrwt>
<pdfrwt beam="2">  1       -2 0.41265989E-01 0.32359059E+03</pdfrwt>
<totfact> 0.26190730E+03</totfact>
</mgrwt>
</event>
<event>
 4    1  0.4895160E-005  0.4527085E+03  0.7818608E-02  0.1026917E+00
          2   -1    0    0  501    0  0.00000000000E+00  0.00000000000E+00  0.17695892703E+04  0.17695892703E+04  0.25500000000E-02 0.  1.
         -2   -1    0    0    0  501 -0.00000000000E+00 -0.00000000000E+00 -0.28953753408E+02  0.28953753520E+02  0.25500000000E-02 0. -1.
    5000001    1    1    2    0    0  0.56599985651E+02 -0.17568009033E+03  0.99845057349E+03  0.10232788477E+04  0.12700000000E+03 0.  0.
   -5000001    1    1    2    0    0 -0.56599985651E+02  0.17568009033E+03  0.74218494343E+03  0.77526417611E+03  0.12700000000E+03 0.  0.
<mgrwt>
<rscale>  0 0.45270852E+03</rscale>
<asrwt>0</asrwt>
<pdfrwt beam="1">  1        2 0.25279861E+00 0.45270852E+03</pdfrwt>
<pdfrwt beam="2">  1       -2 0.41362482E-02 0.45270852E+03</pdfrwt>
<totfact> 0.29834686E+03</totfact>
</mgrwt>
</event>
<event>
 4    1  0.4895160E-005  0.4419967E+03  0.7818608E-02  0.1030136E+00
          2   -1    0    0  501    0  0.00000000000E+00  0.00000000000E+00  0.12017514816E+03  0.12017514818E+03  0.25500000000E-02 0.  1.
         -2   -1    0    0    0  501 -0.00000000000E+00 -0.00000000000E+00 -0.40640914991E+03  0.40640914992E+03  0.25500000000E-02 0. -1.
    5000001    1    1    2    0    0  0.18062591826E+03  0.92261602621E+01 -0.14233084493E+03  0.26286482039E+03  0.12700000000E+03 0.  0.
   -5000001    1    1    2    0    0 -0.18062591826E+03 -0.92261602621E+01 -0.14390315683E+03  0.26371947771E+03  0.12700000000E+03 0.  0.
<mgrwt>
<rscale>  0 0.44199674E+03</rscale>
<asrwt>0</asrwt>
<pdfrwt beam="1">  1        2 0.17167878E-01 0.44199674E+03</pdfrwt>
<pdfrwt beam="2">  1       -2 0.58058449E-01 0.44199674E+03</pdfrwt>
<totfact> 0.94754625E+02</totfact>
</mgrwt>
</event>
<event>
 4    1  0.4895160E-005  0.7361180E+03  0.7818608E-02  0.9657384E-01
          2   -1    0    0  501    0  0.00000000000E+00  0.00000000000E+00  0.22994931833E+03  0.22994931835E+03  0.25500000000E-02 0.  1.
         -2   -1    0    0    0  501 -0.00000000000E+00 -0.00000000000E+00 -0.58911859796E+03  0.58911859797E+03  0.25500000000E-02 0. -1.
    5000001    1    1    2    0    0 -0.22114800244E+03  0.13159143603E+03 -0.43602350213E+03  0.52198490345E+03  0.12700000000E+03 0.  0.
   -5000001    1    1    2    0    0  0.22114800244E+03 -0.13159143603E+03  0.76854222504E+02  0.29708301287E+03  0.12700000000E+03 0.  0.
<mgrwt>
<rscale>  0 0.73611798E+03</rscale>
<asrwt>0</asrwt>
<pdfrwt beam="1">  1        2 0.32849903E-01 0.73611798E+03</pdfrwt>
<pdfrwt beam="2">  1       -2 0.84159799E-01 0.73611798E+03</pdfrwt>
<totfact> 0.19973270E+02</totfact>
</mgrwt>
</event>
<event>
 4    1  0.4895160E-005  0.6161155E+03  0.7818608E-02  0.9872524E-01
         -2   -1    0    0    0  501 -0.00000000000E+00  0.00000000000E+00  0.23903208213E+03  0.23903208214E+03  0.25500000000E-02 0. -1.
          2   -1    0    0  501    0  0.00000000000E+00 -0.00000000000E+00 -0.39701606513E+03  0.39701606514E+03  0.25500000000E-02 0.  1.
    5000001    1    1    2    0    0 -0.13687458340E+03 -0.23346678934E+03 -0.15575612568E+03  0.33709103221E+03  0.12700000000E+03 0.  0.
   -5000001    1    1    2    0    0  0.13687458340E+03  0.23346678934E+03 -0.22278573207E+01  0.29895711508E+03  0.12700000000E+03 0.  0.
<mgrwt>
<rscale>  0 0.61611550E+03</rscale>
<asrwt>0</asrwt>
<pdfrwt beam="1">  1        2 0.56716581E-01 0.61611550E+03</pdfrwt>
<pdfrwt beam="2">  1       -2 0.34147440E-01 0.61611550E+03</pdfrwt>
<totfact> 0.70372778E+02</totfact>
</mgrwt>
</event>
<event>
 4    1  0.4895160E-005  0.3467394E+03  0.7818608E-02  0.1063961E+00
          2   -1    0    0  501    0  0.00000000000E+00  0.00000000000E+00  0.29896850811E+03  0.29896850813E+03  0.25500000000E-02 0.  1.
         -2   -1    0    0    0  501 -0.00000000000E+00 -0.00000000000E+00 -0.10053587469E+03  0.10053587472E+03  0.25500000000E-02 0. -1.
    5000001    1    1    2    0    0 -0.16908075621E+02 -0.11358098138E+03  0.13059141118E+03  0.21533610711E+03  0.12700000000E+03 0.  0.
   -5000001    1    1    2    0    0  0.16908075621E+02  0.11358098138E+03  0.67841222238E+02  0.18416827573E+03  0.12700000000E+03 0.  0.
<mgrwt>
<rscale>  0 0.34673944E+03</rscale>
<asrwt>0</asrwt>
<pdfrwt beam="1">  1        2 0.42709788E-01 0.34673944E+03</pdfrwt>
<pdfrwt beam="2">  1       -2 0.14362268E-01 0.34673944E+03</pdfrwt>
<totfact> 0.43924759E+03</totfact>
</mgrwt>
</event>
<event>
 4    1  0.4895160E-005  0.2684485E+03  0.7818608E-02  0.1102171E+00
          2   -1    0    0  501    0  0.00000000000E+00  0.00000000000E+00  0.20035778993E+03  0.20035778995E+03  0.25500000000E-02 0.  1.
         -2   -1    0    0    0  501 -0.00000000000E+00 -0.00000000000E+00 -0.89919866355E+02  0.89919866391E+02  0.25500000000E-02 0. -1.
    5000001    1    1    2    0    0 -0.17919836225E+02 -0.35592948661E+02  0.73921891464E+02  0.15225447305E+03  0.12700000000E+03 0.  0.
   -5000001    1    1    2    0    0  0.17919836225E+02  0.35592948661E+02  0.36516032110E+02  0.13802318329E+03  0.12700000000E+03 0.  0.
<mgrwt>
<rscale>  0 0.26844847E+03</rscale>
<asrwt>0</asrwt>
<pdfrwt beam="1">  1        2 0.28622541E-01 0.26844847E+03</pdfrwt>
<pdfrwt beam="2">  1       -2 0.12845695E-01 0.26844847E+03</pdfrwt>
<totfact> 0.80907876E+03</totfact>
</mgrwt>
</event>
<event>
 4    1  0.4895160E-005  0.3160857E+03  0.7818608E-02  0.1077465E+00
          2   -1    0    0  501    0  0.00000000000E+00  0.00000000000E+00  0.48026594602E+03  0.48026594603E+03  0.25500000000E-02 0.  1.
         -2   -1    0    0    0  501 -0.00000000000E+00 -0.00000000000E+00 -0.52007726037E+02  0.52007726100E+02  0.25500000000E-02 0. -1.
    5000001    1    1    2    0    0 -0.40839427001E+02  0.64154292902E+01  0.35641596022E+03  0.38061838268E+03  0.12700000000E+03 0.  0.
   -5000001    1    1    2    0    0  0.40839427001E+02 -0.64154292902E+01  0.71842259762E+02  0.15165528945E+03  0.12700000000E+03 0.  0.
<mgrwt>
<rscale>  0 0.31608568E+03</rscale>
<asrwt>0</asrwt>
<pdfrwt beam="1">  1        2 0.68609422E-01 0.31608568E+03</pdfrwt>
<pdfrwt beam="2">  1       -2 0.74296751E-02 0.31608568E+03</pdfrwt>
<totfact> 0.75193801E+03</totfact>
</mgrwt>
</event>
<event>
 4    1  0.4895160E-005  0.3330509E+03  0.7818608E-02  0.1069795E+00
         -2   -1    0    0    0  501 -0.00000000000E+00  0.00000000000E+00  0.87781363624E+01  0.87781367328E+01  0.25500000000E-02 0. -1.
          2   -1    0    0  501    0  0.00000000000E+00 -0.00000000000E+00 -0.31590670744E+04  0.31590670744E+04  0.25500000000E-02 0.  1.
    5000001    1    1    2    0    0 -0.67811307648E+02 -0.73767336555E+02 -0.19510304868E+04  0.19577254541E+04  0.12700000000E+03 0.  0.
   -5000001    1    1    2    0    0  0.67811307648E+02  0.73767336555E+02 -0.11992584512E+04  0.12101197570E+04  0.12700000000E+03 0.  0.
<mgrwt>
<rscale>  0 0.33305088E+03</rscale>
<asrwt>0</asrwt>
<pdfrwt beam="1">  1        2 0.45129457E+00 0.33305088E+03</pdfrwt>
<pdfrwt beam="2">  1       -2 0.12540215E-02 0.33305088E+03</pdfrwt>
<totfact> 0.34809004E+03</totfact>
</mgrwt>
</event>
<event>
 4    1  0.4895160E-005  0.4358310E+03  0.7818608E-02  0.1032034E+00
          2   -1    0    0  501    0  0.00000000000E+00  0.00000000000E+00  0.40925602457E+03  0.40925602458E+03  0.25500000000E-02 0.  1.
         -2   -1    0    0    0  501 -0.00000000000E+00 -0.00000000000E+00 -0.11603289496E+03  0.11603289499E+03  0.25500000000E-02 0. -1.
    5000001    1    1    2    0    0 -0.17652006974E+03 -0.50681536635E+00  0.12962770700E+03  0.25316384873E+03  0.12700000000E+03 0.  0.
   -5000001    1    1    2    0    0  0.17652006974E+03  0.50681536635E+00  0.16359542260E+03  0.27212507084E+03  0.12700000000E+03 0.  0.
<mgrwt>
<rscale>  0 0.43583098E+03</rscale>
<asrwt>0</asrwt>
<pdfrwt beam="1">  1        2 0.58465147E-01 0.43583098E+03</pdfrwt>
<pdfrwt beam="2">  1       -2 0.16576128E-01 0.43583098E+03</pdfrwt>
<totfact> 0.24643775E+03</totfact>
</mgrwt>
</event>
<event>
 4    1  0.4895160E-005  0.4292176E+03  0.7818608E-02  0.1034107E+00
         -2   -1    0    0    0  501 -0.00000000000E+00  0.00000000000E+00  0.59154149494E+02  0.59154149549E+02  0.25500000000E-02 0. -1.
          2   -1    0    0  501    0  0.00000000000E+00 -0.00000000000E+00 -0.77859168309E+03  0.77859168309E+03  0.25500000000E-02 0.  1.
    5000001    1    1    2    0    0  0.17138408946E+03  0.74155971561E+01 -0.31605641018E+03  0.38137665321E+03  0.12700000000E+03 0.  0.
   -5000001    1    1    2    0    0 -0.17138408946E+03 -0.74155971561E+01 -0.40338112341E+03  0.45636917943E+03  0.12700000000E+03 0.  0.
<mgrwt>
<rscale>  0 0.42921756E+03</rscale>
<asrwt>0</asrwt>
<pdfrwt beam="1">  1        2 0.11122738E+00 0.42921756E+03</pdfrwt>
<pdfrwt beam="2">  1       -2 0.84505932E-02 0.42921756E+03</pdfrwt>
<totfact> 0.35192770E+03</totfact>
</mgrwt>
</event>
<event>
 4    1  0.4895160E-005  0.3546780E+03  0.7818608E-02  0.1060711E+00
         -2   -1    0    0    0  501 -0.00000000000E+00  0.00000000000E+00  0.36126468218E+02  0.36126468308E+02  0.25500000000E-02 0. -1.
          2   -1    0    0  501    0  0.00000000000E+00 -0.00000000000E+00 -0.87052853688E+03  0.87052853689E+03  0.25500000000E-02 0.  1.
    5000001    1    1    2    0    0  0.11250235849E+03  0.18874234375E+02 -0.29441713807E+03  0.34032847160E+03  0.12700000000E+03 0.  0.
   -5000001    1    1    2    0    0 -0.11250235849E+03 -0.18874234375E+02 -0.53998493059E+03  0.56632653360E+03  0.12700000000E+03 0.  0.
<mgrwt>
<rscale>  0 0.35467800E+03</rscale>
<asrwt>0</asrwt>
<pdfrwt beam="1">  1        2 0.12436121E+00 0.35467800E+03</pdfrwt>
<pdfrwt beam="2">  1       -2 0.51609246E-02 0.35467800E+03</pdfrwt>
<totfact> 0.65654603E+03</totfact>
</mgrwt>
</event>
<event>
 4    1  0.4895160E-005  0.3870133E+03  0.7818608E-02  0.1048372E+00
         -2   -1    0    0    0  501 -0.00000000000E+00  0.00000000000E+00  0.24939764560E+02  0.24939764690E+02  0.25500000000E-02 0. -1.
          2   -1    0    0  501    0  0.00000000000E+00 -0.00000000000E+00 -0.15014103880E+04  0.15014103880E+04  0.25500000000E-02 0.  1.
    5000001    1    1    2    0    0 -0.10959750352E+03  0.91592859738E+02 -0.85753206560E+03  0.87857333687E+03  0.12700000000E+03 0.  0.
   -5000001    1    1    2    0    0  0.10959750352E+03 -0.91592859738E+02 -0.61893855787E+03  0.64777681585E+03  0.12700000000E+03 0.  0.
<mgrwt>
<rscale>  0 0.38701329E+03</rscale>
<asrwt>0</asrwt>
<pdfrwt beam="1">  1        2 0.21448714E+00 0.38701329E+03</pdfrwt>
<pdfrwt beam="2">  1       -2 0.35628245E-02 0.38701329E+03</pdfrwt>
<totfact> 0.51156478E+03</totfact>
</mgrwt>
</event>
<event>
 4    1  0.4895160E-005  0.5107375E+03  0.7818608E-02  0.1011014E+00
         -2   -1    0    0    0  501 -0.00000000000E+00  0.00000000000E+00  0.21494927155E+03  0.21494927157E+03  0.25500000000E-02 0. -1.
          2   -1    0    0  501    0  0.00000000000E+00 -0.00000000000E+00 -0.30338881913E+03  0.30338881914E+03  0.25500000000E-02 0.  1.
    5000001    1    1    2    0    0  0.21186563844E+03 -0.44196952302E+02 -0.92293313800E+02  0.26737141791E+03  0.12700000000E+03 0.  0.
   -5000001    1    1    2    0    0 -0.21186563844E+03  0.44196952302E+02  0.38537662206E+01  0.25096667280E+03  0.12700000000E+03 0.  0.
<mgrwt>
<rscale>  0 0.51073753E+03</rscale>
<asrwt>0</asrwt>
<pdfrwt beam="1">  1        2 0.43341259E-01 0.51073753E+03</pdfrwt>
<pdfrwt beam="2">  1       -2 0.30707039E-01 0.51073753E+03</pdfrwt>
<totfact> 0.11556494E+03</totfact>
</mgrwt>
</event>
<event>
 4    1  0.4895160E-005  0.2698897E+03  0.7818608E-02  0.1101343E+00
         -2   -1    0    0    0  501 -0.00000000000E+00  0.00000000000E+00  0.59909712765E+03  0.59909712766E+03  0.25500000000E-02 0. -1.
          2   -1    0    0  501    0  0.00000000000E+00 -0.00000000000E+00 -0.30395929620E+02  0.30395929727E+02  0.25500000000E-02 0.  1.
    5000001    1    1    2    0    0 -0.40767204133E+02 -0.10967196259E+01  0.33203374797E+03  0.35782478606E+03  0.12700000000E+03 0.  0.
   -5000001    1    1    2    0    0  0.40767204133E+02  0.10967196259E+01  0.23666745007E+03  0.27166827133E+03  0.12700000000E+03 0.  0.
<mgrwt>
<rscale>  0 0.26988971E+03</rscale>
<asrwt>0</asrwt>
<pdfrwt beam="1">  1        2 0.43422758E-02 0.26988971E+03</pdfrwt>
<pdfrwt beam="2">  1       -2 0.85585302E-01 0.26988971E+03</pdfrwt>
<totfact> 0.23196789E+03</totfact>
</mgrwt>
</event>
<event>
 4    1  0.4895160E-005  0.4579974E+03  0.7818608E-02  0.1025364E+00
         -2   -1    0    0    0  501 -0.00000000000E+00  0.00000000000E+00  0.31740836270E+02  0.31740836372E+02  0.25500000000E-02 0. -1.
          2   -1    0    0  501    0  0.00000000000E+00 -0.00000000000E+00 -0.16521431405E+04  0.16521431405E+04  0.25500000000E-02 0.  1.
    5000001    1    1    2    0    0  0.25206062358E+02 -0.14846931193E+03 -0.38091820339E+03  0.42884281484E+03  0.12700000000E+03 0.  0.
   -5000001    1    1    2    0    0 -0.25206062358E+02  0.14846931193E+03 -0.12394841008E+04  0.12550411620E+04  0.12700000000E+03 0.  0.
<mgrwt>
<rscale>  0 0.45799740E+03</rscale>
<asrwt>0</asrwt>
<pdfrwt beam="1">  1        2 0.23602039E+00 0.45799740E+03</pdfrwt>
<pdfrwt beam="2">  1       -2 0.45344062E-02 0.45799740E+03</pdfrwt>
<totfact> 0.29692377E+03</totfact>
</mgrwt>
</event>
<event>
 4    1  0.4895160E-005  0.3580441E+03  0.7818608E-02  0.1059361E+00
          2   -1    0    0  501    0  0.00000000000E+00  0.00000000000E+00  0.13979811929E+03  0.13979811932E+03  0.25500000000E-02 0.  1.
         -2   -1    0    0    0  501 -0.00000000000E+00 -0.00000000000E+00 -0.22925124622E+03  0.22925124623E+03  0.25500000000E-02 0. -1.
    5000001    1    1    2    0    0 -0.11765803860E+03  0.36519962846E+02 -0.16635025343E+02  0.17771563185E+03  0.12700000000E+03 0.  0.
   -5000001    1    1    2    0    0  0.11765803860E+03 -0.36519962846E+02 -0.72818101584E+02  0.19133373370E+03  0.12700000000E+03 0.  0.
<mgrwt>
<rscale>  0 0.35804409E+03</rscale>
<asrwt>0</asrwt>
<pdfrwt beam="1">  1        2 0.19971160E-01 0.35804409E+03</pdfrwt>
<pdfrwt beam="2">  1       -2 0.32750178E-01 0.35804409E+03</pdfrwt>
<totfact> 0.24323747E+03</totfact>
</mgrwt>
</event>
<event>
 4    1  0.4895160E-005  0.3099273E+03  0.7818608E-02  0.1080381E+00
          2   -1    0    0  501    0  0.00000000000E+00  0.00000000000E+00  0.31274619576E+03  0.31274619577E+03  0.25500000000E-02 0.  1.
         -2   -1    0    0    0  501 -0.00000000000E+00 -0.00000000000E+00 -0.76783441687E+02  0.76783441729E+02  0.25500000000E-02 0. -1.
    5000001    1    1    2    0    0  0.84267509343E+02 -0.15403978064E+02  0.88601537910E+02  0.17696759079E+03  0.12700000000E+03 0.  0.
   -5000001    1    1    2    0    0 -0.84267509343E+02  0.15403978064E+02  0.14736121616E+03  0.21256204671E+03  0.12700000000E+03 0.  0.
<mgrwt>
<rscale>  0 0.30992728E+03</rscale>
<asrwt>0</asrwt>
<pdfrwt beam="1">  1        2 0.44678028E-01 0.30992728E+03</pdfrwt>
<pdfrwt beam="2">  1       -2 0.10969063E-01 0.30992728E+03</pdfrwt>
<totfact> 0.64687096E+03</totfact>
</mgrwt>
</event>
<event>
 4    1  0.4895160E-005  0.3666173E+03  0.7818608E-02  0.1055994E+00
          2   -1    0    0  501    0  0.00000000000E+00  0.00000000000E+00  0.81480465552E+03  0.81480465552E+03  0.25500000000E-02 0.  1.
         -2   -1    0    0    0  501 -0.00000000000E+00 -0.00000000000E+00 -0.41239409439E+02  0.41239409517E+02  0.25500000000E-02 0. -1.
    5000001    1    1    2    0    0  0.11827812690E+03  0.53776313343E+02  0.32999623442E+03  0.37670694433E+03  0.12700000000E+03 0.  0.
   -5000001    1    1    2    0    0 -0.11827812690E+03 -0.53776313343E+02  0.44356901166E+03  0.47933712071E+03  0.12700000000E+03 0.  0.
<mgrwt>
<rscale>  0 0.36661731E+03</rscale>
<asrwt>0</asrwt>
<pdfrwt beam="1">  1        2 0.11640066E+00 0.36661731E+03</pdfrwt>
<pdfrwt beam="2">  1       -2 0.58913446E-02 0.36661731E+03</pdfrwt>
<totfact> 0.58317004E+03</totfact>
</mgrwt>
</event>
<event>
 4    1  0.4895160E-005  0.4344778E+03  0.7818608E-02  0.1032455E+00
         -2   -1    0    0    0  501 -0.00000000000E+00  0.00000000000E+00  0.44975765331E+03  0.44975765331E+03  0.25500000000E-02 0. -1.
          2   -1    0    0  501    0  0.00000000000E+00 -0.00000000000E+00 -0.10492927504E+03  0.10492927507E+03  0.25500000000E-02 0.  1.
    5000001    1    1    2    0    0 -0.77456804142E+02  0.64150722384E+02 -0.12368230067E+02  0.16247105836E+03  0.12700000000E+03 0.  0.
   -5000001    1    1    2    0    0  0.77456804142E+02 -0.64150722384E+02  0.35719660834E+03  0.39221587002E+03  0.12700000000E+03 0.  0.
<mgrwt>
<rscale>  0 0.43447782E+03</rscale>
<asrwt>0</asrwt>
<pdfrwt beam="1">  1        2 0.14989897E-01 0.43447782E+03</pdfrwt>
<pdfrwt beam="2">  1       -2 0.64251093E-01 0.43447782E+03</pdfrwt>
<totfact> 0.90046236E+02</totfact>
</mgrwt>
</event>
<event>
 4    1  0.4895160E-005  0.6262426E+03  0.7818608E-02  0.9852409E-01
          2   -1    0    0  501    0  0.00000000000E+00  0.00000000000E+00  0.28629470279E+03  0.28629470280E+03  0.25500000000E-02 0.  1.
         -2   -1    0    0    0  501 -0.00000000000E+00 -0.00000000000E+00 -0.34246160205E+03  0.34246160206E+03  0.25500000000E-02 0. -1.
    5000001    1    1    2    0    0 -0.15335422070E+03  0.19575474428E+03  0.11418396943E+03  0.30166938159E+03  0.12700000000E+03 0.  0.
   -5000001    1    1    2    0    0  0.15335422070E+03 -0.19575474428E+03 -0.17035086868E+03  0.32708692327E+03  0.12700000000E+03 0.  0.
<mgrwt>
<rscale>  0 0.62624258E+03</rscale>
<asrwt>0</asrwt>
<pdfrwt beam="1">  1        2 0.40899243E-01 0.62624258E+03</pdfrwt>
<pdfrwt beam="2">  1       -2 0.48923086E-01 0.62624258E+03</pdfrwt>
<totfact> 0.50094039E+02</totfact>
</mgrwt>
</event>
<event>
 4    1  0.4895160E-005  0.4486551E+03  0.7818608E-02  0.1028124E+00
          2   -1    0    0  501    0  0.00000000000E+00  0.00000000000E+00  0.48240796520E+03  0.48240796520E+03  0.25500000000E-02 0.  1.
         -2   -1    0    0    0  501 -0.00000000000E+00 -0.00000000000E+00 -0.10431596309E+03  0.10431596312E+03  0.25500000000E-02 0. -1.
    5000001    1    1    2    0    0  0.18005344863E+03  0.87248453135E+01  0.24294143104E+03  0.32809283169E+03  0.12700000000E+03 0.  0.
   -5000001    1    1    2    0    0 -0.18005344863E+03 -0.87248453135E+01  0.13515057106E+03  0.25863109664E+03  0.12700000000E+03 0.  0.
<mgrwt>
<rscale>  0 0.44865511E+03</rscale>
<asrwt>0</asrwt>
<pdfrwt beam="1">  1        2 0.68915423E-01 0.44865511E+03</pdfrwt>
<pdfrwt beam="2">  1       -2 0.14902280E-01 0.44865511E+03</pdfrwt>
<totfact> 0.24560201E+03</totfact>
</mgrwt>
</event>
<event>
 4    1  0.4895160E-005  0.7977927E+03  0.7818608E-02  0.9563218E-01
         -2   -1    0    0    0  501 -0.00000000000E+00  0.00000000000E+00  0.10664236109E+03  0.10664236112E+03  0.25500000000E-02 0. -1.
          2   -1    0    0  501    0  0.00000000000E+00 -0.00000000000E+00 -0.14920740106E+04  0.14920740106E+04  0.25500000000E-02 0.  1.
    5000001    1    1    2    0    0 -0.19819259514E+03  0.26535190702E+03 -0.10583832244E+04  0.11162419043E+04  0.12700000000E+03 0.  0.
   -5000001    1    1    2    0    0  0.19819259514E+03 -0.26535190702E+03 -0.32704842517E+03  0.48247446744E+03  0.12700000000E+03 0.  0.
<mgrwt>
<rscale>  0 0.79779269E+03</rscale>
<asrwt>0</asrwt>
<pdfrwt beam="1">  1        2 0.21315342E+00 0.79779269E+03</pdfrwt>
<pdfrwt beam="2">  1       -2 0.15234624E-01 0.79779269E+03</pdfrwt>
<totfact> 0.50740532E+02</totfact>
</mgrwt>
</event>
<event>
 4    1  0.4895160E-005  0.4104185E+03  0.7818608E-02  0.1040231E+00
          2   -1    0    0  501    0  0.00000000000E+00  0.00000000000E+00  0.49194035044E+03  0.49194035045E+03  0.25500000000E-02 0.  1.
         -2   -1    0    0    0  501 -0.00000000000E+00 -0.00000000000E+00 -0.85601514181E+02  0.85601514219E+02  0.25500000000E-02 0. -1.
    5000001    1    1    2    0    0 -0.14784164239E+03 -0.32157185908E+02  0.12493855100E+03  0.23373035181E+03  0.12700000000E+03 0.  0.
   -5000001    1    1    2    0    0  0.14784164239E+03  0.32157185908E+02  0.28140028526E+03  0.34381151286E+03  0.12700000000E+03 0.  0.
<mgrwt>
<rscale>  0 0.41041851E+03</rscale>
<asrwt>0</asrwt>
<pdfrwt beam="1">  1        2 0.70277194E-01 0.41041851E+03</pdfrwt>
<pdfrwt beam="2">  1       -2 0.12228788E-01 0.41041851E+03</pdfrwt>
<totfact> 0.33274101E+03</totfact>
</mgrwt>
</event>
<event>
 4    1  0.4895160E-005  0.4252359E+03  0.7818608E-02  0.1035376E+00
         -2   -1    0    0    0  501 -0.00000000000E+00  0.00000000000E+00  0.98446364822E+02  0.98446364855E+02  0.25500000000E-02 0. -1.
          2   -1    0    0  501    0  0.00000000000E+00 -0.00000000000E+00 -0.45919816685E+03  0.45919816686E+03  0.25500000000E-02 0.  1.
    5000001    1    1    2    0    0  0.95222225178E+02 -0.64037394496E+02 -0.14969053247E+02  0.17181714879E+03  0.12700000000E+03 0.  0.
   -5000001    1    1    2    0    0 -0.95222225178E+02  0.64037394496E+02 -0.34578274879E+03  0.38582738293E+03  0.12700000000E+03 0.  0.
<mgrwt>
<rscale>  0 0.42523589E+03</rscale>
<asrwt>0</asrwt>
<pdfrwt beam="1">  1        2 0.65599737E-01 0.42523589E+03</pdfrwt>
<pdfrwt beam="2">  1       -2 0.14063767E-01 0.42523589E+03</pdfrwt>
<totfact> 0.28559041E+03</totfact>
</mgrwt>
</event>
<event>
 4    1  0.4895160E-005  0.4584343E+03  0.7818608E-02  0.1025236E+00
          2   -1    0    0  501    0  0.00000000000E+00  0.00000000000E+00  0.38299416818E+03  0.38299416819E+03  0.25500000000E-02 0.  1.
         -2   -1    0    0    0  501 -0.00000000000E+00 -0.00000000000E+00 -0.13718354122E+03  0.13718354125E+03  0.25500000000E-02 0. -1.
    5000001    1    1    2    0    0  0.95935632208E+02  0.15329655386E+03  0.19200014047E+03  0.29273970160E+03  0.12700000000E+03 0.  0.
   -5000001    1    1    2    0    0 -0.95935632208E+02 -0.15329655386E+03  0.53810486481E+02  0.22743800783E+03  0.12700000000E+03 0.  0.
<mgrwt>
<rscale>  0 0.45843428E+03</rscale>
<asrwt>0</asrwt>
<pdfrwt beam="1">  1        2 0.54713453E-01 0.45843428E+03</pdfrwt>
<pdfrwt beam="2">  1       -2 0.19597649E-01 0.45843428E+03</pdfrwt>
<totfact> 0.19928017E+03</totfact>
</mgrwt>
</event>
<event>
 4    1  0.4895160E-005  0.3129016E+03  0.7818608E-02  0.1078963E+00
         -2   -1    0    0    0  501 -0.00000000000E+00  0.00000000000E+00  0.20322815368E+02  0.20322815528E+02  0.25500000000E-02 0. -1.
          2   -1    0    0  501    0  0.00000000000E+00 -0.00000000000E+00 -0.12044024786E+04  0.12044024786E+04  0.25500000000E-02 0.  1.
    5000001    1    1    2    0    0  0.52245207964E+02 -0.71963475555E+02 -0.67410010667E+03  0.69169954271E+03  0.12700000000E+03 0.  0.
   -5000001    1    1    2    0    0 -0.52245207964E+02  0.71963475555E+02 -0.50997955658E+03  0.53302575144E+03  0.12700000000E+03 0.  0.
<mgrwt>
<rscale>  0 0.31290158E+03</rscale>
<asrwt>0</asrwt>
<pdfrwt beam="1">  1        2 0.17205745E+00 0.31290158E+03</pdfrwt>
<pdfrwt beam="2">  1       -2 0.29032601E-02 0.31290158E+03</pdfrwt>
<totfact> 0.99392234E+03</totfact>
</mgrwt>
</event>
<event>
 4    1  0.4895160E-005  0.3460875E+03  0.7818608E-02  0.1064232E+00
         -2   -1    0    0    0  501 -0.00000000000E+00  0.00000000000E+00  0.60809209954E+02  0.60809210007E+02  0.25500000000E-02 0. -1.
          2   -1    0    0  501    0  0.00000000000E+00 -0.00000000000E+00 -0.49242770695E+03  0.49242770696E+03  0.25500000000E-02 0.  1.
    5000001    1    1    2    0    0 -0.12936787753E+02 -0.10883291905E+03 -0.14792888096E+03  0.22366027490E+03  0.12700000000E+03 0.  0.
   -5000001    1    1    2    0    0  0.12936787753E+02  0.10883291905E+03 -0.28368961604E+03  0.32957664206E+03  0.12700000000E+03 0.  0.
<mgrwt>
<rscale>  0 0.34608750E+03</rscale>
<asrwt>0</asrwt>
<pdfrwt beam="1">  1        2 0.70346813E-01 0.34608750E+03</pdfrwt>
<pdfrwt beam="2">  1       -2 0.86870303E-02 0.34608750E+03</pdfrwt>
<totfact> 0.57369419E+03</totfact>
</mgrwt>
</event>
<event>
 4    1  0.4895160E-005  0.6119098E+03  0.7818608E-02  0.9881001E-01
          2   -1    0    0  501    0  0.00000000000E+00  0.00000000000E+00  0.23805337093E+03  0.23805337095E+03  0.25500000000E-02 0.  1.
         -2   -1    0    0    0  501 -0.00000000000E+00 -0.00000000000E+00 -0.39322437278E+03  0.39322437279E+03  0.25500000000E-02 0. -1.
    5000001    1    1    2    0    0  0.22442057071E+03 -0.77197271464E+02 -0.22763808429E+03  0.35252249389E+03  0.12700000000E+03 0.  0.
   -5000001    1    1    2    0    0 -0.22442057071E+03  0.77197271464E+02  0.72467082440E+02  0.27875524985E+03  0.12700000000E+03 0.  0.
<mgrwt>
<rscale>  0 0.61190976E+03</rscale>
<asrwt>0</asrwt>
<pdfrwt beam="1">  1        2 0.34007625E-01 0.61190976E+03</pdfrwt>
<pdfrwt beam="2">  1       -2 0.56174910E-01 0.61190976E+03</pdfrwt>
<totfact> 0.46346561E+02</totfact>
</mgrwt>
</event>
<event>
 4    1  0.4895160E-005  0.4479264E+03  0.7818608E-02  0.1028342E+00
         -2   -1    0    0    0  501 -0.00000000000E+00  0.00000000000E+00  0.15652573133E+02  0.15652573341E+02  0.25500000000E-02 0. -1.
          2   -1    0    0  501    0  0.00000000000E+00 -0.00000000000E+00 -0.32045545693E+04  0.32045545693E+04  0.25500000000E-02 0.  1.
    5000001    1    1    2    0    0 -0.47530121980E+02 -0.75879142277E+02 -0.43492967450E+03  0.46185449926E+03  0.12700000000E+03 0.  0.
   -5000001    1    1    2    0    0  0.47530121980E+02  0.75879142277E+02 -0.27539723216E+04  0.27583526433E+04  0.12700000000E+03 0.  0.
<mgrwt>
<rscale>  0 0.44792645E+03</rscale>
<asrwt>0</asrwt>
<pdfrwt beam="1">  1        2 0.45779309E+00 0.44792645E+03</pdfrwt>
<pdfrwt beam="2">  1       -2 0.22360839E-02 0.44792645E+03</pdfrwt>
<totfact> 0.13809337E+03</totfact>
</mgrwt>
</event>
<event>
 4    1  0.4895160E-005  0.2656302E+03  0.7818608E-02  0.1103807E+00
         -2   -1    0    0    0  501 -0.00000000000E+00  0.00000000000E+00  0.14116599805E+03  0.14116599807E+03  0.25500000000E-02 0. -1.
          2   -1    0    0  501    0  0.00000000000E+00 -0.00000000000E+00 -0.12495823854E+03  0.12495823856E+03  0.25500000000E-02 0.  1.
    5000001    1    1    2    0    0  0.25395366701E+02 -0.27183179701E+02  0.19394468385E+02  0.13374974883E+03  0.12700000000E+03 0.  0.
   -5000001    1    1    2    0    0 -0.25395366701E+02  0.27183179701E+02 -0.31867088723E+01  0.13237448781E+03  0.12700000000E+03 0.  0.
<mgrwt>
<rscale>  0 0.26563023E+03</rscale>
<asrwt>0</asrwt>
<pdfrwt beam="1">  1        2 0.17851177E-01 0.26563023E+03</pdfrwt>
<pdfrwt beam="2">  1       -2 0.20166571E-01 0.26563023E+03</pdfrwt>
<totfact> 0.65033204E+03</totfact>
</mgrwt>
</event>
<event>
 4    1  0.4895160E-005  0.3557360E+03  0.7818608E-02  0.1060285E+00
          2   -1    0    0  501    0  0.00000000000E+00  0.00000000000E+00  0.82177416523E+02  0.82177416563E+02  0.25500000000E-02 0. -1.
         -2   -1    0    0    0  501 -0.00000000000E+00 -0.00000000000E+00 -0.38498436114E+03  0.38498436115E+03  0.25500000000E-02 0.  1.
    5000001    1    1    2    0    0  0.62008401784E+02 -0.85036295915E+02 -0.63979622852E+02  0.17691411943E+03  0.12700000000E+03 0.  0.
   -5000001    1    1    2    0    0 -0.62008401784E+02  0.85036295915E+02 -0.23882732177E+03  0.29024765828E+03  0.12700000000E+03 0.  0.
<mgrwt>
<rscale>  0 0.35573597E+03</rscale>
<asrwt>0</asrwt>
<pdfrwt beam="1">  1        2 0.11739631E-01 0.35573597E+03</pdfrwt>
<pdfrwt beam="2">  1       -2 0.54997765E-01 0.35573597E+03</pdfrwt>
<totfact> 0.16719110E+03</totfact>
</mgrwt>
</event>
<event>
 4    1  0.4895160E-005  0.3022499E+03  0.7818608E-02  0.1084121E+00
          2   -1    0    0  501    0  0.00000000000E+00  0.00000000000E+00  0.60491952048E+03  0.60491952048E+03  0.25500000000E-02 0.  1.
         -2   -1    0    0    0  501 -0.00000000000E+00 -0.00000000000E+00 -0.37755011668E+02  0.37755011754E+02  0.25500000000E-02 0. -1.
    5000001    1    1    2    0    0 -0.15745720567E+02 -0.80381762780E+02  0.28195167127E+03  0.31989826575E+03  0.12700000000E+03 0.  0.
   -5000001    1    1    2    0    0  0.15745720567E+02  0.80381762780E+02  0.28521283754E+03  0.32277626648E+03  0.12700000000E+03 0.  0.
<mgrwt>
<rscale>  0 0.30224985E+03</rscale>
<asrwt>0</asrwt>
<pdfrwt beam="1">  1        2 0.86417071E-01 0.30224985E+03</pdfrwt>
<pdfrwt beam="2">  1       -2 0.53935733E-02 0.30224985E+03</pdfrwt>
<totfact> 0.94962470E+03</totfact>
</mgrwt>
</event>
<event>
 4    1  0.4895160E-005  0.2691301E+03  0.7818608E-02  0.1101778E+00
         -2   -1    0    0    0  501 -0.00000000000E+00  0.00000000000E+00  0.16297397424E+03  0.16297397426E+03  0.25500000000E-02 0. -1.
          2   -1    0    0  501    0  0.00000000000E+00 -0.00000000000E+00 -0.11110827912E+03  0.11110827915E+03  0.25500000000E-02 0.  1.
    5000001    1    1    2    0    0 -0.33613304382E+02  0.81707951181E+01  0.54414245549E+02  0.14243077702E+03  0.12700000000E+03 0.  0.
   -5000001    1    1    2    0    0  0.33613304382E+02 -0.81707951181E+01 -0.25485504279E+01  0.13165147638E+03  0.12700000000E+03 0.  0.
<mgrwt>
<rscale>  0 0.26913014E+03</rscale>
<asrwt>0</asrwt>
<pdfrwt beam="1">  1        2 0.15872611E-01 0.26913014E+03</pdfrwt>
<pdfrwt beam="2">  1       -2 0.23281996E-01 0.26913014E+03</pdfrwt>
<totfact> 0.58233070E+03</totfact>
</mgrwt>
</event>
<event>
 4    1  0.4895160E-005  0.2801956E+03  0.7818608E-02  0.1095582E+00
          2   -1    0    0  501    0  0.00000000000E+00  0.00000000000E+00  0.15871218131E+04  0.15871218131E+04  0.25500000000E-02 0.  1.
         -2   -1    0    0    0  501 -0.00000000000E+00 -0.00000000000E+00 -0.12366656270E+02  0.12366656533E+02  0.25500000000E-02 0. -1.
    5000001    1    1    2    0    0 -0.19478780193E+02 -0.96614625784E+00  0.11061349602E+04  0.11135725870E+04  0.12700000000E+03 0.  0.
   -5000001    1    1    2    0    0  0.19478780193E+02  0.96614625784E+00  0.46862019656E+03  0.48591588258E+03  0.12700000000E+03 0.  0.
<mgrwt>
<rscale>  0 0.28019558E+03</rscale>
<asrwt>0</asrwt>
<pdfrwt beam="1">  1        2 0.22673194E+00 0.28019558E+03</pdfrwt>
<pdfrwt beam="2">  1       -2 0.17666632E-02 0.28019558E+03</pdfrwt>
<totfact> 0.13089400E+04</totfact>
</mgrwt>
</event>
<event>
 4    1  0.4895160E-005  0.2859687E+03  0.7818608E-02  0.1092473E+00
          2   -1    0    0  501    0  0.00000000000E+00  0.00000000000E+00  0.57795398333E+03  0.57795398334E+03  0.25500000000E-02 0.  1.
         -2   -1    0    0    0  501 -0.00000000000E+00 -0.00000000000E+00 -0.35373955493E+02  0.35373955585E+02  0.25500000000E-02 0. -1.
    5000001    1    1    2    0    0  0.14077858912E+02  0.55774159167E+02  0.20324481273E+03  0.24646784140E+03  0.12700000000E+03 0.  0.
   -5000001    1    1    2    0    0 -0.14077858912E+02 -0.55774159167E+02  0.33933521511E+03  0.36686009752E+03  0.12700000000E+03 0.  0.
<mgrwt>
<rscale>  0 0.28596866E+03</rscale>
<asrwt>0</asrwt>
<pdfrwt beam="1">  1        2 0.82564848E-01 0.28596866E+03</pdfrwt>
<pdfrwt beam="2">  1       -2 0.50534227E-02 0.28596866E+03</pdfrwt>
<totfact> 0.11026290E+04</totfact>
</mgrwt>
</event>
<event>
 4    1  0.4895160E-005  0.3332083E+03  0.7818608E-02  0.1069726E+00
          2   -1    0    0  501    0  0.00000000000E+00  0.00000000000E+00  0.10314001607E+04  0.10314001607E+04  0.25500000000E-02 0.  1.
         -2   -1    0    0    0  501 -0.00000000000E+00 -0.00000000000E+00 -0.26911900605E+02  0.26911900726E+02  0.25500000000E-02 0. -1.
    5000001    1    1    2    0    0  0.76139757641E+02 -0.41381212682E+02  0.29842007412E+03  0.33569809069E+03  0.12700000000E+03 0.  0.
   -5000001    1    1    2    0    0 -0.76139757641E+02  0.41381212682E+02  0.70606818597E+03  0.72261397073E+03  0.12700000000E+03 0.  0.
<mgrwt>
<rscale>  0 0.33320828E+03</rscale>
<asrwt>0</asrwt>
<pdfrwt beam="1">  1        2 0.14734290E+00 0.33320828E+03</pdfrwt>
<pdfrwt beam="2">  1       -2 0.38445568E-02 0.33320828E+03</pdfrwt>
<totfact> 0.81757951E+03</totfact>
</mgrwt>
</event>
<event>
 4    1  0.4895160E-005  0.3637168E+03  0.7818608E-02  0.1057122E+00
          2   -1    0    0  501    0  0.00000000000E+00  0.00000000000E+00  0.21723554388E+04  0.21723554388E+04  0.25500000000E-02 0.  1.
         -2   -1    0    0    0  501 -0.00000000000E+00 -0.00000000000E+00 -0.15224251645E+02  0.15224251859E+02  0.25500000000E-02 0. -1.
    5000001    1    1    2    0    0  0.78929369312E+02  0.91275365048E+02  0.78499521967E+03  0.80430562134E+03  0.12700000000E+03 0.  0.
   -5000001    1    1    2    0    0 -0.78929369312E+02 -0.91275365048E+02  0.13721359675E+04  0.13832740693E+04  0.12700000000E+03 0.  0.
<mgrwt>
<rscale>  0 0.36371685E+03</rscale>
<asrwt>0</asrwt>
<pdfrwt beam="1">  1        2 0.31033677E+00 0.36371685E+03</pdfrwt>
<pdfrwt beam="2">  1       -2 0.21748911E-02 0.36371685E+03</pdfrwt>
<totfact> 0.49674857E+03</totfact>
</mgrwt>
</event>
<event>
 4    1  0.4895160E-005  0.3577291E+03  0.7818608E-02  0.1059487E+00
         -2   -1    0    0    0  501 -0.00000000000E+00  0.00000000000E+00  0.29154289026E+02  0.29154289137E+02  0.25500000000E-02 0. -1.
          2   -1    0    0  501    0  0.00000000000E+00 -0.00000000000E+00 -0.10973525656E+04  0.10973525656E+04  0.25500000000E-02 0.  1.
    5000001    1    1    2    0    0 -0.71750020118E+02 -0.10321469260E+03 -0.55893389701E+03  0.58680272612E+03  0.12700000000E+03 0.  0.
   -5000001    1    1    2    0    0  0.71750020118E+02  0.10321469260E+03 -0.50926437957E+03  0.53970412862E+03  0.12700000000E+03 0.  0.
<mgrwt>
<rscale>  0 0.35772914E+03</rscale>
<asrwt>0</asrwt>
<pdfrwt beam="1">  1        2 0.15676463E+00 0.35772914E+03</pdfrwt>
<pdfrwt beam="2">  1       -2 0.41648991E-02 0.35772914E+03</pdfrwt>
<totfact> 0.66440439E+03</totfact>
</mgrwt>
</event>
<event>
 4    1  0.4895160E-005  0.4794646E+03  0.7818608E-02  0.1019282E+00
         -2   -1    0    0    0  501 -0.00000000000E+00  0.00000000000E+00  0.10063333670E+03  0.10063333674E+03  0.25500000000E-02 0. -1.
          2   -1    0    0  501    0  0.00000000000E+00 -0.00000000000E+00 -0.57109883063E+03  0.57109883064E+03  0.25500000000E-02 0.  1.
    5000001    1    1    2    0    0  0.73323845100E+02  0.16502467193E+03 -0.36615775506E+03  0.42756289618E+03  0.12700000000E+03 0.  0.
   -5000001    1    1    2    0    0 -0.73323845100E+02 -0.16502467193E+03 -0.10430773887E+03  0.24416927119E+03  0.12700000000E+03 0.  0.
<mgrwt>
<rscale>  0 0.47946462E+03</rscale>
<asrwt>0</asrwt>
<pdfrwt beam="1">  1        2 0.81585546E-01 0.47946462E+03</pdfrwt>
<pdfrwt beam="2">  1       -2 0.14376191E-01 0.47946462E+03</pdfrwt>
<totfact> 0.21536573E+03</totfact>
</mgrwt>
</event>
<event>
 4    1  0.4895160E-005  0.3896044E+03  0.7818608E-02  0.1047440E+00
          2   -1    0    0  501    0  0.00000000000E+00  0.00000000000E+00  0.52828675292E+03  0.52828675293E+03  0.25500000000E-02 0.  1.
         -2   -1    0    0    0  501 -0.00000000000E+00 -0.00000000000E+00 -0.71832004236E+02  0.71832004281E+02  0.25500000000E-02 0. -1.
    5000001    1    1    2    0    0 -0.35189225810E+02  0.10783744766E+03  0.37396312488E+03  0.41090706431E+03  0.12700000000E+03 0.  0.
   -5000001    1    1    2    0    0  0.35189225810E+02 -0.10783744766E+03  0.82491623801E+02  0.18921169289E+03  0.12700000000E+03 0.  0.
<mgrwt>
<rscale>  0 0.38960440E+03</rscale>
<asrwt>0</asrwt>
<pdfrwt beam="1">  1        2 0.75469536E-01 0.38960440E+03</pdfrwt>
<pdfrwt beam="2">  1       -2 0.10261715E-01 0.38960440E+03</pdfrwt>
<totfact> 0.40763617E+03</totfact>
</mgrwt>
</event>
<event>
 4    1  0.4895160E-005  0.2833084E+03  0.7818608E-02  0.1093896E+00
         -2   -1    0    0    0  501 -0.00000000000E+00  0.00000000000E+00  0.13919675443E+02  0.13919675676E+02  0.25500000000E-02 0. -1.
          2   -1    0    0  501    0  0.00000000000E+00 -0.00000000000E+00 -0.14415504281E+04  0.14415504281E+04  0.25500000000E-02 0.  1.
    5000001    1    1    2    0    0 -0.20882756101E+02  0.54659180541E+02 -0.83019758914E+03  0.84189117619E+03  0.12700000000E+03 0.  0.
   -5000001    1    1    2    0    0  0.20882756101E+02 -0.54659180541E+02 -0.59743316351E+03  0.61357892759E+03  0.12700000000E+03 0.  0.
<mgrwt>
<rscale>  0 0.28330841E+03</rscale>
<asrwt>0</asrwt>
<pdfrwt beam="1">  1        2 0.20593568E+00 0.28330841E+03</pdfrwt>
<pdfrwt beam="2">  1       -2 0.19885260E-02 0.28330841E+03</pdfrwt>
<totfact> 0.13031224E+04</totfact>
</mgrwt>
</event>
<event>
 4    1  0.4895160E-005  0.4405065E+03  0.7818608E-02  0.1030592E+00
          2   -1    0    0  501    0  0.00000000000E+00  0.00000000000E+00  0.62297479959E+03  0.62297479960E+03  0.25500000000E-02 0. -1.
         -2   -1    0    0    0  501 -0.00000000000E+00 -0.00000000000E+00 -0.77870733654E+02  0.77870733696E+02  0.25500000000E-02 0.  1.
    5000001    1    1    2    0    0  0.91807120164E+02  0.63093471378E+01  0.26516738929E+02  0.15906128573E+03  0.12700000000E+03 0.  0.
   -5000001    1    1    2    0    0 -0.91807120164E+02 -0.63093471378E+01  0.51858732701E+03  0.54178424756E+03  0.12700000000E+03 0.  0.
<mgrwt>
<rscale>  0 0.44050655E+03</rscale>
<asrwt>0</asrwt>
<pdfrwt beam="1">  1        2 0.88996394E-01 0.44050655E+03</pdfrwt>
<pdfrwt beam="2">  1       -2 0.11124391E-01 0.44050655E+03</pdfrwt>
<totfact> 0.29652108E+03</totfact>
</mgrwt>
</event>
<event>
 4    1  0.4895160E-005  0.3440373E+03  0.7818608E-02  0.1065089E+00
          2   -1    0    0  501    0  0.00000000000E+00  0.00000000000E+00  0.21808007902E+04  0.21808007902E+04  0.25500000000E-02 0.  1.
         -2   -1    0    0    0  501 -0.00000000000E+00 -0.00000000000E+00 -0.13568603268E+02  0.13568603508E+02  0.25500000000E-02 0. -1.
    5000001    1    1    2    0    0 -0.10976112832E+02  0.11090732055E+03  0.87787182024E+03  0.89398481060E+03  0.12700000000E+03 0.  0.
   -5000001    1    1    2    0    0  0.10976112832E+02 -0.11090732055E+03  0.12893603666E+04  0.13003845831E+04  0.12700000000E+03 0.  0.
<mgrwt>
<rscale>  0 0.34403733E+03</rscale>
<asrwt>0</asrwt>
<pdfrwt beam="1">  1        2 0.31154289E+00 0.34403733E+03</pdfrwt>
<pdfrwt beam="2">  1       -2 0.19383724E-02 0.34403733E+03</pdfrwt>
<totfact> 0.58373324E+03</totfact>
</mgrwt>
</event>
<event>
 4    1  0.4895160E-005  0.3391342E+03  0.7818608E-02  0.1067165E+00
          2   -1    0    0  501    0  0.00000000000E+00  0.00000000000E+00  0.11159364674E+03  0.11159364677E+03  0.25500000000E-02 0.  1.
         -2   -1    0    0    0  501 -0.00000000000E+00 -0.00000000000E+00 -0.25765798030E+03  0.25765798031E+03  0.25500000000E-02 0. -1.
    5000001    1    1    2    0    0  0.96035253975E+02  0.19606483845E+02 -0.13283542225E+03  0.20828210105E+03  0.12700000000E+03 0.  0.
   -5000001    1    1    2    0    0 -0.96035253975E+02 -0.19606483845E+02 -0.13228911307E+02  0.16096952603E+03  0.12700000000E+03 0.  0.
<mgrwt>
<rscale>  0 0.33913415E+03</rscale>
<asrwt>0</asrwt>
<pdfrwt beam="1">  1        2 0.15941950E-01 0.33913415E+03</pdfrwt>
<pdfrwt beam="2">  1       -2 0.36808283E-01 0.33913415E+03</pdfrwt>
<totfact> 0.25413484E+03</totfact>
</mgrwt>
</event>
<event>
 4    1  0.4895160E-005  0.5006194E+03  0.7818608E-02  0.1013617E+00
          2   -1    0    0  501    0  0.00000000000E+00  0.00000000000E+00  0.65221577174E+02  0.65221577224E+02  0.25500000000E-02 0.  1.
         -2   -1    0    0    0  501 -0.00000000000E+00 -0.00000000000E+00 -0.96064756568E+03  0.96064756568E+03  0.25500000000E-02 0. -1.
    5000001    1    1    2    0    0  0.46289717142E+02 -0.17633618783E+03 -0.68393835109E+03  0.71912297776E+03  0.12700000000E+03 0.  0.
   -5000001    1    1    2    0    0 -0.46289717142E+02  0.17633618783E+03 -0.21148763742E+03  0.30674616515E+03  0.12700000000E+03 0.  0.
<mgrwt>
<rscale>  0 0.50061941E+03</rscale>
<asrwt>0</asrwt>
<pdfrwt beam="1">  1        2 0.93173687E-02 0.50061941E+03</pdfrwt>
<pdfrwt beam="2">  1       -2 0.13723536E+00 0.50061941E+03</pdfrwt>
<totfact> 0.27925023E+02</totfact>
</mgrwt>
</event>
<event>
 4    1  0.4895160E-005  0.3190363E+03  0.7818608E-02  0.1076094E+00
         -2   -1    0    0    0  501 -0.00000000000E+00  0.00000000000E+00  0.35265499500E+02  0.35265499593E+02  0.25500000000E-02 0. -1.
          2   -1    0    0  501    0  0.00000000000E+00 -0.00000000000E+00 -0.72155612060E+03  0.72155612061E+03  0.25500000000E-02 0.  1.
    5000001    1    1    2    0    0  0.66049743415E+02  0.43134593192E+01 -0.50980669447E+03  0.52954040475E+03  0.12700000000E+03 0.  0.
   -5000001    1    1    2    0    0 -0.66049743415E+02 -0.43134593192E+01 -0.17648392663E+03  0.22728121545E+03  0.12700000000E+03 0.  0.
<mgrwt>
<rscale>  0 0.31903628E+03</rscale>
<asrwt>0</asrwt>
<pdfrwt beam="1">  1        2 0.10307944E+00 0.31903628E+03</pdfrwt>
<pdfrwt beam="2">  1       -2 0.50379290E-02 0.31903628E+03</pdfrwt>
<totfact> 0.85828594E+03</totfact>
</mgrwt>
</event>
<event>
 4    1  0.4895160E-005  0.3198050E+03  0.7818608E-02  0.1075739E+00
          2   -1    0    0  501    0  0.00000000000E+00  0.00000000000E+00  0.14259332848E+03  0.14259332850E+03  0.25500000000E-02 0.  1.
         -2   -1    0    0    0  501 -0.00000000000E+00 -0.00000000000E+00 -0.17931276935E+03  0.17931276937E+03  0.25500000000E-02 0. -1.
    5000001    1    1    2    0    0 -0.59744897647E+02  0.70681580282E+02  0.11405936364E+02  0.15755771632E+03  0.12700000000E+03 0.  0.
   -5000001    1    1    2    0    0  0.59744897647E+02 -0.70681580282E+02 -0.48125377240E+02  0.16434838156E+03  0.12700000000E+03 0.  0.
<mgrwt>
<rscale>  0 0.31980497E+03</rscale>
<asrwt>0</asrwt>
<pdfrwt beam="1">  1        2 0.20370475E-01 0.31980497E+03</pdfrwt>
<pdfrwt beam="2">  1       -2 0.25616110E-01 0.31980497E+03</pdfrwt>
<totfact> 0.37035225E+03</totfact>
</mgrwt>
</event>
<event>
 4    1  0.4895160E-005  0.3848265E+03  0.7818608E-02  0.1049164E+00
         -2   -1    0    0    0  501 -0.00000000000E+00  0.00000000000E+00  0.32440655948E+02  0.32440656049E+02  0.25500000000E-02 0. -1.
          2   -1    0    0  501    0  0.00000000000E+00 -0.00000000000E+00 -0.11412488443E+04  0.11412488443E+04  0.25500000000E-02 0.  1.
    5000001    1    1    2    0    0  0.92719530625E+02 -0.10984922036E+03 -0.50813987691E+03  0.54313800924E+03  0.12700000000E+03 0.  0.
   -5000001    1    1    2    0    0 -0.92719530625E+02  0.10984922036E+03 -0.60066831143E+03  0.63055149110E+03  0.12700000000E+03 0.  0.
<mgrwt>
<rscale>  0 0.38482651E+03</rscale>
<asrwt>0</asrwt>
<pdfrwt beam="1">  1        2 0.16303552E+00 0.38482651E+03</pdfrwt>
<pdfrwt beam="2">  1       -2 0.46343801E-02 0.38482651E+03</pdfrwt>
<totfact> 0.53382475E+03</totfact>
</mgrwt>
</event>
<event>
 4    1  0.4895160E-005  0.4393198E+03  0.7818608E-02  0.1030956E+00
          2   -1    0    0  501    0  0.00000000000E+00  0.00000000000E+00  0.15872053686E+04  0.15872053686E+04  0.25500000000E-02 0.  1.
         -2   -1    0    0    0  501 -0.00000000000E+00 -0.00000000000E+00 -0.30399637749E+02  0.30399637856E+02  0.25500000000E-02 0. -1.
    5000001    1    1    2    0    0 -0.11641630534E+03  0.12147640841E+03  0.10057446363E+04  0.10275994100E+04  0.12700000000E+03 0.  0.
   -5000001    1    1    2    0    0  0.11641630534E+03 -0.12147640841E+03  0.55106109455E+03  0.59000559647E+03  0.12700000000E+03 0.  0.
<mgrwt>
<rscale>  0 0.43931978E+03</rscale>
<asrwt>0</asrwt>
<pdfrwt beam="1">  1        2 0.22674366E+00 0.43931978E+03</pdfrwt>
<pdfrwt beam="2">  1       -2 0.43428047E-02 0.43931978E+03</pdfrwt>
<totfact> 0.34230407E+03</totfact>
</mgrwt>
</event>
<event>
 4    1  0.4895160E-005  0.5211368E+03  0.7818608E-02  0.1008405E+00
          2   -1    0    0  501    0  0.00000000000E+00  0.00000000000E+00  0.45850895275E+03  0.45850895276E+03  0.25500000000E-02 0.  1.
         -2   -1    0    0    0  501 -0.00000000000E+00 -0.00000000000E+00 -0.14807977578E+03  0.14807977581E+03  0.25500000000E-02 0. -1.
    5000001    1    1    2    0    0  0.19864323952E+03 -0.68882029106E+02  0.53988947295E+02  0.25149090833E+03  0.12700000000E+03 0.  0.
   -5000001    1    1    2    0    0 -0.19864323952E+03  0.68882029106E+02  0.25644022967E+03  0.35509782024E+03  0.12700000000E+03 0.  0.
<mgrwt>
<rscale>  0 0.52113685E+03</rscale>
<asrwt>0</asrwt>
<pdfrwt beam="1">  1        2 0.65501280E-01 0.52113685E+03</pdfrwt>
<pdfrwt beam="2">  1       -2 0.21154253E-01 0.52113685E+03</pdfrwt>
<totfact> 0.14302673E+03</totfact>
</mgrwt>
</event>
<event>
 4    1  0.4895160E-005  0.3598186E+03  0.7818608E-02  0.1058656E+00
          2   -1    0    0  501    0  0.00000000000E+00  0.00000000000E+00  0.40565597084E+03  0.40565597085E+03  0.25500000000E-02 0.  1.
         -2   -1    0    0    0  501 -0.00000000000E+00 -0.00000000000E+00 -0.79790173015E+02  0.79790173056E+02  0.25500000000E-02 0. -1.
    5000001    1    1    2    0    0  0.65177879508E+02 -0.10155466315E+03  0.21817944270E+03  0.27980846092E+03  0.12700000000E+03 0.  0.
   -5000001    1    1    2    0    0 -0.65177879508E+02  0.10155466315E+03  0.10768635513E+03  0.20563768299E+03  0.12700000000E+03 0.  0.
<mgrwt>
<rscale>  0 0.35981862E+03</rscale>
<asrwt>0</asrwt>
<pdfrwt beam="1">  1        2 0.57950854E-01 0.35981862E+03</pdfrwt>
<pdfrwt beam="2">  1       -2 0.11398596E-01 0.35981862E+03</pdfrwt>
<totfact> 0.46043825E+03</totfact>
</mgrwt>
</event>
<event>
 4    1  0.4895160E-005  0.4884897E+03  0.7818608E-02  0.1016828E+00
          2   -1    0    0  501    0  0.00000000000E+00  0.00000000000E+00  0.21483686447E+04  0.21483686447E+04  0.25500000000E-02 0.  1.
         -2   -1    0    0    0  501 -0.00000000000E+00 -0.00000000000E+00 -0.27767834572E+02  0.27767834689E+02  0.25500000000E-02 0. -1.
    5000001    1    1    2    0    0 -0.19125847775E+03  0.48379038187E+02  0.13626452199E+04  0.13826971223E+04  0.12700000000E+03 0.  0.
   -5000001    1    1    2    0    0  0.19125847775E+03 -0.48379038187E+02  0.75795559017E+03  0.79343935705E+03  0.12700000000E+03 0.  0.
<mgrwt>
<rscale>  0 0.48848969E+03</rscale>
<asrwt>0</asrwt>
<pdfrwt beam="1">  1        2 0.30690980E+00 0.48848969E+03</pdfrwt>
<pdfrwt beam="2">  1       -2 0.39668336E-02 0.48848969E+03</pdfrwt>
<totfact> 0.20561638E+03</totfact>
</mgrwt>
</event>
<event>
 4    1  0.4895160E-005  0.2898331E+03  0.7818608E-02  0.1090436E+00
          2   -1    0    0  501    0  0.00000000000E+00  0.00000000000E+00  0.20915607376E+04  0.20915607377E+04  0.25500000000E-02 0.  1.
         -2   -1    0    0    0  501 -0.00000000000E+00 -0.00000000000E+00 -0.10040732852E+02  0.10040733176E+02  0.25500000000E-02 0. -1.
    5000001    1    1    2    0    0  0.57391320564E+02 -0.19339787249E+02  0.12923641574E+04  0.13000007332E+04  0.12700000000E+03 0.  0.
   -5000001    1    1    2    0    0 -0.57391320564E+02  0.19339787249E+02  0.78915584737E+03  0.80160073758E+03  0.12700000000E+03 0.  0.
<mgrwt>
<rscale>  0 0.28983308E+03</rscale>
<asrwt>0</asrwt>
<pdfrwt beam="1">  1        2 0.29879428E+00 0.28983308E+03</pdfrwt>
<pdfrwt beam="2">  1       -2 0.14343909E-02 0.28983308E+03</pdfrwt>
<totfact> 0.10048079E+04</totfact>
</mgrwt>
</event>
<event>
 4    1  0.4895160E-005  0.6515469E+03  0.7818608E-02  0.9803881E-01
         -2   -1    0    0    0  501 -0.00000000000E+00  0.00000000000E+00  0.16764913524E+03  0.16764913526E+03  0.25500000000E-02 0. -1.
          2   -1    0    0  501    0  0.00000000000E+00 -0.00000000000E+00 -0.63303848703E+03  0.63303848703E+03  0.25500000000E-02 0.  1.
    5000001    1    1    2    0    0  0.16791128787E+03 -0.23858899215E+03 -0.31854604212E+03  0.45024381031E+03  0.12700000000E+03 0.  0.
   -5000001    1    1    2    0    0 -0.16791128787E+03  0.23858899215E+03 -0.14684330966E+03  0.35044381199E+03  0.12700000000E+03 0.  0.
<mgrwt>
<rscale>  0 0.65154694E+03</rscale>
<asrwt>0</asrwt>
<pdfrwt beam="1">  1        2 0.90434068E-01 0.65154694E+03</pdfrwt>
<pdfrwt beam="2">  1       -2 0.23949877E-01 0.65154694E+03</pdfrwt>
<totfact> 0.79072494E+02</totfact>
</mgrwt>
</event>
<event>
 4    1  0.4895160E-005  0.3649113E+03  0.7818608E-02  0.1056656E+00
         -2   -1    0    0    0  501 -0.00000000000E+00  0.00000000000E+00  0.46396532663E+02  0.46396532733E+02  0.25500000000E-02 0. -1.
          2   -1    0    0  501    0  0.00000000000E+00 -0.00000000000E+00 -0.71751208912E+03  0.71751208913E+03  0.25500000000E-02 0.  1.
    5000001    1    1    2    0    0 -0.91407159927E+02 -0.42839817986E+02 -0.16077940357E+03  0.22840651371E+03  0.12700000000E+03 0.  0.
   -5000001    1    1    2    0    0  0.91407159927E+02  0.42839817986E+02 -0.51033615289E+03  0.53550210815E+03  0.12700000000E+03 0.  0.
<mgrwt>
<rscale>  0 0.36491135E+03</rscale>
<asrwt>0</asrwt>
<pdfrwt beam="1">  1        2 0.10250172E+00 0.36491135E+03</pdfrwt>
<pdfrwt beam="2">  1       -2 0.66280765E-02 0.36491135E+03</pdfrwt>
<totfact> 0.56833610E+03</totfact>
</mgrwt>
</event>
<event>
 4    1  0.4895160E-005  0.3058926E+03  0.7818608E-02  0.1082331E+00
         -2   -1    0    0    0  501 -0.00000000000E+00  0.00000000000E+00  0.21436138052E+02  0.21436138204E+02  0.25500000000E-02 0. -1.
          2   -1    0    0  501    0  0.00000000000E+00 -0.00000000000E+00 -0.10912682025E+04  0.10912682025E+04  0.25500000000E-02 0.  1.
    5000001    1    1    2    0    0 -0.65095175727E+02  0.54935754093E+02 -0.54536853969E+03  0.56640194479E+03  0.12700000000E+03 0.  0.
   -5000001    1    1    2    0    0  0.65095175727E+02 -0.54935754093E+02 -0.52446352476E+03  0.54630239592E+03  0.12700000000E+03 0.  0.
<mgrwt>
<rscale>  0 0.30589263E+03</rscale>
<asrwt>0</asrwt>
<pdfrwt beam="1">  1        2 0.15589542E+00 0.30589263E+03</pdfrwt>
<pdfrwt beam="2">  1       -2 0.30623061E-02 0.30589263E+03</pdfrwt>
<totfact> 0.10602203E+04</totfact>
</mgrwt>
</event>
<event>
 4    1  0.4895160E-005  0.4380624E+03  0.7818608E-02  0.1031343E+00
          2   -1    0    0  501    0  0.00000000000E+00  0.00000000000E+00  0.19570327118E+04  0.19570327118E+04  0.25500000000E-02 0.  1.
         -2   -1    0    0    0  501 -0.00000000000E+00 -0.00000000000E+00 -0.24513979777E+02  0.24513979910E+02  0.25500000000E-02 0. -1.
    5000001    1    1    2    0    0  0.15299489253E+03  0.88216397335E+02  0.10821238289E+04  0.11037710591E+04  0.12700000000E+03 0.  0.
   -5000001    1    1    2    0    0 -0.15299489253E+03 -0.88216397335E+02  0.85039490313E+03  0.87777563259E+03  0.12700000000E+03 0.  0.
<mgrwt>
<rscale>  0 0.43806237E+03</rscale>
<asrwt>0</asrwt>
<pdfrwt beam="1">  1        2 0.27957610E+00 0.43806237E+03</pdfrwt>
<pdfrwt beam="2">  1       -2 0.35019971E-02 0.43806237E+03</pdfrwt>
<totfact> 0.31010486E+03</totfact>
</mgrwt>
</event>
<event>
 4    1  0.4895160E-005  0.3685605E+03  0.7818608E-02  0.1055245E+00
         -2   -1    0    0    0  501 -0.00000000000E+00  0.00000000000E+00  0.14314506787E+03  0.14314506789E+03  0.25500000000E-02 0. -1.
          2   -1    0    0  501    0  0.00000000000E+00 -0.00000000000E+00 -0.23723627771E+03  0.23723627773E+03  0.25500000000E-02 0.  1.
    5000001    1    1    2    0    0 -0.99014881624E+02 -0.78988867979E+01 -0.13914830964E+03  0.21297321726E+03  0.12700000000E+03 0.  0.
   -5000001    1    1    2    0    0  0.99014881624E+02  0.78988867979E+01  0.45057099796E+02  0.16740812835E+03  0.12700000000E+03 0.  0.
<mgrwt>
<rscale>  0 0.36856046E+03</rscale>
<asrwt>0</asrwt>
<pdfrwt beam="1">  1        2 0.33890897E-01 0.36856046E+03</pdfrwt>
<pdfrwt beam="2">  1       -2 0.20449295E-01 0.36856046E+03</pdfrwt>
<totfact> 0.31167701E+03</totfact>
</mgrwt>
</event>
<event>
 4    1  0.4895160E-005  0.4326060E+03  0.7818608E-02  0.1033040E+00
         -2   -1    0    0    0  501 -0.00000000000E+00  0.00000000000E+00  0.86425788664E+02  0.86425788702E+02  0.25500000000E-02 0. -1.
          2   -1    0    0  501    0  0.00000000000E+00 -0.00000000000E+00 -0.54135446394E+03  0.54135446395E+03  0.25500000000E-02 0.  1.
    5000001    1    1    2    0    0 -0.33122659472E+02  0.13260094607E+03 -0.38628420378E+03  0.42898089416E+03  0.12700000000E+03 0.  0.
   -5000001    1    1    2    0    0  0.33122659472E+02 -0.13260094607E+03 -0.68644471503E+02  0.19879935849E+03  0.12700000000E+03 0.  0.
<mgrwt>
<rscale>  0 0.43260599E+03</rscale>
<asrwt>0</asrwt>
<pdfrwt beam="1">  1        2 0.77336350E-01 0.43260599E+03</pdfrwt>
<pdfrwt beam="2">  1       -2 0.12346542E-01 0.43260599E+03</pdfrwt>
<totfact> 0.29420001E+03</totfact>
</mgrwt>
</event>
<event>
 4    1  0.4895160E-005  0.3359891E+03  0.7818608E-02  0.1068517E+00
          2   -1    0    0  501    0  0.00000000000E+00  0.00000000000E+00  0.26988979341E+04  0.26988979341E+04  0.25500000000E-02 0.  1.
         -2   -1    0    0    0  501 -0.00000000000E+00 -0.00000000000E+00 -0.10456923328E+02  0.10456923639E+02  0.25500000000E-02 0. -1.
    5000001    1    1    2    0    0  0.91477540697E+02  0.34852179363E+02  0.94019553041E+03  0.95377117290E+03  0.12700000000E+03 0.  0.
   -5000001    1    1    2    0    0 -0.91477540697E+02 -0.34852179363E+02  0.17482454804E+04  0.17555836849E+04  0.12700000000E+03 0.  0.
<mgrwt>
<rscale>  0 0.33598910E+03</rscale>
<asrwt>0</asrwt>
<pdfrwt beam="1">  1        2 0.38555761E+00 0.33598910E+03</pdfrwt>
<pdfrwt beam="2">  1       -2 0.14938433E-02 0.33598910E+03</pdfrwt>
<totfact> 0.47142205E+03</totfact>
</mgrwt>
</event>
<event>
 4    1  0.4895160E-005  0.4308133E+03  0.7818608E-02  0.1033603E+00
          2   -1    0    0  501    0  0.00000000000E+00  0.00000000000E+00  0.84613553749E+03  0.84613553750E+03  0.25500000000E-02 0.  1.
         -2   -1    0    0    0  501 -0.00000000000E+00 -0.00000000000E+00 -0.54837570308E+02  0.54837570368E+02  0.25500000000E-02 0. -1.
    5000001    1    1    2    0    0 -0.57089654769E+02  0.16344425782E+03  0.43173659179E+03  0.48218123023E+03  0.12700000000E+03 0.  0.
   -5000001    1    1    2    0    0  0.57089654769E+02 -0.16344425782E+03  0.35956137539E+03  0.41879187763E+03  0.12700000000E+03 0.  0.
<mgrwt>
<rscale>  0 0.43081326E+03</rscale>
<asrwt>0</asrwt>
<pdfrwt beam="1">  1        2 0.12087650E+00 0.43081326E+03</pdfrwt>
<pdfrwt beam="2">  1       -2 0.78339387E-02 0.43081326E+03</pdfrwt>
<totfact> 0.35705158E+03</totfact>
</mgrwt>
</event>
<event>
 4    1  0.4895160E-005  0.3510147E+03  0.7818608E-02  0.1062199E+00
         -2   -1    0    0    0  501 -0.00000000000E+00  0.00000000000E+00  0.29191683567E+02  0.29191683679E+02  0.25500000000E-02 0. -1.
          2   -1    0    0  501    0  0.00000000000E+00 -0.00000000000E+00 -0.10551919992E+04  0.10551919992E+04  0.25500000000E-02 0.  1.
    5000001    1    1    2    0    0 -0.65595290646E+02 -0.75435282505E+02 -0.72435332038E+03  0.74216572054E+03  0.12700000000E+03 0.  0.
   -5000001    1    1    2    0    0  0.65595290646E+02  0.75435282505E+02 -0.30164699523E+03  0.34221796232E+03  0.12700000000E+03 0.  0.
<mgrwt>
<rscale>  0 0.35101471E+03</rscale>
<asrwt>0</asrwt>
<pdfrwt beam="1">  1        2 0.15074169E+00 0.35101471E+03</pdfrwt>
<pdfrwt beam="2">  1       -2 0.41702412E-02 0.35101471E+03</pdfrwt>
<totfact> 0.70096132E+03</totfact>
</mgrwt>
</event>
<event>
 4    1  0.4895160E-005  0.3529440E+03  0.7818608E-02  0.1061413E+00
         -2   -1    0    0    0  501 -0.00000000000E+00  0.00000000000E+00  0.12441373004E+03  0.12441373006E+03  0.25500000000E-02 0. -1.
          2   -1    0    0  501    0  0.00000000000E+00 -0.00000000000E+00 -0.25031297879E+03  0.25031297880E+03  0.25500000000E-02 0.  1.
    5000001    1    1    2    0    0  0.10225620807E+03  0.41637206732E+02 -0.65347458348E+01  0.16840929896E+03  0.12700000000E+03 0.  0.
   -5000001    1    1    2    0    0 -0.10225620807E+03 -0.41637206732E+02 -0.11936450292E+03  0.20631740990E+03  0.12700000000E+03 0.  0.
<mgrwt>
<rscale>  0 0.35294403E+03</rscale>
<asrwt>0</asrwt>
<pdfrwt beam="1">  1        2 0.35758997E-01 0.35294403E+03</pdfrwt>
<pdfrwt beam="2">  1       -2 0.17773390E-01 0.35294403E+03</pdfrwt>
<totfact> 0.37322111E+03</totfact>
</mgrwt>
</event>
<event>
 4    1  0.4895160E-005  0.3747153E+03  0.7818608E-02  0.1052904E+00
         -2   -1    0    0    0  501 -0.00000000000E+00  0.00000000000E+00  0.29475283210E+02  0.29475283320E+02  0.25500000000E-02 0. -1.
          2   -1    0    0  501    0  0.00000000000E+00 -0.00000000000E+00 -0.11909262763E+04  0.11909262763E+04  0.25500000000E-02 0.  1.
    5000001    1    1    2    0    0 -0.74042017976E+02 -0.11397694075E+03 -0.65361887297E+03  0.67957309728E+03  0.12700000000E+03 0.  0.
   -5000001    1    1    2    0    0  0.74042017976E+02  0.11397694075E+03 -0.50783212008E+03  0.54082846230E+03  0.12700000000E+03 0.  0.
<mgrwt>
<rscale>  0 0.37471530E+03</rscale>
<asrwt>0</asrwt>
<pdfrwt beam="1">  1        2 0.17013229E+00 0.37471530E+03</pdfrwt>
<pdfrwt beam="2">  1       -2 0.42107555E-02 0.37471530E+03</pdfrwt>
<totfact> 0.57950880E+03</totfact>
</mgrwt>
</event>
<event>
 4    1  0.4895160E-005  0.3422725E+03  0.7818608E-02  0.1065832E+00
          2   -1    0    0  501    0  0.00000000000E+00  0.00000000000E+00  0.60895371051E+03  0.60895371052E+03  0.25500000000E-02 0.  1.
         -2   -1    0    0    0  501 -0.00000000000E+00 -0.00000000000E+00 -0.48094969290E+02  0.48094969358E+02  0.25500000000E-02 0. -1.
    5000001    1    1    2    0    0 -0.59160722853E+02  0.95640062365E+02  0.23700937876E+03  0.29146090352E+03  0.12700000000E+03 0.  0.
   -5000001    1    1    2    0    0  0.59160722853E+02 -0.95640062365E+02  0.32384936246E+03  0.36558777636E+03  0.12700000000E+03 0.  0.
<mgrwt>
<rscale>  0 0.34227246E+03</rscale>
<asrwt>0</asrwt>
<pdfrwt beam="1">  1        2 0.86993385E-01 0.34227246E+03</pdfrwt>
<pdfrwt beam="2">  1       -2 0.68707101E-02 0.34227246E+03</pdfrwt>
<totfact> 0.65132940E+03</totfact>
</mgrwt>
</event>
<event>
 4    1  0.4895160E-005  0.4970898E+03  0.7818608E-02  0.1014541E+00
         -2   -1    0    0    0  501 -0.00000000000E+00  0.00000000000E+00  0.24408860067E+02  0.24408860200E+02  0.25500000000E-02 0. -1.
          2   -1    0    0  501    0  0.00000000000E+00 -0.00000000000E+00 -0.25308253658E+04  0.25308253658E+04  0.25500000000E-02 0.  1.
    5000001    1    1    2    0    0 -0.46437100445E+02  0.19406946797E+03 -0.86084478519E+03  0.89274974482E+03  0.12700000000E+03 0.  0.
   -5000001    1    1    2    0    0  0.46437100445E+02 -0.19406946797E+03 -0.16455717205E+04  0.16624844812E+04  0.12700000000E+03 0.  0.
<mgrwt>
<rscale>  0 0.49708978E+03</rscale>
<asrwt>0</asrwt>
<pdfrwt beam="1">  1        2 0.36154632E+00 0.49708978E+03</pdfrwt>
<pdfrwt beam="2">  1       -2 0.34869816E-02 0.49708978E+03</pdfrwt>
<totfact> 0.16044659E+03</totfact>
</mgrwt>
</event>
<event>
 4    1  0.4895160E-005  0.5361239E+03  0.7818608E-02  0.1004758E+00
         -2   -1    0    0    0  501 -0.00000000000E+00  0.00000000000E+00  0.13940382274E+03  0.13940382276E+03  0.25500000000E-02 0. -1.
          2   -1    0    0  501    0  0.00000000000E+00 -0.00000000000E+00 -0.51546089524E+03  0.51546089525E+03  0.25500000000E-02 0.  1.
    5000001    1    1    2    0    0 -0.22599931853E+03  0.37204643574E+02 -0.11819723612E+03  0.28733162740E+03  0.12700000000E+03 0.  0.
   -5000001    1    1    2    0    0  0.22599931853E+03 -0.37204643574E+02 -0.25785983638E+03  0.36753309061E+03  0.12700000000E+03 0.  0.
<mgrwt>
<rscale>  0 0.53612394E+03</rscale>
<asrwt>0</asrwt>
<pdfrwt beam="1">  1        2 0.73637270E-01 0.53612394E+03</pdfrwt>
<pdfrwt beam="2">  1       -2 0.19914832E-01 0.53612394E+03</pdfrwt>
<totfact> 0.13922198E+03</totfact>
</mgrwt>
</event>
<event>
 4    1  0.4895160E-005  0.4842427E+03  0.7818608E-02  0.1017976E+00
         -2   -1    0    0    0  501 -0.00000000000E+00  0.00000000000E+00  0.12035056729E+03  0.12035056731E+03  0.25500000000E-02 0. -1.
          2   -1    0    0  501    0  0.00000000000E+00 -0.00000000000E+00 -0.48709982850E+03  0.48709982850E+03  0.25500000000E-02 0.  1.
    5000001    1    1    2    0    0  0.16707960388E+03 -0.55363231756E+02 -0.48775227494E+02  0.22246056792E+03  0.12700000000E+03 0.  0.
   -5000001    1    1    2    0    0 -0.16707960388E+03  0.55363231756E+02 -0.31797403372E+03  0.38498982789E+03  0.12700000000E+03 0.  0.
<mgrwt>
<rscale>  0 0.48424267E+03</rscale>
<asrwt>0</asrwt>
<pdfrwt beam="1">  1        2 0.69585689E-01 0.48424267E+03</pdfrwt>
<pdfrwt beam="2">  1       -2 0.17192938E-01 0.48424267E+03</pdfrwt>
<totfact> 0.19103345E+03</totfact>
</mgrwt>
</event>
<event>
 4    1  0.4895160E-005  0.5025286E+03  0.7818608E-02  0.1013121E+00
         -2   -1    0    0    0  501 -0.00000000000E+00  0.00000000000E+00  0.21544196939E+03  0.21544196941E+03  0.25500000000E-02 0. -1.
          2   -1    0    0  501    0  0.00000000000E+00 -0.00000000000E+00 -0.29304295564E+03  0.29304295565E+03  0.25500000000E-02 0.  1.
    5000001    1    1    2    0    0 -0.14735790393E+03 -0.20253002075E+02  0.12080372220E+03  0.22988491739E+03  0.12700000000E+03 0.  0.
   -5000001    1    1    2    0    0  0.14735790393E+03  0.20253002075E+02 -0.19840470845E+03  0.27860000768E+03  0.12700000000E+03 0.  0.
<mgrwt>
<rscale>  0 0.50252861E+03</rscale>
<asrwt>0</asrwt>
<pdfrwt beam="1">  1        2 0.41863279E-01 0.50252861E+03</pdfrwt>
<pdfrwt beam="2">  1       -2 0.30777424E-01 0.50252861E+03</pdfrwt>
<totfact> 0.11954473E+03</totfact>
</mgrwt>
</event>
<event>
 4    1  0.4895160E-005  0.5738062E+03  0.7818608E-02  0.9961291E-01
         -2   -1    0    0    0  501 -0.00000000000E+00  0.00000000000E+00  0.32584971874E+02  0.32584971973E+02  0.25500000000E-02 0. -1.
          2   -1    0    0  501    0  0.00000000000E+00 -0.00000000000E+00 -0.25261149144E+04  0.25261149144E+04  0.25500000000E-02 0.  1.
    5000001    1    1    2    0    0 -0.18655835306E+03 -0.98445055819E+02 -0.19034743902E+04  0.19193330098E+04  0.12700000000E+03 0.  0.
   -5000001    1    1    2    0    0  0.18655835306E+03  0.98445055819E+02 -0.59005555233E+03  0.63936687664E+03  0.12700000000E+03 0.  0.
<mgrwt>
<rscale>  0 0.57380618E+03</rscale>
<asrwt>0</asrwt>
<pdfrwt beam="1">  1        2 0.36087344E+00 0.57380618E+03</pdfrwt>
<pdfrwt beam="2">  1       -2 0.46549976E-02 0.57380618E+03</pdfrwt>
<totfact> 0.10306046E+03</totfact>
</mgrwt>
</event>
<event>
 4    1  0.4895160E-005  0.3193575E+03  0.7818608E-02  0.1075945E+00
         -2   -1    0    0    0  501 -0.00000000000E+00  0.00000000000E+00  0.16010400869E+03  0.16010400871E+03  0.25500000000E-02 0. -1.
          2   -1    0    0  501    0  0.00000000000E+00 -0.00000000000E+00 -0.15925458318E+03  0.15925458320E+03  0.25500000000E-02 0.  1.
    5000001    1    1    2    0    0  0.13030058873E+02  0.30360135244E+02  0.91401827913E+02  0.15992127561E+03  0.12700000000E+03 0.  0.
   -5000001    1    1    2    0    0 -0.13030058873E+02 -0.30360135244E+02 -0.90552402405E+02  0.15943731630E+03  0.12700000000E+03 0.  0.
<mgrwt>
<rscale>  0 0.31935746E+03</rscale>
<asrwt>0</asrwt>
<pdfrwt beam="1">  1        2 0.22750655E-01 0.31935746E+03</pdfrwt>
<pdfrwt beam="2">  1       -2 0.22872001E-01 0.31935746E+03</pdfrwt>
<totfact> 0.39862986E+03</totfact>
</mgrwt>
</event>
<event>
 4    1  0.4895160E-005  0.4709685E+03  0.7818608E-02  0.1021647E+00
          2   -1    0    0  501    0  0.00000000000E+00  0.00000000000E+00  0.11749527973E+04  0.11749527973E+04  0.25500000000E-02 0.  1.
         -2   -1    0    0    0  501 -0.00000000000E+00 -0.00000000000E+00 -0.47195796117E+02  0.47195796186E+02  0.25500000000E-02 0. -1.
    5000001    1    1    2    0    0  0.94837549881E+02 -0.17403295080E+03  0.54702041178E+03  0.59551822788E+03  0.12700000000E+03 0.  0.
   -5000001    1    1    2    0    0 -0.94837549881E+02  0.17403295080E+03  0.58073658939E+03  0.62663036560E+03  0.12700000000E+03 0.  0.
<mgrwt>
<rscale>  0 0.47096850E+03</rscale>
<asrwt>0</asrwt>
<pdfrwt beam="1">  1        2 0.16785040E+00 0.47096850E+03</pdfrwt>
<pdfrwt beam="2">  1       -2 0.67422566E-02 0.47096850E+03</pdfrwt>
<totfact> 0.28649403E+03</totfact>
</mgrwt>
</event>
<event>
 4    1  0.4895160E-005  0.4580940E+03  0.7818608E-02  0.1025335E+00
          2   -1    0    0  501    0  0.00000000000E+00  0.00000000000E+00  0.73813649299E+03  0.73813649299E+03  0.25500000000E-02 0.  1.
         -2   -1    0    0    0  501 -0.00000000000E+00 -0.00000000000E+00 -0.71074283484E+02  0.71074283530E+02  0.25500000000E-02 0. -1.
    5000001    1    1    2    0    0 -0.72318552730E+02  0.14366161931E+03  0.15282435280E+03  0.25564216542E+03  0.12700000000E+03 0.  0.
   -5000001    1    1    2    0    0  0.72318552730E+02 -0.14366161931E+03  0.51423785670E+03  0.55356861110E+03  0.12700000000E+03 0.  0.
<mgrwt>
<rscale>  0 0.45809397E+03</rscale>
<asrwt>0</asrwt>
<pdfrwt beam="1">  1        2 0.10544806E+00 0.45809397E+03</pdfrwt>
<pdfrwt beam="2">  1       -2 0.10153470E-01 0.45809397E+03</pdfrwt>
<totfact> 0.28049415E+03</totfact>
</mgrwt>
</event>
<event>
 4    1  0.4895160E-005  0.2887007E+03  0.7818608E-02  0.1091029E+00
          2   -1    0    0  501    0  0.00000000000E+00  0.00000000000E+00  0.53826193112E+03  0.53826193112E+03  0.25500000000E-02 0.  1.
         -2   -1    0    0    0  501 -0.00000000000E+00 -0.00000000000E+00 -0.38711676010E+02  0.38711676094E+02  0.25500000000E-02 0. -1.
    5000001    1    1    2    0    0 -0.65593859640E+02 -0.20135739093E+02  0.25005133140E+03  0.28872594402E+03  0.12700000000E+03 0.  0.
   -5000001    1    1    2    0    0  0.65593859640E+02  0.20135739093E+02  0.24949892371E+03  0.28824766320E+03  0.12700000000E+03 0.  0.
<mgrwt>
<rscale>  0 0.28870069E+03</rscale>
<asrwt>0</asrwt>
<pdfrwt beam="1">  1        2 0.76894554E-01 0.28870069E+03</pdfrwt>
<pdfrwt beam="2">  1       -2 0.55302400E-02 0.28870069E+03</pdfrwt>
<totfact> 0.10415982E+04</totfact>
</mgrwt>
</event>
<event>
 4    1  0.4895160E-005  0.3775479E+03  0.7818608E-02  0.1051844E+00
          2   -1    0    0  501    0  0.00000000000E+00  0.00000000000E+00  0.38344302594E+03  0.38344302594E+03  0.25500000000E-02 0.  1.
         -2   -1    0    0    0  501 -0.00000000000E+00 -0.00000000000E+00 -0.92935847755E+02  0.92935847790E+02  0.25500000000E-02 0. -1.
    5000001    1    1    2    0    0  0.20088506449E+02 -0.13607503811E+03  0.11469271565E+03  0.21955268869E+03  0.12700000000E+03 0.  0.
   -5000001    1    1    2    0    0 -0.20088506449E+02  0.13607503811E+03  0.17581446254E+03  0.25682618505E+03  0.12700000000E+03 0.  0.
<mgrwt>
<rscale>  0 0.37754789E+03</rscale>
<asrwt>0</asrwt>
<pdfrwt beam="1">  1        2 0.54777575E-01 0.37754789E+03</pdfrwt>
<pdfrwt beam="2">  1       -2 0.13276550E-01 0.37754789E+03</pdfrwt>
<totfact> 0.38226035E+03</totfact>
</mgrwt>
</event>
<event>
 4    1  0.4895160E-005  0.3959219E+03  0.7818608E-02  0.1045201E+00
          2   -1    0    0  501    0  0.00000000000E+00  0.00000000000E+00  0.18841538356E+04  0.18841538356E+04  0.25500000000E-02 0.  1.
         -2   -1    0    0    0  501 -0.00000000000E+00 -0.00000000000E+00 -0.20799006716E+02  0.20799006873E+02  0.25500000000E-02 0. -1.
    5000001    1    1    2    0    0  0.72988452207E+02  0.13067958219E+03  0.10548220940E+04  0.10729320190E+04  0.12700000000E+03 0.  0.
   -5000001    1    1    2    0    0 -0.72988452207E+02 -0.13067958219E+03  0.80853273492E+03  0.83202082354E+03  0.12700000000E+03 0.  0.
<mgrwt>
<rscale>  0 0.39592185E+03</rscale>
<asrwt>0</asrwt>
<pdfrwt beam="1">  1        2 0.26916475E+00 0.39592185E+03</pdfrwt>
<pdfrwt beam="2">  1       -2 0.29712876E-02 0.39592185E+03</pdfrwt>
<totfact> 0.43229467E+03</totfact>
</mgrwt>
</event>
<event>
 4    1  0.4895160E-005  0.6852936E+03  0.7818608E-02  0.9742718E-01
          2   -1    0    0  501    0  0.00000000000E+00  0.00000000000E+00  0.26277724386E+04  0.26277724386E+04  0.25500000000E-02 0.  1.
         -2   -1    0    0    0  501 -0.00000000000E+00 -0.00000000000E+00 -0.44679217110E+02  0.44679217183E+02  0.25500000000E-02 0. -1.
    5000001    1    1    2    0    0 -0.77039354965E+02 -0.29604063069E+03  0.94928779131E+03  0.10054110741E+04  0.12700000000E+03 0.  0.
   -5000001    1    1    2    0    0  0.77039354965E+02  0.29604063069E+03  0.16338054302E+04  0.16670405816E+04  0.12700000000E+03 0.  0.
<mgrwt>
<rscale>  0 0.68529356E+03</rscale>
<asrwt>0</asrwt>
<pdfrwt beam="1">  1        2 0.37539627E+00 0.68529356E+03</pdfrwt>
<pdfrwt beam="2">  1       -2 0.63827418E-02 0.68529356E+03</pdfrwt>
<totfact> 0.55318795E+02</totfact>
</mgrwt>
</event>
<event>
 4    1  0.4895160E-005  0.4170676E+03  0.7818608E-02  0.1038025E+00
         -2   -1    0    0    0  501 -0.00000000000E+00  0.00000000000E+00  0.42415571699E+02  0.42415571776E+02  0.25500000000E-02 0. -1.
          2   -1    0    0  501    0  0.00000000000E+00 -0.00000000000E+00 -0.10252449330E+04  0.10252449330E+04  0.25500000000E-02 0.  1.
    5000001    1    1    2    0    0 -0.13810253682E+03  0.81724410927E+02 -0.38882088336E+03  0.43938806237E+03  0.12700000000E+03 0.  0.
   -5000001    1    1    2    0    0  0.13810253682E+03 -0.81724410927E+02 -0.59400847789E+03  0.62827244236E+03  0.12700000000E+03 0.  0.
<mgrwt>
<rscale>  0 0.41706762E+03</rscale>
<asrwt>0</asrwt>
<pdfrwt beam="1">  1        2 0.14646355E+00 0.41706762E+03</pdfrwt>
<pdfrwt beam="2">  1       -2 0.60593680E-02 0.41706762E+03</pdfrwt>
<totfact> 0.41247239E+03</totfact>
</mgrwt>
</event>
<event>
 4    1  0.4895160E-005  0.4648200E+03  0.7818608E-02  0.1023392E+00
         -2   -1    0    0    0  501 -0.00000000000E+00  0.00000000000E+00  0.18834940836E+03  0.18834940838E+03  0.25500000000E-02 0. -1.
          2   -1    0    0  501    0  0.00000000000E+00 -0.00000000000E+00 -0.28677770349E+03  0.28677770350E+03  0.25500000000E-02 0.  1.
    5000001    1    1    2    0    0 -0.16679455176E+03  0.94112557072E+02 -0.84738419534E+02  0.24492283610E+03  0.12700000000E+03 0.  0.
   -5000001    1    1    2    0    0  0.16679455176E+03 -0.94112557072E+02 -0.13689875594E+02  0.23020427578E+03  0.12700000000E+03 0.  0.
<mgrwt>
<rscale>  0 0.46482001E+03</rscale>
<asrwt>0</asrwt>
<pdfrwt beam="1">  1        2 0.40968243E-01 0.46482001E+03</pdfrwt>
<pdfrwt beam="2">  1       -2 0.26907058E-01 0.46482001E+03</pdfrwt>
<totfact> 0.15642249E+03</totfact>
</mgrwt>
</event>
<event>
 4    1  0.4895160E-005  0.3356181E+03  0.7818608E-02  0.1068678E+00
         -2   -1    0    0    0  501 -0.00000000000E+00  0.00000000000E+00  0.68289167372E+02  0.68289167420E+02  0.25500000000E-02 0. -1.
          2   -1    0    0  501    0  0.00000000000E+00 -0.00000000000E+00 -0.41236228693E+03  0.41236228694E+03  0.25500000000E-02 0.  1.
    5000001    1    1    2    0    0  0.56201111999E+02  0.90385365595E+02 -0.13407009794E+03  0.21314753216E+03  0.12700000000E+03 0.  0.
   -5000001    1    1    2    0    0 -0.56201111999E+02 -0.90385365595E+02 -0.21000302162E+03  0.26750392220E+03  0.12700000000E+03 0.  0.
<mgrwt>
<rscale>  0 0.33561810E+03</rscale>
<asrwt>0</asrwt>
<pdfrwt beam="1">  1        2 0.58908897E-01 0.33561810E+03</pdfrwt>
<pdfrwt beam="2">  1       -2 0.97555956E-02 0.33561810E+03</pdfrwt>
<totfact> 0.57967453E+03</totfact>
</mgrwt>
</event>
<event>
 4    1  0.4895160E-005  0.2870395E+03  0.7818608E-02  0.1091905E+00
          2   -1    0    0  501    0  0.00000000000E+00  0.00000000000E+00  0.69790502823E+02  0.69790502869E+02  0.25500000000E-02 0.  1.
         -2   -1    0    0    0  501 -0.00000000000E+00 -0.00000000000E+00 -0.29513937753E+03  0.29513937754E+03  0.25500000000E-02 0. -1.
    5000001    1    1    2    0    0  0.48766501436E+02  0.38748540308E+02 -0.81811477232E+02  0.16340666708E+03  0.12700000000E+03 0.  0.
   -5000001    1    1    2    0    0 -0.48766501436E+02 -0.38748540308E+02 -0.14353739748E+03  0.20152321333E+03  0.12700000000E+03 0.  0.
<mgrwt>
<rscale>  0 0.28703955E+03</rscale>
<asrwt>0</asrwt>
<pdfrwt beam="1">  1        2 0.99700720E-02 0.28703955E+03</pdfrwt>
<pdfrwt beam="2">  1       -2 0.42162768E-01 0.28703955E+03</pdfrwt>
<totfact> 0.34522881E+03</totfact>
</mgrwt>
</event>
<event>
 4    1  0.4895160E-005  0.3251270E+03  0.7818608E-02  0.1073314E+00
          2   -1    0    0  501    0  0.00000000000E+00  0.00000000000E+00  0.22431074687E+04  0.22431074687E+04  0.25500000000E-02 0.  1.
         -2   -1    0    0    0  501 -0.00000000000E+00 -0.00000000000E+00 -0.11781378731E+02  0.11781379007E+02  0.25500000000E-02 0. -1.
    5000001    1    1    2    0    0 -0.86287516211E+02  0.45352512706E+02  0.92005095133E+03  0.93387640452E+03  0.12700000000E+03 0.  0.
   -5000001    1    1    2    0    0  0.86287516211E+02 -0.45352512706E+02  0.13112751386E+04  0.13210124432E+04  0.12700000000E+03 0.  0.
<mgrwt>
<rscale>  0 0.32512705E+03</rscale>
<asrwt>0</asrwt>
<pdfrwt beam="1">  1        2 0.32044388E+00 0.32512705E+03</pdfrwt>
<pdfrwt beam="2">  1       -2 0.16830544E-02 0.32512705E+03</pdfrwt>
<totfact> 0.66997337E+03</totfact>
</mgrwt>
</event>
<event>
 4    1  0.4895160E-005  0.4281707E+03  0.7818608E-02  0.1034439E+00
         -2   -1    0    0    0  501 -0.00000000000E+00  0.00000000000E+00  0.19362079241E+02  0.19362079409E+02  0.25500000000E-02 0. -1.
          2   -1    0    0  501    0  0.00000000000E+00 -0.00000000000E+00 -0.23671288421E+04  0.23671288421E+04  0.25500000000E-02 0.  1.
    5000001    1    1    2    0    0  0.48195609377E+02  0.93443716613E+02 -0.19350338518E+04  0.19420451984E+04  0.12700000000E+03 0.  0.
   -5000001    1    1    2    0    0 -0.48195609377E+02 -0.93443716613E+02 -0.41273291104E+03  0.44444572312E+03  0.12700000000E+03 0.  0.
<mgrwt>
<rscale>  0 0.42817070E+03</rscale>
<asrwt>0</asrwt>
<pdfrwt beam="1">  1        2 0.33816108E+00 0.42817070E+03</pdfrwt>
<pdfrwt beam="2">  1       -2 0.27660128E-02 0.42817070E+03</pdfrwt>
<totfact> 0.27678540E+03</totfact>
</mgrwt>
</event>
<event>
 4    1  0.4895160E-005  0.4816584E+03  0.7818608E-02  0.1018680E+00
          2   -1    0    0  501    0  0.00000000000E+00  0.00000000000E+00  0.86547729200E+03  0.86547729201E+03  0.25500000000E-02 0.  1.
         -2   -1    0    0    0  501 -0.00000000000E+00 -0.00000000000E+00 -0.67013542998E+02  0.67013543047E+02  0.25500000000E-02 0. -1.
    5000001    1    1    2    0    0 -0.18678766463E+03  0.72692738100E+02  0.31950640122E+03  0.39797890177E+03  0.12700000000E+03 0.  0.
   -5000001    1    1    2    0    0  0.18678766463E+03 -0.72692738100E+02  0.47895734778E+03  0.53451193329E+03  0.12700000000E+03 0.  0.
<mgrwt>
<rscale>  0 0.48165838E+03</rscale>
<asrwt>0</asrwt>
<pdfrwt beam="1">  1        2 0.12363961E+00 0.48165838E+03</pdfrwt>
<pdfrwt beam="2">  1       -2 0.95733639E-02 0.48165838E+03</pdfrwt>
<totfact> 0.25213791E+03</totfact>
</mgrwt>
</event>
<event>
 4    1  0.4895160E-005  0.3699181E+03  0.7818608E-02  0.1054724E+00
         -2   -1    0    0    0  501 -0.00000000000E+00  0.00000000000E+00  0.34419755447E+02  0.34419755542E+02  0.25500000000E-02 0. -1.
          2   -1    0    0  501    0  0.00000000000E+00 -0.00000000000E+00 -0.99390137434E+03  0.99390137434E+03  0.25500000000E-02 0.  1.
    5000001    1    1    2    0    0  0.85794598886E+02  0.10353173323E+03 -0.47655995084E+03  0.51119264444E+03  0.12700000000E+03 0.  0.
   -5000001    1    1    2    0    0 -0.85794598886E+02 -0.10353173323E+03 -0.48292166805E+03  0.51712848544E+03  0.12700000000E+03 0.  0.
<mgrwt>
<rscale>  0 0.36991806E+03</rscale>
<asrwt>0</asrwt>
<pdfrwt beam="1">  1        2 0.14198589E+00 0.36991806E+03</pdfrwt>
<pdfrwt beam="2">  1       -2 0.49171085E-02 0.36991806E+03</pdfrwt>
<totfact> 0.59322434E+03</totfact>
</mgrwt>
</event>
<event>
 4    1  0.4895160E-005  0.4800566E+03  0.7818608E-02  0.1019120E+00
          2   -1    0    0  501    0  0.00000000000E+00  0.00000000000E+00  0.92268024557E+03  0.92268024557E+03  0.25500000000E-02 0.  1.
         -2   -1    0    0    0  501 -0.00000000000E+00 -0.00000000000E+00 -0.62441559599E+02  0.62441559651E+02  0.25500000000E-02 0. -1.
    5000001    1    1    2    0    0 -0.99715940840E+02 -0.16667393353E+03  0.30426844626E+03  0.38266402544E+03  0.12700000000E+03 0.  0.
   -5000001    1    1    2    0    0  0.99715940840E+02  0.16667393353E+03  0.55597023971E+03  0.60245777978E+03  0.12700000000E+03 0.  0.
<mgrwt>
<rscale>  0 0.48005664E+03</rscale>
<asrwt>0</asrwt>
<pdfrwt beam="1">  1        2 0.13181148E+00 0.48005664E+03</pdfrwt>
<pdfrwt beam="2">  1       -2 0.89202219E-02 0.48005664E+03</pdfrwt>
<totfact> 0.25944581E+03</totfact>
</mgrwt>
</event>
<event>
 4    1  0.4895160E-005  0.3450447E+03  0.7818608E-02  0.1064667E+00
          2   -1    0    0  501    0  0.00000000000E+00  0.00000000000E+00  0.19024565747E+04  0.19024565747E+04  0.25500000000E-02 0.  1.
         -2   -1    0    0    0  501 -0.00000000000E+00 -0.00000000000E+00 -0.15645014146E+02  0.15645014353E+02  0.25500000000E-02 0. -1.
    5000001    1    1    2    0    0 -0.10003303101E+03 -0.58859460466E+02  0.10145775955E+04  0.10290615826E+04  0.12700000000E+03 0.  0.
   -5000001    1    1    2    0    0  0.10003303101E+03  0.58859460466E+02  0.87223396504E+03  0.88904000650E+03  0.12700000000E+03 0.  0.
<mgrwt>
<rscale>  0 0.34504469E+03</rscale>
<asrwt>0</asrwt>
<pdfrwt beam="1">  1        2 0.27177941E+00 0.34504469E+03</pdfrwt>
<pdfrwt beam="2">  1       -2 0.22350029E-02 0.34504469E+03</pdfrwt>
<totfact> 0.64792117E+03</totfact>
</mgrwt>
</event>
<event>
 4    1  0.4895160E-005  0.4479437E+03  0.7818608E-02  0.1028337E+00
         -2   -1    0    0    0  501 -0.00000000000E+00  0.00000000000E+00  0.12113597983E+03  0.12113597986E+03  0.25500000000E-02 0. -1.
          2   -1    0    0  501    0  0.00000000000E+00 -0.00000000000E+00 -0.41410802748E+03  0.41410802748E+03  0.25500000000E-02 0.  1.
    5000001    1    1    2    0    0  0.12751029731E+03 -0.11760121461E+03 -0.71431436499E+02  0.22654000026E+03  0.12700000000E+03 0.  0.
   -5000001    1    1    2    0    0 -0.12751029731E+03  0.11760121461E+03 -0.22154061115E+03  0.30870400708E+03  0.12700000000E+03 0.  0.
<mgrwt>
<rscale>  0 0.44794366E+03</rscale>
<asrwt>0</asrwt>
<pdfrwt beam="1">  1        2 0.59158289E-01 0.44794366E+03</pdfrwt>
<pdfrwt beam="2">  1       -2 0.17305140E-01 0.44794366E+03</pdfrwt>
<totfact> 0.22621846E+03</totfact>
</mgrwt>
</event>
<event>
 4    1  0.4895160E-005  0.5020296E+03  0.7818608E-02  0.1013251E+00
          2   -1    0    0  501    0  0.00000000000E+00  0.00000000000E+00  0.14236586396E+04  0.14236586396E+04  0.25500000000E-02 0.  1.
         -2   -1    0    0    0  501 -0.00000000000E+00 -0.00000000000E+00 -0.44258101102E+02  0.44258101175E+02  0.25500000000E-02 0. -1.
    5000001    1    1    2    0    0  0.21410903582E+03 -0.12359813200E+02  0.60276534658E+03  0.65226567228E+03  0.12700000000E+03 0.  0.
   -5000001    1    1    2    0    0 -0.21410903582E+03  0.12359813200E+02  0.77663519189E+03  0.81565106846E+03  0.12700000000E+03 0.  0.
<mgrwt>
<rscale>  0 0.50202959E+03</rscale>
<asrwt>0</asrwt>
<pdfrwt beam="1">  1        2 0.20337984E+00 0.50202959E+03</pdfrwt>
<pdfrwt beam="2">  1       -2 0.63225848E-02 0.50202959E+03</pdfrwt>
<totfact> 0.23240794E+03</totfact>
</mgrwt>
</event>
<event>
 4    1  0.4895160E-005  0.2918958E+03  0.7818608E-02  0.1089363E+00
          2   -1    0    0  501    0  0.00000000000E+00  0.00000000000E+00  0.91476396678E+03  0.91476396678E+03  0.25500000000E-02 0. -1.
         -2   -1    0    0    0  501 -0.00000000000E+00 -0.00000000000E+00 -0.23285562157E+02  0.23285562297E+02  0.25500000000E-02 0.  1.
    5000001    1    1    2    0    0  0.36931861053E+02  0.18512955218E+02  0.25656763610E+03  0.28924495461E+03  0.12700000000E+03 0.  0.
   -5000001    1    1    2    0    0 -0.36931861053E+02 -0.18512955218E+02  0.63491076852E+03  0.64880457447E+03  0.12700000000E+03 0.  0.
<mgrwt>
<rscale>  0 0.29189583E+03</rscale>
<asrwt>0</asrwt>
<pdfrwt beam="1">  1        2 0.13068054E+00 0.29189583E+03</pdfrwt>
<pdfrwt beam="2">  1       -2 0.33265095E-02 0.29189583E+03</pdfrwt>
<totfact> 0.11901378E+04</totfact>
</mgrwt>
</event>
<event>
 4    1  0.4895160E-005  0.2955983E+03  0.7818608E-02  0.1087462E+00
         -2   -1    0    0    0  501 -0.00000000000E+00  0.00000000000E+00  0.85012925148E+01  0.85012928972E+01  0.25500000000E-02 0. -1.
          2   -1    0    0  501    0  0.00000000000E+00 -0.00000000000E+00 -0.25695614068E+04  0.25695614068E+04  0.25500000000E-02 0.  1.
    5000001    1    1    2    0    0  0.31140670447E+02 -0.61808984776E+02 -0.10152038777E+04  0.10254550235E+04  0.12700000000E+03 0.  0.
   -5000001    1    1    2    0    0 -0.31140670447E+02  0.61808984776E+02 -0.15458562366E+04  0.15526076762E+04  0.12700000000E+03 0.  0.
<mgrwt>
<rscale>  0 0.29559833E+03</rscale>
<asrwt>0</asrwt>
<pdfrwt beam="1">  1        2 0.36707970E+00 0.29559833E+03</pdfrwt>
<pdfrwt beam="2">  1       -2 0.12144720E-02 0.29559833E+03</pdfrwt>
<totfact> 0.74357195E+03</totfact>
</mgrwt>
</event>
<event>
 4    1  0.4895160E-005  0.5272991E+03  0.7818608E-02  0.1006889E+00
          2   -1    0    0  501    0  0.00000000000E+00  0.00000000000E+00  0.10173509543E+04  0.10173509543E+04  0.25500000000E-02 0.  1.
         -2   -1    0    0    0  501 -0.00000000000E+00 -0.00000000000E+00 -0.68325559922E+02  0.68325559970E+02  0.25500000000E-02 0. -1.
    5000001    1    1    2    0    0 -0.43155139540E+02  0.21527094667E+03  0.62267229867E+03  0.67234941666E+03  0.12700000000E+03 0.  0.
   -5000001    1    1    2    0    0  0.43155139540E+02 -0.21527094667E+03  0.32635309575E+03  0.41332709766E+03  0.12700000000E+03 0.  0.
<mgrwt>
<rscale>  0 0.52729906E+03</rscale>
<asrwt>0</asrwt>
<pdfrwt beam="1">  1        2 0.14533584E+00 0.52729906E+03</pdfrwt>
<pdfrwt beam="2">  1       -2 0.97607952E-02 0.52729906E+03</pdfrwt>
<totfact> 0.19630716E+03</totfact>
</mgrwt>
</event>
<event>
 4    1  0.4895160E-005  0.4636416E+03  0.7818608E-02  0.1023730E+00
          2   -1    0    0  501    0  0.00000000000E+00  0.00000000000E+00  0.95280170094E+03  0.95280170094E+03  0.25500000000E-02 0.  1.
         -2   -1    0    0    0  501 -0.00000000000E+00 -0.00000000000E+00 -0.56403015848E+02  0.56403015905E+02  0.25500000000E-02 0. -1.
    5000001    1    1    2    0    0  0.52122444809E+02 -0.13627676116E+03  0.72630337008E+03  0.75162070905E+03  0.12700000000E+03 0.  0.
   -5000001    1    1    2    0    0 -0.52122444809E+02  0.13627676116E+03  0.17009531501E+03  0.25758400780E+03  0.12700000000E+03 0.  0.
<mgrwt>
<rscale>  0 0.46364163E+03</rscale>
<asrwt>0</asrwt>
<pdfrwt beam="1">  1        2 0.13611452E+00 0.46364163E+03</pdfrwt>
<pdfrwt beam="2">  1       -2 0.80575742E-02 0.46364163E+03</pdfrwt>
<totfact> 0.29204685E+03</totfact>
</mgrwt>
</event>
<event>
 4    1  0.4895160E-005  0.2762870E+03  0.7818608E-02  0.1097734E+00
         -2   -1    0    0    0  501 -0.00000000000E+00  0.00000000000E+00  0.33697256743E+03  0.33697256744E+03  0.25500000000E-02 0. -1.
          2   -1    0    0  501    0  0.00000000000E+00 -0.00000000000E+00 -0.56632571353E+02  0.56632571410E+02  0.25500000000E-02 0.  1.
    5000001    1    1    2    0    0  0.46331423416E+01 -0.13742728578E+02  0.21480038591E+03  0.24995706508E+03  0.12700000000E+03 0.  0.
   -5000001    1    1    2    0    0 -0.46331423416E+01  0.13742728578E+02  0.65539610167E+02  0.14364807377E+03  0.12700000000E+03 0.  0.
<mgrwt>
<rscale>  0 0.27628697E+03</rscale>
<asrwt>0</asrwt>
<pdfrwt beam="1">  1        2 0.80903677E-02 0.27628697E+03</pdfrwt>
<pdfrwt beam="2">  1       -2 0.48138936E-01 0.27628697E+03</pdfrwt>
<totfact> 0.34602606E+03</totfact>
</mgrwt>
</event>
<event>
 4    1  0.4895160E-005  0.3409858E+03  0.7818608E-02  0.1066377E+00
         -2   -1    0    0    0  501 -0.00000000000E+00  0.00000000000E+00  0.40101019223E+02  0.40101019304E+02  0.25500000000E-02 0. -1.
          2   -1    0    0  501    0  0.00000000000E+00 -0.00000000000E+00 -0.72486505386E+03  0.72486505387E+03  0.25500000000E-02 0.  1.
    5000001    1    1    2    0    0 -0.36866705670E+02 -0.91193412262E+02 -0.47053932623E+03  0.49720383140E+03  0.12700000000E+03 0.  0.
   -5000001    1    1    2    0    0  0.36866705670E+02  0.91193412262E+02 -0.21422470841E+03  0.26776224177E+03  0.12700000000E+03 0.  0.
<mgrwt>
<rscale>  0 0.34098579E+03</rscale>
<asrwt>0</asrwt>
<pdfrwt beam="1">  1        2 0.10355214E+00 0.34098579E+03</pdfrwt>
<pdfrwt beam="2">  1       -2 0.57287175E-02 0.34098579E+03</pdfrwt>
<totfact> 0.70232580E+03</totfact>
</mgrwt>
</event>
<event>
 4    1  0.4895160E-005  0.5658922E+03  0.7818608E-02  0.9978810E-01
         -2   -1    0    0    0  501 -0.00000000000E+00  0.00000000000E+00  0.11441006510E+03  0.11441006512E+03  0.25500000000E-02 0. -1.
          2   -1    0    0  501    0  0.00000000000E+00 -0.00000000000E+00 -0.69975052674E+03  0.69975052675E+03  0.25500000000E-02 0.  1.
    5000001    1    1    2    0    0 -0.46321693769E+02 -0.22003518818E+03 -0.12632331078E+03  0.28748523823E+03  0.12700000000E+03 0.  0.
   -5000001    1    1    2    0    0  0.46321693769E+02  0.22003518818E+03 -0.45901715086E+03  0.52667535365E+03  0.12700000000E+03 0.  0.
<mgrwt>
<rscale>  0 0.56589223E+03</rscale>
<asrwt>0</asrwt>
<pdfrwt beam="1">  1        2 0.99964359E-01 0.56589223E+03</pdfrwt>
<pdfrwt beam="2">  1       -2 0.16344295E-01 0.56589223E+03</pdfrwt>
<totfact> 0.13640712E+03</totfact>
</mgrwt>
</event>
<event>
 4    1  0.4895160E-005  0.3841784E+03  0.7818608E-02  0.1049400E+00
         -2   -1    0    0    0  501 -0.00000000000E+00  0.00000000000E+00  0.19573529300E+02  0.19573529466E+02  0.25500000000E-02 0. -1.
          2   -1    0    0  501    0  0.00000000000E+00 -0.00000000000E+00 -0.18851106941E+04  0.18851106941E+04  0.25500000000E-02 0.  1.
    5000001    1    1    2    0    0  0.15975678921E+02  0.14269655139E+03 -0.99384058068E+03  0.10121588946E+04  0.12700000000E+03 0.  0.
   -5000001    1    1    2    0    0 -0.15975678921E+02 -0.14269655139E+03 -0.87169658413E+03  0.89252532898E+03  0.12700000000E+03 0.  0.
<mgrwt>
<rscale>  0 0.38417845E+03</rscale>
<asrwt>0</asrwt>
<pdfrwt beam="1">  1        2 0.26930141E+00 0.38417845E+03</pdfrwt>
<pdfrwt beam="2">  1       -2 0.27962197E-02 0.38417845E+03</pdfrwt>
<totfact> 0.47309569E+03</totfact>
</mgrwt>
</event>
<event>
 4    1  0.4895160E-005  0.2826054E+03  0.7818608E-02  0.1094274E+00
         -2   -1    0    0    0  501 -0.00000000000E+00  0.00000000000E+00  0.22440078166E+02  0.22440078311E+02  0.25500000000E-02 0. -1.
          2   -1    0    0  501    0  0.00000000000E+00 -0.00000000000E+00 -0.88976782057E+03  0.88976782058E+03  0.25500000000E-02 0.  1.
    5000001    1    1    2    0    0  0.12432325172E+02  0.45365679790E+02 -0.30355102020E+03  0.33239258336E+03  0.12700000000E+03 0.  0.
   -5000001    1    1    2    0    0 -0.12432325172E+02 -0.45365679790E+02 -0.56377672221E+03  0.57981531553E+03  0.12700000000E+03 0.  0.
<mgrwt>
<rscale>  0 0.28260545E+03</rscale>
<asrwt>0</asrwt>
<pdfrwt beam="1">  1        2 0.12710967E+00 0.28260545E+03</pdfrwt>
<pdfrwt beam="2">  1       -2 0.32057260E-02 0.28260545E+03</pdfrwt>
<totfact> 0.13024044E+04</totfact>
</mgrwt>
</event>
<event>
 4    1  0.4895160E-005  0.2727989E+03  0.7818608E-02  0.1099688E+00
          2   -1    0    0  501    0  0.00000000000E+00  0.00000000000E+00  0.81873179848E+03  0.81873179849E+03  0.25500000000E-02 0.  1.
         -2   -1    0    0    0  501 -0.00000000000E+00 -0.00000000000E+00 -0.22723932439E+02  0.22723932582E+02  0.25500000000E-02 0. -1.
    5000001    1    1    2    0    0 -0.12873881049E+02 -0.41913192102E+02  0.32544513289E+03  0.35208803872E+03  0.12700000000E+03 0.  0.
   -5000001    1    1    2    0    0  0.12873881049E+02  0.41913192102E+02  0.47056273315E+03  0.48936769235E+03  0.12700000000E+03 0.  0.
<mgrwt>
<rscale>  0 0.27279887E+03</rscale>
<asrwt>0</asrwt>
<pdfrwt beam="1">  1        2 0.11696169E+00 0.27279887E+03</pdfrwt>
<pdfrwt beam="2">  1       -2 0.32462760E-02 0.27279887E+03</pdfrwt>
<totfact> 0.14185868E+04</totfact>
</mgrwt>
</event>
<event>
 4    1  0.4895160E-005  0.8535700E+03  0.7818608E-02  0.9485558E-01
         -2   -1    0    0    0  501 -0.00000000000E+00  0.00000000000E+00  0.59330557161E+02  0.59330557216E+02  0.25500000000E-02 0. -1.
          2   -1    0    0  501    0  0.00000000000E+00 -0.00000000000E+00 -0.30700106164E+04  0.30700106164E+04  0.25500000000E-02 0.  1.
    5000001    1    1    2    0    0 -0.22931702303E+03  0.33059024016E+03 -0.17412391611E+04  0.17916246873E+04  0.12700000000E+03 0.  0.
   -5000001    1    1    2    0    0  0.22931702303E+03 -0.33059024016E+03 -0.12694408982E+04  0.13377164864E+04  0.12700000000E+03 0.  0.
<mgrwt>
<rscale>  0 0.85357001E+03</rscale>
<asrwt>0</asrwt>
<pdfrwt beam="1">  1        2 0.43857284E+00 0.85357001E+03</pdfrwt>
<pdfrwt beam="2">  1       -2 0.84757958E-02 0.85357001E+03</pdfrwt>
<totfact> 0.20065663E+02</totfact>
</mgrwt>
</event>
<event>
 4    1  0.4895160E-005  0.4252611E+03  0.7818608E-02  0.1035367E+00
         -2   -1    0    0    0  501 -0.00000000000E+00  0.00000000000E+00  0.13970581326E+03  0.13970581328E+03  0.25500000000E-02 0. -1.
          2   -1    0    0  501    0  0.00000000000E+00 -0.00000000000E+00 -0.32362117981E+03  0.32362117982E+03  0.25500000000E-02 0.  1.
    5000001    1    1    2    0    0 -0.16703711291E+03 -0.28662209032E+02 -0.71290223406E+02  0.22345965021E+03  0.12700000000E+03 0.  0.
   -5000001    1    1    2    0    0  0.16703711291E+03  0.28662209032E+02 -0.11262514314E+03  0.23986734289E+03  0.12700000000E+03 0.  0.
<mgrwt>
<rscale>  0 0.42526114E+03</rscale>
<asrwt>0</asrwt>
<pdfrwt beam="1">  1        2 0.46231597E-01 0.42526114E+03</pdfrwt>
<pdfrwt beam="2">  1       -2 0.19957973E-01 0.42526114E+03</pdfrwt>
<totfact> 0.23204641E+03</totfact>
</mgrwt>
</event>
<event>
 4    1  0.4895160E-005  0.3913429E+03  0.7818608E-02  0.1046819E+00
          2   -1    0    0  501    0  0.00000000000E+00  0.00000000000E+00  0.88292988658E+03  0.88292988658E+03  0.25500000000E-02 0.  1.
         -2   -1    0    0    0  501 -0.00000000000E+00 -0.00000000000E+00 -0.43363940404E+02  0.43363940479E+02  0.25500000000E-02 0. -1.
    5000001    1    1    2    0    0  0.13799904941E+03 -0.54618110451E+02  0.44691990053E+03  0.48774304005E+03  0.12700000000E+03 0.  0.
   -5000001    1    1    2    0    0 -0.13799904941E+03  0.54618110451E+02  0.39264604564E+03  0.43855078701E+03  0.12700000000E+03 0.  0.
<mgrwt>
<rscale>  0 0.39134291E+03</rscale>
<asrwt>0</asrwt>
<pdfrwt beam="1">  1        2 0.12613283E+00 0.39134291E+03</pdfrwt>
<pdfrwt beam="2">  1       -2 0.61948490E-02 0.39134291E+03</pdfrwt>
<totfact> 0.48729926E+03</totfact>
</mgrwt>
</event>
<event>
 4    1  0.4895160E-005  0.3413806E+03  0.7818608E-02  0.1066209E+00
         -2   -1    0    0    0  501 -0.00000000000E+00  0.00000000000E+00  0.32473221422E+02  0.32473221522E+02  0.25500000000E-02 0. -1.
          2   -1    0    0  501    0  0.00000000000E+00 -0.00000000000E+00 -0.89720645933E+03  0.89720645934E+03  0.25500000000E-02 0.  1.
    5000001    1    1    2    0    0  0.99502666694E+02 -0.53538454359E+02 -0.39026223786E+03  0.42567682703E+03  0.12700000000E+03 0.  0.
   -5000001    1    1    2    0    0 -0.99502666694E+02  0.53538454359E+02 -0.47447100005E+03  0.50400285383E+03  0.12700000000E+03 0.  0.
<mgrwt>
<rscale>  0 0.34138063E+03</rscale>
<asrwt>0</asrwt>
<pdfrwt beam="1">  1        2 0.12817234E+00 0.34138063E+03</pdfrwt>
<pdfrwt beam="2">  1       -2 0.46390322E-02 0.34138063E+03</pdfrwt>
<totfact> 0.74234942E+03</totfact>
</mgrwt>
</event>
<event>
 4    1  0.4895160E-005  0.3484465E+03  0.7818608E-02  0.1063254E+00
          2   -1    0    0  501    0  0.00000000000E+00  0.00000000000E+00  0.14874860521E+04  0.14874860521E+04  0.25500000000E-02 0.  1.
         -2   -1    0    0    0  501 -0.00000000000E+00 -0.00000000000E+00 -0.20406071850E+02  0.20406072010E+02  0.25500000000E-02 0. -1.
    5000001    1    1    2    0    0 -0.96863520289E+02  0.54117084174E+02  0.92284133012E+03  0.93812383028E+03  0.12700000000E+03 0.  0.
   -5000001    1    1    2    0    0  0.96863520289E+02 -0.54117084174E+02  0.54423865016E+03  0.56976829387E+03  0.12700000000E+03 0.  0.
<mgrwt>
<rscale>  0 0.34844654E+03</rscale>
<asrwt>0</asrwt>
<pdfrwt beam="1">  1        2 0.21249805E+00 0.34844654E+03</pdfrwt>
<pdfrwt beam="2">  1       -2 0.29151526E-02 0.34844654E+03</pdfrwt>
<totfact> 0.70261778E+03</totfact>
</mgrwt>
</event>
<event>
 4    1  0.4895160E-005  0.3036967E+03  0.7818608E-02  0.1083407E+00
         -2   -1    0    0    0  501 -0.00000000000E+00  0.00000000000E+00  0.58020098679E+02  0.58020098735E+02  0.25500000000E-02 0. -1.
          2   -1    0    0  501    0  0.00000000000E+00 -0.00000000000E+00 -0.39741255470E+03  0.39741255471E+03  0.25500000000E-02 0.  1.
    5000001    1    1    2    0    0  0.37437971105E+02  0.34751290390E+02 -0.71134338889E+02  0.15426713206E+03  0.12700000000E+03 0.  0.
   -5000001    1    1    2    0    0 -0.37437971105E+02 -0.34751290390E+02 -0.26825811713E+03  0.30116552138E+03  0.12700000000E+03 0.  0.
<mgrwt>
<rscale>  0 0.30369666E+03</rscale>
<asrwt>0</asrwt>
<pdfrwt beam="1">  1        2 0.56773221E-01 0.30369666E+03</pdfrwt>
<pdfrwt beam="2">  1       -2 0.82885857E-02 0.30369666E+03</pdfrwt>
<totfact> 0.77839059E+03</totfact>
</mgrwt>
</event>
<event>
 4    1  0.4895160E-005  0.4185721E+03  0.7818608E-02  0.1037532E+00
          2   -1    0    0  501    0  0.00000000000E+00  0.00000000000E+00  0.14553301291E+04  0.14553301291E+04  0.25500000000E-02 0.  1.
         -2   -1    0    0    0  501 -0.00000000000E+00 -0.00000000000E+00 -0.30096715330E+02  0.30096715438E+02  0.25500000000E-02 0. -1.
    5000001    1    1    2    0    0 -0.16148548081E+03  0.29157216029E+02  0.80941187774E+03  0.83558619638E+03  0.12700000000E+03 0.  0.
   -5000001    1    1    2    0    0  0.16148548081E+03 -0.29157216029E+02  0.61582153604E+03  0.64984064817E+03  0.12700000000E+03 0.  0.
<mgrwt>
<rscale>  0 0.41857213E+03</rscale>
<asrwt>0</asrwt>
<pdfrwt beam="1">  1        2 0.20790441E+00 0.41857213E+03</pdfrwt>
<pdfrwt beam="2">  1       -2 0.42995287E-02 0.41857213E+03</pdfrwt>
<totfact> 0.40619825E+03</totfact>
</mgrwt>
</event>
<event>
 4    1  0.4895160E-005  0.6777581E+03  0.7818608E-02  0.9756043E-01
         -2   -1    0    0    0  501 -0.00000000000E+00  0.00000000000E+00  0.12230632635E+03  0.12230632637E+03  0.25500000000E-02 0. -1.
          2   -1    0    0  501    0  0.00000000000E+00 -0.00000000000E+00 -0.93894572367E+03  0.93894572368E+03  0.25500000000E-02 0.  1.
    5000001    1    1    2    0    0  0.20881029796E+03 -0.21454848289E+03 -0.25913645878E+03  0.41582868626E+03  0.12700000000E+03 0.  0.
   -5000001    1    1    2    0    0 -0.20881029796E+03  0.21454848289E+03 -0.55750293854E+03  0.64542336379E+03  0.12700000000E+03 0.  0.
<mgrwt>
<rscale>  0 0.67775808E+03</rscale>
<asrwt>0</asrwt>
<pdfrwt beam="1">  1        2 0.13413510E+00 0.67775808E+03</pdfrwt>
<pdfrwt beam="2">  1       -2 0.17472333E-01 0.67775808E+03</pdfrwt>
<totfact> 0.83158562E+02</totfact>
</mgrwt>
</event>
<event>
 4    1  0.4895160E-005  0.4203397E+03  0.7818608E-02  0.1036956E+00
          2   -1    0    0  501    0  0.00000000000E+00  0.00000000000E+00  0.12072426208E+04  0.12072426208E+04  0.25500000000E-02 0.  1.
         -2   -1    0    0    0  501 -0.00000000000E+00 -0.00000000000E+00 -0.36588640873E+02  0.36588640962E+02  0.25500000000E-02 0. -1.
    5000001    1    1    2    0    0  0.13500588884E+03  0.35423981986E+02  0.31153469119E+03  0.36423112488E+03  0.12700000000E+03 0.  0.
   -5000001    1    1    2    0    0 -0.13500588884E+03 -0.35423981986E+02  0.85911928877E+03  0.87960013691E+03  0.12700000000E+03 0.  0.
<mgrwt>
<rscale>  0 0.42033970E+03</rscale>
<asrwt>0</asrwt>
<pdfrwt beam="1">  1        2 0.17246320E+00 0.42033970E+03</pdfrwt>
<pdfrwt beam="2">  1       -2 0.52269497E-02 0.42033970E+03</pdfrwt>
<totfact> 0.40815798E+03</totfact>
</mgrwt>
</event>
<event>
 4    1  0.4895160E-005  0.3917228E+03  0.7818608E-02  0.1046684E+00
          2   -1    0    0  501    0  0.00000000000E+00  0.00000000000E+00  0.19992881989E+04  0.19992881989E+04  0.25500000000E-02 0. -1.
         -2   -1    0    0    0  501 -0.00000000000E+00 -0.00000000000E+00 -0.19187673446E+02  0.19187673615E+02  0.25500000000E-02 0.  1.
    5000001    1    1    2    0    0  0.10041330714E+03  0.18177702966E+02  0.15502500470E+04  0.15587871790E+04  0.12700000000E+03 0.  0.
   -5000001    1    1    2    0    0 -0.10041330714E+03 -0.18177702966E+02  0.42985047846E+03  0.45968869354E+03  0.12700000000E+03 0.  0.
<mgrwt>
<rscale>  0 0.39172281E+03</rscale>
<asrwt>0</asrwt>
<pdfrwt beam="1">  1        2 0.28561253E+00 0.39172281E+03</pdfrwt>
<pdfrwt beam="2">  1       -2 0.27410969E-02 0.39172281E+03</pdfrwt>
<totfact> 0.42798532E+03</totfact>
</mgrwt>
</event>
<event>
 4    1  0.4895160E-005  0.3406168E+03  0.7818608E-02  0.1066534E+00
         -2   -1    0    0    0  501 -0.00000000000E+00  0.00000000000E+00  0.51442247518E+02  0.51442247582E+02  0.25500000000E-02 0. -1.
          2   -1    0    0  501    0  0.00000000000E+00 -0.00000000000E+00 -0.56383535652E+03  0.56383535653E+03  0.25500000000E-02 0.  1.
    5000001    1    1    2    0    0  0.47781927246E+02 -0.98534868338E+02 -0.20249787620E+03  0.26291942248E+03  0.12700000000E+03 0.  0.
   -5000001    1    1    2    0    0 -0.47781927246E+02  0.98534868338E+02 -0.30989523280E+03  0.35235818163E+03  0.12700000000E+03 0.  0.
<mgrwt>
<rscale>  0 0.34061684E+03</rscale>
<asrwt>0</asrwt>
<pdfrwt beam="1">  1        2 0.80547904E-01 0.34061684E+03</pdfrwt>
<pdfrwt beam="2">  1       -2 0.73488928E-02 0.34061684E+03</pdfrwt>
<totfact> 0.64048991E+03</totfact>
</mgrwt>
</event>
<event>
 4    1  0.4895160E-005  0.5947550E+03  0.7818608E-02  0.9916348E-01
         -2   -1    0    0    0  501 -0.00000000000E+00  0.00000000000E+00  0.58238035519E+02  0.58238035575E+02  0.25500000000E-02 0. -1.
          2   -1    0    0  501    0  0.00000000000E+00 -0.00000000000E+00 -0.15184814728E+04  0.15184814728E+04  0.25500000000E-02 0.  1.
    5000001    1    1    2    0    0  0.15876739987E+03  0.15572498631E+03 -0.32941085836E+03  0.41725037115E+03  0.12700000000E+03 0.  0.
   -5000001    1    1    2    0    0 -0.15876739987E+03 -0.15572498631E+03 -0.11308325790E+04  0.11594691373E+04  0.12700000000E+03 0.  0.
<mgrwt>
<rscale>  0 0.59475500E+03</rscale>
<asrwt>0</asrwt>
<pdfrwt beam="1">  1        2 0.21692590E+00 0.59475500E+03</pdfrwt>
<pdfrwt beam="2">  1       -2 0.83197203E-02 0.59475500E+03</pdfrwt>
<totfact> 0.13402700E+03</totfact>
</mgrwt>
</event>
<event>
 4    1  0.4895160E-005  0.4170834E+03  0.7818608E-02  0.1038020E+00
         -2   -1    0    0    0  501 -0.00000000000E+00  0.00000000000E+00  0.72400636490E+02  0.72400636535E+02  0.25500000000E-02 0. -1.
          2   -1    0    0  501    0  0.00000000000E+00 -0.00000000000E+00 -0.60068029139E+03  0.60068029139E+03  0.25500000000E-02 0.  1.
    5000001    1    1    2    0    0  0.46138880858E+02  0.15796266374E+03 -0.29112597731E+03  0.35772102835E+03  0.12700000000E+03 0.  0.
   -5000001    1    1    2    0    0 -0.46138880858E+02 -0.15796266374E+03 -0.23715367759E+03  0.31535989957E+03  0.12700000000E+03 0.  0.
<mgrwt>
<rscale>  0 0.41708338E+03</rscale>
<asrwt>0</asrwt>
<pdfrwt beam="1">  1        2 0.85811467E-01 0.41708338E+03</pdfrwt>
<pdfrwt beam="2">  1       -2 0.10342948E-01 0.41708338E+03</pdfrwt>
<totfact> 0.34785015E+03</totfact>
</mgrwt>
</event>
<event>
 4    1  0.4895160E-005  0.9318896E+03  0.7818608E-02  0.9386573E-01
          2   -1    0    0  501    0  0.00000000000E+00  0.00000000000E+00  0.71867111153E+03  0.71867111153E+03  0.25500000000E-02 0.  1.
         -2   -1    0    0    0  501 -0.00000000000E+00 -0.00000000000E+00 -0.30209165035E+03  0.30209165036E+03  0.25500000000E-02 0. -1.
    5000001    1    1    2    0    0  0.36442581640E+03  0.69514497901E+02 -0.67380239282E+02  0.39787879778E+03  0.12700000000E+03 0.  0.
   -5000001    1    1    2    0    0 -0.36442581640E+03 -0.69514497901E+02  0.48395970046E+03  0.62288396411E+03  0.12700000000E+03 0.  0.
<mgrwt>
<rscale>  0 0.93188957E+03</rscale>
<asrwt>0</asrwt>
<pdfrwt beam="1">  1        2 0.10266730E+00 0.93188957E+03</pdfrwt>
<pdfrwt beam="2">  1       -2 0.43155950E-01 0.93188957E+03</pdfrwt>
<totfact> 0.22186828E+02</totfact>
</mgrwt>
</event>
<event>
 4    1  0.4895160E-005  0.4010531E+03  0.7818608E-02  0.1043416E+00
          2   -1    0    0  501    0  0.00000000000E+00  0.00000000000E+00  0.40067421897E+04  0.40067421897E+04  0.25500000000E-02 0.  1.
         -2   -1    0    0    0  501 -0.00000000000E+00 -0.00000000000E+00 -0.10035807312E+02  0.10035807636E+02  0.25500000000E-02 0. -1.
    5000001    1    1    2    0    0 -0.47521664331E+02  0.86563476413E+02  0.31973122686E+04  0.32013569446E+04  0.12700000000E+03 0.  0.
   -5000001    1    1    2    0    0  0.47521664331E+02 -0.86563476413E+02  0.79939411379E+03  0.81542105270E+03  0.12700000000E+03 0.  0.
<mgrwt>
<rscale>  0 0.40105308E+03</rscale>
<asrwt>0</asrwt>
<pdfrwt beam="1">  1        2 0.57239133E+00 0.40105308E+03</pdfrwt>
<pdfrwt beam="2">  1       -2 0.14336878E-02 0.40105308E+03</pdfrwt>
<totfact> 0.88215987E+02</totfact>
</mgrwt>
</event>
<event>
 4    1  0.4895160E-005  0.3787588E+03  0.7818608E-02  0.1051393E+00
         -2   -1    0    0    0  501 -0.00000000000E+00  0.00000000000E+00  0.29133991184E+02  0.29133991296E+02  0.25500000000E-02 0. -1.
          2   -1    0    0  501    0  0.00000000000E+00 -0.00000000000E+00 -0.12310213391E+04  0.12310213391E+04  0.25500000000E-02 0.  1.
    5000001    1    1    2    0    0 -0.28189257642E+02  0.13625966891E+03 -0.53658123213E+03  0.56869126096E+03  0.12700000000E+03 0.  0.
   -5000001    1    1    2    0    0  0.28189257642E+02 -0.13625966891E+03 -0.66530611574E+03  0.69146406939E+03  0.12700000000E+03 0.  0.
<mgrwt>
<rscale>  0 0.37875884E+03</rscale>
<asrwt>0</asrwt>
<pdfrwt beam="1">  1        2 0.17586016E+00 0.37875884E+03</pdfrwt>
<pdfrwt beam="2">  1       -2 0.41619995E-02 0.37875884E+03</pdfrwt>
<totfact> 0.56083256E+03</totfact>
</mgrwt>
</event>
<event>
 4    1  0.4895160E-005  0.4162081E+03  0.7818608E-02  0.1038308E+00
         -2   -1    0    0    0  501 -0.00000000000E+00  0.00000000000E+00  0.23997216340E+02  0.23997216475E+02  0.25500000000E-02 0. -1.
          2   -1    0    0  501    0  0.00000000000E+00 -0.00000000000E+00 -0.18046795635E+04  0.18046795635E+04  0.25500000000E-02 0.  1.
    5000001    1    1    2    0    0 -0.90299862089E+02  0.48674061054E+02 -0.14573626762E+04  0.14664781619E+04  0.12700000000E+03 0.  0.
   -5000001    1    1    2    0    0  0.90299862089E+02 -0.48674061054E+02 -0.32331967092E+03  0.36219861805E+03  0.12700000000E+03 0.  0.
<mgrwt>
<rscale>  0 0.41620805E+03</rscale>
<asrwt>0</asrwt>
<pdfrwt beam="1">  1        2 0.25781128E+00 0.41620805E+03</pdfrwt>
<pdfrwt beam="2">  1       -2 0.34281749E-02 0.41620805E+03</pdfrwt>
<totfact> 0.38145526E+03</totfact>
</mgrwt>
</event>
<event>
 4    1  0.4895160E-005  0.3846712E+03  0.7818608E-02  0.1049221E+00
         -2   -1    0    0    0  501 -0.00000000000E+00  0.00000000000E+00  0.46533220012E+02  0.46533220082E+02  0.25500000000E-02 0. -1.
          2   -1    0    0  501    0  0.00000000000E+00 -0.00000000000E+00 -0.79498001445E+03  0.79498001445E+03  0.25500000000E-02 0.  1.
    5000001    1    1    2    0    0 -0.46809656495E+02 -0.89111753777E+02 -0.60084966114E+03  0.62231934237E+03  0.12700000000E+03 0.  0.
   -5000001    1    1    2    0    0  0.46809656495E+02  0.89111753777E+02 -0.14759713330E+03  0.21919389216E+03  0.12700000000E+03 0.  0.
<mgrwt>
<rscale>  0 0.38467118E+03</rscale>
<asrwt>0</asrwt>
<pdfrwt beam="1">  1        2 0.11356857E+00 0.38467118E+03</pdfrwt>
<pdfrwt beam="2">  1       -2 0.66476033E-02 0.38467118E+03</pdfrwt>
<totfact> 0.49920820E+03</totfact>
</mgrwt>
</event>
<event>
 4    1  0.4895160E-005  0.3799642E+03  0.7818608E-02  0.1050947E+00
          2   -1    0    0  501    0  0.00000000000E+00  0.00000000000E+00  0.14457997540E+04  0.14457997540E+04  0.25500000000E-02 0.  1.
         -2   -1    0    0    0  501 -0.00000000000E+00 -0.00000000000E+00 -0.24964170251E+02  0.24964170381E+02  0.25500000000E-02 0. -1.
    5000001    1    1    2    0    0 -0.10823563397E+03  0.96333917042E+01  0.10600010003E+04  0.10730977939E+04  0.12700000000E+03 0.  0.
   -5000001    1    1    2    0    0  0.10823563397E+03 -0.96333917042E+01  0.36083458342E+03  0.39766613043E+03  0.12700000000E+03 0.  0.
<mgrwt>
<rscale>  0 0.37996416E+03</rscale>
<asrwt>0</asrwt>
<pdfrwt beam="1">  1        2 0.20654283E+00 0.37996416E+03</pdfrwt>
<pdfrwt beam="2">  1       -2 0.35663099E-02 0.37996416E+03</pdfrwt>
<totfact> 0.54552454E+03</totfact>
</mgrwt>
</event>
<event>
 4    1  0.4895160E-005  0.6568191E+03  0.7818608E-02  0.9794067E-01
          2   -1    0    0  501    0  0.00000000000E+00  0.00000000000E+00  0.46677868055E+03  0.46677868056E+03  0.25500000000E-02 0.  1.
         -2   -1    0    0    0  501 -0.00000000000E+00 -0.00000000000E+00 -0.23105775949E+03  0.23105775950E+03  0.25500000000E-02 0. -1.
    5000001    1    1    2    0    0  0.95227547871E+02  0.28618742718E+03  0.14700152062E+03  0.35876172652E+03  0.12700000000E+03 0.  0.
   -5000001    1    1    2    0    0 -0.95227547871E+02 -0.28618742718E+03  0.88719400443E+02  0.33907471354E+03  0.12700000000E+03 0.  0.
<mgrwt>
<rscale>  0 0.65681911E+03</rscale>
<asrwt>0</asrwt>
<pdfrwt beam="1">  1        2 0.66682668E-01 0.65681911E+03</pdfrwt>
<pdfrwt beam="2">  1       -2 0.33008252E-01 0.65681911E+03</pdfrwt>
<totfact> 0.62530930E+02</totfact>
</mgrwt>
</event>
<event>
 4    1  0.4895160E-005  0.2065665E+04  0.7818608E-02  0.8576521E-01
         -2   -1    0    0    0  501 -0.00000000000E+00  0.00000000000E+00  0.79112521802E+03  0.79112521802E+03  0.25500000000E-02 0. -1.
          2   -1    0    0  501    0  0.00000000000E+00 -0.00000000000E+00 -0.13483871638E+04  0.13483871638E+04  0.25500000000E-02 0.  1.
    5000001    1    1    2    0    0 -0.78772570883E+03  0.44540258614E+03  0.21994983354E+03  0.93989477356E+03  0.12700000000E+03 0.  0.
   -5000001    1    1    2    0    0  0.78772570883E+03 -0.44540258614E+03 -0.77721177929E+03  0.11996176082E+04  0.12700000000E+03 0.  0.
<mgrwt>
<rscale>  0 0.20656651E+04</rscale>
<asrwt>0</asrwt>
<pdfrwt beam="1">  1        2 0.19262674E+00 0.20656651E+04</pdfrwt>
<pdfrwt beam="2">  1       -2 0.11301789E+00 0.20656651E+04</pdfrwt>
<totfact> 0.10081388E+01</totfact>
</mgrwt>
</event>
<event>
 4    1  0.4895160E-005  0.4432067E+03  0.7818608E-02  0.1029767E+00
         -2   -1    0    0    0  501 -0.00000000000E+00  0.00000000000E+00  0.74855057503E+02  0.74855057546E+02  0.25500000000E-02 0. -1.
          2   -1    0    0  501    0  0.00000000000E+00 -0.00000000000E+00 -0.65604166034E+03  0.65604166035E+03  0.25500000000E-02 0.  1.
    5000001    1    1    2    0    0 -0.68644617035E+02  0.16562090787E+03 -0.33829416288E+03  0.40337861769E+03  0.12700000000E+03 0.  0.
   -5000001    1    1    2    0    0  0.68644617035E+02 -0.16562090787E+03 -0.24289243996E+03  0.32751810020E+03  0.12700000000E+03 0.  0.
<mgrwt>
<rscale>  0 0.44320666E+03</rscale>
<asrwt>0</asrwt>
<pdfrwt beam="1">  1        2 0.93720234E-01 0.44320666E+03</pdfrwt>
<pdfrwt beam="2">  1       -2 0.10693580E-01 0.44320666E+03</pdfrwt>
<totfact> 0.29741074E+03</totfact>
</mgrwt>
</event>
<event>
 4    1  0.4895160E-005  0.3362976E+03  0.7818608E-02  0.1068384E+00
          2   -1    0    0  501    0  0.00000000000E+00  0.00000000000E+00  0.54526244875E+02  0.54526244935E+02  0.25500000000E-02 0.  1.
         -2   -1    0    0    0  501 -0.00000000000E+00 -0.00000000000E+00 -0.51853976846E+03  0.51853976847E+03  0.25500000000E-02 0. -1.
    5000001    1    1    2    0    0  0.31422099613E+02  0.85288367867E+02 -0.33819991801E+03  0.37251797082E+03  0.12700000000E+03 0.  0.
   -5000001    1    1    2    0    0 -0.31422099613E+02 -0.85288367867E+02 -0.12581360557E+03  0.20054804258E+03  0.12700000000E+03 0.  0.
<mgrwt>
<rscale>  0 0.33629764E+03</rscale>
<asrwt>0</asrwt>
<pdfrwt beam="1">  1        2 0.77894639E-02 0.33629764E+03</pdfrwt>
<pdfrwt beam="2">  1       -2 0.74077107E-01 0.33629764E+03</pdfrwt>
<totfact> 0.14922940E+03</totfact>
</mgrwt>
</event>
<event>
 4    1  0.4895160E-005  0.8619486E+03  0.7818608E-02  0.9474439E-01
          2   -1    0    0  501    0  0.00000000000E+00  0.00000000000E+00  0.13391099039E+04  0.13391099039E+04  0.25500000000E-02 0.  1.
         -2   -1    0    0    0  501 -0.00000000000E+00 -0.00000000000E+00 -0.13870319776E+03  0.13870319778E+03  0.25500000000E-02 0. -1.
    5000001    1    1    2    0    0 -0.25924489210E+03  0.28949135710E+03  0.36639731991E+03  0.54898921296E+03  0.12700000000E+03 0.  0.
   -5000001    1    1    2    0    0  0.25924489210E+03 -0.28949135710E+03  0.83400938619E+03  0.92882388867E+03  0.12700000000E+03 0.  0.
<mgrwt>
<rscale>  0 0.86194855E+03</rscale>
<asrwt>0</asrwt>
<pdfrwt beam="1">  1        2 0.19130140E+00 0.86194855E+03</pdfrwt>
<pdfrwt beam="2">  1       -2 0.19814744E-01 0.86194855E+03</pdfrwt>
<totfact> 0.38842624E+02</totfact>
</mgrwt>
</event>
<event>
 4    1  0.4895160E-005  0.3734536E+03  0.7818608E-02  0.1053380E+00
         -2   -1    0    0    0  501 -0.00000000000E+00  0.00000000000E+00  0.16805636125E+02  0.16805636318E+02  0.25500000000E-02 0. -1.
          2   -1    0    0  501    0  0.00000000000E+00 -0.00000000000E+00 -0.20747146898E+04  0.20747146898E+04  0.25500000000E-02 0.  1.
    5000001    1    1    2    0    0 -0.12185117360E+03 -0.52342484758E+02 -0.83899527345E+03  0.85885360399E+03  0.12700000000E+03 0.  0.
   -5000001    1    1    2    0    0  0.12185117360E+03  0.52342484758E+02 -0.12189137803E+04  0.12326667222E+04  0.12700000000E+03 0.  0.
<mgrwt>
<rscale>  0 0.37345361E+03</rscale>
<asrwt>0</asrwt>
<pdfrwt beam="1">  1        2 0.29638765E+00 0.37345361E+03</pdfrwt>
<pdfrwt beam="2">  1       -2 0.24008065E-02 0.37345361E+03</pdfrwt>
<totfact> 0.47905116E+03</totfact>
</mgrwt>
</event>
<event>
 4    1  0.4895160E-005  0.3910232E+03  0.7818608E-02  0.1046933E+00
          2   -1    0    0  501    0  0.00000000000E+00  0.00000000000E+00  0.68100294141E+03  0.68100294141E+03  0.25500000000E-02 0.  1.
         -2   -1    0    0    0  501 -0.00000000000E+00 -0.00000000000E+00 -0.56130141662E+02  0.56130141720E+02  0.25500000000E-02 0. -1.
    5000001    1    1    2    0    0 -0.62110987449E+02 -0.12827812769E+03  0.39203165910E+03  0.43603999191E+03  0.12700000000E+03 0.  0.
   -5000001    1    1    2    0    0  0.62110987449E+02  0.12827812769E+03  0.23284114064E+03  0.30109309122E+03  0.12700000000E+03 0.  0.
<mgrwt>
<rscale>  0 0.39102323E+03</rscale>
<asrwt>0</asrwt>
<pdfrwt beam="1">  1        2 0.97286127E-01 0.39102323E+03</pdfrwt>
<pdfrwt beam="2">  1       -2 0.80185923E-02 0.39102323E+03</pdfrwt>
<totfact> 0.44971721E+03</totfact>
</mgrwt>
</event>
<event>
 4    1  0.4895160E-005  0.3312610E+03  0.7818608E-02  0.1070580E+00
         -2   -1    0    0    0  501 -0.00000000000E+00  0.00000000000E+00  0.17596840392E+02  0.17596840577E+02  0.25500000000E-02 0. -1.
          2   -1    0    0  501    0  0.00000000000E+00 -0.00000000000E+00 -0.15589994809E+04  0.15589994809E+04  0.25500000000E-02 0.  1.
    5000001    1    1    2    0    0  0.96112496752E+02  0.73523324268E+01 -0.55717564765E+03  0.57953892981E+03  0.12700000000E+03 0.  0.
   -5000001    1    1    2    0    0 -0.96112496752E+02 -0.73523324268E+01 -0.98422699289E+03  0.99705739171E+03  0.12700000000E+03 0.  0.
<mgrwt>
<rscale>  0 0.33126102E+03</rscale>
<asrwt>0</asrwt>
<pdfrwt beam="1">  1        2 0.22271412E+00 0.33126102E+03</pdfrwt>
<pdfrwt beam="2">  1       -2 0.25138354E-02 0.33126102E+03</pdfrwt>
<totfact> 0.80560017E+03</totfact>
</mgrwt>
</event>
<event>
 4    1  0.4895160E-005  0.4527227E+03  0.7818608E-02  0.1026913E+00
         -2   -1    0    0    0  501 -0.00000000000E+00  0.00000000000E+00  0.25647421781E+03  0.25647421782E+03  0.25500000000E-02 0. -1.
          2   -1    0    0  501    0  0.00000000000E+00 -0.00000000000E+00 -0.19978408513E+03  0.19978408515E+03  0.25500000000E-02 0.  1.
    5000001    1    1    2    0    0  0.13792596553E+03 -0.19466127401E+02 -0.97965139950E+02  0.21243509769E+03  0.12700000000E+03 0.  0.
   -5000001    1    1    2    0    0 -0.13792596553E+03  0.19466127401E+02  0.15465527263E+03  0.24382320528E+03  0.12700000000E+03 0.  0.
<mgrwt>
<rscale>  0 0.45272273E+03</rscale>
<asrwt>0</asrwt>
<pdfrwt beam="1">  1        2 0.28540584E-01 0.45272273E+03</pdfrwt>
<pdfrwt beam="2">  1       -2 0.36639174E-01 0.45272273E+03</pdfrwt>
<totfact> 0.13172338E+03</totfact>
</mgrwt>
</event>
<event>
 4    1  0.4895160E-005  0.4891139E+03  0.7818608E-02  0.1016660E+00
         -2   -1    0    0    0  501 -0.00000000000E+00  0.00000000000E+00  0.45346381877E+03  0.45346381878E+03  0.25500000000E-02 0. -1.
          2   -1    0    0  501    0  0.00000000000E+00 -0.00000000000E+00 -0.13189167024E+03  0.13189167027E+03  0.25500000000E-02 0.  1.
    5000001    1    1    2    0    0  0.15896139016E+03  0.11968140567E+03  0.23729253207E+03  0.33470749648E+03  0.12700000000E+03 0.  0.
   -5000001    1    1    2    0    0 -0.15896139016E+03 -0.11968140567E+03  0.84279616455E+02  0.25064799256E+03  0.12700000000E+03 0.  0.
<mgrwt>
<rscale>  0 0.48911389E+03</rscale>
<asrwt>0</asrwt>
<pdfrwt beam="1">  1        2 0.18841667E-01 0.48911389E+03</pdfrwt>
<pdfrwt beam="2">  1       -2 0.64780545E-01 0.48911389E+03</pdfrwt>
<totfact> 0.67461323E+02</totfact>
</mgrwt>
</event>
<event>
 4    1  0.4895160E-005  0.3525280E+03  0.7818608E-02  0.1061582E+00
         -2   -1    0    0    0  501 -0.00000000000E+00  0.00000000000E+00  0.18832634432E+02  0.18832634604E+02  0.25500000000E-02 0.  1.
          2   -1    0    0  501    0  0.00000000000E+00 -0.00000000000E+00 -0.16497427835E+04  0.16497427835E+04  0.25500000000E-02 0. -1.
    5000001    1    1    2    0    0  0.48897768009E+02  0.10502140712E+03 -0.99995861975E+03  0.10146263987E+04  0.12700000000E+03 0.  0.
   -5000001    1    1    2    0    0 -0.48897768009E+02 -0.10502140712E+03 -0.63095152928E+03  0.65394901940E+03  0.12700000000E+03 0.  0.
<mgrwt>
<rscale>  0 0.35252803E+03</rscale>
<asrwt>0</asrwt>
<pdfrwt beam="1">  1        2 0.23567745E+00 0.35252803E+03</pdfrwt>
<pdfrwt beam="2">  1       -2 0.26903774E-02 0.35252803E+03</pdfrwt>
<totfact> 0.65597060E+03</totfact>
</mgrwt>
</event>
<event>
 4    1  0.4895160E-005  0.3035459E+03  0.7818608E-02  0.1083481E+00
         -2   -1    0    0    0  501 -0.00000000000E+00  0.00000000000E+00  0.18594854413E+03  0.18594854414E+03  0.25500000000E-02 0. -1.
          2   -1    0    0  501    0  0.00000000000E+00 -0.00000000000E+00 -0.12387849192E+03  0.12387849195E+03  0.25500000000E-02 0.  1.
    5000001    1    1    2    0    0  0.60503064092E+02 -0.13863259726E+02 -0.25364262799E+02  0.14361461124E+03  0.12700000000E+03 0.  0.
   -5000001    1    1    2    0    0 -0.60503064092E+02  0.13863259726E+02  0.87434315003E+02  0.16621242485E+03  0.12700000000E+03 0.  0.
<mgrwt>
<rscale>  0 0.30354588E+03</rscale>
<asrwt>0</asrwt>
<pdfrwt beam="1">  1        2 0.17696928E-01 0.30354588E+03</pdfrwt>
<pdfrwt beam="2">  1       -2 0.26564077E-01 0.30354588E+03</pdfrwt>
<totfact> 0.40788467E+03</totfact>
</mgrwt>
</event>
<event>
 4    1  0.4895160E-005  0.4132574E+03  0.7818608E-02  0.1039283E+00
          2   -1    0    0  501    0  0.00000000000E+00  0.00000000000E+00  0.14890310538E+03  0.14890310540E+03  0.25500000000E-02 0.  1.
         -2   -1    0    0    0  501 -0.00000000000E+00 -0.00000000000E+00 -0.28673289772E+03  0.28673289773E+03  0.25500000000E-02 0. -1.
    5000001    1    1    2    0    0  0.27176487859E+02 -0.15942720180E+03 -0.47548493109E+02  0.21105793840E+03  0.12700000000E+03 0.  0.
   -5000001    1    1    2    0    0 -0.27176487859E+02  0.15942720180E+03 -0.90281299232E+02  0.22457806473E+03  0.12700000000E+03 0.  0.
<mgrwt>
<rscale>  0 0.41325740E+03</rscale>
<asrwt>0</asrwt>
<pdfrwt beam="1">  1        2 0.21271872E-01 0.41325740E+03</pdfrwt>
<pdfrwt beam="2">  1       -2 0.40961842E-01 0.41325740E+03</pdfrwt>
<totfact> 0.14838214E+03</totfact>
</mgrwt>
</event>
<event>
 4    1  0.4895160E-005  0.4839212E+03  0.7818608E-02  0.1018063E+00
         -2   -1    0    0    0  501 -0.00000000000E+00  0.00000000000E+00  0.34673004427E+03  0.34673004427E+03  0.25500000000E-02 0. -1.
          2   -1    0    0  501    0  0.00000000000E+00 -0.00000000000E+00 -0.16884872580E+03  0.16884872582E+03  0.25500000000E-02 0.  1.
    5000001    1    1    2    0    0 -0.12431745742E+03  0.15608441414E+03  0.14325353341E+03  0.27652802641E+03  0.12700000000E+03 0.  0.
   -5000001    1    1    2    0    0  0.12431745742E+03 -0.15608441414E+03  0.34627785052E+02  0.23905074368E+03  0.12700000000E+03 0.  0.
<mgrwt>
<rscale>  0 0.48392118E+03</rscale>
<asrwt>0</asrwt>
<pdfrwt beam="1">  1        2 0.24121246E-01 0.48392118E+03</pdfrwt>
<pdfrwt beam="2">  1       -2 0.49532864E-01 0.48392118E+03</pdfrwt>
<totfact> 0.88370140E+02</totfact>
</mgrwt>
</event>
<event>
 4    1  0.4895160E-005  0.6067812E+03  0.7818608E-02  0.9891436E-01
         -2   -1    0    0    0  501 -0.00000000000E+00  0.00000000000E+00  0.54692612165E+02  0.54692612224E+02  0.25500000000E-02 0. -1.
          2   -1    0    0  501    0  0.00000000000E+00 -0.00000000000E+00 -0.16829666676E+04  0.16829666676E+04  0.25500000000E-02 0.  1.
    5000001    1    1    2    0    0 -0.10478466075E+03 -0.14463449479E+03 -0.14149607953E+04  0.14318316990E+04  0.12700000000E+03 0.  0.
   -5000001    1    1    2    0    0  0.10478466075E+03  0.14463449479E+03 -0.21331326018E+03  0.30582758081E+03  0.12700000000E+03 0.  0.
<mgrwt>
<rscale>  0 0.60678116E+03</rscale>
<asrwt>0</asrwt>
<pdfrwt beam="1">  1        2 0.24042378E+00 0.60678116E+03</pdfrwt>
<pdfrwt beam="2">  1       -2 0.78132314E-02 0.60678116E+03</pdfrwt>
<totfact> 0.12187616E+03</totfact>
</mgrwt>
</event>
<event>
 4    1  0.4895160E-005  0.3024374E+03  0.7818608E-02  0.1084028E+00
          2   -1    0    0  501    0  0.00000000000E+00  0.00000000000E+00  0.77066388518E+02  0.77066388561E+02  0.25500000000E-02 0.  1.
         -2   -1    0    0    0  501 -0.00000000000E+00 -0.00000000000E+00 -0.29671953080E+03  0.29671953081E+03  0.25500000000E-02 0. -1.
    5000001    1    1    2    0    0 -0.94636620018E+01 -0.79859897346E+02 -0.89483207078E+02  0.17493829898E+03  0.12700000000E+03 0.  0.
   -5000001    1    1    2    0    0  0.94636620018E+01  0.79859897346E+02 -0.13016993520E+03  0.19884762039E+03  0.12700000000E+03 0.  0.
<mgrwt>
<rscale>  0 0.30243745E+03</rscale>
<asrwt>0</asrwt>
<pdfrwt beam="1">  1        2 0.11009484E-01 0.30243745E+03</pdfrwt>
<pdfrwt beam="2">  1       -2 0.42388504E-01 0.30243745E+03</pdfrwt>
<totfact> 0.30264092E+03</totfact>
</mgrwt>
</event>
<event>
 4    1  0.4895160E-005  0.2787161E+03  0.7818608E-02  0.1096392E+00
          2   -1    0    0  501    0  0.00000000000E+00  0.00000000000E+00  0.46048108662E+03  0.46048108663E+03  0.25500000000E-02 0.  1.
         -2   -1    0    0    0  501 -0.00000000000E+00 -0.00000000000E+00 -0.42174727589E+02  0.42174727666E+02  0.25500000000E-02 0. -1.
    5000001    1    1    2    0    0 -0.53179015567E+02  0.38388585081E+01  0.17094176709E+03  0.21952865933E+03  0.12700000000E+03 0.  0.
   -5000001    1    1    2    0    0  0.53179015567E+02 -0.38388585081E+01  0.24736459194E+03  0.28312715496E+03  0.12700000000E+03 0.  0.
<mgrwt>
<rscale>  0 0.27871609E+03</rscale>
<asrwt>0</asrwt>
<pdfrwt beam="1">  1        2 0.65783009E-01 0.27871609E+03</pdfrwt>
<pdfrwt beam="2">  1       -2 0.60249614E-02 0.27871609E+03</pdfrwt>
<totfact> 0.10842190E+04</totfact>
</mgrwt>
</event>
<event>
 4    1  0.4895160E-005  0.5019319E+03  0.7818608E-02  0.1013276E+00
         -2   -1    0    0    0  501 -0.00000000000E+00  0.00000000000E+00  0.62952998689E+02  0.62952998741E+02  0.25500000000E-02 0. -1.
          2   -1    0    0  501    0  0.00000000000E+00 -0.00000000000E+00 -0.10004911375E+04  0.10004911375E+04  0.25500000000E-02 0.  1.
    5000001    1    1    2    0    0  0.20050762498E+03  0.75769997192E+02 -0.53270042532E+03  0.58808429947E+03  0.12700000000E+03 0.  0.
   -5000001    1    1    2    0    0 -0.20050762498E+03 -0.75769997192E+02 -0.40483771348E+03  0.47535983676E+03  0.12700000000E+03 0.  0.
<mgrwt>
<rscale>  0 0.50193194E+03</rscale>
<asrwt>0</asrwt>
<pdfrwt beam="1">  1        2 0.14292730E+00 0.50193194E+03</pdfrwt>
<pdfrwt beam="2">  1       -2 0.89932861E-02 0.50193194E+03</pdfrwt>
<totfact> 0.22926227E+03</totfact>
</mgrwt>
</event>
<event>
 4    1  0.4895160E-005  0.4919922E+03  0.7818608E-02  0.1015890E+00
          2   -1    0    0  501    0  0.00000000000E+00  0.00000000000E+00  0.21232798629E+03  0.21232798631E+03  0.25500000000E-02 0.  1.
         -2   -1    0    0    0  501 -0.00000000000E+00 -0.00000000000E+00 -0.28500282172E+03  0.28500282173E+03  0.25500000000E-02 0. -1.
    5000001    1    1    2    0    0 -0.11441767285E+03 -0.65190566961E+02  0.12989721856E+03  0.22437357525E+03  0.12700000000E+03 0.  0.
   -5000001    1    1    2    0    0  0.11441767285E+03  0.65190566961E+02 -0.20257205398E+03  0.27295723280E+03  0.12700000000E+03 0.  0.
<mgrwt>
<rscale>  0 0.49199218E+03</rscale>
<asrwt>0</asrwt>
<pdfrwt beam="1">  1        2 0.30332570E-01 0.49199218E+03</pdfrwt>
<pdfrwt beam="2">  1       -2 0.40714689E-01 0.49199218E+03</pdfrwt>
<totfact> 0.10053592E+03</totfact>
</mgrwt>
</event>
<event>
 4    1  0.4895160E-005  0.4152260E+03  0.7818608E-02  0.1038631E+00
         -2   -1    0    0    0  501 -0.00000000000E+00  0.00000000000E+00  0.25874144069E+03  0.25874144070E+03  0.25500000000E-02 0. -1.
          2   -1    0    0  501    0  0.00000000000E+00 -0.00000000000E+00 -0.16658777408E+03  0.16658777410E+03  0.25500000000E-02 0.  1.
    5000001    1    1    2    0    0 -0.34390775214E+02  0.16048486081E+03  0.52226638936E+02  0.21399705087E+03  0.12700000000E+03 0.  0.
   -5000001    1    1    2    0    0  0.34390775214E+02 -0.16048486081E+03  0.39927027672E+02  0.21133216392E+03  0.12700000000E+03 0.  0.
<mgrwt>
<rscale>  0 0.41522601E+03</rscale>
<asrwt>0</asrwt>
<pdfrwt beam="1">  1        2 0.23798254E-01 0.41522601E+03</pdfrwt>
<pdfrwt beam="2">  1       -2 0.36963063E-01 0.41522601E+03</pdfrwt>
<totfact> 0.15891233E+03</totfact>
</mgrwt>
</event>
<event>
 4    1  0.4895160E-005  0.3286955E+03  0.7818608E-02  0.1071716E+00
         -2   -1    0    0    0  501 -0.00000000000E+00  0.00000000000E+00  0.31594401933E+03  0.31594401934E+03  0.25500000000E-02 0. -1.
          2   -1    0    0  501    0  0.00000000000E+00 -0.00000000000E+00 -0.85490405199E+02  0.85490405237E+02  0.25500000000E-02 0.  1.
    5000001    1    1    2    0    0  0.10123565974E+02 -0.78547666009E+02  0.32313866057E+02  0.15311893535E+03  0.12700000000E+03 0.  0.
   -5000001    1    1    2    0    0 -0.10123565974E+02  0.78547666009E+02  0.19813974807E+03  0.24831548923E+03  0.12700000000E+03 0.  0.
<mgrwt>
<rscale>  0 0.32869550E+03</rscale>
<asrwt>0</asrwt>
<pdfrwt beam="1">  1        2 0.12212915E-01 0.32869550E+03</pdfrwt>
<pdfrwt beam="2">  1       -2 0.45134859E-01 0.32869550E+03</pdfrwt>
<totfact> 0.23628272E+03</totfact>
</mgrwt>
</event>
<event>
 4    1  0.4895160E-005  0.3874116E+03  0.7818608E-02  0.1048228E+00
         -2   -1    0    0    0  501 -0.00000000000E+00  0.00000000000E+00  0.28395933875E+02  0.28395933989E+02  0.25500000000E-02 0. -1.
          2   -1    0    0  501    0  0.00000000000E+00 -0.00000000000E+00 -0.13213840203E+04  0.13213840203E+04  0.25500000000E-02 0.  1.
    5000001    1    1    2    0    0 -0.13817131148E+03  0.26843277126E+02 -0.78503067327E+03  0.80759769119E+03  0.12700000000E+03 0.  0.
   -5000001    1    1    2    0    0  0.13817131148E+03 -0.26843277126E+02 -0.50795741319E+03  0.54218226314E+03  0.12700000000E+03 0.  0.
<mgrwt>
<rscale>  0 0.38741158E+03</rscale>
<asrwt>0</asrwt>
<pdfrwt beam="1">  1        2 0.18876911E+00 0.38741158E+03</pdfrwt>
<pdfrwt beam="2">  1       -2 0.40565628E-02 0.38741158E+03</pdfrwt>
<totfact> 0.52152367E+03</totfact>
</mgrwt>
</event>
<event>
 4    1  0.4895160E-005  0.5143854E+03  0.7818608E-02  0.1010091E+00
          2   -1    0    0  501    0  0.00000000000E+00  0.00000000000E+00  0.21223470972E+04  0.21223470972E+04  0.25500000000E-02 0.  1.
         -2   -1    0    0    0  501 -0.00000000000E+00 -0.00000000000E+00 -0.31167419707E+02  0.31167419812E+02  0.25500000000E-02 0. -1.
    5000001    1    1    2    0    0 -0.12174619270E+03  0.57401632734E+02  0.29781967549E+03  0.35063177550E+03  0.12700000000E+03 0.  0.
   -5000001    1    1    2    0    0  0.12174619270E+03 -0.57401632734E+02  0.17933600020E+04  0.18028827415E+04  0.12700000000E+03 0.  0.
<mgrwt>
<rscale>  0 0.51438539E+03</rscale>
<asrwt>0</asrwt>
<pdfrwt beam="1">  1        2 0.30319249E+00 0.51438539E+03</pdfrwt>
<pdfrwt beam="2">  1       -2 0.44524879E-02 0.51438539E+03</pdfrwt>
<totfact> 0.17726863E+03</totfact>
</mgrwt>
</event>
<event>
 4    1  0.4895160E-005  0.4752794E+03  0.7818608E-02  0.1020441E+00
          2   -1    0    0  501    0  0.00000000000E+00  0.00000000000E+00  0.10226233571E+04  0.10226233571E+04  0.25500000000E-02 0.  1.
         -2   -1    0    0    0  501 -0.00000000000E+00 -0.00000000000E+00 -0.55223292641E+02  0.55223292700E+02  0.25500000000E-02 0. -1.
    5000001    1    1    2    0    0 -0.82409862538E+02 -0.18300625915E+03  0.46599469756E+03  0.52303224994E+03  0.12700000000E+03 0.  0.
   -5000001    1    1    2    0    0  0.82409862538E+02  0.18300625915E+03  0.50140536689E+03  0.55481439985E+03  0.12700000000E+03 0.  0.
<mgrwt>
<rscale>  0 0.47527941E+03</rscale>
<asrwt>0</asrwt>
<pdfrwt beam="1">  1        2 0.14608903E+00 0.47527941E+03</pdfrwt>
<pdfrwt beam="2">  1       -2 0.78890429E-02 0.47527941E+03</pdfrwt>
<totfact> 0.27390147E+03</totfact>
</mgrwt>
</event>
<event>
 4    1  0.4895160E-005  0.4281778E+03  0.7818608E-02  0.1034437E+00
         -2   -1    0    0    0  501 -0.00000000000E+00  0.00000000000E+00  0.11172122903E+03  0.11172122906E+03  0.25500000000E-02 0. -1.
          2   -1    0    0  501    0  0.00000000000E+00 -0.00000000000E+00 -0.41025382644E+03  0.41025382645E+03  0.25500000000E-02 0.  1.
    5000001    1    1    2    0    0 -0.15949676551E+03  0.27292823827E+02 -0.76930177362E+02  0.21961641248E+03  0.12700000000E+03 0.  0.
   -5000001    1    1    2    0    0  0.15949676551E+03 -0.27292823827E+02 -0.22160242005E+03  0.30235864303E+03  0.12700000000E+03 0.  0.
<mgrwt>
<rscale>  0 0.42817782E+03</rscale>
<asrwt>0</asrwt>
<pdfrwt beam="1">  1        2 0.58607689E-01 0.42817782E+03</pdfrwt>
<pdfrwt beam="2">  1       -2 0.15960176E-01 0.42817782E+03</pdfrwt>
<totfact> 0.26192033E+03</totfact>
</mgrwt>
</event>
<event>
 4    1  0.4895160E-005  0.3868791E+03  0.7818608E-02  0.1048420E+00
         -2   -1    0    0    0  501 -0.00000000000E+00  0.00000000000E+00  0.25889412483E+02  0.25889412609E+02  0.25500000000E-02 0. -1.
          2   -1    0    0  501    0  0.00000000000E+00 -0.00000000000E+00 -0.14453343174E+04  0.14453343174E+04  0.25500000000E-02 0.  1.
    5000001    1    1    2    0    0 -0.34050563205E+02  0.13817788613E+03 -0.58724588401E+03  0.61744578495E+03  0.12700000000E+03 0.  0.
   -5000001    1    1    2    0    0  0.34050563205E+02 -0.13817788613E+03 -0.83219902091E+03  0.85377794506E+03  0.12700000000E+03 0.  0.
<mgrwt>
<rscale>  0 0.38687908E+03</rscale>
<asrwt>0</asrwt>
<pdfrwt beam="1">  1        2 0.20647628E+00 0.38687908E+03</pdfrwt>
<pdfrwt beam="2">  1       -2 0.36984884E-02 0.38687908E+03</pdfrwt>
<totfact> 0.51665648E+03</totfact>
</mgrwt>
</event>
<event>
 4    1  0.4895160E-005  0.5772618E+03  0.7818608E-02  0.9953737E-01
         -2   -1    0    0    0  501 -0.00000000000E+00  0.00000000000E+00  0.25210333597E+03  0.25210333598E+03  0.25500000000E-02 0. -1.
          2   -1    0    0  501    0  0.00000000000E+00 -0.00000000000E+00 -0.33045100220E+03  0.33045100220E+03  0.25500000000E-02 0.  1.
    5000001    1    1    2    0    0 -0.99407376783E+02 -0.14559644347E+03  0.15256456167E+03  0.26549029434E+03  0.12700000000E+03 0.  0.
   -5000001    1    1    2    0    0  0.99407376783E+02  0.14559644347E+03 -0.23091222790E+03  0.31706404385E+03  0.12700000000E+03 0.  0.
<mgrwt>
<rscale>  0 0.57726181E+03</rscale>
<asrwt>0</asrwt>
<pdfrwt beam="1">  1        2 0.47207286E-01 0.57726181E+03</pdfrwt>
<pdfrwt beam="2">  1       -2 0.36014762E-01 0.57726181E+03</pdfrwt>
<totfact> 0.77985649E+02</totfact>
</mgrwt>
</event>
<event>
 4    1  0.4895160E-005  0.7205908E+03  0.7818608E-02  0.9682653E-01
         -2   -1    0    0    0  501 -0.00000000000E+00  0.00000000000E+00  0.10091336293E+03  0.10091336296E+03  0.25500000000E-02 0.  1.
          2   -1    0    0  501    0  0.00000000000E+00 -0.00000000000E+00 -0.12863784660E+04  0.12863784660E+04  0.25500000000E-02 0. -1.
    5000001    1    1    2    0    0 -0.27231982005E+03 -0.55420261155E+02 -0.96031385902E+03  0.10077505632E+04  0.12700000000E+03 0.  0.
   -5000001    1    1    2    0    0  0.27231982005E+03  0.55420261155E+02 -0.22515124402E+03  0.37954126577E+03  0.12700000000E+03 0.  0.
<mgrwt>
<rscale>  0 0.72059080E+03</rscale>
<asrwt>0</asrwt>
<pdfrwt beam="1">  1        2 0.18376834E+00 0.72059080E+03</pdfrwt>
<pdfrwt beam="2">  1       -2 0.14416195E-01 0.72059080E+03</pdfrwt>
<totfact> 0.72093038E+02</totfact>
</mgrwt>
</event>
<event>
 4    1  0.4895160E-005  0.1010753E+04  0.7818608E-02  0.9296829E-01
         -2   -1    0    0    0  501 -0.00000000000E+00  0.00000000000E+00  0.58204761980E+03  0.58204761981E+03  0.25500000000E-02 0. -1.
          2   -1    0    0  501    0  0.00000000000E+00 -0.00000000000E+00 -0.43880485571E+03  0.43880485571E+03  0.25500000000E-02 0.  1.
    5000001    1    1    2    0    0 -0.24570323427E+03 -0.29506946518E+03  0.37770110224E+03  0.55337436808E+03  0.12700000000E+03 0.  0.
   -5000001    1    1    2    0    0  0.24570323427E+03  0.29506946518E+03 -0.23445833815E+03  0.46747810744E+03  0.12700000000E+03 0.  0.
<mgrwt>
<rscale>  0 0.10107528E+04</rscale>
<asrwt>0</asrwt>
<pdfrwt beam="1">  1        2 0.62686408E-01 0.10107528E+04</pdfrwt>
<pdfrwt beam="2">  1       -2 0.83149660E-01 0.10107528E+04</pdfrwt>
<totfact> 0.98581105E+01</totfact>
</mgrwt>
</event>
<event>
 4    1  0.4895160E-005  0.4936710E+03  0.7818608E-02  0.1015444E+00
          2   -1    0    0  501    0  0.00000000000E+00  0.00000000000E+00  0.45351609821E+03  0.45351609822E+03  0.25500000000E-02 0.  1.
         -2   -1    0    0    0  501 -0.00000000000E+00 -0.00000000000E+00 -0.13434533180E+03  0.13434533182E+03  0.25500000000E-02 0. -1.
    5000001    1    1    2    0    0 -0.47365875402E+01 -0.21106084187E+03  0.14153956129E+03  0.28413299992E+03  0.12700000000E+03 0.  0.
   -5000001    1    1    2    0    0  0.47365875402E+01  0.21106084187E+03  0.17763120513E+03  0.30372843013E+03  0.12700000000E+03 0.  0.
<mgrwt>
<rscale>  0 0.49367103E+03</rscale>
<asrwt>0</asrwt>
<pdfrwt beam="1">  1        2 0.64788013E-01 0.49367103E+03</pdfrwt>
<pdfrwt beam="2">  1       -2 0.19192191E-01 0.49367103E+03</pdfrwt>
<totfact> 0.17144122E+03</totfact>
</mgrwt>
</event>
<event>
 4    1  0.4895160E-005  0.3383383E+03  0.7818608E-02  0.1067506E+00
         -2   -1    0    0    0  501 -0.00000000000E+00  0.00000000000E+00  0.95556629437E+02  0.95556629471E+02  0.25500000000E-02 0. -1.
          2   -1    0    0  501    0  0.00000000000E+00 -0.00000000000E+00 -0.29948948395E+03  0.29948948396E+03  0.25500000000E-02 0.  1.
    5000001    1    1    2    0    0  0.58667208536E+02  0.95001875066E+02 -0.96488867641E+02  0.19469540108E+03  0.12700000000E+03 0.  0.
   -5000001    1    1    2    0    0 -0.58667208536E+02 -0.95001875066E+02 -0.10744398687E+03  0.20035071235E+03  0.12700000000E+03 0.  0.
<mgrwt>
<rscale>  0 0.33833833E+03</rscale>
<asrwt>0</asrwt>
<pdfrwt beam="1">  1        2 0.42784211E-01 0.33833833E+03</pdfrwt>
<pdfrwt beam="2">  1       -2 0.13650947E-01 0.33833833E+03</pdfrwt>
<totfact> 0.47642878E+03</totfact>
</mgrwt>
</event>
<event>
 4    1  0.4895160E-005  0.4322557E+03  0.7818608E-02  0.1033150E+00
         -2   -1    0    0    0  501 -0.00000000000E+00  0.00000000000E+00  0.23428371223E+02  0.23428371362E+02  0.25500000000E-02 0. -1.
          2   -1    0    0  501    0  0.00000000000E+00 -0.00000000000E+00 -0.19937901285E+04  0.19937901285E+04  0.25500000000E-02 0.  1.
    5000001    1    1    2    0    0  0.70282598379E+02 -0.16656006709E+01 -0.23792418907E+03  0.27871013187E+03  0.12700000000E+03 0.  0.
   -5000001    1    1    2    0    0 -0.70282598379E+02  0.16656006709E+01 -0.17324375682E+04  0.17385083680E+04  0.12700000000E+03 0.  0.
<mgrwt>
<rscale>  0 0.43225574E+03</rscale>
<asrwt>0</asrwt>
<pdfrwt beam="1">  1        2 0.28482705E+00 0.43225574E+03</pdfrwt>
<pdfrwt beam="2">  1       -2 0.33469115E-02 0.43225574E+03</pdfrwt>
<totfact> 0.31851898E+03</totfact>
</mgrwt>
</event>
<event>
 4    1  0.4895160E-005  0.4221969E+03  0.7818608E-02  0.1036354E+00
         -2   -1    0    0    0  501 -0.00000000000E+00  0.00000000000E+00  0.60204952810E+02  0.60204952864E+02  0.25500000000E-02 0. -1.
          2   -1    0    0  501    0  0.00000000000E+00 -0.00000000000E+00 -0.74018097404E+03  0.74018097405E+03  0.25500000000E-02 0.  1.
    5000001    1    1    2    0    0  0.14235556928E+03  0.75530618540E+02 -0.43408322907E+03  0.48013251525E+03  0.12700000000E+03 0.  0.
   -5000001    1    1    2    0    0 -0.14235556928E+03 -0.75530618540E+02 -0.24589279216E+03  0.32025341166E+03  0.12700000000E+03 0.  0.
<mgrwt>
<rscale>  0 0.42219692E+03</rscale>
<asrwt>0</asrwt>
<pdfrwt beam="1">  1        2 0.10574013E+00 0.42219692E+03</pdfrwt>
<pdfrwt beam="2">  1       -2 0.86007080E-02 0.42219692E+03</pdfrwt>
<totfact> 0.36429164E+03</totfact>
</mgrwt>
</event>
<event>
 4    1  0.4895160E-005  0.2958632E+03  0.7818608E-02  0.1087327E+00
         -2   -1    0    0    0  501 -0.00000000000E+00  0.00000000000E+00  0.15464809342E+03  0.15464809344E+03  0.25500000000E-02 0. -1.
          2   -1    0    0  501    0  0.00000000000E+00 -0.00000000000E+00 -0.14150682941E+03  0.14150682943E+03  0.25500000000E-02 0.  1.
    5000001    1    1    2    0    0  0.68103865061E+02 -0.19261548706E+02  0.33903554845E+02  0.14929030352E+03  0.12700000000E+03 0.  0.
   -5000001    1    1    2    0    0 -0.68103865061E+02  0.19261548706E+02 -0.20762290837E+02  0.14686461935E+03  0.12700000000E+03 0.  0.
<mgrwt>
<rscale>  0 0.29586322E+03</rscale>
<asrwt>0</asrwt>
<pdfrwt beam="1">  1        2 0.20215261E-01 0.29586322E+03</pdfrwt>
<pdfrwt beam="2">  1       -2 0.22092585E-01 0.29586322E+03</pdfrwt>
<totfact> 0.48338400E+03</totfact>
</mgrwt>
</event>
<event>
 4    1  0.4895160E-005  0.3150100E+03  0.7818608E-02  0.1077969E+00
          2   -1    0    0  501    0  0.00000000000E+00  0.00000000000E+00  0.15873378180E+04  0.15873378180E+04  0.25500000000E-02 0.  1.
         -2   -1    0    0    0  501 -0.00000000000E+00 -0.00000000000E+00 -0.15628573747E+02  0.15628573955E+02  0.25500000000E-02 0. -1.
    5000001    1    1    2    0    0 -0.60489627797E+01  0.76406548211E+02  0.10553246230E+04  0.10656986490E+04  0.12700000000E+03 0.  0.
   -5000001    1    1    2    0    0  0.60489627797E+01 -0.76406548211E+02  0.51638462125E+03  0.53726774296E+03  0.12700000000E+03 0.  0.
<mgrwt>
<rscale>  0 0.31501001E+03</rscale>
<asrwt>0</asrwt>
<pdfrwt beam="1">  1        2 0.22676249E+00 0.31501001E+03</pdfrwt>
<pdfrwt beam="2">  1       -2 0.22326539E-02 0.31501001E+03</pdfrwt>
<totfact> 0.92896867E+03</totfact>
</mgrwt>
</event>
<event>
 4    1  0.4895160E-005  0.5377307E+03  0.7818608E-02  0.1004374E+00
         -2   -1    0    0    0  501 -0.00000000000E+00  0.00000000000E+00  0.47032870468E+02  0.47032870537E+02  0.25500000000E-02 0. -1.
          2   -1    0    0  501    0  0.00000000000E+00 -0.00000000000E+00 -0.15369799018E+04  0.15369799018E+04  0.25500000000E-02 0.  1.
    5000001    1    1    2    0    0  0.11310936797E+03  0.76093277057E+02 -0.17395898541E+03  0.25490124468E+03  0.12700000000E+03 0.  0.
   -5000001    1    1    2    0    0 -0.11310936797E+03 -0.76093277057E+02 -0.13159880459E+04  0.13291115276E+04  0.12700000000E+03 0.  0.
<mgrwt>
<rscale>  0 0.53773070E+03</rscale>
<asrwt>0</asrwt>
<pdfrwt beam="1">  1        2 0.21956853E+00 0.53773070E+03</pdfrwt>
<pdfrwt beam="2">  1       -2 0.67189825E-02 0.53773070E+03</pdfrwt>
<totfact> 0.18429106E+03</totfact>
</mgrwt>
</event>
<event>
 4    1  0.4895160E-005  0.4345849E+03  0.7818608E-02  0.1032421E+00
          2   -1    0    0  501    0  0.00000000000E+00  0.00000000000E+00  0.12780150955E+04  0.12780150955E+04  0.25500000000E-02 0.  1.
         -2   -1    0    0    0  501 -0.00000000000E+00 -0.00000000000E+00 -0.36944800242E+02  0.36944800330E+02  0.25500000000E-02 0. -1.
    5000001    1    1    2    0    0  0.97401681466E+02 -0.14685146961E+03  0.60274446903E+03  0.64068895466E+03  0.12700000000E+03 0.  0.
   -5000001    1    1    2    0    0 -0.97401681466E+02  0.14685146961E+03  0.63832582622E+03  0.67427094116E+03  0.12700000000E+03 0.  0.
<mgrwt>
<rscale>  0 0.43458492E+03</rscale>
<asrwt>0</asrwt>
<pdfrwt beam="1">  1        2 0.18257360E+00 0.43458492E+03</pdfrwt>
<pdfrwt beam="2">  1       -2 0.52778283E-02 0.43458492E+03</pdfrwt>
<totfact> 0.36794655E+03</totfact>
</mgrwt>
</event>
<event>
 4    1  0.4895160E-005  0.3948897E+03  0.7818608E-02  0.1045564E+00
          2   -1    0    0  501    0  0.00000000000E+00  0.00000000000E+00  0.18679993311E+03  0.18679993313E+03  0.25500000000E-02 0.  1.
         -2   -1    0    0    0  501 -0.00000000000E+00 -0.00000000000E+00 -0.20869632979E+03  0.20869632981E+03  0.25500000000E-02 0. -1.
    5000001    1    1    2    0    0 -0.40042511104E+01  0.14890125297E+03 -0.36830560360E+02  0.19918109182E+03  0.12700000000E+03 0.  0.
   -5000001    1    1    2    0    0  0.40042511104E+01 -0.14890125297E+03  0.14934163682E+02  0.19631517111E+03  0.12700000000E+03 0.  0.
<mgrwt>
<rscale>  0 0.39488966E+03</rscale>
<asrwt>0</asrwt>
<pdfrwt beam="1">  1        2 0.26685705E-01 0.39488966E+03</pdfrwt>
<pdfrwt beam="2">  1       -2 0.29813761E-01 0.39488966E+03</pdfrwt>
<totfact> 0.20826900E+03</totfact>
</mgrwt>
</event>
<event>
 4    1  0.4895160E-005  0.2859812E+03  0.7818608E-02  0.1092466E+00
         -2   -1    0    0    0  501 -0.00000000000E+00  0.00000000000E+00  0.12268059067E+02  0.12268059332E+02  0.25500000000E-02 0. -1.
          2   -1    0    0  501    0  0.00000000000E+00 -0.00000000000E+00 -0.16666297115E+04  0.16666297115E+04  0.25500000000E-02 0.  1.
    5000001    1    1    2    0    0 -0.63779161899E+02  0.79462396917E+01 -0.90732933526E+03  0.91842607043E+03  0.12700000000E+03 0.  0.
   -5000001    1    1    2    0    0  0.63779161899E+02 -0.79462396917E+01 -0.74703231718E+03  0.76047170042E+03  0.12700000000E+03 0.  0.
<mgrwt>
<rscale>  0 0.28598120E+03</rscale>
<asrwt>0</asrwt>
<pdfrwt beam="1">  1        2 0.23808981E+00 0.28598120E+03</pdfrwt>
<pdfrwt beam="2">  1       -2 0.17525810E-02 0.28598120E+03</pdfrwt>
<totfact> 0.12097808E+04</totfact>
</mgrwt>
</event>
<event>
 4    1  0.4895160E-005  0.5367361E+03  0.7818608E-02  0.1004611E+00
          2   -1    0    0  501    0  0.00000000000E+00  0.00000000000E+00  0.79130931376E+03  0.79130931377E+03  0.25500000000E-02 0.  1.
         -2   -1    0    0    0  501 -0.00000000000E+00 -0.00000000000E+00 -0.91015497417E+02  0.91015497453E+02  0.25500000000E-02 0. -1.
    5000001    1    1    2    0    0 -0.23092497521E+03  0.42353668700E+02  0.39582857817E+03  0.47741956467E+03  0.12700000000E+03 0.  0.
   -5000001    1    1    2    0    0  0.23092497521E+03 -0.42353668700E+02  0.30446523817E+03  0.40490524655E+03  0.12700000000E+03 0.  0.
<mgrwt>
<rscale>  0 0.53673610E+03</rscale>
<asrwt>0</asrwt>
<pdfrwt beam="1">  1        2 0.11304419E+00 0.53673610E+03</pdfrwt>
<pdfrwt beam="2">  1       -2 0.13002214E-01 0.53673610E+03</pdfrwt>
<totfact> 0.17178376E+03</totfact>
</mgrwt>
</event>
<event>
 4    1  0.4895160E-005  0.4369774E+03  0.7818608E-02  0.1031678E+00
          2   -1    0    0  501    0  0.00000000000E+00  0.00000000000E+00  0.26142754103E+04  0.26142754103E+04  0.25500000000E-02 0.  1.
         -2   -1    0    0    0  501 -0.00000000000E+00 -0.00000000000E+00 -0.18260244320E+02  0.18260244498E+02  0.25500000000E-02 0. -1.
    5000001    1    1    2    0    0 -0.25579808422E+02  0.13484743824E+03  0.19787977889E+04  0.19876136062E+04  0.12700000000E+03 0.  0.
   -5000001    1    1    2    0    0  0.25579808422E+02 -0.13484743824E+03  0.61721737709E+03  0.64492204861E+03  0.12700000000E+03 0.  0.
<mgrwt>
<rscale>  0 0.43697738E+03</rscale>
<asrwt>0</asrwt>
<pdfrwt beam="1">  1        2 0.37346794E+00 0.43697738E+03</pdfrwt>
<pdfrwt beam="2">  1       -2 0.26086062E-02 0.43697738E+03</pdfrwt>
<totfact> 0.22636318E+03</totfact>
</mgrwt>
</event>
<event>
 4    1  0.4895160E-005  0.3403201E+03  0.7818608E-02  0.1066660E+00
          2   -1    0    0  501    0  0.00000000000E+00  0.00000000000E+00  0.37991300223E+03  0.37991300224E+03  0.25500000000E-02 0.  1.
         -2   -1    0    0    0  501 -0.00000000000E+00 -0.00000000000E+00 -0.76213328572E+02  0.76213328614E+02  0.25500000000E-02 0. -1.
    5000001    1    1    2    0    0 -0.81491835661E+02  0.58994693594E+02  0.22154654993E+03  0.27446888154E+03  0.12700000000E+03 0.  0.
   -5000001    1    1    2    0    0  0.81491835661E+02 -0.58994693594E+02  0.82153123737E+02  0.18165744931E+03  0.12700000000E+03 0.  0.
<mgrwt>
<rscale>  0 0.34032005E+03</rscale>
<asrwt>0</asrwt>
<pdfrwt beam="1">  1        2 0.54273287E-01 0.34032005E+03</pdfrwt>
<pdfrwt beam="2">  1       -2 0.10887618E-01 0.34032005E+03</pdfrwt>
<totfact> 0.53183391E+03</totfact>
</mgrwt>
</event>
<event>
 4    1  0.4895160E-005  0.4203757E+03  0.7818608E-02  0.1036944E+00
          2   -1    0    0  501    0  0.00000000000E+00  0.00000000000E+00  0.73965790180E+03  0.73965790180E+03  0.25500000000E-02 0.  1.
         -2   -1    0    0    0  501 -0.00000000000E+00 -0.00000000000E+00 -0.59728885134E+02  0.59728885188E+02  0.25500000000E-02 0. -1.
    5000001    1    1    2    0    0  0.82742828724E+02 -0.98580582855E+02  0.54375927922E+03  0.57303373440E+03  0.12700000000E+03 0.  0.
   -5000001    1    1    2    0    0 -0.82742828724E+02  0.98580582855E+02  0.13616973744E+03  0.22635305259E+03  0.12700000000E+03 0.  0.
<mgrwt>
<rscale>  0 0.42037575E+03</rscale>
<asrwt>0</asrwt>
<pdfrwt beam="1">  1        2 0.10566541E+00 0.42037575E+03</pdfrwt>
<pdfrwt beam="2">  1       -2 0.85326983E-02 0.42037575E+03</pdfrwt>
<totfact> 0.36921353E+03</totfact>
</mgrwt>
</event>
<event>
 4    1  0.4895160E-005  0.2893025E+03  0.7818608E-02  0.1090714E+00
         -2   -1    0    0    0  501 -0.00000000000E+00  0.00000000000E+00  0.93668053005E+01  0.93668056476E+01  0.25500000000E-02 0. -1.
          2   -1    0    0  501    0  0.00000000000E+00 -0.00000000000E+00 -0.22338448637E+04  0.22338448637E+04  0.25500000000E-02 0.  1.
    5000001    1    1    2    0    0 -0.41221604379E+02 -0.27911447088E+02 -0.14854503849E+04  0.14917004108E+04  0.12700000000E+03 0.  0.
   -5000001    1    1    2    0    0  0.41221604379E+02  0.27911447088E+02 -0.73902767352E+03  0.75151125858E+03  0.12700000000E+03 0.  0.
<mgrwt>
<rscale>  0 0.28930254E+03</rscale>
<asrwt>0</asrwt>
<pdfrwt beam="1">  1        2 0.31912035E+00 0.28930254E+03</pdfrwt>
<pdfrwt beam="2">  1       -2 0.13381165E-02 0.28930254E+03</pdfrwt>
<totfact> 0.94734968E+03</totfact>
</mgrwt>
</event>
<event>
 4    1  0.4895160E-005  0.3372529E+03  0.7818608E-02  0.1067972E+00
          2   -1    0    0  501    0  0.00000000000E+00  0.00000000000E+00  0.17062846545E+03  0.17062846547E+03  0.25500000000E-02 0.  1.
         -2   -1    0    0    0  501 -0.00000000000E+00 -0.00000000000E+00 -0.16664789296E+03  0.16664789298E+03  0.25500000000E-02 0. -1.
    5000001    1    1    2    0    0 -0.57987051069E+02  0.55585482920E+02 -0.74524063473E+02  0.16773514849E+03  0.12700000000E+03 0.  0.
   -5000001    1    1    2    0    0  0.57987051069E+02 -0.55585482920E+02  0.78504635965E+02  0.16954120995E+03  0.12700000000E+03 0.  0.
<mgrwt>
<rscale>  0 0.33725287E+03</rscale>
<asrwt>0</asrwt>
<pdfrwt beam="1">  1        2 0.24375495E-01 0.33725287E+03</pdfrwt>
<pdfrwt beam="2">  1       -2 0.23806842E-01 0.33725287E+03</pdfrwt>
<totfact> 0.34420962E+03</totfact>
</mgrwt>
</event>
<event>
 4    1  0.4895160E-005  0.3257496E+03  0.7818608E-02  0.1073033E+00
         -2   -1    0    0    0  501 -0.00000000000E+00  0.00000000000E+00  0.20385404432E+02  0.20385404592E+02  0.25500000000E-02 0. -1.
          2   -1    0    0  501    0  0.00000000000E+00 -0.00000000000E+00 -0.13013329162E+04  0.13013329162E+04  0.25500000000E-02 0.  1.
    5000001    1    1    2    0    0  0.71820275396E+02 -0.31493512876E+02 -0.37598399680E+03  0.40452806968E+03  0.12700000000E+03 0.  0.
   -5000001    1    1    2    0    0 -0.71820275396E+02  0.31493512876E+02 -0.90496351495E+03  0.91719025110E+03  0.12700000000E+03 0.  0.
<mgrwt>
<rscale>  0 0.32574958E+03</rscale>
<asrwt>0</asrwt>
<pdfrwt beam="1">  1        2 0.18590465E+00 0.32574958E+03</pdfrwt>
<pdfrwt beam="2">  1       -2 0.29122015E-02 0.32574958E+03</pdfrwt>
<totfact> 0.87836990E+03</totfact>
</mgrwt>
</event>
<event>
 4    1  0.4895160E-005  0.3705926E+03  0.7818608E-02  0.1054467E+00
          2   -1    0    0  501    0  0.00000000000E+00  0.00000000000E+00  0.53795476335E+03  0.53795476335E+03  0.25500000000E-02 0.  1.
         -2   -1    0    0    0  501 -0.00000000000E+00 -0.00000000000E+00 -0.63824553960E+02  0.63824554011E+02  0.25500000000E-02 0. -1.
    5000001    1    1    2    0    0  0.57048969242E+02  0.11775079009E+03  0.29057489897E+03  0.34304898392E+03  0.12700000000E+03 0.  0.
   -5000001    1    1    2    0    0 -0.57048969242E+02 -0.11775079009E+03  0.18355531042E+03  0.25873033344E+03  0.12700000000E+03 0.  0.
<mgrwt>
<rscale>  0 0.37059262E+03</rscale>
<asrwt>0</asrwt>
<pdfrwt beam="1">  1        2 0.76850680E-01 0.37059262E+03</pdfrwt>
<pdfrwt beam="2">  1       -2 0.91177935E-02 0.37059262E+03</pdfrwt>
<totfact> 0.48191077E+03</totfact>
</mgrwt>
</event>
<event>
 4    1  0.4895160E-005  0.5611248E+03  0.7818608E-02  0.9989513E-01
         -2   -1    0    0    0  501 -0.00000000000E+00  0.00000000000E+00  0.39557614677E+02  0.39557614759E+02  0.25500000000E-02 0. -1.
          2   -1    0    0  501    0  0.00000000000E+00 -0.00000000000E+00 -0.19898887130E+04  0.19898887130E+04  0.25500000000E-02 0.  1.
    5000001    1    1    2    0    0 -0.22897641094E+01 -0.15256604161E+03 -0.25813132835E+03  0.32564155562E+03  0.12700000000E+03 0.  0.
   -5000001    1    1    2    0    0  0.22897641094E+01  0.15256604161E+03 -0.16921997700E+04  0.17038047721E+04  0.12700000000E+03 0.  0.
<mgrwt>
<rscale>  0 0.56112477E+03</rscale>
<asrwt>0</asrwt>
<pdfrwt beam="1">  1        2 0.28426975E+00 0.56112477E+03</pdfrwt>
<pdfrwt beam="2">  1       -2 0.56510891E-02 0.56112477E+03</pdfrwt>
<totfact> 0.14244305E+03</totfact>
</mgrwt>
</event>
<event>
 4    1  0.4895160E-005  0.5623306E+03  0.7818608E-02  0.9986795E-01
         -2   -1    0    0    0  501 -0.00000000000E+00  0.00000000000E+00  0.60922215647E+02  0.60922215700E+02  0.25500000000E-02 0. -1.
          2   -1    0    0  501    0  0.00000000000E+00 -0.00000000000E+00 -0.12976208751E+04  0.12976208751E+04  0.25500000000E-02 0.  1.
    5000001    1    1    2    0    0 -0.18446409415E+02  0.23729185709E+03 -0.42693865738E+03  0.50502803152E+03  0.12700000000E+03 0.  0.
   -5000001    1    1    2    0    0  0.18446409415E+02 -0.23729185709E+03 -0.80976000212E+03  0.85351505933E+03  0.12700000000E+03 0.  0.
<mgrwt>
<rscale>  0 0.56233065E+03</rscale>
<asrwt>0</asrwt>
<pdfrwt beam="1">  1        2 0.18537439E+00 0.56233065E+03</pdfrwt>
<pdfrwt beam="2">  1       -2 0.87031745E-02 0.56233065E+03</pdfrwt>
<totfact> 0.16345020E+03</totfact>
</mgrwt>
</event>
<event>
 4    1  0.4895160E-005  0.3740166E+03  0.7818608E-02  0.1053168E+00
          2   -1    0    0  501    0  0.00000000000E+00  0.00000000000E+00  0.19959575251E+03  0.19959575252E+03  0.25500000000E-02 0.  1.
         -2   -1    0    0    0  501 -0.00000000000E+00 -0.00000000000E+00 -0.17521464553E+03  0.17521464555E+03  0.25500000000E-02 0. -1.
    5000001    1    1    2    0    0 -0.98460344116E+02  0.84884532104E+02  0.56366718863E+02  0.19027882212E+03  0.12700000000E+03 0.  0.
   -5000001    1    1    2    0    0  0.98460344116E+02 -0.84884532104E+02 -0.31985611888E+02  0.18453157595E+03  0.12700000000E+03 0.  0.
<mgrwt>
<rscale>  0 0.37401657E+03</rscale>
<asrwt>0</asrwt>
<pdfrwt beam="1">  1        2 0.28513679E-01 0.37401657E+03</pdfrwt>
<pdfrwt beam="2">  1       -2 0.25030664E-01 0.37401657E+03</pdfrwt>
<totfact> 0.26483048E+03</totfact>
</mgrwt>
</event>
<event>
 4    1  0.4895160E-005  0.1562830E+04  0.7818608E-02  0.8843714E-01
         -2   -1    0    0    0  501 -0.00000000000E+00  0.00000000000E+00  0.19094211419E+04  0.19094211419E+04  0.25500000000E-02 0. -1.
          2   -1    0    0  501    0  0.00000000000E+00 -0.00000000000E+00 -0.31978778978E+03  0.31978778979E+03  0.25500000000E-02 0.  1.
    5000001    1    1    2    0    0 -0.59771989936E+03  0.40842621943E+03  0.11732800013E+04  0.13844840253E+04  0.12700000000E+03 0.  0.
   -5000001    1    1    2    0    0  0.59771989936E+03 -0.40842621943E+03  0.41635335086E+03  0.84472490645E+03  0.12700000000E+03 0.  0.
<mgrwt>
<rscale>  0 0.15628302E+04</rscale>
<asrwt>0</asrwt>
<pdfrwt beam="1">  1        2 0.45683971E-01 0.15628302E+04</pdfrwt>
<pdfrwt beam="2">  1       -2 0.27277444E+00 0.15628302E+04</pdfrwt>
<totfact> 0.49970612E+00</totfact>
</mgrwt>
</event>
<event>
 4    1  0.4895160E-005  0.4561043E+03  0.7818608E-02  0.1025917E+00
         -2   -1    0    0    0  501 -0.00000000000E+00  0.00000000000E+00  0.32063948603E+02  0.32063948704E+02  0.25500000000E-02 0.  1.
          2   -1    0    0  501    0  0.00000000000E+00 -0.00000000000E+00 -0.16220017655E+04  0.16220017655E+04  0.25500000000E-02 0. -1.
    5000001    1    1    2    0    0  0.14858283076E+02 -0.45992454292E+02 -0.13078606352E+03  0.18860028854E+03  0.12700000000E+03 0.  0.
   -5000001    1    1    2    0    0 -0.14858283076E+02  0.45992454292E+02 -0.14591517534E+04  0.14654654257E+04  0.12700000000E+03 0.  0.
<mgrwt>
<rscale>  0 0.45610429E+03</rscale>
<asrwt>0</asrwt>
<pdfrwt beam="1">  1        2 0.23171449E+00 0.45610429E+03</pdfrwt>
<pdfrwt beam="2">  1       -2 0.45805651E-02 0.45610429E+03</pdfrwt>
<totfact> 0.30281300E+03</totfact>
</mgrwt>
</event>
<event>
 4    1  0.4895160E-005  0.9658073E+03  0.7818608E-02  0.9346863E-01
         -2   -1    0    0    0  501 -0.00000000000E+00  0.00000000000E+00  0.68494583277E+02  0.68494583324E+02  0.25500000000E-02 0. -1.
          2   -1    0    0  501    0  0.00000000000E+00 -0.00000000000E+00 -0.34045897133E+04  0.34045897133E+04  0.25500000000E-02 0.  1.
    5000001    1    1    2    0    0 -0.29958370211E+03 -0.23436396775E+03 -0.26355774338E+04  0.26659096521E+04  0.12700000000E+03 0.  0.
   -5000001    1    1    2    0    0  0.29958370211E+03  0.23436396775E+03 -0.70051769629E+03  0.80717464453E+03  0.12700000000E+03 0.  0.
<mgrwt>
<rscale>  0 0.96580734E+03</rscale>
<asrwt>0</asrwt>
<pdfrwt beam="1">  1        2 0.48636985E+00 0.96580734E+03</pdfrwt>
<pdfrwt beam="2">  1       -2 0.97849426E-02 0.96580734E+03</pdfrwt>
<totfact> 0.10116957E+02</totfact>
</mgrwt>
</event>
<event>
 4    1  0.4895160E-005  0.7634523E+03  0.7818608E-02  0.9614479E-01
         -2   -1    0    0    0  501 -0.00000000000E+00  0.00000000000E+00  0.35892132783E+03  0.35892132784E+03  0.25500000000E-02 0. -1.
          2   -1    0    0  501    0  0.00000000000E+00 -0.00000000000E+00 -0.40597995069E+03  0.40597995070E+03  0.25500000000E-02 0.  1.
    5000001    1    1    2    0    0 -0.21154972166E+03 -0.19498055693E+03 -0.24030806963E+03  0.39578740587E+03  0.12700000000E+03 0.  0.
   -5000001    1    1    2    0    0  0.21154972166E+03  0.19498055693E+03  0.19324944678E+03  0.36911387267E+03  0.12700000000E+03 0.  0.
<mgrwt>
<rscale>  0 0.76345232E+03</rscale>
<asrwt>0</asrwt>
<pdfrwt beam="1">  1        2 0.57997136E-01 0.76345232E+03</pdfrwt>
<pdfrwt beam="2">  1       -2 0.51274475E-01 0.76345232E+03</pdfrwt>
<totfact> 0.30791062E+02</totfact>
</mgrwt>
</event>
<event>
 4    1  0.4895160E-005  0.3183018E+03  0.7818608E-02  0.1076434E+00
          2   -1    0    0  501    0  0.00000000000E+00  0.00000000000E+00  0.43388776669E+03  0.43388776670E+03  0.25500000000E-02 0.  1.
         -2   -1    0    0    0  501 -0.00000000000E+00 -0.00000000000E+00 -0.58376863524E+02  0.58376863580E+02  0.25500000000E-02 0. -1.
    5000001    1    1    2    0    0  0.91782401172E+02 -0.24693622429E+02  0.20769451963E+03  0.26134229975E+03  0.12700000000E+03 0.  0.
   -5000001    1    1    2    0    0 -0.91782401172E+02  0.24693622429E+02  0.16781638353E+03  0.23092233053E+03  0.12700000000E+03 0.  0.
<mgrwt>
<rscale>  0 0.31830179E+03</rscale>
<asrwt>0</asrwt>
<pdfrwt beam="1">  1        2 0.61983965E-01 0.31830179E+03</pdfrwt>
<pdfrwt beam="2">  1       -2 0.83395522E-02 0.31830179E+03</pdfrwt>
<totfact> 0.70173947E+03</totfact>
</mgrwt>
</event>
<event>
 4    1  0.4895160E-005  0.3933439E+03  0.7818608E-02  0.1046109E+00
          2   -1    0    0  501    0  0.00000000000E+00  0.00000000000E+00  0.14246638976E+03  0.14246638979E+03  0.25500000000E-02 0.  1.
         -2   -1    0    0    0  501 -0.00000000000E+00 -0.00000000000E+00 -0.27150165546E+03  0.27150165547E+03  0.25500000000E-02 0. -1.
    5000001    1    1    2    0    0  0.25557841383E+02  0.11897159011E+03 -0.15712823946E+03  0.23585106773E+03  0.12700000000E+03 0.  0.
   -5000001    1    1    2    0    0 -0.25557841383E+02 -0.11897159011E+03  0.28092973769E+02  0.17811697753E+03  0.12700000000E+03 0.  0.
<mgrwt>
<rscale>  0 0.39334392E+03</rscale>
<asrwt>0</asrwt>
<pdfrwt beam="1">  1        2 0.20352341E-01 0.39334392E+03</pdfrwt>
<pdfrwt beam="2">  1       -2 0.38785951E-01 0.39334392E+03</pdfrwt>
<totfact> 0.17332831E+03</totfact>
</mgrwt>
</event>
<event>
 4    1  0.4895160E-005  0.6624902E+03  0.7818608E-02  0.9783620E-01
          2   -1    0    0  501    0  0.00000000000E+00  0.00000000000E+00  0.85603584736E+03  0.85603584736E+03  0.25500000000E-02 0.  1.
         -2   -1    0    0    0  501 -0.00000000000E+00 -0.00000000000E+00 -0.12817606444E+03  0.12817606447E+03  0.25500000000E-02 0. -1.
    5000001    1    1    2    0    0  0.55151456859E+02 -0.29659426312E+03  0.43945555978E+03  0.54795987913E+03  0.12700000000E+03 0.  0.
   -5000001    1    1    2    0    0 -0.55151456859E+02  0.29659426312E+03  0.28840422314E+03  0.43625203270E+03  0.12700000000E+03 0.  0.
<mgrwt>
<rscale>  0 0.66249017E+03</rscale>
<asrwt>0</asrwt>
<pdfrwt beam="1">  1        2 0.12229084E+00 0.66249017E+03</pdfrwt>
<pdfrwt beam="2">  1       -2 0.18310866E-01 0.66249017E+03</pdfrwt>
<totfact> 0.86875873E+02</totfact>
</mgrwt>
</event>
<event>
 4    1  0.4895160E-005  0.4013943E+03  0.7818608E-02  0.1043298E+00
         -2   -1    0    0    0  501 -0.00000000000E+00  0.00000000000E+00  0.18354313488E+03  0.18354313490E+03  0.25500000000E-02 0. -1.
          2   -1    0    0  501    0  0.00000000000E+00 -0.00000000000E+00 -0.21945441854E+03  0.21945441856E+03  0.25500000000E-02 0.  1.
    5000001    1    1    2    0    0 -0.56315549609E+02 -0.13084552214E+03 -0.80319440201E+02  0.20705604137E+03  0.12700000000E+03 0.  0.
   -5000001    1    1    2    0    0  0.56315549609E+02  0.13084552214E+03  0.44408156539E+02  0.19594151209E+03  0.12700000000E+03 0.  0.
<mgrwt>
<rscale>  0 0.40139433E+03</rscale>
<asrwt>0</asrwt>
<pdfrwt beam="1">  1        2 0.31350631E-01 0.40139433E+03</pdfrwt>
<pdfrwt beam="2">  1       -2 0.26220448E-01 0.40139433E+03</pdfrwt>
<totfact> 0.21966893E+03</totfact>
</mgrwt>
</event>
<event>
 4    1  0.4895160E-005  0.4399039E+03  0.7818608E-02  0.1030776E+00
         -2   -1    0    0    0  501 -0.00000000000E+00  0.00000000000E+00  0.10432199581E+03  0.10432199585E+03  0.25500000000E-02 0. -1.
          2   -1    0    0  501    0  0.00000000000E+00 -0.00000000000E+00 -0.46374564264E+03  0.46374564264E+03  0.25500000000E-02 0.  1.
    5000001    1    1    2    0    0  0.86892619523E+02 -0.15546275625E+03 -0.20946534420E+03  0.30285925168E+03  0.12700000000E+03 0.  0.
   -5000001    1    1    2    0    0 -0.86892619523E+02  0.15546275625E+03 -0.14995830262E+03  0.26520838681E+03  0.12700000000E+03 0.  0.
<mgrwt>
<rscale>  0 0.43990395E+03</rscale>
<asrwt>0</asrwt>
<pdfrwt beam="1">  1        2 0.66249377E-01 0.43990395E+03</pdfrwt>
<pdfrwt beam="2">  1       -2 0.14903142E-01 0.43990395E+03</pdfrwt>
<totfact> 0.25659715E+03</totfact>
</mgrwt>
</event>
<event>
 4    1  0.4895160E-005  0.5152182E+03  0.7818608E-02  0.1009881E+00
          2   -1    0    0  501    0  0.00000000000E+00  0.00000000000E+00  0.47718983479E+03  0.47718983480E+03  0.25500000000E-02 0.  1.
         -2   -1    0    0    0  501 -0.00000000000E+00 -0.00000000000E+00 -0.13906926677E+03  0.13906926679E+03  0.25500000000E-02 0. -1.
    5000001    1    1    2    0    0 -0.10918720184E+02 -0.22386203417E+03  0.16918938095E+03  0.30820038193E+03  0.12700000000E+03 0.  0.
   -5000001    1    1    2    0    0  0.10918720184E+02  0.22386203417E+03  0.16893118707E+03  0.30805871966E+03  0.12700000000E+03 0.  0.
<mgrwt>
<rscale>  0 0.51521817E+03</rscale>
<asrwt>0</asrwt>
<pdfrwt beam="1">  1        2 0.68169977E-01 0.51521817E+03</pdfrwt>
<pdfrwt beam="2">  1       -2 0.19867038E-01 0.51521817E+03</pdfrwt>
<totfact> 0.15255796E+03</totfact>
</mgrwt>
</event>
<event>
 4    1  0.4895160E-005  0.4204131E+03  0.7818608E-02  0.1036932E+00
         -2   -1    0    0    0  501 -0.00000000000E+00  0.00000000000E+00  0.15393598360E+03  0.15393598362E+03  0.25500000000E-02 0. -1.
          2   -1    0    0  501    0  0.00000000000E+00 -0.00000000000E+00 -0.28704650697E+03  0.28704650699E+03  0.25500000000E-02 0.  1.
    5000001    1    1    2    0    0  0.49871418894E+02 -0.11158808150E+03 -0.18669619628E+03  0.25675577513E+03  0.12700000000E+03 0.  0.
   -5000001    1    1    2    0    0 -0.49871418894E+02  0.11158808150E+03  0.53585672905E+02  0.18422671548E+03  0.12700000000E+03 0.  0.
<mgrwt>
<rscale>  0 0.42041307E+03</rscale>
<asrwt>0</asrwt>
<pdfrwt beam="1">  1        2 0.41006644E-01 0.42041307E+03</pdfrwt>
<pdfrwt beam="2">  1       -2 0.21990855E-01 0.42041307E+03</pdfrwt>
<totfact> 0.22342708E+03</totfact>
</mgrwt>
</event>
<event>
 4    1  0.4895160E-005  0.7493637E+03  0.7818608E-02  0.9636349E-01
          2   -1    0    0  501    0  0.00000000000E+00  0.00000000000E+00  0.14285362035E+04  0.14285362035E+04  0.25500000000E-02 0.  1.
         -2   -1    0    0    0  501 -0.00000000000E+00 -0.00000000000E+00 -0.98272962721E+02  0.98272962754E+02  0.25500000000E-02 0. -1.
    5000001    1    1    2    0    0  0.15184143842E+03 -0.30370134802E+03  0.47219288663E+03  0.59530282495E+03  0.12700000000E+03 0.  0.
   -5000001    1    1    2    0    0 -0.15184143842E+03  0.30370134802E+03  0.85807035411E+03  0.93150634126E+03  0.12700000000E+03 0.  0.
<mgrwt>
<rscale>  0 0.74936369E+03</rscale>
<asrwt>0</asrwt>
<pdfrwt beam="1">  1        2 0.20407661E+00 0.74936369E+03</pdfrwt>
<pdfrwt beam="2">  1       -2 0.14038994E-01 0.74936369E+03</pdfrwt>
<totfact> 0.63082076E+02</totfact>
</mgrwt>
</event>
<event>
 4    1  0.4895160E-005  0.4137642E+03  0.7818608E-02  0.1039115E+00
          2   -1    0    0  501    0  0.00000000000E+00  0.00000000000E+00  0.51161982209E+04  0.51161982209E+04  0.25500000000E-02 0.  1.
         -2   -1    0    0    0  501 -0.00000000000E+00 -0.00000000000E+00 -0.83656260728E+01  0.83656264614E+01  0.25500000000E-02 0. -1.
    5000001    1    1    2    0    0  0.97980761614E+02  0.38232989564E+02  0.41012873895E+04  0.41046009846E+04  0.12700000000E+03 0.  0.
   -5000001    1    1    2    0    0 -0.97980761614E+02 -0.38232989564E+02  0.10065452053E+04  0.10199628628E+04  0.12700000000E+03 0.  0.
<mgrwt>
<rscale>  0 0.41376419E+03</rscale>
<asrwt>0</asrwt>
<pdfrwt beam="1">  1        2 0.73088623E+00 0.41376419E+03</pdfrwt>
<pdfrwt beam="2">  1       -2 0.11950882E-02 0.41376419E+03</pdfrwt>
<totfact> 0.15086254E+02</totfact>
</mgrwt>
</event>
<event>
 4    1  0.4895160E-005  0.6798937E+03  0.7818608E-02  0.9752248E-01
         -2   -1    0    0    0  501 -0.00000000000E+00  0.00000000000E+00  0.19720012980E+03  0.19720012982E+03  0.25500000000E-02 0. -1.
          2   -1    0    0  501    0  0.00000000000E+00 -0.00000000000E+00 -0.58602324848E+03  0.58602324849E+03  0.25500000000E-02 0.  1.
    5000001    1    1    2    0    0 -0.40668093126E+02 -0.29668269324E+03 -0.80602393205E+02  0.33511230962E+03  0.12700000000E+03 0.  0.
   -5000001    1    1    2    0    0  0.40668093126E+02  0.29668269324E+03 -0.30822072548E+03  0.44811106869E+03  0.12700000000E+03 0.  0.
<mgrwt>
<rscale>  0 0.67989370E+03</rscale>
<asrwt>0</asrwt>
<pdfrwt beam="1">  1        2 0.83717606E-01 0.67989370E+03</pdfrwt>
<pdfrwt beam="2">  1       -2 0.28171447E-01 0.67989370E+03</pdfrwt>
<totfact> 0.64546889E+02</totfact>
</mgrwt>
</event>
<event>
 4    1  0.4895160E-005  0.3669709E+03  0.7818608E-02  0.1055857E+00
         -2   -1    0    0    0  501 -0.00000000000E+00  0.00000000000E+00  0.82890329091E+02  0.82890329130E+02  0.25500000000E-02 0. -1.
          2   -1    0    0  501    0  0.00000000000E+00 -0.00000000000E+00 -0.40616217945E+03  0.40616217946E+03  0.25500000000E-02 0.  1.
    5000001    1    1    2    0    0 -0.11450368851E+03  0.58228601187E+02 -0.20453584934E+03  0.27288381840E+03  0.12700000000E+03 0.  0.
   -5000001    1    1    2    0    0  0.11450368851E+03 -0.58228601187E+02 -0.11873600102E+03  0.21616869019E+03  0.12700000000E+03 0.  0.
<mgrwt>
<rscale>  0 0.36697093E+03</rscale>
<asrwt>0</asrwt>
<pdfrwt beam="1">  1        2 0.58023168E-01 0.36697093E+03</pdfrwt>
<pdfrwt beam="2">  1       -2 0.11841476E-01 0.36697093E+03</pdfrwt>
<totfact> 0.43244859E+03</totfact>
</mgrwt>
</event>
<event>
 4    1  0.4895160E-005  0.3051678E+03  0.7818608E-02  0.1082685E+00
          2   -1    0    0  501    0  0.00000000000E+00  0.00000000000E+00  0.35745451430E+03  0.35745451431E+03  0.25500000000E-02 0.  1.
         -2   -1    0    0    0  501 -0.00000000000E+00 -0.00000000000E+00 -0.65132325331E+02  0.65132325381E+02  0.25500000000E-02 0. -1.
    5000001    1    1    2    0    0 -0.65054897636E+02 -0.53904530333E+02  0.14079690100E+03  0.20758276766E+03  0.12700000000E+03 0.  0.
   -5000001    1    1    2    0    0  0.65054897636E+02  0.53904530333E+02  0.15152528797E+03  0.21500407204E+03  0.12700000000E+03 0.  0.
<mgrwt>
<rscale>  0 0.30516778E+03</rscale>
<asrwt>0</asrwt>
<pdfrwt beam="1">  1        2 0.51064931E-01 0.30516778E+03</pdfrwt>
<pdfrwt beam="2">  1       -2 0.93046178E-02 0.30516778E+03</pdfrwt>
<totfact> 0.72766737E+03</totfact>
</mgrwt>
</event>
<event>
 4    1  0.4895160E-005  0.3479808E+03  0.7818608E-02  0.1063447E+00
         -2   -1    0    0    0  501 -0.00000000000E+00  0.00000000000E+00  0.14931881886E+03  0.14931881888E+03  0.25500000000E-02 0. -1.
          2   -1    0    0  501    0  0.00000000000E+00 -0.00000000000E+00 -0.20273841073E+03  0.20273841075E+03  0.25500000000E-02 0.  1.
    5000001    1    1    2    0    0 -0.20359858086E+02 -0.11462749419E+03 -0.21421303699E+01  0.17230082695E+03  0.12700000000E+03 0.  0.
   -5000001    1    1    2    0    0  0.20359858086E+02  0.11462749419E+03 -0.51277461499E+02  0.17975640268E+03  0.12700000000E+03 0.  0.
<mgrwt>
<rscale>  0 0.34798080E+03</rscale>
<asrwt>0</asrwt>
<pdfrwt beam="1">  1        2 0.28962630E-01 0.34798080E+03</pdfrwt>
<pdfrwt beam="2">  1       -2 0.21331260E-01 0.34798080E+03</pdfrwt>
<totfact> 0.34413453E+03</totfact>
</mgrwt>
</event>
<event>
 4    1  0.4895160E-005  0.3612634E+03  0.7818608E-02  0.1058085E+00
          2   -1    0    0  501    0  0.00000000000E+00  0.00000000000E+00  0.90616025885E+02  0.90616025921E+02  0.25500000000E-02 0.  1.
         -2   -1    0    0    0  501 -0.00000000000E+00 -0.00000000000E+00 -0.36006671485E+03  0.36006671486E+03  0.25500000000E-02 0. -1.
    5000001    1    1    2    0    0  0.87171528424E+02 -0.78471333596E+02 -0.69397903685E+02  0.18628390859E+03  0.12700000000E+03 0.  0.
   -5000001    1    1    2    0    0 -0.87171528424E+02  0.78471333596E+02 -0.20005278528E+03  0.26439883219E+03  0.12700000000E+03 0.  0.
<mgrwt>
<rscale>  0 0.36126342E+03</rscale>
<asrwt>0</asrwt>
<pdfrwt beam="1">  1        2 0.12945147E-01 0.36126342E+03</pdfrwt>
<pdfrwt beam="2">  1       -2 0.51438101E-01 0.36126342E+03</pdfrwt>
<totfact> 0.16999144E+03</totfact>
</mgrwt>
</event>
<event>
 4    1  0.4895160E-005  0.3206952E+03  0.7818608E-02  0.1075330E+00
         -2   -1    0    0    0  501 -0.00000000000E+00  0.00000000000E+00  0.21035938147E+03  0.21035938148E+03  0.25500000000E-02 0. -1.
          2   -1    0    0  501    0  0.00000000000E+00 -0.00000000000E+00 -0.12222580597E+03  0.12222580600E+03  0.25500000000E-02 0.  1.
    5000001    1    1    2    0    0 -0.23304666932E+02 -0.94242618843E+02  0.31048852723E+02  0.16284289964E+03  0.12700000000E+03 0.  0.
   -5000001    1    1    2    0    0  0.23304666932E+02  0.94242618843E+02  0.57084722774E+02  0.16974228784E+03  0.12700000000E+03 0.  0.
<mgrwt>
<rscale>  0 0.32069515E+03</rscale>
<asrwt>0</asrwt>
<pdfrwt beam="1">  1        2 0.17460830E-01 0.32069515E+03</pdfrwt>
<pdfrwt beam="2">  1       -2 0.30051340E-01 0.32069515E+03</pdfrwt>
<totfact> 0.33219449E+03</totfact>
</mgrwt>
</event>
<event>
 4    1  0.4895160E-005  0.3096334E+03  0.7818608E-02  0.1080522E+00
          2   -1    0    0  501    0  0.00000000000E+00  0.00000000000E+00  0.16996156911E+03  0.16996156913E+03  0.25500000000E-02 0.  1.
         -2   -1    0    0    0  501 -0.00000000000E+00 -0.00000000000E+00 -0.14102138823E+03  0.14102138826E+03  0.25500000000E-02 0. -1.
    5000001    1    1    2    0    0  0.78499698232E+02  0.36853468888E+02  0.32403883893E+02  0.15716040367E+03  0.12700000000E+03 0.  0.
   -5000001    1    1    2    0    0 -0.78499698232E+02 -0.36853468888E+02 -0.34637030142E+01  0.15382255371E+03  0.12700000000E+03 0.  0.
<mgrwt>
<rscale>  0 0.30963344E+03</rscale>
<asrwt>0</asrwt>
<pdfrwt beam="1">  1        2 0.24280224E-01 0.30963344E+03</pdfrwt>
<pdfrwt beam="2">  1       -2 0.20145912E-01 0.30963344E+03</pdfrwt>
<totfact> 0.46103880E+03</totfact>
</mgrwt>
</event>
<event>
 4    1  0.4895160E-005  0.4342981E+03  0.7818608E-02  0.1032511E+00
          2   -1    0    0  501    0  0.00000000000E+00  0.00000000000E+00  0.37311532702E+03  0.37311532703E+03  0.25500000000E-02 0. -1.
         -2   -1    0    0    0  501 -0.00000000000E+00 -0.00000000000E+00 -0.12637839903E+03  0.12637839905E+03  0.25500000000E-02 0.  1.
    5000001    1    1    2    0    0 -0.90876665329E+01 -0.14252684418E+03  0.24193784667E+03  0.30831705864E+03  0.12700000000E+03 0.  0.
   -5000001    1    1    2    0    0  0.90876665329E+01  0.14252684418E+03  0.47990813272E+01  0.19117666745E+03  0.12700000000E+03 0.  0.
<mgrwt>
<rscale>  0 0.43429814E+03</rscale>
<asrwt>0</asrwt>
<pdfrwt beam="1">  1        2 0.53302191E-01 0.43429814E+03</pdfrwt>
<pdfrwt beam="2">  1       -2 0.18054057E-01 0.43429814E+03</pdfrwt>
<totfact> 0.23596521E+03</totfact>
</mgrwt>
</event>
<event>
 4    1  0.4895160E-005  0.3957568E+03  0.7818608E-02  0.1045259E+00
         -2   -1    0    0    0  501 -0.00000000000E+00  0.00000000000E+00  0.29678030080E+02  0.29678030189E+02  0.25500000000E-02 0. -1.
          2   -1    0    0  501    0  0.00000000000E+00 -0.00000000000E+00 -0.13193553127E+04  0.13193553127E+04  0.25500000000E-02 0.  1.
    5000001    1    1    2    0    0 -0.15275836588E+02  0.14962573975E+03 -0.71349359963E+03  0.74015088320E+03  0.12700000000E+03 0.  0.
   -5000001    1    1    2    0    0  0.15275836588E+02 -0.14962573975E+03 -0.57618368295E+03  0.60888245965E+03  0.12700000000E+03 0.  0.
<mgrwt>
<rscale>  0 0.39575683E+03</rscale>
<asrwt>0</asrwt>
<pdfrwt beam="1">  1        2 0.18847929E+00 0.39575683E+03</pdfrwt>
<pdfrwt beam="2">  1       -2 0.42397194E-02 0.39575683E+03</pdfrwt>
<totfact> 0.48893263E+03</totfact>
</mgrwt>
</event>
<event>
 4    1  0.4895160E-005  0.3224333E+03  0.7818608E-02  0.1074535E+00
         -2   -1    0    0    0  501 -0.00000000000E+00  0.00000000000E+00  0.10029823465E+03  0.10029823469E+03  0.25500000000E-02 0. -1.
          2   -1    0    0  501    0  0.00000000000E+00 -0.00000000000E+00 -0.25913521581E+03  0.25913521582E+03  0.25500000000E-02 0.  1.
    5000001    1    1    2    0    0  0.48324748835E+02 -0.23776224178E+02 -0.17242666964E+03  0.22081790369E+03  0.12700000000E+03 0.  0.
   -5000001    1    1    2    0    0 -0.48324748835E+02  0.23776224178E+02  0.13589688489E+02  0.13861554682E+03  0.12700000000E+03 0.  0.
<mgrwt>
<rscale>  0 0.32243328E+03</rscale>
<asrwt>0</asrwt>
<pdfrwt beam="1">  1        2 0.37019316E-01 0.32243328E+03</pdfrwt>
<pdfrwt beam="2">  1       -2 0.14328319E-01 0.32243328E+03</pdfrwt>
<totfact> 0.51399684E+03</totfact>
</mgrwt>
</event>
<event>
 4    1  0.4895160E-005  0.6530171E+03  0.7818608E-02  0.9801134E-01
         -2   -1    0    0    0  501 -0.00000000000E+00  0.00000000000E+00  0.23630275934E+03  0.23630275935E+03  0.25500000000E-02 0. -1.
          2   -1    0    0  501    0  0.00000000000E+00 -0.00000000000E+00 -0.45114937584E+03  0.45114937585E+03  0.25500000000E-02 0.  1.
    5000001    1    1    2    0    0 -0.22264469483E+02  0.29925546222E+03 -0.85611060460E+02  0.33690917462E+03  0.12700000000E+03 0.  0.
   -5000001    1    1    2    0    0  0.22264469483E+02 -0.29925546222E+03 -0.12923555605E+03  0.35054296058E+03  0.12700000000E+03 0.  0.
<mgrwt>
<rscale>  0 0.65301713E+03</rscale>
<asrwt>0</asrwt>
<pdfrwt beam="1">  1        2 0.64449911E-01 0.65301713E+03</pdfrwt>
<pdfrwt beam="2">  1       -2 0.33757537E-01 0.65301713E+03</pdfrwt>
<totfact> 0.62295691E+02</totfact>
</mgrwt>
</event>
<event>
 4    1  0.4895160E-005  0.3402050E+03  0.7818608E-02  0.1066709E+00
          2   -1    0    0  501    0  0.00000000000E+00  0.00000000000E+00  0.15407906420E+04  0.15407906420E+04  0.25500000000E-02 0.  1.
         -2   -1    0    0    0  501 -0.00000000000E+00 -0.00000000000E+00 -0.18779230976E+02  0.18779231149E+02  0.25500000000E-02 0. -1.
    5000001    1    1    2    0    0  0.64180404919E+02  0.90001948963E+02  0.64999706885E+03  0.67144967399E+03  0.12700000000E+03 0.  0.
   -5000001    1    1    2    0    0 -0.64180404919E+02 -0.90001948963E+02  0.87201434215E+03  0.88812019914E+03  0.12700000000E+03 0.  0.
<mgrwt>
<rscale>  0 0.34020502E+03</rscale>
<asrwt>0</asrwt>
<pdfrwt beam="1">  1        2 0.22011299E+00 0.34020502E+03</pdfrwt>
<pdfrwt beam="2">  1       -2 0.26827468E-02 0.34020502E+03</pdfrwt>
<totfact> 0.74713091E+03</totfact>
</mgrwt>
</event>
<event>
 4    1  0.4895160E-005  0.3651198E+03  0.7818608E-02  0.1056575E+00
          2   -1    0    0  501    0  0.00000000000E+00  0.00000000000E+00  0.19490293489E+04  0.19490293489E+04  0.25500000000E-02 0.  1.
         -2   -1    0    0    0  501 -0.00000000000E+00 -0.00000000000E+00 -0.17099856933E+02  0.17099857123E+02  0.25500000000E-02 0. -1.
    5000001    1    1    2    0    0 -0.47854759353E+02 -0.37897535370E+02  0.34092747330E+03  0.36889950289E+03  0.12700000000E+03 0.  0.
   -5000001    1    1    2    0    0  0.47854759353E+02  0.37897535370E+02  0.15910020187E+04  0.15972297032E+04  0.12700000000E+03 0.  0.
<mgrwt>
<rscale>  0 0.36511983E+03</rscale>
<asrwt>0</asrwt>
<pdfrwt beam="1">  1        2 0.27843253E+00 0.36511983E+03</pdfrwt>
<pdfrwt beam="2">  1       -2 0.24428388E-02 0.36511983E+03</pdfrwt>
<totfact> 0.53845528E+03</totfact>
</mgrwt>
</event>
<event>
 4    1  0.4895160E-005  0.4384969E+03  0.7818608E-02  0.1031209E+00
         -2   -1    0    0    0  501 -0.00000000000E+00  0.00000000000E+00  0.71056398184E+02  0.71056398229E+02  0.25500000000E-02 0.  1.
          2   -1    0    0  501    0  0.00000000000E+00 -0.00000000000E+00 -0.67650315998E+03  0.67650315998E+03  0.25500000000E-02 0. -1.
    5000001    1    1    2    0    0 -0.98577255305E+02 -0.41811195926E+02 -0.58777408965E+02  0.17620849915E+03  0.12700000000E+03 0.  0.
   -5000001    1    1    2    0    0  0.98577255305E+02  0.41811195926E+02 -0.54666935283E+03  0.57135105906E+03  0.12700000000E+03 0.  0.
<mgrwt>
<rscale>  0 0.43849688E+03</rscale>
<asrwt>0</asrwt>
<pdfrwt beam="1">  1        2 0.96643305E-01 0.43849688E+03</pdfrwt>
<pdfrwt beam="2">  1       -2 0.10150914E-01 0.43849688E+03</pdfrwt>
<totfact> 0.31181987E+03</totfact>
</mgrwt>
</event>
<event>
 4    1  0.4895160E-005  0.3396561E+03  0.7818608E-02  0.1066943E+00
          2   -1    0    0  501    0  0.00000000000E+00  0.00000000000E+00  0.12852339881E+04  0.12852339881E+04  0.25500000000E-02 0.  1.
         -2   -1    0    0    0  501 -0.00000000000E+00 -0.00000000000E+00 -0.22440708419E+02  0.22440708564E+02  0.25500000000E-02 0. -1.
    5000001    1    1    2    0    0 -0.51215758430E+02 -0.98900040926E+02  0.56379775316E+03  0.58855855994E+03  0.12700000000E+03 0.  0.
   -5000001    1    1    2    0    0  0.51215758430E+02  0.98900040926E+02  0.69899552648E+03  0.71911613668E+03  0.12700000000E+03 0.  0.
<mgrwt>
<rscale>  0 0.33965607E+03</rscale>
<asrwt>0</asrwt>
<pdfrwt beam="1">  1        2 0.18360480E+00 0.33965607E+03</pdfrwt>
<pdfrwt beam="2">  1       -2 0.32058164E-02 0.33965607E+03</pdfrwt>
<totfact> 0.77647247E+03</totfact>
</mgrwt>
</event>
<event>
 4    1  0.4895160E-005  0.6355760E+03  0.7818608E-02  0.9834228E-01
          2   -1    0    0  501    0  0.00000000000E+00  0.00000000000E+00  0.12952106464E+04  0.12952106464E+04  0.25500000000E-02 0.  1.
         -2   -1    0    0    0  501 -0.00000000000E+00 -0.00000000000E+00 -0.77971254148E+02  0.77971254189E+02  0.25500000000E-02 0. -1.
    5000001    1    1    2    0    0  0.22747008065E+03  0.18143809768E+03  0.57823539826E+03  0.65965718117E+03  0.12700000000E+03 0.  0.
   -5000001    1    1    2    0    0 -0.22747008065E+03 -0.18143809768E+03  0.63900399403E+03  0.71352471945E+03  0.12700000000E+03 0.  0.
<mgrwt>
<rscale>  0 0.63557595E+03</rscale>
<asrwt>0</asrwt>
<pdfrwt beam="1">  1        2 0.18503008E+00 0.63557595E+03</pdfrwt>
<pdfrwt beam="2">  1       -2 0.11138751E-01 0.63557595E+03</pdfrwt>
<totfact> 0.10972075E+03</totfact>
</mgrwt>
</event>
<event>
 4    1  0.4895160E-005  0.2999706E+03  0.7818608E-02  0.1085255E+00
          2   -1    0    0  501    0  0.00000000000E+00  0.00000000000E+00  0.31416070282E+04  0.31416070282E+04  0.25500000000E-02 0.  1.
         -2   -1    0    0    0  501 -0.00000000000E+00 -0.00000000000E+00 -0.71605353768E+01  0.71605358309E+01  0.25500000000E-02 0. -1.
    5000001    1    1    2    0    0 -0.41710802068E+02 -0.44899947444E+02  0.21035730395E+04  0.21082941751E+04  0.12700000000E+03 0.  0.
   -5000001    1    1    2    0    0  0.41710802068E+02  0.44899947444E+02  0.10308734534E+04  0.10404733890E+04  0.12700000000E+03 0.  0.
<mgrwt>
<rscale>  0 0.29997059E+03</rscale>
<asrwt>0</asrwt>
<pdfrwt beam="1">  1        2 0.44880138E+00 0.29997059E+03</pdfrwt>
<pdfrwt beam="2">  1       -2 0.10229328E-02 0.29997059E+03</pdfrwt>
<totfact> 0.48024918E+03</totfact>
</mgrwt>
</event>
<event>
 4    1  0.4895160E-005  0.3920471E+03  0.7818608E-02  0.1046569E+00
         -2   -1    0    0    0  501 -0.00000000000E+00  0.00000000000E+00  0.10426149744E+03  0.10426149747E+03  0.25500000000E-02 0. -1.
          2   -1    0    0  501    0  0.00000000000E+00 -0.00000000000E+00 -0.36854666799E+03  0.36854666800E+03  0.25500000000E-02 0.  1.
    5000001    1    1    2    0    0 -0.43858688174E+02  0.95295690576E+02 -0.39921305961E+01  0.16477193413E+03  0.12700000000E+03 0.  0.
   -5000001    1    1    2    0    0  0.43858688174E+02 -0.95295690576E+02 -0.26029303995E+03  0.30803623134E+03  0.12700000000E+03 0.  0.
<mgrwt>
<rscale>  0 0.39204708E+03</rscale>
<asrwt>0</asrwt>
<pdfrwt beam="1">  1        2 0.52649523E-01 0.39204708E+03</pdfrwt>
<pdfrwt beam="2">  1       -2 0.14894500E-01 0.39204708E+03</pdfrwt>
<totfact> 0.33025354E+03</totfact>
</mgrwt>
</event>
<event>
 4    1  0.4895160E-005  0.3662142E+03  0.7818608E-02  0.1056150E+00
         -2   -1    0    0    0  501 -0.00000000000E+00  0.00000000000E+00  0.32067825728E+02  0.32067825830E+02  0.25500000000E-02 0. -1.
          2   -1    0    0  501    0  0.00000000000E+00 -0.00000000000E+00 -0.10455407323E+04  0.10455407324E+04  0.25500000000E-02 0.  1.
    5000001    1    1    2    0    0  0.12252794693E+03  0.36024998468E+02 -0.40966220030E+03  0.44750756044E+03  0.12700000000E+03 0.  0.
   -5000001    1    1    2    0    0 -0.12252794693E+03 -0.36024998468E+02 -0.60381070632E+03  0.63010099774E+03  0.12700000000E+03 0.  0.
<mgrwt>
<rscale>  0 0.36621424E+03</rscale>
<asrwt>0</asrwt>
<pdfrwt beam="1">  1        2 0.14936294E+00 0.36621424E+03</pdfrwt>
<pdfrwt beam="2">  1       -2 0.45811186E-02 0.36621424E+03</pdfrwt>
<totfact> 0.61597162E+03</totfact>
</mgrwt>
</event>
<event>
 4    1  0.4895160E-005  0.3689037E+03  0.7818608E-02  0.1055113E+00
         -2   -1    0    0    0  501 -0.00000000000E+00  0.00000000000E+00  0.11299956913E+02  0.11299957201E+02  0.25500000000E-02 0. -1.
          2   -1    0    0  501    0  0.00000000000E+00 -0.00000000000E+00 -0.30108501376E+04  0.30108501376E+04  0.25500000000E-02 0.  1.
    5000001    1    1    2    0    0  0.95836762509E+02  0.39418658798E+02 -0.80681739815E+03  0.82329935604E+03  0.12700000000E+03 0.  0.
   -5000001    1    1    2    0    0 -0.95836762509E+02 -0.39418658798E+02 -0.21927327825E+04  0.21988507387E+04  0.12700000000E+03 0.  0.
<mgrwt>
<rscale>  0 0.36890366E+03</rscale>
<asrwt>0</asrwt>
<pdfrwt beam="1">  1        2 0.43012094E+00 0.36890366E+03</pdfrwt>
<pdfrwt beam="2">  1       -2 0.16142815E-02 0.36890366E+03</pdfrwt>
<totfact> 0.28804291E+03</totfact>
</mgrwt>
</event>
<event>
 4    1  0.4895160E-005  0.3368179E+03  0.7818608E-02  0.1068159E+00
         -2   -1    0    0    0  501 -0.00000000000E+00  0.00000000000E+00  0.32069757207E+03  0.32069757208E+03  0.25500000000E-02 0. -1.
          2   -1    0    0  501    0  0.00000000000E+00 -0.00000000000E+00 -0.88437114130E+02  0.88437114167E+02  0.25500000000E-02 0.  1.
    5000001    1    1    2    0    0  0.32076807747E+01 -0.10798661718E+03  0.87355048436E+02  0.18823204614E+03  0.12700000000E+03 0.  0.
   -5000001    1    1    2    0    0 -0.32076807747E+01  0.10798661718E+03  0.14490540950E+03  0.22090264011E+03  0.12700000000E+03 0.  0.
<mgrwt>
<rscale>  0 0.33681786E+03</rscale>
<asrwt>0</asrwt>
<pdfrwt beam="1">  1        2 0.12633873E-01 0.33681786E+03</pdfrwt>
<pdfrwt beam="2">  1       -2 0.45813939E-01 0.33681786E+03</pdfrwt>
<totfact> 0.22028133E+03</totfact>
</mgrwt>
</event>
<event>
 4    1  0.4895160E-005  0.2966237E+03  0.7818608E-02  0.1086941E+00
         -2   -1    0    0    0  501 -0.00000000000E+00  0.00000000000E+00  0.87933711328E+01  0.87933715026E+01  0.25500000000E-02 0. -1.
          2   -1    0    0  501    0  0.00000000000E+00 -0.00000000000E+00 -0.25014763298E+04  0.25014763299E+04  0.25500000000E-02 0.  1.
    5000001    1    1    2    0    0  0.46858612014E+02  0.12698592906E+02 -0.74492982808E+03  0.75723604810E+03  0.12700000000E+03 0.  0.
   -5000001    1    1    2    0    0 -0.46858612014E+02 -0.12698592906E+02 -0.17477531306E+04  0.17530336533E+04  0.12700000000E+03 0.  0.
<mgrwt>
<rscale>  0 0.29662374E+03</rscale>
<asrwt>0</asrwt>
<pdfrwt beam="1">  1        2 0.35735331E+00 0.29662374E+03</pdfrwt>
<pdfrwt beam="2">  1       -2 0.12561975E-02 0.29662374E+03</pdfrwt>
<totfact> 0.76574453E+03</totfact>
</mgrwt>
</event>
<event>
 4    1  0.4895160E-005  0.6848645E+03  0.7818608E-02  0.9743472E-01
         -2   -1    0    0    0  501 -0.00000000000E+00  0.00000000000E+00  0.15058634096E+03  0.15058634098E+03  0.25500000000E-02 0. -1.
          2   -1    0    0  501    0  0.00000000000E+00 -0.00000000000E+00 -0.77868835608E+03  0.77868835609E+03  0.25500000000E-02 0.  1.
    5000001    1    1    2    0    0 -0.20295408615E+03 -0.23647423127E+03 -0.40008587716E+03  0.52278880271E+03  0.12700000000E+03 0.  0.
   -5000001    1    1    2    0    0  0.20295408615E+03  0.23647423127E+03 -0.22801613796E+03  0.40648589435E+03  0.12700000000E+03 0.  0.
<mgrwt>
<rscale>  0 0.68486445E+03</rscale>
<asrwt>0</asrwt>
<pdfrwt beam="1">  1        2 0.11124119E+00 0.68486445E+03</pdfrwt>
<pdfrwt beam="2">  1       -2 0.21512335E-01 0.68486445E+03</pdfrwt>
<totfact> 0.74091420E+02</totfact>
</mgrwt>
</event>
<event>
 4    1  0.4895160E-005  0.6125129E+03  0.7818608E-02  0.9879780E-01
          2   -1    0    0  501    0  0.00000000000E+00  0.00000000000E+00  0.64595730216E+02  0.64595730266E+02  0.25500000000E-02 0.  1.
         -2   -1    0    0    0  501 -0.00000000000E+00 -0.00000000000E+00 -0.14520003434E+04  0.14520003434E+04  0.25500000000E-02 0. -1.
    5000001    1    1    2    0    0  0.87250924817E+02 -0.22624618740E+03 -0.35363011956E+03  0.44719494927E+03  0.12700000000E+03 0.  0.
   -5000001    1    1    2    0    0 -0.87250924817E+02  0.22624618740E+03 -0.10337744937E+04  0.10694011244E+04  0.12700000000E+03 0.  0.
<mgrwt>
<rscale>  0 0.61251293E+03</rscale>
<asrwt>0</asrwt>
<pdfrwt beam="1">  1        2 0.92279624E-02 0.61251293E+03</pdfrwt>
<pdfrwt beam="2">  1       -2 0.20742860E+00 0.61251293E+03</pdfrwt>
<totfact> 0.89975156E+01</totfact>
</mgrwt>
</event>
<event>
 4    1  0.4895160E-005  0.5201643E+03  0.7818608E-02  0.1008646E+00
          2   -1    0    0  501    0  0.00000000000E+00  0.00000000000E+00  0.38697624220E+03  0.38697624221E+03  0.25500000000E-02 0.  1.
         -2   -1    0    0    0  501 -0.00000000000E+00 -0.00000000000E+00 -0.17479812094E+03  0.17479812096E+03  0.25500000000E-02 0. -1.
    5000001    1    1    2    0    0  0.12723257067E+03 -0.58425365973E+02  0.29901866514E+03  0.35375530036E+03  0.12700000000E+03 0.  0.
   -5000001    1    1    2    0    0 -0.12723257067E+03  0.58425365973E+02 -0.86840543879E+02  0.20801906281E+03  0.12700000000E+03 0.  0.
<mgrwt>
<rscale>  0 0.52016428E+03</rscale>
<asrwt>0</asrwt>
<pdfrwt beam="1">  1        2 0.55282321E-01 0.52016428E+03</pdfrwt>
<pdfrwt beam="2">  1       -2 0.24971160E-01 0.52016428E+03</pdfrwt>
<totfact> 0.12877312E+03</totfact>
</mgrwt>
</event>
<event>
 4    1  0.4895160E-005  0.4077545E+03  0.7818608E-02  0.1041127E+00
         -2   -1    0    0    0  501 -0.00000000000E+00  0.00000000000E+00  0.36925795622E+02  0.36925795710E+02  0.25500000000E-02 0. -1.
          2   -1    0    0  501    0  0.00000000000E+00 -0.00000000000E+00 -0.11256610332E+04  0.11256610332E+04  0.25500000000E-02 0.  1.
    5000001    1    1    2    0    0  0.23475779624E+02 -0.15729618230E+03 -0.51018561548E+03  0.54928277184E+03  0.12700000000E+03 0.  0.
   -5000001    1    1    2    0    0 -0.23475779624E+02  0.15729618230E+03 -0.57854962210E+03  0.61330405707E+03  0.12700000000E+03 0.  0.
<mgrwt>
<rscale>  0 0.40775448E+03</rscale>
<asrwt>0</asrwt>
<pdfrwt beam="1">  1        2 0.16080870E+00 0.40775448E+03</pdfrwt>
<pdfrwt beam="2">  1       -2 0.52751144E-02 0.40775448E+03</pdfrwt>
<totfact> 0.44688021E+03</totfact>
</mgrwt>
</event>
<event>
 4    1  0.4895160E-005  0.6957289E+03  0.7818608E-02  0.9724564E-01
          2   -1    0    0  501    0  0.00000000000E+00  0.00000000000E+00  0.26545224700E+04  0.26545224700E+04  0.25500000000E-02 0.  1.
         -2   -1    0    0    0  501 -0.00000000000E+00 -0.00000000000E+00 -0.45586234103E+02  0.45586234174E+02  0.25500000000E-02 0. -1.
    5000001    1    1    2    0    0  0.31615737300E+03 -0.61970377631E+02  0.11766388887E+04  0.12265414329E+04  0.12700000000E+03 0.  0.
   -5000001    1    1    2    0    0 -0.31615737300E+03  0.61970377631E+02  0.14322973471E+04  0.14735672712E+04  0.12700000000E+03 0.  0.
<mgrwt>
<rscale>  0 0.69572892E+03</rscale>
<asrwt>0</asrwt>
<pdfrwt beam="1">  1        2 0.37921747E+00 0.69572892E+03</pdfrwt>
<pdfrwt beam="2">  1       -2 0.65123196E-02 0.69572892E+03</pdfrwt>
<totfact> 0.51851063E+02</totfact>
</mgrwt>
</event>
<event>
 4    1  0.4895160E-005  0.5041290E+03  0.7818608E-02  0.1012707E+00
          2   -1    0    0  501    0  0.00000000000E+00  0.00000000000E+00  0.10203196515E+04  0.10203196515E+04  0.25500000000E-02 0.  1.
         -2   -1    0    0    0  501 -0.00000000000E+00 -0.00000000000E+00 -0.62271171387E+02  0.62271171439E+02  0.25500000000E-02 0. -1.
    5000001    1    1    2    0    0  0.68607327193E+02  0.94774125051E+02  0.87335093618E+03  0.89025836578E+03  0.12700000000E+03 0.  0.
   -5000001    1    1    2    0    0 -0.68607327193E+02 -0.94774125051E+02  0.84697543914E+02  0.19233245714E+03  0.12700000000E+03 0.  0.
<mgrwt>
<rscale>  0 0.50412895E+03</rscale>
<asrwt>0</asrwt>
<pdfrwt beam="1">  1        2 0.14575994E+00 0.50412895E+03</pdfrwt>
<pdfrwt beam="2">  1       -2 0.88958824E-02 0.50412895E+03</pdfrwt>
<totfact> 0.22696433E+03</totfact>
</mgrwt>
</event>
<event>
 4    1  0.4895160E-005  0.3109180E+03  0.7818608E-02  0.1079907E+00
         -2   -1    0    0    0  501 -0.00000000000E+00  0.00000000000E+00  0.64734652769E+02  0.64734652819E+02  0.25500000000E-02 0. -1.
          2   -1    0    0  501    0  0.00000000000E+00 -0.00000000000E+00 -0.37333176820E+03  0.37333176820E+03  0.25500000000E-02 0.  1.
    5000001    1    1    2    0    0  0.23274125016E+02 -0.67994734201E+02 -0.22982555609E+03  0.27223841575E+03  0.12700000000E+03 0.  0.
   -5000001    1    1    2    0    0 -0.23274125016E+02  0.67994734201E+02 -0.78771559334E+02  0.16582800528E+03  0.12700000000E+03 0.  0.
<mgrwt>
<rscale>  0 0.31091801E+03</rscale>
<asrwt>0</asrwt>
<pdfrwt beam="1">  1        2 0.53333108E-01 0.31091801E+03</pdfrwt>
<pdfrwt beam="2">  1       -2 0.92478078E-02 0.31091801E+03</pdfrwt>
<totfact> 0.70144679E+03</totfact>
</mgrwt>
</event>
<event>
 4    1  0.4895160E-005  0.9076583E+03  0.7818608E-02  0.9416058E-01
         -2   -1    0    0    0  501 -0.00000000000E+00  0.00000000000E+00  0.82065023160E+02  0.82065023199E+02  0.25500000000E-02 0. -1.
          2   -1    0    0  501    0  0.00000000000E+00 -0.00000000000E+00 -0.25097281405E+04  0.25097281405E+04  0.25500000000E-02 0.  1.
    5000001    1    1    2    0    0  0.29511794181E+03 -0.32037505327E+03 -0.11856904926E+04  0.12695376003E+04  0.12700000000E+03 0.  0.
   -5000001    1    1    2    0    0 -0.29511794181E+03  0.32037505327E+03 -0.12419726248E+04  0.13222555635E+04  0.12700000000E+03 0.  0.
<mgrwt>
<rscale>  0 0.90765830E+03</rscale>
<asrwt>0</asrwt>
<pdfrwt beam="1">  1        2 0.35853254E+00 0.90765830E+03</pdfrwt>
<pdfrwt beam="2">  1       -2 0.11723576E-01 0.90765830E+03</pdfrwt>
<totfact> 0.23477676E+02</totfact>
</mgrwt>
</event>
<event>
 4    1  0.4895160E-005  0.3852251E+03  0.7818608E-02  0.1049019E+00
         -2   -1    0    0    0  501 -0.00000000000E+00  0.00000000000E+00  0.14286924777E+03  0.14286924779E+03  0.25500000000E-02 0. -1.
          2   -1    0    0  501    0  0.00000000000E+00 -0.00000000000E+00 -0.25967518404E+03  0.25967518406E+03  0.25500000000E-02 0.  1.
    5000001    1    1    2    0    0  0.88780045291E+02  0.73238152797E+02 -0.15024573273E+03  0.22792214388E+03  0.12700000000E+03 0.  0.
   -5000001    1    1    2    0    0 -0.88780045291E+02 -0.73238152797E+02  0.33439796453E+02  0.17462228796E+03  0.12700000000E+03 0.  0.
<mgrwt>
<rscale>  0 0.38522512E+03</rscale>
<asrwt>0</asrwt>
<pdfrwt beam="1">  1        2 0.37096455E-01 0.38522512E+03</pdfrwt>
<pdfrwt beam="2">  1       -2 0.20409893E-01 0.38522512E+03</pdfrwt>
<totfact> 0.28345702E+03</totfact>
</mgrwt>
</event>
<event>
 4    1  0.4895160E-005  0.3845775E+03  0.7818608E-02  0.1049255E+00
          2   -1    0    0  501    0  0.00000000000E+00  0.00000000000E+00  0.13479352533E+04  0.13479352533E+04  0.25500000000E-02 0.  1.
         -2   -1    0    0    0  501 -0.00000000000E+00 -0.00000000000E+00 -0.27430819274E+02  0.27430819393E+02  0.25500000000E-02 0. -1.
    5000001    1    1    2    0    0  0.82267789885E+02 -0.81175906584E+02  0.96973066617E+03  0.98481677584E+03  0.12700000000E+03 0.  0.
   -5000001    1    1    2    0    0 -0.82267789885E+02  0.81175906584E+02  0.35077376789E+03  0.39054929689E+03  0.12700000000E+03 0.  0.
<mgrwt>
<rscale>  0 0.38457753E+03</rscale>
<asrwt>0</asrwt>
<pdfrwt beam="1">  1        2 0.19256221E+00 0.38457753E+03</pdfrwt>
<pdfrwt beam="2">  1       -2 0.39186878E-02 0.38457753E+03</pdfrwt>
<totfact> 0.53209017E+03</totfact>
</mgrwt>
</event>
<event>
 4    1  0.4895160E-005  0.3279342E+03  0.7818608E-02  0.1072055E+00
          2   -1    0    0  501    0  0.00000000000E+00  0.00000000000E+00  0.62113171411E+02  0.62113171464E+02  0.25500000000E-02 0.  1.
         -2   -1    0    0    0  501 -0.00000000000E+00 -0.00000000000E+00 -0.43284231051E+03  0.43284231052E+03  0.25500000000E-02 0. -1.
    5000001    1    1    2    0    0  0.57459782979E+02  0.86136709460E+02 -0.19430007031E+03  0.25417056616E+03  0.12700000000E+03 0.  0.
   -5000001    1    1    2    0    0 -0.57459782979E+02 -0.86136709460E+02 -0.17642906879E+03  0.24078491583E+03  0.12700000000E+03 0.  0.
<mgrwt>
<rscale>  0 0.32793419E+03</rscale>
<asrwt>0</asrwt>
<pdfrwt beam="1">  1        2 0.88733104E-02 0.32793419E+03</pdfrwt>
<pdfrwt beam="2">  1       -2 0.61834614E-01 0.32793419E+03</pdfrwt>
<totfact> 0.18577139E+03</totfact>
</mgrwt>
</event>
<event>
 4    1  0.4895160E-005  0.6238366E+03  0.7818608E-02  0.9857150E-01
         -2   -1    0    0    0  501 -0.00000000000E+00  0.00000000000E+00  0.15075444212E+03  0.15075444214E+03  0.25500000000E-02 0. -1.
          2   -1    0    0  501    0  0.00000000000E+00 -0.00000000000E+00 -0.64537427166E+03  0.64537427167E+03  0.25500000000E-02 0.  1.
    5000001    1    1    2    0    0  0.25857038119E+03 -0.11168565449E+03 -0.30192855297E+03  0.43199789183E+03  0.12700000000E+03 0.  0.
   -5000001    1    1    2    0    0 -0.25857038119E+03  0.11168565449E+03 -0.19269127658E+03  0.36413082198E+03  0.12700000000E+03 0.  0.
<mgrwt>
<rscale>  0 0.62383664E+03</rscale>
<asrwt>0</asrwt>
<pdfrwt beam="1">  1        2 0.92196323E-01 0.62383664E+03</pdfrwt>
<pdfrwt beam="2">  1       -2 0.21536349E-01 0.62383664E+03</pdfrwt>
<totfact> 0.93333841E+02</totfact>
</mgrwt>
</event>
<event>
 4    1  0.4895160E-005  0.3805890E+03  0.7818608E-02  0.1050716E+00
         -2   -1    0    0    0  501 -0.00000000000E+00  0.00000000000E+00  0.15561027765E+02  0.15561027974E+02  0.25500000000E-02 0. -1.
          2   -1    0    0  501    0  0.00000000000E+00 -0.00000000000E+00 -0.23270958157E+04  0.23270958157E+04  0.25500000000E-02 0.  1.
    5000001    1    1    2    0    0 -0.96067912605E+02 -0.94679534832E+02 -0.88818719261E+03  0.90730300742E+03  0.12700000000E+03 0.  0.
   -5000001    1    1    2    0    0  0.96067912605E+02  0.94679534832E+02 -0.14233475954E+04  0.14353538363E+04  0.12700000000E+03 0.  0.
<mgrwt>
<rscale>  0 0.38058903E+03</rscale>
<asrwt>0</asrwt>
<pdfrwt beam="1">  1        2 0.33244204E+00 0.38058903E+03</pdfrwt>
<pdfrwt beam="2">  1       -2 0.22230055E-02 0.38058903E+03</pdfrwt>
<totfact> 0.40274705E+03</totfact>
</mgrwt>
</event>
<event>
 4    1  0.4895160E-005  0.4458622E+03  0.7818608E-02  0.1028963E+00
         -2   -1    0    0    0  501 -0.00000000000E+00  0.00000000000E+00  0.18638190144E+03  0.18638190146E+03  0.25500000000E-02 0. -1.
          2   -1    0    0  501    0  0.00000000000E+00 -0.00000000000E+00 -0.26664759289E+03  0.26664759290E+03  0.25500000000E-02 0.  1.
    5000001    1    1    2    0    0 -0.70047089654E+02  0.16669972432E+03 -0.70169723786E+02  0.23183654370E+03  0.12700000000E+03 0.  0.
   -5000001    1    1    2    0    0  0.70047089654E+02 -0.16669972432E+03 -0.10095967663E+02  0.22119295066E+03  0.12700000000E+03 0.  0.
<mgrwt>
<rscale>  0 0.44586225E+03</rscale>
<asrwt>0</asrwt>
<pdfrwt beam="1">  1        2 0.38092513E-01 0.44586225E+03</pdfrwt>
<pdfrwt beam="2">  1       -2 0.26625986E-01 0.44586225E+03</pdfrwt>
<totfact> 0.17260765E+03</totfact>
</mgrwt>
</event>
<event>
 4    1  0.4895160E-005  0.3186730E+03  0.7818608E-02  0.1076262E+00
          2   -1    0    0  501    0  0.00000000000E+00  0.00000000000E+00  0.15622317053E+03  0.15622317055E+03  0.25500000000E-02 0.  1.
         -2   -1    0    0    0  501 -0.00000000000E+00 -0.00000000000E+00 -0.16251185189E+03  0.16251185191E+03  0.25500000000E-02 0. -1.
    5000001    1    1    2    0    0 -0.53573149220E+02 -0.34359230135E+02 -0.75328175980E+02  0.16079170722E+03  0.12700000000E+03 0.  0.
   -5000001    1    1    2    0    0  0.53573149220E+02  0.34359230135E+02  0.69039494624E+02  0.15794331525E+03  0.12700000000E+03 0.  0.
<mgrwt>
<rscale>  0 0.31867298E+03</rscale>
<asrwt>0</asrwt>
<pdfrwt beam="1">  1        2 0.22317596E-01 0.31867298E+03</pdfrwt>
<pdfrwt beam="2">  1       -2 0.23215979E-01 0.31867298E+03</pdfrwt>
<totfact> 0.39689224E+03</totfact>
</mgrwt>
</event>
<event>
 4    1  0.4895160E-005  0.2770679E+03  0.7818608E-02  0.1097301E+00
         -2   -1    0    0    0  501 -0.00000000000E+00  0.00000000000E+00  0.16636935736E+03  0.16636935738E+03  0.25500000000E-02 0. -1.
          2   -1    0    0  501    0  0.00000000000E+00 -0.00000000000E+00 -0.11535571708E+03  0.11535571711E+03  0.25500000000E-02 0.  1.
    5000001    1    1    2    0    0 -0.32141271996E+02  0.11923109455E+02 -0.18668045154E+02  0.13286353079E+03  0.12700000000E+03 0.  0.
   -5000001    1    1    2    0    0  0.32141271996E+02 -0.11923109455E+02  0.69681685433E+02  0.14886154369E+03  0.12700000000E+03 0.  0.
<mgrwt>
<rscale>  0 0.27706791E+03</rscale>
<asrwt>0</asrwt>
<pdfrwt beam="1">  1        2 0.16479388E-01 0.27706791E+03</pdfrwt>
<pdfrwt beam="2">  1       -2 0.23767051E-01 0.27706791E+03</pdfrwt>
<totfact> 0.53809692E+03</totfact>
</mgrwt>
</event>
<event>
 4    1  0.4895160E-005  0.4638774E+03  0.7818608E-02  0.1023663E+00
          2   -1    0    0  501    0  0.00000000000E+00  0.00000000000E+00  0.25131835560E+03  0.25131835561E+03  0.25500000000E-02 0.  1.
         -2   -1    0    0    0  501 -0.00000000000E+00 -0.00000000000E+00 -0.21405343487E+03  0.21405343488E+03  0.25500000000E-02 0. -1.
    5000001    1    1    2    0    0  0.18676062075E+03  0.94221676561E+01 -0.33479569621E+02  0.22851299369E+03  0.12700000000E+03 0.  0.
   -5000001    1    1    2    0    0 -0.18676062075E+03 -0.94221676561E+01  0.70744490353E+02  0.23685879680E+03  0.12700000000E+03 0.  0.
<mgrwt>
<rscale>  0 0.46387739E+03</rscale>
<asrwt>0</asrwt>
<pdfrwt beam="1">  1        2 0.35902622E-01 0.46387739E+03</pdfrwt>
<pdfrwt beam="2">  1       -2 0.30579062E-01 0.46387739E+03</pdfrwt>
<totfact> 0.14320612E+03</totfact>
</mgrwt>
</event>
<event>
 4    1  0.4895160E-005  0.3641675E+03  0.7818608E-02  0.1056946E+00
          2   -1    0    0  501    0  0.00000000000E+00  0.00000000000E+00  0.17857234879E+04  0.17857234879E+04  0.25500000000E-02 0.  1.
         -2   -1    0    0    0  501 -0.00000000000E+00 -0.00000000000E+00 -0.18566420856E+02  0.18566421031E+02  0.25500000000E-02 0. -1.
    5000001    1    1    2    0    0 -0.10903624580E+03 -0.88662935300E+01  0.53121279624E+03  0.55703101255E+03  0.12700000000E+03 0.  0.
   -5000001    1    1    2    0    0  0.10903624580E+03  0.88662935300E+01  0.12359442708E+04  0.12472588964E+04  0.12700000000E+03 0.  0.
<mgrwt>
<rscale>  0 0.36416751E+03</rscale>
<asrwt>0</asrwt>
<pdfrwt beam="1">  1        2 0.25510342E+00 0.36416751E+03</pdfrwt>
<pdfrwt beam="2">  1       -2 0.26523452E-02 0.36416751E+03</pdfrwt>
<totfact> 0.57345113E+03</totfact>
</mgrwt>
</event>
<event>
 4    1  0.4895160E-005  0.7296320E+03  0.7818608E-02  0.9667858E-01
          2   -1    0    0  501    0  0.00000000000E+00  0.00000000000E+00  0.28636233538E+04  0.28636233538E+04  0.25500000000E-02 0.  1.
         -2   -1    0    0    0  501 -0.00000000000E+00 -0.00000000000E+00 -0.46476329374E+02  0.46476329444E+02  0.25500000000E-02 0. -1.
    5000001    1    1    2    0    0  0.15994027330E+03 -0.14835356055E+03  0.35807311591E+03  0.43810389897E+03  0.12700000000E+03 0.  0.
   -5000001    1    1    2    0    0 -0.15994027330E+03  0.14835356055E+03  0.24590739085E+04  0.24719957843E+04  0.12700000000E+03 0.  0.
<mgrwt>
<rscale>  0 0.72963197E+03</rscale>
<asrwt>0</asrwt>
<pdfrwt beam="1">  1        2 0.40908901E+00 0.72963197E+03</pdfrwt>
<pdfrwt beam="2">  1       -2 0.66394763E-02 0.72963197E+03</pdfrwt>
<totfact> 0.38852405E+02</totfact>
</mgrwt>
</event>
<event>
 4    1  0.4895160E-005  0.5707280E+03  0.7818608E-02  0.9968069E-01
         -2   -1    0    0    0  501 -0.00000000000E+00  0.00000000000E+00  0.46144152312E+02  0.46144152383E+02  0.25500000000E-02 0. -1.
          2   -1    0    0  501    0  0.00000000000E+00 -0.00000000000E+00 -0.17647436764E+04  0.17647436765E+04  0.25500000000E-02 0.  1.
    5000001    1    1    2    0    0  0.12135868223E+03 -0.14415592495E+03 -0.31161304889E+03  0.38566896776E+03  0.12700000000E+03 0.  0.
   -5000001    1    1    2    0    0 -0.12135868223E+03  0.14415592495E+03 -0.14069864752E+04  0.14252188611E+04  0.12700000000E+03 0.  0.
<mgrwt>
<rscale>  0 0.57072796E+03</rscale>
<asrwt>0</asrwt>
<pdfrwt beam="1">  1        2 0.25210620E+00 0.57072796E+03</pdfrwt>
<pdfrwt beam="2">  1       -2 0.65920229E-02 0.57072796E+03</pdfrwt>
<totfact> 0.14517173E+03</totfact>
</mgrwt>
</event>
<event>
 4    1  0.4895160E-005  0.4072944E+03  0.7818608E-02  0.1041283E+00
         -2   -1    0    0    0  501 -0.00000000000E+00  0.00000000000E+00  0.18468385001E+03  0.18468385003E+03  0.25500000000E-02 0. -1.
          2   -1    0    0  501    0  0.00000000000E+00 -0.00000000000E+00 -0.22455772534E+03  0.22455772536E+03  0.25500000000E-02 0.  1.
    5000001    1    1    2    0    0 -0.14182166635E+03  0.60972262603E+02 -0.59009647109E+02  0.20842778199E+03  0.12700000000E+03 0.  0.
   -5000001    1    1    2    0    0  0.14182166635E+03 -0.60972262603E+02  0.19135771775E+02  0.20081379339E+03  0.12700000000E+03 0.  0.
<mgrwt>
<rscale>  0 0.40729442E+03</rscale>
<asrwt>0</asrwt>
<pdfrwt beam="1">  1        2 0.32079675E-01 0.40729442E+03</pdfrwt>
<pdfrwt beam="2">  1       -2 0.26383407E-01 0.40729442E+03</pdfrwt>
<totfact> 0.21183168E+03</totfact>
</mgrwt>
</event>
<event>
 4    1  0.4895160E-005  0.3687673E+03  0.7818608E-02  0.1055165E+00
          2   -1    0    0  501    0  0.00000000000E+00  0.00000000000E+00  0.34232985733E+03  0.34232985734E+03  0.25500000000E-02 0.  1.
         -2   -1    0    0    0  501 -0.00000000000E+00 -0.00000000000E+00 -0.99311613298E+02  0.99311613331E+02  0.25500000000E-02 0. -1.
    5000001    1    1    2    0    0  0.60715389246E+02  0.10593273474E+03  0.18666896038E+03  0.25667567775E+03  0.12700000000E+03 0.  0.
   -5000001    1    1    2    0    0 -0.60715389246E+02 -0.10593273474E+03  0.56349283652E+02  0.18496579292E+03  0.12700000000E+03 0.  0.
<mgrwt>
<rscale>  0 0.36876730E+03</rscale>
<asrwt>0</asrwt>
<pdfrwt beam="1">  1        2 0.48904266E-01 0.36876730E+03</pdfrwt>
<pdfrwt beam="2">  1       -2 0.14187373E-01 0.36876730E+03</pdfrwt>
<totfact> 0.38751372E+03</totfact>
</mgrwt>
</event>
<event>
 4    1  0.4895160E-005  0.2931192E+03  0.7818608E-02  0.1088732E+00
          2   -1    0    0  501    0  0.00000000000E+00  0.00000000000E+00  0.92496178236E+03  0.92496178237E+03  0.25500000000E-02 0.  1.
         -2   -1    0    0    0  501 -0.00000000000E+00 -0.00000000000E+00 -0.23222267747E+02  0.23222267887E+02  0.25500000000E-02 0. -1.
    5000001    1    1    2    0    0  0.56102627681E+02  0.44196672935E+02  0.39973733395E+03  0.42546420165E+03  0.12700000000E+03 0.  0.
   -5000001    1    1    2    0    0 -0.56102627681E+02 -0.44196672935E+02  0.50200218067E+03  0.52271984861E+03  0.12700000000E+03 0.  0.
<mgrwt>
<rscale>  0 0.29311916E+03</rscale>
<asrwt>0</asrwt>
<pdfrwt beam="1">  1        2 0.13213743E+00 0.29311916E+03</pdfrwt>
<pdfrwt beam="2">  1       -2 0.33174659E-02 0.29311916E+03</pdfrwt>
<totfact> 0.11779121E+04</totfact>
</mgrwt>
</event>
<event>
 4    1  0.4895160E-005  0.5776635E+03  0.7818608E-02  0.9952862E-01
          2   -1    0    0  501    0  0.00000000000E+00  0.00000000000E+00  0.36121865909E+04  0.36121865909E+04  0.25500000000E-02 0.  1.
         -2   -1    0    0    0  501 -0.00000000000E+00 -0.00000000000E+00 -0.23095094849E+02  0.23095094989E+02  0.25500000000E-02 0. -1.
    5000001    1    1    2    0    0 -0.11579333379E+02 -0.25762264004E+03  0.19715688733E+04  0.19924146978E+04  0.12700000000E+03 0.  0.
   -5000001    1    1    2    0    0  0.11579333379E+02  0.25762264004E+03  0.16175226227E+04  0.16428669881E+04  0.12700000000E+03 0.  0.
<mgrwt>
<rscale>  0 0.57766354E+03</rscale>
<asrwt>0</asrwt>
<pdfrwt beam="1">  1        2 0.51602683E+00 0.57766354E+03</pdfrwt>
<pdfrwt beam="2">  1       -2 0.32992982E-02 0.57766354E+03</pdfrwt>
<totfact> 0.43836145E+02</totfact>
</mgrwt>
</event>
<event>
 4    1  0.4895160E-005  0.2928228E+03  0.7818608E-02  0.1088884E+00
          2   -1    0    0  501    0  0.00000000000E+00  0.00000000000E+00  0.22413374615E+03  0.22413374617E+03  0.25500000000E-02 0.  1.
         -2   -1    0    0    0  501 -0.00000000000E+00 -0.00000000000E+00 -0.95640660202E+02  0.95640660236E+02  0.25500000000E-02 0. -1.
    5000001    1    1    2    0    0 -0.27371308103E+02 -0.14083470758E+02  0.13635238095E+03  0.18886107181E+03  0.12700000000E+03 0.  0.
   -5000001    1    1    2    0    0  0.27371308103E+02  0.14083470758E+02 -0.78592949969E+01  0.13091333459E+03  0.12700000000E+03 0.  0.
<mgrwt>
<rscale>  0 0.29282281E+03</rscale>
<asrwt>0</asrwt>
<pdfrwt beam="1">  1        2 0.32019106E-01 0.29282281E+03</pdfrwt>
<pdfrwt beam="2">  1       -2 0.13662952E-01 0.29282281E+03</pdfrwt>
<totfact> 0.64909288E+03</totfact>
</mgrwt>
</event>
<event>
 4    1  0.4895160E-005  0.3336281E+03  0.7818608E-02  0.1069543E+00
          2   -1    0    0  501    0  0.00000000000E+00  0.00000000000E+00  0.79243834540E+02  0.79243834581E+02  0.25500000000E-02 0.  1.
         -2   -1    0    0    0  501 -0.00000000000E+00 -0.00000000000E+00 -0.35115583227E+03  0.35115583228E+03  0.25500000000E-02 0. -1.
    5000001    1    1    2    0    0 -0.32172223185E+01 -0.10074788272E+03 -0.18653957216E+03  0.24715682951E+03  0.12700000000E+03 0.  0.
   -5000001    1    1    2    0    0  0.32172223185E+01  0.10074788272E+03 -0.85372425565E+02  0.18324283735E+03  0.12700000000E+03 0.  0.
<mgrwt>
<rscale>  0 0.33362814E+03</rscale>
<asrwt>0</asrwt>
<pdfrwt beam="1">  1        2 0.11320548E-01 0.33362814E+03</pdfrwt>
<pdfrwt beam="2">  1       -2 0.50165118E-01 0.33362814E+03</pdfrwt>
<totfact> 0.21038216E+03</totfact>
</mgrwt>
</event>
<event>
 4    1  0.4895160E-005  0.2789302E+03  0.7818608E-02  0.1096275E+00
         -2   -1    0    0    0  501 -0.00000000000E+00  0.00000000000E+00  0.11011982010E+02  0.11011982305E+02  0.25500000000E-02 0. -1.
          2   -1    0    0  501    0  0.00000000000E+00 -0.00000000000E+00 -0.17663045140E+04  0.17663045140E+04  0.25500000000E-02 0.  1.
    5000001    1    1    2    0    0 -0.32609118690E+02 -0.35106030832E+02 -0.67357358446E+03  0.68711437309E+03  0.12700000000E+03 0.  0.
   -5000001    1    1    2    0    0  0.32609118690E+02  0.35106030832E+02 -0.10817189475E+04  0.10902021232E+04  0.12700000000E+03 0.  0.
<mgrwt>
<rscale>  0 0.27893020E+03</rscale>
<asrwt>0</asrwt>
<pdfrwt beam="1">  1        2 0.25232904E+00 0.27893020E+03</pdfrwt>
<pdfrwt beam="2">  1       -2 0.15731414E-02 0.27893020E+03</pdfrwt>
<totfact> 0.12650336E+04</totfact>
</mgrwt>
</event>
<event>
 4    1  0.4895160E-005  0.4745457E+03  0.7818608E-02  0.1020645E+00
         -2   -1    0    0    0  501 -0.00000000000E+00  0.00000000000E+00  0.52224581467E+02  0.52224581530E+02  0.25500000000E-02 0. -1.
          2   -1    0    0  501    0  0.00000000000E+00 -0.00000000000E+00 -0.10780059392E+04  0.10780059392E+04  0.25500000000E-02 0.  1.
    5000001    1    1    2    0    0  0.16390632438E+03 -0.13317715009E+02 -0.78576823575E+03  0.81277510113E+03  0.12700000000E+03 0.  0.
   -5000001    1    1    2    0    0 -0.16390632438E+03  0.13317715009E+02 -0.24001312194E+03  0.31745541956E+03  0.12700000000E+03 0.  0.
<mgrwt>
<rscale>  0 0.47454572E+03</rscale>
<asrwt>0</asrwt>
<pdfrwt beam="1">  1        2 0.15400084E+00 0.47454572E+03</pdfrwt>
<pdfrwt beam="2">  1       -2 0.74606551E-02 0.47454572E+03</pdfrwt>
<totfact> 0.27751010E+03</totfact>
</mgrwt>
</event>
<event>
 4    1  0.4895160E-005  0.3136477E+03  0.7818608E-02  0.1078611E+00
         -2   -1    0    0    0  501 -0.00000000000E+00  0.00000000000E+00  0.66013161216E+01  0.66013166141E+01  0.25500000000E-02 0. -1.
          2   -1    0    0  501    0  0.00000000000E+00 -0.00000000000E+00 -0.37255774495E+04  0.37255774495E+04  0.25500000000E-02 0.  1.
    5000001    1    1    2    0    0 -0.72168660735E+02 -0.27430808769E+02 -0.24549215370E+04  0.24594164994E+04  0.12700000000E+03 0.  0.
   -5000001    1    1    2    0    0  0.72168660735E+02  0.27430808769E+02 -0.12640545964E+04  0.12727622667E+04  0.12700000000E+03 0.  0.
<mgrwt>
<rscale>  0 0.31364767E+03</rscale>
<asrwt>0</asrwt>
<pdfrwt beam="1">  1        2 0.53222400E+00 0.31364767E+03</pdfrwt>
<pdfrwt beam="2">  1       -2 0.94304758E-03 0.31364767E+03</pdfrwt>
<totfact> 0.24917039E+03</totfact>
</mgrwt>
</event>
<event>
 4    1  0.4895160E-005  0.6945055E+03  0.7818608E-02  0.9726675E-01
          2   -1    0    0  501    0  0.00000000000E+00  0.00000000000E+00  0.19058852559E+04  0.19058852559E+04  0.25500000000E-02 0.  1.
         -2   -1    0    0    0  501 -0.00000000000E+00 -0.00000000000E+00 -0.63269525309E+02  0.63269525360E+02  0.25500000000E-02 0. -1.
    5000001    1    1    2    0    0  0.31815554262E+03 -0.45491360473E+02  0.10180024054E+04  0.10750582824E+04  0.12700000000E+03 0.  0.
   -5000001    1    1    2    0    0 -0.31815554262E+03  0.45491360473E+02  0.82461332523E+03  0.89409649889E+03  0.12700000000E+03 0.  0.
<mgrwt>
<rscale>  0 0.69450545E+03</rscale>
<asrwt>0</asrwt>
<pdfrwt beam="1">  1        2 0.27226930E+00 0.69450545E+03</pdfrwt>
<pdfrwt beam="2">  1       -2 0.90385043E-02 0.69450545E+03</pdfrwt>
<totfact> 0.74067141E+02</totfact>
</mgrwt>
</event>
<event>
 4    1  0.4895160E-005  0.4019876E+03  0.7818608E-02  0.1043094E+00
         -2   -1    0    0    0  501 -0.00000000000E+00  0.00000000000E+00  0.16679528058E+02  0.16679528253E+02  0.25500000000E-02 0. -1.
          2   -1    0    0  501    0  0.00000000000E+00 -0.00000000000E+00 -0.24220410083E+04  0.24220410083E+04  0.25500000000E-02 0.  1.
    5000001    1    1    2    0    0  0.15016517964E+03  0.32949202469E+02 -0.13554677826E+04  0.13700573494E+04  0.12700000000E+03 0.  0.
   -5000001    1    1    2    0    0 -0.15016517964E+03 -0.32949202469E+02 -0.10498936977E+04  0.10686631871E+04  0.12700000000E+03 0.  0.
<mgrwt>
<rscale>  0 0.40198757E+03</rscale>
<asrwt>0</asrwt>
<pdfrwt beam="1">  1        2 0.34600563E+00 0.40198757E+03</pdfrwt>
<pdfrwt beam="2">  1       -2 0.23827913E-02 0.40198757E+03</pdfrwt>
<totfact> 0.32519765E+03</totfact>
</mgrwt>
</event>
<event>
 4    1  0.4895160E-005  0.3244690E+03  0.7818608E-02  0.1073611E+00
          2   -1    0    0  501    0  0.00000000000E+00  0.00000000000E+00  0.32979636354E+03  0.32979636355E+03  0.25500000000E-02 0.  1.
         -2   -1    0    0    0  501 -0.00000000000E+00 -0.00000000000E+00 -0.79806905089E+02  0.79806905130E+02  0.25500000000E-02 0. -1.
    5000001    1    1    2    0    0  0.83502246682E+02  0.44138568101E+02  0.16998559747E+03  0.23226050405E+03  0.12700000000E+03 0.  0.
   -5000001    1    1    2    0    0 -0.83502246682E+02 -0.44138568101E+02  0.80003860985E+02  0.17734276463E+03  0.12700000000E+03 0.  0.
<mgrwt>
<rscale>  0 0.32446896E+03</rscale>
<asrwt>0</asrwt>
<pdfrwt beam="1">  1        2 0.47113766E-01 0.32446896E+03</pdfrwt>
<pdfrwt beam="2">  1       -2 0.11400987E-01 0.32446896E+03</pdfrwt>
<totfact> 0.57482532E+03</totfact>
</mgrwt>
</event>
<event>
 4    1  0.4895160E-005  0.4228934E+03  0.7818608E-02  0.1036129E+00
         -2   -1    0    0    0  501 -0.00000000000E+00  0.00000000000E+00  0.13651022679E+03  0.13651022681E+03  0.25500000000E-02 0. -1.
          2   -1    0    0  501    0  0.00000000000E+00 -0.00000000000E+00 -0.32751913060E+03  0.32751913061E+03  0.25500000000E-02 0.  1.
    5000001    1    1    2    0    0 -0.15450371839E+03  0.75567227100E+01 -0.17034622739E+03  0.26282187930E+03  0.12700000000E+03 0.  0.
   -5000001    1    1    2    0    0  0.15450371839E+03 -0.75567227100E+01 -0.20662676420E+02  0.20120747812E+03  0.12700000000E+03 0.  0.
<mgrwt>
<rscale>  0 0.42289342E+03</rscale>
<asrwt>0</asrwt>
<pdfrwt beam="1">  1        2 0.46788447E-01 0.42289342E+03</pdfrwt>
<pdfrwt beam="2">  1       -2 0.19501461E-01 0.42289342E+03</pdfrwt>
<totfact> 0.23834463E+03</totfact>
</mgrwt>
</event>
<event>
 4    1  0.4895160E-005  0.5030483E+03  0.7818608E-02  0.1012986E+00
         -2   -1    0    0    0  501 -0.00000000000E+00  0.00000000000E+00  0.73497705952E+02  0.73497705996E+02  0.25500000000E-02 0. -1.
          2   -1    0    0  501    0  0.00000000000E+00 -0.00000000000E+00 -0.86076684285E+03  0.86076684285E+03  0.25500000000E-02 0.  1.
    5000001    1    1    2    0    0  0.18219273470E+03  0.99334161200E+02 -0.51217499198E+03  0.56702177257E+03  0.12700000000E+03 0.  0.
   -5000001    1    1    2    0    0 -0.18219273470E+03 -0.99334161200E+02 -0.27509414491E+03  0.36724277628E+03  0.12700000000E+03 0.  0.
<mgrwt>
<rscale>  0 0.50304826E+03</rscale>
<asrwt>0</asrwt>
<pdfrwt beam="1">  1        2 0.12296669E+00 0.50304826E+03</pdfrwt>
<pdfrwt beam="2">  1       -2 0.10499673E-01 0.50304826E+03</pdfrwt>
<totfact> 0.21879395E+03</totfact>
</mgrwt>
</event>
<event>
 4    1  0.4895160E-005  0.3819813E+03  0.7818608E-02  0.1050204E+00
         -2   -1    0    0    0  501 -0.00000000000E+00  0.00000000000E+00  0.67658899851E+02  0.67658899899E+02  0.25500000000E-02 0. -1.
          2   -1    0    0  501    0  0.00000000000E+00 -0.00000000000E+00 -0.53913716098E+03  0.53913716099E+03  0.25500000000E-02 0.  1.
    5000001    1    1    2    0    0  0.82354907870E+02 -0.10361317098E+03 -0.15122582016E+03  0.23773150555E+03  0.12700000000E+03 0.  0.
   -5000001    1    1    2    0    0 -0.82354907870E+02  0.10361317098E+03 -0.32025244097E+03  0.36906455533E+03  0.12700000000E+03 0.  0.
<mgrwt>
<rscale>  0 0.38198129E+03</rscale>
<asrwt>0</asrwt>
<pdfrwt beam="1">  1        2 0.77019592E-01 0.38198129E+03</pdfrwt>
<pdfrwt beam="2">  1       -2 0.96655575E-02 0.38198129E+03</pdfrwt>
<totfact> 0.43829810E+03</totfact>
</mgrwt>
</event>
<event>
 4    1  0.4895160E-005  0.2900876E+03  0.7818608E-02  0.1090303E+00
          2   -1    0    0  501    0  0.00000000000E+00  0.00000000000E+00  0.15901072026E+04  0.15901072026E+04  0.25500000000E-02 0.  1.
         -2   -1    0    0    0  501 -0.00000000000E+00 -0.00000000000E+00 -0.13230365247E+02  0.13230365493E+02  0.25500000000E-02 0. -1.
    5000001    1    1    2    0    0 -0.12813372181E+02 -0.39250850169E+02  0.47558962661E+03  0.49398310162E+03  0.12700000000E+03 0.  0.
   -5000001    1    1    2    0    0  0.12813372181E+02  0.39250850169E+02  0.11012872107E+04  0.11093544664E+04  0.12700000000E+03 0.  0.
<mgrwt>
<rscale>  0 0.29008757E+03</rscale>
<asrwt>0</asrwt>
<pdfrwt beam="1">  1        2 0.22715834E+00 0.29008757E+03</pdfrwt>
<pdfrwt beam="2">  1       -2 0.18900508E-02 0.29008757E+03</pdfrwt>
<totfact> 0.11822402E+04</totfact>
</mgrwt>
</event>
<event>
 4    1  0.4895160E-005  0.3360822E+03  0.7818608E-02  0.1068477E+00
         -2   -1    0    0    0  501 -0.00000000000E+00  0.00000000000E+00  0.28608859867E+02  0.28608859981E+02  0.25500000000E-02 0. -1.
          2   -1    0    0  501    0  0.00000000000E+00 -0.00000000000E+00 -0.98703002173E+03  0.98703002174E+03  0.25500000000E-02 0.  1.
    5000001    1    1    2    0    0 -0.82046536425E+02 -0.71542351039E+02 -0.52783199678E+03  0.55370168769E+03  0.12700000000E+03 0.  0.
   -5000001    1    1    2    0    0  0.82046536425E+02  0.71542351039E+02 -0.43058916509E+03  0.46193719403E+03  0.12700000000E+03 0.  0.
<mgrwt>
<rscale>  0 0.33608215E+03</rscale>
<asrwt>0</asrwt>
<pdfrwt beam="1">  1        2 0.14100427E+00 0.33608215E+03</pdfrwt>
<pdfrwt beam="2">  1       -2 0.40869806E-02 0.33608215E+03</pdfrwt>
<totfact> 0.79205700E+03</totfact>
</mgrwt>
</event>
<event>
 4    1  0.4895160E-005  0.4150899E+03  0.7818608E-02  0.1038676E+00
         -2   -1    0    0    0  501 -0.00000000000E+00  0.00000000000E+00  0.76036559011E+02  0.76036559054E+02  0.25500000000E-02 0. -1.
          2   -1    0    0  501    0  0.00000000000E+00 -0.00000000000E+00 -0.56650256734E+03  0.56650256734E+03  0.25500000000E-02 0.  1.
    5000001    1    1    2    0    0 -0.43601802250E+02  0.15822927812E+03 -0.24077762031E+03  0.31786865850E+03  0.12700000000E+03 0.  0.
   -5000001    1    1    2    0    0  0.43601802250E+02 -0.15822927812E+03 -0.24968838802E+03  0.32467046790E+03  0.12700000000E+03 0.  0.
<mgrwt>
<rscale>  0 0.41508990E+03</rscale>
<asrwt>0</asrwt>
<pdfrwt beam="1">  1        2 0.80928936E-01 0.41508990E+03</pdfrwt>
<pdfrwt beam="2">  1       -2 0.10862366E-01 0.41508990E+03</pdfrwt>
<totfact> 0.34385593E+03</totfact>
</mgrwt>
</event>
<event>
 4    1  0.4895160E-005  0.3521777E+03  0.7818608E-02  0.1061725E+00
         -2   -1    0    0    0  501 -0.00000000000E+00  0.00000000000E+00  0.10035372729E+02  0.10035373053E+02  0.25500000000E-02 0. -1.
          2   -1    0    0  501    0  0.00000000000E+00 -0.00000000000E+00 -0.30897992062E+04  0.30897992062E+04  0.25500000000E-02 0.  1.
    5000001    1    1    2    0    0 -0.11386602980E+03  0.30341909888E+02 -0.12626313014E+04  0.12744618109E+04  0.12700000000E+03 0.  0.
   -5000001    1    1    2    0    0  0.11386602980E+03 -0.30341909888E+02 -0.18171325321E+04  0.18253727683E+04  0.12700000000E+03 0.  0.
<mgrwt>
<rscale>  0 0.35217772E+03</rscale>
<asrwt>0</asrwt>
<pdfrwt beam="1">  1        2 0.44139928E+00 0.35217772E+03</pdfrwt>
<pdfrwt beam="2">  1       -2 0.14336267E-02 0.35217772E+03</pdfrwt>
<totfact> 0.31147430E+03</totfact>
</mgrwt>
</event>
<event>
 4    1  0.4895160E-005  0.3326898E+03  0.7818608E-02  0.1069953E+00
         -2   -1    0    0    0  501 -0.00000000000E+00  0.00000000000E+00  0.13086972501E+02  0.13086972750E+02  0.25500000000E-02 0. -1.
          2   -1    0    0  501    0  0.00000000000E+00 -0.00000000000E+00 -0.21143637564E+04  0.21143637564E+04  0.25500000000E-02 0.  1.
    5000001    1    1    2    0    0 -0.85418734932E+02  0.40477971379E+02 -0.72414572236E+03  0.74124952186E+03  0.12700000000E+03 0.  0.
   -5000001    1    1    2    0    0  0.85418734932E+02 -0.40477971379E+02 -0.13771310616E+04  0.13862012073E+04  0.12700000000E+03 0.  0.
<mgrwt>
<rscale>  0 0.33268977E+03</rscale>
<asrwt>0</asrwt>
<pdfrwt beam="1">  1        2 0.30205175E+00 0.33268977E+03</pdfrwt>
<pdfrwt beam="2">  1       -2 0.18695689E-02 0.33268977E+03</pdfrwt>
<totfact> 0.66395874E+03</totfact>
</mgrwt>
</event>
<event>
 4    1  0.4895160E-005  0.3268747E+03  0.7818608E-02  0.1072528E+00
          2   -1    0    0  501    0  0.00000000000E+00  0.00000000000E+00  0.14602383219E+04  0.14602383219E+04  0.25500000000E-02 0.  1.
         -2   -1    0    0    0  501 -0.00000000000E+00 -0.00000000000E+00 -0.18292743434E+02  0.18292743611E+02  0.25500000000E-02 0. -1.
    5000001    1    1    2    0    0 -0.79495260808E+02  0.53844146982E+02  0.55391431112E+03  0.57634083034E+03  0.12700000000E+03 0.  0.
   -5000001    1    1    2    0    0  0.79495260808E+02 -0.53844146982E+02  0.88803126733E+03  0.90219023516E+03  0.12700000000E+03 0.  0.
<mgrwt>
<rscale>  0 0.32687469E+03</rscale>
<asrwt>0</asrwt>
<pdfrwt beam="1">  1        2 0.20860549E+00 0.32687469E+03</pdfrwt>
<pdfrwt beam="2">  1       -2 0.26132489E-02 0.32687469E+03</pdfrwt>
<totfact> 0.85337534E+03</totfact>
</mgrwt>
</event>
<event>
 4    1  0.4895160E-005  0.4021072E+03  0.7818608E-02  0.1043052E+00
         -2   -1    0    0    0  501 -0.00000000000E+00  0.00000000000E+00  0.30717477559E+02  0.30717477665E+02  0.25500000000E-02 0. -1.
          2   -1    0    0  501    0  0.00000000000E+00 -0.00000000000E+00 -0.13159461832E+04  0.13159461832E+04  0.25500000000E-02 0.  1.
    5000001    1    1    2    0    0  0.55371327736E+02 -0.11865201654E+03 -0.35944390588E+03  0.40307965272E+03  0.12700000000E+03 0.  0.
   -5000001    1    1    2    0    0 -0.55371327736E+02  0.11865201654E+03 -0.92578479976E+03  0.94358400815E+03  0.12700000000E+03 0.  0.
<mgrwt>
<rscale>  0 0.40210719E+03</rscale>
<asrwt>0</asrwt>
<pdfrwt beam="1">  1        2 0.18799228E+00 0.40210719E+03</pdfrwt>
<pdfrwt beam="2">  1       -2 0.43882119E-02 0.40210719E+03</pdfrwt>
<totfact> 0.46592217E+03</totfact>
</mgrwt>
</event>
<event>
 4    1  0.4895160E-005  0.4526778E+03  0.7818608E-02  0.1026926E+00
          2   -1    0    0  501    0  0.00000000000E+00  0.00000000000E+00  0.77715370290E+02  0.77715370332E+02  0.25500000000E-02 0.  1.
         -2   -1    0    0    0  501 -0.00000000000E+00 -0.00000000000E+00 -0.65919140189E+03  0.65919140189E+03  0.25500000000E-02 0. -1.
    5000001    1    1    2    0    0 -0.19861950786E+02  0.18340095965E+03 -0.23749117241E+03  0.32643753776E+03  0.12700000000E+03 0.  0.
   -5000001    1    1    2    0    0  0.19861950786E+02 -0.18340095965E+03 -0.34398485919E+03  0.41046923446E+03  0.12700000000E+03 0.  0.
<mgrwt>
<rscale>  0 0.45267783E+03</rscale>
<asrwt>0</asrwt>
<pdfrwt beam="1">  1        2 0.11102196E-01 0.45267783E+03</pdfrwt>
<pdfrwt beam="2">  1       -2 0.94170197E-01 0.45267783E+03</pdfrwt>
<totfact> 0.55805048E+02</totfact>
</mgrwt>
</event>
<event>
 4    1  0.4895160E-005  0.1064473E+04  0.7818608E-02  0.9240528E-01
          2   -1    0    0  501    0  0.00000000000E+00  0.00000000000E+00  0.17799474258E+04  0.17799474258E+04  0.25500000000E-02 0.  1.
         -2   -1    0    0    0  501 -0.00000000000E+00 -0.00000000000E+00 -0.15914832670E+03  0.15914832672E+03  0.25500000000E-02 0. -1.
    5000001    1    1    2    0    0 -0.50783197421E+03  0.30631095492E+02  0.64428879318E+03  0.83070369390E+03  0.12700000000E+03 0.  0.
   -5000001    1    1    2    0    0  0.50783197421E+03 -0.30631095492E+02  0.97651030596E+03  0.11083920587E+04  0.12700000000E+03 0.  0.
<mgrwt>
<rscale>  0 0.10644729E+04</rscale>
<asrwt>0</asrwt>
<pdfrwt beam="1">  1        2 0.25427818E+00 0.10644729E+04</pdfrwt>
<pdfrwt beam="2">  1       -2 0.22735477E-01 0.10644729E+04</pdfrwt>
<totfact> 0.17642247E+02</totfact>
</mgrwt>
</event>
<event>
 4    1  0.4895160E-005  0.4227594E+03  0.7818608E-02  0.1036172E+00
         -2   -1    0    0    0  501 -0.00000000000E+00  0.00000000000E+00  0.67464814606E+02  0.67464814655E+02  0.25500000000E-02 0. -1.
          2   -1    0    0  501    0  0.00000000000E+00 -0.00000000000E+00 -0.66229159378E+03  0.66229159379E+03  0.25500000000E-02 0.  1.
    5000001    1    1    2    0    0 -0.14303897097E+03  0.88149090686E+02 -0.32838704599E+03  0.39012493048E+03  0.12700000000E+03 0.  0.
   -5000001    1    1    2    0    0  0.14303897097E+03 -0.88149090686E+02 -0.26643973318E+03  0.33963147796E+03  0.12700000000E+03 0.  0.
<mgrwt>
<rscale>  0 0.42275941E+03</rscale>
<asrwt>0</asrwt>
<pdfrwt beam="1">  1        2 0.94613081E-01 0.42275941E+03</pdfrwt>
<pdfrwt beam="2">  1       -2 0.96378311E-02 0.42275941E+03</pdfrwt>
<totfact> 0.34746977E+03</totfact>
</mgrwt>
</event>
<event>
 4    1  0.4895160E-005  0.6876355E+03  0.7818608E-02  0.9738614E-01
          2   -1    0    0  501    0  0.00000000000E+00  0.00000000000E+00  0.18720124122E+04  0.18720124122E+04  0.25500000000E-02 0.  1.
         -2   -1    0    0    0  501 -0.00000000000E+00 -0.00000000000E+00 -0.63146284951E+02  0.63146285002E+02  0.25500000000E-02 0. -1.
    5000001    1    1    2    0    0 -0.18065043091E+03  0.13732362912E+03  0.27145663069E+03  0.37591230313E+03  0.12700000000E+03 0.  0.
   -5000001    1    1    2    0    0  0.18065043091E+03 -0.13732362912E+03  0.15374094965E+04  0.15592463940E+04  0.12700000000E+03 0.  0.
<mgrwt>
<rscale>  0 0.68763545E+03</rscale>
<asrwt>0</asrwt>
<pdfrwt beam="1">  1        2 0.26743031E+00 0.68763545E+03</pdfrwt>
<pdfrwt beam="2">  1       -2 0.90208990E-02 0.68763545E+03</pdfrwt>
<totfact> 0.77318951E+02</totfact>
</mgrwt>
</event>
<event>
 4    1  0.4895160E-005  0.4546685E+03  0.7818608E-02  0.1026339E+00
         -2   -1    0    0    0  501 -0.00000000000E+00  0.00000000000E+00  0.15555277688E+03  0.15555277690E+03  0.25500000000E-02 0. -1.
          2   -1    0    0  501    0  0.00000000000E+00 -0.00000000000E+00 -0.33224003754E+03  0.33224003755E+03  0.25500000000E-02 0.  1.
    5000001    1    1    2    0    0 -0.12098480872E+03  0.12908652581E+03 -0.18392203566E+02  0.21855875237E+03  0.12700000000E+03 0.  0.
   -5000001    1    1    2    0    0  0.12098480872E+03 -0.12908652581E+03 -0.15829505709E+03  0.26923406208E+03  0.12700000000E+03 0.  0.
<mgrwt>
<rscale>  0 0.45466850E+03</rscale>
<asrwt>0</asrwt>
<pdfrwt beam="1">  1        2 0.47462862E-01 0.45466850E+03</pdfrwt>
<pdfrwt beam="2">  1       -2 0.22221825E-01 0.45466850E+03</pdfrwt>
<totfact> 0.18712794E+03</totfact>
</mgrwt>
</event>
<event>
 4    1  0.4895160E-005  0.7171039E+03  0.7818608E-02  0.9688421E-01
          2   -1    0    0  501    0  0.00000000000E+00  0.00000000000E+00  0.12053056164E+04  0.12053056164E+04  0.25500000000E-02 0.  1.
         -2   -1    0    0    0  501 -0.00000000000E+00 -0.00000000000E+00 -0.10666131967E+03  0.10666131970E+03  0.25500000000E-02 0. -1.
    5000001    1    1    2    0    0 -0.21315689086E+03 -0.72140732720E+02  0.94542388183E+02  0.27514979302E+03  0.12700000000E+03 0.  0.
   -5000001    1    1    2    0    0  0.21315689086E+03  0.72140732720E+02  0.10041019086E+04  0.10368171431E+04  0.12700000000E+03 0.  0.
<mgrwt>
<rscale>  0 0.71710386E+03</rscale>
<asrwt>0</asrwt>
<pdfrwt beam="1">  1        2 0.17218651E+00 0.71710386E+03</pdfrwt>
<pdfrwt beam="2">  1       -2 0.15237332E-01 0.71710386E+03</pdfrwt>
<totfact> 0.72850536E+02</totfact>
</mgrwt>
</event>
<event>
 4    1  0.4895160E-005  0.3760157E+03  0.7818608E-02  0.1052416E+00
          2   -1    0    0  501    0  0.00000000000E+00  0.00000000000E+00  0.16896801904E+03  0.16896801906E+03  0.25500000000E-02 0.  1.
         -2   -1    0    0    0  501 -0.00000000000E+00 -0.00000000000E+00 -0.20919316803E+03  0.20919316804E+03  0.25500000000E-02 0. -1.
    5000001    1    1    2    0    0  0.87778129253E+02  0.10444977352E+03  0.45876917288E+01  0.18645321686E+03  0.12700000000E+03 0.  0.
   -5000001    1    1    2    0    0 -0.87778129253E+02 -0.10444977352E+03 -0.44812840712E+02  0.19170797024E+03  0.12700000000E+03 0.  0.
<mgrwt>
<rscale>  0 0.37601572E+03</rscale>
<asrwt>0</asrwt>
<pdfrwt beam="1">  1        2 0.24138289E-01 0.37601572E+03</pdfrwt>
<pdfrwt beam="2">  1       -2 0.29884738E-01 0.37601572E+03</pdfrwt>
<totfact> 0.23201779E+03</totfact>
</mgrwt>
</event>
<event>
 4    1  0.4895160E-005  0.4162246E+03  0.7818608E-02  0.1038302E+00
         -2   -1    0    0    0  501 -0.00000000000E+00  0.00000000000E+00  0.16488445885E+03  0.16488445887E+03  0.25500000000E-02 0. -1.
          2   -1    0    0  501    0  0.00000000000E+00 -0.00000000000E+00 -0.26267316754E+03  0.26267316756E+03  0.25500000000E-02 0.  1.
    5000001    1    1    2    0    0  0.10805730037E+03  0.12161813945E+03 -0.76349824054E+02  0.22005828237E+03  0.12700000000E+03 0.  0.
   -5000001    1    1    2    0    0 -0.10805730037E+03 -0.12161813945E+03 -0.21438884642E+02  0.20749934405E+03  0.12700000000E+03 0.  0.
<mgrwt>
<rscale>  0 0.41622457E+03</rscale>
<asrwt>0</asrwt>
<pdfrwt beam="1">  1        2 0.37524738E-01 0.41622457E+03</pdfrwt>
<pdfrwt beam="2">  1       -2 0.23554923E-01 0.41622457E+03</pdfrwt>
<totfact> 0.21818036E+03</totfact>
</mgrwt>
</event>
<event>
 4    1  0.4895160E-005  0.3711858E+03  0.7818608E-02  0.1054240E+00
          2   -1    0    0  501    0  0.00000000000E+00  0.00000000000E+00  0.38305527474E+03  0.38305527475E+03  0.25500000000E-02 0.  1.
         -2   -1    0    0    0  501 -0.00000000000E+00 -0.00000000000E+00 -0.89921026786E+02  0.89921026823E+02  0.25500000000E-02 0. -1.
    5000001    1    1    2    0    0 -0.13025075096E+03 -0.35681254443E+02  0.15777119730E+03  0.24343204543E+03  0.12700000000E+03 0.  0.
   -5000001    1    1    2    0    0  0.13025075096E+03  0.35681254443E+02  0.13536305065E+03  0.22954425614E+03  0.12700000000E+03 0.  0.
<mgrwt>
<rscale>  0 0.37118580E+03</rscale>
<asrwt>0</asrwt>
<pdfrwt beam="1">  1        2 0.54722183E-01 0.37118580E+03</pdfrwt>
<pdfrwt beam="2">  1       -2 0.12845861E-01 0.37118580E+03</pdfrwt>
<totfact> 0.40381814E+03</totfact>
</mgrwt>
</event>
<event>
 4    1  0.4895160E-005  0.5478862E+03  0.7818608E-02  0.1001984E+00
          2   -1    0    0  501    0  0.00000000000E+00  0.00000000000E+00  0.13747400863E+04  0.13747400863E+04  0.25500000000E-02 0.  1.
         -2   -1    0    0    0  501 -0.00000000000E+00 -0.00000000000E+00 -0.54588374642E+02  0.54588374702E+02  0.25500000000E-02 0. -1.
    5000001    1    1    2    0    0 -0.14107472121E+03  0.17439575631E+03  0.90200467856E+03  0.93811374413E+03  0.12700000000E+03 0.  0.
   -5000001    1    1    2    0    0  0.14107472121E+03 -0.17439575631E+03  0.41814703310E+03  0.49121471687E+03  0.12700000000E+03 0.  0.
<mgrwt>
<rscale>  0 0.54788622E+03</rscale>
<asrwt>0</asrwt>
<pdfrwt beam="1">  1        2 0.19639145E+00 0.54788622E+03</pdfrwt>
<pdfrwt beam="2">  1       -2 0.77983388E-02 0.54788622E+03</pdfrwt>
<totfact> 0.17705428E+03</totfact>
</mgrwt>
</event>
<event>
 4    1  0.4895160E-005  0.3661992E+03  0.7818608E-02  0.1056156E+00
         -2   -1    0    0    0  501 -0.00000000000E+00  0.00000000000E+00  0.10986065554E+03  0.10986065557E+03  0.25500000000E-02 0.  1.
          2   -1    0    0  501    0  0.00000000000E+00 -0.00000000000E+00 -0.30516347194E+03  0.30516347196E+03  0.25500000000E-02 0. -1.
    5000001    1    1    2    0    0 -0.44274099002E+02  0.12101971296E+03 -0.12951573948E+03  0.22250683931E+03  0.12700000000E+03 0.  0.
   -5000001    1    1    2    0    0  0.44274099002E+02 -0.12101971296E+03 -0.65787076926E+02  0.19251728821E+03  0.12700000000E+03 0.  0.
<mgrwt>
<rscale>  0 0.36619918E+03</rscale>
<asrwt>0</asrwt>
<pdfrwt beam="1">  1        2 0.43594782E-01 0.36619918E+03</pdfrwt>
<pdfrwt beam="2">  1       -2 0.15694379E-01 0.36619918E+03</pdfrwt>
<totfact> 0.37113711E+03</totfact>
</mgrwt>
</event>
<event>
 4    1  0.4895160E-005  0.1143334E+04  0.7818608E-02  0.9163956E-01
         -2   -1    0    0    0  501 -0.00000000000E+00  0.00000000000E+00  0.50101138162E+03  0.50101138162E+03  0.25500000000E-02 0. -1.
          2   -1    0    0  501    0  0.00000000000E+00 -0.00000000000E+00 -0.65228659867E+03  0.65228659867E+03  0.25500000000E-02 0.  1.
    5000001    1    1    2    0    0 -0.41511233318E+03 -0.20109650285E+03  0.24000472773E+03  0.53524697285E+03  0.12700000000E+03 0.  0.
   -5000001    1    1    2    0    0  0.41511233318E+03  0.20109650285E+03 -0.39127994478E+03  0.61805100745E+03  0.12700000000E+03 0.  0.
<mgrwt>
<rscale>  0 0.11433337E+04</rscale>
<asrwt>0</asrwt>
<pdfrwt beam="1">  1        2 0.93183799E-01 0.11433337E+04</pdfrwt>
<pdfrwt beam="2">  1       -2 0.71573055E-01 0.11433337E+04</pdfrwt>
<totfact> 0.86148086E+01</totfact>
</mgrwt>
</event>
<event>
 4    1  0.4895160E-005  0.3963622E+03  0.7818608E-02  0.1045047E+00
          2   -1    0    0  501    0  0.00000000000E+00  0.00000000000E+00  0.26627315004E+04  0.26627315004E+04  0.25500000000E-02 0.  1.
         -2   -1    0    0    0  501 -0.00000000000E+00 -0.00000000000E+00 -0.14750173541E+02  0.14750173761E+02  0.25500000000E-02 0. -1.
    5000001    1    1    2    0    0 -0.10880226088E+03 -0.45726537736E+02  0.67543039129E+03  0.69732636671E+03  0.12700000000E+03 0.  0.
   -5000001    1    1    2    0    0  0.10880226088E+03  0.45726537736E+02  0.19725509356E+04  0.19801553075E+04  0.12700000000E+03 0.  0.
<mgrwt>
<rscale>  0 0.39636222E+03</rscale>
<asrwt>0</asrwt>
<pdfrwt beam="1">  1        2 0.38039064E+00 0.39636222E+03</pdfrwt>
<pdfrwt beam="2">  1       -2 0.21071653E-02 0.39636222E+03</pdfrwt>
<totfact> 0.29486548E+03</totfact>
</mgrwt>
</event>
<event>
 4    1  0.4895160E-005  0.2756703E+03  0.7818608E-02  0.1098077E+00
         -2   -1    0    0    0  501 -0.00000000000E+00  0.00000000000E+00  0.71148122995E+02  0.71148123041E+02  0.25500000000E-02 0. -1.
          2   -1    0    0  501    0  0.00000000000E+00 -0.00000000000E+00 -0.26702792019E+03  0.26702792020E+03  0.25500000000E-02 0.  1.
    5000001    1    1    2    0    0  0.29482728091E+02  0.12860741677E+02 -0.15048831350E+03  0.19952534283E+03  0.12700000000E+03 0.  0.
   -5000001    1    1    2    0    0 -0.29482728091E+02 -0.12860741677E+02 -0.45391483695E+02  0.13865070041E+03  0.12700000000E+03 0.  0.
<mgrwt>
<rscale>  0 0.27567035E+03</rscale>
<asrwt>0</asrwt>
<pdfrwt beam="1">  1        2 0.38146845E-01 0.27567035E+03</pdfrwt>
<pdfrwt beam="2">  1       -2 0.10164018E-01 0.27567035E+03</pdfrwt>
<totfact> 0.86291380E+03</totfact>
</mgrwt>
</event>
<event>
 4    1  0.4895160E-005  0.3770737E+03  0.7818608E-02  0.1052021E+00
          2   -1    0    0  501    0  0.00000000000E+00  0.00000000000E+00  0.34281610644E+04  0.34281610644E+04  0.25500000000E-02 0.  1.
         -2   -1    0    0    0  501 -0.00000000000E+00 -0.00000000000E+00 -0.10368864429E+02  0.10368864743E+02  0.25500000000E-02 0. -1.
    5000001    1    1    2    0    0  0.76683695859E+01 -0.11702068938E+03  0.23952167959E+04  0.24014464693E+04  0.12700000000E+03 0.  0.
   -5000001    1    1    2    0    0 -0.76683695859E+01  0.11702068938E+03  0.10225754041E+04  0.10370834599E+04  0.12700000000E+03 0.  0.
<mgrwt>
<rscale>  0 0.37707367E+03</rscale>
<asrwt>0</asrwt>
<pdfrwt beam="1">  1        2 0.48973758E+00 0.37707367E+03</pdfrwt>
<pdfrwt beam="2">  1       -2 0.14812655E-02 0.37707367E+03</pdfrwt>
<totfact> 0.19159778E+03</totfact>
</mgrwt>
</event>
<event>
 4    1  0.4895160E-005  0.2966501E+03  0.7818608E-02  0.1086927E+00
         -2   -1    0    0    0  501 -0.00000000000E+00  0.00000000000E+00  0.60108045215E+02  0.60108045269E+02  0.25500000000E-02 0. -1.
          2   -1    0    0  501    0  0.00000000000E+00 -0.00000000000E+00 -0.36601290872E+03  0.36601290873E+03  0.25500000000E-02 0.  1.
    5000001    1    1    2    0    0  0.46344892656E+02  0.24422820877E+02 -0.23327769162E+03  0.27072459191E+03  0.12700000000E+03 0.  0.
   -5000001    1    1    2    0    0 -0.46344892656E+02 -0.24422820877E+02 -0.72627171880E+02  0.15539636209E+03  0.12700000000E+03 0.  0.
<mgrwt>
<rscale>  0 0.29665010E+03</rscale>
<asrwt>0</asrwt>
<pdfrwt beam="1">  1        2 0.52287557E-01 0.29665010E+03</pdfrwt>
<pdfrwt beam="2">  1       -2 0.85868638E-02 0.29665010E+03</pdfrwt>
<totfact> 0.80432485E+03</totfact>
</mgrwt>
</event>
<event>
 4    1  0.4895160E-005  0.4053982E+03  0.7818608E-02  0.1041926E+00
         -2   -1    0    0    0  501 -0.00000000000E+00  0.00000000000E+00  0.15906396800E+03  0.15906396802E+03  0.25500000000E-02 0. -1.
          2   -1    0    0  501    0  0.00000000000E+00 -0.00000000000E+00 -0.25830446343E+03  0.25830446345E+03  0.25500000000E-02 0.  1.
    5000001    1    1    2    0    0 -0.16612020340E+00  0.11096373824E+03  0.66149841741E+02  0.18115678393E+03  0.12700000000E+03 0.  0.
   -5000001    1    1    2    0    0  0.16612020340E+00 -0.11096373824E+03 -0.16539033718E+03  0.23621164754E+03  0.12700000000E+03 0.  0.
<mgrwt>
<rscale>  0 0.40539824E+03</rscale>
<asrwt>0</asrwt>
<pdfrwt beam="1">  1        2 0.36900637E-01 0.40539824E+03</pdfrwt>
<pdfrwt beam="2">  1       -2 0.22723424E-01 0.40539824E+03</pdfrwt>
<totfact> 0.23666573E+03</totfact>
</mgrwt>
</event>
<event>
 4    1  0.4895160E-005  0.4555564E+03  0.7818608E-02  0.1026078E+00
          2   -1    0    0  501    0  0.00000000000E+00  0.00000000000E+00  0.11076333805E+04  0.11076333805E+04  0.25500000000E-02 0.  1.
         -2   -1    0    0    0  501 -0.00000000000E+00 -0.00000000000E+00 -0.46841218435E+02  0.46841218504E+02  0.25500000000E-02 0. -1.
    5000001    1    1    2    0    0  0.12867077102E+03 -0.63069667661E+02  0.21775298354E+03  0.28996432908E+03  0.12700000000E+03 0.  0.
   -5000001    1    1    2    0    0 -0.12867077102E+03  0.63069667661E+02  0.84303917852E+03  0.86451026993E+03  0.12700000000E+03 0.  0.
<mgrwt>
<rscale>  0 0.45555635E+03</rscale>
<asrwt>0</asrwt>
<pdfrwt beam="1">  1        2 0.15823335E+00 0.45555635E+03</pdfrwt>
<pdfrwt beam="2">  1       -2 0.66916021E-02 0.45555635E+03</pdfrwt>
<totfact> 0.31650200E+03</totfact>
</mgrwt>
</event>
<event>
 4    1  0.4895160E-005  0.4028130E+03  0.7818608E-02  0.1042810E+00
         -2   -1    0    0    0  501 -0.00000000000E+00  0.00000000000E+00  0.26864457093E+03  0.26864457094E+03  0.25500000000E-02 0. -1.
          2   -1    0    0  501    0  0.00000000000E+00 -0.00000000000E+00 -0.15099722375E+03  0.15099722377E+03  0.25500000000E-02 0.  1.
    5000001    1    1    2    0    0 -0.21237043193E+01 -0.15085308303E+03  0.10145291802E+03  0.22177208426E+03  0.12700000000E+03 0.  0.
   -5000001    1    1    2    0    0  0.21237043193E+01  0.15085308303E+03  0.16194429164E+02  0.19786971046E+03  0.12700000000E+03 0.  0.
<mgrwt>
<rscale>  0 0.40281303E+03</rscale>
<asrwt>0</asrwt>
<pdfrwt beam="1">  1        2 0.21571032E-01 0.40281303E+03</pdfrwt>
<pdfrwt beam="2">  1       -2 0.38377796E-01 0.40281303E+03</pdfrwt>
<totfact> 0.16546403E+03</totfact>
</mgrwt>
</event>
<event>
 4    1  0.4895160E-005  0.9428661E+03  0.7818608E-02  0.9373528E-01
         -2   -1    0    0    0  501 -0.00000000000E+00  0.00000000000E+00  0.10543357596E+03  0.10543357599E+03  0.25500000000E-02 0. -1.
          2   -1    0    0  501    0  0.00000000000E+00 -0.00000000000E+00 -0.21079541371E+04  0.21079541371E+04  0.25500000000E-02 0.  1.
    5000001    1    1    2    0    0  0.26771738332E+03  0.47376960183E+01 -0.14056854003E+03  0.32799932552E+03  0.12700000000E+03 0.  0.
   -5000001    1    1    2    0    0 -0.26771738332E+03 -0.47376960183E+01 -0.18619520211E+04  0.18853883876E+04  0.12700000000E+03 0.  0.
<mgrwt>
<rscale>  0 0.94286615E+03</rscale>
<asrwt>0</asrwt>
<pdfrwt beam="1">  1        2 0.30113628E+00 0.94286615E+03</pdfrwt>
<pdfrwt beam="2">  1       -2 0.15061941E-01 0.94286615E+03</pdfrwt>
<totfact> 0.24750441E+02</totfact>
</mgrwt>
</event>
<event>
 4    1  0.4895160E-005  0.4113322E+03  0.7818608E-02  0.1039925E+00
         -2   -1    0    0    0  501 -0.00000000000E+00  0.00000000000E+00  0.44803165706E+02  0.44803165778E+02  0.25500000000E-02 0. -1.
          2   -1    0    0  501    0  0.00000000000E+00 -0.00000000000E+00 -0.94409741031E+03  0.94409741031E+03  0.25500000000E-02 0.  1.
    5000001    1    1    2    0    0  0.14012673665E+03 -0.38384481604E+02 -0.62067401458E+03  0.64998007902E+03  0.12700000000E+03 0.  0.
   -5000001    1    1    2    0    0 -0.14012673665E+03  0.38384481604E+02 -0.27862023002E+03  0.33892049707E+03  0.12700000000E+03 0.  0.
<mgrwt>
<rscale>  0 0.41133224E+03</rscale>
<asrwt>0</asrwt>
<pdfrwt beam="1">  1        2 0.13487105E+00 0.41133224E+03</pdfrwt>
<pdfrwt beam="2">  1       -2 0.64004528E-02 0.41133224E+03</pdfrwt>
<totfact> 0.42413540E+03</totfact>
</mgrwt>
</event>
<event>
 4    1  0.4895160E-005  0.3161868E+03  0.7818608E-02  0.1077418E+00
          2   -1    0    0  501    0  0.00000000000E+00  0.00000000000E+00  0.79720957914E+03  0.79720957914E+03  0.25500000000E-02 0.  1.
         -2   -1    0    0    0  501 -0.00000000000E+00 -0.00000000000E+00 -0.31351260174E+02  0.31351260278E+02  0.25500000000E-02 0. -1.
    5000001    1    1    2    0    0  0.36148095068E+02  0.76238471194E+02  0.27344658018E+03  0.31308309038E+03  0.12700000000E+03 0.  0.
   -5000001    1    1    2    0    0 -0.36148095068E+02 -0.76238471194E+02  0.49241173879E+03  0.51547774905E+03  0.12700000000E+03 0.  0.
<mgrwt>
<rscale>  0 0.31618681E+03</rscale>
<asrwt>0</asrwt>
<pdfrwt beam="1">  1        2 0.11388708E+00 0.31618681E+03</pdfrwt>
<pdfrwt beam="2">  1       -2 0.44787518E-02 0.31618681E+03</pdfrwt>
<totfact> 0.90842163E+03</totfact>
</mgrwt>
</event>
<event>
 4    1  0.4895160E-005  0.3789501E+03  0.7818608E-02  0.1051322E+00
          2   -1    0    0  501    0  0.00000000000E+00  0.00000000000E+00  0.26178505947E+02  0.26178506071E+02  0.25500000000E-02 0.  1.
         -2   -1    0    0    0  501 -0.00000000000E+00 -0.00000000000E+00 -0.13713845670E+04  0.13713845670E+04  0.25500000000E-02 0. -1.
    5000001    1    1    2    0    0  0.62872189488E+01 -0.83939493268E+02 -0.10879959624E+04  0.10986125713E+04  0.12700000000E+03 0.  0.
   -5000001    1    1    2    0    0 -0.62872189488E+01  0.83939493268E+02 -0.25721009865E+03  0.29895050175E+03  0.12700000000E+03 0.  0.
<mgrwt>
<rscale>  0 0.37895012E+03</rscale>
<asrwt>0</asrwt>
<pdfrwt beam="1">  1        2 0.37397874E-02 0.37895012E+03</pdfrwt>
<pdfrwt beam="2">  1       -2 0.19591204E+00 0.37895012E+03</pdfrwt>
<totfact> 0.35624889E+02</totfact>
</mgrwt>
</event>
<event>
 4    1  0.4895160E-005  0.6659017E+03  0.7818608E-02  0.9777390E-01
          2   -1    0    0  501    0  0.00000000000E+00  0.00000000000E+00  0.94399103174E+03  0.94399103174E+03  0.25500000000E-02 0.  1.
         -2   -1    0    0    0  501 -0.00000000000E+00 -0.00000000000E+00 -0.11743361003E+03  0.11743361006E+03  0.25500000000E-02 0. -1.
    5000001    1    1    2    0    0 -0.18495131933E+03  0.24576551317E+03  0.43071036762E+03  0.54428677989E+03  0.12700000000E+03 0.  0.
   -5000001    1    1    2    0    0  0.18495131933E+03 -0.24576551317E+03  0.39584705408E+03  0.51713786190E+03  0.12700000000E+03 0.  0.
<mgrwt>
<rscale>  0 0.66590172E+03</rscale>
<asrwt>0</asrwt>
<pdfrwt beam="1">  1        2 0.13485587E+00 0.66590172E+03</pdfrwt>
<pdfrwt beam="2">  1       -2 0.16776229E-01 0.66590172E+03</pdfrwt>
<totfact> 0.88530155E+02</totfact>
</mgrwt>
</event>
<event>
 4    1  0.4895160E-005  0.5510879E+03  0.7818608E-02  0.1001242E+00
          2   -1    0    0  501    0  0.00000000000E+00  0.00000000000E+00  0.80422987042E+03  0.80422987042E+03  0.25500000000E-02 0. -1.
         -2   -1    0    0    0  501 -0.00000000000E+00 -0.00000000000E+00 -0.94406429762E+02  0.94406429796E+02  0.25500000000E-02 0.  1.
    5000001    1    1    2    0    0 -0.20183897055E+03  0.12789148077E+03  0.27017597308E+03  0.38238626716E+03  0.12700000000E+03 0.  0.
   -5000001    1    1    2    0    0  0.20183897055E+03 -0.12789148077E+03  0.43964746758E+03  0.51625003306E+03  0.12700000000E+03 0.  0.
<mgrwt>
<rscale>  0 0.55108791E+03</rscale>
<asrwt>0</asrwt>
<pdfrwt beam="1">  1        2 0.11488999E+00 0.55108791E+03</pdfrwt>
<pdfrwt beam="2">  1       -2 0.13486632E-01 0.55108791E+03</pdfrwt>
<totfact> 0.15836055E+03</totfact>
</mgrwt>
</event>
<event>
 4    1  0.4895160E-005  0.4781858E+03  0.7818608E-02  0.1019635E+00
         -2   -1    0    0    0  501 -0.00000000000E+00  0.00000000000E+00  0.14142900900E+02  0.14142901130E+02  0.25500000000E-02 0. -1.
          2   -1    0    0  501    0  0.00000000000E+00 -0.00000000000E+00 -0.40419860411E+04  0.40419860411E+04  0.25500000000E-02 0.  1.
    5000001    1    1    2    0    0  0.42845512412E+02  0.19768099394E+03 -0.21079550568E+04  0.21214422063E+04  0.12700000000E+03 0.  0.
   -5000001    1    1    2    0    0 -0.42845512412E+02 -0.19768099394E+03 -0.19198880834E+04  0.19346867359E+04  0.12700000000E+03 0.  0.
<mgrwt>
<rscale>  0 0.47818577E+03</rscale>
<asrwt>0</asrwt>
<pdfrwt beam="1">  1        2 0.57742584E+00 0.47818577E+03</pdfrwt>
<pdfrwt beam="2">  1       -2 0.20204170E-02 0.47818577E+03</pdfrwt>
<totfact> 0.49595214E+02</totfact>
</mgrwt>
</event>
<event>
 4    1  0.4895160E-005  0.6478002E+03  0.7818608E-02  0.9810916E-01
         -2   -1    0    0    0  501 -0.00000000000E+00  0.00000000000E+00  0.10046725495E+03  0.10046725498E+03  0.25500000000E-02 0. -1.
          2   -1    0    0  501    0  0.00000000000E+00 -0.00000000000E+00 -0.10442334271E+04  0.10442334271E+04  0.25500000000E-02 0.  1.
    5000001    1    1    2    0    0 -0.28598454718E+03 -0.12553434866E+02 -0.32576631710E+03  0.45188211218E+03  0.12700000000E+03 0.  0.
   -5000001    1    1    2    0    0  0.28598454718E+03  0.12553434866E+02 -0.61799985503E+03  0.69281856988E+03  0.12700000000E+03 0.  0.
<mgrwt>
<rscale>  0 0.64780017E+03</rscale>
<asrwt>0</asrwt>
<pdfrwt beam="1">  1        2 0.14917620E+00 0.64780017E+03</pdfrwt>
<pdfrwt beam="2">  1       -2 0.14352466E-01 0.64780017E+03</pdfrwt>
<totfact> 0.10011892E+03</totfact>
</mgrwt>
</event>
<event>
 4    1  0.4895160E-005  0.3339685E+03  0.7818608E-02  0.1069394E+00
         -2   -1    0    0    0  501 -0.00000000000E+00  0.00000000000E+00  0.28770029137E+02  0.28770029250E+02  0.25500000000E-02 0. -1.
          2   -1    0    0  501    0  0.00000000000E+00 -0.00000000000E+00 -0.96919394214E+03  0.96919394215E+03  0.25500000000E-02 0.  1.
    5000001    1    1    2    0    0 -0.66649213744E+02 -0.55368716178E+02 -0.27547575430E+03  0.31547377646E+03  0.12700000000E+03 0.  0.
   -5000001    1    1    2    0    0  0.66649213744E+02  0.55368716178E+02 -0.66494815870E+03  0.68249019494E+03  0.12700000000E+03 0.  0.
<mgrwt>
<rscale>  0 0.33396849E+03</rscale>
<asrwt>0</asrwt>
<pdfrwt beam="1">  1        2 0.13845626E+00 0.33396849E+03</pdfrwt>
<pdfrwt beam="2">  1       -2 0.41100048E-02 0.33396849E+03</pdfrwt>
<totfact> 0.80488736E+03</totfact>
</mgrwt>
</event>
<event>
 4    1  0.4895160E-005  0.4164601E+03  0.7818608E-02  0.1038225E+00
         -2   -1    0    0    0  501 -0.00000000000E+00  0.00000000000E+00  0.18857482457E+03  0.18857482459E+03  0.25500000000E-02 0. -1.
          2   -1    0    0  501    0  0.00000000000E+00 -0.00000000000E+00 -0.22993393162E+03  0.22993393164E+03  0.25500000000E-02 0.  1.
    5000001    1    1    2    0    0 -0.84119437344E+01  0.15265549262E+03  0.41724965651E+02  0.20308725460E+03  0.12700000000E+03 0.  0.
   -5000001    1    1    2    0    0  0.84119437344E+01 -0.15265549262E+03 -0.83084072701E+02  0.21542150162E+03  0.12700000000E+03 0.  0.
<mgrwt>
<rscale>  0 0.41646009E+03</rscale>
<asrwt>0</asrwt>
<pdfrwt beam="1">  1        2 0.32847705E-01 0.41646009E+03</pdfrwt>
<pdfrwt beam="2">  1       -2 0.26939261E-01 0.41646009E+03</pdfrwt>
<totfact> 0.19882603E+03</totfact>
</mgrwt>
</event>
<event>
 4    1  0.4895160E-005  0.6771624E+03  0.7818608E-02  0.9757105E-01
          2   -1    0    0  501    0  0.00000000000E+00  0.00000000000E+00  0.13517597189E+04  0.13517597189E+04  0.25500000000E-02 0.  1.
         -2   -1    0    0    0  501 -0.00000000000E+00 -0.00000000000E+00 -0.84805914498E+02  0.84805914537E+02  0.25500000000E-02 0. -1.
    5000001    1    1    2    0    0 -0.50326353067E+02  0.28660797256E+03  0.88297365689E+03  0.93832209316E+03  0.12700000000E+03 0.  0.
   -5000001    1    1    2    0    0  0.50326353067E+02 -0.28660797256E+03  0.38398014751E+03  0.49824354028E+03  0.12700000000E+03 0.  0.
<mgrwt>
<rscale>  0 0.67716237E+03</rscale>
<asrwt>0</asrwt>
<pdfrwt beam="1">  1        2 0.19310854E+00 0.67716237E+03</pdfrwt>
<pdfrwt beam="2">  1       -2 0.12115130E-01 0.67716237E+03</pdfrwt>
<totfact> 0.88910580E+02</totfact>
</mgrwt>
</event>
<event>
 4    1  0.4895160E-005  0.3335021E+03  0.7818608E-02  0.1069598E+00
         -2   -1    0    0    0  501 -0.00000000000E+00  0.00000000000E+00  0.17311731674E+02  0.17311731862E+02  0.25500000000E-02 0. -1.
          2   -1    0    0  501    0  0.00000000000E+00 -0.00000000000E+00 -0.16061889764E+04  0.16061889764E+04  0.25500000000E-02 0.  1.
    5000001    1    1    2    0    0  0.10196616411E+03  0.10046717081E+01 -0.96852148849E+03  0.98212065535E+03  0.12700000000E+03 0.  0.
   -5000001    1    1    2    0    0 -0.10196616411E+03 -0.10046717081E+01 -0.62035575625E+03  0.64138005293E+03  0.12700000000E+03 0.  0.
<mgrwt>
<rscale>  0 0.33350210E+03</rscale>
<asrwt>0</asrwt>
<pdfrwt beam="1">  1        2 0.22945547E+00 0.33350210E+03</pdfrwt>
<pdfrwt beam="2">  1       -2 0.24731055E-02 0.33350210E+03</pdfrwt>
<totfact> 0.78157953E+03</totfact>
</mgrwt>
</event>
<event>
 4    1  0.4895160E-005  0.4236321E+03  0.7818608E-02  0.1035891E+00
          2   -1    0    0  501    0  0.00000000000E+00  0.00000000000E+00  0.11122404273E+03  0.11122404276E+03  0.25500000000E-02 0.  1.
         -2   -1    0    0    0  501 -0.00000000000E+00 -0.00000000000E+00 -0.40338442245E+03  0.40338442246E+03  0.25500000000E-02 0. -1.
    5000001    1    1    2    0    0 -0.66645926191E+02 -0.15177356371E+03 -0.10295812788E+03  0.23282240059E+03  0.12700000000E+03 0.  0.
   -5000001    1    1    2    0    0  0.66645926191E+02  0.15177356371E+03 -0.18920225184E+03  0.28178606463E+03  0.12700000000E+03 0.  0.
<mgrwt>
<rscale>  0 0.42363213E+03</rscale>
<asrwt>0</asrwt>
<pdfrwt beam="1">  1        2 0.15889149E-01 0.42363213E+03</pdfrwt>
<pdfrwt beam="2">  1       -2 0.57626345E-01 0.42363213E+03</pdfrwt>
<totfact> 0.10547732E+03</totfact>
</mgrwt>
</event>
<event>
 4    1  0.4895160E-005  0.3011255E+03  0.7818608E-02  0.1084679E+00
         -2   -1    0    0    0  501 -0.00000000000E+00  0.00000000000E+00  0.58614356603E+02  0.58614356659E+02  0.25500000000E-02 0. -1.
          2   -1    0    0  501    0  0.00000000000E+00 -0.00000000000E+00 -0.38675076544E+03  0.38675076545E+03  0.25500000000E-02 0.  1.
    5000001    1    1    2    0    0 -0.43777205749E+02  0.62767055777E+02 -0.12538728848E+03  0.19418321026E+03  0.12700000000E+03 0.  0.
   -5000001    1    1    2    0    0  0.43777205749E+02 -0.62767055777E+02 -0.20274912036E+03  0.25118191185E+03  0.12700000000E+03 0.  0.
<mgrwt>
<rscale>  0 0.30112554E+03</rscale>
<asrwt>0</asrwt>
<pdfrwt beam="1">  1        2 0.55250108E-01 0.30112554E+03</pdfrwt>
<pdfrwt beam="2">  1       -2 0.83734797E-02 0.30112554E+03</pdfrwt>
<totfact> 0.78874093E+03</totfact>
</mgrwt>
</event>
<event>
 4    1  0.4895160E-005  0.3938463E+03  0.7818608E-02  0.1045932E+00
          2   -1    0    0  501    0  0.00000000000E+00  0.00000000000E+00  0.74807079583E+03  0.74807079583E+03  0.25500000000E-02 0.  1.
         -2   -1    0    0    0  501 -0.00000000000E+00 -0.00000000000E+00 -0.51838313588E+02  0.51838313650E+02  0.25500000000E-02 0. -1.
    5000001    1    1    2    0    0  0.17265485909E+02  0.13374946901E+03  0.21243704900E+03  0.28186081184E+03  0.12700000000E+03 0.  0.
   -5000001    1    1    2    0    0 -0.17265485909E+02 -0.13374946901E+03  0.48379543324E+03  0.51804829764E+03  0.12700000000E+03 0.  0.
<mgrwt>
<rscale>  0 0.39384631E+03</rscale>
<asrwt>0</asrwt>
<pdfrwt beam="1">  1        2 0.10686726E+00 0.39384631E+03</pdfrwt>
<pdfrwt beam="2">  1       -2 0.74054733E-02 0.39384631E+03</pdfrwt>
<totfact> 0.45491010E+03</totfact>
</mgrwt>
</event>
<event>
 4    1  0.4895160E-005  0.3657303E+03  0.7818608E-02  0.1056338E+00
         -2   -1    0    0    0  501 -0.00000000000E+00  0.00000000000E+00  0.68484397294E+03  0.68484397294E+03  0.25500000000E-02 0. -1.
          2   -1    0    0  501    0  0.00000000000E+00 -0.00000000000E+00 -0.48828157362E+02  0.48828157428E+02  0.25500000000E-02 0.  1.
    5000001    1    1    2    0    0 -0.11755642493E+03  0.21741246691E+02  0.42822140718E+03  0.46237946366E+03  0.12700000000E+03 0.  0.
   -5000001    1    1    2    0    0  0.11755642493E+03 -0.21741246691E+02  0.20779440840E+03  0.27129266671E+03  0.12700000000E+03 0.  0.
<mgrwt>
<rscale>  0 0.36573033E+03</rscale>
<asrwt>0</asrwt>
<pdfrwt beam="1">  1        2 0.69754515E-02 0.36573033E+03</pdfrwt>
<pdfrwt beam="2">  1       -2 0.97834847E-01 0.36573033E+03</pdfrwt>
<totfact> 0.92204546E+02</totfact>
</mgrwt>
</event>
<event>
 4    1  0.4895160E-005  0.2872923E+03  0.7818608E-02  0.1091771E+00
         -2   -1    0    0    0  501 -0.00000000000E+00  0.00000000000E+00  0.34646525350E+02  0.34646525444E+02  0.25500000000E-02 0. -1.
          2   -1    0    0  501    0  0.00000000000E+00 -0.00000000000E+00 -0.59556383465E+03  0.59556383465E+03  0.25500000000E-02 0.  1.
    5000001    1    1    2    0    0 -0.59298964133E+02 -0.30936119186E+02 -0.29283015214E+03  0.32611640348E+03  0.12700000000E+03 0.  0.
   -5000001    1    1    2    0    0  0.59298964133E+02  0.30936119186E+02 -0.26808715716E+03  0.30409395661E+03  0.12700000000E+03 0.  0.
<mgrwt>
<rscale>  0 0.28729231E+03</rscale>
<asrwt>0</asrwt>
<pdfrwt beam="1">  1        2 0.85080541E-01 0.28729231E+03</pdfrwt>
<pdfrwt beam="2">  1       -2 0.49495040E-02 0.28729231E+03</pdfrwt>
<totfact> 0.11000080E+04</totfact>
</mgrwt>
</event>
<event>
 4    1  0.4895160E-005  0.5020993E+03  0.7818608E-02  0.1013232E+00
         -2   -1    0    0    0  501 -0.00000000000E+00  0.00000000000E+00  0.33785825609E+02  0.33785825705E+02  0.25500000000E-02 0. -1.
          2   -1    0    0  501    0  0.00000000000E+00 -0.00000000000E+00 -0.18654546588E+04  0.18654546588E+04  0.25500000000E-02 0.  1.
    5000001    1    1    2    0    0 -0.10068749578E+03  0.14120339378E+03 -0.42525365230E+03  0.47649348266E+03  0.12700000000E+03 0.  0.
   -5000001    1    1    2    0    0  0.10068749578E+03 -0.14120339378E+03 -0.14064151809E+04  0.14227470019E+04  0.12700000000E+03 0.  0.
<mgrwt>
<rscale>  0 0.50209930E+03</rscale>
<asrwt>0</asrwt>
<pdfrwt beam="1">  1        2 0.26649346E+00 0.50209930E+03</pdfrwt>
<pdfrwt beam="2">  1       -2 0.48265477E-02 0.50209930E+03</pdfrwt>
<totfact> 0.21048680E+03</totfact>
</mgrwt>
</event>
<event>
 4    1  0.4895160E-005  0.9085335E+03  0.7818608E-02  0.9414977E-01
         -2   -1    0    0    0  501 -0.00000000000E+00  0.00000000000E+00  0.50280076763E+03  0.50280076764E+03  0.25500000000E-02 0. -1.
          2   -1    0    0  501    0  0.00000000000E+00 -0.00000000000E+00 -0.41041755862E+03  0.41041755863E+03  0.25500000000E-02 0.  1.
    5000001    1    1    2    0    0  0.26294046911E+03 -0.92098622660E+02 -0.29111204888E+03  0.42248677091E+03  0.12700000000E+03 0.  0.
   -5000001    1    1    2    0    0 -0.26294046911E+03  0.92098622660E+02  0.38349525790E+03  0.49073155536E+03  0.12700000000E+03 0.  0.
<mgrwt>
<rscale>  0 0.90853346E+03</rscale>
<asrwt>0</asrwt>
<pdfrwt beam="1">  1        2 0.58631080E-01 0.90853346E+03</pdfrwt>
<pdfrwt beam="2">  1       -2 0.71828681E-01 0.90853346E+03</pdfrwt>
<totfact> 0.14811922E+02</totfact>
</mgrwt>
</event>
<event>
 4    1  0.4895160E-005  0.4533342E+03  0.7818608E-02  0.1026732E+00
          2   -1    0    0  501    0  0.00000000000E+00  0.00000000000E+00  0.36866954840E+04  0.36866954840E+04  0.25500000000E-02 0.  1.
         -2   -1    0    0    0  501 -0.00000000000E+00 -0.00000000000E+00 -0.13936049662E+02  0.13936049895E+02  0.25500000000E-02 0. -1.
    5000001    1    1    2    0    0 -0.12049221121E+03  0.13705743021E+03  0.14762880034E+04  0.14929361611E+04  0.12700000000E+03 0.  0.
   -5000001    1    1    2    0    0  0.12049221121E+03 -0.13705743021E+03  0.21964714310E+04  0.22076953728E+04  0.12700000000E+03 0.  0.
<mgrwt>
<rscale>  0 0.45333419E+03</rscale>
<asrwt>0</asrwt>
<pdfrwt beam="1">  1        2 0.52667136E+00 0.45333419E+03</pdfrwt>
<pdfrwt beam="2">  1       -2 0.19908621E-02 0.45333419E+03</pdfrwt>
<totfact> 0.85919137E+02</totfact>
</mgrwt>
</event>
<event>
 4    1  0.4895160E-005  0.7858622E+03  0.7818608E-02  0.9580709E-01
         -2   -1    0    0    0  501 -0.00000000000E+00  0.00000000000E+00  0.20883038031E+03  0.20883038033E+03  0.25500000000E-02 0. -1.
          2   -1    0    0  501    0  0.00000000000E+00 -0.00000000000E+00 -0.73933133003E+03  0.73933133003E+03  0.25500000000E-02 0.  1.
    5000001    1    1    2    0    0  0.44011101023E+02  0.36448038545E+03 -0.33645497237E+03  0.51392010743E+03  0.12700000000E+03 0.  0.
   -5000001    1    1    2    0    0 -0.44011101023E+02 -0.36448038545E+03 -0.19404597735E+03  0.43424160293E+03  0.12700000000E+03 0.  0.
<mgrwt>
<rscale>  0 0.78586218E+03</rscale>
<asrwt>0</asrwt>
<pdfrwt beam="1">  1        2 0.10561876E+00 0.78586218E+03</pdfrwt>
<pdfrwt beam="2">  1       -2 0.29832912E-01 0.78586218E+03</pdfrwt>
<totfact> 0.43682661E+02</totfact>
</mgrwt>
</event>
<event>
 4    1  0.4895160E-005  0.4276427E+03  0.7818608E-02  0.1034607E+00
          2   -1    0    0  501    0  0.00000000000E+00  0.00000000000E+00  0.35935278255E+03  0.35935278256E+03  0.25500000000E-02 0.  1.
         -2   -1    0    0    0  501 -0.00000000000E+00 -0.00000000000E+00 -0.12722756150E+03  0.12722756152E+03  0.25500000000E-02 0. -1.
    5000001    1    1    2    0    0  0.10710265241E+03  0.58382719601E+02 -0.21942577725E+02  0.17745421048E+03  0.12700000000E+03 0.  0.
   -5000001    1    1    2    0    0 -0.10710265241E+03 -0.58382719601E+02  0.25406779877E+03  0.30912613360E+03  0.12700000000E+03 0.  0.
<mgrwt>
<rscale>  0 0.42764274E+03</rscale>
<asrwt>0</asrwt>
<pdfrwt beam="1">  1        2 0.51336112E-01 0.42764274E+03</pdfrwt>
<pdfrwt beam="2">  1       -2 0.18175366E-01 0.42764274E+03</pdfrwt>
<totfact> 0.24304447E+03</totfact>
</mgrwt>
</event>
<event>
 4    1  0.4895160E-005  0.5253109E+03  0.7818608E-02  0.1007376E+00
          2   -1    0    0  501    0  0.00000000000E+00  0.00000000000E+00  0.12894098898E+04  0.12894098898E+04  0.25500000000E-02 0.  1.
         -2   -1    0    0    0  501 -0.00000000000E+00 -0.00000000000E+00 -0.53503455803E+02  0.53503455864E+02  0.25500000000E-02 0. -1.
    5000001    1    1    2    0    0 -0.20452073072E+03 -0.11471965831E+02  0.35107327477E+03  0.42584243513E+03  0.12700000000E+03 0.  0.
   -5000001    1    1    2    0    0  0.20452073072E+03  0.11471965831E+02  0.88483315926E+03  0.91707091057E+03  0.12700000000E+03 0.  0.
<mgrwt>
<rscale>  0 0.52531090E+03</rscale>
<asrwt>0</asrwt>
<pdfrwt beam="1">  1        2 0.18420139E+00 0.52531090E+03</pdfrwt>
<pdfrwt beam="2">  1       -2 0.76433519E-02 0.52531090E+03</pdfrwt>
<totfact> 0.20322802E+03</totfact>
</mgrwt>
</event>
<event>
 4    1  0.4895160E-005  0.2817954E+03  0.7818608E-02  0.1094712E+00
         -2   -1    0    0    0  501 -0.00000000000E+00  0.00000000000E+00  0.14538269467E+03  0.14538269470E+03  0.25500000000E-02 0. -1.
          2   -1    0    0  501    0  0.00000000000E+00 -0.00000000000E+00 -0.13655107936E+03  0.13655107938E+03  0.25500000000E-02 0.  1.
    5000001    1    1    2    0    0  0.35701993574E+02  0.17049791055E+02 -0.42059515389E+02  0.13951104098E+03  0.12700000000E+03 0.  0.
   -5000001    1    1    2    0    0 -0.35701993574E+02 -0.17049791055E+02  0.50891130702E+02  0.14242273310E+03  0.12700000000E+03 0.  0.
<mgrwt>
<rscale>  0 0.28179541E+03</rscale>
<asrwt>0</asrwt>
<pdfrwt beam="1">  1        2 0.19507297E-01 0.28179541E+03</pdfrwt>
<pdfrwt beam="2">  1       -2 0.20768956E-01 0.28179541E+03</pdfrwt>
<totfact> 0.55940547E+03</totfact>
</mgrwt>
</event>
<event>
 4    1  0.4895160E-005  0.8718630E+03  0.7818608E-02  0.9461454E-01
          2   -1    0    0  501    0  0.00000000000E+00  0.00000000000E+00  0.10012206646E+04  0.10012206646E+04  0.25500000000E-02 0.  1.
         -2   -1    0    0    0  501 -0.00000000000E+00 -0.00000000000E+00 -0.18980458150E+03  0.18980458152E+03  0.25500000000E-02 0. -1.
    5000001    1    1    2    0    0 -0.20009278208E+03  0.35354897868E+03  0.27702701696E+03  0.50784541929E+03  0.12700000000E+03 0.  0.
   -5000001    1    1    2    0    0  0.20009278208E+03 -0.35354897868E+03  0.53438906609E+03  0.68317982679E+03  0.12700000000E+03 0.  0.
<mgrwt>
<rscale>  0 0.87186299E+03</rscale>
<asrwt>0</asrwt>
<pdfrwt beam="1">  1        2 0.14303153E+00 0.87186299E+03</pdfrwt>
<pdfrwt beam="2">  1       -2 0.27114940E-01 0.87186299E+03</pdfrwt>
<totfact> 0.34676419E+02</totfact>
</mgrwt>
</event>
<event>
 4    1  0.4895160E-005  0.4972245E+03  0.7818608E-02  0.1014506E+00
          2   -1    0    0  501    0  0.00000000000E+00  0.00000000000E+00  0.86180209999E+03  0.86180209999E+03  0.25500000000E-02 0.  1.
         -2   -1    0    0    0  501 -0.00000000000E+00 -0.00000000000E+00 -0.71719544665E+02  0.71719544710E+02  0.25500000000E-02 0. -1.
    5000001    1    1    2    0    0  0.63821279105E+02  0.19788872427E+03  0.30218831423E+03  0.38817506375E+03  0.12700000000E+03 0.  0.
   -5000001    1    1    2    0    0 -0.63821279105E+02 -0.19788872427E+03  0.48789424109E+03  0.54534658095E+03  0.12700000000E+03 0.  0.
<mgrwt>
<rscale>  0 0.49722451E+03</rscale>
<asrwt>0</asrwt>
<pdfrwt beam="1">  1        2 0.12311458E+00 0.49722451E+03</pdfrwt>
<pdfrwt beam="2">  1       -2 0.10245650E-01 0.49722451E+03</pdfrwt>
<totfact> 0.22728530E+03</totfact>
</mgrwt>
</event>
<event>
 4    1  0.4895160E-005  0.5151683E+03  0.7818608E-02  0.1009894E+00
          2   -1    0    0  501    0  0.00000000000E+00  0.00000000000E+00  0.11968631988E+04  0.11968631988E+04  0.25500000000E-02 0. -1.
         -2   -1    0    0    0  501 -0.00000000000E+00 -0.00000000000E+00 -0.55436236933E+02  0.55436236992E+02  0.25500000000E-02 0.  1.
    5000001    1    1    2    0    0 -0.88483916179E+02  0.20498201550E+03  0.61769643202E+03  0.66897302803E+03  0.12700000000E+03 0.  0.
   -5000001    1    1    2    0    0  0.88483916179E+02 -0.20498201550E+03  0.52373052983E+03  0.58332640775E+03  0.12700000000E+03 0.  0.
<mgrwt>
<rscale>  0 0.51516829E+03</rscale>
<asrwt>0</asrwt>
<pdfrwt beam="1">  1        2 0.17098046E+00 0.51516829E+03</pdfrwt>
<pdfrwt beam="2">  1       -2 0.79194623E-02 0.51516829E+03</pdfrwt>
<totfact> 0.21602621E+03</totfact>
</mgrwt>
</event>
<event>
 4    1  0.4895160E-005  0.1013481E+04  0.7818608E-02  0.9293881E-01
         -2   -1    0    0    0  501 -0.00000000000E+00  0.00000000000E+00  0.98817031386E+02  0.98817031419E+02  0.25500000000E-02 0. -1.
          2   -1    0    0  501    0  0.00000000000E+00 -0.00000000000E+00 -0.25986021795E+04  0.25986021795E+04  0.25500000000E-02 0.  1.
    5000001    1    1    2    0    0  0.29411466480E+02  0.47120480170E+03 -0.89521677579E+03  0.10200201347E+04  0.12700000000E+03 0.  0.
   -5000001    1    1    2    0    0 -0.29411466480E+02 -0.47120480170E+03 -0.16045683723E+04  0.16773990763E+04  0.12700000000E+03 0.  0.
<mgrwt>
<rscale>  0 0.10134814E+04</rscale>
<asrwt>0</asrwt>
<pdfrwt beam="1">  1        2 0.37122884E+00 0.10134814E+04</pdfrwt>
<pdfrwt beam="2">  1       -2 0.14116720E-01 0.10134814E+04</pdfrwt>
<totfact> 0.15334325E+02</totfact>
</mgrwt>
</event>
<event>
 4    1  0.4895160E-005  0.5327345E+03  0.7818608E-02  0.1005571E+00
         -2   -1    0    0    0  501 -0.00000000000E+00  0.00000000000E+00  0.75373139946E+02  0.75373139989E+02  0.25500000000E-02 0. -1.
          2   -1    0    0  501    0  0.00000000000E+00 -0.00000000000E+00 -0.94133691760E+03  0.94133691760E+03  0.25500000000E-02 0.  1.
    5000001    1    1    2    0    0  0.16590343000E+03 -0.16451449495E+03 -0.40381580117E+03  0.48351335908E+03  0.12700000000E+03 0.  0.
   -5000001    1    1    2    0    0 -0.16590343000E+03  0.16451449495E+03 -0.46214797649E+03  0.53319669851E+03  0.12700000000E+03 0.  0.
<mgrwt>
<rscale>  0 0.53273453E+03</rscale>
<asrwt>0</asrwt>
<pdfrwt beam="1">  1        2 0.13447670E+00 0.53273453E+03</pdfrwt>
<pdfrwt beam="2">  1       -2 0.10767592E-01 0.53273453E+03</pdfrwt>
<totfact> 0.18642214E+03</totfact>
</mgrwt>
</event>
<event>
 4    1  0.4895160E-005  0.3774557E+03  0.7818608E-02  0.1051878E+00
          2   -1    0    0  501    0  0.00000000000E+00  0.00000000000E+00  0.80514094152E+03  0.80514094152E+03  0.25500000000E-02 0.  1.
         -2   -1    0    0    0  501 -0.00000000000E+00 -0.00000000000E+00 -0.44238468696E+02  0.44238468769E+02  0.25500000000E-02 0. -1.
    5000001    1    1    2    0    0  0.13951052814E+03  0.49367142558E+01  0.37756617494E+03  0.42210517062E+03  0.12700000000E+03 0.  0.
   -5000001    1    1    2    0    0 -0.13951052814E+03 -0.49367142558E+01  0.38333629788E+03  0.42727423967E+03  0.12700000000E+03 0.  0.
<mgrwt>
<rscale>  0 0.37745571E+03</rscale>
<asrwt>0</asrwt>
<pdfrwt beam="1">  1        2 0.11502013E+00 0.37745571E+03</pdfrwt>
<pdfrwt beam="2">  1       -2 0.63197814E-02 0.37745571E+03</pdfrwt>
<totfact> 0.53132604E+03</totfact>
</mgrwt>
</event>
<event>
 4    1  0.4895160E-005  0.2746162E+03  0.7818608E-02  0.1098666E+00
         -2   -1    0    0    0  501 -0.00000000000E+00  0.00000000000E+00  0.49674627177E+02  0.49674627242E+02  0.25500000000E-02 0. -1.
          2   -1    0    0  501    0  0.00000000000E+00 -0.00000000000E+00 -0.37954018974E+03  0.37954018975E+03  0.25500000000E-02 0.  1.
    5000001    1    1    2    0    0 -0.35550067247E+02 -0.29764549073E+02 -0.12746137329E+03  0.18580941134E+03  0.12700000000E+03 0.  0.
   -5000001    1    1    2    0    0  0.35550067247E+02  0.29764549073E+02 -0.20240418927E+03  0.24340540565E+03  0.12700000000E+03 0.  0.
<mgrwt>
<rscale>  0 0.27461622E+03</rscale>
<asrwt>0</asrwt>
<pdfrwt beam="1">  1        2 0.54220025E-01 0.27461622E+03</pdfrwt>
<pdfrwt beam="2">  1       -2 0.70963756E-02 0.27461622E+03</pdfrwt>
<totfact> 0.10383666E+04</totfact>
</mgrwt>
</event>
<event>
 4    1  0.4895160E-005  0.1131959E+04  0.7818608E-02  0.9174590E-01
         -2   -1    0    0    0  501 -0.00000000000E+00  0.00000000000E+00  0.20662138460E+03  0.20662138462E+03  0.25500000000E-02 0. -1.
          2   -1    0    0  501    0  0.00000000000E+00 -0.00000000000E+00 -0.15503382396E+04  0.15503382396E+04  0.25500000000E-02 0.  1.
    5000001    1    1    2    0    0  0.22300135547E+03  0.43207649842E+03 -0.26775217338E+03  0.56942069806E+03  0.12700000000E+03 0.  0.
   -5000001    1    1    2    0    0 -0.22300135547E+03 -0.43207649842E+03 -0.10759646816E+04  0.11875389261E+04  0.12700000000E+03 0.  0.
<mgrwt>
<rscale>  0 0.11319594E+04</rscale>
<asrwt>0</asrwt>
<pdfrwt beam="1">  1        2 0.22147689E+00 0.11319594E+04</pdfrwt>
<pdfrwt beam="2">  1       -2 0.29517341E-01 0.11319594E+04</pdfrwt>
<totfact> 0.14376503E+02</totfact>
</mgrwt>
</event>
<event>
 4    1  0.4895160E-005  0.2778274E+03  0.7818608E-02  0.1096882E+00
         -2   -1    0    0    0  501 -0.00000000000E+00  0.00000000000E+00  0.48388512768E+02  0.48388512835E+02  0.25500000000E-02 0. -1.
          2   -1    0    0  501    0  0.00000000000E+00 -0.00000000000E+00 -0.39879318724E+03  0.39879318725E+03  0.25500000000E-02 0.  1.
    5000001    1    1    2    0    0  0.38205073353E+02 -0.41329568123E+02 -0.17600457066E+03  0.22421946776E+03  0.12700000000E+03 0.  0.
   -5000001    1    1    2    0    0 -0.38205073353E+02  0.41329568123E+02 -0.17440010382E+03  0.22296223232E+03  0.12700000000E+03 0.  0.
<mgrwt>
<rscale>  0 0.27782735E+03</rscale>
<asrwt>0</asrwt>
<pdfrwt beam="1">  1        2 0.56970454E-01 0.27782735E+03</pdfrwt>
<pdfrwt beam="2">  1       -2 0.69126449E-02 0.27782735E+03</pdfrwt>
<totfact> 0.10255966E+04</totfact>
</mgrwt>
</event>
<event>
 4    1  0.4895160E-005  0.3593977E+03  0.7818608E-02  0.1058823E+00
         -2   -1    0    0    0  501 -0.00000000000E+00  0.00000000000E+00  0.32078188444E+02  0.32078188545E+02  0.25500000000E-02 0. -1.
          2   -1    0    0  501    0  0.00000000000E+00 -0.00000000000E+00 -0.10066550979E+04  0.10066550979E+04  0.25500000000E-02 0.  1.
    5000001    1    1    2    0    0  0.85239821999E+02 -0.59880404807E+02 -0.27665644439E+03  0.32174411938E+03  0.12700000000E+03 0.  0.
   -5000001    1    1    2    0    0 -0.85239821999E+02  0.59880404807E+02 -0.69792046511E+03  0.71698916711E+03  0.12700000000E+03 0.  0.
<mgrwt>
<rscale>  0 0.35939767E+03</rscale>
<asrwt>0</asrwt>
<pdfrwt beam="1">  1        2 0.14380785E+00 0.35939767E+03</pdfrwt>
<pdfrwt beam="2">  1       -2 0.45825990E-02 0.35939767E+03</pdfrwt>
<totfact> 0.64881851E+03</totfact>
</mgrwt>
</event>
<event>
 4    1  0.4895160E-005  0.4801939E+03  0.7818608E-02  0.1019082E+00
         -2   -1    0    0    0  501 -0.00000000000E+00  0.00000000000E+00  0.10434645737E+03  0.10434645740E+03  0.25500000000E-02 0. -1.
          2   -1    0    0  501    0  0.00000000000E+00 -0.00000000000E+00 -0.55245332794E+03  0.55245332795E+03  0.25500000000E-02 0.  1.
    5000001    1    1    2    0    0 -0.16872982667E+03  0.66716543378E+02 -0.97235072723E+02  0.24187705748E+03  0.12700000000E+03 0.  0.
   -5000001    1    1    2    0    0  0.16872982667E+03 -0.66716543378E+02 -0.35087179785E+03  0.41492272786E+03  0.12700000000E+03 0.  0.
<mgrwt>
<rscale>  0 0.48019391E+03</rscale>
<asrwt>0</asrwt>
<pdfrwt beam="1">  1        2 0.78921903E-01 0.48019391E+03</pdfrwt>
<pdfrwt beam="2">  1       -2 0.14906637E-01 0.48019391E+03</pdfrwt>
<totfact> 0.21061950E+03</totfact>
</mgrwt>
</event>
<event>
 4    1  0.4895160E-005  0.3352089E+03  0.7818608E-02  0.1068855E+00
          2   -1    0    0  501    0  0.00000000000E+00  0.00000000000E+00  0.25222146600E+03  0.25222146601E+03  0.25500000000E-02 0.  1.
         -2   -1    0    0    0  501 -0.00000000000E+00 -0.00000000000E+00 -0.11137531883E+03  0.11137531886E+03  0.25500000000E-02 0. -1.
    5000001    1    1    2    0    0  0.67391919172E+02  0.73000760456E+02  0.12002856704E+03  0.20101402613E+03  0.12700000000E+03 0.  0.
   -5000001    1    1    2    0    0 -0.67391919172E+02 -0.73000760456E+02  0.20817580128E+02  0.16258275874E+03  0.12700000000E+03 0.  0.
<mgrwt>
<rscale>  0 0.33520887E+03</rscale>
<asrwt>0</asrwt>
<pdfrwt beam="1">  1        2 0.36031638E-01 0.33520887E+03</pdfrwt>
<pdfrwt beam="2">  1       -2 0.15910760E-01 0.33520887E+03</pdfrwt>
<totfact> 0.44535414E+03</totfact>
</mgrwt>
</event>
<event>
 4    1  0.4895160E-005  0.7165771E+03  0.7818608E-02  0.9689296E-01
         -2   -1    0    0    0  501 -0.00000000000E+00  0.00000000000E+00  0.19187933410E+03  0.19187933412E+03  0.25500000000E-02 0. -1.
          2   -1    0    0  501    0  0.00000000000E+00 -0.00000000000E+00 -0.66901772596E+03  0.66901772597E+03  0.25500000000E-02 0.  1.
    5000001    1    1    2    0    0  0.13680109812E+03  0.30571642878E+03 -0.22891299600E+03  0.42509673606E+03  0.12700000000E+03 0.  0.
   -5000001    1    1    2    0    0 -0.13680109812E+03 -0.30571642878E+03 -0.24822539586E+03  0.43580032402E+03  0.12700000000E+03 0.  0.
<mgrwt>
<rscale>  0 0.71657707E+03</rscale>
<asrwt>0</asrwt>
<pdfrwt beam="1">  1        2 0.95573960E-01 0.71657707E+03</pdfrwt>
<pdfrwt beam="2">  1       -2 0.27411334E-01 0.71657707E+03</pdfrwt>
<totfact> 0.57877814E+02</totfact>
</mgrwt>
</event>
<event>
 4    1  0.4895160E-005  0.3215600E+03  0.7818608E-02  0.1074934E+00
          2   -1    0    0  501    0  0.00000000000E+00  0.00000000000E+00  0.76156693184E+03  0.76156693184E+03  0.25500000000E-02 0.  1.
         -2   -1    0    0    0  501 -0.00000000000E+00 -0.00000000000E+00 -0.33943441058E+02  0.33943441154E+02  0.25500000000E-02 0. -1.
    5000001    1    1    2    0    0 -0.76158536977E+02 -0.48883179500E+02  0.26699635351E+03  0.30920178004E+03  0.12700000000E+03 0.  0.
   -5000001    1    1    2    0    0  0.76158536977E+02  0.48883179500E+02  0.46062713727E+03  0.48630859296E+03  0.12700000000E+03 0.  0.
<mgrwt>
<rscale>  0 0.32155996E+03</rscale>
<asrwt>0</asrwt>
<pdfrwt beam="1">  1        2 0.10879527E+00 0.32155996E+03</pdfrwt>
<pdfrwt beam="2">  1       -2 0.48490634E-02 0.32155996E+03</pdfrwt>
<totfact> 0.85225131E+03</totfact>
</mgrwt>
</event>
<event>
 4    1  0.4895160E-005  0.5085519E+03  0.7818608E-02  0.1011571E+00
         -2   -1    0    0    0  501 -0.00000000000E+00  0.00000000000E+00  0.76800574452E+02  0.76800574495E+02  0.25500000000E-02 0. -1.
          2   -1    0    0  501    0  0.00000000000E+00 -0.00000000000E+00 -0.84187220222E+03  0.84187220222E+03  0.25500000000E-02 0.  1.
    5000001    1    1    2    0    0 -0.19487976397E+03 -0.10149829195E+03 -0.35413128334E+03  0.43568106628E+03  0.12700000000E+03 0.  0.
   -5000001    1    1    2    0    0  0.19487976397E+03  0.10149829195E+03 -0.41094034442E+03  0.48299171043E+03  0.12700000000E+03 0.  0.
<mgrwt>
<rscale>  0 0.50855194E+03</rscale>
<asrwt>0</asrwt>
<pdfrwt beam="1">  1        2 0.12026745E+00 0.50855194E+03</pdfrwt>
<pdfrwt beam="2">  1       -2 0.10971511E-01 0.50855194E+03</pdfrwt>
<totfact> 0.20968182E+03</totfact>
</mgrwt>
</event>
<event>
 4    1  0.4895160E-005  0.2889562E+03  0.7818608E-02  0.1090895E+00
          2   -1    0    0  501    0  0.00000000000E+00  0.00000000000E+00  0.54869169212E+03  0.54869169213E+03  0.25500000000E-02 0.  1.
         -2   -1    0    0    0  501 -0.00000000000E+00 -0.00000000000E+00 -0.38043066136E+02  0.38043066221E+02  0.25500000000E-02 0. -1.
    5000001    1    1    2    0    0 -0.63325609729E+02  0.43522800659E+00  0.20029007020E+03  0.24546982400E+03  0.12700000000E+03 0.  0.
   -5000001    1    1    2    0    0  0.63325609729E+02 -0.43522800659E+00  0.31035855579E+03  0.34126493435E+03  0.12700000000E+03 0.  0.
<mgrwt>
<rscale>  0 0.28895615E+03</rscale>
<asrwt>0</asrwt>
<pdfrwt beam="1">  1        2 0.78384523E-01 0.28895615E+03</pdfrwt>
<pdfrwt beam="2">  1       -2 0.54347240E-02 0.28895615E+03</pdfrwt>
<totfact> 0.10469428E+04</totfact>
</mgrwt>
</event>
<event>
 4    1  0.4895160E-005  0.2995054E+03  0.7818608E-02  0.1085488E+00
         -2   -1    0    0    0  501 -0.00000000000E+00  0.00000000000E+00  0.36218797382E+02  0.36218797472E+02  0.25500000000E-02 0. -1.
          2   -1    0    0  501    0  0.00000000000E+00 -0.00000000000E+00 -0.61917752712E+03  0.61917752713E+03  0.25500000000E-02 0.  1.
    5000001    1    1    2    0    0  0.78102532651E+02  0.88586551846E+01 -0.26767009931E+03  0.30652041277E+03  0.12700000000E+03 0.  0.
   -5000001    1    1    2    0    0 -0.78102532651E+02 -0.88586551846E+01 -0.31528863043E+03  0.34887591183E+03  0.12700000000E+03 0.  0.
<mgrwt>
<rscale>  0 0.29950536E+03</rscale>
<asrwt>0</asrwt>
<pdfrwt beam="1">  1        2 0.88453926E-01 0.29950536E+03</pdfrwt>
<pdfrwt beam="2">  1       -2 0.51741143E-02 0.29950536E+03</pdfrwt>
<totfact> 0.98474422E+03</totfact>
</mgrwt>
</event>
<event>
 4    1  0.4895160E-005  0.5633950E+03  0.7818608E-02  0.9984402E-01
          2   -1    0    0  501    0  0.00000000000E+00  0.00000000000E+00  0.12904855206E+04  0.12904855206E+04  0.25500000000E-02 0.  1.
         -2   -1    0    0    0  501 -0.00000000000E+00 -0.00000000000E+00 -0.61491187862E+02  0.61491187914E+02  0.25500000000E-02 0. -1.
    5000001    1    1    2    0    0  0.12897713190E+03 -0.21162460812E+03  0.51256198625E+03  0.58332569382E+03  0.12700000000E+03 0.  0.
   -5000001    1    1    2    0    0 -0.12897713190E+03  0.21162460812E+03  0.71643234653E+03  0.76865101474E+03  0.12700000000E+03 0.  0.
<mgrwt>
<rscale>  0 0.56339502E+03</rscale>
<asrwt>0</asrwt>
<pdfrwt beam="1">  1        2 0.18435508E+00 0.56339502E+03</pdfrwt>
<pdfrwt beam="2">  1       -2 0.87844552E-02 0.56339502E+03</pdfrwt>
<totfact> 0.16247498E+03</totfact>
</mgrwt>
</event>
