<event>
 4    1  0.1869793E-005  0.5714736E+03  0.7818608E-02  0.9966423E-01
         -2   -1    0    0    0  501 -0.00000000000E+00  0.00000000000E+00  0.11837426140E+03  0.11837426143E+03  0.25500000000E-02 0. -1.
          2   -1    0    0  501    0  0.00000000000E+00 -0.00000000000E+00 -0.68972351422E+03  0.68972351422E+03  0.25500000000E-02 0.  1.
    5000001    1    1    2    0    0  0.19236939648E+03  0.44243933011E+02 -0.20718474065E+03  0.34855419531E+03  0.19900000000E+03 0.  0.
   -5000001    1    1    2    0    0 -0.19236939648E+03 -0.44243933011E+02 -0.36416451216E+03  0.45954358034E+03  0.19900000000E+03 0.  0.
<mgrwt>
<rscale>  0 0.57147357E+03</rscale>
<asrwt>0</asrwt>
<pdfrwt beam="1">  1        2 0.98531929E-01 0.57147357E+03</pdfrwt>
<pdfrwt beam="2">  1       -2 0.16910609E-01 0.57147357E+03</pdfrwt>
<totfact> 0.13100884E+03</totfact>
</mgrwt>
</event>
<event>
 4    1  0.1869793E-005  0.5736106E+03  0.7818608E-02  0.9961720E-01
         -2   -1    0    0    0  501 -0.00000000000E+00  0.00000000000E+00  0.64935625913E+02  0.64935625963E+02  0.25500000000E-02 0. -1.
          2   -1    0    0  501    0  0.00000000000E+00 -0.00000000000E+00 -0.12667513376E+04  0.12667513376E+04  0.25500000000E-02 0.  1.
    5000001    1    1    2    0    0 -0.19087939825E+03  0.55251418598E+02 -0.73159128331E+03  0.78378215708E+03  0.19900000000E+03 0.  0.
   -5000001    1    1    2    0    0  0.19087939825E+03 -0.55251418598E+02 -0.47022442838E+03  0.54790480649E+03  0.19900000000E+03 0.  0.
<mgrwt>
<rscale>  0 0.57361064E+03</rscale>
<asrwt>0</asrwt>
<pdfrwt beam="1">  1        2 0.18096446E+00 0.57361064E+03</pdfrwt>
<pdfrwt beam="2">  1       -2 0.92765188E-02 0.57361064E+03</pdfrwt>
<totfact> 0.15332780E+03</totfact>
</mgrwt>
</event>
<event>
 4    1  0.1869793E-005  0.5554599E+03  0.7818608E-02  0.1000238E+00
         -2   -1    0    0    0  501 -0.00000000000E+00  0.00000000000E+00  0.16198299016E+03  0.16198299018E+03  0.25500000000E-02 0. -1.
          2   -1    0    0  501    0  0.00000000000E+00 -0.00000000000E+00 -0.47618533014E+03  0.47618533015E+03  0.25500000000E-02 0.  1.
    5000001    1    1    2    0    0 -0.60435024719E+02 -0.14132146650E+03 -0.21605016150E+02  0.25237259326E+03  0.19900000000E+03 0.  0.
   -5000001    1    1    2    0    0  0.60435024719E+02  0.14132146650E+03 -0.29259732383E+03  0.38579572706E+03  0.19900000000E+03 0.  0.
<mgrwt>
<rscale>  0 0.55545989E+03</rscale>
<asrwt>0</asrwt>
<pdfrwt beam="1">  1        2 0.68026475E-01 0.55545989E+03</pdfrwt>
<pdfrwt beam="2">  1       -2 0.23140427E-01 0.55545989E+03</pdfrwt>
<totfact> 0.11703104E+03</totfact>
</mgrwt>
</event>
<event>
 4    1  0.1869793E-005  0.5169011E+03  0.7818608E-02  0.1009459E+00
         -2   -1    0    0    0  501 -0.00000000000E+00  0.00000000000E+00  0.22690874832E+03  0.22690874834E+03  0.25500000000E-02 0. -1.
          2   -1    0    0  501    0  0.00000000000E+00 -0.00000000000E+00 -0.29437688183E+03  0.29437688185E+03  0.25500000000E-02 0.  1.
    5000001    1    1    2    0    0  0.11374401804E+03 -0.11521100614E+03 -0.20925869735E+01  0.25654757160E+03  0.19900000000E+03 0.  0.
   -5000001    1    1    2    0    0 -0.11374401804E+03  0.11521100614E+03 -0.65375546539E+02  0.26473805858E+03  0.19900000000E+03 0.  0.
<mgrwt>
<rscale>  0 0.51690111E+03</rscale>
<asrwt>0</asrwt>
<pdfrwt beam="1">  1        2 0.42053840E-01 0.51690111E+03</pdfrwt>
<pdfrwt beam="2">  1       -2 0.32415535E-01 0.51690111E+03</pdfrwt>
<totfact> 0.10803285E+03</totfact>
</mgrwt>
</event>
<event>
 4    1  0.1869793E-005  0.6591411E+03  0.7818608E-02  0.9789776E-01
          2   -1    0    0  501    0  0.00000000000E+00  0.00000000000E+00  0.59952387666E+03  0.59952387667E+03  0.25500000000E-02 0. -1.
         -2   -1    0    0    0  501 -0.00000000000E+00 -0.00000000000E+00 -0.18117167519E+03  0.18117167521E+03  0.25500000000E-02 0.  1.
    5000001    1    1    2    0    0  0.24886763497E+03  0.51633014541E+02  0.13048007672E+03  0.34817684924E+03  0.19900000000E+03 0.  0.
   -5000001    1    1    2    0    0 -0.24886763497E+03 -0.51633014541E+02  0.28787212474E+03  0.43251870264E+03  0.19900000000E+03 0.  0.
<mgrwt>
<rscale>  0 0.65914109E+03</rscale>
<asrwt>0</asrwt>
<pdfrwt beam="1">  1        2 0.85646268E-01 0.65914109E+03</pdfrwt>
<pdfrwt beam="2">  1       -2 0.25881668E-01 0.65914109E+03</pdfrwt>
<totfact> 0.73357565E+02</totfact>
</mgrwt>
</event>
<event>
 4    1  0.1869793E-005  0.4927105E+03  0.7818608E-02  0.1015699E+00
         -2   -1    0    0    0  501 -0.00000000000E+00  0.00000000000E+00  0.16359273184E+02  0.16359273383E+02  0.25500000000E-02 0. -1.
          2   -1    0    0  501    0  0.00000000000E+00 -0.00000000000E+00 -0.37098780128E+04  0.37098780128E+04  0.25500000000E-02 0.  1.
    5000001    1    1    2    0    0  0.10602187607E+03 -0.88033706426E+02 -0.15002462115E+04  0.15196480733E+04  0.19900000000E+03 0.  0.
   -5000001    1    1    2    0    0 -0.10602187607E+03  0.88033706426E+02 -0.21932725281E+04  0.22065892129E+04  0.19900000000E+03 0.  0.
<mgrwt>
<rscale>  0 0.49271050E+03</rscale>
<asrwt>0</asrwt>
<pdfrwt beam="1">  1        2 0.52998204E+00 0.49271050E+03</pdfrwt>
<pdfrwt beam="2">  1       -2 0.23370414E-02 0.49271050E+03</pdfrwt>
<totfact> 0.65051204E+02</totfact>
</mgrwt>
</event>
<event>
 4    1  0.1869793E-005  0.7216051E+03  0.7818608E-02  0.9680982E-01
          2   -1    0    0  501    0  0.00000000000E+00  0.00000000000E+00  0.24919405504E+04  0.24919405504E+04  0.25500000000E-02 0.  1.
         -2   -1    0    0    0  501 -0.00000000000E+00 -0.00000000000E+00 -0.52239797289E+02  0.52239797352E+02  0.25500000000E-02 0. -1.
    5000001    1    1    2    0    0 -0.27004874357E+03  0.10452096768E+03  0.93068699090E+03  0.99480160415E+03  0.19900000000E+03 0.  0.
   -5000001    1    1    2    0    0  0.27004874357E+03 -0.10452096768E+03  0.15090137622E+04  0.15493787436E+04  0.19900000000E+03 0.  0.
<mgrwt>
<rscale>  0 0.72160507E+03</rscale>
<asrwt>0</asrwt>
<pdfrwt beam="1">  1        2 0.35599141E+00 0.72160507E+03</pdfrwt>
<pdfrwt beam="2">  1       -2 0.74628302E-02 0.72160507E+03</pdfrwt>
<totfact> 0.50637338E+02</totfact>
</mgrwt>
</event>
<event>
 4    1  0.1869793E-005  0.6729157E+03  0.7818608E-02  0.9764705E-01
         -2   -1    0    0    0  501 -0.00000000000E+00  0.00000000000E+00  0.65002882871E+03  0.65002882872E+03  0.25500000000E-02 0. -1.
          2   -1    0    0  501    0  0.00000000000E+00 -0.00000000000E+00 -0.17415207857E+03  0.17415207859E+03  0.25500000000E-02 0.  1.
    5000001    1    1    2    0    0  0.26371381364E+03 -0.31423972205E+01  0.31586454277E+03  0.45708452123E+03  0.19900000000E+03 0.  0.
   -5000001    1    1    2    0    0 -0.26371381364E+03  0.31423972205E+01  0.16001220737E+03  0.36709638608E+03  0.19900000000E+03 0.  0.
<mgrwt>
<rscale>  0 0.67291566E+03</rscale>
<asrwt>0</asrwt>
<pdfrwt beam="1">  1        2 0.24878868E-01 0.67291566E+03</pdfrwt>
<pdfrwt beam="2">  1       -2 0.92861261E-01 0.67291566E+03</pdfrwt>
<totfact> 0.21884445E+02</totfact>
</mgrwt>
</event>
<event>
 4    1  0.1869793E-005  0.4358988E+03  0.7818608E-02  0.1032013E+00
          2   -1    0    0  501    0  0.00000000000E+00  0.00000000000E+00  0.48521661824E+03  0.48521661824E+03  0.25500000000E-02 0.  1.
         -2   -1    0    0    0  501 -0.00000000000E+00 -0.00000000000E+00 -0.97898426138E+02  0.97898426171E+02  0.25500000000E-02 0. -1.
    5000001    1    1    2    0    0  0.83279063472E+02 -0.14003069726E+01  0.23518436472E+03  0.31913954422E+03  0.19900000000E+03 0.  0.
   -5000001    1    1    2    0    0 -0.83279063472E+02  0.14003069726E+01  0.15213382737E+03  0.26397550020E+03  0.19900000000E+03 0.  0.
<mgrwt>
<rscale>  0 0.43589881E+03</rscale>
<asrwt>0</asrwt>
<pdfrwt beam="1">  1        2 0.69316659E-01 0.43589881E+03</pdfrwt>
<pdfrwt beam="2">  1       -2 0.13985490E-01 0.43589881E+03</pdfrwt>
<totfact> 0.27113006E+03</totfact>
</mgrwt>
</event>
<event>
 4    1  0.1869793E-005  0.4270125E+03  0.7818608E-02  0.1034808E+00
         -2   -1    0    0    0  501 -0.00000000000E+00  0.00000000000E+00  0.40501049291E+02  0.40501049371E+02  0.25500000000E-02 0. -1.
          2   -1    0    0  501    0  0.00000000000E+00 -0.00000000000E+00 -0.11255242168E+04  0.11255242168E+04  0.25500000000E-02 0.  1.
    5000001    1    1    2    0    0  0.76013384262E+02 -0.11997960685E+01 -0.58155501096E+03  0.61934376954E+03  0.19900000000E+03 0.  0.
   -5000001    1    1    2    0    0 -0.76013384262E+02  0.11997960685E+01 -0.50346815651E+03  0.54668149660E+03  0.19900000000E+03 0.  0.
<mgrwt>
<rscale>  0 0.42701247E+03</rscale>
<asrwt>0</asrwt>
<pdfrwt beam="1">  1        2 0.16078915E+00 0.42701247E+03</pdfrwt>
<pdfrwt beam="2">  1       -2 0.57858649E-02 0.42701247E+03</pdfrwt>
<totfact> 0.38762372E+03</totfact>
</mgrwt>
</event>
<event>
 4    1  0.1869793E-005  0.5125951E+03  0.7818608E-02  0.1010543E+00
         -2   -1    0    0    0  501 -0.00000000000E+00  0.00000000000E+00  0.28792869608E+02  0.28792869720E+02  0.25500000000E-02 0. -1.
          2   -1    0    0  501    0  0.00000000000E+00 -0.00000000000E+00 -0.22814132315E+04  0.22814132315E+04  0.25500000000E-02 0.  1.
    5000001    1    1    2    0    0 -0.86409506534E+02 -0.12626660180E+03 -0.89310016264E+03  0.92770618089E+03  0.19900000000E+03 0.  0.
   -5000001    1    1    2    0    0  0.86409506534E+02  0.12626660180E+03 -0.13595201993E+04  0.13824999204E+04  0.19900000000E+03 0.  0.
<mgrwt>
<rscale>  0 0.51259510E+03</rscale>
<asrwt>0</asrwt>
<pdfrwt beam="1">  1        2 0.32591606E+00 0.51259510E+03</pdfrwt>
<pdfrwt beam="2">  1       -2 0.41132685E-02 0.51259510E+03</pdfrwt>
<totfact> 0.16663829E+03</totfact>
</mgrwt>
</event>
<event>
 4    1  0.1869793E-005  0.5564894E+03  0.7818608E-02  0.1000003E+00
          2   -1    0    0  501    0  0.00000000000E+00  0.00000000000E+00  0.92210886610E+03  0.92210886611E+03  0.25500000000E-02 0.  1.
         -2   -1    0    0    0  501 -0.00000000000E+00 -0.00000000000E+00 -0.83959833746E+02  0.83959833785E+02  0.25500000000E-02 0. -1.
    5000001    1    1    2    0    0 -0.19058854581E+03 -0.36720796548E+02  0.39717772280E+03  0.48479227942E+03  0.19900000000E+03 0.  0.
   -5000001    1    1    2    0    0  0.19058854581E+03  0.36720796548E+02  0.44097130956E+03  0.52127642047E+03  0.19900000000E+03 0.  0.
<mgrwt>
<rscale>  0 0.55648938E+03</rscale>
<asrwt>0</asrwt>
<pdfrwt beam="1">  1        2 0.13172984E+00 0.55648938E+03</pdfrwt>
<pdfrwt beam="2">  1       -2 0.11994262E-01 0.55648938E+03</pdfrwt>
<totfact> 0.16066768E+03</totfact>
</mgrwt>
</event>
<event>
 4    1  0.1869793E-005  0.9745999E+03  0.7818608E-02  0.9336850E-01
         -2   -1    0    0    0  501 -0.00000000000E+00  0.00000000000E+00  0.28899559680E+03  0.28899559681E+03  0.25500000000E-02 0. -1.
          2   -1    0    0  501    0  0.00000000000E+00 -0.00000000000E+00 -0.82167773059E+03  0.82167773060E+03  0.25500000000E-02 0.  1.
    5000001    1    1    2    0    0 -0.17457019910E+02  0.40785685778E+03 -0.65017365010E+02  0.45878123516E+03  0.19900000000E+03 0.  0.
   -5000001    1    1    2    0    0  0.17457019910E+02 -0.40785685778E+03 -0.46766476878E+03  0.65189209225E+03  0.19900000000E+03 0.  0.
<mgrwt>
<rscale>  0 0.97459991E+03</rscale>
<asrwt>0</asrwt>
<pdfrwt beam="1">  1        2 0.11738253E+00 0.97459991E+03</pdfrwt>
<pdfrwt beam="2">  1       -2 0.41285085E-01 0.97459991E+03</pdfrwt>
<totfact> 0.20367653E+02</totfact>
</mgrwt>
</event>
<event>
 4    1  0.1869793E-005  0.6516653E+03  0.7818608E-02  0.9803659E-01
          2   -1    0    0  501    0  0.00000000000E+00  0.00000000000E+00  0.20890790842E+04  0.20890790842E+04  0.25500000000E-02 0.  1.
         -2   -1    0    0    0  501 -0.00000000000E+00 -0.00000000000E+00 -0.50819960763E+02  0.50819960827E+02  0.25500000000E-02 0. -1.
    5000001    1    1    2    0    0  0.21792220074E+03 -0.10339618220E+03  0.13198215116E+04  0.13563593471E+04  0.19900000000E+03 0.  0.
   -5000001    1    1    2    0    0 -0.21792220074E+03  0.10339618220E+03  0.71843761178E+03  0.78353969784E+03  0.19900000000E+03 0.  0.
<mgrwt>
<rscale>  0 0.65166530E+03</rscale>
<asrwt>0</asrwt>
<pdfrwt beam="1">  1        2 0.29843987E+00 0.65166530E+03</pdfrwt>
<pdfrwt beam="2">  1       -2 0.72599943E-02 0.65166530E+03</pdfrwt>
<totfact> 0.85219760E+02</totfact>
</mgrwt>
</event>
<event>
 4    1  0.1869793E-005  0.5388326E+03  0.7818608E-02  0.1004112E+00
         -2   -1    0    0    0  501 -0.00000000000E+00  0.00000000000E+00  0.73875051827E+02  0.73875051871E+02  0.25500000000E-02 0. -1.
          2   -1    0    0  501    0  0.00000000000E+00 -0.00000000000E+00 -0.98253943931E+03  0.98253943931E+03  0.25500000000E-02 0.  1.
    5000001    1    1    2    0    0  0.11881931199E+03  0.88354821266E+02 -0.66051344040E+03  0.70555198837E+03  0.19900000000E+03 0.  0.
   -5000001    1    1    2    0    0 -0.11881931199E+03 -0.88354821266E+02 -0.24815094708E+03  0.35086250281E+03  0.19900000000E+03 0.  0.
<mgrwt>
<rscale>  0 0.53883263E+03</rscale>
<asrwt>0</asrwt>
<pdfrwt beam="1">  1        2 0.14036277E+00 0.53883263E+03</pdfrwt>
<pdfrwt beam="2">  1       -2 0.10553579E-01 0.53883263E+03</pdfrwt>
<totfact> 0.18160169E+03</totfact>
</mgrwt>
</event>
<event>
 4    1  0.1869793E-005  0.6273511E+03  0.7818608E-02  0.9850232E-01
         -2   -1    0    0    0  501 -0.00000000000E+00  0.00000000000E+00  0.14671047625E+03  0.14671047627E+03  0.25500000000E-02 0. -1.
          2   -1    0    0  501    0  0.00000000000E+00 -0.00000000000E+00 -0.67065667173E+03  0.67065667173E+03  0.25500000000E-02 0.  1.
    5000001    1    1    2    0    0 -0.41191753967E+02 -0.23889017351E+03 -0.25531891647E+03  0.40441813102E+03  0.19900000000E+03 0.  0.
   -5000001    1    1    2    0    0  0.41191753967E+02  0.23889017351E+03 -0.26862727901E+03  0.41294901698E+03  0.19900000000E+03 0.  0.
<mgrwt>
<rscale>  0 0.62735113E+03</rscale>
<asrwt>0</asrwt>
<pdfrwt beam="1">  1        2 0.95808094E-01 0.62735113E+03</pdfrwt>
<pdfrwt beam="2">  1       -2 0.20958640E-01 0.62735113E+03</pdfrwt>
<totfact> 0.93466035E+02</totfact>
</mgrwt>
</event>
<event>
 4    1  0.1869793E-005  0.1188516E+04  0.7818608E-02  0.9122968E-01
          2   -1    0    0  501    0  0.00000000000E+00  0.00000000000E+00  0.30132507407E+04  0.30132507407E+04  0.25500000000E-02 0.  1.
         -2   -1    0    0    0  501 -0.00000000000E+00 -0.00000000000E+00 -0.11719663511E+03  0.11719663514E+03  0.25500000000E-02 0. -1.
    5000001    1    1    2    0    0 -0.41951329463E+03 -0.37085276173E+03  0.14594085841E+04  0.15757530234E+04  0.19900000000E+03 0.  0.
   -5000001    1    1    2    0    0  0.41951329463E+03  0.37085276173E+03  0.14366455215E+04  0.15546943525E+04  0.19900000000E+03 0.  0.
<mgrwt>
<rscale>  0 0.11885165E+04</rscale>
<asrwt>0</asrwt>
<pdfrwt beam="1">  1        2 0.43046436E+00 0.11885165E+04</pdfrwt>
<pdfrwt beam="2">  1       -2 0.16742378E-01 0.11885165E+04</pdfrwt>
<totfact> 0.67479946E+01</totfact>
</mgrwt>
</event>
<event>
 4    1  0.1869793E-005  0.8224540E+03  0.7818608E-02  0.9528073E-01
         -2   -1    0    0    0  501 -0.00000000000E+00  0.00000000000E+00  0.11099796612E+03  0.11099796615E+03  0.25500000000E-02 0. -1.
          2   -1    0    0  501    0  0.00000000000E+00 -0.00000000000E+00 -0.15235201354E+04  0.15235201354E+04  0.25500000000E-02 0.  1.
    5000001    1    1    2    0    0 -0.30723399229E+03  0.17543171893E+03 -0.57537182851E+03  0.70414682777E+03  0.19900000000E+03 0.  0.
   -5000001    1    1    2    0    0  0.30723399229E+03 -0.17543171893E+03 -0.83715034077E+03  0.93037127378E+03  0.19900000000E+03 0.  0.
<mgrwt>
<rscale>  0 0.82245398E+03</rscale>
<asrwt>0</asrwt>
<pdfrwt beam="1">  1        2 0.21764572E+00 0.82245398E+03</pdfrwt>
<pdfrwt beam="2">  1       -2 0.15856853E-01 0.82245398E+03</pdfrwt>
<totfact> 0.45574326E+02</totfact>
</mgrwt>
</event>
<event>
 4    1  0.1869793E-005  0.6377488E+03  0.7818608E-02  0.9830043E-01
         -2   -1    0    0    0  501 -0.00000000000E+00  0.00000000000E+00  0.70493656756E+02  0.70493656802E+02  0.25500000000E-02 0. -1.
          2   -1    0    0  501    0  0.00000000000E+00 -0.00000000000E+00 -0.14424119205E+04  0.14424119205E+04  0.25500000000E-02 0.  1.
    5000001    1    1    2    0    0  0.19366776462E+03  0.15570086231E+03 -0.64286951920E+03  0.71737868681E+03  0.19900000000E+03 0.  0.
   -5000001    1    1    2    0    0 -0.19366776462E+03 -0.15570086231E+03 -0.72904874457E+03  0.79552689052E+03  0.19900000000E+03 0.  0.
<mgrwt>
<rscale>  0 0.63774882E+03</rscale>
<asrwt>0</asrwt>
<pdfrwt beam="1">  1        2 0.20605883E+00 0.63774882E+03</pdfrwt>
<pdfrwt beam="2">  1       -2 0.10070523E-01 0.63774882E+03</pdfrwt>
<totfact> 0.10782680E+03</totfact>
</mgrwt>
</event>
<event>
 4    1  0.1869793E-005  0.7795211E+03  0.7818608E-02  0.9590142E-01
         -2   -1    0    0    0  501 -0.00000000000E+00  0.00000000000E+00  0.26306273015E+03  0.26306273016E+03  0.25500000000E-02 0. -1.
          2   -1    0    0  501    0  0.00000000000E+00 -0.00000000000E+00 -0.57747934391E+03  0.57747934391E+03  0.25500000000E-02 0.  1.
    5000001    1    1    2    0    0 -0.15763509561E+03 -0.28479984497E+03 -0.71266492788E+02  0.38812328977E+03  0.19900000000E+03 0.  0.
   -5000001    1    1    2    0    0  0.15763509561E+03  0.28479984497E+03 -0.24315012097E+03  0.45241878431E+03  0.19900000000E+03 0.  0.
<mgrwt>
<rscale>  0 0.77952112E+03</rscale>
<asrwt>0</asrwt>
<pdfrwt beam="1">  1        2 0.82497049E-01 0.77952112E+03</pdfrwt>
<pdfrwt beam="2">  1       -2 0.37580390E-01 0.77952112E+03</pdfrwt>
<totfact> 0.38105745E+02</totfact>
</mgrwt>
</event>
<event>
 4    1  0.1869793E-005  0.6652509E+03  0.7818608E-02  0.9778575E-01
         -2   -1    0    0    0  501 -0.00000000000E+00  0.00000000000E+00  0.44284555804E+02  0.44284555877E+02  0.25500000000E-02 0. -1.
          2   -1    0    0  501    0  0.00000000000E+00 -0.00000000000E+00 -0.24983809427E+04  0.24983809427E+04  0.25500000000E-02 0.  1.
    5000001    1    1    2    0    0 -0.23380359500E+03  0.68343035914E+02 -0.81355612650E+03  0.87224392378E+03  0.19900000000E+03 0.  0.
   -5000001    1    1    2    0    0  0.23380359500E+03 -0.68343035914E+02 -0.16405402604E+04  0.16704215748E+04  0.19900000000E+03 0.  0.
<mgrwt>
<rscale>  0 0.66525090E+03</rscale>
<asrwt>0</asrwt>
<pdfrwt beam="1">  1        2 0.35691147E+00 0.66525090E+03</pdfrwt>
<pdfrwt beam="2">  1       -2 0.63263667E-02 0.66525090E+03</pdfrwt>
<totfact> 0.65563826E+02</totfact>
</mgrwt>
</event>
<event>
 4    1  0.1869793E-005  0.4783896E+03  0.7818608E-02  0.1019579E+00
         -2   -1    0    0    0  501 -0.00000000000E+00  0.00000000000E+00  0.16416672458E+02  0.16416672656E+02  0.25500000000E-02 0. -1.
          2   -1    0    0  501    0  0.00000000000E+00 -0.00000000000E+00 -0.34851253007E+04  0.34851253007E+04  0.25500000000E-02 0.  1.
    5000001    1    1    2    0    0 -0.81779165040E+02 -0.99604647217E+02 -0.19663057401E+04  0.19805474448E+04  0.19900000000E+03 0.  0.
   -5000001    1    1    2    0    0  0.81779165040E+02  0.99604647217E+02 -0.15024028882E+04  0.15209945286E+04  0.19900000000E+03 0.  0.
<mgrwt>
<rscale>  0 0.47838964E+03</rscale>
<asrwt>0</asrwt>
<pdfrwt beam="1">  1        2 0.49787457E+00 0.47838964E+03</pdfrwt>
<pdfrwt beam="2">  1       -2 0.23452412E-02 0.47838964E+03</pdfrwt>
<totfact> 0.88551959E+02</totfact>
</mgrwt>
</event>
<event>
 4    1  0.1869793E-005  0.4325379E+03  0.7818608E-02  0.1033061E+00
          2   -1    0    0  501    0  0.00000000000E+00  0.00000000000E+00  0.10789610186E+04  0.10789610186E+04  0.25500000000E-02 0.  1.
         -2   -1    0    0    0  501 -0.00000000000E+00 -0.00000000000E+00 -0.43349353241E+02  0.43349353316E+02  0.25500000000E-02 0. -1.
    5000001    1    1    2    0    0 -0.70902719442E+02 -0.16099736400E+02  0.63045524857E+03  0.66510241135E+03  0.19900000000E+03 0.  0.
   -5000001    1    1    2    0    0  0.70902719442E+02  0.16099736400E+02  0.40515641674E+03  0.45720796052E+03  0.19900000000E+03 0.  0.
<mgrwt>
<rscale>  0 0.43253792E+03</rscale>
<asrwt>0</asrwt>
<pdfrwt beam="1">  1        2 0.15413726E+00 0.43253792E+03</pdfrwt>
<pdfrwt beam="2">  1       -2 0.61927660E-02 0.43253792E+03</pdfrwt>
<totfact> 0.37095893E+03</totfact>
</mgrwt>
</event>
<event>
 4    1  0.1869793E-005  0.6608884E+03  0.7818608E-02  0.9786560E-01
         -2   -1    0    0    0  501 -0.00000000000E+00  0.00000000000E+00  0.66965117409E+02  0.66965117458E+02  0.25500000000E-02 0. -1.
          2   -1    0    0  501    0  0.00000000000E+00 -0.00000000000E+00 -0.16306004916E+04  0.16306004916E+04  0.25500000000E-02 0.  1.
    5000001    1    1    2    0    0 -0.64444166202E+02 -0.23962502463E+03 -0.55179924861E+03  0.63691177863E+03  0.19900000000E+03 0.  0.
   -5000001    1    1    2    0    0  0.64444166202E+02  0.23962502463E+03 -0.10118361255E+04  0.10606538304E+04  0.19900000000E+03 0.  0.
<mgrwt>
<rscale>  0 0.66088835E+03</rscale>
<asrwt>0</asrwt>
<pdfrwt beam="1">  1        2 0.23294290E+00 0.66088835E+03</pdfrwt>
<pdfrwt beam="2">  1       -2 0.95664464E-02 0.66088835E+03</pdfrwt>
<totfact> 0.93449089E+02</totfact>
</mgrwt>
</event>
<event>
 4    1  0.1869793E-005  0.1242084E+04  0.7818608E-02  0.9076798E-01
          2   -1    0    0  501    0  0.00000000000E+00  0.00000000000E+00  0.18811792657E+04  0.18811792657E+04  0.25500000000E-02 0.  1.
         -2   -1    0    0    0  501 -0.00000000000E+00 -0.00000000000E+00 -0.20502718225E+03  0.20502718226E+03  0.25500000000E-02 0. -1.
    5000001    1    1    2    0    0 -0.39260216579E+03 -0.11258612845E+03  0.15492439301E+04  0.16144874889E+04  0.19900000000E+03 0.  0.
   -5000001    1    1    2    0    0  0.39260216579E+03  0.11258612845E+03  0.12690815328E+03  0.47171895899E+03  0.19900000000E+03 0.  0.
<mgrwt>
<rscale>  0 0.12420835E+04</rscale>
<asrwt>0</asrwt>
<pdfrwt beam="1">  1        2 0.26873989E+00 0.12420835E+04</pdfrwt>
<pdfrwt beam="2">  1       -2 0.29289598E-01 0.12420835E+04</pdfrwt>
<totfact> 0.97497274E+01</totfact>
</mgrwt>
</event>
<event>
 4    1  0.1869793E-005  0.4639872E+03  0.7818608E-02  0.1023631E+00
         -2   -1    0    0    0  501 -0.00000000000E+00  0.00000000000E+00  0.51057449805E+02  0.51057449869E+02  0.25500000000E-02 0. -1.
          2   -1    0    0  501    0  0.00000000000E+00 -0.00000000000E+00 -0.10541267636E+04  0.10541267636E+04  0.25500000000E-02 0.  1.
    5000001    1    1    2    0    0  0.74236619877E+01  0.11190536369E+03 -0.59805723604E+03  0.64019635954E+03  0.19900000000E+03 0.  0.
   -5000001    1    1    2    0    0 -0.74236619877E+01 -0.11190536369E+03 -0.40501207773E+03  0.46498785391E+03  0.19900000000E+03 0.  0.
<mgrwt>
<rscale>  0 0.46398717E+03</rscale>
<asrwt>0</asrwt>
<pdfrwt beam="1">  1        2 0.15058952E+00 0.46398717E+03</pdfrwt>
<pdfrwt beam="2">  1       -2 0.72939221E-02 0.46398717E+03</pdfrwt>
<totfact> 0.29695876E+03</totfact>
</mgrwt>
</event>
<event>
 4    1  0.1869793E-005  0.7531546E+03  0.7818608E-02  0.9630414E-01
          2   -1    0    0  501    0  0.00000000000E+00  0.00000000000E+00  0.20647868881E+04  0.20647868881E+04  0.25500000000E-02 0.  1.
         -2   -1    0    0    0  501 -0.00000000000E+00 -0.00000000000E+00 -0.68680428743E+02  0.68680428791E+02  0.25500000000E-02 0. -1.
    5000001    1    1    2    0    0 -0.17309764633E+03 -0.18730891492E+03  0.45197914985E+03  0.55581793482E+03  0.19900000000E+03 0.  0.
   -5000001    1    1    2    0    0  0.17309764633E+03  0.18730891492E+03  0.15441273095E+04  0.15776493821E+04  0.19900000000E+03 0.  0.
<mgrwt>
<rscale>  0 0.75315456E+03</rscale>
<asrwt>0</asrwt>
<pdfrwt beam="1">  1        2 0.29496952E+00 0.75315456E+03</pdfrwt>
<pdfrwt beam="2">  1       -2 0.98114909E-02 0.75315456E+03</pdfrwt>
<totfact> 0.53707023E+02</totfact>
</mgrwt>
</event>
<event>
 4    1  0.1869793E-005  0.5930904E+03  0.7818608E-02  0.9919846E-01
          2   -1    0    0  501    0  0.00000000000E+00  0.00000000000E+00  0.18879148632E+04  0.18879148632E+04  0.25500000000E-02 0.  1.
         -2   -1    0    0    0  501 -0.00000000000E+00 -0.00000000000E+00 -0.46579989247E+02  0.46579989317E+02  0.25500000000E-02 0. -1.
    5000001    1    1    2    0    0 -0.18666812341E+03  0.23911203564E+02  0.54990124088E+03  0.61433631561E+03  0.19900000000E+03 0.  0.
   -5000001    1    1    2    0    0  0.18666812341E+03 -0.23911203564E+02  0.12914336331E+04  0.13201585369E+04  0.19900000000E+03 0.  0.
<mgrwt>
<rscale>  0 0.59309039E+03</rscale>
<asrwt>0</asrwt>
<pdfrwt beam="1">  1        2 0.26970213E+00 0.59309039E+03</pdfrwt>
<pdfrwt beam="2">  1       -2 0.66542841E-02 0.59309039E+03</pdfrwt>
<totfact> 0.12386262E+03</totfact>
</mgrwt>
</event>
<event>
 4    1  0.1869793E-005  0.6026896E+03  0.7818608E-02  0.9899842E-01
          2   -1    0    0  501    0  0.00000000000E+00  0.00000000000E+00  0.48415537752E+03  0.48415537753E+03  0.25500000000E-02 0.  1.
         -2   -1    0    0    0  501 -0.00000000000E+00 -0.00000000000E+00 -0.18756107262E+03  0.18756107263E+03  0.25500000000E-02 0. -1.
    5000001    1    1    2    0    0  0.34270667638E+02 -0.12423730401E+03 -0.59012599691E+02  0.24432125018E+03  0.19900000000E+03 0.  0.
   -5000001    1    1    2    0    0 -0.34270667638E+02  0.12423730401E+03  0.35560690460E+03  0.42739519998E+03  0.19900000000E+03 0.  0.
<mgrwt>
<rscale>  0 0.60268964E+03</rscale>
<asrwt>0</asrwt>
<pdfrwt beam="1">  1        2 0.69165054E-01 0.60268964E+03</pdfrwt>
<pdfrwt beam="2">  1       -2 0.26794439E-01 0.60268964E+03</pdfrwt>
<totfact> 0.88266412E+02</totfact>
</mgrwt>
</event>
<event>
 4    1  0.1869793E-005  0.4985348E+03  0.7818608E-02  0.1014162E+00
          2   -1    0    0  501    0  0.00000000000E+00  0.00000000000E+00  0.11269279816E+04  0.11269279816E+04  0.25500000000E-02 0.  1.
         -2   -1    0    0    0  501 -0.00000000000E+00 -0.00000000000E+00 -0.55135951000E+02  0.55135951059E+02  0.25500000000E-02 0. -1.
    5000001    1    1    2    0    0  0.81745969411E+02 -0.12121804813E+03  0.61654840835E+03  0.66416049156E+03  0.19900000000E+03 0.  0.
   -5000001    1    1    2    0    0 -0.81745969411E+02  0.12121804813E+03  0.45524362224E+03  0.51790344110E+03  0.19900000000E+03 0.  0.
<mgrwt>
<rscale>  0 0.49853484E+03</rscale>
<asrwt>0</asrwt>
<pdfrwt beam="1">  1        2 0.16098970E+00 0.49853484E+03</pdfrwt>
<pdfrwt beam="2">  1       -2 0.78765650E-02 0.49853484E+03</pdfrwt>
<totfact> 0.23866644E+03</totfact>
</mgrwt>
</event>
<event>
 4    1  0.1869793E-005  0.1028879E+04  0.7818608E-02  0.9277426E-01
          2   -1    0    0  501    0  0.00000000000E+00  0.00000000000E+00  0.44293970500E+03  0.44293970501E+03  0.25500000000E-02 0.  1.
         -2   -1    0    0    0  501 -0.00000000000E+00 -0.00000000000E+00 -0.59748071191E+03  0.59748071191E+03  0.25500000000E-02 0. -1.
    5000001    1    1    2    0    0 -0.12871319240E+03  0.33902947687E+03 -0.38654253820E+03  0.56614857230E+03  0.19900000000E+03 0.  0.
   -5000001    1    1    2    0    0  0.12871319240E+03 -0.33902947687E+03  0.23200153129E+03  0.47427184463E+03  0.19900000000E+03 0.  0.
<mgrwt>
<rscale>  0 0.10288789E+04</rscale>
<asrwt>0</asrwt>
<pdfrwt beam="1">  1        2 0.63277100E-01 0.10288789E+04</pdfrwt>
<pdfrwt beam="2">  1       -2 0.85354388E-01 0.10288789E+04</pdfrwt>
<totfact> 0.91816121E+01</totfact>
</mgrwt>
</event>
<event>
 4    1  0.1869793E-005  0.5365951E+03  0.7818608E-02  0.1004645E+00
         -2   -1    0    0    0  501 -0.00000000000E+00  0.00000000000E+00  0.72710990865E+02  0.72710990909E+02  0.25500000000E-02 0. -1.
          2   -1    0    0  501    0  0.00000000000E+00 -0.00000000000E+00 -0.98999571881E+03  0.98999571882E+03  0.25500000000E-02 0.  1.
    5000001    1    1    2    0    0  0.26053508088E+02  0.15901424980E+03 -0.61730517544E+03  0.66830456870E+03  0.19900000000E+03 0.  0.
   -5000001    1    1    2    0    0 -0.26053508088E+02 -0.15901424980E+03 -0.29997955251E+03  0.39440214102E+03  0.19900000000E+03 0.  0.
<mgrwt>
<rscale>  0 0.53659508E+03</rscale>
<asrwt>0</asrwt>
<pdfrwt beam="1">  1        2 0.14142795E+00 0.53659508E+03</pdfrwt>
<pdfrwt beam="2">  1       -2 0.10387285E-01 0.53659508E+03</pdfrwt>
<totfact> 0.18440216E+03</totfact>
</mgrwt>
</event>
<event>
 4    1  0.1869793E-005  0.5016743E+03  0.7818608E-02  0.1013343E+00
          2   -1    0    0  501    0  0.00000000000E+00  0.00000000000E+00  0.17917865052E+04  0.17917865052E+04  0.25500000000E-02 0.  1.
         -2   -1    0    0    0  501 -0.00000000000E+00 -0.00000000000E+00 -0.35115385456E+02  0.35115385549E+02  0.25500000000E-02 0. -1.
    5000001    1    1    2    0    0  0.12742300210E+03  0.48347787362E+02  0.11291614163E+04  0.11546344158E+04  0.19900000000E+03 0.  0.
   -5000001    1    1    2    0    0 -0.12742300210E+03 -0.48347787362E+02  0.62750970344E+03  0.67226747498E+03  0.19900000000E+03 0.  0.
<mgrwt>
<rscale>  0 0.50167429E+03</rscale>
<asrwt>0</asrwt>
<pdfrwt beam="1">  1        2 0.25596953E+00 0.50167429E+03</pdfrwt>
<pdfrwt beam="2">  1       -2 0.50164831E-02 0.50167429E+03</pdfrwt>
<totfact> 0.21590743E+03</totfact>
</mgrwt>
</event>
<event>
 4    1  0.1869793E-005  0.4645411E+03  0.7818608E-02  0.1023472E+00
          2   -1    0    0  501    0  0.00000000000E+00  0.00000000000E+00  0.93822841322E+03  0.93822841323E+03  0.25500000000E-02 0.  1.
         -2   -1    0    0    0  501 -0.00000000000E+00 -0.00000000000E+00 -0.57501561736E+02  0.57501561793E+02  0.25500000000E-02 0. -1.
    5000001    1    1    2    0    0  0.87980343681E+02 -0.61868359323E+02  0.55338681493E+03  0.59783459393E+03  0.19900000000E+03 0.  0.
   -5000001    1    1    2    0    0 -0.87980343681E+02  0.61868359323E+02  0.32734003655E+03  0.39789538109E+03  0.19900000000E+03 0.  0.
<mgrwt>
<rscale>  0 0.46454106E+03</rscale>
<asrwt>0</asrwt>
<pdfrwt beam="1">  1        2 0.13403262E+00 0.46454106E+03</pdfrwt>
<pdfrwt beam="2">  1       -2 0.82145092E-02 0.46454106E+03</pdfrwt>
<totfact> 0.28922149E+03</totfact>
</mgrwt>
</event>
<event>
 4    1  0.1869793E-005  0.7313007E+03  0.7818608E-02  0.9665152E-01
          2   -1    0    0  501    0  0.00000000000E+00  0.00000000000E+00  0.12551926126E+03  0.12551926128E+03  0.25500000000E-02 0.  1.
         -2   -1    0    0    0  501 -0.00000000000E+00 -0.00000000000E+00 -0.10651765237E+04  0.10651765237E+04  0.25500000000E-02 0. -1.
    5000001    1    1    2    0    0  0.27619693172E+03 -0.10409495172E+03 -0.33381229986E+03  0.48800835608E+03  0.19900000000E+03 0.  0.
   -5000001    1    1    2    0    0 -0.27619693172E+03  0.10409495172E+03 -0.60584496261E+03  0.70268742894E+03  0.19900000000E+03 0.  0.
<mgrwt>
<rscale>  0 0.73130068E+03</rscale>
<asrwt>0</asrwt>
<pdfrwt beam="1">  1        2 0.17931324E-01 0.73130068E+03</pdfrwt>
<pdfrwt beam="2">  1       -2 0.15216807E+00 0.73130068E+03</pdfrwt>
<totfact> 0.94403035E+01</totfact>
</mgrwt>
</event>
<event>
 4    1  0.1869793E-005  0.5789399E+03  0.7818608E-02  0.9950089E-01
          2   -1    0    0  501    0  0.00000000000E+00  0.00000000000E+00  0.73983546861E+03  0.73983546861E+03  0.25500000000E-02 0.  1.
         -2   -1    0    0    0  501 -0.00000000000E+00 -0.00000000000E+00 -0.11325878356E+03  0.11325878359E+03  0.25500000000E-02 0. -1.
    5000001    1    1    2    0    0  0.18924989900E+03  0.15518904636E+02  0.18037892769E+03  0.32892843937E+03  0.19900000000E+03 0.  0.
   -5000001    1    1    2    0    0 -0.18924989900E+03 -0.15518904636E+02  0.44619775735E+03  0.52416581283E+03  0.19900000000E+03 0.  0.
<mgrwt>
<rscale>  0 0.57893995E+03</rscale>
<asrwt>0</asrwt>
<pdfrwt beam="1">  1        2 0.10569078E+00 0.57893995E+03</pdfrwt>
<pdfrwt beam="2">  1       -2 0.16179826E-01 0.57893995E+03</pdfrwt>
<totfact> 0.12954828E+03</totfact>
</mgrwt>
</event>
<event>
 4    1  0.1869793E-005  0.9335044E+03  0.7818608E-02  0.9384642E-01
          2   -1    0    0  501    0  0.00000000000E+00  0.00000000000E+00  0.14925061828E+04  0.14925061828E+04  0.25500000000E-02 0.  1.
         -2   -1    0    0    0  501 -0.00000000000E+00 -0.00000000000E+00 -0.14596763275E+03  0.14596763277E+03  0.25500000000E-02 0. -1.
    5000001    1    1    2    0    0 -0.14233598815E+03 -0.35979705475E+03  0.37673559074E+03  0.57553814770E+03  0.19900000000E+03 0.  0.
   -5000001    1    1    2    0    0  0.14233598815E+03  0.35979705475E+03  0.96980295927E+03  0.10629356678E+04  0.19900000000E+03 0.  0.
<mgrwt>
<rscale>  0 0.93350435E+03</rscale>
<asrwt>0</asrwt>
<pdfrwt beam="1">  1        2 0.21321518E+00 0.93350435E+03</pdfrwt>
<pdfrwt beam="2">  1       -2 0.20852518E-01 0.93350435E+03</pdfrwt>
<totfact> 0.29266508E+02</totfact>
</mgrwt>
</event>
<event>
 4    1  0.1869793E-005  0.5080413E+03  0.7818608E-02  0.1011701E+00
          2   -1    0    0  501    0  0.00000000000E+00  0.00000000000E+00  0.16069462595E+04  0.16069462595E+04  0.25500000000E-02 0.  1.
         -2   -1    0    0    0  501 -0.00000000000E+00 -0.00000000000E+00 -0.40154730520E+02  0.40154730601E+02  0.25500000000E-02 0. -1.
    5000001    1    1    2    0    0 -0.10618838177E+03  0.11092205222E+03  0.90233213595E+03  0.93668775890E+03  0.19900000000E+03 0.  0.
   -5000001    1    1    2    0    0  0.10618838177E+03 -0.11092205222E+03  0.66445939301E+03  0.71041323119E+03  0.19900000000E+03 0.  0.
<mgrwt>
<rscale>  0 0.50804131E+03</rscale>
<asrwt>0</asrwt>
<pdfrwt beam="1">  1        2 0.22956377E+00 0.50804131E+03</pdfrwt>
<pdfrwt beam="2">  1       -2 0.57363897E-02 0.50804131E+03</pdfrwt>
<totfact> 0.21744822E+03</totfact>
</mgrwt>
</event>
<event>
 4    1  0.1869793E-005  0.6072058E+03  0.7818608E-02  0.9890568E-01
          2   -1    0    0  501    0  0.00000000000E+00  0.00000000000E+00  0.45923919607E+03  0.45923919607E+03  0.25500000000E-02 0.  1.
         -2   -1    0    0    0  501 -0.00000000000E+00 -0.00000000000E+00 -0.20071181285E+03  0.20071181287E+03  0.25500000000E-02 0. -1.
    5000001    1    1    2    0    0  0.34231477983E+02  0.20853361914E+03  0.32565239162E+02  0.29209512012E+03  0.19900000000E+03 0.  0.
   -5000001    1    1    2    0    0 -0.34231477983E+02 -0.20853361914E+03  0.22596214406E+03  0.36785588882E+03  0.19900000000E+03 0.  0.
<mgrwt>
<rscale>  0 0.60720584E+03</rscale>
<asrwt>0</asrwt>
<pdfrwt beam="1">  1        2 0.65605598E-01 0.60720584E+03</pdfrwt>
<pdfrwt beam="2">  1       -2 0.28673117E-01 0.60720584E+03</pdfrwt>
<totfact> 0.82791301E+02</totfact>
</mgrwt>
</event>
<event>
 4    1  0.1869793E-005  0.5945420E+03  0.7818608E-02  0.9916795E-01
          2   -1    0    0  501    0  0.00000000000E+00  0.00000000000E+00  0.95377889479E+03  0.95377889479E+03  0.25500000000E-02 0.  1.
         -2   -1    0    0    0  501 -0.00000000000E+00 -0.00000000000E+00 -0.92652547406E+02  0.92652547441E+02  0.25500000000E-02 0. -1.
    5000001    1    1    2    0    0  0.15102273674E+03 -0.10673481416E+03  0.21812087862E+03  0.34839331977E+03  0.19900000000E+03 0.  0.
   -5000001    1    1    2    0    0 -0.15102273674E+03  0.10673481416E+03  0.64300546876E+03  0.69803812247E+03  0.19900000000E+03 0.  0.
<mgrwt>
<rscale>  0 0.59454199E+03</rscale>
<asrwt>0</asrwt>
<pdfrwt beam="1">  1        2 0.13625414E+00 0.59454199E+03</pdfrwt>
<pdfrwt beam="2">  1       -2 0.13236077E-01 0.59454199E+03</pdfrwt>
<totfact> 0.13033020E+03</totfact>
</mgrwt>
</event>
<event>
 4    1  0.1869793E-005  0.5593506E+03  0.7818608E-02  0.9993525E-01
         -2   -1    0    0    0  501 -0.00000000000E+00  0.00000000000E+00  0.62160104272E+02  0.62160104324E+02  0.25500000000E-02 0. -1.
          2   -1    0    0  501    0  0.00000000000E+00 -0.00000000000E+00 -0.12583355010E+04  0.12583355010E+04  0.25500000000E-02 0.  1.
    5000001    1    1    2    0    0 -0.14198706450E+03  0.13398402469E+03 -0.54502450145E+03  0.61218032681E+03  0.19900000000E+03 0.  0.
   -5000001    1    1    2    0    0  0.14198706450E+03 -0.13398402469E+03 -0.65115089533E+03  0.70831527856E+03  0.19900000000E+03 0.  0.
<mgrwt>
<rscale>  0 0.55935057E+03</rscale>
<asrwt>0</asrwt>
<pdfrwt beam="1">  1        2 0.17976220E+00 0.55935057E+03</pdfrwt>
<pdfrwt beam="2">  1       -2 0.88800157E-02 0.55935057E+03</pdfrwt>
<totfact> 0.16628857E+03</totfact>
</mgrwt>
</event>
<event>
 4    1  0.1869793E-005  0.5639357E+03  0.7818608E-02  0.9983188E-01
          2   -1    0    0  501    0  0.00000000000E+00  0.00000000000E+00  0.58833186861E+03  0.58833186861E+03  0.25500000000E-02 0.  1.
         -2   -1    0    0    0  501 -0.00000000000E+00 -0.00000000000E+00 -0.13513780416E+03  0.13513780418E+03  0.25500000000E-02 0. -1.
    5000001    1    1    2    0    0  0.13112868898E+03  0.14673413317E+03  0.27065165033E+03  0.38933142018E+03  0.19900000000E+03 0.  0.
   -5000001    1    1    2    0    0 -0.13112868898E+03 -0.14673413317E+03  0.18254241412E+03  0.33413825262E+03  0.19900000000E+03 0.  0.
<mgrwt>
<rscale>  0 0.56393573E+03</rscale>
<asrwt>0</asrwt>
<pdfrwt beam="1">  1        2 0.84047409E-01 0.56393573E+03</pdfrwt>
<pdfrwt beam="2">  1       -2 0.19305401E-01 0.56393573E+03</pdfrwt>
<totfact> 0.12613173E+03</totfact>
</mgrwt>
</event>
<event>
 4    1  0.1869793E-005  0.4908228E+03  0.7818608E-02  0.1016202E+00
          2   -1    0    0  501    0  0.00000000000E+00  0.00000000000E+00  0.56110408868E+03  0.56110408869E+03  0.25500000000E-02 0.  1.
         -2   -1    0    0    0  501 -0.00000000000E+00 -0.00000000000E+00 -0.10733617319E+03  0.10733617323E+03  0.25500000000E-02 0. -1.
    5000001    1    1    2    0    0  0.46596828304E+02  0.10390325075E+03  0.34606659036E+03  0.41512676966E+03  0.19900000000E+03 0.  0.
   -5000001    1    1    2    0    0 -0.46596828304E+02 -0.10390325075E+03  0.10770132513E+03  0.25331349226E+03  0.19900000000E+03 0.  0.
<mgrwt>
<rscale>  0 0.49082284E+03</rscale>
<asrwt>0</asrwt>
<pdfrwt beam="1">  1        2 0.80157726E-01 0.49082284E+03</pdfrwt>
<pdfrwt beam="2">  1       -2 0.15333739E-01 0.49082284E+03</pdfrwt>
<totfact> 0.19734293E+03</totfact>
</mgrwt>
</event>
<event>
 4    1  0.1869793E-005  0.4817002E+03  0.7818608E-02  0.1018669E+00
         -2   -1    0    0    0  501 -0.00000000000E+00  0.00000000000E+00  0.29801834033E+02  0.29801834143E+02  0.25500000000E-02 0. -1.
          2   -1    0    0  501    0  0.00000000000E+00 -0.00000000000E+00 -0.19464833777E+04  0.19464833777E+04  0.25500000000E-02 0.  1.
    5000001    1    1    2    0    0  0.10359548708E+03 -0.65915468576E+02 -0.72155607831E+03  0.75849920770E+03  0.19900000000E+03 0.  0.
   -5000001    1    1    2    0    0 -0.10359548708E+03  0.65915468576E+02 -0.11951254654E+04  0.12177860042E+04  0.19900000000E+03 0.  0.
<mgrwt>
<rscale>  0 0.48170022E+03</rscale>
<asrwt>0</asrwt>
<pdfrwt beam="1">  1        2 0.27806897E+00 0.48170022E+03</pdfrwt>
<pdfrwt beam="2">  1       -2 0.42574061E-02 0.48170022E+03</pdfrwt>
<totfact> 0.23273423E+03</totfact>
</mgrwt>
</event>
<event>
 4    1  0.1869793E-005  0.6919776E+03  0.7818608E-02  0.9731051E-01
         -2   -1    0    0    0  501 -0.00000000000E+00  0.00000000000E+00  0.10611819017E+03  0.10611819020E+03  0.25500000000E-02 0. -1.
          2   -1    0    0  501    0  0.00000000000E+00 -0.00000000000E+00 -0.11280651946E+04  0.11280651946E+04  0.25500000000E-02 0.  1.
    5000001    1    1    2    0    0  0.10468170463E+03  0.11474896893E+03 -0.88975362389E+02  0.26766247452E+03  0.19900000000E+03 0.  0.
   -5000001    1    1    2    0    0 -0.10468170463E+03 -0.11474896893E+03 -0.93297164208E+03  0.96652091031E+03  0.19900000000E+03 0.  0.
<mgrwt>
<rscale>  0 0.69197756E+03</rscale>
<asrwt>0</asrwt>
<pdfrwt beam="1">  1        2 0.16115216E+00 0.69197756E+03</pdfrwt>
<pdfrwt beam="2">  1       -2 0.15159742E-01 0.69197756E+03</pdfrwt>
<totfact> 0.81400718E+02</totfact>
</mgrwt>
</event>
<event>
 4    1  0.1869793E-005  0.7059159E+03  0.7818608E-02  0.9707168E-01
          2   -1    0    0  501    0  0.00000000000E+00  0.00000000000E+00  0.50946872025E+03  0.50946872026E+03  0.25500000000E-02 0.  1.
         -2   -1    0    0    0  501 -0.00000000000E+00 -0.00000000000E+00 -0.24452790371E+03  0.24452790372E+03  0.25500000000E-02 0. -1.
    5000001    1    1    2    0    0  0.23674208645E+03  0.17006156989E+03  0.12899861600E+03  0.37577838680E+03  0.19900000000E+03 0.  0.
   -5000001    1    1    2    0    0 -0.23674208645E+03 -0.17006156989E+03  0.13594220054E+03  0.37821823719E+03  0.19900000000E+03 0.  0.
<mgrwt>
<rscale>  0 0.70591591E+03</rscale>
<asrwt>0</asrwt>
<pdfrwt beam="1">  1        2 0.72781245E-01 0.70591591E+03</pdfrwt>
<pdfrwt beam="2">  1       -2 0.34932558E-01 0.70591591E+03</pdfrwt>
<totfact> 0.50796838E+02</totfact>
</mgrwt>
</event>
<event>
 4    1  0.1869793E-005  0.5435872E+03  0.7818608E-02  0.1002989E+00
          2   -1    0    0  501    0  0.00000000000E+00  0.00000000000E+00  0.79531267907E+03  0.79531267907E+03  0.25500000000E-02 0.  1.
         -2   -1    0    0    0  501 -0.00000000000E+00 -0.00000000000E+00 -0.92883939240E+02  0.92883939275E+02  0.25500000000E-02 0. -1.
    5000001    1    1    2    0    0  0.11214815686E+03  0.14560236466E+03  0.31491568712E+03  0.41539155947E+03  0.19900000000E+03 0.  0.
   -5000001    1    1    2    0    0 -0.11214815686E+03 -0.14560236466E+03  0.38751305270E+03  0.47280505888E+03  0.19900000000E+03 0.  0.
<mgrwt>
<rscale>  0 0.54358725E+03</rscale>
<asrwt>0</asrwt>
<pdfrwt beam="1">  1        2 0.11361609E+00 0.54358725E+03</pdfrwt>
<pdfrwt beam="2">  1       -2 0.13269135E-01 0.54358725E+03</pdfrwt>
<totfact> 0.16502893E+03</totfact>
</mgrwt>
</event>
<event>
 4    1  0.1869793E-005  0.4910840E+03  0.7818608E-02  0.1016133E+00
         -2   -1    0    0    0  501 -0.00000000000E+00  0.00000000000E+00  0.40875152269E+02  0.40875152348E+02  0.25500000000E-02 0. -1.
          2   -1    0    0  501    0  0.00000000000E+00 -0.00000000000E+00 -0.14750008469E+04  0.14750008469E+04  0.25500000000E-02 0.  1.
    5000001    1    1    2    0    0 -0.66851325729E+02  0.12731095885E+03 -0.70606056257E+03  0.74752906165E+03  0.19900000000E+03 0.  0.
   -5000001    1    1    2    0    0  0.66851325729E+02 -0.12731095885E+03 -0.72806513206E+03  0.76834693760E+03  0.19900000000E+03 0.  0.
<mgrwt>
<rscale>  0 0.49108404E+03</rscale>
<asrwt>0</asrwt>
<pdfrwt beam="1">  1        2 0.21071437E+00 0.49108404E+03</pdfrwt>
<pdfrwt beam="2">  1       -2 0.58393084E-02 0.49108404E+03</pdfrwt>
<totfact> 0.24740096E+03</totfact>
</mgrwt>
</event>
<event>
 4    1  0.1869793E-005  0.4687654E+03  0.7818608E-02  0.1022269E+00
         -2   -1    0    0    0  501 -0.00000000000E+00  0.00000000000E+00  0.18048049316E+04  0.18048049316E+04  0.25500000000E-02 0. -1.
          2   -1    0    0  501    0  0.00000000000E+00 -0.00000000000E+00 -0.30438329939E+02  0.30438330045E+02  0.25500000000E-02 0.  1.
    5000001    1    1    2    0    0  0.80956369573E+02  0.91481337160E+02  0.96660004377E+03  0.99440404938E+03  0.19900000000E+03 0.  0.
   -5000001    1    1    2    0    0 -0.80956369573E+02 -0.91481337160E+02  0.80776655786E+03  0.84083921223E+03  0.19900000000E+03 0.  0.
<mgrwt>
<rscale>  0 0.46876539E+03</rscale>
<asrwt>0</asrwt>
<pdfrwt beam="1">  1        2 0.43483316E-02 0.46876539E+03</pdfrwt>
<pdfrwt beam="2">  1       -2 0.25782935E+00 0.46876539E+03</pdfrwt>
<totfact> 0.12068485E+02</totfact>
</mgrwt>
</event>
<event>
 4    1  0.1869793E-005  0.6227196E+03  0.7818608E-02  0.9859360E-01
         -2   -1    0    0    0  501 -0.00000000000E+00  0.00000000000E+00  0.85032904963E+03  0.85032904963E+03  0.25500000000E-02 0. -1.
          2   -1    0    0  501    0  0.00000000000E+00 -0.00000000000E+00 -0.11400871103E+03  0.11400871106E+03  0.25500000000E-02 0.  1.
    5000001    1    1    2    0    0  0.17810329238E+03 -0.13319592635E+03  0.23067547475E+03  0.37719240741E+03  0.19900000000E+03 0.  0.
   -5000001    1    1    2    0    0 -0.17810329238E+03  0.13319592635E+03  0.50564486384E+03  0.58714535328E+03  0.19900000000E+03 0.  0.
<mgrwt>
<rscale>  0 0.62271958E+03</rscale>
<asrwt>0</asrwt>
<pdfrwt beam="1">  1        2 0.16286958E-01 0.62271958E+03</pdfrwt>
<pdfrwt beam="2">  1       -2 0.12147558E+00 0.62271958E+03</pdfrwt>
<totfact> 0.18935198E+02</totfact>
</mgrwt>
</event>
<event>
 4    1  0.1869793E-005  0.1133014E+04  0.7818608E-02  0.9173599E-01
         -2   -1    0    0    0  501 -0.00000000000E+00  0.00000000000E+00  0.69148630085E+03  0.69148630085E+03  0.25500000000E-02 0. -1.
          2   -1    0    0  501    0  0.00000000000E+00 -0.00000000000E+00 -0.46411615011E+03  0.46411615012E+03  0.25500000000E-02 0.  1.
    5000001    1    1    2    0    0 -0.20623984320E+03 -0.38109744553E+03 -0.19828698750E+03  0.51641927281E+03  0.19900000000E+03 0.  0.
   -5000001    1    1    2    0    0  0.20623984320E+03  0.38109744553E+03  0.42565713824E+03  0.63918317816E+03  0.19900000000E+03 0.  0.
<mgrwt>
<rscale>  0 0.11330136E+04</rscale>
<asrwt>0</asrwt>
<pdfrwt beam="1">  1        2 0.66302308E-01 0.11330136E+04</pdfrwt>
<pdfrwt beam="2">  1       -2 0.98783755E-01 0.11330136E+04</pdfrwt>
<totfact> 0.61664586E+01</totfact>
</mgrwt>
</event>
<event>
 4    1  0.1869793E-005  0.4740278E+03  0.7818608E-02  0.1020790E+00
         -2   -1    0    0    0  501 -0.00000000000E+00  0.00000000000E+00  0.68839020435E+02  0.68839020482E+02  0.25500000000E-02 0. -1.
          2   -1    0    0  501    0  0.00000000000E+00 -0.00000000000E+00 -0.81604277766E+03  0.81604277766E+03  0.25500000000E-02 0.  1.
    5000001    1    1    2    0    0  0.80223736454E+02 -0.18212974330E+02 -0.18873883166E+03  0.28634054359E+03  0.19900000000E+03 0.  0.
   -5000001    1    1    2    0    0 -0.80223736454E+02  0.18212974330E+02 -0.55846492556E+03  0.59854125456E+03  0.19900000000E+03 0.  0.
<mgrwt>
<rscale>  0 0.47402779E+03</rscale>
<asrwt>0</asrwt>
<pdfrwt beam="1">  1        2 0.11657753E+00 0.47402779E+03</pdfrwt>
<pdfrwt beam="2">  1       -2 0.98341463E-02 0.47402779E+03</pdfrwt>
<totfact> 0.26049183E+03</totfact>
</mgrwt>
</event>
<event>
 4    1  0.1869793E-005  0.4902484E+03  0.7818608E-02  0.1016356E+00
          2   -1    0    0  501    0  0.00000000000E+00  0.00000000000E+00  0.27692002975E+04  0.27692002975E+04  0.25500000000E-02 0.  1.
         -2   -1    0    0    0  501 -0.00000000000E+00 -0.00000000000E+00 -0.21697912725E+02  0.21697912875E+02  0.25500000000E-02 0. -1.
    5000001    1    1    2    0    0  0.31354141060E+02  0.13197980760E+03  0.16335782888E+04  0.16512361362E+04  0.19900000000E+03 0.  0.
   -5000001    1    1    2    0    0 -0.31354141060E+02 -0.13197980760E+03  0.11139240960E+04  0.11396620742E+04  0.19900000000E+03 0.  0.
<mgrwt>
<rscale>  0 0.49024837E+03</rscale>
<asrwt>0</asrwt>
<pdfrwt beam="1">  1        2 0.39559996E+00 0.49024837E+03</pdfrwt>
<pdfrwt beam="2">  1       -2 0.30997025E-02 0.49024837E+03</pdfrwt>
<totfact> 0.14448875E+03</totfact>
</mgrwt>
</event>
<event>
 4    1  0.1869793E-005  0.4919460E+03  0.7818608E-02  0.1015903E+00
         -2   -1    0    0    0  501 -0.00000000000E+00  0.00000000000E+00  0.86033887095E+02  0.86033887133E+02  0.25500000000E-02 0. -1.
          2   -1    0    0  501    0  0.00000000000E+00 -0.00000000000E+00 -0.70324271760E+03  0.70324271761E+03  0.25500000000E-02 0.  1.
    5000001    1    1    2    0    0 -0.58975925260E+02  0.10091462096E+03 -0.44511761534E+03  0.50139067799E+03  0.19900000000E+03 0.  0.
   -5000001    1    1    2    0    0  0.58975925260E+02 -0.10091462096E+03 -0.17209121516E+03  0.28788592675E+03  0.19900000000E+03 0.  0.
<mgrwt>
<rscale>  0 0.49194595E+03</rscale>
<asrwt>0</asrwt>
<pdfrwt beam="1">  1        2 0.10046324E+00 0.49194595E+03</pdfrwt>
<pdfrwt beam="2">  1       -2 0.12290556E-01 0.49194595E+03</pdfrwt>
<totfact> 0.21820996E+03</totfact>
</mgrwt>
</event>
<event>
 4    1  0.1869793E-005  0.4876681E+03  0.7818608E-02  0.1017049E+00
          2   -1    0    0  501    0  0.00000000000E+00  0.00000000000E+00  0.51358459156E+03  0.51358459157E+03  0.25500000000E-02 0.  1.
         -2   -1    0    0    0  501 -0.00000000000E+00 -0.00000000000E+00 -0.11576483916E+03  0.11576483919E+03  0.25500000000E-02 0. -1.
    5000001    1    1    2    0    0  0.12433801326E+02 -0.14031423731E+03  0.20325821711E+03  0.31742335679E+03  0.19900000000E+03 0.  0.
   -5000001    1    1    2    0    0 -0.12433801326E+02  0.14031423731E+03  0.19456153529E+03  0.31192607397E+03  0.19900000000E+03 0.  0.
<mgrwt>
<rscale>  0 0.48766807E+03</rscale>
<asrwt>0</asrwt>
<pdfrwt beam="1">  1        2 0.73369226E-01 0.48766807E+03</pdfrwt>
<pdfrwt beam="2">  1       -2 0.16537834E-01 0.48766807E+03</pdfrwt>
<totfact> 0.19221022E+03</totfact>
</mgrwt>
</event>
<event>
 4    1  0.1869793E-005  0.1216244E+04  0.7818608E-02  0.9098756E-01
         -2   -1    0    0    0  501 -0.00000000000E+00  0.00000000000E+00  0.55429215661E+03  0.55429215662E+03  0.25500000000E-02 0. -1.
          2   -1    0    0  501    0  0.00000000000E+00 -0.00000000000E+00 -0.66717923386E+03  0.66717923386E+03  0.25500000000E-02 0.  1.
    5000001    1    1    2    0    0  0.13050692469E+03  0.55839778373E+03 -0.19256367338E+02  0.60729889671E+03  0.19900000000E+03 0.  0.
   -5000001    1    1    2    0    0 -0.13050692469E+03 -0.55839778373E+03 -0.93630709913E+02  0.61417249377E+03  0.19900000000E+03 0.  0.
<mgrwt>
<rscale>  0 0.12162438E+04</rscale>
<asrwt>0</asrwt>
<pdfrwt beam="1">  1        2 0.95311319E-01 0.12162438E+04</pdfrwt>
<pdfrwt beam="2">  1       -2 0.79184594E-01 0.12162438E+04</pdfrwt>
<totfact> 0.66665962E+01</totfact>
</mgrwt>
</event>
<event>
 4    1  0.1869793E-005  0.4782883E+03  0.7818608E-02  0.1019607E+00
         -2   -1    0    0    0  501 -0.00000000000E+00  0.00000000000E+00  0.17642891845E+02  0.17642892029E+02  0.25500000000E-02 0. -1.
          2   -1    0    0  501    0  0.00000000000E+00 -0.00000000000E+00 -0.32415283556E+04  0.32415283556E+04  0.25500000000E-02 0.  1.
    5000001    1    1    2    0    0 -0.92412968464E+02  0.95027043997E+02 -0.16413615171E+04  0.16586859032E+04  0.19900000000E+03 0.  0.
   -5000001    1    1    2    0    0  0.92412968464E+02 -0.95027043997E+02 -0.15825239467E+04  0.16004853444E+04  0.19900000000E+03 0.  0.
<mgrwt>
<rscale>  0 0.47828834E+03</rscale>
<asrwt>0</asrwt>
<pdfrwt beam="1">  1        2 0.46307510E+00 0.47828834E+03</pdfrwt>
<pdfrwt beam="2">  1       -2 0.25204152E-02 0.47828834E+03</pdfrwt>
<totfact> 0.10968265E+03</totfact>
</mgrwt>
</event>
<event>
 4    1  0.1869793E-005  0.5933979E+03  0.7818608E-02  0.9919199E-01
         -2   -1    0    0    0  501 -0.00000000000E+00  0.00000000000E+00  0.30577400698E+02  0.30577400805E+02  0.25500000000E-02 0. -1.
          2   -1    0    0  501    0  0.00000000000E+00 -0.00000000000E+00 -0.28789326019E+04  0.28789326019E+04  0.25500000000E-02 0.  1.
    5000001    1    1    2    0    0  0.21018500509E+03  0.28835878635E+02 -0.11374371986E+04  0.11740415772E+04  0.19900000000E+03 0.  0.
   -5000001    1    1    2    0    0 -0.21018500509E+03 -0.28835878635E+02 -0.17109180026E+04  0.17354684255E+04  0.19900000000E+03 0.  0.
<mgrwt>
<rscale>  0 0.59339793E+03</rscale>
<asrwt>0</asrwt>
<pdfrwt beam="1">  1        2 0.41127591E+00 0.59339793E+03</pdfrwt>
<pdfrwt beam="2">  1       -2 0.43682019E-02 0.59339793E+03</pdfrwt>
<totfact> 0.74189431E+02</totfact>
</mgrwt>
</event>
<event>
 4    1  0.1869793E-005  0.1035910E+04  0.7818608E-02  0.9270013E-01
          2   -1    0    0  501    0  0.00000000000E+00  0.00000000000E+00  0.31424670185E+04  0.31424670185E+04  0.25500000000E-02 0.  1.
         -2   -1    0    0    0  501 -0.00000000000E+00 -0.00000000000E+00 -0.85371634076E+02  0.85371634114E+02  0.25500000000E-02 0. -1.
    5000001    1    1    2    0    0  0.25875135168E+03  0.39385156146E+03  0.12753069177E+04  0.13740742515E+04  0.19900000000E+03 0.  0.
   -5000001    1    1    2    0    0 -0.25875135168E+03 -0.39385156146E+03  0.17817884668E+04  0.18537644011E+04  0.19900000000E+03 0.  0.
<mgrwt>
<rscale>  0 0.10359103E+04</rscale>
<asrwt>0</asrwt>
<pdfrwt beam="1">  1        2 0.44892396E+00 0.10359103E+04</pdfrwt>
<pdfrwt beam="2">  1       -2 0.12195945E-01 0.10359103E+04</pdfrwt>
<totfact> 0.99008917E+01</totfact>
</mgrwt>
</event>
<event>
 4    1  0.1869793E-005  0.8821210E+03  0.7818608E-02  0.9448211E-01
          2   -1    0    0  501    0  0.00000000000E+00  0.00000000000E+00  0.35741699952E+03  0.35741699953E+03  0.25500000000E-02 0.  1.
         -2   -1    0    0    0  501 -0.00000000000E+00 -0.00000000000E+00 -0.54427842071E+03  0.54427842072E+03  0.25500000000E-02 0. -1.
    5000001    1    1    2    0    0 -0.24044527258E+03  0.14065518088E+03  0.19083292101E+03  0.39193878700E+03  0.19900000000E+03 0.  0.
   -5000001    1    1    2    0    0  0.24044527258E+03 -0.14065518088E+03 -0.37769434220E+03  0.50975663325E+03  0.19900000000E+03 0.  0.
<mgrwt>
<rscale>  0 0.88212099E+03</rscale>
<asrwt>0</asrwt>
<pdfrwt beam="1">  1        2 0.51059572E-01 0.88212099E+03</pdfrwt>
<pdfrwt beam="2">  1       -2 0.77754059E-01 0.88212099E+03</pdfrwt>
<totfact> 0.14521985E+02</totfact>
</mgrwt>
</event>
<event>
 4    1  0.1869793E-005  0.7699314E+03  0.7818608E-02  0.9604590E-01
          2   -1    0    0  501    0  0.00000000000E+00  0.00000000000E+00  0.77044884061E+03  0.77044884061E+03  0.25500000000E-02 0.  1.
         -2   -1    0    0    0  501 -0.00000000000E+00 -0.00000000000E+00 -0.19235358140E+03  0.19235358142E+03  0.25500000000E-02 0. -1.
    5000001    1    1    2    0    0  0.20834706622E+03 -0.14715684220E+03  0.28132530759E+02  0.32474001216E+03  0.19900000000E+03 0.  0.
   -5000001    1    1    2    0    0 -0.20834706622E+03  0.14715684220E+03  0.54996272845E+03  0.63806240987E+03  0.19900000000E+03 0.  0.
<mgrwt>
<rscale>  0 0.76993141E+03</rscale>
<asrwt>0</asrwt>
<pdfrwt beam="1">  1        2 0.11006412E+00 0.76993141E+03</pdfrwt>
<pdfrwt beam="2">  1       -2 0.27479083E-01 0.76993141E+03</pdfrwt>
<totfact> 0.48270302E+02</totfact>
</mgrwt>
</event>
<event>
 4    1  0.1869793E-005  0.4836906E+03  0.7818608E-02  0.1018126E+00
          2   -1    0    0  501    0  0.00000000000E+00  0.00000000000E+00  0.36961683483E+03  0.36961683484E+03  0.25500000000E-02 0.  1.
         -2   -1    0    0    0  501 -0.00000000000E+00 -0.00000000000E+00 -0.15824264647E+03  0.15824264649E+03  0.25500000000E-02 0. -1.
    5000001    1    1    2    0    0  0.91414264999E+02 -0.10145619114E+03  0.12253086817E+03  0.27067460210E+03  0.19900000000E+03 0.  0.
   -5000001    1    1    2    0    0 -0.91414264999E+02  0.10145619114E+03  0.88843320187E+02  0.25718487924E+03  0.19900000000E+03 0.  0.
<mgrwt>
<rscale>  0 0.48369059E+03</rscale>
<asrwt>0</asrwt>
<pdfrwt beam="1">  1        2 0.52802405E-01 0.48369059E+03</pdfrwt>
<pdfrwt beam="2">  1       -2 0.22606092E-01 0.48369059E+03</pdfrwt>
<totfact> 0.16160315E+03</totfact>
</mgrwt>
</event>
<event>
 4    1  0.1869793E-005  0.9834296E+03  0.7818608E-02  0.9326908E-01
         -2   -1    0    0    0  501 -0.00000000000E+00  0.00000000000E+00  0.99839459749E+03  0.99839459750E+03  0.25500000000E-02 0. -1.
          2   -1    0    0  501    0  0.00000000000E+00 -0.00000000000E+00 -0.24217224833E+03  0.24217224834E+03  0.25500000000E-02 0.  1.
    5000001    1    1    2    0    0  0.89983096091E+02  0.42096286939E+03  0.21423769771E+03  0.52038974443E+03  0.19900000000E+03 0.  0.
   -5000001    1    1    2    0    0 -0.89983096091E+02 -0.42096286939E+03  0.54198465145E+03  0.72017710141E+03  0.19900000000E+03 0.  0.
<mgrwt>
<rscale>  0 0.98342964E+03</rscale>
<asrwt>0</asrwt>
<pdfrwt beam="1">  1        2 0.34596035E-01 0.98342964E+03</pdfrwt>
<pdfrwt beam="2">  1       -2 0.14262780E+00 0.98342964E+03</pdfrwt>
<totfact> 0.51804937E+01</totfact>
</mgrwt>
</event>
<event>
 4    1  0.1869793E-005  0.5931304E+03  0.7818608E-02  0.9919762E-01
          2   -1    0    0  501    0  0.00000000000E+00  0.00000000000E+00  0.10262755750E+03  0.10262755754E+03  0.25500000000E-02 0.  1.
         -2   -1    0    0    0  501 -0.00000000000E+00 -0.00000000000E+00 -0.85699117574E+03  0.85699117574E+03  0.25500000000E-02 0. -1.
    5000001    1    1    2    0    0  0.18076717509E+03 -0.77977025718E+02 -0.21872186315E+03  0.35524279239E+03  0.19900000000E+03 0.  0.
   -5000001    1    1    2    0    0 -0.18076717509E+03  0.77977025718E+02 -0.53564175509E+03  0.60437594088E+03  0.19900000000E+03 0.  0.
<mgrwt>
<rscale>  0 0.59313038E+03</rscale>
<asrwt>0</asrwt>
<pdfrwt beam="1">  1        2 0.14661080E-01 0.59313038E+03</pdfrwt>
<pdfrwt beam="2">  1       -2 0.12242731E+00 0.59313038E+03</pdfrwt>
<totfact> 0.21107392E+02</totfact>
</mgrwt>
</event>
<event>
 4    1  0.1869793E-005  0.5666413E+03  0.7818608E-02  0.9977139E-01
         -2   -1    0    0    0  501 -0.00000000000E+00  0.00000000000E+00  0.52291834108E+03  0.52291834108E+03  0.25500000000E-02 0. -1.
          2   -1    0    0  501    0  0.00000000000E+00 -0.00000000000E+00 -0.15350503737E+03  0.15350503739E+03  0.25500000000E-02 0.  1.
    5000001    1    1    2    0    0 -0.10745122249E+03  0.11367550478E+03  0.33665320045E+03  0.42119385439E+03  0.19900000000E+03 0.  0.
   -5000001    1    1    2    0    0  0.10745122249E+03 -0.11367550478E+03  0.32760103254E+02  0.25522952409E+03  0.19900000000E+03 0.  0.
<mgrwt>
<rscale>  0 0.56664133E+03</rscale>
<asrwt>0</asrwt>
<pdfrwt beam="1">  1        2 0.21929292E-01 0.56664133E+03</pdfrwt>
<pdfrwt beam="2">  1       -2 0.74702618E-01 0.56664133E+03</pdfrwt>
<totfact> 0.41485355E+02</totfact>
</mgrwt>
</event>
<event>
 4    1  0.1869793E-005  0.4694495E+03  0.7818608E-02  0.1022076E+00
         -2   -1    0    0    0  501 -0.00000000000E+00  0.00000000000E+00  0.10081326557E+03  0.10081326560E+03  0.25500000000E-02 0. -1.
          2   -1    0    0  501    0  0.00000000000E+00 -0.00000000000E+00 -0.54651257692E+03  0.54651257693E+03  0.25500000000E-02 0.  1.
    5000001    1    1    2    0    0 -0.45966501812E+02 -0.98192884433E+02 -0.13852253761E+03  0.26560168536E+03  0.19900000000E+03 0.  0.
   -5000001    1    1    2    0    0  0.45966501812E+02  0.98192884433E+02 -0.30717677374E+03  0.38172415717E+03  0.19900000000E+03 0.  0.
<mgrwt>
<rscale>  0 0.46944954E+03</rscale>
<asrwt>0</asrwt>
<pdfrwt beam="1">  1        2 0.78073224E-01 0.46944954E+03</pdfrwt>
<pdfrwt beam="2">  1       -2 0.14401895E-01 0.46944954E+03</pdfrwt>
<totfact> 0.22583962E+03</totfact>
</mgrwt>
</event>
<event>
 4    1  0.1869793E-005  0.5788672E+03  0.7818608E-02  0.9950246E-01
         -2   -1    0    0    0  501 -0.00000000000E+00  0.00000000000E+00  0.31482392920E+02  0.31482393023E+02  0.25500000000E-02 0. -1.
          2   -1    0    0  501    0  0.00000000000E+00 -0.00000000000E+00 -0.26609099651E+04  0.26609099652E+04  0.25500000000E-02 0.  1.
    5000001    1    1    2    0    0 -0.97303593200E+02  0.17255007010E+03 -0.16412654490E+04  0.16651110444E+04  0.19900000000E+03 0.  0.
   -5000001    1    1    2    0    0  0.97303593200E+02 -0.17255007010E+03 -0.98816212319E+03  0.10272813138E+04  0.19900000000E+03 0.  0.
<mgrwt>
<rscale>  0 0.57886722E+03</rscale>
<asrwt>0</asrwt>
<pdfrwt beam="1">  1        2 0.38012985E+00 0.57886722E+03</pdfrwt>
<pdfrwt beam="2">  1       -2 0.44974864E-02 0.57886722E+03</pdfrwt>
<totfact> 0.92538437E+02</totfact>
</mgrwt>
</event>
<event>
 4    1  0.1869793E-005  0.6419664E+03  0.7818608E-02  0.9821972E-01
         -2   -1    0    0    0  501 -0.00000000000E+00  0.00000000000E+00  0.95747605830E+02  0.95747605864E+02  0.25500000000E-02 0. -1.
          2   -1    0    0  501    0  0.00000000000E+00 -0.00000000000E+00 -0.10760605003E+04  0.10760605003E+04  0.25500000000E-02 0.  1.
    5000001    1    1    2    0    0 -0.20886710901E+03 -0.46073644680E+01 -0.23342149486E+03  0.37112436096E+03  0.19900000000E+03 0.  0.
   -5000001    1    1    2    0    0  0.20886710901E+03  0.46073644680E+01 -0.74689139963E+03  0.80068374523E+03  0.19900000000E+03 0.  0.
<mgrwt>
<rscale>  0 0.64196641E+03</rscale>
<asrwt>0</asrwt>
<pdfrwt beam="1">  1        2 0.15372292E+00 0.64196641E+03</pdfrwt>
<pdfrwt beam="2">  1       -2 0.13678230E-01 0.64196641E+03</pdfrwt>
<totfact> 0.10391574E+03</totfact>
</mgrwt>
</event>
<event>
 4    1  0.1869793E-005  0.4880638E+03  0.7818608E-02  0.1016942E+00
          2   -1    0    0  501    0  0.00000000000E+00  0.00000000000E+00  0.32570229654E+03  0.32570229655E+03  0.25500000000E-02 0.  1.
         -2   -1    0    0    0  501 -0.00000000000E+00 -0.00000000000E+00 -0.18284050176E+03  0.18284050178E+03  0.25500000000E-02 0. -1.
    5000001    1    1    2    0    0 -0.95627702725E+02 -0.94512112481E+02  0.11652951090E+03  0.26694067476E+03  0.19900000000E+03 0.  0.
   -5000001    1    1    2    0    0  0.95627702725E+02  0.94512112481E+02  0.26332283884E+02  0.24160212356E+03  0.19900000000E+03 0.  0.
<mgrwt>
<rscale>  0 0.48806381E+03</rscale>
<asrwt>0</asrwt>
<pdfrwt beam="1">  1        2 0.46528900E-01 0.48806381E+03</pdfrwt>
<pdfrwt beam="2">  1       -2 0.26120071E-01 0.48806381E+03</pdfrwt>
<totfact> 0.14357565E+03</totfact>
</mgrwt>
</event>
<event>
 4    1  0.1869793E-005  0.6864116E+03  0.7818608E-02  0.9740757E-01
          2   -1    0    0  501    0  0.00000000000E+00  0.00000000000E+00  0.71816181579E+03  0.71816181579E+03  0.25500000000E-02 0.  1.
         -2   -1    0    0    0  501 -0.00000000000E+00 -0.00000000000E+00 -0.16401625023E+03  0.16401625025E+03  0.25500000000E-02 0. -1.
    5000001    1    1    2    0    0 -0.18690881727E+03 -0.19542422587E+03  0.36852716854E+03  0.49853666664E+03  0.19900000000E+03 0.  0.
   -5000001    1    1    2    0    0  0.18690881727E+03  0.19542422587E+03  0.18561839701E+03  0.38364139941E+03  0.19900000000E+03 0.  0.
<mgrwt>
<rscale>  0 0.68641156E+03</rscale>
<asrwt>0</asrwt>
<pdfrwt beam="1">  1        2 0.10259455E+00 0.68641156E+03</pdfrwt>
<pdfrwt beam="2">  1       -2 0.23430893E-01 0.68641156E+03</pdfrwt>
<totfact> 0.70477978E+02</totfact>
</mgrwt>
</event>
<event>
 4    1  0.1869793E-005  0.5411223E+03  0.7818608E-02  0.1003570E+00
          2   -1    0    0  501    0  0.00000000000E+00  0.00000000000E+00  0.18207595828E+04  0.18207595828E+04  0.25500000000E-02 0.  1.
         -2   -1    0    0    0  501 -0.00000000000E+00 -0.00000000000E+00 -0.40204836308E+02  0.40204836389E+02  0.25500000000E-02 0. -1.
    5000001    1    1    2    0    0  0.74609709148E+02 -0.42071173730E+02  0.33291516920E+03  0.39720284773E+03  0.19900000000E+03 0.  0.
   -5000001    1    1    2    0    0 -0.74609709148E+02  0.42071173730E+02  0.14476395773E+04  0.14637615714E+04  0.19900000000E+03 0.  0.
<mgrwt>
<rscale>  0 0.54112232E+03</rscale>
<asrwt>0</asrwt>
<pdfrwt beam="1">  1        2 0.26010852E+00 0.54112232E+03</pdfrwt>
<pdfrwt beam="2">  1       -2 0.57435479E-02 0.54112232E+03</pdfrwt>
<totfact> 0.16899397E+03</totfact>
</mgrwt>
</event>
<event>
 4    1  0.1869793E-005  0.6182766E+03  0.7818608E-02  0.9868197E-01
          2   -1    0    0  501    0  0.00000000000E+00  0.00000000000E+00  0.97282868787E+03  0.97282868787E+03  0.25500000000E-02 0.  1.
         -2   -1    0    0    0  501 -0.00000000000E+00 -0.00000000000E+00 -0.98235674268E+02  0.98235674301E+02  0.25500000000E-02 0. -1.
    5000001    1    1    2    0    0  0.22043814758E+03  0.40425297472E+02  0.56852387489E+03  0.64268777637E+03  0.19900000000E+03 0.  0.
   -5000001    1    1    2    0    0 -0.22043814758E+03 -0.40425297472E+02  0.30606913871E+03  0.42837658580E+03  0.19900000000E+03 0.  0.
<mgrwt>
<rscale>  0 0.61827658E+03</rscale>
<asrwt>0</asrwt>
<pdfrwt beam="1">  1        2 0.13897553E+00 0.61827658E+03</pdfrwt>
<pdfrwt beam="2">  1       -2 0.14033668E-01 0.61827658E+03</pdfrwt>
<totfact> 0.11497691E+03</totfact>
</mgrwt>
</event>
<event>
 4    1  0.1869793E-005  0.5298385E+03  0.7818608E-02  0.1006271E+00
         -2   -1    0    0    0  501 -0.00000000000E+00  0.00000000000E+00  0.13151541367E+02  0.13151541614E+02  0.25500000000E-02 0. -1.
          2   -1    0    0  501    0  0.00000000000E+00 -0.00000000000E+00 -0.53364238773E+04  0.53364238774E+04  0.25500000000E-02 0.  1.
    5000001    1    1    2    0    0 -0.11931170865E+03  0.12432493151E+03 -0.23605558942E+04  0.23751878035E+04  0.19900000000E+03 0.  0.
   -5000001    1    1    2    0    0  0.11931170865E+03 -0.12432493151E+03 -0.29627164418E+04  0.29743876155E+04  0.19900000000E+03 0.  0.
<mgrwt>
<rscale>  0 0.52983847E+03</rscale>
<asrwt>0</asrwt>
<pdfrwt beam="1">  1        2 0.76234488E+00 0.52983847E+03</pdfrwt>
<pdfrwt beam="2">  1       -2 0.18787951E-02 0.52983847E+03</pdfrwt>
<totfact> 0.44114024E+01</totfact>
</mgrwt>
</event>
<event>
 4    1  0.1869793E-005  0.6714358E+03  0.7818608E-02  0.9767368E-01
          2   -1    0    0  501    0  0.00000000000E+00  0.00000000000E+00  0.54181079989E+03  0.54181079990E+03  0.25500000000E-02 0.  1.
         -2   -1    0    0    0  501 -0.00000000000E+00 -0.00000000000E+00 -0.20801819199E+03  0.20801819201E+03  0.25500000000E-02 0. -1.
    5000001    1    1    2    0    0  0.12490608518E+03 -0.19685981449E+03  0.31981498343E+03  0.44298751710E+03  0.19900000000E+03 0.  0.
   -5000001    1    1    2    0    0 -0.12490608518E+03  0.19685981449E+03  0.13977624465E+02  0.30684147481E+03  0.19900000000E+03 0.  0.
<mgrwt>
<rscale>  0 0.67143578E+03</rscale>
<asrwt>0</asrwt>
<pdfrwt beam="1">  1        2 0.77401542E-01 0.67143578E+03</pdfrwt>
<pdfrwt beam="2">  1       -2 0.29716885E-01 0.67143578E+03</pdfrwt>
<totfact> 0.64119284E+02</totfact>
</mgrwt>
</event>
<event>
 4    1  0.1869793E-005  0.6842944E+03  0.7818608E-02  0.9744474E-01
         -2   -1    0    0    0  501 -0.00000000000E+00  0.00000000000E+00  0.43431009298E+02  0.43431009373E+02  0.25500000000E-02 0. -1.
          2   -1    0    0  501    0  0.00000000000E+00 -0.00000000000E+00 -0.26954173259E+04  0.26954173259E+04  0.25500000000E-02 0.  1.
    5000001    1    1    2    0    0  0.16848085261E+03 -0.20213661333E+03 -0.96314390227E+03  0.10180826021E+04  0.19900000000E+03 0.  0.
   -5000001    1    1    2    0    0 -0.16848085261E+03  0.20213661333E+03 -0.16888424143E+04  0.17207657332E+04  0.19900000000E+03 0.  0.
<mgrwt>
<rscale>  0 0.68429437E+03</rscale>
<asrwt>0</asrwt>
<pdfrwt beam="1">  1        2 0.38505951E+00 0.68429437E+03</pdfrwt>
<pdfrwt beam="2">  1       -2 0.62044316E-02 0.68429437E+03</pdfrwt>
<totfact> 0.53320097E+02</totfact>
</mgrwt>
</event>
<event>
 4    1  0.1869793E-005  0.7080770E+03  0.7818608E-02  0.9703518E-01
         -2   -1    0    0    0  501 -0.00000000000E+00  0.00000000000E+00  0.53397019435E+03  0.53397019435E+03  0.25500000000E-02 0. -1.
          2   -1    0    0  501    0  0.00000000000E+00 -0.00000000000E+00 -0.23473827590E+03  0.23473827591E+03  0.25500000000E-02 0.  1.
    5000001    1    1    2    0    0  0.10594343991E+03  0.18585263745E+03  0.36667928716E+03  0.46884956536E+03  0.19900000000E+03 0.  0.
   -5000001    1    1    2    0    0 -0.10594343991E+03 -0.18585263745E+03 -0.67447368708E+02  0.29985890491E+03  0.19900000000E+03 0.  0.
<mgrwt>
<rscale>  0 0.70807695E+03</rscale>
<asrwt>0</asrwt>
<pdfrwt beam="1">  1        2 0.33534039E-01 0.70807695E+03</pdfrwt>
<pdfrwt beam="2">  1       -2 0.76281456E-01 0.70807695E+03</pdfrwt>
<totfact> 0.24358671E+02</totfact>
</mgrwt>
</event>
<event>
 4    1  0.1869793E-005  0.6105605E+03  0.7818608E-02  0.9883735E-01
          2   -1    0    0  501    0  0.00000000000E+00  0.00000000000E+00  0.10352055277E+04  0.10352055277E+04  0.25500000000E-02 0.  1.
         -2   -1    0    0    0  501 -0.00000000000E+00 -0.00000000000E+00 -0.90026584983E+02  0.90026585019E+02  0.25500000000E-02 0. -1.
    5000001    1    1    2    0    0 -0.15436111315E+03 -0.17188344050E+03  0.44502224390E+03  0.53945997806E+03  0.19900000000E+03 0.  0.
   -5000001    1    1    2    0    0  0.15436111315E+03  0.17188344050E+03  0.50015669882E+03  0.58577213466E+03  0.19900000000E+03 0.  0.
<mgrwt>
<rscale>  0 0.61056046E+03</rscale>
<asrwt>0</asrwt>
<pdfrwt beam="1">  1        2 0.14788650E+00 0.61056046E+03</pdfrwt>
<pdfrwt beam="2">  1       -2 0.12860941E-01 0.61056046E+03</pdfrwt>
<totfact> 0.12185127E+03</totfact>
</mgrwt>
</event>
<event>
 4    1  0.1869793E-005  0.1424043E+04  0.7818608E-02  0.8936597E-01
         -2   -1    0    0    0  501 -0.00000000000E+00  0.00000000000E+00  0.19691750562E+03  0.19691750563E+03  0.25500000000E-02 0. -1.
          2   -1    0    0  501    0  0.00000000000E+00 -0.00000000000E+00 -0.25745526332E+04  0.25745526332E+04  0.25500000000E-02 0.  1.
    5000001    1    1    2    0    0  0.67082056979E+03  0.13058102363E+03 -0.11539028449E+04  0.13557818468E+04  0.19900000000E+03 0.  0.
   -5000001    1    1    2    0    0 -0.67082056979E+03 -0.13058102363E+03 -0.12237322827E+04  0.14156882921E+04  0.19900000000E+03 0.  0.
<mgrwt>
<rscale>  0 0.14240428E+04</rscale>
<asrwt>0</asrwt>
<pdfrwt beam="1">  1        2 0.36779321E+00 0.14240428E+04</pdfrwt>
<pdfrwt beam="2">  1       -2 0.28131074E-01 0.14240428E+04</pdfrwt>
<totfact> 0.45356473E+01</totfact>
</mgrwt>
</event>
<event>
 4    1  0.1869793E-005  0.6418993E+03  0.7818608E-02  0.9822099E-01
          2   -1    0    0  501    0  0.00000000000E+00  0.00000000000E+00  0.11819151681E+04  0.11819151681E+04  0.25500000000E-02 0.  1.
         -2   -1    0    0    0  501 -0.00000000000E+00 -0.00000000000E+00 -0.87154034024E+02  0.87154034061E+02  0.25500000000E-02 0. -1.
    5000001    1    1    2    0    0  0.23119484578E+03  0.74565178249E+02  0.67847355705E+03  0.74762182294E+03  0.19900000000E+03 0.  0.
   -5000001    1    1    2    0    0 -0.23119484578E+03 -0.74565178249E+02  0.41628757706E+03  0.52144737926E+03  0.19900000000E+03 0.  0.
<mgrwt>
<rscale>  0 0.64189929E+03</rscale>
<asrwt>0</asrwt>
<pdfrwt beam="1">  1        2 0.16884502E+00 0.64189929E+03</pdfrwt>
<pdfrwt beam="2">  1       -2 0.12450577E-01 0.64189929E+03</pdfrwt>
<totfact> 0.10556324E+03</totfact>
</mgrwt>
</event>
<event>
 4    1  0.1869793E-005  0.5487196E+03  0.7818608E-02  0.1001791E+00
         -2   -1    0    0    0  501 -0.00000000000E+00  0.00000000000E+00  0.16879877346E+03  0.16879877348E+03  0.25500000000E-02 0. -1.
          2   -1    0    0  501    0  0.00000000000E+00 -0.00000000000E+00 -0.44593516502E+03  0.44593516503E+03  0.25500000000E-02 0.  1.
    5000001    1    1    2    0    0  0.83801987711E+02 -0.14673492698E+03 -0.44047307831E+02  0.26475474928E+03  0.19900000000E+03 0.  0.
   -5000001    1    1    2    0    0 -0.83801987711E+02  0.14673492698E+03 -0.23308908373E+03  0.34997918923E+03  0.19900000000E+03 0.  0.
<mgrwt>
<rscale>  0 0.54871963E+03</rscale>
<asrwt>0</asrwt>
<pdfrwt beam="1">  1        2 0.63705023E-01 0.54871963E+03</pdfrwt>
<pdfrwt beam="2">  1       -2 0.24114111E-01 0.54871963E+03</pdfrwt>
<totfact> 0.11708277E+03</totfact>
</mgrwt>
</event>
<event>
 4    1  0.1869793E-005  0.4706427E+03  0.7818608E-02  0.1021739E+00
         -2   -1    0    0    0  501 -0.00000000000E+00  0.00000000000E+00  0.45765382800E+02  0.45765382871E+02  0.25500000000E-02 0. -1.
          2   -1    0    0  501    0  0.00000000000E+00 -0.00000000000E+00 -0.12100006069E+04  0.12100006069E+04  0.25500000000E-02 0.  1.
    5000001    1    1    2    0    0 -0.10481849383E+03 -0.56475618395E+02 -0.68880296262E+03  0.72679222164E+03  0.19900000000E+03 0.  0.
   -5000001    1    1    2    0    0  0.10481849383E+03  0.56475618395E+02 -0.47543226153E+03  0.52897376818E+03  0.19900000000E+03 0.  0.
<mgrwt>
<rscale>  0 0.47064271E+03</rscale>
<asrwt>0</asrwt>
<pdfrwt beam="1">  1        2 0.17285721E+00 0.47064271E+03</pdfrwt>
<pdfrwt beam="2">  1       -2 0.65379126E-02 0.47064271E+03</pdfrwt>
<totfact> 0.28743506E+03</totfact>
</mgrwt>
</event>
<event>
 4    1  0.1869793E-005  0.5517572E+03  0.7818608E-02  0.1001088E+00
          2   -1    0    0  501    0  0.00000000000E+00  0.00000000000E+00  0.30213746562E+04  0.30213746562E+04  0.25500000000E-02 0.  1.
         -2   -1    0    0    0  501 -0.00000000000E+00 -0.00000000000E+00 -0.25190189424E+02  0.25190189553E+02  0.25500000000E-02 0. -1.
    5000001    1    1    2    0    0  0.45562138548E+02  0.18384490547E+03  0.16370276959E+04  0.16599203399E+04  0.19900000000E+03 0.  0.
   -5000001    1    1    2    0    0 -0.45562138548E+02 -0.18384490547E+03  0.13591567708E+04  0.13866445058E+04  0.19900000000E+03 0.  0.
<mgrwt>
<rscale>  0 0.55175719E+03</rscale>
<asrwt>0</asrwt>
<pdfrwt beam="1">  1        2 0.43162494E+00 0.55175719E+03</pdfrwt>
<pdfrwt beam="2">  1       -2 0.35985986E-02 0.55175719E+03</pdfrwt>
<totfact> 0.84008889E+02</totfact>
</mgrwt>
</event>
<event>
 4    1  0.1869793E-005  0.6448283E+03  0.7818608E-02  0.9816532E-01
          2   -1    0    0  501    0  0.00000000000E+00  0.00000000000E+00  0.19443900018E+03  0.19443900020E+03  0.25500000000E-02 0.  1.
         -2   -1    0    0    0  501 -0.00000000000E+00 -0.00000000000E+00 -0.53461948332E+03  0.53461948333E+03  0.25500000000E-02 0. -1.
    5000001    1    1    2    0    0  0.21075241400E+03  0.11722167450E+03 -0.81119547088E+02  0.32301529670E+03  0.19900000000E+03 0.  0.
   -5000001    1    1    2    0    0 -0.21075241400E+03 -0.11722167450E+03 -0.25906093605E+03  0.40604318683E+03  0.19900000000E+03 0.  0.
<mgrwt>
<rscale>  0 0.64482828E+03</rscale>
<asrwt>0</asrwt>
<pdfrwt beam="1">  1        2 0.27777000E-01 0.64482828E+03</pdfrwt>
<pdfrwt beam="2">  1       -2 0.76374211E-01 0.64482828E+03</pdfrwt>
<totfact> 0.30084806E+02</totfact>
</mgrwt>
</event>
<event>
 4    1  0.1869793E-005  0.5496739E+03  0.7818608E-02  0.1001569E+00
          2   -1    0    0  501    0  0.00000000000E+00  0.00000000000E+00  0.13940383453E+04  0.13940383453E+04  0.25500000000E-02 0.  1.
         -2   -1    0    0    0  501 -0.00000000000E+00 -0.00000000000E+00 -0.54184564678E+02  0.54184564738E+02  0.25500000000E-02 0. -1.
    5000001    1    1    2    0    0  0.14275152194E+03 -0.68821747361E+02  0.94398490608E+03  0.97766197268E+03  0.19900000000E+03 0.  0.
   -5000001    1    1    2    0    0 -0.14275152194E+03  0.68821747361E+02  0.39586887449E+03  0.47056093731E+03  0.19900000000E+03 0.  0.
<mgrwt>
<rscale>  0 0.54967394E+03</rscale>
<asrwt>0</asrwt>
<pdfrwt beam="1">  1        2 0.19914832E+00 0.54967394E+03</pdfrwt>
<pdfrwt beam="2">  1       -2 0.77406528E-02 0.54967394E+03</pdfrwt>
<totfact> 0.17496763E+03</totfact>
</mgrwt>
</event>
<event>
 4    1  0.1869793E-005  0.5506148E+03  0.7818608E-02  0.1001352E+00
          2   -1    0    0  501    0  0.00000000000E+00  0.00000000000E+00  0.90039843514E+02  0.90039843550E+02  0.25500000000E-02 0.  1.
         -2   -1    0    0    0  501 -0.00000000000E+00 -0.00000000000E+00 -0.84178460136E+03  0.84178460136E+03  0.25500000000E-02 0. -1.
    5000001    1    1    2    0    0 -0.34924802501E+02  0.15950696825E+03 -0.21065562113E+03  0.33262442103E+03  0.19900000000E+03 0.  0.
   -5000001    1    1    2    0    0  0.34924802501E+02 -0.15950696825E+03 -0.54108913672E+03  0.59920002388E+03  0.19900000000E+03 0.  0.
<mgrwt>
<rscale>  0 0.55061476E+03</rscale>
<asrwt>0</asrwt>
<pdfrwt beam="1">  1        2 0.12862835E-01 0.55061476E+03</pdfrwt>
<pdfrwt beam="2">  1       -2 0.12025494E+00 0.55061476E+03</pdfrwt>
<totfact> 0.25922829E+02</totfact>
</mgrwt>
</event>
<event>
 4    1  0.1869793E-005  0.4245149E+03  0.7818608E-02  0.1035607E+00
         -2   -1    0    0    0  501 -0.00000000000E+00  0.00000000000E+00  0.17448661214E+03  0.17448661216E+03  0.25500000000E-02 0. -1.
          2   -1    0    0  501    0  0.00000000000E+00 -0.00000000000E+00 -0.25820442555E+03  0.25820442556E+03  0.25500000000E-02 0.  1.
    5000001    1    1    2    0    0 -0.49811033699E+02 -0.51833960790E+02 -0.59045363003E+02  0.21967078427E+03  0.19900000000E+03 0.  0.
   -5000001    1    1    2    0    0  0.49811033699E+02  0.51833960790E+02 -0.24672450409E+02  0.21302025345E+03  0.19900000000E+03 0.  0.
<mgrwt>
<rscale>  0 0.42451485E+03</rscale>
<asrwt>0</asrwt>
<pdfrwt beam="1">  1        2 0.36886346E-01 0.42451485E+03</pdfrwt>
<pdfrwt beam="2">  1       -2 0.24926659E-01 0.42451485E+03</pdfrwt>
<totfact> 0.20113910E+03</totfact>
</mgrwt>
</event>
<event>
 4    1  0.1869793E-005  0.5298060E+03  0.7818608E-02  0.1006279E+00
          2   -1    0    0  501    0  0.00000000000E+00  0.00000000000E+00  0.95996147980E+03  0.95996147980E+03  0.25500000000E-02 0.  1.
         -2   -1    0    0    0  501 -0.00000000000E+00 -0.00000000000E+00 -0.73100429063E+02  0.73100429107E+02  0.25500000000E-02 0. -1.
    5000001    1    1    2    0    0 -0.43422395761E+02  0.16796130191E+03  0.40088486751E+03  0.48000643786E+03  0.19900000000E+03 0.  0.
   -5000001    1    1    2    0    0  0.43422395761E+02 -0.16796130191E+03  0.48597618323E+03  0.55305547105E+03  0.19900000000E+03 0.  0.
<mgrwt>
<rscale>  0 0.52980599E+03</rscale>
<asrwt>0</asrwt>
<pdfrwt beam="1">  1        2 0.13713735E+00 0.52980599E+03</pdfrwt>
<pdfrwt beam="2">  1       -2 0.10442919E-01 0.52980599E+03</pdfrwt>
<totfact> 0.19076437E+03</totfact>
</mgrwt>
</event>
<event>
 4    1  0.1869793E-005  0.4698303E+03  0.7818608E-02  0.1021968E+00
          2   -1    0    0  501    0  0.00000000000E+00  0.00000000000E+00  0.84637629988E+03  0.84637629989E+03  0.25500000000E-02 0.  1.
         -2   -1    0    0    0  501 -0.00000000000E+00 -0.00000000000E+00 -0.65201639770E+02  0.65201639820E+02  0.25500000000E-02 0. -1.
    5000001    1    1    2    0    0 -0.96774064623E+02 -0.37712417626E+02  0.52496373713E+03  0.57094252892E+03  0.19900000000E+03 0.  0.
   -5000001    1    1    2    0    0  0.96774064623E+02  0.37712417626E+02  0.25621092299E+03  0.34063541079E+03  0.19900000000E+03 0.  0.
<mgrwt>
<rscale>  0 0.46983028E+03</rscale>
<asrwt>0</asrwt>
<pdfrwt beam="1">  1        2 0.12091090E+00 0.46983028E+03</pdfrwt>
<pdfrwt beam="2">  1       -2 0.93145203E-02 0.46983028E+03</pdfrwt>
<totfact> 0.27119903E+03</totfact>
</mgrwt>
</event>
<event>
 4    1  0.1869793E-005  0.5293079E+03  0.7818608E-02  0.1006400E+00
         -2   -1    0    0    0  501 -0.00000000000E+00  0.00000000000E+00  0.48394820651E+03  0.48394820652E+03  0.25500000000E-02 0. -1.
          2   -1    0    0  501    0  0.00000000000E+00 -0.00000000000E+00 -0.14472975099E+03  0.14472975101E+03  0.25500000000E-02 0.  1.
    5000001    1    1    2    0    0  0.71330157767E+02  0.15775121356E+03  0.14393471105E+03  0.30048566993E+03  0.19900000000E+03 0.  0.
   -5000001    1    1    2    0    0 -0.71330157767E+02 -0.15775121356E+03  0.19528374447E+03  0.32819228760E+03  0.19900000000E+03 0.  0.
<mgrwt>
<rscale>  0 0.52930786E+03</rscale>
<asrwt>0</asrwt>
<pdfrwt beam="1">  1        2 0.20675679E-01 0.52930786E+03</pdfrwt>
<pdfrwt beam="2">  1       -2 0.69135458E-01 0.52930786E+03</pdfrwt>
<totfact> 0.52623963E+02</totfact>
</mgrwt>
</event>
<event>
 4    1  0.1869793E-005  0.5653592E+03  0.7818608E-02  0.9980001E-01
         -2   -1    0    0    0  501 -0.00000000000E+00  0.00000000000E+00  0.16649062655E+03  0.16649062657E+03  0.25500000000E-02 0.  1.
          2   -1    0    0  501    0  0.00000000000E+00 -0.00000000000E+00 -0.47995349988E+03  0.47995349988E+03  0.25500000000E-02 0. -1.
    5000001    1    1    2    0    0 -0.18572954903E+03  0.74978395197E+02 -0.17247307183E+03  0.33085523365E+03  0.19900000000E+03 0.  0.
   -5000001    1    1    2    0    0  0.18572954903E+03 -0.74978395197E+02 -0.14098980150E+03  0.31558889280E+03  0.19900000000E+03 0.  0.
<mgrwt>
<rscale>  0 0.56535921E+03</rscale>
<asrwt>0</asrwt>
<pdfrwt beam="1">  1        2 0.68564785E-01 0.56535921E+03</pdfrwt>
<pdfrwt beam="2">  1       -2 0.23784375E-01 0.56535921E+03</pdfrwt>
<totfact> 0.11046773E+03</totfact>
</mgrwt>
</event>
<event>
 4    1  0.1869793E-005  0.1188545E+04  0.7818608E-02  0.9122943E-01
          2   -1    0    0  501    0  0.00000000000E+00  0.00000000000E+00  0.94561224655E+03  0.94561224655E+03  0.25500000000E-02 0.  1.
         -2   -1    0    0    0  501 -0.00000000000E+00 -0.00000000000E+00 -0.37347194353E+03  0.37347194353E+03  0.25500000000E-02 0. -1.
    5000001    1    1    2    0    0  0.24599691338E+02  0.54310065696E+03  0.43494969333E+03  0.72411718950E+03  0.19900000000E+03 0.  0.
   -5000001    1    1    2    0    0 -0.24599691338E+02 -0.54310065696E+03  0.13719060970E+03  0.59496700059E+03  0.19900000000E+03 0.  0.
<mgrwt>
<rscale>  0 0.11885447E+04</rscale>
<asrwt>0</asrwt>
<pdfrwt beam="1">  1        2 0.13508746E+00 0.11885447E+04</pdfrwt>
<pdfrwt beam="2">  1       -2 0.53353135E-01 0.11885447E+04</pdfrwt>
<totfact> 0.99383596E+01</totfact>
</mgrwt>
</event>
<event>
 4    1  0.1869793E-005  0.5662148E+03  0.7818608E-02  0.9978090E-01
          2   -1    0    0  501    0  0.00000000000E+00  0.00000000000E+00  0.57664450868E+02  0.57664450925E+02  0.25500000000E-02 0.  1.
         -2   -1    0    0    0  501 -0.00000000000E+00 -0.00000000000E+00 -0.13899345459E+04  0.13899345459E+04  0.25500000000E-02 0. -1.
    5000001    1    1    2    0    0  0.17405770919E+03  0.88628071434E+02 -0.54094416420E+03  0.60858245946E+03  0.19900000000E+03 0.  0.
   -5000001    1    1    2    0    0 -0.17405770919E+03 -0.88628071434E+02 -0.79132593078E+03  0.83901653732E+03  0.19900000000E+03 0.  0.
<mgrwt>
<rscale>  0 0.56621484E+03</rscale>
<asrwt>0</asrwt>
<pdfrwt beam="1">  1        2 0.82377796E-02 0.56621484E+03</pdfrwt>
<pdfrwt beam="2">  1       -2 0.19856206E+00 0.56621484E+03</pdfrwt>
<totfact> 0.11900154E+02</totfact>
</mgrwt>
</event>
<event>
 4    1  0.1869793E-005  0.5523149E+03  0.7818608E-02  0.1000960E+00
         -2   -1    0    0    0  501 -0.00000000000E+00  0.00000000000E+00  0.70850237789E+02  0.70850237835E+02  0.25500000000E-02 0. -1.
          2   -1    0    0  501    0  0.00000000000E+00 -0.00000000000E+00 -0.10763963597E+04  0.10763963597E+04  0.25500000000E-02 0.  1.
    5000001    1    1    2    0    0  0.14674580213E+03  0.25362030050E+02 -0.75276148420E+03  0.79273476971E+03  0.19900000000E+03 0.  0.
   -5000001    1    1    2    0    0 -0.14674580213E+03 -0.25362030050E+02 -0.25278463774E+03  0.35451182785E+03  0.19900000000E+03 0.  0.
<mgrwt>
<rscale>  0 0.55231490E+03</rscale>
<asrwt>0</asrwt>
<pdfrwt beam="1">  1        2 0.15377090E+00 0.55231490E+03</pdfrwt>
<pdfrwt beam="2">  1       -2 0.10121463E-01 0.55231490E+03</pdfrwt>
<totfact> 0.17072714E+03</totfact>
</mgrwt>
</event>
<event>
 4    1  0.1869793E-005  0.4555184E+03  0.7818608E-02  0.1026089E+00
         -2   -1    0    0    0  501 -0.00000000000E+00  0.00000000000E+00  0.29577586320E+02  0.29577586430E+02  0.25500000000E-02 0. -1.
          2   -1    0    0  501    0  0.00000000000E+00 -0.00000000000E+00 -0.17538363176E+04  0.17538363176E+04  0.25500000000E-02 0.  1.
    5000001    1    1    2    0    0  0.99624665515E+02  0.37880455684E+01 -0.10512679411E+04  0.10745718716E+04  0.19900000000E+03 0.  0.
   -5000001    1    1    2    0    0 -0.99624665515E+02 -0.37880455684E+01 -0.67299079027E+03  0.70884203252E+03  0.19900000000E+03 0.  0.
<mgrwt>
<rscale>  0 0.45551836E+03</rscale>
<asrwt>0</asrwt>
<pdfrwt beam="1">  1        2 0.25054798E+00 0.45551836E+03</pdfrwt>
<pdfrwt beam="2">  1       -2 0.42253706E-02 0.45551836E+03</pdfrwt>
<totfact> 0.29406121E+03</totfact>
</mgrwt>
</event>
<event>
 4    1  0.1869793E-005  0.7853539E+03  0.7818608E-02  0.9581462E-01
         -2   -1    0    0    0  501 -0.00000000000E+00  0.00000000000E+00  0.84435621626E+02  0.84435621664E+02  0.25500000000E-02 0. -1.
          2   -1    0    0  501    0  0.00000000000E+00 -0.00000000000E+00 -0.18261862279E+04  0.18261862279E+04  0.25500000000E-02 0.  1.
    5000001    1    1    2    0    0  0.27579378720E+03  0.54488127249E+02 -0.13296596131E+04  0.13735453599E+04  0.19900000000E+03 0.  0.
   -5000001    1    1    2    0    0 -0.27579378720E+03 -0.54488127249E+02 -0.41209099319E+03  0.53707648966E+03  0.19900000000E+03 0.  0.
<mgrwt>
<rscale>  0 0.78535386E+03</rscale>
<asrwt>0</asrwt>
<pdfrwt beam="1">  1        2 0.26088372E+00 0.78535386E+03</pdfrwt>
<pdfrwt beam="2">  1       -2 0.12062233E-01 0.78535386E+03</pdfrwt>
<totfact> 0.50466318E+02</totfact>
</mgrwt>
</event>
<event>
 4    1  0.1869793E-005  0.4553370E+03  0.7818608E-02  0.1026142E+00
          2   -1    0    0  501    0  0.00000000000E+00  0.00000000000E+00  0.78145150816E+03  0.78145150816E+03  0.25500000000E-02 0.  1.
         -2   -1    0    0    0  501 -0.00000000000E+00 -0.00000000000E+00 -0.66329060473E+02  0.66329060522E+02  0.25500000000E-02 0. -1.
    5000001    1    1    2    0    0 -0.29769042016E+02 -0.99739887815E+02  0.42716904101E+03  0.48260608231E+03  0.19900000000E+03 0.  0.
   -5000001    1    1    2    0    0  0.29769042016E+02  0.99739887815E+02  0.28795340668E+03  0.36517448638E+03  0.19900000000E+03 0.  0.
<mgrwt>
<rscale>  0 0.45533699E+03</rscale>
<asrwt>0</asrwt>
<pdfrwt beam="1">  1        2 0.11163593E+00 0.45533699E+03</pdfrwt>
<pdfrwt beam="2">  1       -2 0.94755802E-02 0.45533699E+03</pdfrwt>
<totfact> 0.29200342E+03</totfact>
</mgrwt>
</event>
<event>
 4    1  0.1869793E-005  0.5069073E+03  0.7818608E-02  0.1011992E+00
         -2   -1    0    0    0  501 -0.00000000000E+00  0.00000000000E+00  0.27767788062E+02  0.27767788179E+02  0.25500000000E-02 0. -1.
          2   -1    0    0  501    0  0.00000000000E+00 -0.00000000000E+00 -0.23134269030E+04  0.23134269030E+04  0.25500000000E-02 0.  1.
    5000001    1    1    2    0    0  0.14085059581E+03  0.69209456287E+02 -0.11566150070E+04  0.11840557899E+04  0.19900000000E+03 0.  0.
   -5000001    1    1    2    0    0 -0.14085059581E+03 -0.69209456287E+02 -0.11290441079E+04  0.11571389013E+04  0.19900000000E+03 0.  0.
<mgrwt>
<rscale>  0 0.50690728E+03</rscale>
<asrwt>0</asrwt>
<pdfrwt beam="1">  1        2 0.33048943E+00 0.50690728E+03</pdfrwt>
<pdfrwt beam="2">  1       -2 0.39668284E-02 0.50690728E+03</pdfrwt>
<totfact> 0.16978762E+03</totfact>
</mgrwt>
</event>
<event>
 4    1  0.1869793E-005  0.5966681E+03  0.7818608E-02  0.9912343E-01
          2   -1    0    0  501    0  0.00000000000E+00  0.00000000000E+00  0.12464067259E+04  0.12464067259E+04  0.25500000000E-02 0.  1.
         -2   -1    0    0    0  501 -0.00000000000E+00 -0.00000000000E+00 -0.71407835594E+02  0.71407835640E+02  0.25500000000E-02 0. -1.
    5000001    1    1    2    0    0  0.20983491777E+03 -0.72815418662E+02  0.56909634692E+03  0.64249858364E+03  0.19900000000E+03 0.  0.
   -5000001    1    1    2    0    0 -0.20983491777E+03  0.72815418662E+02  0.60590254335E+03  0.67531597785E+03  0.19900000000E+03 0.  0.
<mgrwt>
<rscale>  0 0.59666810E+03</rscale>
<asrwt>0</asrwt>
<pdfrwt beam="1">  1        2 0.17805809E+00 0.59666810E+03</pdfrwt>
<pdfrwt beam="2">  1       -2 0.10201120E-01 0.59666810E+03</pdfrwt>
<totfact> 0.13485031E+03</totfact>
</mgrwt>
</event>
<event>
 4    1  0.1869793E-005  0.5606913E+03  0.7818608E-02  0.9990492E-01
         -2   -1    0    0    0  501 -0.00000000000E+00  0.00000000000E+00  0.27841148385E+02  0.27841148502E+02  0.25500000000E-02 0. -1.
          2   -1    0    0  501    0  0.00000000000E+00 -0.00000000000E+00 -0.28229323236E+04  0.28229323236E+04  0.25500000000E-02 0.  1.
    5000001    1    1    2    0    0 -0.19635599440E+03 -0.18816297855E+02 -0.14438521523E+04  0.14707888249E+04  0.19900000000E+03 0.  0.
   -5000001    1    1    2    0    0  0.19635599440E+03  0.18816297855E+02 -0.13512390229E+04  0.13799846472E+04  0.19900000000E+03 0.  0.
<mgrwt>
<rscale>  0 0.56069128E+03</rscale>
<asrwt>0</asrwt>
<pdfrwt beam="1">  1        2 0.40327586E+00 0.56069128E+03</pdfrwt>
<pdfrwt beam="2">  1       -2 0.39773087E-02 0.56069128E+03</pdfrwt>
<totfact> 0.92048817E+02</totfact>
</mgrwt>
</event>
<event>
 4    1  0.1869793E-005  0.1095808E+04  0.7818608E-02  0.9209287E-01
          2   -1    0    0  501    0  0.00000000000E+00  0.00000000000E+00  0.16598297543E+04  0.16598297543E+04  0.25500000000E-02 0.  1.
         -2   -1    0    0    0  501 -0.00000000000E+00 -0.00000000000E+00 -0.18086115844E+03  0.18086115846E+03  0.25500000000E-02 0. -1.
    5000001    1    1    2    0    0  0.35360220050E+03  0.35376526121E+03  0.56807206880E+03  0.78261820295E+03  0.19900000000E+03 0.  0.
   -5000001    1    1    2    0    0 -0.35360220050E+03 -0.35376526121E+03  0.91089652711E+03  0.10580727099E+04  0.19900000000E+03 0.  0.
<mgrwt>
<rscale>  0 0.10958079E+04</rscale>
<asrwt>0</asrwt>
<pdfrwt beam="1">  1        2 0.23711854E+00 0.10958079E+04</pdfrwt>
<pdfrwt beam="2">  1       -2 0.25837308E-01 0.10958079E+04</pdfrwt>
<totfact> 0.16131031E+02</totfact>
</mgrwt>
</event>
<event>
 4    1  0.1869793E-005  0.5533782E+03  0.7818608E-02  0.1000715E+00
         -2   -1    0    0    0  501 -0.00000000000E+00  0.00000000000E+00  0.41590078584E+02  0.41590078662E+02  0.25500000000E-02 0. -1.
          2   -1    0    0  501    0  0.00000000000E+00 -0.00000000000E+00 -0.18407478220E+04  0.18407478220E+04  0.25500000000E-02 0.  1.
    5000001    1    1    2    0    0  0.58255338098E+02  0.18137831267E+03 -0.81192270440E+03  0.85738629255E+03  0.19900000000E+03 0.  0.
   -5000001    1    1    2    0    0 -0.58255338098E+02 -0.18137831267E+03 -0.98723503906E+03  0.10249516082E+04  0.19900000000E+03 0.  0.
<mgrwt>
<rscale>  0 0.55337816E+03</rscale>
<asrwt>0</asrwt>
<pdfrwt beam="1">  1        2 0.26296392E+00 0.55337816E+03</pdfrwt>
<pdfrwt beam="2">  1       -2 0.59414410E-02 0.55337816E+03</pdfrwt>
<totfact> 0.15654821E+03</totfact>
</mgrwt>
</event>
<event>
 4    1  0.1869793E-005  0.7271607E+03  0.7818608E-02  0.9671879E-01
          2   -1    0    0  501    0  0.00000000000E+00  0.00000000000E+00  0.10926150628E+04  0.10926150628E+04  0.25500000000E-02 0.  1.
         -2   -1    0    0    0  501 -0.00000000000E+00 -0.00000000000E+00 -0.12098558086E+03  0.12098558089E+03  0.25500000000E-02 0. -1.
    5000001    1    1    2    0    0 -0.28197843126E+02  0.24480766793E+03  0.18789870294E+03  0.36828363417E+03  0.19900000000E+03 0.  0.
   -5000001    1    1    2    0    0  0.28197843126E+02 -0.24480766793E+03  0.78373077898E+03  0.84531700950E+03  0.19900000000E+03 0.  0.
<mgrwt>
<rscale>  0 0.72716069E+03</rscale>
<asrwt>0</asrwt>
<pdfrwt beam="1">  1        2 0.15608787E+00 0.72716069E+03</pdfrwt>
<pdfrwt beam="2">  1       -2 0.17283654E-01 0.72716069E+03</pdfrwt>
<totfact> 0.68197659E+02</totfact>
</mgrwt>
</event>
<event>
 4    1  0.1869793E-005  0.7188282E+03  0.7818608E-02  0.9685564E-01
          2   -1    0    0  501    0  0.00000000000E+00  0.00000000000E+00  0.34454304145E+04  0.34454304145E+04  0.25500000000E-02 0.  1.
         -2   -1    0    0    0  501 -0.00000000000E+00 -0.00000000000E+00 -0.37492697723E+02  0.37492697810E+02  0.25500000000E-02 0. -1.
    5000001    1    1    2    0    0  0.73609257499E+02 -0.27550169753E+03  0.12636619132E+04  0.13106341744E+04  0.19900000000E+03 0.  0.
   -5000001    1    1    2    0    0 -0.73609257499E+02  0.27550169753E+03  0.21442758035E+04  0.21722889379E+04  0.19900000000E+03 0.  0.
<mgrwt>
<rscale>  0 0.71882816E+03</rscale>
<asrwt>0</asrwt>
<pdfrwt beam="1">  1        2 0.49220447E+00 0.71882816E+03</pdfrwt>
<pdfrwt beam="2">  1       -2 0.53560983E-02 0.71882816E+03</pdfrwt>
<totfact> 0.25694234E+02</totfact>
</mgrwt>
</event>
<event>
 4    1  0.1869793E-005  0.5081180E+03  0.7818608E-02  0.1011681E+00
         -2   -1    0    0    0  501 -0.00000000000E+00  0.00000000000E+00  0.69006683130E+03  0.69006683130E+03  0.25500000000E-02 0. -1.
          2   -1    0    0  501    0  0.00000000000E+00 -0.00000000000E+00 -0.93535819219E+02  0.93535819254E+02  0.25500000000E-02 0.  1.
    5000001    1    1    2    0    0  0.46483483410E+02  0.14291815479E+03  0.37316232829E+03  0.44881782101E+03  0.19900000000E+03 0.  0.
   -5000001    1    1    2    0    0 -0.46483483410E+02 -0.14291815479E+03  0.22336868378E+03  0.33478482955E+03  0.19900000000E+03 0.  0.
<mgrwt>
<rscale>  0 0.50811796E+03</rscale>
<asrwt>0</asrwt>
<pdfrwt beam="1">  1        2 0.13362260E-01 0.50811796E+03</pdfrwt>
<pdfrwt beam="2">  1       -2 0.98580973E-01 0.50811796E+03</pdfrwt>
<totfact> 0.39894655E+02</totfact>
</mgrwt>
</event>
<event>
 4    1  0.1869793E-005  0.5165691E+03  0.7818608E-02  0.1009542E+00
         -2   -1    0    0    0  501 -0.00000000000E+00  0.00000000000E+00  0.42610863642E+02  0.42610863718E+02  0.25500000000E-02 0. -1.
          2   -1    0    0  501    0  0.00000000000E+00 -0.00000000000E+00 -0.15655845028E+04  0.15655845028E+04  0.25500000000E-02 0.  1.
    5000001    1    1    2    0    0 -0.97842737946E+02 -0.12584745766E+03 -0.88981525665E+03  0.92562572076E+03  0.19900000000E+03 0.  0.
   -5000001    1    1    2    0    0  0.97842737946E+02  0.12584745766E+03 -0.63315838248E+03  0.68256964573E+03  0.19900000000E+03 0.  0.
<mgrwt>
<rscale>  0 0.51656910E+03</rscale>
<asrwt>0</asrwt>
<pdfrwt beam="1">  1        2 0.22365489E+00 0.51656910E+03</pdfrwt>
<pdfrwt beam="2">  1       -2 0.60872672E-02 0.51656910E+03</pdfrwt>
<totfact> 0.20808297E+03</totfact>
</mgrwt>
</event>
<event>
 4    1  0.1869793E-005  0.7063341E+03  0.7818608E-02  0.9706461E-01
          2   -1    0    0  501    0  0.00000000000E+00  0.00000000000E+00  0.15084838086E+04  0.15084838086E+04  0.25500000000E-02 0.  1.
         -2   -1    0    0    0  501 -0.00000000000E+00 -0.00000000000E+00 -0.82683656554E+02  0.82683656593E+02  0.25500000000E-02 0. -1.
    5000001    1    1    2    0    0  0.14098012303E+03 -0.95320060813E+02  0.12467722086E+04  0.12739714475E+04  0.19900000000E+03 0.  0.
   -5000001    1    1    2    0    0 -0.14098012303E+03  0.95320060813E+02  0.17902794352E+03  0.31719601770E+03  0.19900000000E+03 0.  0.
<mgrwt>
<rscale>  0 0.70633408E+03</rscale>
<asrwt>0</asrwt>
<pdfrwt beam="1">  1        2 0.21549768E+00 0.70633408E+03</pdfrwt>
<pdfrwt beam="2">  1       -2 0.11811951E-01 0.70633408E+03</pdfrwt>
<totfact> 0.76452962E+02</totfact>
</mgrwt>
</event>
<event>
 4    1  0.1869793E-005  0.6086387E+03  0.7818608E-02  0.9887644E-01
         -2   -1    0    0    0  501 -0.00000000000E+00  0.00000000000E+00  0.10706677984E+03  0.10706677987E+03  0.25500000000E-02 0. -1.
          2   -1    0    0  501    0  0.00000000000E+00 -0.00000000000E+00 -0.86497681205E+03  0.86497681206E+03  0.25500000000E-02 0.  1.
    5000001    1    1    2    0    0 -0.19971214270E+03  0.69504710652E+02 -0.23351181575E+03  0.37261858896E+03  0.19900000000E+03 0.  0.
   -5000001    1    1    2    0    0  0.19971214270E+03 -0.69504710652E+02 -0.52439821646E+03  0.59942500296E+03  0.19900000000E+03 0.  0.
<mgrwt>
<rscale>  0 0.60863875E+03</rscale>
<asrwt>0</asrwt>
<pdfrwt beam="1">  1        2 0.12356811E+00 0.60863875E+03</pdfrwt>
<pdfrwt beam="2">  1       -2 0.15295255E-01 0.60863875E+03</pdfrwt>
<totfact> 0.11662807E+03</totfact>
</mgrwt>
</event>
<event>
 4    1  0.1869793E-005  0.6195368E+03  0.7818608E-02  0.9865682E-01
         -2   -1    0    0    0  501 -0.00000000000E+00  0.00000000000E+00  0.89094797949E+02  0.89094797986E+02  0.25500000000E-02 0. -1.
          2   -1    0    0  501    0  0.00000000000E+00 -0.00000000000E+00 -0.10770154211E+04  0.10770154211E+04  0.25500000000E-02 0.  1.
    5000001    1    1    2    0    0  0.86941248503E+02 -0.15847233978E+03 -0.20429750294E+03  0.33765475396E+03  0.19900000000E+03 0.  0.
   -5000001    1    1    2    0    0 -0.86941248503E+02  0.15847233978E+03 -0.78362312019E+03  0.82845546511E+03  0.19900000000E+03 0.  0.
<mgrwt>
<rscale>  0 0.61953683E+03</rscale>
<asrwt>0</asrwt>
<pdfrwt beam="1">  1        2 0.15385934E+00 0.61953683E+03</pdfrwt>
<pdfrwt beam="2">  1       -2 0.12727829E-01 0.61953683E+03</pdfrwt>
<totfact> 0.11705809E+03</totfact>
</mgrwt>
</event>
<event>
 4    1  0.1869793E-005  0.5510174E+03  0.7818608E-02  0.1001259E+00
         -2   -1    0    0    0  501 -0.00000000000E+00  0.00000000000E+00  0.11364580489E+03  0.11364580492E+03  0.25500000000E-02 0. -1.
          2   -1    0    0  501    0  0.00000000000E+00 -0.00000000000E+00 -0.66790887876E+03  0.66790887877E+03  0.25500000000E-02 0.  1.
    5000001    1    1    2    0    0 -0.13540001879E+03  0.13225885204E+03 -0.30815732531E+03  0.41278021534E+03  0.19900000000E+03 0.  0.
   -5000001    1    1    2    0    0  0.13540001879E+03 -0.13225885204E+03 -0.24610574856E+03  0.36877446835E+03  0.19900000000E+03 0.  0.
<mgrwt>
<rscale>  0 0.55101739E+03</rscale>
<asrwt>0</asrwt>
<pdfrwt beam="1">  1        2 0.95415552E-01 0.55101739E+03</pdfrwt>
<pdfrwt beam="2">  1       -2 0.16235115E-01 0.55101739E+03</pdfrwt>
<totfact> 0.14599668E+03</totfact>
</mgrwt>
</event>
<event>
 4    1  0.1869793E-005  0.9015482E+03  0.7818608E-02  0.9423648E-01
          2   -1    0    0  501    0  0.00000000000E+00  0.00000000000E+00  0.92605044153E+03  0.92605044153E+03  0.25500000000E-02 0.  1.
         -2   -1    0    0    0  501 -0.00000000000E+00 -0.00000000000E+00 -0.21942354853E+03  0.21942354854E+03  0.25500000000E-02 0. -1.
    5000001    1    1    2    0    0 -0.24542220002E+03  0.54145212640E+02  0.75596878757E+03  0.82112944661E+03  0.19900000000E+03 0.  0.
   -5000001    1    1    2    0    0  0.24542220002E+03 -0.54145212640E+02 -0.49341894569E+02  0.32434454346E+03  0.19900000000E+03 0.  0.
<mgrwt>
<rscale>  0 0.90154817E+03</rscale>
<asrwt>0</asrwt>
<pdfrwt beam="1">  1        2 0.13229292E+00 0.90154817E+03</pdfrwt>
<pdfrwt beam="2">  1       -2 0.31346221E-01 0.90154817E+03</pdfrwt>
<totfact> 0.29527665E+02</totfact>
</mgrwt>
</event>
<event>
 4    1  0.1869793E-005  0.5669800E+03  0.7818608E-02  0.9976384E-01
          2   -1    0    0  501    0  0.00000000000E+00  0.00000000000E+00  0.13342536932E+04  0.13342536932E+04  0.25500000000E-02 0.  1.
         -2   -1    0    0    0  501 -0.00000000000E+00 -0.00000000000E+00 -0.60233351941E+02  0.60233351995E+02  0.25500000000E-02 0. -1.
    5000001    1    1    2    0    0  0.14993950795E+03 -0.11375681237E+03  0.45722926005E+03  0.53299349400E+03  0.19900000000E+03 0.  0.
   -5000001    1    1    2    0    0 -0.14993950795E+03  0.11375681237E+03  0.81679108126E+03  0.86149355124E+03  0.19900000000E+03 0.  0.
<mgrwt>
<rscale>  0 0.56697997E+03</rscale>
<asrwt>0</asrwt>
<pdfrwt beam="1">  1        2 0.19060763E+00 0.56697997E+03</pdfrwt>
<pdfrwt beam="2">  1       -2 0.86047663E-02 0.56697997E+03</pdfrwt>
<totfact> 0.15901657E+03</totfact>
</mgrwt>
</event>
<event>
 4    1  0.1869793E-005  0.6529976E+03  0.7818608E-02  0.9801171E-01
          2   -1    0    0  501    0  0.00000000000E+00  0.00000000000E+00  0.77606095803E+03  0.77606095804E+03  0.25500000000E-02 0.  1.
         -2   -1    0    0    0  501 -0.00000000000E+00 -0.00000000000E+00 -0.13736221399E+03  0.13736221402E+03  0.25500000000E-02 0. -1.
    5000001    1    1    2    0    0 -0.21474834716E+03  0.14132630544E+03  0.36155732484E+03  0.48622492363E+03  0.19900000000E+03 0.  0.
   -5000001    1    1    2    0    0  0.21474834716E+03 -0.14132630544E+03  0.27714141920E+03  0.42719824842E+03  0.19900000000E+03 0.  0.
<mgrwt>
<rscale>  0 0.65299755E+03</rscale>
<asrwt>0</asrwt>
<pdfrwt beam="1">  1        2 0.11086586E+00 0.65299755E+03</pdfrwt>
<pdfrwt beam="2">  1       -2 0.19623172E-01 0.65299755E+03</pdfrwt>
<totfact> 0.87475692E+02</totfact>
</mgrwt>
</event>
<event>
 4    1  0.1869793E-005  0.6106351E+03  0.7818608E-02  0.9883584E-01
         -2   -1    0    0    0  501 -0.00000000000E+00  0.00000000000E+00  0.97669567661E+02  0.97669567694E+02  0.25500000000E-02 0. -1.
          2   -1    0    0  501    0  0.00000000000E+00 -0.00000000000E+00 -0.95443030796E+03  0.95443030797E+03  0.25500000000E-02 0.  1.
    5000001    1    1    2    0    0  0.18425145296E+03 -0.13107709927E+03 -0.34243951066E+03  0.45606537068E+03  0.19900000000E+03 0.  0.
   -5000001    1    1    2    0    0 -0.18425145296E+03  0.13107709927E+03 -0.51432122964E+03  0.59603450498E+03  0.19900000000E+03 0.  0.
<mgrwt>
<rscale>  0 0.61063506E+03</rscale>
<asrwt>0</asrwt>
<pdfrwt beam="1">  1        2 0.13634718E+00 0.61063506E+03</pdfrwt>
<pdfrwt beam="2">  1       -2 0.13952796E-01 0.61063506E+03</pdfrwt>
<totfact> 0.11921347E+03</totfact>
</mgrwt>
</event>
<event>
 4    1  0.1869793E-005  0.4504728E+03  0.7818608E-02  0.1027581E+00
         -2   -1    0    0    0  501 -0.00000000000E+00  0.00000000000E+00  0.38472115589E+02  0.38472115674E+02  0.25500000000E-02 0. -1.
          2   -1    0    0  501    0  0.00000000000E+00 -0.00000000000E+00 -0.13186545550E+04  0.13186545550E+04  0.25500000000E-02 0.  1.
    5000001    1    1    2    0    0 -0.87301623684E+02  0.57966051312E+02 -0.60334231287E+03  0.64389796017E+03  0.19900000000E+03 0.  0.
   -5000001    1    1    2    0    0  0.87301623684E+02 -0.57966051312E+02 -0.67684012652E+03  0.71322871049E+03  0.19900000000E+03 0.  0.
<mgrwt>
<rscale>  0 0.45047278E+03</rscale>
<asrwt>0</asrwt>
<pdfrwt beam="1">  1        2 0.18837919E+00 0.45047278E+03</pdfrwt>
<pdfrwt beam="2">  1       -2 0.54960173E-02 0.45047278E+03</pdfrwt>
<totfact> 0.32867090E+03</totfact>
</mgrwt>
</event>
<event>
 4    1  0.1869793E-005  0.4440749E+03  0.7818608E-02  0.1029504E+00
          2   -1    0    0  501    0  0.00000000000E+00  0.00000000000E+00  0.21162740155E+03  0.21162740157E+03  0.25500000000E-02 0. -1.
         -2   -1    0    0    0  501 -0.00000000000E+00 -0.00000000000E+00 -0.23295953413E+03  0.23295953414E+03  0.25500000000E-02 0.  1.
    5000001    1    1    2    0    0  0.22486210222E+02 -0.76690588763E+02 -0.68287145559E+02  0.22505823758E+03  0.19900000000E+03 0.  0.
   -5000001    1    1    2    0    0 -0.22486210222E+02  0.76690588763E+02  0.46955012983E+02  0.21952869812E+03  0.19900000000E+03 0.  0.
<mgrwt>
<rscale>  0 0.44407486E+03</rscale>
<asrwt>0</asrwt>
<pdfrwt beam="1">  1        2 0.30232486E-01 0.44407486E+03</pdfrwt>
<pdfrwt beam="2">  1       -2 0.33279933E-01 0.44407486E+03</pdfrwt>
<totfact> 0.14802590E+03</totfact>
</mgrwt>
</event>
<event>
 4    1  0.1869793E-005  0.5181709E+03  0.7818608E-02  0.1009142E+00
          2   -1    0    0  501    0  0.00000000000E+00  0.00000000000E+00  0.22043694828E+04  0.22043694828E+04  0.25500000000E-02 0.  1.
         -2   -1    0    0    0  501 -0.00000000000E+00 -0.00000000000E+00 -0.30451002239E+02  0.30451002346E+02  0.25500000000E-02 0. -1.
    5000001    1    1    2    0    0  0.14458890428E+01  0.16236437642E+03  0.94006840753E+03  0.97452239182E+03  0.19900000000E+03 0.  0.
   -5000001    1    1    2    0    0 -0.14458890428E+01 -0.16236437642E+03  0.12338500730E+04  0.12602980933E+04  0.19900000000E+03 0.  0.
<mgrwt>
<rscale>  0 0.51817086E+03</rscale>
<asrwt>0</asrwt>
<pdfrwt beam="1">  1        2 0.31490995E+00 0.51817086E+03</pdfrwt>
<pdfrwt beam="2">  1       -2 0.43501428E-02 0.51817086E+03</pdfrwt>
<totfact> 0.16711372E+03</totfact>
</mgrwt>
</event>
<event>
 4    1  0.1869793E-005  0.4965897E+03  0.7818608E-02  0.1014673E+00
         -2   -1    0    0    0  501 -0.00000000000E+00  0.00000000000E+00  0.93857097113E+02  0.93857097147E+02  0.25500000000E-02 0. -1.
          2   -1    0    0  501    0  0.00000000000E+00 -0.00000000000E+00 -0.65685321220E+03  0.65685321221E+03  0.25500000000E-02 0.  1.
    5000001    1    1    2    0    0  0.78513301734E+02 -0.31298821846E+02 -0.46606172068E+03  0.51376889968E+03  0.19900000000E+03 0.  0.
   -5000001    1    1    2    0    0 -0.78513301734E+02  0.31298821846E+02 -0.96934394411E+02  0.23694140967E+03  0.19900000000E+03 0.  0.
<mgrwt>
<rscale>  0 0.49658971E+03</rscale>
<asrwt>0</asrwt>
<pdfrwt beam="1">  1        2 0.93836170E-01 0.49658971E+03</pdfrwt>
<pdfrwt beam="2">  1       -2 0.13408157E-01 0.49658971E+03</pdfrwt>
<totfact> 0.20523904E+03</totfact>
</mgrwt>
</event>
<event>
 4    1  0.1869793E-005  0.5589714E+03  0.7818608E-02  0.9994385E-01
          2   -1    0    0  501    0  0.00000000000E+00  0.00000000000E+00  0.18147304019E+04  0.18147304019E+04  0.25500000000E-02 0.  1.
         -2   -1    0    0    0  501 -0.00000000000E+00 -0.00000000000E+00 -0.43043447418E+02  0.43043447493E+02  0.25500000000E-02 0. -1.
    5000001    1    1    2    0    0 -0.16943598607E+03 -0.28147086406E+00  0.12149029173E+04  0.12426981657E+04  0.19900000000E+03 0.  0.
   -5000001    1    1    2    0    0  0.16943598607E+03  0.28147086406E+00  0.55678403723E+03  0.61507568373E+03  0.19900000000E+03 0.  0.
<mgrwt>
<rscale>  0 0.55897139E+03</rscale>
<asrwt>0</asrwt>
<pdfrwt beam="1">  1        2 0.25924717E+00 0.55897139E+03</pdfrwt>
<pdfrwt beam="2">  1       -2 0.61490646E-02 0.55897139E+03</pdfrwt>
<totfact> 0.15286303E+03</totfact>
</mgrwt>
</event>
<event>
 4    1  0.1869793E-005  0.8606492E+03  0.7818608E-02  0.9476154E-01
         -2   -1    0    0    0  501 -0.00000000000E+00  0.00000000000E+00  0.10986672817E+03  0.10986672820E+03  0.25500000000E-02 0. -1.
          2   -1    0    0  501    0  0.00000000000E+00 -0.00000000000E+00 -0.16854900803E+04  0.16854900803E+04  0.25500000000E-02 0.  1.
    5000001    1    1    2    0    0 -0.14838476736E+03  0.16516679918E+03 -0.14350928933E+04  0.14657389683E+04  0.19900000000E+03 0.  0.
   -5000001    1    1    2    0    0  0.14838476736E+03 -0.16516679918E+03 -0.14053045884E+03  0.32961784023E+03  0.19900000000E+03 0.  0.
<mgrwt>
<rscale>  0 0.86064924E+03</rscale>
<asrwt>0</asrwt>
<pdfrwt beam="1">  1        2 0.24078428E+00 0.86064924E+03</pdfrwt>
<pdfrwt beam="2">  1       -2 0.15695248E-01 0.86064924E+03</pdfrwt>
<totfact> 0.38123485E+02</totfact>
</mgrwt>
</event>
<event>
 4    1  0.1869793E-005  0.7278312E+03  0.7818608E-02  0.9670786E-01
          2   -1    0    0  501    0  0.00000000000E+00  0.00000000000E+00  0.17629753663E+04  0.17629753663E+04  0.25500000000E-02 0.  1.
         -2   -1    0    0    0  501 -0.00000000000E+00 -0.00000000000E+00 -0.75119918418E+02  0.75119918461E+02  0.25500000000E-02 0. -1.
    5000001    1    1    2    0    0  0.69341601215E+02  0.12691012082E+03  0.16666127776E+03  0.29713871833E+03  0.19900000000E+03 0.  0.
   -5000001    1    1    2    0    0 -0.69341601215E+02 -0.12691012082E+03  0.15211941701E+04  0.15409565664E+04  0.19900000000E+03 0.  0.
<mgrwt>
<rscale>  0 0.72783120E+03</rscale>
<asrwt>0</asrwt>
<pdfrwt beam="1">  1        2 0.25185363E+00 0.72783120E+03</pdfrwt>
<pdfrwt beam="2">  1       -2 0.10731417E-01 0.72783120E+03</pdfrwt>
<totfact> 0.66095311E+02</totfact>
</mgrwt>
</event>
<event>
 4    1  0.1869793E-005  0.7497443E+03  0.7818608E-02  0.9635752E-01
          2   -1    0    0  501    0  0.00000000000E+00  0.00000000000E+00  0.26145294158E+03  0.26145294159E+03  0.25500000000E-02 0.  1.
         -2   -1    0    0    0  501 -0.00000000000E+00 -0.00000000000E+00 -0.53749307786E+03  0.53749307787E+03  0.25500000000E-02 0. -1.
    5000001    1    1    2    0    0  0.27088834409E+03  0.42202205246E+02 -0.30907397893E+03  0.45857305366E+03  0.19900000000E+03 0.  0.
   -5000001    1    1    2    0    0 -0.27088834409E+03 -0.42202205246E+02  0.33033842642E+02  0.34037296580E+03  0.19900000000E+03 0.  0.
<mgrwt>
<rscale>  0 0.74974435E+03</rscale>
<asrwt>0</asrwt>
<pdfrwt beam="1">  1        2 0.37350420E-01 0.74974435E+03</pdfrwt>
<pdfrwt beam="2">  1       -2 0.76784725E-01 0.74974435E+03</pdfrwt>
<totfact> 0.21253106E+02</totfact>
</mgrwt>
</event>
<event>
 4    1  0.1869793E-005  0.5886208E+03  0.7818608E-02  0.9929300E-01
          2   -1    0    0  501    0  0.00000000000E+00  0.00000000000E+00  0.20240077973E+03  0.20240077975E+03  0.25500000000E-02 0.  1.
         -2   -1    0    0    0  501 -0.00000000000E+00 -0.00000000000E+00 -0.42795589135E+03  0.42795589136E+03  0.25500000000E-02 0. -1.
    5000001    1    1    2    0    0  0.18252532034E+02 -0.85635389813E+02 -0.32521390102E+03  0.39119260771E+03  0.19900000000E+03 0.  0.
   -5000001    1    1    2    0    0 -0.18252532034E+02  0.85635389813E+02  0.99658789399E+02  0.23916406339E+03  0.19900000000E+03 0.  0.
<mgrwt>
<rscale>  0 0.58862078E+03</rscale>
<asrwt>0</asrwt>
<pdfrwt beam="1">  1        2 0.28914397E-01 0.58862078E+03</pdfrwt>
<pdfrwt beam="2">  1       -2 0.61136556E-01 0.58862078E+03</pdfrwt>
<totfact> 0.46584705E+02</totfact>
</mgrwt>
</event>
<event>
 4    1  0.1869793E-005  0.4526720E+03  0.7818608E-02  0.1026928E+00
          2   -1    0    0  501    0  0.00000000000E+00  0.00000000000E+00  0.32773659961E+04  0.32773659961E+04  0.25500000000E-02 0.  1.
         -2   -1    0    0    0  501 -0.00000000000E+00 -0.00000000000E+00 -0.15630837687E+02  0.15630837895E+02  0.25500000000E-02 0. -1.
    5000001    1    1    2    0    0  0.52734545134E+02 -0.79290592241E+02  0.19988666856E+04  0.20110039675E+04  0.19900000000E+03 0.  0.
   -5000001    1    1    2    0    0 -0.52734545134E+02  0.79290592241E+02  0.12628684728E+04  0.12819928665E+04  0.19900000000E+03 0.  0.
<mgrwt>
<rscale>  0 0.45267196E+03</rscale>
<asrwt>0</asrwt>
<pdfrwt beam="1">  1        2 0.46819582E+00 0.45267196E+03</pdfrwt>
<pdfrwt beam="2">  1       -2 0.22329736E-02 0.45267196E+03</pdfrwt>
<totfact> 0.12590547E+03</totfact>
</mgrwt>
</event>
<event>
 4    1  0.1869793E-005  0.8056402E+03  0.7818608E-02  0.9551889E-01
         -2   -1    0    0    0  501 -0.00000000000E+00  0.00000000000E+00  0.32582962645E+03  0.32582962646E+03  0.25500000000E-02 0. -1.
          2   -1    0    0  501    0  0.00000000000E+00 -0.00000000000E+00 -0.49800272135E+03  0.49800272135E+03  0.25500000000E-02 0.  1.
    5000001    1    1    2    0    0  0.11411874803E+03  0.31974374723E+03 -0.17407539420E+03  0.43030500278E+03  0.19900000000E+03 0.  0.
   -5000001    1    1    2    0    0 -0.11411874803E+03 -0.31974374723E+03  0.19022993022E+01  0.39352734503E+03  0.19900000000E+03 0.  0.
<mgrwt>
<rscale>  0 0.80564022E+03</rscale>
<asrwt>0</asrwt>
<pdfrwt beam="1">  1        2 0.71143246E-01 0.80564022E+03</pdfrwt>
<pdfrwt beam="2">  1       -2 0.46547090E-01 0.80564022E+03</pdfrwt>
<totfact> 0.29682871E+02</totfact>
</mgrwt>
</event>
<event>
 4    1  0.1869793E-005  0.6151915E+03  0.7818608E-02  0.9874380E-01
         -2   -1    0    0    0  501 -0.00000000000E+00  0.00000000000E+00  0.35261788106E+03  0.35261788107E+03  0.25500000000E-02 0. -1.
          2   -1    0    0  501    0  0.00000000000E+00 -0.00000000000E+00 -0.26832200889E+03  0.26832200891E+03  0.25500000000E-02 0.  1.
    5000001    1    1    2    0    0  0.42168642135E+02 -0.22331422308E+03 -0.16417524658E+02  0.30251937413E+03  0.19900000000E+03 0.  0.
   -5000001    1    1    2    0    0 -0.42168642135E+02  0.22331422308E+03  0.10071339683E+03  0.31842051584E+03  0.19900000000E+03 0.  0.
<mgrwt>
<rscale>  0 0.61519148E+03</rscale>
<asrwt>0</asrwt>
<pdfrwt beam="1">  1        2 0.38331715E-01 0.61519148E+03</pdfrwt>
<pdfrwt beam="2">  1       -2 0.50373983E-01 0.61519148E+03</pdfrwt>
<totfact> 0.50740894E+02</totfact>
</mgrwt>
</event>
<event>
 4    1  0.1869793E-005  0.5686216E+03  0.7818608E-02  0.9972734E-01
         -2   -1    0    0    0  501 -0.00000000000E+00  0.00000000000E+00  0.30548055701E+03  0.30548055702E+03  0.25500000000E-02 0. -1.
          2   -1    0    0  501    0  0.00000000000E+00 -0.00000000000E+00 -0.26460807157E+03  0.26460807158E+03  0.25500000000E-02 0.  1.
    5000001    1    1    2    0    0 -0.45114521631E+02  0.19556006115E+03  0.51379499714E+02  0.28726279009E+03  0.19900000000E+03 0.  0.
   -5000001    1    1    2    0    0  0.45114521631E+02 -0.19556006115E+03 -0.10507014272E+02  0.28282583851E+03  0.19900000000E+03 0.  0.
<mgrwt>
<rscale>  0 0.56862157E+03</rscale>
<asrwt>0</asrwt>
<pdfrwt beam="1">  1        2 0.37801153E-01 0.56862157E+03</pdfrwt>
<pdfrwt beam="2">  1       -2 0.43640079E-01 0.56862157E+03</pdfrwt>
<totfact> 0.68708170E+02</totfact>
</mgrwt>
</event>
<event>
 4    1  0.1869793E-005  0.1025437E+04  0.7818608E-02  0.9281077E-01
         -2   -1    0    0    0  501 -0.00000000000E+00  0.00000000000E+00  0.20157022047E+03  0.20157022048E+03  0.25500000000E-02 0. -1.
          2   -1    0    0  501    0  0.00000000000E+00 -0.00000000000E+00 -0.13041634141E+04  0.13041634141E+04  0.25500000000E-02 0.  1.
    5000001    1    1    2    0    0 -0.39603418201E+03 -0.24843760999E+03 -0.45046690265E+03  0.67903295190E+03  0.19900000000E+03 0.  0.
   -5000001    1    1    2    0    0  0.39603418201E+03  0.24843760999E+03 -0.65212629100E+03  0.82670068271E+03  0.19900000000E+03 0.  0.
<mgrwt>
<rscale>  0 0.10254375E+04</rscale>
<asrwt>0</asrwt>
<pdfrwt beam="1">  1        2 0.18630906E+00 0.10254375E+04</pdfrwt>
<pdfrwt beam="2">  1       -2 0.28795746E-01 0.10254375E+04</pdfrwt>
<totfact> 0.20552252E+02</totfact>
</mgrwt>
</event>
<event>
 4    1  0.1869793E-005  0.5879184E+03  0.7818608E-02  0.9930793E-01
          2   -1    0    0  501    0  0.00000000000E+00  0.00000000000E+00  0.41878260018E+03  0.41878260019E+03  0.25500000000E-02 0.  1.
         -2   -1    0    0    0  501 -0.00000000000E+00 -0.00000000000E+00 -0.20634097705E+03  0.20634097707E+03  0.25500000000E-02 0. -1.
    5000001    1    1    2    0    0  0.19547585533E+03 -0.49522481017E+02  0.18959008857E+03  0.34089395393E+03  0.19900000000E+03 0.  0.
   -5000001    1    1    2    0    0 -0.19547585533E+03  0.49522481017E+02  0.22851534558E+02  0.28422962332E+03  0.19900000000E+03 0.  0.
<mgrwt>
<rscale>  0 0.58791840E+03</rscale>
<asrwt>0</asrwt>
<pdfrwt beam="1">  1        2 0.59826085E-01 0.58791840E+03</pdfrwt>
<pdfrwt beam="2">  1       -2 0.29477283E-01 0.58791840E+03</pdfrwt>
<totfact> 0.87267660E+02</totfact>
</mgrwt>
</event>
<event>
 4    1  0.1869793E-005  0.4379980E+03  0.7818608E-02  0.1031363E+00
         -2   -1    0    0    0  501 -0.00000000000E+00  0.00000000000E+00  0.16204575081E+02  0.16204575282E+02  0.25500000000E-02 0. -1.
          2   -1    0    0  501    0  0.00000000000E+00 -0.00000000000E+00 -0.29596928588E+04  0.29596928588E+04  0.25500000000E-02 0.  1.
    5000001    1    1    2    0    0  0.33559091549E+02 -0.57528322328E+01 -0.89521689451E+03  0.91770016667E+03  0.19900000000E+03 0.  0.
   -5000001    1    1    2    0    0 -0.33559091549E+02  0.57528322328E+01 -0.20482713892E+04  0.20581972674E+04  0.19900000000E+03 0.  0.
<mgrwt>
<rscale>  0 0.43799802E+03</rscale>
<asrwt>0</asrwt>
<pdfrwt beam="1">  1        2 0.42281292E+00 0.43799802E+03</pdfrwt>
<pdfrwt beam="2">  1       -2 0.23149412E-02 0.43799802E+03</pdfrwt>
<totfact> 0.17852181E+03</totfact>
</mgrwt>
</event>
<event>
 4    1  0.1869793E-005  0.5895053E+03  0.7818608E-02  0.9927422E-01
          2   -1    0    0  501    0  0.00000000000E+00  0.00000000000E+00  0.21266778510E+03  0.21266778511E+03  0.25500000000E-02 0.  1.
         -2   -1    0    0    0  501 -0.00000000000E+00 -0.00000000000E+00 -0.40852042056E+03  0.40852042057E+03  0.25500000000E-02 0. -1.
    5000001    1    1    2    0    0  0.66144406277E+02 -0.20516316545E+03 -0.67915374300E+02  0.30113203915E+03  0.19900000000E+03 0.  0.
   -5000001    1    1    2    0    0 -0.66144406277E+02  0.20516316545E+03 -0.12793726116E+03  0.32005616653E+03  0.19900000000E+03 0.  0.
<mgrwt>
<rscale>  0 0.58950533E+03</rscale>
<asrwt>0</asrwt>
<pdfrwt beam="1">  1        2 0.30381112E-01 0.58950533E+03</pdfrwt>
<pdfrwt beam="2">  1       -2 0.58360060E-01 0.58950533E+03</pdfrwt>
<totfact> 0.48579681E+02</totfact>
</mgrwt>
</event>
<event>
 4    1  0.1869793E-005  0.5065491E+03  0.7818608E-02  0.1012083E+00
          2   -1    0    0  501    0  0.00000000000E+00  0.00000000000E+00  0.27725057124E+04  0.27725057124E+04  0.25500000000E-02 0.  1.
         -2   -1    0    0    0  501 -0.00000000000E+00 -0.00000000000E+00 -0.23137193673E+02  0.23137193814E+02  0.25500000000E-02 0. -1.
    5000001    1    1    2    0    0 -0.15509962515E+02 -0.14709464764E+03  0.16598411326E+04  0.16782583173E+04  0.19900000000E+03 0.  0.
   -5000001    1    1    2    0    0  0.15509962515E+02  0.14709464764E+03  0.10895273862E+04  0.11173845889E+04  0.19900000000E+03 0.  0.
<mgrwt>
<rscale>  0 0.50654912E+03</rscale>
<asrwt>0</asrwt>
<pdfrwt beam="1">  1        2 0.39607237E+00 0.50654912E+03</pdfrwt>
<pdfrwt beam="2">  1       -2 0.33053123E-02 0.50654912E+03</pdfrwt>
<totfact> 0.13038625E+03</totfact>
</mgrwt>
</event>
<event>
 4    1  0.1869793E-005  0.4803795E+03  0.7818608E-02  0.1019031E+00
          2   -1    0    0  501    0  0.00000000000E+00  0.00000000000E+00  0.24900403253E+04  0.24900403253E+04  0.25500000000E-02 0.  1.
         -2   -1    0    0    0  501 -0.00000000000E+00 -0.00000000000E+00 -0.23168748401E+02  0.23168748541E+02  0.25500000000E-02 0. -1.
    5000001    1    1    2    0    0  0.12676730546E+03  0.25382956248E+02  0.10393769431E+04  0.10661236674E+04  0.19900000000E+03 0.  0.
   -5000001    1    1    2    0    0 -0.12676730546E+03 -0.25382956248E+02  0.14274946337E+04  0.14470854064E+04  0.19900000000E+03 0.  0.
<mgrwt>
<rscale>  0 0.48037951E+03</rscale>
<asrwt>0</asrwt>
<pdfrwt beam="1">  1        2 0.35572006E+00 0.48037951E+03</pdfrwt>
<pdfrwt beam="2">  1       -2 0.33098210E-02 0.48037951E+03</pdfrwt>
<totfact> 0.18239783E+03</totfact>
</mgrwt>
</event>
<event>
 4    1  0.1869793E-005  0.4640431E+03  0.7818608E-02  0.1023615E+00
          2   -1    0    0  501    0  0.00000000000E+00  0.00000000000E+00  0.94861734408E+03  0.94861734408E+03  0.25500000000E-02 0.  1.
         -2   -1    0    0    0  501 -0.00000000000E+00 -0.00000000000E+00 -0.56749972338E+02  0.56749972395E+02  0.25500000000E-02 0. -1.
    5000001    1    1    2    0    0 -0.98690863785E+02 -0.55901495067E+02  0.52607055396E+03  0.57377355419E+03  0.19900000000E+03 0.  0.
   -5000001    1    1    2    0    0  0.98690863785E+02  0.55901495067E+02  0.36579681778E+03  0.43159376229E+03  0.19900000000E+03 0.  0.
<mgrwt>
<rscale>  0 0.46404314E+03</rscale>
<asrwt>0</asrwt>
<pdfrwt beam="1">  1        2 0.13551675E+00 0.46404314E+03</pdfrwt>
<pdfrwt beam="2">  1       -2 0.81071395E-02 0.46404314E+03</pdfrwt>
<totfact> 0.29095496E+03</totfact>
</mgrwt>
</event>
<event>
 4    1  0.1869793E-005  0.8972721E+03  0.7818608E-02  0.9428998E-01
          2   -1    0    0  501    0  0.00000000000E+00  0.00000000000E+00  0.40790275124E+04  0.40790275124E+04  0.25500000000E-02 0.  1.
         -2   -1    0    0    0  501 -0.00000000000E+00 -0.00000000000E+00 -0.49343701807E+02  0.49343701873E+02  0.25500000000E-02 0. -1.
    5000001    1    1    2    0    0 -0.34280890488E+03 -0.24374647914E+02  0.10545467799E+04  0.11268460320E+04  0.19900000000E+03 0.  0.
   -5000001    1    1    2    0    0  0.34280890488E+03  0.24374647914E+02  0.29751370307E+04  0.30015251823E+04  0.19900000000E+03 0.  0.
<mgrwt>
<rscale>  0 0.89727213E+03</rscale>
<asrwt>0</asrwt>
<pdfrwt beam="1">  1        2 0.58271841E+00 0.89727213E+03</pdfrwt>
<pdfrwt beam="2">  1       -2 0.70490980E-02 0.89727213E+03</pdfrwt>
<totfact> 0.64505171E+01</totfact>
</mgrwt>
</event>
<event>
 4    1  0.1869793E-005  0.8811622E+03  0.7818608E-02  0.9449441E-01
         -2   -1    0    0    0  501 -0.00000000000E+00  0.00000000000E+00  0.58686032663E+03  0.58686032663E+03  0.25500000000E-02 0. -1.
          2   -1    0    0  501    0  0.00000000000E+00 -0.00000000000E+00 -0.33076302873E+03  0.33076302874E+03  0.25500000000E-02 0.  1.
    5000001    1    1    2    0    0 -0.10116896466E+03 -0.66388778344E+02  0.51751316758E+03  0.56750639460E+03  0.19900000000E+03 0.  0.
   -5000001    1    1    2    0    0  0.10116896466E+03  0.66388778344E+02 -0.26141586967E+03  0.35011696077E+03  0.19900000000E+03 0.  0.
<mgrwt>
<rscale>  0 0.88116219E+03</rscale>
<asrwt>0</asrwt>
<pdfrwt beam="1">  1        2 0.47251861E-01 0.88116219E+03</pdfrwt>
<pdfrwt beam="2">  1       -2 0.83837189E-01 0.88116219E+03</pdfrwt>
<totfact> 0.13359614E+02</totfact>
</mgrwt>
</event>
<event>
 4    1  0.1869793E-005  0.5420456E+03  0.7818608E-02  0.1003352E+00
          2   -1    0    0  501    0  0.00000000000E+00  0.00000000000E+00  0.21238679527E+04  0.21238679527E+04  0.25500000000E-02 0.  1.
         -2   -1    0    0    0  501 -0.00000000000E+00 -0.00000000000E+00 -0.34584711875E+02  0.34584711969E+02  0.25500000000E-02 0. -1.
    5000001    1    1    2    0    0  0.12576108820E+03 -0.98496643221E+02  0.14081860105E+04  0.14311206379E+04  0.19900000000E+03 0.  0.
   -5000001    1    1    2    0    0 -0.12576108820E+03  0.98496643221E+02  0.68109723041E+03  0.72733202686E+03  0.19900000000E+03 0.  0.
<mgrwt>
<rscale>  0 0.54204561E+03</rscale>
<asrwt>0</asrwt>
<pdfrwt beam="1">  1        2 0.30340987E+00 0.54204561E+03</pdfrwt>
<pdfrwt beam="2">  1       -2 0.49406705E-02 0.54204561E+03</pdfrwt>
<totfact> 0.15051003E+03</totfact>
</mgrwt>
</event>
<event>
 4    1  0.1869793E-005  0.9804264E+03  0.7818608E-02  0.9330277E-01
          2   -1    0    0  501    0  0.00000000000E+00  0.00000000000E+00  0.61969018834E+03  0.61969018835E+03  0.25500000000E-02 0. -1.
         -2   -1    0    0    0  501 -0.00000000000E+00 -0.00000000000E+00 -0.38778888761E+03  0.38778888761E+03  0.25500000000E-02 0.  1.
    5000001    1    1    2    0    0  0.88484162374E+02  0.42276776621E+03 -0.62678412780E+01  0.47560731384E+03  0.19900000000E+03 0.  0.
   -5000001    1    1    2    0    0 -0.88484162374E+02 -0.42276776621E+03  0.23816914202E+03  0.53187176213E+03  0.19900000000E+03 0.  0.
<mgrwt>
<rscale>  0 0.98042637E+03</rscale>
<asrwt>0</asrwt>
<pdfrwt beam="1">  1        2 0.88527170E-01 0.98042637E+03</pdfrwt>
<pdfrwt beam="2">  1       -2 0.55398412E-01 0.98042637E+03</pdfrwt>
<totfact> 0.15983123E+02</totfact>
</mgrwt>
</event>
<event>
 4    1  0.1869793E-005  0.6303982E+03  0.7818608E-02  0.9844272E-01
         -2   -1    0    0    0  501 -0.00000000000E+00  0.00000000000E+00  0.39153182887E+03  0.39153182888E+03  0.25500000000E-02 0. -1.
          2   -1    0    0  501    0  0.00000000000E+00 -0.00000000000E+00 -0.25374810900E+03  0.25374810902E+03  0.25500000000E-02 0.  1.
    5000001    1    1    2    0    0 -0.21463707615E+03  0.10435524056E+03  0.12296282985E+03  0.33418549971E+03  0.19900000000E+03 0.  0.
   -5000001    1    1    2    0    0  0.21463707615E+03 -0.10435524056E+03  0.14820890014E+02  0.31109443819E+03  0.19900000000E+03 0.  0.
<mgrwt>
<rscale>  0 0.63039816E+03</rscale>
<asrwt>0</asrwt>
<pdfrwt beam="1">  1        2 0.36249730E-01 0.63039816E+03</pdfrwt>
<pdfrwt beam="2">  1       -2 0.55933118E-01 0.63039816E+03</pdfrwt>
<totfact> 0.43537648E+02</totfact>
</mgrwt>
</event>
<event>
 4    1  0.1869793E-005  0.5217341E+03  0.7818608E-02  0.1008257E+00
          2   -1    0    0  501    0  0.00000000000E+00  0.00000000000E+00  0.33046853053E+04  0.33046853053E+04  0.25500000000E-02 0.  1.
         -2   -1    0    0    0  501 -0.00000000000E+00 -0.00000000000E+00 -0.20592466826E+02  0.20592466984E+02  0.25500000000E-02 0. -1.
    5000001    1    1    2    0    0  0.78759352307E+02  0.14897438758E+03  0.15951159770E+04  0.16162896968E+04  0.19900000000E+03 0.  0.
   -5000001    1    1    2    0    0 -0.78759352307E+02 -0.14897438758E+03  0.16889768614E+04  0.17089880755E+04  0.19900000000E+03 0.  0.
<mgrwt>
<rscale>  0 0.52173412E+03</rscale>
<asrwt>0</asrwt>
<pdfrwt beam="1">  1        2 0.47209783E+00 0.52173412E+03</pdfrwt>
<pdfrwt beam="2">  1       -2 0.29417815E-02 0.52173412E+03</pdfrwt>
<totfact> 0.79633017E+02</totfact>
</mgrwt>
</event>
<event>
 4    1  0.1869793E-005  0.6841454E+03  0.7818608E-02  0.9744737E-01
         -2   -1    0    0    0  501 -0.00000000000E+00  0.00000000000E+00  0.16680684928E+03  0.16680684930E+03  0.25500000000E-02 0. -1.
          2   -1    0    0  501    0  0.00000000000E+00 -0.00000000000E+00 -0.70149227643E+03  0.70149227644E+03  0.25500000000E-02 0.  1.
    5000001    1    1    2    0    0 -0.26350656337E+03  0.10648783815E+02 -0.37988921247E+03  0.50345398925E+03  0.19900000000E+03 0.  0.
   -5000001    1    1    2    0    0  0.26350656337E+03 -0.10648783815E+02 -0.15479621468E+03  0.36484513649E+03  0.19900000000E+03 0.  0.
<mgrwt>
<rscale>  0 0.68414535E+03</rscale>
<asrwt>0</asrwt>
<pdfrwt beam="1">  1        2 0.10021318E+00 0.68414535E+03</pdfrwt>
<pdfrwt beam="2">  1       -2 0.23829550E-01 0.68414535E+03</pdfrwt>
<totfact> 0.70401877E+02</totfact>
</mgrwt>
</event>
<event>
 4    1  0.1869793E-005  0.5250104E+03  0.7818608E-02  0.1007449E+00
         -2   -1    0    0    0  501 -0.00000000000E+00  0.00000000000E+00  0.90304015747E+02  0.90304015783E+02  0.25500000000E-02 0. -1.
          2   -1    0    0  501    0  0.00000000000E+00 -0.00000000000E+00 -0.76307761663E+03  0.76307761664E+03  0.25500000000E-02 0.  1.
    5000001    1    1    2    0    0 -0.38338907817E+02 -0.12513197698E+03 -0.15699580152E+03  0.28526577995E+03  0.19900000000E+03 0.  0.
   -5000001    1    1    2    0    0  0.38338907817E+02  0.12513197698E+03 -0.51577779936E+03  0.56811585247E+03  0.19900000000E+03 0.  0.
<mgrwt>
<rscale>  0 0.52501037E+03</rscale>
<asrwt>0</asrwt>
<pdfrwt beam="1">  1        2 0.10901108E+00 0.52501037E+03</pdfrwt>
<pdfrwt beam="2">  1       -2 0.12900574E-01 0.52501037E+03</pdfrwt>
<totfact> 0.18218141E+03</totfact>
</mgrwt>
</event>
<event>
 4    1  0.1869793E-005  0.8113967E+03  0.7818608E-02  0.9543666E-01
         -2   -1    0    0    0  501 -0.00000000000E+00  0.00000000000E+00  0.42768913947E+03  0.42768913948E+03  0.25500000000E-02 0. -1.
          2   -1    0    0  501    0  0.00000000000E+00 -0.00000000000E+00 -0.38483823019E+03  0.38483823020E+03  0.25500000000E-02 0.  1.
    5000001    1    1    2    0    0 -0.30207541149E+03 -0.17364426989E+03  0.81410890847E+02  0.40942718503E+03  0.19900000000E+03 0.  0.
   -5000001    1    1    2    0    0  0.30207541149E+03  0.17364426989E+03 -0.38559981567E+02  0.40310018465E+03  0.19900000000E+03 0.  0.
<mgrwt>
<rscale>  0 0.81139665E+03</rscale>
<asrwt>0</asrwt>
<pdfrwt beam="1">  1        2 0.54976890E-01 0.81139665E+03</pdfrwt>
<pdfrwt beam="2">  1       -2 0.61098448E-01 0.81139665E+03</pdfrwt>
<totfact> 0.22659497E+02</totfact>
</mgrwt>
</event>
<event>
 4    1  0.1869793E-005  0.7122771E+03  0.7818608E-02  0.9696464E-01
         -2   -1    0    0    0  501 -0.00000000000E+00  0.00000000000E+00  0.11223142810E+04  0.11223142810E+04  0.25500000000E-02 0. -1.
          2   -1    0    0  501    0  0.00000000000E+00 -0.00000000000E+00 -0.11301172692E+03  0.11301172695E+03  0.25500000000E-02 0.  1.
    5000001    1    1    2    0    0 -0.38707253997E+02 -0.21629177770E+03  0.16235303909E+03  0.33799392585E+03  0.19900000000E+03 0.  0.
   -5000001    1    1    2    0    0  0.38707253997E+02  0.21629177770E+03  0.84694951500E+03  0.89733208210E+03  0.19900000000E+03 0.  0.
<mgrwt>
<rscale>  0 0.71227712E+03</rscale>
<asrwt>0</asrwt>
<pdfrwt beam="1">  1        2 0.16144532E-01 0.71227712E+03</pdfrwt>
<pdfrwt beam="2">  1       -2 0.16033062E+00 0.71227712E+03</pdfrwt>
<totfact> 0.93152229E+01</totfact>
</mgrwt>
</event>
<event>
 4    1  0.1869793E-005  0.4562899E+03  0.7818608E-02  0.1025863E+00
         -2   -1    0    0    0  501 -0.00000000000E+00  0.00000000000E+00  0.31188952858E+03  0.31188952859E+03  0.25500000000E-02 0. -1.
          2   -1    0    0  501    0  0.00000000000E+00 -0.00000000000E+00 -0.16688639996E+03  0.16688639998E+03  0.25500000000E-02 0.  1.
    5000001    1    1    2    0    0 -0.59491172660E+02  0.54745845792E+02  0.15318576980E+03  0.26382415986E+03  0.19900000000E+03 0.  0.
   -5000001    1    1    2    0    0  0.59491172660E+02 -0.54745845792E+02 -0.81826411849E+01  0.21495176871E+03  0.19900000000E+03 0.  0.
<mgrwt>
<rscale>  0 0.45628991E+03</rscale>
<asrwt>0</asrwt>
<pdfrwt beam="1">  1        2 0.23840914E-01 0.45628991E+03</pdfrwt>
<pdfrwt beam="2">  1       -2 0.44555647E-01 0.45628991E+03</pdfrwt>
<totfact> 0.11056870E+03</totfact>
</mgrwt>
</event>
<event>
 4    1  0.1869793E-005  0.1004081E+04  0.7818608E-02  0.9304081E-01
          2   -1    0    0  501    0  0.00000000000E+00  0.00000000000E+00  0.22257419751E+04  0.22257419751E+04  0.25500000000E-02 0.  1.
         -2   -1    0    0    0  501 -0.00000000000E+00 -0.00000000000E+00 -0.11324066097E+03  0.11324066099E+03  0.25500000000E-02 0. -1.
    5000001    1    1    2    0    0  0.36716496670E+03  0.16546181047E+03  0.15784680800E+04  0.16411429564E+04  0.19900000000E+03 0.  0.
   -5000001    1    1    2    0    0 -0.36716496670E+03 -0.16546181047E+03  0.53403323410E+03  0.69783967974E+03  0.19900000000E+03 0.  0.
<mgrwt>
<rscale>  0 0.10040807E+04</rscale>
<asrwt>0</asrwt>
<pdfrwt beam="1">  1        2 0.31796316E+00 0.10040807E+04</pdfrwt>
<pdfrwt beam="2">  1       -2 0.16177236E-01 0.10040807E+04</pdfrwt>
<totfact> 0.18994027E+02</totfact>
</mgrwt>
</event>
<event>
 4    1  0.1869793E-005  0.6787317E+03  0.7818608E-02  0.9754311E-01
         -2   -1    0    0    0  501 -0.00000000000E+00  0.00000000000E+00  0.19022612955E+03  0.19022612956E+03  0.25500000000E-02 0. -1.
          2   -1    0    0  501    0  0.00000000000E+00 -0.00000000000E+00 -0.60543300055E+03  0.60543300056E+03  0.25500000000E-02 0.  1.
    5000001    1    1    2    0    0 -0.92521851698E+02  0.27723383360E+02 -0.50931140563E+03  0.55527289411E+03  0.19900000000E+03 0.  0.
   -5000001    1    1    2    0    0  0.92521851698E+02 -0.27723383360E+02  0.94104534628E+02  0.24038623601E+03  0.19900000000E+03 0.  0.
<mgrwt>
<rscale>  0 0.67873169E+03</rscale>
<asrwt>0</asrwt>
<pdfrwt beam="1">  1        2 0.86490428E-01 0.67873169E+03</pdfrwt>
<pdfrwt beam="2">  1       -2 0.27175162E-01 0.67873169E+03</pdfrwt>
<totfact> 0.66341266E+02</totfact>
</mgrwt>
</event>
<event>
 4    1  0.1869793E-005  0.4910925E+03  0.7818608E-02  0.1016130E+00
         -2   -1    0    0    0  501 -0.00000000000E+00  0.00000000000E+00  0.62105955618E+02  0.62105955670E+02  0.25500000000E-02 0. -1.
          2   -1    0    0  501    0  0.00000000000E+00 -0.00000000000E+00 -0.97080816905E+03  0.97080816906E+03  0.25500000000E-02 0.  1.
    5000001    1    1    2    0    0  0.10150059089E+03  0.40613289978E+02 -0.25771622012E+03  0.34346828003E+03  0.19900000000E+03 0.  0.
   -5000001    1    1    2    0    0 -0.10150059089E+03 -0.40613289978E+02 -0.65098599331E+03  0.68944584469E+03  0.19900000000E+03 0.  0.
<mgrwt>
<rscale>  0 0.49109253E+03</rscale>
<asrwt>0</asrwt>
<pdfrwt beam="1">  1        2 0.13868687E+00 0.49109253E+03</pdfrwt>
<pdfrwt beam="2">  1       -2 0.88722799E-02 0.49109253E+03</pdfrwt>
<totfact> 0.24425706E+03</totfact>
</mgrwt>
</event>
<event>
 4    1  0.1869793E-005  0.5246602E+03  0.7818608E-02  0.1007535E+00
         -2   -1    0    0    0  501 -0.00000000000E+00  0.00000000000E+00  0.90207196838E+02  0.90207196874E+02  0.25500000000E-02 0. -1.
          2   -1    0    0  501    0  0.00000000000E+00 -0.00000000000E+00 -0.76287794929E+03  0.76287794929E+03  0.25500000000E-02 0.  1.
    5000001    1    1    2    0    0 -0.16921381829E+03  0.82931483679E+00 -0.37556413678E+03  0.45747505386E+03  0.19900000000E+03 0.  0.
   -5000001    1    1    2    0    0  0.16921381829E+03 -0.82931483679E+00 -0.29710661567E+03  0.39561009231E+03  0.19900000000E+03 0.  0.
<mgrwt>
<rscale>  0 0.52466020E+03</rscale>
<asrwt>0</asrwt>
<pdfrwt beam="1">  1        2 0.10898256E+00 0.52466020E+03</pdfrwt>
<pdfrwt beam="2">  1       -2 0.12886743E-01 0.52466020E+03</pdfrwt>
<totfact> 0.18256449E+03</totfact>
</mgrwt>
</event>
<event>
 4    1  0.1869793E-005  0.5431310E+03  0.7818608E-02  0.1003096E+00
         -2   -1    0    0    0  501 -0.00000000000E+00  0.00000000000E+00  0.98611393835E+02  0.98611393868E+02  0.25500000000E-02 0. -1.
          2   -1    0    0  501    0  0.00000000000E+00 -0.00000000000E+00 -0.74786319028E+03  0.74786319028E+03  0.25500000000E-02 0.  1.
    5000001    1    1    2    0    0  0.44749095241E+02 -0.17800040795E+03 -0.35805963326E+03  0.44888119555E+03  0.19900000000E+03 0.  0.
   -5000001    1    1    2    0    0 -0.44749095241E+02  0.17800040795E+03 -0.29119216319E+03  0.39759338860E+03  0.19900000000E+03 0.  0.
<mgrwt>
<rscale>  0 0.54313104E+03</rscale>
<asrwt>0</asrwt>
<pdfrwt beam="1">  1        2 0.10683760E+00 0.54313104E+03</pdfrwt>
<pdfrwt beam="2">  1       -2 0.14087342E-01 0.54313104E+03</pdfrwt>
<totfact> 0.16140127E+03</totfact>
</mgrwt>
</event>
<event>
 4    1  0.1869793E-005  0.6559420E+03  0.7818608E-02  0.9795693E-01
          2   -1    0    0  501    0  0.00000000000E+00  0.00000000000E+00  0.54704603566E+03  0.54704603567E+03  0.25500000000E-02 0.  1.
         -2   -1    0    0    0  501 -0.00000000000E+00 -0.00000000000E+00 -0.19662877139E+03  0.19662877140E+03  0.25500000000E-02 0. -1.
    5000001    1    1    2    0    0 -0.24717849239E+02 -0.25455084007E+03  0.23253750794E+03  0.39885059214E+03  0.19900000000E+03 0.  0.
   -5000001    1    1    2    0    0  0.24717849239E+02  0.25455084007E+03  0.11787975634E+03  0.34482421493E+03  0.19900000000E+03 0.  0.
<mgrwt>
<rscale>  0 0.65594204E+03</rscale>
<asrwt>0</asrwt>
<pdfrwt beam="1">  1        2 0.78149434E-01 0.65594204E+03</pdfrwt>
<pdfrwt beam="2">  1       -2 0.28089824E-01 0.65594204E+03</pdfrwt>
<totfact> 0.70353240E+02</totfact>
</mgrwt>
</event>
<event>
 4    1  0.1869793E-005  0.4523596E+03  0.7818608E-02  0.1027021E+00
         -2   -1    0    0    0  501 -0.00000000000E+00  0.00000000000E+00  0.81852645366E+02  0.81852645406E+02  0.25500000000E-02 0.  1.
          2   -1    0    0  501    0  0.00000000000E+00 -0.00000000000E+00 -0.62499258996E+03  0.62499258997E+03  0.25500000000E-02 0. -1.
    5000001    1    1    2    0    0  0.82532080397E+02  0.68445316941E+02 -0.28367272269E+03  0.36272237221E+03  0.19900000000E+03 0.  0.
   -5000001    1    1    2    0    0 -0.82532080397E+02 -0.68445316941E+02 -0.25946722191E+03  0.34412286316E+03  0.19900000000E+03 0.  0.
<mgrwt>
<rscale>  0 0.45235958E+03</rscale>
<asrwt>0</asrwt>
<pdfrwt beam="1">  1        2 0.89284653E-01 0.45235958E+03</pdfrwt>
<pdfrwt beam="2">  1       -2 0.11693235E-01 0.45235958E+03</pdfrwt>
<totfact> 0.27244372E+03</totfact>
</mgrwt>
</event>
<event>
 4    1  0.1869793E-005  0.6814689E+03  0.7818608E-02  0.9749458E-01
          2   -1    0    0  501    0  0.00000000000E+00  0.00000000000E+00  0.73312736367E+03  0.73312736367E+03  0.25500000000E-02 0.  1.
         -2   -1    0    0    0  501 -0.00000000000E+00 -0.00000000000E+00 -0.15836261786E+03  0.15836261788E+03  0.25500000000E-02 0. -1.
    5000001    1    1    2    0    0  0.17678636571E+03  0.80979529528E+02  0.54469304758E+03  0.61163928862E+03  0.19900000000E+03 0.  0.
   -5000001    1    1    2    0    0 -0.17678636571E+03 -0.80979529528E+02  0.30071698228E+02  0.27985069294E+03  0.19900000000E+03 0.  0.
<mgrwt>
<rscale>  0 0.68146891E+03</rscale>
<asrwt>0</asrwt>
<pdfrwt beam="1">  1        2 0.10473248E+00 0.68146891E+03</pdfrwt>
<pdfrwt beam="2">  1       -2 0.22623231E-01 0.68146891E+03</pdfrwt>
<totfact> 0.73127614E+02</totfact>
</mgrwt>
</event>
<event>
 4    1  0.1869793E-005  0.5042925E+03  0.7818608E-02  0.1012665E+00
         -2   -1    0    0    0  501 -0.00000000000E+00  0.00000000000E+00  0.29473201244E+02  0.29473201355E+02  0.25500000000E-02 0. -1.
          2   -1    0    0  501    0  0.00000000000E+00 -0.00000000000E+00 -0.21571366530E+04  0.21571366530E+04  0.25500000000E-02 0.  1.
    5000001    1    1    2    0    0  0.53415563374E+02 -0.13632638031E+03 -0.12822995762E+04  0.13058833437E+04  0.19900000000E+03 0.  0.
   -5000001    1    1    2    0    0 -0.53415563374E+02  0.13632638031E+03 -0.84536387556E+03  0.88072651061E+03  0.19900000000E+03 0.  0.
<mgrwt>
<rscale>  0 0.50429247E+03</rscale>
<asrwt>0</asrwt>
<pdfrwt beam="1">  1        2 0.30816228E+00 0.50429247E+03</pdfrwt>
<pdfrwt beam="2">  1       -2 0.42104587E-02 0.50429247E+03</pdfrwt>
<totfact> 0.18566343E+03</totfact>
</mgrwt>
</event>
<event>
 4    1  0.1869793E-005  0.6498668E+03  0.7818608E-02  0.9807029E-01
          2   -1    0    0  501    0  0.00000000000E+00  0.00000000000E+00  0.17776913093E+04  0.17776913093E+04  0.25500000000E-02 0.  1.
         -2   -1    0    0    0  501 -0.00000000000E+00 -0.00000000000E+00 -0.59392598196E+02  0.59392598251E+02  0.25500000000E-02 0. -1.
    5000001    1    1    2    0    0  0.20146803585E+03 -0.12179741704E+03  0.11495979462E+04  0.11902102412E+04  0.19900000000E+03 0.  0.
   -5000001    1    1    2    0    0 -0.20146803585E+03  0.12179741704E+03  0.56870076492E+03  0.64687366641E+03  0.19900000000E+03 0.  0.
<mgrwt>
<rscale>  0 0.64986677E+03</rscale>
<asrwt>0</asrwt>
<pdfrwt beam="1">  1        2 0.25395587E+00 0.64986677E+03</pdfrwt>
<pdfrwt beam="2">  1       -2 0.84846579E-02 0.64986677E+03</pdfrwt>
<totfact> 0.95435015E+02</totfact>
</mgrwt>
</event>
<event>
 4    1  0.1869793E-005  0.6359374E+03  0.7818608E-02  0.9833530E-01
          2   -1    0    0  501    0  0.00000000000E+00  0.00000000000E+00  0.10901357012E+04  0.10901357012E+04  0.25500000000E-02 0.  1.
         -2   -1    0    0    0  501 -0.00000000000E+00 -0.00000000000E+00 -0.92744494732E+02  0.92744494767E+02  0.25500000000E-02 0. -1.
    5000001    1    1    2    0    0  0.22144538793E+03  0.98248220252E+02  0.59733676514E+03  0.67461321037E+03  0.19900000000E+03 0.  0.
   -5000001    1    1    2    0    0 -0.22144538793E+03 -0.98248220252E+02  0.40005444130E+03  0.50826698557E+03  0.19900000000E+03 0.  0.
<mgrwt>
<rscale>  0 0.63593737E+03</rscale>
<asrwt>0</asrwt>
<pdfrwt beam="1">  1        2 0.15573366E+00 0.63593737E+03</pdfrwt>
<pdfrwt beam="2">  1       -2 0.13249214E-01 0.63593737E+03</pdfrwt>
<totfact> 0.10753780E+03</totfact>
</mgrwt>
</event>
<event>
 4    1  0.1869793E-005  0.6711130E+03  0.7818608E-02  0.9767949E-01
         -2   -1    0    0    0  501 -0.00000000000E+00  0.00000000000E+00  0.10229051237E+03  0.10229051240E+03  0.25500000000E-02 0. -1.
          2   -1    0    0  501    0  0.00000000000E+00 -0.00000000000E+00 -0.11007682647E+04  0.11007682647E+04  0.25500000000E-02 0.  1.
    5000001    1    1    2    0    0 -0.25219846670E+03 -0.83253873019E+01 -0.67233487359E+03  0.74519028505E+03  0.19900000000E+03 0.  0.
   -5000001    1    1    2    0    0  0.25219846670E+03  0.83253873019E+01 -0.32614287877E+03  0.45786849209E+03  0.19900000000E+03 0.  0.
<mgrwt>
<rscale>  0 0.67111296E+03</rscale>
<asrwt>0</asrwt>
<pdfrwt beam="1">  1        2 0.15725260E+00 0.67111296E+03</pdfrwt>
<pdfrwt beam="2">  1       -2 0.14612931E-01 0.67111296E+03</pdfrwt>
<totfact> 0.89885732E+02</totfact>
</mgrwt>
</event>
<event>
 4    1  0.1869793E-005  0.4222326E+03  0.7818608E-02  0.1036342E+00
         -2   -1    0    0    0  501 -0.00000000000E+00  0.00000000000E+00  0.89492729553E+01  0.89492733186E+01  0.25500000000E-02 0. -1.
          2   -1    0    0  501    0  0.00000000000E+00 -0.00000000000E+00 -0.49803035260E+04  0.49803035260E+04  0.25500000000E-02 0.  1.
    5000001    1    1    2    0    0  0.42822763123E+02  0.66827515354E+01 -0.18287631169E+04  0.18400690166E+04  0.19900000000E+03 0.  0.
   -5000001    1    1    2    0    0 -0.42822763123E+02 -0.66827515354E+01 -0.31425911361E+04  0.31491837827E+04  0.19900000000E+03 0.  0.
<mgrwt>
<rscale>  0 0.42223262E+03</rscale>
<asrwt>0</asrwt>
<pdfrwt beam="1">  1        2 0.71147016E+00 0.42223262E+03</pdfrwt>
<pdfrwt beam="2">  1       -2 0.12784708E-02 0.42223262E+03</pdfrwt>
<totfact> 0.18360284E+02</totfact>
</mgrwt>
</event>
<event>
 4    1  0.1869793E-005  0.4633225E+03  0.7818608E-02  0.1023822E+00
         -2   -1    0    0    0  501 -0.00000000000E+00  0.00000000000E+00  0.45881115119E+02  0.45881115190E+02  0.25500000000E-02 0. -1.
          2   -1    0    0  501    0  0.00000000000E+00 -0.00000000000E+00 -0.11696954116E+04  0.11696954116E+04  0.25500000000E-02 0.  1.
    5000001    1    1    2    0    0  0.85749363762E+02  0.19075064494E+02 -0.35285451274E+03  0.41451672901E+03  0.19900000000E+03 0.  0.
   -5000001    1    1    2    0    0 -0.85749363762E+02 -0.19075064494E+02 -0.77095978373E+03  0.80105979777E+03  0.19900000000E+03 0.  0.
<mgrwt>
<rscale>  0 0.46332248E+03</rscale>
<asrwt>0</asrwt>
<pdfrwt beam="1">  1        2 0.16709933E+00 0.46332248E+03</pdfrwt>
<pdfrwt beam="2">  1       -2 0.65544457E-02 0.46332248E+03</pdfrwt>
<totfact> 0.30148977E+03</totfact>
</mgrwt>
</event>
<event>
 4    1  0.1869793E-005  0.4342252E+03  0.7818608E-02  0.1032534E+00
          2   -1    0    0  501    0  0.00000000000E+00  0.00000000000E+00  0.23332495732E+02  0.23332495871E+02  0.25500000000E-02 0.  1.
         -2   -1    0    0    0  501 -0.00000000000E+00 -0.00000000000E+00 -0.20202671217E+04  0.20202671217E+04  0.25500000000E-02 0. -1.
    5000001    1    1    2    0    0  0.71961161278E+02  0.45047231829E+02 -0.10838596411E+04  0.11052422284E+04  0.19900000000E+03 0.  0.
   -5000001    1    1    2    0    0 -0.71961161278E+02 -0.45047231829E+02 -0.91307498489E+03  0.93835738919E+03  0.19900000000E+03 0.  0.
<mgrwt>
<rscale>  0 0.43422517E+03</rscale>
<asrwt>0</asrwt>
<pdfrwt beam="1">  1        2 0.33332150E-02 0.43422517E+03</pdfrwt>
<pdfrwt beam="2">  1       -2 0.28860948E+00 0.43422517E+03</pdfrwt>
<totfact> 0.11431887E+02</totfact>
</mgrwt>
</event>
<event>
 4    1  0.1869793E-005  0.6001906E+03  0.7818608E-02  0.9905011E-01
          2   -1    0    0  501    0  0.00000000000E+00  0.00000000000E+00  0.63095678968E+03  0.63095678968E+03  0.25500000000E-02 0.  1.
         -2   -1    0    0    0  501 -0.00000000000E+00 -0.00000000000E+00 -0.14273113882E+03  0.14273113884E+03  0.25500000000E-02 0. -1.
    5000001    1    1    2    0    0  0.10698737233E+03  0.69674567099E+02  0.58776176778E+01  0.23650875148E+03  0.19900000000E+03 0.  0.
   -5000001    1    1    2    0    0 -0.10698737233E+03 -0.69674567099E+02  0.48234803318E+03  0.53717917705E+03  0.19900000000E+03 0.  0.
<mgrwt>
<rscale>  0 0.60019057E+03</rscale>
<asrwt>0</asrwt>
<pdfrwt beam="1">  1        2 0.90136684E-01 0.60019057E+03</pdfrwt>
<pdfrwt beam="2">  1       -2 0.20390163E-01 0.60019057E+03</pdfrwt>
<totfact> 0.10557479E+03</totfact>
</mgrwt>
</event>
<event>
 4    1  0.1869793E-005  0.4100057E+03  0.7818608E-02  0.1040369E+00
         -2   -1    0    0    0  501 -0.00000000000E+00  0.00000000000E+00  0.60942231799E+02  0.60942231853E+02  0.25500000000E-02 0. -1.
          2   -1    0    0  501    0  0.00000000000E+00 -0.00000000000E+00 -0.68960674722E+03  0.68960674722E+03  0.25500000000E-02 0.  1.
    5000001    1    1    2    0    0 -0.39189790247E+02  0.32237967167E+01 -0.26006109100E+03  0.32981662114E+03  0.19900000000E+03 0.  0.
   -5000001    1    1    2    0    0  0.39189790247E+02 -0.32237967167E+01 -0.36860342442E+03  0.42073235794E+03  0.19900000000E+03 0.  0.
<mgrwt>
<rscale>  0 0.41000573E+03</rscale>
<asrwt>0</asrwt>
<pdfrwt beam="1">  1        2 0.98515245E-01 0.41000573E+03</pdfrwt>
<pdfrwt beam="2">  1       -2 0.87060335E-02 0.41000573E+03</pdfrwt>
<totfact> 0.38924028E+03</totfact>
</mgrwt>
</event>
<event>
 4    1  0.1869793E-005  0.8868914E+03  0.7818608E-02  0.9442118E-01
          2   -1    0    0  501    0  0.00000000000E+00  0.00000000000E+00  0.36123870959E+03  0.36123870960E+03  0.25500000000E-02 0.  1.
         -2   -1    0    0    0  501 -0.00000000000E+00 -0.00000000000E+00 -0.54436048056E+03  0.54436048057E+03  0.25500000000E-02 0. -1.
    5000001    1    1    2    0    0 -0.44359493429E+02  0.34122135717E+03 -0.29228645004E+03  0.49338843533E+03  0.19900000000E+03 0.  0.
   -5000001    1    1    2    0    0  0.44359493429E+02 -0.34122135717E+03  0.10916467906E+03  0.41221075483E+03  0.19900000000E+03 0.  0.
<mgrwt>
<rscale>  0 0.88689137E+03</rscale>
<asrwt>0</asrwt>
<pdfrwt beam="1">  1        2 0.51605530E-01 0.88689137E+03</pdfrwt>
<pdfrwt beam="2">  1       -2 0.77765783E-01 0.88689137E+03</pdfrwt>
<totfact> 0.14342926E+02</totfact>
</mgrwt>
</event>
<event>
 4    1  0.1869793E-005  0.1470297E+04  0.7818608E-02  0.8904449E-01
         -2   -1    0    0    0  501 -0.00000000000E+00  0.00000000000E+00  0.14369839381E+04  0.14369839381E+04  0.25500000000E-02 0. -1.
          2   -1    0    0  501    0  0.00000000000E+00 -0.00000000000E+00 -0.37609544226E+03  0.37609544226E+03  0.25500000000E-02 0.  1.
    5000001    1    1    2    0    0  0.53613571684E+03  0.24584203369E+01 -0.39199718792E+02  0.57322348927E+03  0.19900000000E+03 0.  0.
   -5000001    1    1    2    0    0 -0.53613571684E+03 -0.24584203369E+01  0.11000882147E+04  0.12398558911E+04  0.19900000000E+03 0.  0.
<mgrwt>
<rscale>  0 0.14702967E+04</rscale>
<asrwt>0</asrwt>
<pdfrwt beam="1">  1        2 0.53727922E-01 0.14702967E+04</pdfrwt>
<pdfrwt beam="2">  1       -2 0.20528341E+00 0.14702967E+04</pdfrwt>
<totfact> 0.11033973E+01</totfact>
</mgrwt>
</event>
<event>
 4    1  0.1869793E-005  0.6901835E+03  0.7818608E-02  0.9734168E-01
          2   -1    0    0  501    0  0.00000000000E+00  0.00000000000E+00  0.76988299999E+03  0.76988299999E+03  0.25500000000E-02 0.  1.
         -2   -1    0    0    0  501 -0.00000000000E+00 -0.00000000000E+00 -0.15468367033E+03  0.15468367035E+03  0.25500000000E-02 0. -1.
    5000001    1    1    2    0    0 -0.50367150851E+02 -0.23867284193E+03  0.49697956988E+03  0.58829522200E+03  0.19900000000E+03 0.  0.
   -5000001    1    1    2    0    0  0.50367150851E+02  0.23867284193E+03  0.11821975979E+03  0.33627144833E+03  0.19900000000E+03 0.  0.
<mgrwt>
<rscale>  0 0.69018354E+03</rscale>
<asrwt>0</asrwt>
<pdfrwt beam="1">  1        2 0.10998328E+00 0.69018354E+03</pdfrwt>
<pdfrwt beam="2">  1       -2 0.22097667E-01 0.69018354E+03</pdfrwt>
<totfact> 0.71677606E+02</totfact>
</mgrwt>
</event>
<event>
 4    1  0.1869793E-005  0.1071105E+04  0.7818608E-02  0.9233821E-01
         -2   -1    0    0    0  501 -0.00000000000E+00  0.00000000000E+00  0.12700640121E+03  0.12700640124E+03  0.25500000000E-02 0. -1.
          2   -1    0    0  501    0  0.00000000000E+00 -0.00000000000E+00 -0.22582855356E+04  0.22582855356E+04  0.25500000000E-02 0.  1.
    5000001    1    1    2    0    0 -0.11644317149E+03  0.45646415945E+03 -0.71144218326E+03  0.87616751890E+03  0.19900000000E+03 0.  0.
   -5000001    1    1    2    0    0  0.11644317149E+03 -0.45646415945E+03 -0.14198369511E+04  0.15091244180E+04  0.19900000000E+03 0.  0.
<mgrwt>
<rscale>  0 0.10711054E+04</rscale>
<asrwt>0</asrwt>
<pdfrwt beam="1">  1        2 0.32261219E+00 0.10711054E+04</pdfrwt>
<pdfrwt beam="2">  1       -2 0.18143773E-01 0.10711054E+04</pdfrwt>
<totfact> 0.14924473E+02</totfact>
</mgrwt>
</event>
<event>
 4    1  0.1869793E-005  0.5379704E+03  0.7818608E-02  0.1004317E+00
         -2   -1    0    0    0  501 -0.00000000000E+00  0.00000000000E+00  0.20685471068E+02  0.20685471225E+02  0.25500000000E-02 0. -1.
          2   -1    0    0  501    0  0.00000000000E+00 -0.00000000000E+00 -0.34977707106E+04  0.34977707106E+04  0.25500000000E-02 0.  1.
    5000001    1    1    2    0    0 -0.15524107513E+03  0.48079449489E+02 -0.22593286226E+04  0.22738905536E+04  0.19900000000E+03 0.  0.
   -5000001    1    1    2    0    0  0.15524107513E+03 -0.48079449489E+02 -0.12177566170E+04  0.12445656283E+04  0.19900000000E+03 0.  0.
<mgrwt>
<rscale>  0 0.53797039E+03</rscale>
<asrwt>0</asrwt>
<pdfrwt beam="1">  1        2 0.49968115E+00 0.53797039E+03</pdfrwt>
<pdfrwt beam="2">  1       -2 0.29550695E-02 0.53797039E+03</pdfrwt>
<totfact> 0.60992121E+02</totfact>
</mgrwt>
</event>
<event>
 4    1  0.1869793E-005  0.5869171E+03  0.7818608E-02  0.9932927E-01
         -2   -1    0    0    0  501 -0.00000000000E+00  0.00000000000E+00  0.38557826569E+02  0.38557826654E+02  0.25500000000E-02 0. -1.
          2   -1    0    0  501    0  0.00000000000E+00 -0.00000000000E+00 -0.22334742135E+04  0.22334742135E+04  0.25500000000E-02 0.  1.
    5000001    1    1    2    0    0 -0.10020158802E+03  0.57359144876E+02 -0.39224842745E+03  0.45474196923E+03  0.19900000000E+03 0.  0.
   -5000001    1    1    2    0    0  0.10020158802E+03 -0.57359144876E+02 -0.18026679595E+04  0.18172900710E+04  0.19900000000E+03 0.  0.
<mgrwt>
<rscale>  0 0.58691707E+03</rscale>
<asrwt>0</asrwt>
<pdfrwt beam="1">  1        2 0.31906766E+00 0.58691707E+03</pdfrwt>
<pdfrwt beam="2">  1       -2 0.55082624E-02 0.58691707E+03</pdfrwt>
<totfact> 0.11169635E+03</totfact>
</mgrwt>
</event>
<event>
 4    1  0.1869793E-005  0.5162178E+03  0.7818608E-02  0.1009630E+00
         -2   -1    0    0    0  501 -0.00000000000E+00  0.00000000000E+00  0.31563526439E+02  0.31563526542E+02  0.25500000000E-02 0. -1.
          2   -1    0    0  501    0  0.00000000000E+00 -0.00000000000E+00 -0.21106708471E+04  0.21106708471E+04  0.25500000000E-02 0.  1.
    5000001    1    1    2    0    0  0.14312966179E+03 -0.79552117232E+02 -0.10989091723E+04  0.11287236191E+04  0.19900000000E+03 0.  0.
   -5000001    1    1    2    0    0 -0.14312966179E+03  0.79552117232E+02 -0.98019814836E+03  0.10135107545E+04  0.19900000000E+03 0.  0.
<mgrwt>
<rscale>  0 0.51621784E+03</rscale>
<asrwt>0</asrwt>
<pdfrwt beam="1">  1        2 0.30152432E+00 0.51621784E+03</pdfrwt>
<pdfrwt beam="2">  1       -2 0.45090765E-02 0.51621784E+03</pdfrwt>
<totfact> 0.17619489E+03</totfact>
</mgrwt>
</event>
<event>
 4    1  0.1869793E-005  0.7981545E+03  0.7818608E-02  0.9562692E-01
          2   -1    0    0  501    0  0.00000000000E+00  0.00000000000E+00  0.30393650248E+04  0.30393650248E+04  0.25500000000E-02 0. -1.
         -2   -1    0    0    0  501 -0.00000000000E+00 -0.00000000000E+00 -0.52399980415E+02  0.52399980477E+02  0.25500000000E-02 0.  1.
    5000001    1    1    2    0    0  0.30871872318E+03 -0.47910359405E+02  0.20688065990E+04  0.21017051165E+04  0.19900000000E+03 0.  0.
   -5000001    1    1    2    0    0 -0.30871872318E+03  0.47910359405E+02  0.91815844540E+03  0.99005988881E+03  0.19900000000E+03 0.  0.
<mgrwt>
<rscale>  0 0.79815454E+03</rscale>
<asrwt>0</asrwt>
<pdfrwt beam="1">  1        2 0.43419523E+00 0.79815454E+03</pdfrwt>
<pdfrwt beam="2">  1       -2 0.74857076E-02 0.79815454E+03</pdfrwt>
<totfact> 0.25600443E+02</totfact>
</mgrwt>
</event>
<event>
 4    1  0.1869793E-005  0.8781326E+03  0.7818608E-02  0.9453337E-01
         -2   -1    0    0    0  501 -0.00000000000E+00  0.00000000000E+00  0.27095484041E+03  0.27095484042E+03  0.25500000000E-02 0. -1.
          2   -1    0    0  501    0  0.00000000000E+00 -0.00000000000E+00 -0.71148103758E+03  0.71148103758E+03  0.25500000000E-02 0.  1.
    5000001    1    1    2    0    0  0.72747617503E+02 -0.22212223875E+03  0.13094732831E+03  0.33373448666E+03  0.19900000000E+03 0.  0.
   -5000001    1    1    2    0    0 -0.72747617503E+02  0.22212223875E+03 -0.57147352548E+03  0.64870139133E+03  0.19900000000E+03 0.  0.
<mgrwt>
<rscale>  0 0.87813263E+03</rscale>
<asrwt>0</asrwt>
<pdfrwt beam="1">  1        2 0.10164015E+00 0.87813263E+03</pdfrwt>
<pdfrwt beam="2">  1       -2 0.38707835E-01 0.87813263E+03</pdfrwt>
<totfact> 0.27871449E+02</totfact>
</mgrwt>
</event>
<event>
 4    1  0.1869793E-005  0.5053743E+03  0.7818608E-02  0.1012386E+00
          2   -1    0    0  501    0  0.00000000000E+00  0.00000000000E+00  0.18075892181E+03  0.18075892182E+03  0.25500000000E-02 0.  1.
         -2   -1    0    0    0  501 -0.00000000000E+00 -0.00000000000E+00 -0.35323733261E+03  0.35323733262E+03  0.25500000000E-02 0. -1.
    5000001    1    1    2    0    0  0.14039602868E+03  0.54370668401E+02 -0.44204446586E+02  0.25342108742E+03  0.19900000000E+03 0.  0.
   -5000001    1    1    2    0    0 -0.14039602868E+03 -0.54370668401E+02 -0.12827396422E+03  0.28057516702E+03  0.19900000000E+03 0.  0.
<mgrwt>
<rscale>  0 0.50537431E+03</rscale>
<asrwt>0</asrwt>
<pdfrwt beam="1">  1        2 0.25822703E-01 0.50537431E+03</pdfrwt>
<pdfrwt beam="2">  1       -2 0.50462476E-01 0.50537431E+03</pdfrwt>
<totfact> 0.78762790E+02</totfact>
</mgrwt>
</event>
<event>
 4    1  0.1869793E-005  0.4709497E+03  0.7818608E-02  0.1021653E+00
          2   -1    0    0  501    0  0.00000000000E+00  0.00000000000E+00  0.82952183341E+03  0.82952183341E+03  0.25500000000E-02 0.  1.
         -2   -1    0    0    0  501 -0.00000000000E+00 -0.00000000000E+00 -0.66843816191E+02  0.66843816239E+02  0.25500000000E-02 0. -1.
    5000001    1    1    2    0    0  0.25917909693E+02  0.93323063248E+02  0.22828510580E+03  0.31795600593E+03  0.19900000000E+03 0.  0.
   -5000001    1    1    2    0    0 -0.25917909693E+02 -0.93323063248E+02  0.53439291142E+03  0.57840964372E+03  0.19900000000E+03 0.  0.
<mgrwt>
<rscale>  0 0.47094970E+03</rscale>
<asrwt>0</asrwt>
<pdfrwt beam="1">  1        2 0.11850312E+00 0.47094970E+03</pdfrwt>
<pdfrwt beam="2">  1       -2 0.95491169E-02 0.47094970E+03</pdfrwt>
<totfact> 0.26743337E+03</totfact>
</mgrwt>
</event>
<event>
 4    1  0.1869793E-005  0.6331960E+03  0.7818608E-02  0.9838832E-01
         -2   -1    0    0    0  501 -0.00000000000E+00  0.00000000000E+00  0.40234147369E+03  0.40234147370E+03  0.25500000000E-02 0. -1.
          2   -1    0    0  501    0  0.00000000000E+00 -0.00000000000E+00 -0.24912738534E+03  0.24912738535E+03  0.25500000000E-02 0.  1.
    5000001    1    1    2    0    0 -0.41130230215E+02 -0.11778631474E+03  0.29502559212E+03  0.37710265417E+03  0.19900000000E+03 0.  0.
   -5000001    1    1    2    0    0  0.41130230215E+02  0.11778631474E+03 -0.14181150377E+03  0.27436620488E+03  0.19900000000E+03 0.  0.
<mgrwt>
<rscale>  0 0.63319596E+03</rscale>
<asrwt>0</asrwt>
<pdfrwt beam="1">  1        2 0.35589626E-01 0.63319596E+03</pdfrwt>
<pdfrwt beam="2">  1       -2 0.57477353E-01 0.63319596E+03</pdfrwt>
<totfact> 0.41986918E+02</totfact>
</mgrwt>
</event>
<event>
 4    1  0.1869793E-005  0.4937416E+03  0.7818608E-02  0.1015425E+00
         -2   -1    0    0    0  501 -0.00000000000E+00  0.00000000000E+00  0.11329099337E+04  0.11329099337E+04  0.25500000000E-02 0. -1.
          2   -1    0    0  501    0  0.00000000000E+00 -0.00000000000E+00 -0.53795271515E+02  0.53795271576E+02  0.25500000000E-02 0.  1.
    5000001    1    1    2    0    0 -0.27836147023E+02 -0.12790321305E+03  0.69550901291E+03  0.73516519914E+03  0.19900000000E+03 0.  0.
   -5000001    1    1    2    0    0  0.27836147023E+02  0.12790321305E+03  0.38360564928E+03  0.45154000615E+03  0.19900000000E+03 0.  0.
<mgrwt>
<rscale>  0 0.49374162E+03</rscale>
<asrwt>0</asrwt>
<pdfrwt beam="1">  1        2 0.76850384E-02 0.49374162E+03</pdfrwt>
<pdfrwt beam="2">  1       -2 0.16184429E+00 0.49374162E+03</pdfrwt>
<totfact> 0.23228490E+02</totfact>
</mgrwt>
</event>
<event>
 4    1  0.1869793E-005  0.4618360E+03  0.7818608E-02  0.1024250E+00
          2   -1    0    0  501    0  0.00000000000E+00  0.00000000000E+00  0.19851817527E+04  0.19851817527E+04  0.25500000000E-02 0.  1.
         -2   -1    0    0    0  501 -0.00000000000E+00 -0.00000000000E+00 -0.26860571252E+02  0.26860571373E+02  0.25500000000E-02 0. -1.
    5000001    1    1    2    0    0 -0.28350638094E+02 -0.72414941441E+02  0.59750421391E+03  0.63455493699E+03  0.19900000000E+03 0.  0.
   -5000001    1    1    2    0    0  0.28350638094E+02  0.72414941441E+02  0.13608169675E+04  0.13774873871E+04  0.19900000000E+03 0.  0.
<mgrwt>
<rscale>  0 0.46183597E+03</rscale>
<asrwt>0</asrwt>
<pdfrwt beam="1">  1        2 0.28359748E+00 0.46183597E+03</pdfrwt>
<pdfrwt beam="2">  1       -2 0.38372233E-02 0.46183597E+03</pdfrwt>
<totfact> 0.26112421E+03</totfact>
</mgrwt>
</event>
<event>
 4    1  0.1869793E-005  0.9325037E+03  0.7818608E-02  0.9385838E-01
         -2   -1    0    0    0  501 -0.00000000000E+00  0.00000000000E+00  0.15407098414E+03  0.15407098416E+03  0.25500000000E-02 0. -1.
          2   -1    0    0  501    0  0.00000000000E+00 -0.00000000000E+00 -0.14109782211E+04  0.14109782211E+04  0.25500000000E-02 0.  1.
    5000001    1    1    2    0    0  0.23896282254E+03  0.26481160380E+03 -0.25106664348E+03  0.47944121176E+03  0.19900000000E+03 0.  0.
   -5000001    1    1    2    0    0 -0.23896282254E+03 -0.26481160380E+03 -0.10058405935E+04  0.10856079935E+04  0.19900000000E+03 0.  0.
<mgrwt>
<rscale>  0 0.93250373E+03</rscale>
<asrwt>0</asrwt>
<pdfrwt beam="1">  1        2 0.20156831E+00 0.93250373E+03</pdfrwt>
<pdfrwt beam="2">  1       -2 0.22010141E-01 0.93250373E+03</pdfrwt>
<totfact> 0.29399560E+02</totfact>
</mgrwt>
</event>
<event>
 4    1  0.1869793E-005  0.5367478E+03  0.7818608E-02  0.1004609E+00
         -2   -1    0    0    0  501 -0.00000000000E+00  0.00000000000E+00  0.78140913342E+02  0.78140913384E+02  0.25500000000E-02 0. -1.
          2   -1    0    0  501    0  0.00000000000E+00 -0.00000000000E+00 -0.92172655108E+03  0.92172655108E+03  0.25500000000E-02 0.  1.
    5000001    1    1    2    0    0  0.37829720160E+00  0.17980787040E+03 -0.43971289027E+03  0.51505285091E+03  0.19900000000E+03 0.  0.
   -5000001    1    1    2    0    0 -0.37829720160E+00 -0.17980787040E+03 -0.40387274747E+03  0.48481461356E+03  0.19900000000E+03 0.  0.
<mgrwt>
<rscale>  0 0.53674782E+03</rscale>
<asrwt>0</asrwt>
<pdfrwt beam="1">  1        2 0.13167522E+00 0.53674782E+03</pdfrwt>
<pdfrwt beam="2">  1       -2 0.11162988E-01 0.53674782E+03</pdfrwt>
<totfact> 0.18085580E+03</totfact>
</mgrwt>
</event>
<event>
 4    1  0.1869793E-005  0.5869436E+03  0.7818608E-02  0.9932870E-01
          2   -1    0    0  501    0  0.00000000000E+00  0.00000000000E+00  0.60676135101E+03  0.60676135102E+03  0.25500000000E-02 0.  1.
         -2   -1    0    0    0  501 -0.00000000000E+00 -0.00000000000E+00 -0.14194327457E+03  0.14194327459E+03  0.25500000000E-02 0. -1.
    5000001    1    1    2    0    0  0.20426949578E+02  0.16334994662E+03  0.54627755157E+02  0.26398041019E+03  0.19900000000E+03 0.  0.
   -5000001    1    1    2    0    0 -0.20426949578E+02 -0.16334994662E+03  0.41019032129E+03  0.48472421541E+03  0.19900000000E+03 0.  0.
<mgrwt>
<rscale>  0 0.58694359E+03</rscale>
<asrwt>0</asrwt>
<pdfrwt beam="1">  1        2 0.86680194E-01 0.58694359E+03</pdfrwt>
<pdfrwt beam="2">  1       -2 0.20277611E-01 0.58694359E+03</pdfrwt>
<totfact> 0.11167009E+03</totfact>
</mgrwt>
</event>
<event>
 4    1  0.1869793E-005  0.6553655E+03  0.7818608E-02  0.9796763E-01
         -2   -1    0    0    0  501 -0.00000000000E+00  0.00000000000E+00  0.11722745238E+03  0.11722745241E+03  0.25500000000E-02 0. -1.
          2   -1    0    0  501    0  0.00000000000E+00 -0.00000000000E+00 -0.91596283976E+03  0.91596283977E+03  0.25500000000E-02 0.  1.
    5000001    1    1    2    0    0  0.23119897120E+03  0.33646124094E+02 -0.21830935153E+03  0.37662315239E+03  0.19900000000E+03 0.  0.
   -5000001    1    1    2    0    0 -0.23119897120E+03 -0.33646124094E+02 -0.58042603585E+03  0.65656713978E+03  0.19900000000E+03 0.  0.
<mgrwt>
<rscale>  0 0.65536552E+03</rscale>
<asrwt>0</asrwt>
<pdfrwt beam="1">  1        2 0.13085183E+00 0.65536552E+03</pdfrwt>
<pdfrwt beam="2">  1       -2 0.16746779E-01 0.65536552E+03</pdfrwt>
<totfact> 0.92541448E+02</totfact>
</mgrwt>
</event>
<event>
 4    1  0.1869793E-005  0.4361642E+03  0.7818608E-02  0.1031930E+00
         -2   -1    0    0    0  501 -0.00000000000E+00  0.00000000000E+00  0.37028539075E+03  0.37028539076E+03  0.25500000000E-02 0. -1.
          2   -1    0    0  501    0  0.00000000000E+00 -0.00000000000E+00 -0.12844094174E+03  0.12844094177E+03  0.25500000000E-02 0.  1.
    5000001    1    1    2    0    0  0.87842564333E+02  0.11494585937E+02  0.10891000042E+03  0.24353814856E+03  0.19900000000E+03 0.  0.
   -5000001    1    1    2    0    0 -0.87842564333E+02 -0.11494585937E+02  0.13293444859E+03  0.25518818397E+03  0.19900000000E+03 0.  0.
<mgrwt>
<rscale>  0 0.43616421E+03</rscale>
<asrwt>0</asrwt>
<pdfrwt beam="1">  1        2 0.18348706E-01 0.43616421E+03</pdfrwt>
<pdfrwt beam="2">  1       -2 0.52897914E-01 0.43616421E+03</pdfrwt>
<totfact> 0.10609362E+03</totfact>
</mgrwt>
</event>
<event>
 4    1  0.1869793E-005  0.1051484E+04  0.7818608E-02  0.9253813E-01
         -2   -1    0    0    0  501 -0.00000000000E+00  0.00000000000E+00  0.28262659354E+03  0.28262659355E+03  0.25500000000E-02 0. -1.
          2   -1    0    0  501    0  0.00000000000E+00 -0.00000000000E+00 -0.97798505149E+03  0.97798505149E+03  0.25500000000E-02 0.  1.
    5000001    1    1    2    0    0  0.85770105908E+02 -0.38614473260E+03 -0.78640539358E+01  0.44286240406E+03  0.19900000000E+03 0.  0.
   -5000001    1    1    2    0    0 -0.85770105908E+02  0.38614473260E+03 -0.68749440401E+03  0.81774924099E+03  0.19900000000E+03 0.  0.
<mgrwt>
<rscale>  0 0.10514839E+04</rscale>
<asrwt>0</asrwt>
<pdfrwt beam="1">  1        2 0.13971215E+00 0.10514839E+04</pdfrwt>
<pdfrwt beam="2">  1       -2 0.40375228E-01 0.10514839E+04</pdfrwt>
<totfact> 0.16735747E+02</totfact>
</mgrwt>
</event>
<event>
 4    1  0.1869793E-005  0.4444542E+03  0.7818608E-02  0.1029389E+00
          2   -1    0    0  501    0  0.00000000000E+00  0.00000000000E+00  0.49068602508E+03  0.49068602509E+03  0.25500000000E-02 0.  1.
         -2   -1    0    0    0  501 -0.00000000000E+00 -0.00000000000E+00 -0.10064459030E+03  0.10064459034E+03  0.25500000000E-02 0. -1.
    5000001    1    1    2    0    0 -0.79476028319E+02  0.49337941191E+02  0.15225456057E+03  0.26745676797E+03  0.19900000000E+03 0.  0.
   -5000001    1    1    2    0    0  0.79476028319E+02 -0.49337941191E+02  0.23778687421E+03  0.32387384745E+03  0.19900000000E+03 0.  0.
<mgrwt>
<rscale>  0 0.44445424E+03</rscale>
<asrwt>0</asrwt>
<pdfrwt beam="1">  1        2 0.70098004E-01 0.44445424E+03</pdfrwt>
<pdfrwt beam="2">  1       -2 0.14377798E-01 0.44445424E+03</pdfrwt>
<totfact> 0.25576824E+03</totfact>
</mgrwt>
</event>
<event>
 4    1  0.1869793E-005  0.7118963E+03  0.7818608E-02  0.9697101E-01
          2   -1    0    0  501    0  0.00000000000E+00  0.00000000000E+00  0.23478125163E+04  0.23478125163E+04  0.25500000000E-02 0.  1.
         -2   -1    0    0    0  501 -0.00000000000E+00 -0.00000000000E+00 -0.53964736260E+02  0.53964736320E+02  0.25500000000E-02 0. -1.
    5000001    1    1    2    0    0 -0.23945002269E+03 -0.73509367684E+02  0.62037575196E+03  0.69800215911E+03  0.19900000000E+03 0.  0.
   -5000001    1    1    2    0    0  0.23945002269E+03  0.73509367684E+02  0.16734720280E+04  0.17037750935E+04  0.19900000000E+03 0.  0.
<mgrwt>
<rscale>  0 0.71189629E+03</rscale>
<asrwt>0</asrwt>
<pdfrwt beam="1">  1        2 0.33540173E+00 0.71189629E+03</pdfrwt>
<pdfrwt beam="2">  1       -2 0.77092493E-02 0.71189629E+03</pdfrwt>
<totfact> 0.57046249E+02</totfact>
</mgrwt>
</event>
<event>
 4    1  0.1869793E-005  0.6235964E+03  0.7818608E-02  0.9857625E-01
         -2   -1    0    0    0  501 -0.00000000000E+00  0.00000000000E+00  0.12982085491E+03  0.12982085494E+03  0.25500000000E-02 0. -1.
          2   -1    0    0  501    0  0.00000000000E+00 -0.00000000000E+00 -0.74886353628E+03  0.74886353629E+03  0.25500000000E-02 0.  1.
    5000001    1    1    2    0    0 -0.16679799915E+03  0.57481379386E+02 -0.80180191063E+02  0.27776886891E+03  0.19900000000E+03 0.  0.
   -5000001    1    1    2    0    0  0.16679799915E+03 -0.57481379386E+02 -0.53886249031E+03  0.60091552231E+03  0.19900000000E+03 0.  0.
<mgrwt>
<rscale>  0 0.62359636E+03</rscale>
<asrwt>0</asrwt>
<pdfrwt beam="1">  1        2 0.10698050E+00 0.62359636E+03</pdfrwt>
<pdfrwt beam="2">  1       -2 0.18545837E-01 0.62359636E+03</pdfrwt>
<totfact> 0.10096518E+03</totfact>
</mgrwt>
</event>
<event>
 4    1  0.1869793E-005  0.5764620E+03  0.7818608E-02  0.9955480E-01
         -2   -1    0    0    0  501 -0.00000000000E+00  0.00000000000E+00  0.83770803822E+02  0.83770803861E+02  0.25500000000E-02 0. -1.
          2   -1    0    0  501    0  0.00000000000E+00 -0.00000000000E+00 -0.99171906738E+03  0.99171906738E+03  0.25500000000E-02 0.  1.
    5000001    1    1    2    0    0  0.48895079149E+02 -0.19743325740E+03 -0.36836667714E+03  0.46547355319E+03  0.19900000000E+03 0.  0.
   -5000001    1    1    2    0    0 -0.48895079149E+02  0.19743325740E+03 -0.53958158642E+03  0.61001631806E+03  0.19900000000E+03 0.  0.
<mgrwt>
<rscale>  0 0.57646198E+03</rscale>
<asrwt>0</asrwt>
<pdfrwt beam="1">  1        2 0.14167415E+00 0.57646198E+03</pdfrwt>
<pdfrwt beam="2">  1       -2 0.11967258E-01 0.57646198E+03</pdfrwt>
<totfact> 0.14590613E+03</totfact>
</mgrwt>
</event>
<event>
 4    1  0.1869793E-005  0.4923413E+03  0.7818608E-02  0.1015798E+00
          2   -1    0    0  501    0  0.00000000000E+00  0.00000000000E+00  0.16693592526E+04  0.16693592526E+04  0.25500000000E-02 0.  1.
         -2   -1    0    0    0  501 -0.00000000000E+00 -0.00000000000E+00 -0.36301343558E+02  0.36301343647E+02  0.25500000000E-02 0. -1.
    5000001    1    1    2    0    0  0.37467733818E+02  0.11787785274E+03  0.10780836045E+04  0.11032516837E+04  0.19900000000E+03 0.  0.
   -5000001    1    1    2    0    0 -0.37467733818E+02 -0.11787785274E+03  0.55497430454E+03  0.60240891257E+03  0.19900000000E+03 0.  0.
<mgrwt>
<rscale>  0 0.49234128E+03</rscale>
<asrwt>0</asrwt>
<pdfrwt beam="1">  1        2 0.23847985E+00 0.49234128E+03</pdfrwt>
<pdfrwt beam="2">  1       -2 0.51859071E-02 0.49234128E+03</pdfrwt>
<totfact> 0.23647477E+03</totfact>
</mgrwt>
</event>
<event>
 4    1  0.1869793E-005  0.4831745E+03  0.7818608E-02  0.1018266E+00
         -2   -1    0    0    0  501 -0.00000000000E+00  0.00000000000E+00  0.17680024966E+03  0.17680024968E+03  0.25500000000E-02 0. -1.
          2   -1    0    0  501    0  0.00000000000E+00 -0.00000000000E+00 -0.33011486016E+03  0.33011486016E+03  0.25500000000E-02 0.  1.
    5000001    1    1    2    0    0 -0.69548097376E+02  0.11574407634E+03 -0.52509864359E+02  0.24615425024E+03  0.19900000000E+03 0.  0.
   -5000001    1    1    2    0    0  0.69548097376E+02 -0.11574407634E+03 -0.10080474614E+03  0.26076085960E+03  0.19900000000E+03 0.  0.
<mgrwt>
<rscale>  0 0.48317446E+03</rscale>
<asrwt>0</asrwt>
<pdfrwt beam="1">  1        2 0.47159266E-01 0.48317446E+03</pdfrwt>
<pdfrwt beam="2">  1       -2 0.25257179E-01 0.48317446E+03</pdfrwt>
<totfact> 0.15025522E+03</totfact>
</mgrwt>
</event>
<event>
 4    1  0.1869793E-005  0.1144011E+04  0.7818608E-02  0.9163326E-01
          2   -1    0    0  501    0  0.00000000000E+00  0.00000000000E+00  0.73358637671E+03  0.73358637672E+03  0.25500000000E-02 0.  1.
         -2   -1    0    0    0  501 -0.00000000000E+00 -0.00000000000E+00 -0.44601469020E+03  0.44601469021E+03  0.25500000000E-02 0. -1.
    5000001    1    1    2    0    0 -0.51362055336E+03 -0.14475880425E+03  0.19862030493E+03  0.60316847544E+03  0.19900000000E+03 0.  0.
   -5000001    1    1    2    0    0  0.51362055336E+03  0.14475880425E+03  0.88951381581E+02  0.57643259148E+03  0.19900000000E+03 0.  0.
<mgrwt>
<rscale>  0 0.11440110E+04</rscale>
<asrwt>0</asrwt>
<pdfrwt beam="1">  1        2 0.10479805E+00 0.11440110E+04</pdfrwt>
<pdfrwt beam="2">  1       -2 0.63716384E-01 0.11440110E+04</pdfrwt>
<totfact> 0.95875191E+01</totfact>
</mgrwt>
</event>
<event>
 4    1  0.1869793E-005  0.6785850E+03  0.7818608E-02  0.9754572E-01
          2   -1    0    0  501    0  0.00000000000E+00  0.00000000000E+00  0.50396977458E+03  0.50396977458E+03  0.25500000000E-02 0.  1.
         -2   -1    0    0    0  501 -0.00000000000E+00 -0.00000000000E+00 -0.22842517778E+03  0.22842517779E+03  0.25500000000E-02 0. -1.
    5000001    1    1    2    0    0  0.18216038166E+03  0.20242380177E+03  0.97961216017E+02  0.35121958945E+03  0.19900000000E+03 0.  0.
   -5000001    1    1    2    0    0 -0.18216038166E+03 -0.20242380177E+03  0.17758338078E+03  0.38117536293E+03  0.19900000000E+03 0.  0.
<mgrwt>
<rscale>  0 0.67858496E+03</rscale>
<asrwt>0</asrwt>
<pdfrwt beam="1">  1        2 0.71995681E-01 0.67858496E+03</pdfrwt>
<pdfrwt beam="2">  1       -2 0.32632169E-01 0.67858496E+03</pdfrwt>
<totfact> 0.58531331E+02</totfact>
</mgrwt>
</event>
<event>
 4    1  0.1869793E-005  0.6476485E+03  0.7818608E-02  0.9811202E-01
         -2   -1    0    0    0  501 -0.00000000000E+00  0.00000000000E+00  0.60773907055E+02  0.60773907109E+02  0.25500000000E-02 0. -1.
          2   -1    0    0  501    0  0.00000000000E+00 -0.00000000000E+00 -0.17254466476E+04  0.17254466476E+04  0.25500000000E-02 0.  1.
    5000001    1    1    2    0    0 -0.17930261990E+02 -0.24373419822E+03 -0.62717901761E+03  0.70191336631E+03  0.19900000000E+03 0.  0.
   -5000001    1    1    2    0    0  0.17930261990E+02  0.24373419822E+03 -0.10374937229E+04  0.10843071884E+04  0.19900000000E+03 0.  0.
<mgrwt>
<rscale>  0 0.64764847E+03</rscale>
<asrwt>0</asrwt>
<pdfrwt beam="1">  1        2 0.24649235E+00 0.64764847E+03</pdfrwt>
<pdfrwt beam="2">  1       -2 0.86819878E-02 0.64764847E+03</pdfrwt>
<totfact> 0.97785846E+02</totfact>
</mgrwt>
</event>
<event>
 4    1  0.1869793E-005  0.5828104E+03  0.7818608E-02  0.9941725E-01
         -2   -1    0    0    0  501 -0.00000000000E+00  0.00000000000E+00  0.30414979086E+02  0.30414979193E+02  0.25500000000E-02 0. -1.
          2   -1    0    0  501    0  0.00000000000E+00 -0.00000000000E+00 -0.27919460323E+04  0.27919460323E+04  0.25500000000E-02 0.  1.
    5000001    1    1    2    0    0 -0.34736439231E+02  0.98996950118E+02 -0.48377243263E+03  0.53352018042E+03  0.19900000000E+03 0.  0.
   -5000001    1    1    2    0    0  0.34736439231E+02 -0.98996950118E+02 -0.22777586206E+04  0.22888408310E+04  0.19900000000E+03 0.  0.
<mgrwt>
<rscale>  0 0.58281036E+03</rscale>
<asrwt>0</asrwt>
<pdfrwt beam="1">  1        2 0.39884927E+00 0.58281036E+03</pdfrwt>
<pdfrwt beam="2">  1       -2 0.43449988E-02 0.58281036E+03</pdfrwt>
<totfact> 0.83283494E+02</totfact>
</mgrwt>
</event>
<event>
 4    1  0.1869793E-005  0.5304794E+03  0.7818608E-02  0.1006116E+00
          2   -1    0    0  501    0  0.00000000000E+00  0.00000000000E+00  0.50750506407E+03  0.50750506408E+03  0.25500000000E-02 0.  1.
         -2   -1    0    0    0  501 -0.00000000000E+00 -0.00000000000E+00 -0.13862345892E+03  0.13862345894E+03  0.25500000000E-02 0. -1.
    5000001    1    1    2    0    0  0.11255322533E+03  0.13122393382E+03  0.22022535010E+03  0.34349403803E+03  0.19900000000E+03 0.  0.
   -5000001    1    1    2    0    0 -0.11255322533E+03 -0.13122393382E+03  0.14865625505E+03  0.30263448499E+03  0.19900000000E+03 0.  0.
<mgrwt>
<rscale>  0 0.53047943E+03</rscale>
<asrwt>0</asrwt>
<pdfrwt beam="1">  1        2 0.72500724E-01 0.53047943E+03</pdfrwt>
<pdfrwt beam="2">  1       -2 0.19803351E-01 0.53047943E+03</pdfrwt>
<totfact> 0.14309553E+03</totfact>
</mgrwt>
</event>
<event>
 4    1  0.1869793E-005  0.6021977E+03  0.7818608E-02  0.9900857E-01
         -2   -1    0    0    0  501 -0.00000000000E+00  0.00000000000E+00  0.92974539507E+02  0.92974539542E+02  0.25500000000E-02 0. -1.
          2   -1    0    0  501    0  0.00000000000E+00 -0.00000000000E+00 -0.97511136198E+03  0.97511136198E+03  0.25500000000E-02 0.  1.
    5000001    1    1    2    0    0 -0.20266155029E+03  0.94985960333E+02 -0.49617984114E+03  0.57955972201E+03  0.19900000000E+03 0.  0.
   -5000001    1    1    2    0    0  0.20266155029E+03 -0.94985960333E+02 -0.38595698134E+03  0.48852617951E+03  0.19900000000E+03 0.  0.
<mgrwt>
<rscale>  0 0.60219774E+03</rscale>
<asrwt>0</asrwt>
<pdfrwt beam="1">  1        2 0.13930162E+00 0.60219774E+03</pdfrwt>
<pdfrwt beam="2">  1       -2 0.13282078E-01 0.60219774E+03</pdfrwt>
<totfact> 0.12566783E+03</totfact>
</mgrwt>
</event>
<event>
 4    1  0.1869793E-005  0.6468343E+03  0.7818608E-02  0.9812738E-01
         -2   -1    0    0    0  501 -0.00000000000E+00  0.00000000000E+00  0.19033897862E+03  0.19033897863E+03  0.25500000000E-02 0. -1.
          2   -1    0    0  501    0  0.00000000000E+00 -0.00000000000E+00 -0.54953887238E+03  0.54953887239E+03  0.25500000000E-02 0.  1.
    5000001    1    1    2    0    0 -0.13300981835E+03  0.21057340550E+03 -0.24188326560E+03  0.40017656735E+03  0.19900000000E+03 0.  0.
   -5000001    1    1    2    0    0  0.13300981835E+03 -0.21057340550E+03 -0.11731662817E+03  0.33970128367E+03  0.19900000000E+03 0.  0.
<mgrwt>
<rscale>  0 0.64683435E+03</rscale>
<asrwt>0</asrwt>
<pdfrwt beam="1">  1        2 0.78505552E-01 0.64683435E+03</pdfrwt>
<pdfrwt beam="2">  1       -2 0.27191283E-01 0.64683435E+03</pdfrwt>
<totfact> 0.74278299E+02</totfact>
</mgrwt>
</event>
<event>
 4    1  0.1869793E-005  0.9445500E+03  0.7818608E-02  0.9371544E-01
         -2   -1    0    0    0  501 -0.00000000000E+00  0.00000000000E+00  0.20439845210E+03  0.20439845211E+03  0.25500000000E-02 0. -1.
          2   -1    0    0  501    0  0.00000000000E+00 -0.00000000000E+00 -0.10912199140E+04  0.10912199140E+04  0.25500000000E-02 0.  1.
    5000001    1    1    2    0    0 -0.41461141140E+03  0.37958289198E+02 -0.30556421386E+03  0.55345636049E+03  0.19900000000E+03 0.  0.
   -5000001    1    1    2    0    0  0.41461141140E+03 -0.37958289198E+02 -0.58125724803E+03  0.74216200561E+03  0.19900000000E+03 0.  0.
<mgrwt>
<rscale>  0 0.94454997E+03</rscale>
<asrwt>0</asrwt>
<pdfrwt beam="1">  1        2 0.15588856E+00 0.94454997E+03</pdfrwt>
<pdfrwt beam="2">  1       -2 0.29199779E-01 0.94454997E+03</pdfrwt>
<totfact> 0.26606855E+02</totfact>
</mgrwt>
</event>
<event>
 4    1  0.1869793E-005  0.5700648E+03  0.7818608E-02  0.9969535E-01
          2   -1    0    0  501    0  0.00000000000E+00  0.00000000000E+00  0.21355765694E+03  0.21355765695E+03  0.25500000000E-02 0.  1.
         -2   -1    0    0    0  501 -0.00000000000E+00 -0.00000000000E+00 -0.38042878597E+03  0.38042878597E+03  0.25500000000E-02 0. -1.
    5000001    1    1    2    0    0  0.14159996946E+03  0.40580627456E+02  0.63718017650E+02  0.25565274192E+03  0.19900000000E+03 0.  0.
   -5000001    1    1    2    0    0 -0.14159996946E+03 -0.40580627456E+02 -0.23058914668E+03  0.33833370101E+03  0.19900000000E+03 0.  0.
<mgrwt>
<rscale>  0 0.57006484E+03</rscale>
<asrwt>0</asrwt>
<pdfrwt beam="1">  1        2 0.30508237E-01 0.57006484E+03</pdfrwt>
<pdfrwt beam="2">  1       -2 0.54346969E-01 0.57006484E+03</pdfrwt>
<totfact> 0.56068632E+02</totfact>
</mgrwt>
</event>
<event>
 4    1  0.1869793E-005  0.7222972E+03  0.7818608E-02  0.9679843E-01
         -2   -1    0    0    0  501 -0.00000000000E+00  0.00000000000E+00  0.63561437408E+02  0.63561437459E+02  0.25500000000E-02 0. -1.
          2   -1    0    0  501    0  0.00000000000E+00 -0.00000000000E+00 -0.20520036937E+04  0.20520036937E+04  0.25500000000E-02 0.  1.
    5000001    1    1    2    0    0  0.10797328602E+03  0.58950282831E+02 -0.18839558290E+03  0.30037853118E+03  0.19900000000E+03 0.  0.
   -5000001    1    1    2    0    0 -0.10797328602E+03 -0.58950282831E+02 -0.18000466734E+04  0.18151866000E+04  0.19900000000E+03 0.  0.
<mgrwt>
<rscale>  0 0.72229718E+03</rscale>
<asrwt>0</asrwt>
<pdfrwt beam="1">  1        2 0.29314334E+00 0.72229718E+03</pdfrwt>
<pdfrwt beam="2">  1       -2 0.90802066E-02 0.72229718E+03</pdfrwt>
<totfact> 0.61923145E+02</totfact>
</mgrwt>
</event>
<event>
 4    1  0.1869793E-005  0.5056999E+03  0.7818608E-02  0.1012302E+00
          2   -1    0    0  501    0  0.00000000000E+00  0.00000000000E+00  0.48406874364E+03  0.48406874365E+03  0.25500000000E-02 0.  1.
         -2   -1    0    0    0  501 -0.00000000000E+00 -0.00000000000E+00 -0.13207442441E+03  0.13207442444E+03  0.25500000000E-02 0. -1.
    5000001    1    1    2    0    0 -0.97499940407E+02  0.87087784993E+02  0.27967965116E+03  0.36730399936E+03  0.19900000000E+03 0.  0.
   -5000001    1    1    2    0    0  0.97499940407E+02 -0.87087784993E+02  0.72314668070E+02  0.24883916873E+03  0.19900000000E+03 0.  0.
<mgrwt>
<rscale>  0 0.50569991E+03</rscale>
<asrwt>0</asrwt>
<pdfrwt beam="1">  1        2 0.69152678E-01 0.50569991E+03</pdfrwt>
<pdfrwt beam="2">  1       -2 0.18867775E-01 0.50569991E+03</pdfrwt>
<totfact> 0.16412027E+03</totfact>
</mgrwt>
</event>
<event>
 4    1  0.1869793E-005  0.5884271E+03  0.7818608E-02  0.9929711E-01
         -2   -1    0    0    0  501 -0.00000000000E+00  0.00000000000E+00  0.72317177312E+02  0.72317177357E+02  0.25500000000E-02 0. -1.
          2   -1    0    0  501    0  0.00000000000E+00 -0.00000000000E+00 -0.11969715064E+04  0.11969715064E+04  0.25500000000E-02 0.  1.
    5000001    1    1    2    0    0  0.20464057313E+03 -0.59128899968E+02 -0.64824885784E+03  0.71077533206E+03  0.19900000000E+03 0.  0.
   -5000001    1    1    2    0    0 -0.20464057313E+03  0.59128899968E+02 -0.47640547124E+03  0.55851335169E+03  0.19900000000E+03 0.  0.
<mgrwt>
<rscale>  0 0.58842706E+03</rscale>
<asrwt>0</asrwt>
<pdfrwt beam="1">  1        2 0.17099592E+00 0.58842706E+03</pdfrwt>
<pdfrwt beam="2">  1       -2 0.10331026E-01 0.58842706E+03</pdfrwt>
<totfact> 0.14077281E+03</totfact>
</mgrwt>
</event>
<event>
 4    1  0.1869793E-005  0.5124688E+03  0.7818608E-02  0.1010575E+00
         -2   -1    0    0    0  501 -0.00000000000E+00  0.00000000000E+00  0.35922517714E+02  0.35922517804E+02  0.25500000000E-02 0. -1.
          2   -1    0    0  501    0  0.00000000000E+00 -0.00000000000E+00 -0.18277131581E+04  0.18277131581E+04  0.25500000000E-02 0.  1.
    5000001    1    1    2    0    0  0.10701644989E+03 -0.11443428084E+03 -0.10370834710E+04  0.10675630431E+04  0.19900000000E+03 0.  0.
   -5000001    1    1    2    0    0 -0.10701644989E+03  0.11443428084E+03 -0.75470716946E+03  0.79607263288E+03  0.19900000000E+03 0.  0.
<mgrwt>
<rscale>  0 0.51246876E+03</rscale>
<asrwt>0</asrwt>
<pdfrwt beam="1">  1        2 0.26110182E+00 0.51246876E+03</pdfrwt>
<pdfrwt beam="2">  1       -2 0.51317894E-02 0.51246876E+03</pdfrwt>
<totfact> 0.19990262E+03</totfact>
</mgrwt>
</event>
<event>
 4    1  0.1869793E-005  0.5140624E+03  0.7818608E-02  0.1010172E+00
          2   -1    0    0  501    0  0.00000000000E+00  0.00000000000E+00  0.83481169670E+02  0.83481169709E+02  0.25500000000E-02 0.  1.
         -2   -1    0    0    0  501 -0.00000000000E+00 -0.00000000000E+00 -0.79137639011E+03  0.79137639012E+03  0.25500000000E-02 0. -1.
    5000001    1    1    2    0    0  0.13749995835E+03 -0.86030026041E+02 -0.37524611041E+03  0.45466256422E+03  0.19900000000E+03 0.  0.
   -5000001    1    1    2    0    0 -0.13749995835E+03  0.86030026041E+02 -0.33264911003E+03  0.42019499561E+03  0.19900000000E+03 0.  0.
<mgrwt>
<rscale>  0 0.51406236E+03</rscale>
<asrwt>0</asrwt>
<pdfrwt beam="1">  1        2 0.11925882E-01 0.51406236E+03</pdfrwt>
<pdfrwt beam="2">  1       -2 0.11305377E+00 0.51406236E+03</pdfrwt>
<totfact> 0.33110200E+02</totfact>
</mgrwt>
</event>
<event>
 4    1  0.1869793E-005  0.6611743E+03  0.7818608E-02  0.9786034E-01
         -2   -1    0    0    0  501 -0.00000000000E+00  0.00000000000E+00  0.64478762158E+02  0.64478762208E+02  0.25500000000E-02 0. -1.
          2   -1    0    0  501    0  0.00000000000E+00 -0.00000000000E+00 -0.16949436691E+04  0.16949436691E+04  0.25500000000E-02 0.  1.
    5000001    1    1    2    0    0  0.12997161292E+03  0.22097651285E+03 -0.64769931599E+03  0.72445748207E+03  0.19900000000E+03 0.  0.
   -5000001    1    1    2    0    0 -0.12997161292E+03 -0.22097651285E+03 -0.98276559099E+03  0.10349649493E+04  0.19900000000E+03 0.  0.
<mgrwt>
<rscale>  0 0.66117432E+03</rscale>
<asrwt>0</asrwt>
<pdfrwt beam="1">  1        2 0.24213478E+00 0.66117432E+03</pdfrwt>
<pdfrwt beam="2">  1       -2 0.92112528E-02 0.66117432E+03</pdfrwt>
<totfact> 0.92081429E+02</totfact>
</mgrwt>
</event>
<event>
 4    1  0.1869793E-005  0.6585574E+03  0.7818608E-02  0.9790853E-01
          2   -1    0    0  501    0  0.00000000000E+00  0.00000000000E+00  0.25604587567E+04  0.25604587567E+04  0.25500000000E-02 0.  1.
         -2   -1    0    0    0  501 -0.00000000000E+00 -0.00000000000E+00 -0.42345723508E+02  0.42345723584E+02  0.25500000000E-02 0. -1.
    5000001    1    1    2    0    0  0.74646246914E+02 -0.17661989636E+03  0.19666896455E+04  0.19860100231E+04  0.19900000000E+03 0.  0.
   -5000001    1    1    2    0    0 -0.74646246914E+02  0.17661989636E+03  0.55142338765E+03  0.61679445719E+03  0.19900000000E+03 0.  0.
<mgrwt>
<rscale>  0 0.65855745E+03</rscale>
<asrwt>0</asrwt>
<pdfrwt beam="1">  1        2 0.36577984E+00 0.65855745E+03</pdfrwt>
<pdfrwt beam="2">  1       -2 0.60493888E-02 0.65855745E+03</pdfrwt>
<totfact> 0.65376157E+02</totfact>
</mgrwt>
</event>
<event>
 4    1  0.1869793E-005  0.6275244E+03  0.7818608E-02  0.9849892E-01
          2   -1    0    0  501    0  0.00000000000E+00  0.00000000000E+00  0.33116416530E+03  0.33116416531E+03  0.25500000000E-02 0.  1.
         -2   -1    0    0    0  501 -0.00000000000E+00 -0.00000000000E+00 -0.29727463900E+03  0.29727463901E+03  0.25500000000E-02 0. -1.
    5000001    1    1    2    0    0  0.20922428665E+03  0.11581616668E+03  0.57716755409E+02  0.31641809437E+03  0.19900000000E+03 0.  0.
   -5000001    1    1    2    0    0 -0.20922428665E+03 -0.11581616668E+03 -0.23827229110E+02  0.31202070995E+03  0.19900000000E+03 0.  0.
<mgrwt>
<rscale>  0 0.62752437E+03</rscale>
<asrwt>0</asrwt>
<pdfrwt beam="1">  1        2 0.47309167E-01 0.62752437E+03</pdfrwt>
<pdfrwt beam="2">  1       -2 0.42467805E-01 0.62752437E+03</pdfrwt>
<totfact> 0.56529492E+02</totfact>
</mgrwt>
</event>
<event>
 4    1  0.1869793E-005  0.1010641E+04  0.7818608E-02  0.9296950E-01
          2   -1    0    0  501    0  0.00000000000E+00  0.00000000000E+00  0.10314867160E+04  0.10314867160E+04  0.25500000000E-02 0.  1.
         -2   -1    0    0    0  501 -0.00000000000E+00 -0.00000000000E+00 -0.24755425088E+03  0.24755425090E+03  0.25500000000E-02 0. -1.
    5000001    1    1    2    0    0  0.38108275931E+03  0.11073583941E+03  0.86489596478E+02  0.45229188128E+03  0.19900000000E+03 0.  0.
   -5000001    1    1    2    0    0 -0.38108275931E+03 -0.11073583941E+03  0.69744286864E+03  0.82674908563E+03  0.19900000000E+03 0.  0.
<mgrwt>
<rscale>  0 0.10106412E+04</rscale>
<asrwt>0</asrwt>
<pdfrwt beam="1">  1        2 0.14735524E+00 0.10106412E+04</pdfrwt>
<pdfrwt beam="2">  1       -2 0.35364893E-01 0.10106412E+04</pdfrwt>
<totfact> 0.20085195E+02</totfact>
</mgrwt>
</event>
<event>
 4    1  0.1869793E-005  0.4122282E+03  0.7818608E-02  0.1039626E+00
         -2   -1    0    0    0  501 -0.00000000000E+00  0.00000000000E+00  0.31423181442E+02  0.31423181546E+02  0.25500000000E-02 0. -1.
          2   -1    0    0  501    0  0.00000000000E+00 -0.00000000000E+00 -0.13519646950E+04  0.13519646950E+04  0.25500000000E-02 0.  1.
    5000001    1    1    2    0    0 -0.46831562075E+01  0.44449121787E+02 -0.56047212310E+03  0.59642908812E+03  0.19900000000E+03 0.  0.
   -5000001    1    1    2    0    0  0.46831562075E+01 -0.44449121787E+02 -0.76006939049E+03  0.78695878846E+03  0.19900000000E+03 0.  0.
<mgrwt>
<rscale>  0 0.41222825E+03</rscale>
<asrwt>0</asrwt>
<pdfrwt beam="1">  1        2 0.19313778E+00 0.41222825E+03</pdfrwt>
<pdfrwt beam="2">  1       -2 0.44890268E-02 0.41222825E+03</pdfrwt>
<totfact> 0.43070154E+03</totfact>
</mgrwt>
</event>
<event>
 4    1  0.1869793E-005  0.8391768E+03  0.7818608E-02  0.9504980E-01
          2   -1    0    0  501    0  0.00000000000E+00  0.00000000000E+00  0.21487034370E+03  0.21487034371E+03  0.25500000000E-02 0.  1.
         -2   -1    0    0    0  501 -0.00000000000E+00 -0.00000000000E+00 -0.81935193396E+03  0.81935193396E+03  0.25500000000E-02 0. -1.
    5000001    1    1    2    0    0  0.11494869696E+03  0.34867137993E+03 -0.25189963744E+03  0.48768777046E+03  0.19900000000E+03 0.  0.
   -5000001    1    1    2    0    0 -0.11494869696E+03 -0.34867137993E+03 -0.35258195282E+03  0.54653450721E+03  0.19900000000E+03 0.  0.
<mgrwt>
<rscale>  0 0.83917681E+03</rscale>
<asrwt>0</asrwt>
<pdfrwt beam="1">  1        2 0.30695764E-01 0.83917681E+03</pdfrwt>
<pdfrwt beam="2">  1       -2 0.11705027E+00 0.83917681E+03</pdfrwt>
<totfact> 0.98491188E+01</totfact>
</mgrwt>
</event>
<event>
 4    1  0.1869793E-005  0.4759436E+03  0.7818608E-02  0.1020256E+00
         -2   -1    0    0    0  501 -0.00000000000E+00  0.00000000000E+00  0.14138969715E+02  0.14138969945E+02  0.25500000000E-02 0. -1.
          2   -1    0    0  501    0  0.00000000000E+00 -0.00000000000E+00 -0.40052826475E+04  0.40052826475E+04  0.25500000000E-02 0.  1.
    5000001    1    1    2    0    0 -0.93166436797E+02 -0.86360172471E+02 -0.22477284035E+04  0.22600933698E+04  0.19900000000E+03 0.  0.
   -5000001    1    1    2    0    0  0.93166436797E+02  0.86360172471E+02 -0.17434152742E+04  0.17593282476E+04  0.19900000000E+03 0.  0.
<mgrwt>
<rscale>  0 0.47594357E+03</rscale>
<asrwt>0</asrwt>
<pdfrwt beam="1">  1        2 0.57218251E+00 0.47594357E+03</pdfrwt>
<pdfrwt beam="2">  1       -2 0.20198554E-02 0.47594357E+03</pdfrwt>
<totfact> 0.52511289E+02</totfact>
</mgrwt>
</event>
<event>
 4    1  0.1869793E-005  0.9854927E+03  0.7818608E-02  0.9324601E-01
          2   -1    0    0  501    0  0.00000000000E+00  0.00000000000E+00  0.10606278849E+04  0.10606278849E+04  0.25500000000E-02 0.  1.
         -2   -1    0    0    0  501 -0.00000000000E+00 -0.00000000000E+00 -0.22892003433E+03  0.22892003434E+03  0.25500000000E-02 0. -1.
    5000001    1    1    2    0    0 -0.16496963139E+03 -0.41947768868E+03  0.40979198718E+03  0.64086424720E+03  0.19900000000E+03 0.  0.
   -5000001    1    1    2    0    0  0.16496963139E+03  0.41947768868E+03  0.42191586335E+03  0.64868367201E+03  0.19900000000E+03 0.  0.
<mgrwt>
<rscale>  0 0.98549271E+03</rscale>
<asrwt>0</asrwt>
<pdfrwt beam="1">  1        2 0.15151827E+00 0.98549271E+03</pdfrwt>
<pdfrwt beam="2">  1       -2 0.32702862E-01 0.98549271E+03</pdfrwt>
<totfact> 0.22406135E+02</totfact>
</mgrwt>
</event>
<event>
 4    1  0.1869793E-005  0.1226730E+04  0.7818608E-02  0.9089776E-01
          2   -1    0    0  501    0  0.00000000000E+00  0.00000000000E+00  0.30103913767E+04  0.30103913767E+04  0.25500000000E-02 0.  1.
         -2   -1    0    0    0  501 -0.00000000000E+00 -0.00000000000E+00 -0.12497271294E+03  0.12497271296E+03  0.25500000000E-02 0. -1.
    5000001    1    1    2    0    0 -0.45139358763E+03  0.28593460561E+03  0.86494112887E+03  0.10359724543E+04  0.19900000000E+03 0.  0.
   -5000001    1    1    2    0    0  0.45139358763E+03 -0.28593460561E+03  0.20204775349E+04  0.20993916354E+04  0.19900000000E+03 0.  0.
<mgrwt>
<rscale>  0 0.12267303E+04</rscale>
<asrwt>0</asrwt>
<pdfrwt beam="1">  1        2 0.43005588E+00 0.12267303E+04</pdfrwt>
<pdfrwt beam="2">  1       -2 0.17853246E-01 0.12267303E+04</pdfrwt>
<totfact> 0.60404657E+01</totfact>
</mgrwt>
</event>
<event>
 4    1  0.1869793E-005  0.4914942E+03  0.7818608E-02  0.1016023E+00
         -2   -1    0    0    0  501 -0.00000000000E+00  0.00000000000E+00  0.30240844126E+02  0.30240844233E+02  0.25500000000E-02 0. -1.
          2   -1    0    0  501    0  0.00000000000E+00 -0.00000000000E+00 -0.19970221131E+04  0.19970221131E+04  0.25500000000E-02 0.  1.
    5000001    1    1    2    0    0  0.97179870390E+02 -0.41517291156E+01 -0.14224229653E+04  0.14395656485E+04  0.19900000000E+03 0.  0.
   -5000001    1    1    2    0    0 -0.97179870390E+02  0.41517291156E+01 -0.54435830373E+03  0.58769730891E+03  0.19900000000E+03 0.  0.
<mgrwt>
<rscale>  0 0.49149419E+03</rscale>
<asrwt>0</asrwt>
<pdfrwt beam="1">  1        2 0.28528879E+00 0.49149419E+03</pdfrwt>
<pdfrwt beam="2">  1       -2 0.43201219E-02 0.49149419E+03</pdfrwt>
<totfact> 0.21466610E+03</totfact>
</mgrwt>
</event>
<event>
 4    1  0.1869793E-005  0.1161369E+04  0.7818608E-02  0.9147359E-01
         -2   -1    0    0    0  501 -0.00000000000E+00  0.00000000000E+00  0.65892758092E+03  0.65892758093E+03  0.25500000000E-02 0. -1.
          2   -1    0    0  501    0  0.00000000000E+00 -0.00000000000E+00 -0.51173234958E+03  0.51173234958E+03  0.25500000000E-02 0.  1.
    5000001    1    1    2    0    0  0.18195565321E+03 -0.51339559611E+03  0.43179035968E+02  0.58150522524E+03  0.19900000000E+03 0.  0.
   -5000001    1    1    2    0    0 -0.18195565321E+03  0.51339559611E+03  0.10401619538E+03  0.58915470527E+03  0.19900000000E+03 0.  0.
<mgrwt>
<rscale>  0 0.11613691E+04</rscale>
<asrwt>0</asrwt>
<pdfrwt beam="1">  1        2 0.73104621E-01 0.11613691E+04</pdfrwt>
<pdfrwt beam="2">  1       -2 0.94132512E-01 0.11613691E+04</pdfrwt>
<totfact> 0.61648754E+01</totfact>
</mgrwt>
</event>
<event>
 4    1  0.1869793E-005  0.5672751E+03  0.7818608E-02  0.9975727E-01
          2   -1    0    0  501    0  0.00000000000E+00  0.00000000000E+00  0.42108340057E+03  0.42108340057E+03  0.25500000000E-02 0.  1.
         -2   -1    0    0    0  501 -0.00000000000E+00 -0.00000000000E+00 -0.19105542330E+03  0.19105542332E+03  0.25500000000E-02 0. -1.
    5000001    1    1    2    0    0  0.42800288520E+02  0.19626832620E+03  0.13904993754E+03  0.31510157996E+03  0.19900000000E+03 0.  0.
   -5000001    1    1    2    0    0 -0.42800288520E+02 -0.19626832620E+03  0.90978039731E+02  0.29703724393E+03  0.19900000000E+03 0.  0.
<mgrwt>
<rscale>  0 0.56727513E+03</rscale>
<asrwt>0</asrwt>
<pdfrwt beam="1">  1        2 0.60154770E-01 0.56727513E+03</pdfrwt>
<pdfrwt beam="2">  1       -2 0.27293633E-01 0.56727513E+03</pdfrwt>
<totfact> 0.99869255E+02</totfact>
</mgrwt>
</event>
<event>
 4    1  0.1869793E-005  0.7805334E+03  0.7818608E-02  0.9588630E-01
          2   -1    0    0  501    0  0.00000000000E+00  0.00000000000E+00  0.29287629938E+04  0.29287629938E+04  0.25500000000E-02 0.  1.
         -2   -1    0    0    0  501 -0.00000000000E+00 -0.00000000000E+00 -0.52004246530E+02  0.52004246593E+02  0.25500000000E-02 0. -1.
    5000001    1    1    2    0    0  0.28461281913E+03  0.10638610622E+03  0.89313874991E+03  0.96416818398E+03  0.19900000000E+03 0.  0.
   -5000001    1    1    2    0    0 -0.28461281913E+03 -0.10638610622E+03  0.19836199973E+04  0.20165990564E+04  0.19900000000E+03 0.  0.
<mgrwt>
<rscale>  0 0.78053344E+03</rscale>
<asrwt>0</asrwt>
<pdfrwt beam="1">  1        2 0.41839488E+00 0.78053344E+03</pdfrwt>
<pdfrwt beam="2">  1       -2 0.74291752E-02 0.78053344E+03</pdfrwt>
<totfact> 0.29836091E+02</totfact>
</mgrwt>
</event>
<event>
 4    1  0.1869793E-005  0.5556599E+03  0.7818608E-02  0.1000192E+00
          2   -1    0    0  501    0  0.00000000000E+00  0.00000000000E+00  0.28509414753E+04  0.28509414753E+04  0.25500000000E-02 0.  1.
         -2   -1    0    0    0  501 -0.00000000000E+00 -0.00000000000E+00 -0.27075080313E+02  0.27075080433E+02  0.25500000000E-02 0. -1.
    5000001    1    1    2    0    0 -0.11394046090E+03 -0.15625056977E+03  0.13402018447E+04  0.13686265575E+04  0.19900000000E+03 0.  0.
   -5000001    1    1    2    0    0  0.11394046090E+03  0.15625056977E+03  0.14836645502E+04  0.15093899983E+04  0.19900000000E+03 0.  0.
<mgrwt>
<rscale>  0 0.55565986E+03</rscale>
<asrwt>0</asrwt>
<pdfrwt beam="1">  1        2 0.40727726E+00 0.55565986E+03</pdfrwt>
<pdfrwt beam="2">  1       -2 0.38678695E-02 0.55565986E+03</pdfrwt>
<totfact> 0.92877657E+02</totfact>
</mgrwt>
</event>
<event>
 4    1  0.1869793E-005  0.1019515E+04  0.7818608E-02  0.9287397E-01
         -2   -1    0    0    0  501 -0.00000000000E+00  0.00000000000E+00  0.72703788222E+03  0.72703788223E+03  0.25500000000E-02 0. -1.
          2   -1    0    0  501    0  0.00000000000E+00 -0.00000000000E+00 -0.35741263601E+03  0.35741263602E+03  0.25500000000E-02 0.  1.
    5000001    1    1    2    0    0  0.45778258279E+03 -0.10363001626E+02  0.75406021014E+02  0.50493499871E+03  0.19900000000E+03 0.  0.
   -5000001    1    1    2    0    0 -0.45778258279E+03  0.10363001626E+02  0.29421922520E+03  0.57951551954E+03  0.19900000000E+03 0.  0.
<mgrwt>
<rscale>  0 0.10195146E+04</rscale>
<asrwt>0</asrwt>
<pdfrwt beam="1">  1        2 0.51058949E-01 0.10195146E+04</pdfrwt>
<pdfrwt beam="2">  1       -2 0.10386255E+00 0.10195146E+04</pdfrwt>
<totfact> 0.73873861E+01</totfact>
</mgrwt>
</event>
<event>
 4    1  0.1869793E-005  0.7188554E+03  0.7818608E-02  0.9685519E-01
         -2   -1    0    0    0  501 -0.00000000000E+00  0.00000000000E+00  0.16603984427E+03  0.16603984429E+03  0.25500000000E-02 0. -1.
          2   -1    0    0  501    0  0.00000000000E+00 -0.00000000000E+00 -0.77805581764E+03  0.77805581764E+03  0.25500000000E-02 0.  1.
    5000001    1    1    2    0    0 -0.89906447257E+01 -0.29908296854E+03 -0.31581964229E+03  0.47840829866E+03  0.19900000000E+03 0.  0.
   -5000001    1    1    2    0    0  0.89906447257E+01  0.29908296854E+03 -0.29619633108E+03  0.46568736327E+03  0.19900000000E+03 0.  0.
<mgrwt>
<rscale>  0 0.71885539E+03</rscale>
<asrwt>0</asrwt>
<pdfrwt beam="1">  1        2 0.11115083E+00 0.71885539E+03</pdfrwt>
<pdfrwt beam="2">  1       -2 0.23719978E-01 0.71885539E+03</pdfrwt>
<totfact> 0.62300250E+02</totfact>
</mgrwt>
</event>
<event>
 4    1  0.1869793E-005  0.6878021E+03  0.7818608E-02  0.9738323E-01
         -2   -1    0    0    0  501 -0.00000000000E+00  0.00000000000E+00  0.67257092631E+02  0.67257092679E+02  0.25500000000E-02 0. -1.
          2   -1    0    0  501    0  0.00000000000E+00 -0.00000000000E+00 -0.17584455302E+04  0.17584455302E+04  0.25500000000E-02 0.  1.
    5000001    1    1    2    0    0 -0.26536814359E+03 -0.58881154665E+02 -0.66208136353E+03  0.74285932312E+03  0.19900000000E+03 0.  0.
   -5000001    1    1    2    0    0  0.26536814359E+03  0.58881154665E+02 -0.10291070740E+04  0.10828432998E+04  0.19900000000E+03 0.  0.
<mgrwt>
<rscale>  0 0.68780211E+03</rscale>
<asrwt>0</asrwt>
<pdfrwt beam="1">  1        2 0.25120648E+00 0.68780211E+03</pdfrwt>
<pdfrwt beam="2">  1       -2 0.96081572E-02 0.68780211E+03</pdfrwt>
<totfact> 0.79725763E+02</totfact>
</mgrwt>
</event>
<event>
 4    1  0.1869793E-005  0.5563107E+03  0.7818608E-02  0.1000044E+00
          2   -1    0    0  501    0  0.00000000000E+00  0.00000000000E+00  0.10199435045E+04  0.10199435046E+04  0.25500000000E-02 0.  1.
         -2   -1    0    0    0  501 -0.00000000000E+00 -0.00000000000E+00 -0.75857541492E+02  0.75857541535E+02  0.25500000000E-02 0. -1.
    5000001    1    1    2    0    0 -0.17444208900E+03  0.49000778742E+02  0.61046414096E+03  0.66715709254E+03  0.19900000000E+03 0.  0.
   -5000001    1    1    2    0    0  0.17444208900E+03 -0.49000778742E+02  0.33362182210E+03  0.42864395355E+03  0.19900000000E+03 0.  0.
<mgrwt>
<rscale>  0 0.55631073E+03</rscale>
<asrwt>0</asrwt>
<pdfrwt beam="1">  1        2 0.14570621E+00 0.55631073E+03</pdfrwt>
<pdfrwt beam="2">  1       -2 0.10836792E-01 0.55631073E+03</pdfrwt>
<totfact> 0.16505063E+03</totfact>
</mgrwt>
</event>
<event>
 4    1  0.1869793E-005  0.5542337E+03  0.7818608E-02  0.1000519E+00
         -2   -1    0    0    0  501 -0.00000000000E+00  0.00000000000E+00  0.35207189051E+03  0.35207189052E+03  0.25500000000E-02 0. -1.
          2   -1    0    0  501    0  0.00000000000E+00 -0.00000000000E+00 -0.21811954504E+03  0.21811954506E+03  0.25500000000E-02 0.  1.
    5000001    1    1    2    0    0 -0.67850034429E+02 -0.17876152742E+03  0.92869258157E+02  0.29117865644E+03  0.19900000000E+03 0.  0.
   -5000001    1    1    2    0    0  0.67850034429E+02  0.17876152742E+03  0.41083087306E+02  0.27901277913E+03  0.19900000000E+03 0.  0.
<mgrwt>
<rscale>  0 0.55423374E+03</rscale>
<asrwt>0</asrwt>
<pdfrwt beam="1">  1        2 0.31159935E-01 0.55423374E+03</pdfrwt>
<pdfrwt beam="2">  1       -2 0.50295984E-01 0.55423374E+03</pdfrwt>
<totfact> 0.64153520E+02</totfact>
</mgrwt>
</event>
<event>
 4    1  0.1869793E-005  0.6646287E+03  0.7818608E-02  0.9779710E-01
         -2   -1    0    0    0  501 -0.00000000000E+00  0.00000000000E+00  0.38003070781E+03  0.38003070781E+03  0.25500000000E-02 0. -1.
          2   -1    0    0  501    0  0.00000000000E+00 -0.00000000000E+00 -0.29058920789E+03  0.29058920790E+03  0.25500000000E-02 0.  1.
    5000001    1    1    2    0    0 -0.19926196314E+03 -0.11292460377E+03 -0.92053846073E+02  0.31706814199E+03  0.19900000000E+03 0.  0.
   -5000001    1    1    2    0    0  0.19926196314E+03  0.11292460377E+03  0.18149534599E+03  0.35355177372E+03  0.19900000000E+03 0.  0.
<mgrwt>
<rscale>  0 0.66462869E+03</rscale>
<asrwt>0</asrwt>
<pdfrwt beam="1">  1        2 0.41512744E-01 0.66462869E+03</pdfrwt>
<pdfrwt beam="2">  1       -2 0.54290101E-01 0.66462869E+03</pdfrwt>
<totfact> 0.39810834E+02</totfact>
</mgrwt>
</event>
<event>
 4    1  0.1869793E-005  0.6182613E+03  0.7818608E-02  0.9868228E-01
          2   -1    0    0  501    0  0.00000000000E+00  0.00000000000E+00  0.10551873247E+04  0.10551873247E+04  0.25500000000E-02 0.  1.
         -2   -1    0    0    0  501 -0.00000000000E+00 -0.00000000000E+00 -0.90563792736E+02  0.90563792772E+02  0.25500000000E-02 0. -1.
    5000001    1    1    2    0    0 -0.20189057974E+03  0.10517662695E+03  0.36308949800E+03  0.47250070117E+03  0.19900000000E+03 0.  0.
   -5000001    1    1    2    0    0  0.20189057974E+03 -0.10517662695E+03  0.60153403397E+03  0.67325041631E+03  0.19900000000E+03 0.  0.
<mgrwt>
<rscale>  0 0.61826132E+03</rscale>
<asrwt>0</asrwt>
<pdfrwt beam="1">  1        2 0.15074104E+00 0.61826132E+03</pdfrwt>
<pdfrwt beam="2">  1       -2 0.12937686E-01 0.61826132E+03</pdfrwt>
<totfact> 0.11736639E+03</totfact>
</mgrwt>
</event>
<event>
 4    1  0.1869793E-005  0.9291842E+03  0.7818608E-02  0.9389818E-01
         -2   -1    0    0    0  501 -0.00000000000E+00  0.00000000000E+00  0.13905906470E+03  0.13905906473E+03  0.25500000000E-02 0. -1.
          2   -1    0    0  501    0  0.00000000000E+00 -0.00000000000E+00 -0.15521878896E+04  0.15521878896E+04  0.25500000000E-02 0.  1.
    5000001    1    1    2    0    0 -0.31968344634E+03 -0.25422849103E+03 -0.52995282475E+03  0.69805488894E+03  0.19900000000E+03 0.  0.
   -5000001    1    1    2    0    0  0.31968344634E+03  0.25422849103E+03 -0.88317600018E+03  0.99319206541E+03  0.19900000000E+03 0.  0.
<mgrwt>
<rscale>  0 0.92918415E+03</rscale>
<asrwt>0</asrwt>
<pdfrwt beam="1">  1        2 0.22174112E+00 0.92918415E+03</pdfrwt>
<pdfrwt beam="2">  1       -2 0.19865582E-01 0.92918415E+03</pdfrwt>
<totfact> 0.29652085E+02</totfact>
</mgrwt>
</event>
<event>
 4    1  0.1869793E-005  0.4531501E+03  0.7818608E-02  0.1026787E+00
         -2   -1    0    0    0  501 -0.00000000000E+00  0.00000000000E+00  0.31613558923E+02  0.31613559026E+02  0.25500000000E-02 0. -1.
          2   -1    0    0  501    0  0.00000000000E+00 -0.00000000000E+00 -0.16238680420E+04  0.16238680420E+04  0.25500000000E-02 0.  1.
    5000001    1    1    2    0    0 -0.44426215870E+02  0.97558618495E+02 -0.73907584076E+03  0.77286834008E+03  0.19900000000E+03 0.  0.
   -5000001    1    1    2    0    0  0.44426215870E+02 -0.97558618495E+02 -0.85317864229E+03  0.88261326092E+03  0.19900000000E+03 0.  0.
<mgrwt>
<rscale>  0 0.45315008E+03</rscale>
<asrwt>0</asrwt>
<pdfrwt beam="1">  1        2 0.23198110E+00 0.45315008E+03</pdfrwt>
<pdfrwt beam="2">  1       -2 0.45162237E-02 0.45315008E+03</pdfrwt>
<totfact> 0.30879748E+03</totfact>
</mgrwt>
</event>
<event>
 4    1  0.1869793E-005  0.5000753E+03  0.7818608E-02  0.1013759E+00
          2   -1    0    0  501    0  0.00000000000E+00  0.00000000000E+00  0.74414468865E+02  0.74414468908E+02  0.25500000000E-02 0.  1.
         -2   -1    0    0    0  501 -0.00000000000E+00 -0.00000000000E+00 -0.84014347341E+03  0.84014347342E+03  0.25500000000E-02 0. -1.
    5000001    1    1    2    0    0  0.14418435491E+03  0.28865407290E+02 -0.31703919247E+03  0.40216562447E+03  0.19900000000E+03 0.  0.
   -5000001    1    1    2    0    0 -0.14418435491E+03 -0.28865407290E+02 -0.44868981208E+03  0.51239231786E+03  0.19900000000E+03 0.  0.
<mgrwt>
<rscale>  0 0.50007532E+03</rscale>
<asrwt>0</asrwt>
<pdfrwt beam="1">  1        2 0.10630639E-01 0.50007532E+03</pdfrwt>
<pdfrwt beam="2">  1       -2 0.12002049E+00 0.50007532E+03</pdfrwt>
<totfact> 0.33051199E+02</totfact>
</mgrwt>
</event>
<event>
 4    1  0.1869793E-005  0.6110187E+03  0.7818608E-02  0.9882806E-01
         -2   -1    0    0    0  501 -0.00000000000E+00  0.00000000000E+00  0.11557926083E+03  0.11557926086E+03  0.25500000000E-02 0. -1.
          2   -1    0    0  501    0  0.00000000000E+00 -0.00000000000E+00 -0.80754937621E+03  0.80754937621E+03  0.25500000000E-02 0.  1.
    5000001    1    1    2    0    0  0.10575440256E+03  0.10171319473E+03 -0.74858521331E+02  0.25832995540E+03  0.19900000000E+03 0.  0.
   -5000001    1    1    2    0    0 -0.10575440256E+03 -0.10171319473E+03 -0.61711159404E+03  0.66479868167E+03  0.19900000000E+03 0.  0.
<mgrwt>
<rscale>  0 0.61101869E+03</rscale>
<asrwt>0</asrwt>
<pdfrwt beam="1">  1        2 0.11536419E+00 0.61101869E+03</pdfrwt>
<pdfrwt beam="2">  1       -2 0.16511323E-01 0.61101869E+03</pdfrwt>
<totfact> 0.11200889E+03</totfact>
</mgrwt>
</event>
<event>
 4    1  0.1869793E-005  0.6400359E+03  0.7818608E-02  0.9825658E-01
         -2   -1    0    0    0  501 -0.00000000000E+00  0.00000000000E+00  0.11293662384E+03  0.11293662387E+03  0.25500000000E-02 0. -1.
          2   -1    0    0  501    0  0.00000000000E+00 -0.00000000000E+00 -0.90680496975E+03  0.90680496975E+03  0.25500000000E-02 0.  1.
    5000001    1    1    2    0    0 -0.52303715616E+02  0.17734121379E+03 -0.66649565423E+03  0.71972428185E+03  0.19900000000E+03 0.  0.
   -5000001    1    1    2    0    0  0.52303715616E+02 -0.17734121379E+03 -0.12737269167E+03  0.30001731177E+03  0.19900000000E+03 0.  0.
<mgrwt>
<rscale>  0 0.64003591E+03</rscale>
<asrwt>0</asrwt>
<pdfrwt beam="1">  1        2 0.12954356E+00 0.64003591E+03</pdfrwt>
<pdfrwt beam="2">  1       -2 0.16133804E-01 0.64003591E+03</pdfrwt>
<totfact> 0.99991892E+02</totfact>
</mgrwt>
</event>
<event>
 4    1  0.1869793E-005  0.6394446E+03  0.7818608E-02  0.9826790E-01
          2   -1    0    0  501    0  0.00000000000E+00  0.00000000000E+00  0.20839402205E+04  0.20839402205E+04  0.25500000000E-02 0.  1.
         -2   -1    0    0    0  501 -0.00000000000E+00 -0.00000000000E+00 -0.49052438955E+02  0.49052439021E+02  0.25500000000E-02 0. -1.
    5000001    1    1    2    0    0  0.10455558486E+03  0.22679196689E+03  0.96418922313E+03  0.10156910576E+04  0.19900000000E+03 0.  0.
   -5000001    1    1    2    0    0 -0.10455558486E+03 -0.22679196689E+03  0.10706985584E+04  0.11173016019E+04  0.19900000000E+03 0.  0.
<mgrwt>
<rscale>  0 0.63944460E+03</rscale>
<asrwt>0</asrwt>
<pdfrwt beam="1">  1        2 0.29770569E+00 0.63944460E+03</pdfrwt>
<pdfrwt beam="2">  1       -2 0.70074926E-02 0.63944460E+03</pdfrwt>
<totfact> 0.90742602E+02</totfact>
</mgrwt>
</event>
<event>
 4    1  0.1869793E-005  0.4758309E+03  0.7818608E-02  0.1020287E+00
          2   -1    0    0  501    0  0.00000000000E+00  0.00000000000E+00  0.30340688556E+03  0.30340688557E+03  0.25500000000E-02 0.  1.
         -2   -1    0    0    0  501 -0.00000000000E+00 -0.00000000000E+00 -0.18656057746E+03  0.18656057748E+03  0.25500000000E-02 0. -1.
    5000001    1    1    2    0    0 -0.27704176127E+02 -0.12131345609E+03  0.98545991544E+02  0.25455213307E+03  0.19900000000E+03 0.  0.
   -5000001    1    1    2    0    0  0.27704176127E+02  0.12131345609E+03  0.18300316553E+02  0.23541532998E+03  0.19900000000E+03 0.  0.
<mgrwt>
<rscale>  0 0.47583091E+03</rscale>
<asrwt>0</asrwt>
<pdfrwt beam="1">  1        2 0.43343841E-01 0.47583091E+03</pdfrwt>
<pdfrwt beam="2">  1       -2 0.26651511E-01 0.47583091E+03</pdfrwt>
<totfact> 0.14962987E+03</totfact>
</mgrwt>
</event>
<event>
 4    1  0.1869793E-005  0.1002192E+04  0.7818608E-02  0.9306144E-01
          2   -1    0    0  501    0  0.00000000000E+00  0.00000000000E+00  0.25764787608E+03  0.25764787609E+03  0.25500000000E-02 0.  1.
         -2   -1    0    0    0  501 -0.00000000000E+00 -0.00000000000E+00 -0.97457539993E+03  0.97457539993E+03  0.25500000000E-02 0. -1.
    5000001    1    1    2    0    0  0.43614796581E+03  0.94421223707E+02 -0.49513433234E+03  0.69562879658E+03  0.19900000000E+03 0.  0.
   -5000001    1    1    2    0    0 -0.43614796581E+03 -0.94421223707E+02 -0.22179319151E+03  0.53659447944E+03  0.19900000000E+03 0.  0.
<mgrwt>
<rscale>  0 0.10021922E+04</rscale>
<asrwt>0</asrwt>
<pdfrwt beam="1">  1        2 0.36806840E-01 0.10021922E+04</pdfrwt>
<pdfrwt beam="2">  1       -2 0.13922506E+00 0.10021922E+04</pdfrwt>
<totfact> 0.51413893E+01</totfact>
</mgrwt>
</event>
<event>
 4    1  0.1869793E-005  0.5551751E+03  0.7818608E-02  0.1000303E+00
         -2   -1    0    0    0  501 -0.00000000000E+00  0.00000000000E+00  0.44621104513E+03  0.44621104514E+03  0.25500000000E-02 0. -1.
          2   -1    0    0  501    0  0.00000000000E+00 -0.00000000000E+00 -0.17268697310E+03  0.17268697312E+03  0.25500000000E-02 0.  1.
    5000001    1    1    2    0    0 -0.16475825628E+03  0.55110172903E+02  0.41701823178E+02  0.26743682661E+03  0.19900000000E+03 0.  0.
   -5000001    1    1    2    0    0  0.16475825628E+03 -0.55110172903E+02  0.23182224885E+03  0.35146119165E+03  0.19900000000E+03 0.  0.
<mgrwt>
<rscale>  0 0.55517505E+03</rscale>
<asrwt>0</asrwt>
<pdfrwt beam="1">  1        2 0.24669568E-01 0.55517505E+03</pdfrwt>
<pdfrwt beam="2">  1       -2 0.63744434E-01 0.55517505E+03</pdfrwt>
<totfact> 0.51080717E+02</totfact>
</mgrwt>
</event>
<event>
 4    1  0.1869793E-005  0.4587706E+03  0.7818608E-02  0.1025138E+00
          2   -1    0    0  501    0  0.00000000000E+00  0.00000000000E+00  0.95062163550E+02  0.95062163584E+02  0.25500000000E-02 0.  1.
         -2   -1    0    0    0  501 -0.00000000000E+00 -0.00000000000E+00 -0.55350747158E+03  0.55350747159E+03  0.25500000000E-02 0. -1.
    5000001    1    1    2    0    0  0.60294976768E+02 -0.92292536193E+02 -0.27075840910E+03  0.35364461336E+03  0.19900000000E+03 0.  0.
   -5000001    1    1    2    0    0 -0.60294976768E+02  0.92292536193E+02 -0.18768689893E+03  0.29492502181E+03  0.19900000000E+03 0.  0.
<mgrwt>
<rscale>  0 0.45877061E+03</rscale>
<asrwt>0</asrwt>
<pdfrwt beam="1">  1        2 0.13580309E-01 0.45877061E+03</pdfrwt>
<pdfrwt beam="2">  1       -2 0.79072494E-01 0.45877061E+03</pdfrwt>
<totfact> 0.64673899E+02</totfact>
</mgrwt>
</event>
<event>
 4    1  0.1869793E-005  0.1075543E+04  0.7818608E-02  0.9229362E-01
          2   -1    0    0  501    0  0.00000000000E+00  0.00000000000E+00  0.48449433234E+03  0.48449433235E+03  0.25500000000E-02 0. -1.
         -2   -1    0    0    0  501 -0.00000000000E+00 -0.00000000000E+00 -0.59690770557E+03  0.59690770557E+03  0.25500000000E-02 0.  1.
    5000001    1    1    2    0    0  0.12325207192E+03 -0.48358278451E+03 -0.32540895918E+02  0.53824092432E+03  0.19900000000E+03 0.  0.
   -5000001    1    1    2    0    0 -0.12325207192E+03  0.48358278451E+03 -0.79872477309E+02  0.54316111361E+03  0.19900000000E+03 0.  0.
<mgrwt>
<rscale>  0 0.10755434E+04</rscale>
<asrwt>0</asrwt>
<pdfrwt beam="1">  1        2 0.69213476E-01 0.10755434E+04</pdfrwt>
<pdfrwt beam="2">  1       -2 0.85272529E-01 0.10755434E+04</pdfrwt>
<totfact> 0.82883050E+01</totfact>
</mgrwt>
</event>
<event>
 4    1  0.1869793E-005  0.5735473E+03  0.7818608E-02  0.9961860E-01
          2   -1    0    0  501    0  0.00000000000E+00  0.00000000000E+00  0.80674745405E+03  0.80674745405E+03  0.25500000000E-02 0.  1.
         -2   -1    0    0    0  501 -0.00000000000E+00 -0.00000000000E+00 -0.10193910414E+03  0.10193910417E+03  0.25500000000E-02 0. -1.
    5000001    1    1    2    0    0  0.15210730053E+03 -0.13736187382E+03  0.39227126105E+03  0.48526555359E+03  0.19900000000E+03 0.  0.
   -5000001    1    1    2    0    0 -0.15210730053E+03  0.13736187382E+03  0.31253708886E+03  0.42342100464E+03  0.19900000000E+03 0.  0.
<mgrwt>
<rscale>  0 0.57354725E+03</rscale>
<asrwt>0</asrwt>
<pdfrwt beam="1">  1        2 0.11524963E+00 0.57354725E+03</pdfrwt>
<pdfrwt beam="2">  1       -2 0.14562730E-01 0.57354725E+03</pdfrwt>
<totfact> 0.13872825E+03</totfact>
</mgrwt>
</event>
<event>
 4    1  0.1869793E-005  0.5639153E+03  0.7818608E-02  0.9983234E-01
         -2   -1    0    0    0  501 -0.00000000000E+00  0.00000000000E+00  0.59537743716E+02  0.59537743771E+02  0.25500000000E-02 0. -1.
          2   -1    0    0  501    0  0.00000000000E+00 -0.00000000000E+00 -0.13352894536E+04  0.13352894536E+04  0.25500000000E-02 0.  1.
    5000001    1    1    2    0    0 -0.18832633613E+03 -0.46022591779E+02 -0.75686575557E+03  0.80624540916E+03  0.19900000000E+03 0.  0.
   -5000001    1    1    2    0    0  0.18832633613E+03  0.46022591779E+02 -0.51888595431E+03  0.58858178821E+03  0.19900000000E+03 0.  0.
<mgrwt>
<rscale>  0 0.56391532E+03</rscale>
<asrwt>0</asrwt>
<pdfrwt beam="1">  1        2 0.19075562E+00 0.56391532E+03</pdfrwt>
<pdfrwt beam="2">  1       -2 0.85053928E-02 0.56391532E+03</pdfrwt>
<totfact> 0.16180307E+03</totfact>
</mgrwt>
</event>
<event>
 4    1  0.1869793E-005  0.5682214E+03  0.7818608E-02  0.9973622E-01
          2   -1    0    0  501    0  0.00000000000E+00  0.00000000000E+00  0.16911509189E+03  0.16911509191E+03  0.25500000000E-02 0.  1.
         -2   -1    0    0    0  501 -0.00000000000E+00 -0.00000000000E+00 -0.47730155575E+03  0.47730155575E+03  0.25500000000E-02 0. -1.
    5000001    1    1    2    0    0  0.19578421260E+03  0.48336553348E+02 -0.17822610288E+03  0.33471394360E+03  0.19900000000E+03 0.  0.
   -5000001    1    1    2    0    0 -0.19578421260E+03 -0.48336553348E+02 -0.12996036098E+03  0.31170270406E+03  0.19900000000E+03 0.  0.
<mgrwt>
<rscale>  0 0.56822142E+03</rscale>
<asrwt>0</asrwt>
<pdfrwt beam="1">  1        2 0.24159299E-01 0.56822142E+03</pdfrwt>
<pdfrwt beam="2">  1       -2 0.68185936E-01 0.56822142E+03</pdfrwt>
<totfact> 0.45278018E+02</totfact>
</mgrwt>
</event>
<event>
 4    1  0.1869793E-005  0.9892389E+03  0.7818608E-02  0.9320427E-01
          2   -1    0    0  501    0  0.00000000000E+00  0.00000000000E+00  0.49522934045E+03  0.49522934045E+03  0.25500000000E-02 0.  1.
         -2   -1    0    0    0  501 -0.00000000000E+00 -0.00000000000E+00 -0.49401032750E+03  0.49401032751E+03  0.25500000000E-02 0. -1.
    5000001    1    1    2    0    0  0.39868991036E+03 -0.16186486540E+03  0.14165403704E+03  0.49479363929E+03  0.19900000000E+03 0.  0.
   -5000001    1    1    2    0    0 -0.39868991036E+03  0.16186486540E+03 -0.14043502409E+03  0.49444602867E+03  0.19900000000E+03 0.  0.
<mgrwt>
<rscale>  0 0.98923892E+03</rscale>
<asrwt>0</asrwt>
<pdfrwt beam="1">  1        2 0.70747049E-01 0.98923892E+03</pdfrwt>
<pdfrwt beam="2">  1       -2 0.70572904E-01 0.98923892E+03</pdfrwt>
<totfact> 0.12394532E+02</totfact>
</mgrwt>
</event>
<event>
 4    1  0.1869793E-005  0.7375428E+03  0.7818608E-02  0.9655099E-01
         -2   -1    0    0    0  501 -0.00000000000E+00  0.00000000000E+00  0.70061379108E+02  0.70061379155E+02  0.25500000000E-02 0. -1.
          2   -1    0    0  501    0  0.00000000000E+00 -0.00000000000E+00 -0.19410459080E+04  0.19410459081E+04  0.25500000000E-02 0.  1.
    5000001    1    1    2    0    0 -0.26299208332E+03 -0.43963508973E+00 -0.13854197293E+04  0.14241326678E+04  0.19900000000E+03 0.  0.
   -5000001    1    1    2    0    0  0.26299208332E+03  0.43963508973E+00 -0.48556479963E+03  0.58697461939E+03  0.19900000000E+03 0.  0.
<mgrwt>
<rscale>  0 0.73754282E+03</rscale>
<asrwt>0</asrwt>
<pdfrwt beam="1">  1        2 0.27729224E+00 0.73754282E+03</pdfrwt>
<pdfrwt beam="2">  1       -2 0.10008770E-01 0.73754282E+03</pdfrwt>
<totfact> 0.60115336E+02</totfact>
</mgrwt>
</event>
<event>
 4    1  0.1869793E-005  0.9484913E+03  0.7818608E-02  0.9366916E-01
         -2   -1    0    0    0  501 -0.00000000000E+00  0.00000000000E+00  0.34912354587E+03  0.34912354588E+03  0.25500000000E-02 0. -1.
          2   -1    0    0  501    0  0.00000000000E+00 -0.00000000000E+00 -0.64421023085E+03  0.64421023085E+03  0.25500000000E-02 0.  1.
    5000001    1    1    2    0    0  0.11284973554E+03  0.38020185727E+02  0.28568968490E+03  0.36796765265E+03  0.19900000000E+03 0.  0.
   -5000001    1    1    2    0    0 -0.11284973554E+03 -0.38020185727E+02 -0.58077636988E+03  0.62536612408E+03  0.19900000000E+03 0.  0.
<mgrwt>
<rscale>  0 0.94849135E+03</rscale>
<asrwt>0</asrwt>
<pdfrwt beam="1">  1        2 0.92030033E-01 0.94849135E+03</pdfrwt>
<pdfrwt beam="2">  1       -2 0.49874793E-01 0.94849135E+03</pdfrwt>
<totfact> 0.18963699E+02</totfact>
</mgrwt>
</event>
<event>
 4    1  0.1869793E-005  0.1028963E+04  0.7818608E-02  0.9277337E-01
         -2   -1    0    0    0  501 -0.00000000000E+00  0.00000000000E+00  0.46342272824E+03  0.46342272825E+03  0.25500000000E-02 0. -1.
          2   -1    0    0  501    0  0.00000000000E+00 -0.00000000000E+00 -0.57116616394E+03  0.57116616395E+03  0.25500000000E-02 0.  1.
    5000001    1    1    2    0    0  0.21402816723E+03 -0.41077408601E+03 -0.15713166331E+03  0.52804807140E+03  0.19900000000E+03 0.  0.
   -5000001    1    1    2    0    0 -0.21402816723E+03  0.41077408601E+03  0.49388227605E+02  0.50654082079E+03  0.19900000000E+03 0.  0.
<mgrwt>
<rscale>  0 0.10289633E+04</rscale>
<asrwt>0</asrwt>
<pdfrwt beam="1">  1        2 0.81595166E-01 0.10289633E+04</pdfrwt>
<pdfrwt beam="2">  1       -2 0.66203247E-01 0.10289633E+04</pdfrwt>
<totfact> 0.12042244E+02</totfact>
</mgrwt>
</event>
<event>
 4    1  0.1869793E-005  0.5940197E+03  0.7818608E-02  0.9917891E-01
          2   -1    0    0  501    0  0.00000000000E+00  0.00000000000E+00  0.23663148957E+03  0.23663148958E+03  0.25500000000E-02 0.  1.
         -2   -1    0    0    0  501 -0.00000000000E+00 -0.00000000000E+00 -0.37279425951E+03  0.37279425952E+03  0.25500000000E-02 0. -1.
    5000001    1    1    2    0    0 -0.20640432596E+03 -0.77443240001E+02 -0.64289622147E+02  0.30386568861E+03  0.19900000000E+03 0.  0.
   -5000001    1    1    2    0    0  0.20640432596E+03  0.77443240001E+02 -0.71873147792E+02  0.30556006050E+03  0.19900000000E+03 0.  0.
<mgrwt>
<rscale>  0 0.59401973E+03</rscale>
<asrwt>0</asrwt>
<pdfrwt beam="1">  1        2 0.33804499E-01 0.59401973E+03</pdfrwt>
<pdfrwt beam="2">  1       -2 0.53256322E-01 0.59401973E+03</pdfrwt>
<totfact> 0.52104399E+02</totfact>
</mgrwt>
</event>
<event>
 4    1  0.1869793E-005  0.9219116E+03  0.7818608E-02  0.9398598E-01
         -2   -1    0    0    0  501 -0.00000000000E+00  0.00000000000E+00  0.68175926840E+02  0.68175926888E+02  0.25500000000E-02 0. -1.
          2   -1    0    0  501    0  0.00000000000E+00 -0.00000000000E+00 -0.31166461874E+04  0.31166461874E+04  0.25500000000E-02 0.  1.
    5000001    1    1    2    0    0 -0.28437419709E+03 -0.17111632078E+03 -0.23894674474E+04  0.24206001656E+04  0.19900000000E+03 0.  0.
   -5000001    1    1    2    0    0  0.28437419709E+03  0.17111632078E+03 -0.65900281318E+03  0.76422194878E+03  0.19900000000E+03 0.  0.
<mgrwt>
<rscale>  0 0.92191158E+03</rscale>
<asrwt>0</asrwt>
<pdfrwt beam="1">  1        2 0.44523508E+00 0.92191158E+03</pdfrwt>
<pdfrwt beam="2">  1       -2 0.97394201E-02 0.92191158E+03</pdfrwt>
<totfact> 0.14989582E+02</totfact>
</mgrwt>
</event>
<event>
 4    1  0.1869793E-005  0.5883653E+03  0.7818608E-02  0.9929843E-01
          2   -1    0    0  501    0  0.00000000000E+00  0.00000000000E+00  0.12270818746E+03  0.12270818749E+03  0.25500000000E-02 0.  1.
         -2   -1    0    0    0  501 -0.00000000000E+00 -0.00000000000E+00 -0.70527826665E+03  0.70527826665E+03  0.25500000000E-02 0. -1.
    5000001    1    1    2    0    0  0.19085020563E+03 -0.94827959374E+02 -0.23630657635E+03  0.37531045935E+03  0.19900000000E+03 0.  0.
   -5000001    1    1    2    0    0 -0.19085020563E+03  0.94827959374E+02 -0.34626350283E+03  0.45267599479E+03  0.19900000000E+03 0.  0.
<mgrwt>
<rscale>  0 0.58836525E+03</rscale>
<asrwt>0</asrwt>
<pdfrwt beam="1">  1        2 0.17529741E-01 0.58836525E+03</pdfrwt>
<pdfrwt beam="2">  1       -2 0.10075404E+00 0.58836525E+03</pdfrwt>
<totfact> 0.27274809E+02</totfact>
</mgrwt>
</event>
<event>
 4    1  0.1869793E-005  0.6017617E+03  0.7818608E-02  0.9901758E-01
          2   -1    0    0  501    0  0.00000000000E+00  0.00000000000E+00  0.90447567670E+03  0.90447567671E+03  0.25500000000E-02 0.  1.
         -2   -1    0    0    0  501 -0.00000000000E+00 -0.00000000000E+00 -0.10009034093E+03  0.10009034096E+03  0.25500000000E-02 0. -1.
    5000001    1    1    2    0    0 -0.12317581016E+03 -0.16237793017E+03  0.24043196466E+03  0.37275649162E+03  0.19900000000E+03 0.  0.
   -5000001    1    1    2    0    0  0.12317581016E+03  0.16237793017E+03  0.56395337111E+03  0.63180952605E+03  0.19900000000E+03 0.  0.
<mgrwt>
<rscale>  0 0.60176168E+03</rscale>
<asrwt>0</asrwt>
<pdfrwt beam="1">  1        2 0.12921080E+00 0.60176168E+03</pdfrwt>
<pdfrwt beam="2">  1       -2 0.14298621E-01 0.60176168E+03</pdfrwt>
<totfact> 0.12310981E+03</totfact>
</mgrwt>
</event>
<event>
 4    1  0.1869793E-005  0.1373595E+04  0.7818608E-02  0.8973157E-01
          2   -1    0    0  501    0  0.00000000000E+00  0.00000000000E+00  0.85386147605E+03  0.85386147605E+03  0.25500000000E-02 0.  1.
         -2   -1    0    0    0  501 -0.00000000000E+00 -0.00000000000E+00 -0.55242045700E+03  0.55242045700E+03  0.25500000000E-02 0. -1.
    5000001    1    1    2    0    0 -0.49408905349E+03 -0.16140530233E+03  0.56268127703E+03  0.79144607139E+03  0.19900000000E+03 0.  0.
   -5000001    1    1    2    0    0  0.49408905349E+03  0.16140530233E+03 -0.26124025798E+03  0.61483586166E+03  0.19900000000E+03 0.  0.
<mgrwt>
<rscale>  0 0.13735946E+04</rscale>
<asrwt>0</asrwt>
<pdfrwt beam="1">  1        2 0.12198021E+00 0.13735946E+04</pdfrwt>
<pdfrwt beam="2">  1       -2 0.78917209E-01 0.13735946E+04</pdfrwt>
<totfact> 0.48588337E+01</totfact>
</mgrwt>
</event>
<event>
 4    1  0.1869793E-005  0.6758654E+03  0.7818608E-02  0.9759420E-01
         -2   -1    0    0    0  501 -0.00000000000E+00  0.00000000000E+00  0.75859682980E+02  0.75859683023E+02  0.25500000000E-02 0. -1.
          2   -1    0    0  501    0  0.00000000000E+00 -0.00000000000E+00 -0.15053912503E+04  0.15053912503E+04  0.25500000000E-02 0.  1.
    5000001    1    1    2    0    0  0.34538558498E+02 -0.85274164293E+02 -0.13164233787E+04  0.13345546475E+04  0.19900000000E+03 0.  0.
   -5000001    1    1    2    0    0 -0.34538558498E+02  0.85274164293E+02 -0.11310818863E+03  0.24669628585E+03  0.19900000000E+03 0.  0.
<mgrwt>
<rscale>  0 0.67586538E+03</rscale>
<asrwt>0</asrwt>
<pdfrwt beam="1">  1        2 0.21505587E+00 0.67586538E+03</pdfrwt>
<pdfrwt beam="2">  1       -2 0.10837099E-01 0.67586538E+03</pdfrwt>
<totfact> 0.88520181E+02</totfact>
</mgrwt>
</event>
<event>
 4    1  0.1869793E-005  0.8791723E+03  0.7818608E-02  0.9451998E-01
          2   -1    0    0  501    0  0.00000000000E+00  0.00000000000E+00  0.35738311643E+03  0.35738311644E+03  0.25500000000E-02 0.  1.
         -2   -1    0    0    0  501 -0.00000000000E+00 -0.00000000000E+00 -0.54069707288E+03  0.54069707289E+03  0.25500000000E-02 0. -1.
    5000001    1    1    2    0    0  0.10869463811E+03 -0.25528035091E+03  0.19115906349E+03  0.39131236815E+03  0.19900000000E+03 0.  0.
   -5000001    1    1    2    0    0 -0.10869463811E+03  0.25528035091E+03 -0.37447301995E+03  0.50676782118E+03  0.19900000000E+03 0.  0.
<mgrwt>
<rscale>  0 0.87917235E+03</rscale>
<asrwt>0</asrwt>
<pdfrwt beam="1">  1        2 0.51054731E-01 0.87917235E+03</pdfrwt>
<pdfrwt beam="2">  1       -2 0.77242439E-01 0.87917235E+03</pdfrwt>
<totfact> 0.14741150E+02</totfact>
</mgrwt>
</event>
<event>
 4    1  0.1869793E-005  0.4490446E+03  0.7818608E-02  0.1028007E+00
         -2   -1    0    0    0  501 -0.00000000000E+00  0.00000000000E+00  0.26325782396E+02  0.26325782520E+02  0.25500000000E-02 0. -1.
          2   -1    0    0  501    0  0.00000000000E+00 -0.00000000000E+00 -0.19148628815E+04  0.19148628816E+04  0.25500000000E-02 0.  1.
    5000001    1    1    2    0    0 -0.46888925746E+02 -0.80746522320E+02 -0.74660652633E+03  0.77829356761E+03  0.19900000000E+03 0.  0.
   -5000001    1    1    2    0    0  0.46888925746E+02  0.80746522320E+02 -0.11419305728E+04  0.11628950965E+04  0.19900000000E+03 0.  0.
<mgrwt>
<rscale>  0 0.44904460E+03</rscale>
<asrwt>0</asrwt>
<pdfrwt beam="1">  1        2 0.27355175E+00 0.44904460E+03</pdfrwt>
<pdfrwt beam="2">  1       -2 0.37608273E-02 0.44904460E+03</pdfrwt>
<totfact> 0.29194146E+03</totfact>
</mgrwt>
</event>
<event>
 4    1  0.1869793E-005  0.5553721E+03  0.7818608E-02  0.1000258E+00
          2   -1    0    0  501    0  0.00000000000E+00  0.00000000000E+00  0.44882616578E+03  0.44882616579E+03  0.25500000000E-02 0.  1.
         -2   -1    0    0    0  501 -0.00000000000E+00 -0.00000000000E+00 -0.17180266435E+03  0.17180266437E+03  0.25500000000E-02 0. -1.
    5000001    1    1    2    0    0  0.13874904872E+03 -0.76626045622E+02  0.14143972126E+02  0.25480169022E+03  0.19900000000E+03 0.  0.
   -5000001    1    1    2    0    0 -0.13874904872E+03  0.76626045622E+02  0.26287952931E+03  0.36582713994E+03  0.19900000000E+03 0.  0.
<mgrwt>
<rscale>  0 0.55537206E+03</rscale>
<asrwt>0</asrwt>
<pdfrwt beam="1">  1        2 0.64118024E-01 0.55537206E+03</pdfrwt>
<pdfrwt beam="2">  1       -2 0.24543238E-01 0.55537206E+03</pdfrwt>
<totfact> 0.11263257E+03</totfact>
</mgrwt>
</event>
<event>
 4    1  0.1869793E-005  0.4534922E+03  0.7818608E-02  0.1026686E+00
          2   -1    0    0  501    0  0.00000000000E+00  0.00000000000E+00  0.26529775695E+03  0.26529775696E+03  0.25500000000E-02 0. -1.
         -2   -1    0    0    0  501 -0.00000000000E+00 -0.00000000000E+00 -0.19379659884E+03  0.19379659885E+03  0.25500000000E-02 0.  1.
    5000001    1    1    2    0    0 -0.86069018237E+02 -0.52307513135E+02 -0.56056464371E+01  0.22310619692E+03  0.19900000000E+03 0.  0.
   -5000001    1    1    2    0    0  0.86069018237E+02  0.52307513135E+02  0.77106804549E+02  0.23598815889E+03  0.19900000000E+03 0.  0.
<mgrwt>
<rscale>  0 0.45349224E+03</rscale>
<asrwt>0</asrwt>
<pdfrwt beam="1">  1        2 0.37899679E-01 0.45349224E+03</pdfrwt>
<pdfrwt beam="2">  1       -2 0.27685229E-01 0.45349224E+03</pdfrwt>
<totfact> 0.16178176E+03</totfact>
</mgrwt>
</event>
<event>
 4    1  0.1869793E-005  0.6857313E+03  0.7818608E-02  0.9741950E-01
         -2   -1    0    0    0  501 -0.00000000000E+00  0.00000000000E+00  0.16769578866E+03  0.16769578868E+03  0.25500000000E-02 0. -1.
          2   -1    0    0  501    0  0.00000000000E+00 -0.00000000000E+00 -0.70101250956E+03  0.70101250956E+03  0.25500000000E-02 0.  1.
    5000001    1    1    2    0    0 -0.20428664097E+03 -0.18462715509E+03 -0.32520241187E+03  0.47029546751E+03  0.19900000000E+03 0.  0.
   -5000001    1    1    2    0    0  0.20428664097E+03  0.18462715509E+03 -0.20811430903E+03  0.39841283074E+03  0.19900000000E+03 0.  0.
<mgrwt>
<rscale>  0 0.68573128E+03</rscale>
<asrwt>0</asrwt>
<pdfrwt beam="1">  1        2 0.10014464E+00 0.68573128E+03</pdfrwt>
<pdfrwt beam="2">  1       -2 0.23956542E-01 0.68573128E+03</pdfrwt>
<totfact> 0.69791833E+02</totfact>
</mgrwt>
</event>
<event>
 4    1  0.1869793E-005  0.9173755E+03  0.7818608E-02  0.9404118E-01
          2   -1    0    0  501    0  0.00000000000E+00  0.00000000000E+00  0.57068812295E+03  0.57068812296E+03  0.25500000000E-02 0.  1.
         -2   -1    0    0    0  501 -0.00000000000E+00 -0.00000000000E+00 -0.36866799567E+03  0.36866799568E+03  0.25500000000E-02 0. -1.
    5000001    1    1    2    0    0  0.32987204450E+03  0.58477279893E+02 -0.14677625542E+03  0.41638855311E+03  0.19900000000E+03 0.  0.
   -5000001    1    1    2    0    0 -0.32987204450E+03 -0.58477279893E+02  0.34879638270E+03  0.52296756552E+03  0.19900000000E+03 0.  0.
<mgrwt>
<rscale>  0 0.91737549E+03</rscale>
<asrwt>0</asrwt>
<pdfrwt beam="1">  1        2 0.81526875E-01 0.91737549E+03</pdfrwt>
<pdfrwt beam="2">  1       -2 0.52666856E-01 0.91737549E+03</pdfrwt>
<totfact> 0.19627451E+02</totfact>
</mgrwt>
</event>
<event>
 4    1  0.1869793E-005  0.6600043E+03  0.7818608E-02  0.9788186E-01
         -2   -1    0    0    0  501 -0.00000000000E+00  0.00000000000E+00  0.57001981133E+02  0.57001981190E+02  0.25500000000E-02 0. -1.
          2   -1    0    0  501    0  0.00000000000E+00 -0.00000000000E+00 -0.19104848901E+04  0.19104848901E+04  0.25500000000E-02 0.  1.
    5000001    1    1    2    0    0  0.86561858230E+00  0.16944316202E+03 -0.32616599521E+03  0.41796769119E+03  0.19900000000E+03 0.  0.
   -5000001    1    1    2    0    0 -0.86561858230E+00 -0.16944316202E+03 -0.15273169138E+04  0.15495191801E+04  0.19900000000E+03 0.  0.
<mgrwt>
<rscale>  0 0.66000431E+03</rscale>
<asrwt>0</asrwt>
<pdfrwt beam="1">  1        2 0.27292637E+00 0.66000431E+03</pdfrwt>
<pdfrwt beam="2">  1       -2 0.81431413E-02 0.66000431E+03</pdfrwt>
<totfact> 0.87277207E+02</totfact>
</mgrwt>
</event>
<event>
 4    1  0.1869793E-005  0.5911736E+03  0.7818608E-02  0.9923889E-01
         -2   -1    0    0    0  501 -0.00000000000E+00  0.00000000000E+00  0.83284404996E+02  0.83284405035E+02  0.25500000000E-02 0. -1.
          2   -1    0    0  501    0  0.00000000000E+00 -0.00000000000E+00 -0.10490745741E+04  0.10490745741E+04  0.25500000000E-02 0.  1.
    5000001    1    1    2    0    0 -0.11686250584E+03 -0.14903144520E+03 -0.69187446262E+03  0.74441822180E+03  0.19900000000E+03 0.  0.
   -5000001    1    1    2    0    0  0.11686250584E+03  0.14903144520E+03 -0.27391570644E+03  0.38794075729E+03  0.19900000000E+03 0.  0.
<mgrwt>
<rscale>  0 0.59117358E+03</rscale>
<asrwt>0</asrwt>
<pdfrwt beam="1">  1        2 0.14986779E+00 0.59117358E+03</pdfrwt>
<pdfrwt beam="2">  1       -2 0.11897773E-01 0.59117358E+03</pdfrwt>
<totfact> 0.13600287E+03</totfact>
</mgrwt>
</event>
<event>
 4    1  0.1869793E-005  0.4508617E+03  0.7818608E-02  0.1027465E+00
          2   -1    0    0  501    0  0.00000000000E+00  0.00000000000E+00  0.10273552047E+04  0.10273552047E+04  0.25500000000E-02 0.  1.
         -2   -1    0    0    0  501 -0.00000000000E+00 -0.00000000000E+00 -0.49465907108E+02  0.49465907173E+02  0.25500000000E-02 0. -1.
    5000001    1    1    2    0    0 -0.75200524081E+02 -0.61121112028E+02  0.59103557130E+03  0.63112198163E+03  0.19900000000E+03 0.  0.
   -5000001    1    1    2    0    0  0.75200524081E+02  0.61121112028E+02  0.38685372632E+03  0.44569913027E+03  0.19900000000E+03 0.  0.
<mgrwt>
<rscale>  0 0.45086165E+03</rscale>
<asrwt>0</asrwt>
<pdfrwt beam="1">  1        2 0.14676503E+00 0.45086165E+03</pdfrwt>
<pdfrwt beam="2">  1       -2 0.70665580E-02 0.45086165E+03</pdfrwt>
<totfact> 0.32366724E+03</totfact>
</mgrwt>
</event>
<event>
 4    1  0.1869793E-005  0.4899868E+03  0.7818608E-02  0.1016426E+00
         -2   -1    0    0    0  501 -0.00000000000E+00  0.00000000000E+00  0.11299589061E+03  0.11299589064E+03  0.25500000000E-02 0. -1.
          2   -1    0    0  501    0  0.00000000000E+00 -0.00000000000E+00 -0.53118531872E+03  0.53118531873E+03  0.25500000000E-02 0.  1.
    5000001    1    1    2    0    0  0.93965287894E+02 -0.39699056704E+02 -0.77525287325E+02  0.23667839066E+03  0.19900000000E+03 0.  0.
   -5000001    1    1    2    0    0 -0.93965287894E+02  0.39699056704E+02 -0.34066414079E+03  0.40750281870E+03  0.19900000000E+03 0.  0.
<mgrwt>
<rscale>  0 0.48998677E+03</rscale>
<asrwt>0</asrwt>
<pdfrwt beam="1">  1        2 0.75883615E-01 0.48998677E+03</pdfrwt>
<pdfrwt beam="2">  1       -2 0.16142270E-01 0.48998677E+03</pdfrwt>
<totfact> 0.19271628E+03</totfact>
</mgrwt>
</event>
<event>
 4    1  0.1869793E-005  0.6371506E+03  0.7818608E-02  0.9831193E-01
         -2   -1    0    0    0  501 -0.00000000000E+00  0.00000000000E+00  0.49673969496E+02  0.49673969561E+02  0.25500000000E-02 0. -1.
          2   -1    0    0  501    0  0.00000000000E+00 -0.00000000000E+00 -0.20431266707E+04  0.20431266707E+04  0.25500000000E-02 0.  1.
    5000001    1    1    2    0    0  0.21171018322E+03 -0.62851581294E+02 -0.13729225899E+04  0.14047380399E+04  0.19900000000E+03 0.  0.
   -5000001    1    1    2    0    0 -0.21171018322E+03  0.62851581294E+02 -0.62053011131E+03  0.68806260035E+03  0.19900000000E+03 0.  0.
<mgrwt>
<rscale>  0 0.63715057E+03</rscale>
<asrwt>0</asrwt>
<pdfrwt beam="1">  1        2 0.29187519E+00 0.63715057E+03</pdfrwt>
<pdfrwt beam="2">  1       -2 0.70962827E-02 0.63715057E+03</pdfrwt>
<totfact> 0.93272625E+02</totfact>
</mgrwt>
</event>
<event>
 4    1  0.1869793E-005  0.8884064E+03  0.7818608E-02  0.9440191E-01
         -2   -1    0    0    0  501 -0.00000000000E+00  0.00000000000E+00  0.40308530552E+02  0.40308530632E+02  0.25500000000E-02 0. -1.
          2   -1    0    0  501    0  0.00000000000E+00 -0.00000000000E+00 -0.48951548238E+04  0.48951548238E+04  0.25500000000E-02 0.  1.
    5000001    1    1    2    0    0  0.15795782339E+02 -0.33399139939E+03 -0.36178343715E+04  0.36386984351E+04  0.19900000000E+03 0.  0.
   -5000001    1    1    2    0    0 -0.15795782339E+02  0.33399139939E+03 -0.12370119218E+04  0.12967649194E+04  0.19900000000E+03 0.  0.
<mgrwt>
<rscale>  0 0.88840643E+03</rscale>
<asrwt>0</asrwt>
<pdfrwt beam="1">  1        2 0.69930745E+00 0.88840643E+03</pdfrwt>
<pdfrwt beam="2">  1       -2 0.57583646E-02 0.88840643E+03</pdfrwt>
<totfact> 0.20353144E+01</totfact>
</mgrwt>
</event>
<event>
 4    1  0.1869793E-005  0.6416476E+03  0.7818608E-02  0.9822579E-01
          2   -1    0    0  501    0  0.00000000000E+00  0.00000000000E+00  0.71920428011E+03  0.71920428012E+03  0.25500000000E-02 0.  1.
         -2   -1    0    0    0  501 -0.00000000000E+00 -0.00000000000E+00 -0.14311358635E+03  0.14311358637E+03  0.25500000000E-02 0. -1.
    5000001    1    1    2    0    0  0.21027096352E+03 -0.11948867961E+03  0.19459290059E+03  0.36872594106E+03  0.19900000000E+03 0.  0.
   -5000001    1    1    2    0    0 -0.21027096352E+03  0.11948867961E+03  0.38149779317E+03  0.49359192543E+03  0.19900000000E+03 0.  0.
<mgrwt>
<rscale>  0 0.64164758E+03</rscale>
<asrwt>0</asrwt>
<pdfrwt beam="1">  1        2 0.10274347E+00 0.64164758E+03</pdfrwt>
<pdfrwt beam="2">  1       -2 0.20444798E-01 0.64164758E+03</pdfrwt>
<totfact> 0.89593900E+02</totfact>
</mgrwt>
</event>
<event>
 4    1  0.1869793E-005  0.5081180E+03  0.7818608E-02  0.1011681E+00
          2   -1    0    0  501    0  0.00000000000E+00  0.00000000000E+00  0.42369213926E+03  0.42369213927E+03  0.25500000000E-02 0.  1.
         -2   -1    0    0    0  501 -0.00000000000E+00 -0.00000000000E+00 -0.15234166605E+03  0.15234166607E+03  0.25500000000E-02 0. -1.
    5000001    1    1    2    0    0  0.10710410641E+03 -0.93938062073E+02  0.58375499988E+02  0.25160355346E+03  0.19900000000E+03 0.  0.
   -5000001    1    1    2    0    0 -0.10710410641E+03  0.93938062073E+02  0.21297497322E+03  0.32443025188E+03  0.19900000000E+03 0.  0.
<mgrwt>
<rscale>  0 0.50811796E+03</rscale>
<asrwt>0</asrwt>
<pdfrwt beam="1">  1        2 0.60527449E-01 0.50811796E+03</pdfrwt>
<pdfrwt beam="2">  1       -2 0.21763095E-01 0.50811796E+03</pdfrwt>
<totfact> 0.14860908E+03</totfact>
</mgrwt>
</event>
<event>
 4    1  0.1869793E-005  0.5446913E+03  0.7818608E-02  0.1002730E+00
          2   -1    0    0  501    0  0.00000000000E+00  0.00000000000E+00  0.11771181576E+04  0.11771181576E+04  0.25500000000E-02 0.  1.
         -2   -1    0    0    0  501 -0.00000000000E+00 -0.00000000000E+00 -0.63011638551E+02  0.63011638602E+02  0.25500000000E-02 0. -1.
    5000001    1    1    2    0    0 -0.17961613850E+03  0.47907077232E+02  0.56560206686E+03  0.62774496677E+03  0.19900000000E+03 0.  0.
   -5000001    1    1    2    0    0  0.17961613850E+03 -0.47907077232E+02  0.54850445219E+03  0.61238482944E+03  0.19900000000E+03 0.  0.
<mgrwt>
<rscale>  0 0.54469127E+03</rscale>
<asrwt>0</asrwt>
<pdfrwt beam="1">  1        2 0.16815974E+00 0.54469127E+03</pdfrwt>
<pdfrwt beam="2">  1       -2 0.90016626E-02 0.54469127E+03</pdfrwt>
<totfact> 0.18056416E+03</totfact>
</mgrwt>
</event>
<event>
 4    1  0.1869793E-005  0.6721028E+03  0.7818608E-02  0.9766167E-01
         -2   -1    0    0    0  501 -0.00000000000E+00  0.00000000000E+00  0.49271584992E+02  0.49271585058E+02  0.25500000000E-02 0. -1.
          2   -1    0    0  501    0  0.00000000000E+00 -0.00000000000E+00 -0.22920015159E+04  0.22920015159E+04  0.25500000000E-02 0.  1.
    5000001    1    1    2    0    0  0.23081866372E+03 -0.91096721685E+01 -0.62910122422E+03  0.69909197675E+03  0.19900000000E+03 0.  0.
   -5000001    1    1    2    0    0 -0.23081866372E+03  0.91096721685E+01 -0.16136287067E+04  0.16421811242E+04  0.19900000000E+03 0.  0.
<mgrwt>
<rscale>  0 0.67210281E+03</rscale>
<asrwt>0</asrwt>
<pdfrwt beam="1">  1        2 0.32742872E+00 0.67210281E+03</pdfrwt>
<pdfrwt beam="2">  1       -2 0.70387993E-02 0.67210281E+03</pdfrwt>
<totfact> 0.70583461E+02</totfact>
</mgrwt>
</event>
<event>
 4    1  0.1869793E-005  0.4939059E+03  0.7818608E-02  0.1015382E+00
         -2   -1    0    0    0  501 -0.00000000000E+00  0.00000000000E+00  0.84667605484E+02  0.84667605523E+02  0.25500000000E-02 0. -1.
          2   -1    0    0  501    0  0.00000000000E+00 -0.00000000000E+00 -0.72029630485E+03  0.72029630486E+03  0.25500000000E-02 0.  1.
    5000001    1    1    2    0    0 -0.72558637038E+02 -0.41560796291E+02 -0.12228883583E+03  0.24808791781E+03  0.19900000000E+03 0.  0.
   -5000001    1    1    2    0    0  0.72558637038E+02  0.41560796291E+02 -0.51333986354E+03  0.55687599257E+03  0.19900000000E+03 0.  0.
<mgrwt>
<rscale>  0 0.49390592E+03</rscale>
<asrwt>0</asrwt>
<pdfrwt beam="1">  1        2 0.10289947E+00 0.49390592E+03</pdfrwt>
<pdfrwt beam="2">  1       -2 0.12095373E-01 0.49390592E+03</pdfrwt>
<totfact> 0.21756272E+03</totfact>
</mgrwt>
</event>
<event>
 4    1  0.1869793E-005  0.5145567E+03  0.7818608E-02  0.1010048E+00
          2   -1    0    0  501    0  0.00000000000E+00  0.00000000000E+00  0.11916680141E+03  0.11916680143E+03  0.25500000000E-02 0.  1.
         -2   -1    0    0    0  501 -0.00000000000E+00 -0.00000000000E+00 -0.55545802115E+03  0.55545802115E+03  0.25500000000E-02 0. -1.
    5000001    1    1    2    0    0  0.15089367175E+03  0.29030777740E+02 -0.14658096362E+03  0.29103035087E+03  0.19900000000E+03 0.  0.
   -5000001    1    1    2    0    0 -0.15089367175E+03 -0.29030777740E+02 -0.28971025612E+03  0.38359447172E+03  0.19900000000E+03 0.  0.
<mgrwt>
<rscale>  0 0.51455672E+03</rscale>
<asrwt>0</asrwt>
<pdfrwt beam="1">  1        2 0.17023829E-01 0.51455672E+03</pdfrwt>
<pdfrwt beam="2">  1       -2 0.79351144E-01 0.51455672E+03</pdfrwt>
<totfact> 0.48877253E+02</totfact>
</mgrwt>
</event>
<event>
 4    1  0.1869793E-005  0.5519232E+03  0.7818608E-02  0.1001050E+00
          2   -1    0    0  501    0  0.00000000000E+00  0.00000000000E+00  0.50548370269E+03  0.50548370269E+03  0.25500000000E-02 0.  1.
         -2   -1    0    0    0  501 -0.00000000000E+00 -0.00000000000E+00 -0.15065731302E+03  0.15065731304E+03  0.25500000000E-02 0. -1.
    5000001    1    1    2    0    0 -0.53880128461E+02  0.18340286664E+03  0.18188303978E+03  0.33048770006E+03  0.19900000000E+03 0.  0.
   -5000001    1    1    2    0    0  0.53880128461E+02 -0.18340286664E+03  0.17294334989E+03  0.32565331567E+03  0.19900000000E+03 0.  0.
<mgrwt>
<rscale>  0 0.55192324E+03</rscale>
<asrwt>0</asrwt>
<pdfrwt beam="1">  1        2 0.72211957E-01 0.55192324E+03</pdfrwt>
<pdfrwt beam="2">  1       -2 0.21522473E-01 0.55192324E+03</pdfrwt>
<totfact> 0.12430413E+03</totfact>
</mgrwt>
</event>
<event>
 4    1  0.1869793E-005  0.7858452E+03  0.7818608E-02  0.9580735E-01
          2   -1    0    0  501    0  0.00000000000E+00  0.00000000000E+00  0.20172549024E+04  0.20172549024E+04  0.25500000000E-02 0.  1.
         -2   -1    0    0    0  501 -0.00000000000E+00 -0.00000000000E+00 -0.76533794123E+02  0.76533794165E+02  0.25500000000E-02 0. -1.
    5000001    1    1    2    0    0 -0.11180628888E+03  0.30626035171E+03  0.72484535207E+03  0.81932767174E+03  0.19900000000E+03 0.  0.
   -5000001    1    1    2    0    0  0.11180628888E+03 -0.30626035171E+03  0.12158757562E+04  0.12744610248E+04  0.19900000000E+03 0.  0.
<mgrwt>
<rscale>  0 0.78584520E+03</rscale>
<asrwt>0</asrwt>
<pdfrwt beam="1">  1        2 0.28817919E+00 0.78584520E+03</pdfrwt>
<pdfrwt beam="2">  1       -2 0.10933402E-01 0.78584520E+03</pdfrwt>
<totfact> 0.47465287E+02</totfact>
</mgrwt>
</event>
<event>
 4    1  0.1869793E-005  0.7811314E+03  0.7818608E-02  0.9587737E-01
          2   -1    0    0  501    0  0.00000000000E+00  0.00000000000E+00  0.12183793613E+04  0.12183793613E+04  0.25500000000E-02 0.  1.
         -2   -1    0    0    0  501 -0.00000000000E+00 -0.00000000000E+00 -0.12520039664E+03  0.12520039667E+03  0.25500000000E-02 0. -1.
    5000001    1    1    2    0    0 -0.28520072952E+03  0.12614240655E+03  0.76203624104E+03  0.84708417262E+03  0.19900000000E+03 0.  0.
   -5000001    1    1    2    0    0  0.28520072952E+03 -0.12614240655E+03  0.33114272357E+03  0.49649558530E+03  0.19900000000E+03 0.  0.
<mgrwt>
<rscale>  0 0.78113143E+03</rscale>
<asrwt>0</asrwt>
<pdfrwt beam="1">  1        2 0.17405420E+00 0.78113143E+03</pdfrwt>
<pdfrwt beam="2">  1       -2 0.17885771E-01 0.78113143E+03</pdfrwt>
<totfact> 0.54329110E+02</totfact>
</mgrwt>
</event>
<event>
 4    1  0.1869793E-005  0.7647685E+03  0.7818608E-02  0.9612462E-01
          2   -1    0    0  501    0  0.00000000000E+00  0.00000000000E+00  0.82856953270E+03  0.82856953270E+03  0.25500000000E-02 0.  1.
         -2   -1    0    0    0  501 -0.00000000000E+00 -0.00000000000E+00 -0.17647007278E+03  0.17647007280E+03  0.25500000000E-02 0. -1.
    5000001    1    1    2    0    0 -0.28899316074E+03 -0.24405664164E+02  0.12890578781E+03  0.37460697474E+03  0.19900000000E+03 0.  0.
   -5000001    1    1    2    0    0  0.28899316074E+03  0.24405664164E+02  0.52319367210E+03  0.63043263076E+03  0.19900000000E+03 0.  0.
<mgrwt>
<rscale>  0 0.76476853E+03</rscale>
<asrwt>0</asrwt>
<pdfrwt beam="1">  1        2 0.11836708E+00 0.76476853E+03</pdfrwt>
<pdfrwt beam="2">  1       -2 0.25210010E-01 0.76476853E+03</pdfrwt>
<totfact> 0.51417675E+02</totfact>
</mgrwt>
</event>
<event>
 4    1  0.1869793E-005  0.7281309E+03  0.7818608E-02  0.9670298E-01
         -2   -1    0    0    0  501 -0.00000000000E+00  0.00000000000E+00  0.30753322365E+03  0.30753322366E+03  0.25500000000E-02 0. -1.
          2   -1    0    0  501    0  0.00000000000E+00 -0.00000000000E+00 -0.43098972773E+03  0.43098972774E+03  0.25500000000E-02 0.  1.
    5000001    1    1    2    0    0 -0.14159968085E+03  0.22827496506E+02  0.21113000223E+03  0.32364863982E+03  0.19900000000E+03 0.  0.
   -5000001    1    1    2    0    0  0.14159968085E+03 -0.22827496506E+02 -0.33458650630E+03  0.41487431159E+03  0.19900000000E+03 0.  0.
<mgrwt>
<rscale>  0 0.72813092E+03</rscale>
<asrwt>0</asrwt>
<pdfrwt beam="1">  1        2 0.61569961E-01 0.72813092E+03</pdfrwt>
<pdfrwt beam="2">  1       -2 0.43933318E-01 0.72813092E+03</pdfrwt>
<totfact> 0.39339832E+02</totfact>
</mgrwt>
</event>
<event>
 4    1  0.1869793E-005  0.5313341E+03  0.7818608E-02  0.1005909E+00
          2   -1    0    0  501    0  0.00000000000E+00  0.00000000000E+00  0.12825891650E+03  0.12825891652E+03  0.25500000000E-02 0.  1.
         -2   -1    0    0    0  501 -0.00000000000E+00 -0.00000000000E+00 -0.55028515738E+03  0.55028515739E+03  0.25500000000E-02 0. -1.
    5000001    1    1    2    0    0 -0.16970968506E+03  0.41346691446E+02 -0.23861209745E+03  0.35643745475E+03  0.19900000000E+03 0.  0.
   -5000001    1    1    2    0    0  0.16970968506E+03 -0.41346691446E+02 -0.18341414343E+03  0.32210661916E+03  0.19900000000E+03 0.  0.
<mgrwt>
<rscale>  0 0.53133409E+03</rscale>
<asrwt>0</asrwt>
<pdfrwt beam="1">  1        2 0.18322703E-01 0.53133409E+03</pdfrwt>
<pdfrwt beam="2">  1       -2 0.78612165E-01 0.53133409E+03</pdfrwt>
<totfact> 0.45734165E+02</totfact>
</mgrwt>
</event>
<event>
 4    1  0.1869793E-005  0.4431364E+03  0.7818608E-02  0.1029789E+00
         -2   -1    0    0    0  501 -0.00000000000E+00  0.00000000000E+00  0.18493669051E+03  0.18493669053E+03  0.25500000000E-02 0. -1.
          2   -1    0    0  501    0  0.00000000000E+00 -0.00000000000E+00 -0.26545557449E+03  0.26545557450E+03  0.25500000000E-02 0.  1.
    5000001    1    1    2    0    0 -0.80463767141E+02 -0.53431206111E+02 -0.53202307772E+02  0.22750999354E+03  0.19900000000E+03 0.  0.
   -5000001    1    1    2    0    0  0.80463767141E+02  0.53431206111E+02 -0.27316576210E+02  0.22288227149E+03  0.19900000000E+03 0.  0.
<mgrwt>
<rscale>  0 0.44313644E+03</rscale>
<asrwt>0</asrwt>
<pdfrwt beam="1">  1        2 0.37922225E-01 0.44313644E+03</pdfrwt>
<pdfrwt beam="2">  1       -2 0.26419527E-01 0.44313644E+03</pdfrwt>
<totfact> 0.17589688E+03</totfact>
</mgrwt>
</event>
<event>
 4    1  0.1869793E-005  0.1221977E+04  0.7818608E-02  0.9093834E-01
          2   -1    0    0  501    0  0.00000000000E+00  0.00000000000E+00  0.12041317622E+04  0.12041317622E+04  0.25500000000E-02 0.  1.
         -2   -1    0    0    0  501 -0.00000000000E+00 -0.00000000000E+00 -0.31002188246E+03  0.31002188247E+03  0.25500000000E-02 0. -1.
    5000001    1    1    2    0    0  0.50473758705E+03 -0.27498355646E+03  0.51856092944E+03  0.79930121084E+03  0.19900000000E+03 0.  0.
   -5000001    1    1    2    0    0 -0.50473758705E+03  0.27498355646E+03  0.37554895032E+03  0.71485243386E+03  0.19900000000E+03 0.  0.
<mgrwt>
<rscale>  0 0.12219774E+04</rscale>
<asrwt>0</asrwt>
<pdfrwt beam="1">  1        2 0.17201882E+00 0.12219774E+04</pdfrwt>
<pdfrwt beam="2">  1       -2 0.44288841E-01 0.12219774E+04</pdfrwt>
<totfact> 0.10122508E+02</totfact>
</mgrwt>
</event>
<event>
 4    1  0.1869793E-005  0.1163581E+04  0.7818608E-02  0.9145345E-01
          2   -1    0    0  501    0  0.00000000000E+00  0.00000000000E+00  0.78091829994E+03  0.78091829994E+03  0.25500000000E-02 0.  1.
         -2   -1    0    0    0  501 -0.00000000000E+00 -0.00000000000E+00 -0.43343861645E+03  0.43343861646E+03  0.25500000000E-02 0. -1.
    5000001    1    1    2    0    0  0.41134452949E+03 -0.23893932539E+03 -0.10742867247E+03  0.52672406707E+03  0.19900000000E+03 0.  0.
   -5000001    1    1    2    0    0 -0.41134452949E+03  0.23893932539E+03  0.45490835596E+03  0.68763284933E+03  0.19900000000E+03 0.  0.
<mgrwt>
<rscale>  0 0.11635809E+04</rscale>
<asrwt>0</asrwt>
<pdfrwt beam="1">  1        2 0.11155976E+00 0.11635809E+04</pdfrwt>
<pdfrwt beam="2">  1       -2 0.61919802E-01 0.11635809E+04</pdfrwt>
<totfact> 0.94019002E+01</totfact>
</mgrwt>
</event>
<event>
 4    1  0.1869793E-005  0.6934360E+03  0.7818608E-02  0.9728524E-01
         -2   -1    0    0    0  501 -0.00000000000E+00  0.00000000000E+00  0.10985484794E+03  0.10985484797E+03  0.25500000000E-02 0. -1.
          2   -1    0    0  501    0  0.00000000000E+00 -0.00000000000E+00 -0.10942926849E+04  0.10942926849E+04  0.25500000000E-02 0.  1.
    5000001    1    1    2    0    0  0.72181335672E+02  0.22971019097E+03 -0.75347584180E+03  0.81566154821E+03  0.19900000000E+03 0.  0.
   -5000001    1    1    2    0    0 -0.72181335672E+02 -0.22971019097E+03 -0.23096199511E+03  0.38848598461E+03  0.19900000000E+03 0.  0.
<mgrwt>
<rscale>  0 0.69343596E+03</rscale>
<asrwt>0</asrwt>
<pdfrwt beam="1">  1        2 0.15632752E+00 0.69343596E+03</pdfrwt>
<pdfrwt beam="2">  1       -2 0.15693550E-01 0.69343596E+03</pdfrwt>
<totfact> 0.80318614E+02</totfact>
</mgrwt>
</event>
<event>
 4    1  0.1869793E-005  0.5356709E+03  0.7818608E-02  0.1004866E+00
          2   -1    0    0  501    0  0.00000000000E+00  0.00000000000E+00  0.35782030348E+03  0.35782030349E+03  0.25500000000E-02 0. -1.
         -2   -1    0    0    0  501 -0.00000000000E+00 -0.00000000000E+00 -0.20048005465E+03  0.20048005466E+03  0.25500000000E-02 0.  1.
    5000001    1    1    2    0    0 -0.11117285628E+03 -0.10614933156E+03  0.17480416146E+03  0.30624268061E+03  0.19900000000E+03 0.  0.
   -5000001    1    1    2    0    0  0.11117285628E+03  0.10614933156E+03 -0.17463912622E+02  0.25205767754E+03  0.19900000000E+03 0.  0.
<mgrwt>
<rscale>  0 0.53567092E+03</rscale>
<asrwt>0</asrwt>
<pdfrwt beam="1">  1        2 0.51117186E-01 0.53567092E+03</pdfrwt>
<pdfrwt beam="2">  1       -2 0.28640008E-01 0.53567092E+03</pdfrwt>
<totfact> 0.10956229E+03</totfact>
</mgrwt>
</event>
<event>
 4    1  0.1869793E-005  0.6688638E+03  0.7818608E-02  0.9772013E-01
          2   -1    0    0  501    0  0.00000000000E+00  0.00000000000E+00  0.67559142016E+03  0.67559142016E+03  0.25500000000E-02 0.  1.
         -2   -1    0    0    0  501 -0.00000000000E+00 -0.00000000000E+00 -0.16555080905E+03  0.16555080907E+03  0.25500000000E-02 0. -1.
    5000001    1    1    2    0    0  0.18009451257E+03  0.19828685247E+03  0.22712617048E+03  0.40365704086E+03  0.19900000000E+03 0.  0.
   -5000001    1    1    2    0    0 -0.18009451257E+03 -0.19828685247E+03  0.28291444064E+03  0.43748518837E+03  0.19900000000E+03 0.  0.
<mgrwt>
<rscale>  0 0.66886383E+03</rscale>
<asrwt>0</asrwt>
<pdfrwt beam="1">  1        2 0.96513061E-01 0.66886383E+03</pdfrwt>
<pdfrwt beam="2">  1       -2 0.23650115E-01 0.66886383E+03</pdfrwt>
<totfact> 0.74745578E+02</totfact>
</mgrwt>
</event>
<event>
 4    1  0.1869793E-005  0.4444946E+03  0.7818608E-02  0.1029377E+00
         -2   -1    0    0    0  501 -0.00000000000E+00  0.00000000000E+00  0.10902433215E+03  0.10902433218E+03  0.25500000000E-02 0. -1.
          2   -1    0    0  501    0  0.00000000000E+00 -0.00000000000E+00 -0.45305358408E+03  0.45305358409E+03  0.25500000000E-02 0.  1.
    5000001    1    1    2    0    0  0.10587699194E+02 -0.66241092098E+02 -0.26401215489E+03  0.33734759461E+03  0.19900000000E+03 0.  0.
   -5000001    1    1    2    0    0 -0.10587699194E+02  0.66241092098E+02 -0.80017097033E+02  0.22473032166E+03  0.19900000000E+03 0.  0.
<mgrwt>
<rscale>  0 0.44449461E+03</rscale>
<asrwt>0</asrwt>
<pdfrwt beam="1">  1        2 0.64721939E-01 0.44449461E+03</pdfrwt>
<pdfrwt beam="2">  1       -2 0.15574905E-01 0.44449461E+03</pdfrwt>
<totfact> 0.24463605E+03</totfact>
</mgrwt>
</event>
<event>
 4    1  0.1869793E-005  0.1125020E+04  0.7818608E-02  0.9181143E-01
          2   -1    0    0  501    0  0.00000000000E+00  0.00000000000E+00  0.13339746825E+04  0.13339746825E+04  0.25500000000E-02 0.  1.
         -2   -1    0    0    0  501 -0.00000000000E+00 -0.00000000000E+00 -0.23719886072E+03  0.23719886073E+03  0.25500000000E-02 0. -1.
    5000001    1    1    2    0    0 -0.21695727209E+03 -0.35102260551E+03  0.10042126445E+04  0.11037804867E+04  0.19900000000E+03 0.  0.
   -5000001    1    1    2    0    0  0.21695727209E+03  0.35102260551E+03  0.92563177289E+02  0.46739305652E+03  0.19900000000E+03 0.  0.
<mgrwt>
<rscale>  0 0.11250196E+04</rscale>
<asrwt>0</asrwt>
<pdfrwt beam="1">  1        2 0.19056781E+00 0.11250196E+04</pdfrwt>
<pdfrwt beam="2">  1       -2 0.33885553E-01 0.11250196E+04</pdfrwt>
<totfact> 0.14502607E+02</totfact>
</mgrwt>
</event>
<event>
 4    1  0.1869793E-005  0.5705016E+03  0.7818608E-02  0.9968569E-01
          2   -1    0    0  501    0  0.00000000000E+00  0.00000000000E+00  0.95714076970E+03  0.95714076971E+03  0.25500000000E-02 0.  1.
         -2   -1    0    0    0  501 -0.00000000000E+00 -0.00000000000E+00 -0.85011561159E+02  0.85011561198E+02  0.25500000000E-02 0. -1.
    5000001    1    1    2    0    0 -0.83645018259E+02  0.86612018157E+02  0.73771792960E+03  0.77351591737E+03  0.19900000000E+03 0.  0.
   -5000001    1    1    2    0    0  0.83645018259E+02 -0.86612018157E+02  0.13441127894E+03  0.26863641353E+03  0.19900000000E+03 0.  0.
<mgrwt>
<rscale>  0 0.57050164E+03</rscale>
<asrwt>0</asrwt>
<pdfrwt beam="1">  1        2 0.13673440E+00 0.57050164E+03</pdfrwt>
<pdfrwt beam="2">  1       -2 0.12144509E-01 0.57050164E+03</pdfrwt>
<totfact> 0.14960123E+03</totfact>
</mgrwt>
</event>
<event>
 4    1  0.1869793E-005  0.5751044E+03  0.7818608E-02  0.9958447E-01
          2   -1    0    0  501    0  0.00000000000E+00  0.00000000000E+00  0.29643439649E+04  0.29643439649E+04  0.25500000000E-02 0.  1.
         -2   -1    0    0    0  501 -0.00000000000E+00 -0.00000000000E+00 -0.27893612593E+02  0.27893612709E+02  0.25500000000E-02 0. -1.
    5000001    1    1    2    0    0  0.20364781186E+03 -0.14968395828E+02  0.12743305207E+04  0.13058391019E+04  0.19900000000E+03 0.  0.
   -5000001    1    1    2    0    0 -0.20364781186E+03  0.14968395828E+02  0.16621198316E+04  0.16863984757E+04  0.19900000000E+03 0.  0.
<mgrwt>
<rscale>  0 0.57510438E+03</rscale>
<asrwt>0</asrwt>
<pdfrwt beam="1">  1        2 0.42347765E+00 0.57510438E+03</pdfrwt>
<pdfrwt beam="2">  1       -2 0.39848024E-02 0.57510438E+03</pdfrwt>
<totfact> 0.77006494E+02</totfact>
</mgrwt>
</event>
<event>
 4    1  0.1869793E-005  0.9298115E+03  0.7818608E-02  0.9389064E-01
          2   -1    0    0  501    0  0.00000000000E+00  0.00000000000E+00  0.76235940716E+03  0.76235940716E+03  0.25500000000E-02 0.  1.
         -2   -1    0    0    0  501 -0.00000000000E+00 -0.00000000000E+00 -0.28351110252E+03  0.28351110253E+03  0.25500000000E-02 0. -1.
    5000001    1    1    2    0    0  0.38776849118E+03 -0.14461451831E+03  0.15785652275E+03  0.48558978926E+03  0.19900000000E+03 0.  0.
   -5000001    1    1    2    0    0 -0.38776849118E+03  0.14461451831E+03  0.32099178189E+03  0.56028072044E+03  0.19900000000E+03 0.  0.
<mgrwt>
<rscale>  0 0.92981150E+03</rscale>
<asrwt>0</asrwt>
<pdfrwt beam="1">  1        2 0.10890849E+00 0.92981150E+03</pdfrwt>
<pdfrwt beam="2">  1       -2 0.40501586E-01 0.92981150E+03</pdfrwt>
<totfact> 0.23341409E+02</totfact>
</mgrwt>
</event>
<event>
 4    1  0.1869793E-005  0.5530728E+03  0.7818608E-02  0.1000785E+00
         -2   -1    0    0    0  501 -0.00000000000E+00  0.00000000000E+00  0.38020261422E+02  0.38020261508E+02  0.25500000000E-02 0. -1.
          2   -1    0    0  501    0  0.00000000000E+00 -0.00000000000E+00 -0.20113584596E+04  0.20113584597E+04  0.25500000000E-02 0.  1.
    5000001    1    1    2    0    0  0.12337324196E+03  0.35433526558E+02 -0.15158455963E+04  0.15342311962E+04  0.19900000000E+03 0.  0.
   -5000001    1    1    2    0    0 -0.12337324196E+03 -0.35433526558E+02 -0.45749260197E+03  0.51514752498E+03  0.19900000000E+03 0.  0.
<mgrwt>
<rscale>  0 0.55307278E+03</rscale>
<asrwt>0</asrwt>
<pdfrwt beam="1">  1        2 0.28733686E+00 0.55307278E+03</pdfrwt>
<pdfrwt beam="2">  1       -2 0.54314672E-02 0.55307278E+03</pdfrwt>
<totfact> 0.14786386E+03</totfact>
</mgrwt>
</event>
<event>
 4    1  0.1869793E-005  0.1092623E+04  0.7818608E-02  0.9212412E-01
          2   -1    0    0  501    0  0.00000000000E+00  0.00000000000E+00  0.62974020682E+03  0.62974020683E+03  0.25500000000E-02 0.  1.
         -2   -1    0    0    0  501 -0.00000000000E+00 -0.00000000000E+00 -0.47393523577E+03  0.47393523578E+03  0.25500000000E-02 0. -1.
    5000001    1    1    2    0    0 -0.30633357538E+03  0.36426371076E+03 -0.10371275199E+03  0.52619924487E+03  0.19900000000E+03 0.  0.
   -5000001    1    1    2    0    0  0.30633357538E+03 -0.36426371076E+03  0.25951772304E+03  0.57747619773E+03  0.19900000000E+03 0.  0.
<mgrwt>
<rscale>  0 0.10926227E+04</rscale>
<asrwt>0</asrwt>
<pdfrwt beam="1">  1        2 0.89962887E-01 0.10926227E+04</pdfrwt>
<pdfrwt beam="2">  1       -2 0.67705034E-01 0.10926227E+04</pdfrwt>
<totfact> 0.10177873E+02</totfact>
</mgrwt>
</event>
<event>
 4    1  0.1869793E-005  0.4538717E+03  0.7818608E-02  0.1026574E+00
          2   -1    0    0  501    0  0.00000000000E+00  0.00000000000E+00  0.11959161492E+04  0.11959161492E+04  0.25500000000E-02 0.  1.
         -2   -1    0    0    0  501 -0.00000000000E+00 -0.00000000000E+00 -0.43063109967E+02  0.43063110043E+02  0.25500000000E-02 0. -1.
    5000001    1    1    2    0    0  0.75001358105E+02 -0.78705224697E+02  0.60071294072E+03  0.64208780806E+03  0.19900000000E+03 0.  0.
   -5000001    1    1    2    0    0 -0.75001358105E+02  0.78705224697E+02  0.55214009853E+03  0.59689145120E+03  0.19900000000E+03 0.  0.
<mgrwt>
<rscale>  0 0.45387165E+03</rscale>
<asrwt>0</asrwt>
<pdfrwt beam="1">  1        2 0.17084517E+00 0.45387165E+03</pdfrwt>
<pdfrwt beam="2">  1       -2 0.61518727E-02 0.45387165E+03</pdfrwt>
<totfact> 0.32181535E+03</totfact>
</mgrwt>
</event>
<event>
 4    1  0.1869793E-005  0.5841377E+03  0.7818608E-02  0.9938873E-01
         -2   -1    0    0    0  501 -0.00000000000E+00  0.00000000000E+00  0.11130451188E+03  0.11130451191E+03  0.25500000000E-02 0. -1.
          2   -1    0    0  501    0  0.00000000000E+00 -0.00000000000E+00 -0.76640402825E+03  0.76640402825E+03  0.25500000000E-02 0.  1.
    5000001    1    1    2    0    0  0.17755913886E+03 -0.10896294948E+03 -0.39965836876E+03  0.49267431826E+03  0.19900000000E+03 0.  0.
   -5000001    1    1    2    0    0 -0.17755913886E+03  0.10896294948E+03 -0.25544114760E+03  0.38503422191E+03  0.19900000000E+03 0.  0.
<mgrwt>
<rscale>  0 0.58413775E+03</rscale>
<asrwt>0</asrwt>
<pdfrwt beam="1">  1        2 0.10948629E+00 0.58413775E+03</pdfrwt>
<pdfrwt beam="2">  1       -2 0.15900645E-01 0.58413775E+03</pdfrwt>
<totfact> 0.12766093E+03</totfact>
</mgrwt>
</event>
<event>
 4    1  0.1869793E-005  0.6731495E+03  0.7818608E-02  0.9764285E-01
          2   -1    0    0  501    0  0.00000000000E+00  0.00000000000E+00  0.46727695770E+03  0.46727695771E+03  0.25500000000E-02 0. -1.
         -2   -1    0    0    0  501 -0.00000000000E+00 -0.00000000000E+00 -0.24243127265E+03  0.24243127266E+03  0.25500000000E-02 0.  1.
    5000001    1    1    2    0    0  0.19170654099E+03  0.14856035120E+03  0.24094480079E+03  0.39557170379E+03  0.19900000000E+03 0.  0.
   -5000001    1    1    2    0    0 -0.19170654099E+03 -0.14856035120E+03 -0.16099115738E+02  0.31413652659E+03  0.19900000000E+03 0.  0.
<mgrwt>
<rscale>  0 0.67314946E+03</rscale>
<asrwt>0</asrwt>
<pdfrwt beam="1">  1        2 0.66753849E-01 0.67314946E+03</pdfrwt>
<pdfrwt beam="2">  1       -2 0.34633040E-01 0.67314946E+03</pdfrwt>
<totfact> 0.57020237E+02</totfact>
</mgrwt>
</event>
<event>
 4    1  0.1869793E-005  0.8494879E+03  0.7818608E-02  0.9491024E-01
          2   -1    0    0  501    0  0.00000000000E+00  0.00000000000E+00  0.55936842587E+03  0.55936842588E+03  0.25500000000E-02 0.  1.
         -2   -1    0    0    0  501 -0.00000000000E+00 -0.00000000000E+00 -0.32251988828E+03  0.32251988829E+03  0.25500000000E-02 0. -1.
    5000001    1    1    2    0    0 -0.33468245064E+02  0.35916872687E+03  0.22573082142E+03  0.46976345274E+03  0.19900000000E+03 0.  0.
   -5000001    1    1    2    0    0  0.33468245064E+02 -0.35916872687E+03  0.11117716176E+02  0.41212486142E+03  0.19900000000E+03 0.  0.
<mgrwt>
<rscale>  0 0.84948795E+03</rscale>
<asrwt>0</asrwt>
<pdfrwt beam="1">  1        2 0.79909774E-01 0.84948795E+03</pdfrwt>
<pdfrwt beam="2">  1       -2 0.46074271E-01 0.84948795E+03</pdfrwt>
<totfact> 0.26439682E+02</totfact>
</mgrwt>
</event>
<event>
 4    1  0.1869793E-005  0.6665595E+03  0.7818608E-02  0.9776193E-01
         -2   -1    0    0    0  501 -0.00000000000E+00  0.00000000000E+00  0.31274432556E+03  0.31274432557E+03  0.25500000000E-02 0. -1.
          2   -1    0    0  501    0  0.00000000000E+00 -0.00000000000E+00 -0.35516352704E+03  0.35516352705E+03  0.25500000000E-02 0.  1.
    5000001    1    1    2    0    0 -0.16156545707E+03  0.16560920445E+03 -0.15543793763E+03  0.34247884310E+03  0.19900000000E+03 0.  0.
   -5000001    1    1    2    0    0  0.16156545707E+03 -0.16560920445E+03  0.11301873616E+03  0.32542900952E+03  0.19900000000E+03 0.  0.
<mgrwt>
<rscale>  0 0.66655946E+03</rscale>
<asrwt>0</asrwt>
<pdfrwt beam="1">  1        2 0.50737646E-01 0.66655946E+03</pdfrwt>
<pdfrwt beam="2">  1       -2 0.44677761E-01 0.66655946E+03</pdfrwt>
<totfact> 0.47290994E+02</totfact>
</mgrwt>
</event>
<event>
 4    1  0.1869793E-005  0.4583873E+03  0.7818608E-02  0.1025250E+00
          2   -1    0    0  501    0  0.00000000000E+00  0.00000000000E+00  0.16611691793E+04  0.16611691793E+04  0.25500000000E-02 0.  1.
         -2   -1    0    0    0  501 -0.00000000000E+00 -0.00000000000E+00 -0.31622146121E+02  0.31622146224E+02  0.25500000000E-02 0. -1.
    5000001    1    1    2    0    0 -0.13238438127E+02 -0.11213808415E+03  0.86411640187E+03  0.89389505096E+03  0.19900000000E+03 0.  0.
   -5000001    1    1    2    0    0  0.13238438127E+02  0.11213808415E+03  0.76543063131E+03  0.79889627457E+03  0.19900000000E+03 0.  0.
<mgrwt>
<rscale>  0 0.45838732E+03</rscale>
<asrwt>0</asrwt>
<pdfrwt beam="1">  1        2 0.23730997E+00 0.45838732E+03</pdfrwt>
<pdfrwt beam="2">  1       -2 0.45174477E-02 0.45838732E+03</pdfrwt>
<totfact> 0.29551215E+03</totfact>
</mgrwt>
</event>
<event>
 4    1  0.1869793E-005  0.6954426E+03  0.7818608E-02  0.9725058E-01
          2   -1    0    0  501    0  0.00000000000E+00  0.00000000000E+00  0.49256981989E+03  0.49256981989E+03  0.25500000000E-02 0.  1.
         -2   -1    0    0    0  501 -0.00000000000E+00 -0.00000000000E+00 -0.24546795643E+03  0.24546795645E+03  0.25500000000E-02 0. -1.
    5000001    1    1    2    0    0  0.15459589377E+03  0.52424047110E+02  0.37166753397E+03  0.45209061801E+03  0.19900000000E+03 0.  0.
   -5000001    1    1    2    0    0 -0.15459589377E+03 -0.52424047110E+02 -0.12456567052E+03  0.28594715833E+03  0.19900000000E+03 0.  0.
<mgrwt>
<rscale>  0 0.69544261E+03</rscale>
<asrwt>0</asrwt>
<pdfrwt beam="1">  1        2 0.70367117E-01 0.69544261E+03</pdfrwt>
<pdfrwt beam="2">  1       -2 0.35066851E-01 0.69544261E+03</pdfrwt>
<totfact> 0.52424809E+02</totfact>
</mgrwt>
</event>
<event>
 4    1  0.1869793E-005  0.6517274E+03  0.7818608E-02  0.9803543E-01
          2   -1    0    0  501    0  0.00000000000E+00  0.00000000000E+00  0.14970714076E+04  0.14970714076E+04  0.25500000000E-02 0.  1.
         -2   -1    0    0    0  501 -0.00000000000E+00 -0.00000000000E+00 -0.70929913782E+02  0.70929913828E+02  0.25500000000E-02 0. -1.
    5000001    1    1    2    0    0  0.23166083124E+03  0.83531499160E+02  0.89852760512E+03  0.95267891194E+03  0.19900000000E+03 0.  0.
   -5000001    1    1    2    0    0 -0.23166083124E+03 -0.83531499160E+02  0.52761388873E+03  0.61532240953E+03  0.19900000000E+03 0.  0.
<mgrwt>
<rscale>  0 0.65172738E+03</rscale>
<asrwt>0</asrwt>
<pdfrwt beam="1">  1        2 0.21386735E+00 0.65172738E+03</pdfrwt>
<pdfrwt beam="2">  1       -2 0.10132845E-01 0.65172738E+03</pdfrwt>
<totfact> 0.99866041E+02</totfact>
</mgrwt>
</event>
<event>
 4    1  0.1869793E-005  0.8507638E+03  0.7818608E-02  0.9489312E-01
          2   -1    0    0  501    0  0.00000000000E+00  0.00000000000E+00  0.64343610354E+03  0.64343610355E+03  0.25500000000E-02 0.  1.
         -2   -1    0    0    0  501 -0.00000000000E+00 -0.00000000000E+00 -0.28122415462E+03  0.28122415463E+03  0.25500000000E-02 0. -1.
    5000001    1    1    2    0    0 -0.30210413909E+02  0.36884994387E+03  0.10912813982E+03  0.43413465779E+03  0.19900000000E+03 0.  0.
   -5000001    1    1    2    0    0  0.30210413909E+02 -0.36884994387E+03  0.25308380910E+03  0.49052560038E+03  0.19900000000E+03 0.  0.
<mgrwt>
<rscale>  0 0.85076383E+03</rscale>
<asrwt>0</asrwt>
<pdfrwt beam="1">  1        2 0.91919445E-01 0.85076383E+03</pdfrwt>
<pdfrwt beam="2">  1       -2 0.40174879E-01 0.85076383E+03</pdfrwt>
<totfact> 0.29354267E+02</totfact>
</mgrwt>
</event>
<event>
 4    1  0.1869793E-005  0.1076231E+04  0.7818608E-02  0.9228673E-01
         -2   -1    0    0    0  501 -0.00000000000E+00  0.00000000000E+00  0.39618404505E+03  0.39618404506E+03  0.25500000000E-02 0. -1.
          2   -1    0    0  501    0  0.00000000000E+00 -0.00000000000E+00 -0.73089396542E+03  0.73089396542E+03  0.25500000000E-02 0.  1.
    5000001    1    1    2    0    0 -0.33842323811E+03 -0.33292691151E+03 -0.31113097758E+01  0.51476334053E+03  0.19900000000E+03 0.  0.
   -5000001    1    1    2    0    0  0.33842323811E+03  0.33292691151E+03 -0.33159861059E+03  0.61231466996E+03  0.19900000000E+03 0.  0.
<mgrwt>
<rscale>  0 0.10762314E+04</rscale>
<asrwt>0</asrwt>
<pdfrwt beam="1">  1        2 0.10441342E+00 0.10762314E+04</pdfrwt>
<pdfrwt beam="2">  1       -2 0.56597721E-01 0.10762314E+04</pdfrwt>
<totfact> 0.12422827E+02</totfact>
</mgrwt>
</event>
<event>
 4    1  0.1869793E-005  0.6015894E+03  0.7818608E-02  0.9902114E-01
         -2   -1    0    0    0  501 -0.00000000000E+00  0.00000000000E+00  0.23970482831E+03  0.23970482833E+03  0.25500000000E-02 0. -1.
          2   -1    0    0  501    0  0.00000000000E+00 -0.00000000000E+00 -0.37745358693E+03  0.37745358694E+03  0.25500000000E-02 0.  1.
    5000001    1    1    2    0    0  0.20506771211E+03 -0.88201474565E+02 -0.35724320822E+02  0.30118016828E+03  0.19900000000E+03 0.  0.
   -5000001    1    1    2    0    0 -0.20506771211E+03  0.88201474565E+02 -0.10202443780E+03  0.31597824699E+03  0.19900000000E+03 0.  0.
<mgrwt>
<rscale>  0 0.60158939E+03</rscale>
<asrwt>0</asrwt>
<pdfrwt beam="1">  1        2 0.53921941E-01 0.60158939E+03</pdfrwt>
<pdfrwt beam="2">  1       -2 0.34243547E-01 0.60158939E+03</pdfrwt>
<totfact> 0.74058443E+02</totfact>
</mgrwt>
</event>
<event>
 4    1  0.1869793E-005  0.6225324E+03  0.7818608E-02  0.9859731E-01
          2   -1    0    0  501    0  0.00000000000E+00  0.00000000000E+00  0.12372402787E+04  0.12372402787E+04  0.25500000000E-02 0.  1.
         -2   -1    0    0    0  501 -0.00000000000E+00 -0.00000000000E+00 -0.78308664658E+02  0.78308664700E+02  0.25500000000E-02 0. -1.
    5000001    1    1    2    0    0  0.14063617005E+03 -0.19304606405E+03  0.61222544448E+03  0.68663404375E+03  0.19900000000E+03 0.  0.
   -5000001    1    1    2    0    0 -0.14063617005E+03  0.19304606405E+03  0.54670616960E+03  0.62891489969E+03  0.19900000000E+03 0.  0.
<mgrwt>
<rscale>  0 0.62253236E+03</rscale>
<asrwt>0</asrwt>
<pdfrwt beam="1">  1        2 0.17674860E+00 0.62253236E+03</pdfrwt>
<pdfrwt beam="2">  1       -2 0.11186953E-01 0.62253236E+03</pdfrwt>
<totfact> 0.11729601E+03</totfact>
</mgrwt>
</event>
<event>
 4    1  0.1869793E-005  0.6015533E+03  0.7818608E-02  0.9902189E-01
         -2   -1    0    0    0  501 -0.00000000000E+00  0.00000000000E+00  0.15547623571E+03  0.15547623573E+03  0.25500000000E-02 0. -1.
          2   -1    0    0  501    0  0.00000000000E+00 -0.00000000000E+00 -0.58186758156E+03  0.58186758157E+03  0.25500000000E-02 0.  1.
    5000001    1    1    2    0    0  0.18081515279E+03  0.97824494530E+02 -0.99513756261E+02  0.30293190472E+03  0.19900000000E+03 0.  0.
   -5000001    1    1    2    0    0 -0.18081515279E+03 -0.97824494530E+02 -0.32687758960E+03  0.43441191258E+03  0.19900000000E+03 0.  0.
<mgrwt>
<rscale>  0 0.60155326E+03</rscale>
<asrwt>0</asrwt>
<pdfrwt beam="1">  1        2 0.83123939E-01 0.60155326E+03</pdfrwt>
<pdfrwt beam="2">  1       -2 0.22210891E-01 0.60155326E+03</pdfrwt>
<totfact> 0.99956311E+02</totfact>
</mgrwt>
</event>
<event>
 4    1  0.1869793E-005  0.5480380E+03  0.7818608E-02  0.1001949E+00
         -2   -1    0    0    0  501 -0.00000000000E+00  0.00000000000E+00  0.19592167321E+03  0.19592167323E+03  0.25500000000E-02 0. -1.
          2   -1    0    0  501    0  0.00000000000E+00 -0.00000000000E+00 -0.38324709460E+03  0.38324709460E+03  0.25500000000E-02 0.  1.
    5000001    1    1    2    0    0  0.83453949981E+02  0.16887327752E+03 -0.95388380813E+02  0.29014253191E+03  0.19900000000E+03 0.  0.
   -5000001    1    1    2    0    0 -0.83453949981E+02 -0.16887327752E+03 -0.91937040569E+02  0.28902623593E+03  0.19900000000E+03 0.  0.
<mgrwt>
<rscale>  0 0.54803800E+03</rscale>
<asrwt>0</asrwt>
<pdfrwt beam="1">  1        2 0.54749585E-01 0.54803800E+03</pdfrwt>
<pdfrwt beam="2">  1       -2 0.27988810E-01 0.54803800E+03</pdfrwt>
<totfact> 0.10591639E+03</totfact>
</mgrwt>
</event>
<event>
 4    1  0.1869793E-005  0.7703041E+03  0.7818608E-02  0.9604024E-01
          2   -1    0    0  501    0  0.00000000000E+00  0.00000000000E+00  0.17134948990E+04  0.17134948990E+04  0.25500000000E-02 0.  1.
         -2   -1    0    0    0  501 -0.00000000000E+00 -0.00000000000E+00 -0.86572820904E+02  0.86572820942E+02  0.25500000000E-02 0. -1.
    5000001    1    1    2    0    0 -0.28181612492E+02  0.32721826689E+03  0.74433321087E+03  0.83755532729E+03  0.19900000000E+03 0.  0.
   -5000001    1    1    2    0    0  0.28181612492E+02 -0.32721826689E+03  0.88258886726E+03  0.96251239268E+03  0.19900000000E+03 0.  0.
<mgrwt>
<rscale>  0 0.77030406E+03</rscale>
<asrwt>0</asrwt>
<pdfrwt beam="1">  1        2 0.24478498E+00 0.77030406E+03</pdfrwt>
<pdfrwt beam="2">  1       -2 0.12367546E-01 0.77030406E+03</pdfrwt>
<totfact> 0.55324465E+02</totfact>
</mgrwt>
</event>
<event>
 4    1  0.1869793E-005  0.4547738E+03  0.7818608E-02  0.1026308E+00
         -2   -1    0    0    0  501 -0.00000000000E+00  0.00000000000E+00  0.11040369269E+03  0.11040369272E+03  0.25500000000E-02 0. -1.
          2   -1    0    0  501    0  0.00000000000E+00 -0.00000000000E+00 -0.46832488981E+03  0.46832488982E+03  0.25500000000E-02 0.  1.
    5000001    1    1    2    0    0  0.91834027598E+02  0.57095058581E+02 -0.20474259019E+03  0.30530945380E+03  0.19900000000E+03 0.  0.
   -5000001    1    1    2    0    0 -0.91834027598E+02 -0.57095058581E+02 -0.15317860693E+03  0.27341912874E+03  0.19900000000E+03 0.  0.
<mgrwt>
<rscale>  0 0.45477378E+03</rscale>
<asrwt>0</asrwt>
<pdfrwt beam="1">  1        2 0.66903554E-01 0.45477378E+03</pdfrwt>
<pdfrwt beam="2">  1       -2 0.15771956E-01 0.45477378E+03</pdfrwt>
<totfact> 0.23088587E+03</totfact>
</mgrwt>
</event>
<event>
 4    1  0.1869793E-005  0.7635412E+03  0.7818608E-02  0.9614343E-01
          2   -1    0    0  501    0  0.00000000000E+00  0.00000000000E+00  0.56327964253E+03  0.56327964254E+03  0.25500000000E-02 0.  1.
         -2   -1    0    0    0  501 -0.00000000000E+00 -0.00000000000E+00 -0.25875029993E+03  0.25875029994E+03  0.25500000000E-02 0. -1.
    5000001    1    1    2    0    0 -0.14759507761E+03 -0.26148956978E+03  0.16140813797E+02  0.36058650545E+03  0.19900000000E+03 0.  0.
   -5000001    1    1    2    0    0  0.14759507761E+03  0.26148956978E+03  0.28838852880E+03  0.46144343704E+03  0.19900000000E+03 0.  0.
<mgrwt>
<rscale>  0 0.76354116E+03</rscale>
<asrwt>0</asrwt>
<pdfrwt beam="1">  1        2 0.80468521E-01 0.76354116E+03</pdfrwt>
<pdfrwt beam="2">  1       -2 0.36964328E-01 0.76354116E+03</pdfrwt>
<totfact> 0.40523851E+02</totfact>
</mgrwt>
</event>
<event>
 4    1  0.1869793E-005  0.4720689E+03  0.7818608E-02  0.1021338E+00
         -2   -1    0    0    0  501 -0.00000000000E+00  0.00000000000E+00  0.68967462113E+02  0.68967462160E+02  0.25500000000E-02 0. -1.
          2   -1    0    0  501    0  0.00000000000E+00 -0.00000000000E+00 -0.80780484437E+03  0.80780484438E+03  0.25500000000E-02 0.  1.
    5000001    1    1    2    0    0 -0.98226879639E+01 -0.12654261064E+03 -0.37186335999E+03  0.44044622374E+03  0.19900000000E+03 0.  0.
   -5000001    1    1    2    0    0  0.98226879639E+01  0.12654261064E+03 -0.36697402227E+03  0.43632608280E+03  0.19900000000E+03 0.  0.
<mgrwt>
<rscale>  0 0.47206885E+03</rscale>
<asrwt>0</asrwt>
<pdfrwt beam="1">  1        2 0.11540069E+00 0.47206885E+03</pdfrwt>
<pdfrwt beam="2">  1       -2 0.98524951E-02 0.47206885E+03</pdfrwt>
<totfact> 0.26308180E+03</totfact>
</mgrwt>
</event>
<event>
 4    1  0.1869793E-005  0.9942270E+03  0.7818608E-02  0.9314899E-01
          2   -1    0    0  501    0  0.00000000000E+00  0.00000000000E+00  0.36865062432E+04  0.36865062432E+04  0.25500000000E-02 0.  1.
         -2   -1    0    0    0  501 -0.00000000000E+00 -0.00000000000E+00 -0.67034152179E+02  0.67034152228E+02  0.25500000000E-02 0. -1.
    5000001    1    1    2    0    0 -0.28836587903E+03 -0.76297316591E+02  0.50987613862E+03  0.62333846139E+03  0.19900000000E+03 0.  0.
   -5000001    1    1    2    0    0  0.28836587903E+03  0.76297316591E+02  0.31095959524E+04  0.31302019341E+04  0.19900000000E+03 0.  0.
<mgrwt>
<rscale>  0 0.99422698E+03</rscale>
<asrwt>0</asrwt>
<pdfrwt beam="1">  1        2 0.52664370E+00 0.99422698E+03</pdfrwt>
<pdfrwt beam="2">  1       -2 0.95763083E-02 0.99422698E+03</pdfrwt>
<totfact> 0.70419150E+01</totfact>
</mgrwt>
</event>
<event>
 4    1  0.1869793E-005  0.5028413E+03  0.7818608E-02  0.1013040E+00
         -2   -1    0    0    0  501 -0.00000000000E+00  0.00000000000E+00  0.11202399065E+02  0.11202399355E+02  0.25500000000E-02 0. -1.
          2   -1    0    0  501    0  0.00000000000E+00 -0.00000000000E+00 -0.56427504992E+04  0.56427504992E+04  0.25500000000E-02 0.  1.
    5000001    1    1    2    0    0 -0.35427937216E+02  0.14829637663E+03 -0.30304108962E+04  0.30407627585E+04  0.19900000000E+03 0.  0.
   -5000001    1    1    2    0    0  0.35427937216E+02 -0.14829637663E+03 -0.26011372040E+04  0.26131901400E+04  0.19900000000E+03 0.  0.
<mgrwt>
<rscale>  0 0.50284130E+03</rscale>
<asrwt>0</asrwt>
<pdfrwt beam="1">  1        2 0.80610540E+00 0.50284130E+03</pdfrwt>
<pdfrwt beam="2">  1       -2 0.16003464E-02 0.50284130E+03</pdfrwt>
<totfact> 0.24076345E+01</totfact>
</mgrwt>
</event>
<event>
 4    1  0.1869793E-005  0.4533995E+03  0.7818608E-02  0.1026713E+00
          2   -1    0    0  501    0  0.00000000000E+00  0.00000000000E+00  0.16971349231E+04  0.16971349231E+04  0.25500000000E-02 0. -1.
         -2   -1    0    0    0  501 -0.00000000000E+00 -0.00000000000E+00 -0.30282086910E+02  0.30282087017E+02  0.25500000000E-02 0.  1.
    5000001    1    1    2    0    0 -0.32059767134E+02 -0.99247806997E+02  0.94859901650E+03  0.97484308993E+03  0.19900000000E+03 0.  0.
   -5000001    1    1    2    0    0  0.32059767134E+02  0.99247806997E+02  0.71825381968E+03  0.75257392019E+03  0.19900000000E+03 0.  0.
<mgrwt>
<rscale>  0 0.45339955E+03</rscale>
<asrwt>0</asrwt>
<pdfrwt beam="1">  1        2 0.24244781E+00 0.45339955E+03</pdfrwt>
<pdfrwt beam="2">  1       -2 0.43260132E-02 0.45339955E+03</pdfrwt>
<totfact> 0.30289732E+03</totfact>
</mgrwt>
</event>
<event>
 4    1  0.1869793E-005  0.1611014E+04  0.7818608E-02  0.8813810E-01
         -2   -1    0    0    0  501 -0.00000000000E+00  0.00000000000E+00  0.19766912940E+03  0.19766912941E+03  0.25500000000E-02 0. -1.
          2   -1    0    0  501    0  0.00000000000E+00 -0.00000000000E+00 -0.32824640143E+04  0.32824640143E+04  0.25500000000E-02 0.  1.
    5000001    1    1    2    0    0  0.61130722195E+03 -0.47485389384E+03 -0.17590449255E+04  0.19321032038E+04  0.19900000000E+03 0.  0.
   -5000001    1    1    2    0    0 -0.61130722195E+03  0.47485389384E+03 -0.13257499594E+04  0.15480299400E+04  0.19900000000E+03 0.  0.
<mgrwt>
<rscale>  0 0.16110143E+04</rscale>
<asrwt>0</asrwt>
<pdfrwt beam="1">  1        2 0.46892339E+00 0.16110143E+04</pdfrwt>
<pdfrwt beam="2">  1       -2 0.28238449E-01 0.16110143E+04</pdfrwt>
<totfact> 0.17995589E+01</totfact>
</mgrwt>
</event>
<event>
 4    1  0.1869793E-005  0.4155375E+03  0.7818608E-02  0.1038529E+00
          2   -1    0    0  501    0  0.00000000000E+00  0.00000000000E+00  0.38551957496E+02  0.38551957581E+02  0.25500000000E-02 0.  1.
         -2   -1    0    0    0  501 -0.00000000000E+00 -0.00000000000E+00 -0.11197319117E+04  0.11197319117E+04  0.25500000000E-02 0. -1.
    5000001    1    1    2    0    0  0.54162339854E+02 -0.47827549356E+01 -0.47172152469E+03  0.51485787424E+03  0.19900000000E+03 0.  0.
   -5000001    1    1    2    0    0 -0.54162339854E+02  0.47827549356E+01 -0.60945842952E+03  0.64342599506E+03  0.19900000000E+03 0.  0.
<mgrwt>
<rscale>  0 0.41553752E+03</rscale>
<asrwt>0</asrwt>
<pdfrwt beam="1">  1        2 0.55074232E-02 0.41553752E+03</pdfrwt>
<pdfrwt beam="2">  1       -2 0.15996168E+00 0.41553752E+03</pdfrwt>
<totfact> 0.37190077E+02</totfact>
</mgrwt>
</event>
<event>
 4    1  0.1869793E-005  0.6324995E+03  0.7818608E-02  0.9840183E-01
          2   -1    0    0  501    0  0.00000000000E+00  0.00000000000E+00  0.12204859901E+04  0.12204859902E+04  0.25500000000E-02 0.  1.
         -2   -1    0    0    0  501 -0.00000000000E+00 -0.00000000000E+00 -0.81945964309E+02  0.81945964349E+02  0.25500000000E-02 0. -1.
    5000001    1    1    2    0    0  0.61676745779E+02 -0.19214219386E+03  0.85821859240E+03  0.90380462268E+03  0.19900000000E+03 0.  0.
   -5000001    1    1    2    0    0 -0.61676745779E+02  0.19214219386E+03  0.28032143343E+03  0.39862733182E+03  0.19900000000E+03 0.  0.
<mgrwt>
<rscale>  0 0.63249949E+03</rscale>
<asrwt>0</asrwt>
<pdfrwt beam="1">  1        2 0.17435513E+00 0.63249949E+03</pdfrwt>
<pdfrwt beam="2">  1       -2 0.11706567E-01 0.63249949E+03</pdfrwt>
<totfact> 0.11120248E+03</totfact>
</mgrwt>
</event>
<event>
 4    1  0.1869793E-005  0.4598154E+03  0.7818608E-02  0.1024835E+00
          2   -1    0    0  501    0  0.00000000000E+00  0.00000000000E+00  0.52697972059E+03  0.52697972060E+03  0.25500000000E-02 0.  1.
         -2   -1    0    0    0  501 -0.00000000000E+00 -0.00000000000E+00 -0.10030280690E+03  0.10030280694E+03  0.25500000000E-02 0. -1.
    5000001    1    1    2    0    0 -0.27383257294E+02 -0.94130322557E+02  0.13096277235E+03  0.25760941005E+03  0.19900000000E+03 0.  0.
   -5000001    1    1    2    0    0  0.27383257294E+02  0.94130322557E+02  0.29571414133E+03  0.36967311748E+03  0.19900000000E+03 0.  0.
<mgrwt>
<rscale>  0 0.45981538E+03</rscale>
<asrwt>0</asrwt>
<pdfrwt beam="1">  1        2 0.75282816E-01 0.45981538E+03</pdfrwt>
<pdfrwt beam="2">  1       -2 0.14328973E-01 0.45981538E+03</pdfrwt>
<totfact> 0.23737394E+03</totfact>
</mgrwt>
</event>
<event>
 4    1  0.1869793E-005  0.9947273E+03  0.7818608E-02  0.9314347E-01
          2   -1    0    0  501    0  0.00000000000E+00  0.00000000000E+00  0.15991689763E+04  0.15991689763E+04  0.25500000000E-02 0.  1.
         -2   -1    0    0    0  501 -0.00000000000E+00 -0.00000000000E+00 -0.15468695414E+03  0.15468695416E+03  0.25500000000E-02 0. -1.
    5000001    1    1    2    0    0 -0.26418428533E+03  0.37086491326E+03  0.68544821069E+03  0.84662528313E+03  0.19900000000E+03 0.  0.
   -5000001    1    1    2    0    0  0.26418428533E+03 -0.37086491326E+03  0.75903381144E+03  0.90723064730E+03  0.19900000000E+03 0.  0.
<mgrwt>
<rscale>  0 0.99472726E+03</rscale>
<asrwt>0</asrwt>
<pdfrwt beam="1">  1        2 0.22845270E+00 0.99472726E+03</pdfrwt>
<pdfrwt beam="2">  1       -2 0.22098138E-01 0.99472726E+03</pdfrwt>
<totfact> 0.23127037E+02</totfact>
</mgrwt>
</event>
<event>
 4    1  0.1869793E-005  0.9192887E+03  0.7818608E-02  0.9401786E-01
          2   -1    0    0  501    0  0.00000000000E+00  0.00000000000E+00  0.10392066208E+03  0.10392066211E+03  0.25500000000E-02 0. -1.
         -2   -1    0    0    0  501 -0.00000000000E+00 -0.00000000000E+00 -0.20330212393E+04  0.20330212393E+04  0.25500000000E-02 0.  1.
    5000001    1    1    2    0    0  0.99149973017E+02 -0.16982289244E+03 -0.11679816872E+03  0.30317213619E+03  0.19900000000E+03 0.  0.
   -5000001    1    1    2    0    0 -0.99149973017E+02  0.16982289244E+03 -0.18123024085E+04  0.18337697652E+04  0.19900000000E+03 0.  0.
<mgrwt>
<rscale>  0 0.91928867E+03</rscale>
<asrwt>0</asrwt>
<pdfrwt beam="1">  1        2 0.14845810E-01 0.91928867E+03</pdfrwt>
<pdfrwt beam="2">  1       -2 0.29043158E+00 0.91928867E+03</pdfrwt>
<totfact> 0.15099569E+01</totfact>
</mgrwt>
</event>
<event>
 4    1  0.1869793E-005  0.5744782E+03  0.7818608E-02  0.9959818E-01
         -2   -1    0    0    0  501 -0.00000000000E+00  0.00000000000E+00  0.77592458572E+02  0.77592458614E+02  0.25500000000E-02 0. -1.
          2   -1    0    0  501    0  0.00000000000E+00 -0.00000000000E+00 -0.10633287824E+04  0.10633287824E+04  0.25500000000E-02 0.  1.
    5000001    1    1    2    0    0  0.16755861906E+03 -0.17034625081E+02 -0.73233907001E+03  0.77735936524E+03  0.19900000000E+03 0.  0.
   -5000001    1    1    2    0    0 -0.16755861906E+03  0.17034625081E+02 -0.25339725382E+03  0.36356187577E+03  0.19900000000E+03 0.  0.
<mgrwt>
<rscale>  0 0.57447818E+03</rscale>
<asrwt>0</asrwt>
<pdfrwt beam="1">  1        2 0.15190410E+00 0.57447818E+03</pdfrwt>
<pdfrwt beam="2">  1       -2 0.11084638E-01 0.57447818E+03</pdfrwt>
<totfact> 0.14983877E+03</totfact>
</mgrwt>
</event>
<event>
 4    1  0.1869793E-005  0.5635951E+03  0.7818608E-02  0.9983953E-01
         -2   -1    0    0    0  501 -0.00000000000E+00  0.00000000000E+00  0.13134164276E+03  0.13134164279E+03  0.25500000000E-02 0. -1.
          2   -1    0    0  501    0  0.00000000000E+00 -0.00000000000E+00 -0.60460526195E+03  0.60460526195E+03  0.25500000000E-02 0.  1.
    5000001    1    1    2    0    0 -0.14926209592E+03  0.11587961388E+03 -0.15300309248E+03  0.31419453290E+03  0.19900000000E+03 0.  0.
   -5000001    1    1    2    0    0  0.14926209592E+03 -0.11587961388E+03 -0.32026052670E+03  0.42175237184E+03  0.19900000000E+03 0.  0.
<mgrwt>
<rscale>  0 0.56359506E+03</rscale>
<asrwt>0</asrwt>
<pdfrwt beam="1">  1        2 0.86372179E-01 0.56359506E+03</pdfrwt>
<pdfrwt beam="2">  1       -2 0.18763092E-01 0.56359506E+03</pdfrwt>
<totfact> 0.12832821E+03</totfact>
</mgrwt>
</event>
<event>
 4    1  0.1869793E-005  0.5790716E+03  0.7818608E-02  0.9949803E-01
          2   -1    0    0  501    0  0.00000000000E+00  0.00000000000E+00  0.51357493751E+03  0.51357493752E+03  0.25500000000E-02 0.  1.
         -2   -1    0    0    0  501 -0.00000000000E+00 -0.00000000000E+00 -0.16323025194E+03  0.16323025196E+03  0.25500000000E-02 0. -1.
    5000001    1    1    2    0    0 -0.16342023755E+02 -0.20950640372E+03  0.16539564782E+03  0.33334173945E+03  0.19900000000E+03 0.  0.
   -5000001    1    1    2    0    0  0.16342023755E+02  0.20950640372E+03  0.18494903775E+03  0.34346345003E+03  0.19900000000E+03 0.  0.
<mgrwt>
<rscale>  0 0.57907155E+03</rscale>
<asrwt>0</asrwt>
<pdfrwt beam="1">  1        2 0.73367849E-01 0.57907155E+03</pdfrwt>
<pdfrwt beam="2">  1       -2 0.23318607E-01 0.57907155E+03</pdfrwt>
<totfact> 0.10594648E+03</totfact>
</mgrwt>
</event>
<event>
 4    1  0.1869793E-005  0.6243590E+03  0.7818608E-02  0.9856119E-01
         -2   -1    0    0    0  501 -0.00000000000E+00  0.00000000000E+00  0.42317614239E+02  0.42317614316E+02  0.25500000000E-02 0. -1.
          2   -1    0    0  501    0  0.00000000000E+00 -0.00000000000E+00 -0.23029660237E+04  0.23029660237E+04  0.25500000000E-02 0.  1.
    5000001    1    1    2    0    0 -0.28086836354E+02 -0.23882727260E+03 -0.11500908643E+04  0.11916951509E+04  0.19900000000E+03 0.  0.
   -5000001    1    1    2    0    0  0.28086836354E+02  0.23882727260E+03 -0.11105575452E+04  0.11535884872E+04  0.19900000000E+03 0.  0.
<mgrwt>
<rscale>  0 0.62435896E+03</rscale>
<asrwt>0</asrwt>
<pdfrwt beam="1">  1        2 0.32899507E+00 0.62435896E+03</pdfrwt>
<pdfrwt beam="2">  1       -2 0.60453749E-02 0.62435896E+03</pdfrwt>
<totfact> 0.88861165E+02</totfact>
</mgrwt>
</event>
<event>
 4    1  0.1869793E-005  0.5323378E+03  0.7818608E-02  0.1005667E+00
          2   -1    0    0  501    0  0.00000000000E+00  0.00000000000E+00  0.32157241465E+03  0.32157241466E+03  0.25500000000E-02 0.  1.
         -2   -1    0    0    0  501 -0.00000000000E+00 -0.00000000000E+00 -0.22031081372E+03  0.22031081374E+03  0.25500000000E-02 0. -1.
    5000001    1    1    2    0    0  0.19893100010E+02  0.16933438219E+03  0.98104080043E+02  0.27981293562E+03  0.19900000000E+03 0.  0.
   -5000001    1    1    2    0    0 -0.19893100010E+02 -0.16933438219E+03  0.31575208889E+01  0.26207029278E+03  0.19900000000E+03 0.  0.
<mgrwt>
<rscale>  0 0.53233779E+03</rscale>
<asrwt>0</asrwt>
<pdfrwt beam="1">  1        2 0.45938916E-01 0.53233779E+03</pdfrwt>
<pdfrwt beam="2">  1       -2 0.31472973E-01 0.53233779E+03</pdfrwt>
<totfact> 0.10356603E+03</totfact>
</mgrwt>
</event>
<event>
 4    1  0.1869793E-005  0.6250958E+03  0.7818608E-02  0.9854666E-01
          2   -1    0    0  501    0  0.00000000000E+00  0.00000000000E+00  0.66304820804E+03  0.66304820805E+03  0.25500000000E-02 0.  1.
         -2   -1    0    0    0  501 -0.00000000000E+00 -0.00000000000E+00 -0.14732896369E+03  0.14732896371E+03  0.25500000000E-02 0. -1.
    5000001    1    1    2    0    0 -0.23697314624E+03  0.22506493841E+02  0.30675300569E+03  0.43630404628E+03  0.19900000000E+03 0.  0.
   -5000001    1    1    2    0    0  0.23697314624E+03 -0.22506493841E+02  0.20896623867E+03  0.37407312548E+03  0.19900000000E+03 0.  0.
<mgrwt>
<rscale>  0 0.62509585E+03</rscale>
<asrwt>0</asrwt>
<pdfrwt beam="1">  1        2 0.94721175E-01 0.62509585E+03</pdfrwt>
<pdfrwt beam="2">  1       -2 0.21046994E-01 0.62509585E+03</pdfrwt>
<totfact> 0.94071395E+02</totfact>
</mgrwt>
</event>
<event>
 4    1  0.1869793E-005  0.5788529E+03  0.7818608E-02  0.9950277E-01
          2   -1    0    0  501    0  0.00000000000E+00  0.00000000000E+00  0.14442217790E+04  0.14442217790E+04  0.25500000000E-02 0.  1.
         -2   -1    0    0    0  501 -0.00000000000E+00 -0.00000000000E+00 -0.58001952155E+02  0.58001952211E+02  0.25500000000E-02 0. -1.
    5000001    1    1    2    0    0  0.10151701767E+03  0.65041308429E+02  0.24638863612E+03  0.33888705595E+03  0.19900000000E+03 0.  0.
   -5000001    1    1    2    0    0 -0.10151701767E+03 -0.65041308429E+02  0.11398311908E+04  0.11633366753E+04  0.19900000000E+03 0.  0.
<mgrwt>
<rscale>  0 0.57885294E+03</rscale>
<asrwt>0</asrwt>
<pdfrwt beam="1">  1        2 0.20631737E+00 0.57885294E+03</pdfrwt>
<pdfrwt beam="2">  1       -2 0.82859942E-02 0.57885294E+03</pdfrwt>
<totfact> 0.14758600E+03</totfact>
</mgrwt>
</event>
<event>
 4    1  0.1869793E-005  0.6065478E+03  0.7818608E-02  0.9891914E-01
         -2   -1    0    0    0  501 -0.00000000000E+00  0.00000000000E+00  0.38879854663E+03  0.38879854663E+03  0.25500000000E-02 0. -1.
          2   -1    0    0  501    0  0.00000000000E+00 -0.00000000000E+00 -0.23656227402E+03  0.23656227404E+03  0.25500000000E-02 0.  1.
    5000001    1    1    2    0    0 -0.57802990159E+02 -0.21734796672E+03  0.32464064785E+02  0.30205337245E+03  0.19900000000E+03 0.  0.
   -5000001    1    1    2    0    0  0.57802990159E+02  0.21734796672E+03  0.11977220782E+03  0.32330744822E+03  0.19900000000E+03 0.  0.
<mgrwt>
<rscale>  0 0.60654783E+03</rscale>
<asrwt>0</asrwt>
<pdfrwt beam="1">  1        2 0.33794611E-01 0.60654783E+03</pdfrwt>
<pdfrwt beam="2">  1       -2 0.55542649E-01 0.60654783E+03</pdfrwt>
<totfact> 0.47785388E+02</totfact>
</mgrwt>
</event>
<event>
 4    1  0.1869793E-005  0.7193346E+03  0.7818608E-02  0.9684727E-01
          2   -1    0    0  501    0  0.00000000000E+00  0.00000000000E+00  0.54911520361E+03  0.54911520361E+03  0.25500000000E-02 0.  1.
         -2   -1    0    0    0  501 -0.00000000000E+00 -0.00000000000E+00 -0.23558003193E+03  0.23558003194E+03  0.25500000000E-02 0. -1.
    5000001    1    1    2    0    0 -0.29800164371E+03  0.18987835365E+02  0.13017962204E+03  0.38172405156E+03  0.19900000000E+03 0.  0.
   -5000001    1    1    2    0    0  0.29800164371E+03 -0.18987835365E+02  0.18335554964E+03  0.40297118399E+03  0.19900000000E+03 0.  0.
<mgrwt>
<rscale>  0 0.71933463E+03</rscale>
<asrwt>0</asrwt>
<pdfrwt beam="1">  1        2 0.78445029E-01 0.71933463E+03</pdfrwt>
<pdfrwt beam="2">  1       -2 0.33654290E-01 0.71933463E+03</pdfrwt>
<totfact> 0.49978710E+02</totfact>
</mgrwt>
</event>
<event>
 4    1  0.1869793E-005  0.9225953E+03  0.7818608E-02  0.9397769E-01
          2   -1    0    0  501    0  0.00000000000E+00  0.00000000000E+00  0.12923753300E+04  0.12923753300E+04  0.25500000000E-02 0.  1.
         -2   -1    0    0    0  501 -0.00000000000E+00 -0.00000000000E+00 -0.16465457773E+03  0.16465457775E+03  0.25500000000E-02 0. -1.
    5000001    1    1    2    0    0 -0.12805425496E+03 -0.26313469289E+03  0.10311671390E+04  0.10902038467E+04  0.19900000000E+03 0.  0.
   -5000001    1    1    2    0    0  0.12805425496E+03  0.26313469289E+03  0.96553613248E+02  0.36682606102E+03  0.19900000000E+03 0.  0.
<mgrwt>
<rscale>  0 0.92259528E+03</rscale>
<asrwt>0</asrwt>
<pdfrwt beam="1">  1        2 0.18462504E+00 0.92259528E+03</pdfrwt>
<pdfrwt beam="2">  1       -2 0.23522083E-01 0.92259528E+03</pdfrwt>
<totfact> 0.30316923E+02</totfact>
</mgrwt>
</event>
<event>
 4    1  0.1869793E-005  0.5747602E+03  0.7818608E-02  0.9959200E-01
          2   -1    0    0  501    0  0.00000000000E+00  0.00000000000E+00  0.88757640082E+02  0.88757640118E+02  0.25500000000E-02 0.  1.
         -2   -1    0    0    0  501 -0.00000000000E+00 -0.00000000000E+00 -0.93048119536E+03  0.93048119536E+03  0.25500000000E-02 0. -1.
    5000001    1    1    2    0    0  0.21746534952E+02  0.20429754193E+03 -0.47025838317E+03  0.55041288535E+03  0.19900000000E+03 0.  0.
   -5000001    1    1    2    0    0 -0.21746534952E+02 -0.20429754193E+03 -0.37146517211E+03  0.46882595013E+03  0.19900000000E+03 0.  0.
<mgrwt>
<rscale>  0 0.57476018E+03</rscale>
<asrwt>0</asrwt>
<pdfrwt beam="1">  1        2 0.12679663E-01 0.57476018E+03</pdfrwt>
<pdfrwt beam="2">  1       -2 0.13292588E+00 0.57476018E+03</pdfrwt>
<totfact> 0.20530460E+02</totfact>
</mgrwt>
</event>
<event>
 4    1  0.1869793E-005  0.4896736E+03  0.7818608E-02  0.1016510E+00
         -2   -1    0    0    0  501 -0.00000000000E+00  0.00000000000E+00  0.61067000112E+02  0.61067000166E+02  0.25500000000E-02 0. -1.
          2   -1    0    0  501    0  0.00000000000E+00 -0.00000000000E+00 -0.98162783075E+03  0.98162783075E+03  0.25500000000E-02 0.  1.
    5000001    1    1    2    0    0  0.10363610713E+03  0.88449449921E+02 -0.55012655296E+03  0.60066960317E+03  0.19900000000E+03 0.  0.
   -5000001    1    1    2    0    0 -0.10363610713E+03 -0.88449449921E+02 -0.37043427767E+03  0.44202522775E+03  0.19900000000E+03 0.  0.
<mgrwt>
<rscale>  0 0.48967363E+03</rscale>
<asrwt>0</asrwt>
<pdfrwt beam="1">  1        2 0.14023254E+00 0.48967363E+03</pdfrwt>
<pdfrwt beam="2">  1       -2 0.87238577E-02 0.48967363E+03</pdfrwt>
<totfact> 0.24712689E+03</totfact>
</mgrwt>
</event>
<event>
 4    1  0.1869793E-005  0.5572587E+03  0.7818608E-02  0.9998277E-01
          2   -1    0    0  501    0  0.00000000000E+00  0.00000000000E+00  0.78719682450E+03  0.78719682451E+03  0.25500000000E-02 0.  1.
         -2   -1    0    0    0  501 -0.00000000000E+00 -0.00000000000E+00 -0.98621207545E+02  0.98621207578E+02  0.25500000000E-02 0. -1.
    5000001    1    1    2    0    0  0.12498225947E+03  0.56857953646E+02  0.56443389597E+03  0.61403584179E+03  0.19900000000E+03 0.  0.
   -5000001    1    1    2    0    0 -0.12498225947E+03 -0.56857953646E+02  0.12414172098E+03  0.27178219030E+03  0.19900000000E+03 0.  0.
<mgrwt>
<rscale>  0 0.55725865E+03</rscale>
<asrwt>0</asrwt>
<pdfrwt beam="1">  1        2 0.11245669E+00 0.55725865E+03</pdfrwt>
<pdfrwt beam="2">  1       -2 0.14088743E-01 0.55725865E+03</pdfrwt>
<totfact> 0.15130189E+03</totfact>
</mgrwt>
</event>
<event>
 4    1  0.1869793E-005  0.7884585E+03  0.7818608E-02  0.9576875E-01
         -2   -1    0    0    0  501 -0.00000000000E+00  0.00000000000E+00  0.53092137099E+03  0.53092137099E+03  0.25500000000E-02 0. -1.
          2   -1    0    0  501    0  0.00000000000E+00 -0.00000000000E+00 -0.29273019492E+03  0.29273019493E+03  0.25500000000E-02 0.  1.
    5000001    1    1    2    0    0 -0.27201957732E+03  0.20063545536E+03  0.77750197411E+02  0.39986914058E+03  0.19900000000E+03 0.  0.
   -5000001    1    1    2    0    0  0.27201957732E+03 -0.20063545536E+03  0.16044097866E+03  0.42378242534E+03  0.19900000000E+03 0.  0.
<mgrwt>
<rscale>  0 0.78845854E+03</rscale>
<asrwt>0</asrwt>
<pdfrwt beam="1">  1        2 0.41818600E-01 0.78845854E+03</pdfrwt>
<pdfrwt beam="2">  1       -2 0.75845909E-01 0.78845854E+03</pdfrwt>
<totfact> 0.19235487E+02</totfact>
</mgrwt>
</event>
<event>
 4    1  0.1869793E-005  0.5009610E+03  0.7818608E-02  0.1013528E+00
         -2   -1    0    0    0  501 -0.00000000000E+00  0.00000000000E+00  0.55767680176E+02  0.55767680234E+02  0.25500000000E-02 0. -1.
          2   -1    0    0  501    0  0.00000000000E+00 -0.00000000000E+00 -0.11250330900E+04  0.11250330900E+04  0.25500000000E-02 0.  1.
    5000001    1    1    2    0    0 -0.84823472506E+02 -0.74079619016E+02 -0.77566180630E+03  0.80866250636E+03  0.19900000000E+03 0.  0.
   -5000001    1    1    2    0    0  0.84823472506E+02  0.74079619016E+02 -0.29360360355E+03  0.37213826390E+03  0.19900000000E+03 0.  0.
<mgrwt>
<rscale>  0 0.50096102E+03</rscale>
<asrwt>0</asrwt>
<pdfrwt beam="1">  1        2 0.16071900E+00 0.50096102E+03</pdfrwt>
<pdfrwt beam="2">  1       -2 0.79668121E-02 0.50096102E+03</pdfrwt>
<totfact> 0.23497402E+03</totfact>
</mgrwt>
</event>
<event>
 4    1  0.1869793E-005  0.5914516E+03  0.7818608E-02  0.9923302E-01
         -2   -1    0    0    0  501 -0.00000000000E+00  0.00000000000E+00  0.40665463346E+02  0.40665463426E+02  0.25500000000E-02 0. -1.
          2   -1    0    0  501    0  0.00000000000E+00 -0.00000000000E+00 -0.21505659363E+04  0.21505659363E+04  0.25500000000E-02 0.  1.
    5000001    1    1    2    0    0 -0.98058880098E+02 -0.19484025265E+03 -0.11163312576E+04  0.11547184698E+04  0.19900000000E+03 0.  0.
   -5000001    1    1    2    0    0  0.98058880098E+02  0.19484025265E+03 -0.99356921543E+03  0.10365129299E+04  0.19900000000E+03 0.  0.
<mgrwt>
<rscale>  0 0.59145164E+03</rscale>
<asrwt>0</asrwt>
<pdfrwt beam="1">  1        2 0.30722363E+00 0.59145164E+03</pdfrwt>
<pdfrwt beam="2">  1       -2 0.58093533E-02 0.59145164E+03</pdfrwt>
<totfact> 0.11313280E+03</totfact>
</mgrwt>
</event>
<event>
 4    1  0.1869793E-005  0.4719414E+03  0.7818608E-02  0.1021374E+00
         -2   -1    0    0    0  501 -0.00000000000E+00  0.00000000000E+00  0.18766986932E+02  0.18766987105E+02  0.25500000000E-02 0. -1.
          2   -1    0    0  501    0  0.00000000000E+00 -0.00000000000E+00 -0.29670276471E+04  0.29670276471E+04  0.25500000000E-02 0.  1.
    5000001    1    1    2    0    0  0.10560161475E+03  0.37247553127E+02 -0.18506620281E+04  0.18646956920E+04  0.19900000000E+03 0.  0.
   -5000001    1    1    2    0    0 -0.10560161475E+03 -0.37247553127E+02 -0.10975986320E+04  0.11210989422E+04  0.19900000000E+03 0.  0.
<mgrwt>
<rscale>  0 0.47194139E+03</rscale>
<asrwt>0</asrwt>
<pdfrwt beam="1">  1        2 0.42386079E+00 0.47194139E+03</pdfrwt>
<pdfrwt beam="2">  1       -2 0.26810000E-02 0.47194139E+03</pdfrwt>
<totfact> 0.14149841E+03</totfact>
</mgrwt>
</event>
<event>
 4    1  0.1869793E-005  0.4604909E+03  0.7818608E-02  0.1024639E+00
          2   -1    0    0  501    0  0.00000000000E+00  0.00000000000E+00  0.21445433487E+04  0.21445433487E+04  0.25500000000E-02 0.  1.
         -2   -1    0    0    0  501 -0.00000000000E+00 -0.00000000000E+00 -0.24719929288E+02  0.24719929420E+02  0.25500000000E-02 0. -1.
    5000001    1    1    2    0    0 -0.10425649857E+03  0.50190933334E+02  0.10371178487E+04  0.10623572748E+04  0.19900000000E+03 0.  0.
   -5000001    1    1    2    0    0  0.10425649857E+03 -0.50190933334E+02  0.10827055708E+04  0.11069060033E+04  0.19900000000E+03 0.  0.
<mgrwt>
<rscale>  0 0.46049087E+03</rscale>
<asrwt>0</asrwt>
<pdfrwt beam="1">  1        2 0.30636321E+00 0.46049087E+03</pdfrwt>
<pdfrwt beam="2">  1       -2 0.35314200E-02 0.46049087E+03</pdfrwt>
<totfact> 0.24685693E+03</totfact>
</mgrwt>
</event>
<event>
 4    1  0.1869793E-005  0.6291515E+03  0.7818608E-02  0.9846706E-01
         -2   -1    0    0    0  501 -0.00000000000E+00  0.00000000000E+00  0.71751176248E+02  0.71751176293E+02  0.25500000000E-02 0. -1.
          2   -1    0    0  501    0  0.00000000000E+00 -0.00000000000E+00 -0.13791815318E+04  0.13791815318E+04  0.25500000000E-02 0.  1.
    5000001    1    1    2    0    0 -0.99164163471E+02  0.22218633132E+03 -0.68257462484E+03  0.75147150021E+03  0.19900000000E+03 0.  0.
   -5000001    1    1    2    0    0  0.99164163471E+02 -0.22218633132E+03 -0.62485573071E+03  0.69946120789E+03  0.19900000000E+03 0.  0.
<mgrwt>
<rscale>  0 0.62915148E+03</rscale>
<asrwt>0</asrwt>
<pdfrwt beam="1">  1        2 0.19702592E+00 0.62915148E+03</pdfrwt>
<pdfrwt beam="2">  1       -2 0.10250169E-01 0.62915148E+03</pdfrwt>
<totfact> 0.11322964E+03</totfact>
</mgrwt>
</event>
<event>
 4    1  0.1869793E-005  0.1318120E+04  0.7818608E-02  0.9015318E-01
         -2   -1    0    0    0  501 -0.00000000000E+00  0.00000000000E+00  0.83586797723E+03  0.83586797723E+03  0.25500000000E-02 0. -1.
          2   -1    0    0  501    0  0.00000000000E+00 -0.00000000000E+00 -0.51965134662E+03  0.51965134663E+03  0.25500000000E-02 0.  1.
    5000001    1    1    2    0    0  0.54896835419E+03  0.30272250874E+03  0.11506687891E+03  0.66771892127E+03  0.19900000000E+03 0.  0.
   -5000001    1    1    2    0    0 -0.54896835419E+03 -0.30272250874E+03  0.20114975170E+03  0.68780040259E+03  0.19900000000E+03 0.  0.
<mgrwt>
<rscale>  0 0.13181198E+04</rscale>
<asrwt>0</asrwt>
<pdfrwt beam="1">  1        2 0.74235907E-01 0.13181198E+04</pdfrwt>
<pdfrwt beam="2">  1       -2 0.11940971E+00 0.13181198E+04</pdfrwt>
<totfact> 0.33837268E+01</totfact>
</mgrwt>
</event>
<event>
 4    1  0.1869793E-005  0.6065357E+03  0.7818608E-02  0.9891939E-01
          2   -1    0    0  501    0  0.00000000000E+00  0.00000000000E+00  0.10051383306E+04  0.10051383306E+04  0.25500000000E-02 0.  1.
         -2   -1    0    0    0  501 -0.00000000000E+00 -0.00000000000E+00 -0.91501222899E+02  0.91501222935E+02  0.25500000000E-02 0. -1.
    5000001    1    1    2    0    0  0.19049961817E+03  0.28949873241E+02  0.23359954108E+03  0.36235058338E+03  0.19900000000E+03 0.  0.
   -5000001    1    1    2    0    0 -0.19049961817E+03 -0.28949873241E+02  0.68003756664E+03  0.73428897018E+03  0.19900000000E+03 0.  0.
<mgrwt>
<rscale>  0 0.60653569E+03</rscale>
<asrwt>0</asrwt>
<pdfrwt beam="1">  1        2 0.14359120E+00 0.60653569E+03</pdfrwt>
<pdfrwt beam="2">  1       -2 0.13071603E-01 0.60653569E+03</pdfrwt>
<totfact> 0.12368333E+03</totfact>
</mgrwt>
</event>
<event>
 4    1  0.1869793E-005  0.1299373E+04  0.7818608E-02  0.9030062E-01
          2   -1    0    0  501    0  0.00000000000E+00  0.00000000000E+00  0.57958004939E+03  0.57958004939E+03  0.25500000000E-02 0.  1.
         -2   -1    0    0    0  501 -0.00000000000E+00 -0.00000000000E+00 -0.72827330419E+03  0.72827330419E+03  0.25500000000E-02 0. -1.
    5000001    1    1    2    0    0  0.57637609960E+03  0.88636801117E+02 -0.28166610161E+03  0.67749736789E+03  0.19900000000E+03 0.  0.
   -5000001    1    1    2    0    0 -0.57637609960E+03 -0.88636801117E+02  0.13297284681E+03  0.63035598569E+03  0.19900000000E+03 0.  0.
<mgrwt>
<rscale>  0 0.12993732E+04</rscale>
<asrwt>0</asrwt>
<pdfrwt beam="1">  1        2 0.82797150E-01 0.12993732E+04</pdfrwt>
<pdfrwt beam="2">  1       -2 0.10403904E+00 0.12993732E+04</pdfrwt>
<totfact> 0.41706515E+01</totfact>
</mgrwt>
</event>
<event>
 4    1  0.1869793E-005  0.1148740E+04  0.7818608E-02  0.9158946E-01
         -2   -1    0    0    0  501 -0.00000000000E+00  0.00000000000E+00  0.23432913973E+03  0.23432913974E+03  0.25500000000E-02 0. -1.
          2   -1    0    0  501    0  0.00000000000E+00 -0.00000000000E+00 -0.14078534765E+04  0.14078534765E+04  0.25500000000E-02 0.  1.
    5000001    1    1    2    0    0  0.24871111008E+03  0.46208425455E+03 -0.41214022188E+03  0.69630427047E+03  0.19900000000E+03 0.  0.
   -5000001    1    1    2    0    0 -0.24871111008E+03 -0.46208425455E+03 -0.76138411488E+03  0.94587834576E+03  0.19900000000E+03 0.  0.
<mgrwt>
<rscale>  0 0.11487403E+04</rscale>
<asrwt>0</asrwt>
<pdfrwt beam="1">  1        2 0.20112192E+00 0.11487403E+04</pdfrwt>
<pdfrwt beam="2">  1       -2 0.33475592E-01 0.11487403E+04</pdfrwt>
<totfact> 0.13508909E+02</totfact>
</mgrwt>
</event>
<event>
 4    1  0.1869793E-005  0.7283253E+03  0.7818608E-02  0.9669982E-01
         -2   -1    0    0    0  501 -0.00000000000E+00  0.00000000000E+00  0.15421863942E+03  0.15421863944E+03  0.25500000000E-02 0. -1.
          2   -1    0    0  501    0  0.00000000000E+00 -0.00000000000E+00 -0.85991173515E+03  0.85991173515E+03  0.25500000000E-02 0.  1.
    5000001    1    1    2    0    0  0.93055091596E+02 -0.24086401577E+03 -0.57882422442E+03  0.66431408756E+03  0.19900000000E+03 0.  0.
   -5000001    1    1    2    0    0 -0.93055091596E+02  0.24086401577E+03 -0.12686887131E+03  0.34981628703E+03  0.19900000000E+03 0.  0.
<mgrwt>
<rscale>  0 0.72832525E+03</rscale>
<asrwt>0</asrwt>
<pdfrwt beam="1">  1        2 0.12284453E+00 0.72832525E+03</pdfrwt>
<pdfrwt beam="2">  1       -2 0.22031235E-01 0.72832525E+03</pdfrwt>
<totfact> 0.62388746E+02</totfact>
</mgrwt>
</event>
<event>
 4    1  0.1869793E-005  0.8008552E+03  0.7818608E-02  0.9558780E-01
          2   -1    0    0  501    0  0.00000000000E+00  0.00000000000E+00  0.84638340656E+02  0.84638340694E+02  0.25500000000E-02 0.  1.
         -2   -1    0    0    0  501 -0.00000000000E+00 -0.00000000000E+00 -0.18944402726E+04  0.18944402726E+04  0.25500000000E-02 0. -1.
    5000001    1    1    2    0    0  0.16772280605E+03  0.20521114093E+03 -0.14602285491E+04  0.14973680135E+04  0.19900000000E+03 0.  0.
   -5000001    1    1    2    0    0 -0.16772280605E+03 -0.20521114093E+03 -0.34957338283E+03  0.48171059985E+03  0.19900000000E+03 0.  0.
<mgrwt>
<rscale>  0 0.80085525E+03</rscale>
<asrwt>0</asrwt>
<pdfrwt beam="1">  1        2 0.12091193E-01 0.80085525E+03</pdfrwt>
<pdfrwt beam="2">  1       -2 0.27063430E+00 0.80085525E+03</pdfrwt>
<totfact> 0.25856544E+01</totfact>
</mgrwt>
</event>
<event>
 4    1  0.1869793E-005  0.9230313E+03  0.7818608E-02  0.9397240E-01
          2   -1    0    0  501    0  0.00000000000E+00  0.00000000000E+00  0.36783051698E+04  0.36783051698E+04  0.25500000000E-02 0.  1.
         -2   -1    0    0    0  501 -0.00000000000E+00 -0.00000000000E+00 -0.57906201419E+02  0.57906201475E+02  0.25500000000E-02 0. -1.
    5000001    1    1    2    0    0  0.14927123078E+03 -0.92712253414E+02  0.33382939981E+04  0.33488334208E+04  0.19900000000E+03 0.  0.
   -5000001    1    1    2    0    0 -0.14927123078E+03  0.92712253414E+02  0.28210497022E+03  0.38737795045E+03  0.19900000000E+03 0.  0.
<mgrwt>
<rscale>  0 0.92303127E+03</rscale>
<asrwt>0</asrwt>
<pdfrwt beam="1">  1        2 0.52547212E+00 0.92303127E+03</pdfrwt>
<pdfrwt beam="2">  1       -2 0.82723152E-02 0.92303127E+03</pdfrwt>
<totfact> 0.91043900E+01</totfact>
</mgrwt>
</event>
<event>
 4    1  0.1869793E-005  0.4386311E+03  0.7818608E-02  0.1031168E+00
         -2   -1    0    0    0  501 -0.00000000000E+00  0.00000000000E+00  0.10195833765E+03  0.10195833768E+03  0.25500000000E-02 0. -1.
          2   -1    0    0  501    0  0.00000000000E+00 -0.00000000000E+00 -0.47175456411E+03  0.47175456411E+03  0.25500000000E-02 0.  1.
    5000001    1    1    2    0    0 -0.80635495999E+02 -0.44589173943E+02 -0.18860532596E+03  0.28924599674E+03  0.19900000000E+03 0.  0.
   -5000001    1    1    2    0    0  0.80635495999E+02  0.44589173943E+02 -0.18119090050E+03  0.28446690505E+03  0.19900000000E+03 0.  0.
<mgrwt>
<rscale>  0 0.43863110E+03</rscale>
<asrwt>0</asrwt>
<pdfrwt beam="1">  1        2 0.67393508E-01 0.43863110E+03</pdfrwt>
<pdfrwt beam="2">  1       -2 0.14565477E-01 0.43863110E+03</pdfrwt>
<totfact> 0.26154313E+03</totfact>
</mgrwt>
</event>
<event>
 4    1  0.1869793E-005  0.2160425E+04  0.7818608E-02  0.8535083E-01
          2   -1    0    0  501    0  0.00000000000E+00  0.00000000000E+00  0.11487849119E+04  0.11487849119E+04  0.25500000000E-02 0.  1.
         -2   -1    0    0    0  501 -0.00000000000E+00 -0.00000000000E+00 -0.10157335380E+04  0.10157335380E+04  0.25500000000E-02 0. -1.
    5000001    1    1    2    0    0  0.17094064102E+03 -0.60623720174E+03  0.92284619417E+03  0.11348966233E+04  0.19900000000E+03 0.  0.
   -5000001    1    1    2    0    0 -0.17094064102E+03  0.60623720174E+03 -0.78979482034E+03  0.10296218266E+04  0.19900000000E+03 0.  0.
<mgrwt>
<rscale>  0 0.21604253E+04</rscale>
<asrwt>0</asrwt>
<pdfrwt beam="1">  1        2 0.16411213E+00 0.21604253E+04</pdfrwt>
<pdfrwt beam="2">  1       -2 0.14510479E+00 0.21604253E+04</pdfrwt>
<totfact> 0.68916789E+00</totfact>
</mgrwt>
</event>
<event>
 4    1  0.1869793E-005  0.4434207E+03  0.7818608E-02  0.1029702E+00
          2   -1    0    0  501    0  0.00000000000E+00  0.00000000000E+00  0.85149130618E+02  0.85149130657E+02  0.25500000000E-02 0.  1.
         -2   -1    0    0    0  501 -0.00000000000E+00 -0.00000000000E+00 -0.57728680222E+03  0.57728680223E+03  0.25500000000E-02 0. -1.
    5000001    1    1    2    0    0 -0.81594367206E+02 -0.32466114237E+02 -0.31019934805E+03  0.37886188098E+03  0.19900000000E+03 0.  0.
   -5000001    1    1    2    0    0  0.81594367206E+02  0.32466114237E+02 -0.18193832356E+03  0.28357405190E+03  0.19900000000E+03 0.  0.
<mgrwt>
<rscale>  0 0.44342066E+03</rscale>
<asrwt>0</asrwt>
<pdfrwt beam="1">  1        2 0.12164162E-01 0.44342066E+03</pdfrwt>
<pdfrwt beam="2">  1       -2 0.82469541E-01 0.44342066E+03</pdfrwt>
<totfact> 0.67380095E+02</totfact>
</mgrwt>
</event>
<event>
 4    1  0.1869793E-005  0.5684080E+03  0.7818608E-02  0.9973208E-01
         -2   -1    0    0    0  501 -0.00000000000E+00  0.00000000000E+00  0.64692671123E+02  0.64692671174E+02  0.25500000000E-02 0. -1.
          2   -1    0    0  501    0  0.00000000000E+00 -0.00000000000E+00 -0.12485481585E+04  0.12485481585E+04  0.25500000000E-02 0.  1.
    5000001    1    1    2    0    0 -0.15643753089E+03  0.45482293915E+02 -0.31248035891E+03  0.40470521968E+03  0.19900000000E+03 0.  0.
   -5000001    1    1    2    0    0  0.15643753089E+03 -0.45482293915E+02 -0.87137512849E+03  0.90853561003E+03  0.19900000000E+03 0.  0.
<mgrwt>
<rscale>  0 0.56840801E+03</rscale>
<asrwt>0</asrwt>
<pdfrwt beam="1">  1        2 0.17836401E+00 0.56840801E+03</pdfrwt>
<pdfrwt beam="2">  1       -2 0.92418109E-02 0.56840801E+03</pdfrwt>
<totfact> 0.15786831E+03</totfact>
</mgrwt>
</event>
<event>
 4    1  0.1869793E-005  0.7588848E+03  0.7818608E-02  0.9621514E-01
          2   -1    0    0  501    0  0.00000000000E+00  0.00000000000E+00  0.90401126939E+03  0.90401126939E+03  0.25500000000E-02 0.  1.
         -2   -1    0    0    0  501 -0.00000000000E+00 -0.00000000000E+00 -0.15926411368E+03  0.15926411370E+03  0.25500000000E-02 0. -1.
    5000001    1    1    2    0    0 -0.42462516400E+02  0.31739787580E+03  0.43232826596E+03  0.57363159468E+03  0.19900000000E+03 0.  0.
   -5000001    1    1    2    0    0  0.42462516400E+02 -0.31739787580E+03  0.31241888974E+03  0.48964378841E+03  0.19900000000E+03 0.  0.
<mgrwt>
<rscale>  0 0.75888485E+03</rscale>
<asrwt>0</asrwt>
<pdfrwt beam="1">  1        2 0.12914447E+00 0.75888485E+03</pdfrwt>
<pdfrwt beam="2">  1       -2 0.22752016E-01 0.75888485E+03</pdfrwt>
<totfact> 0.55058352E+02</totfact>
</mgrwt>
</event>
<event>
 4    1  0.1869793E-005  0.6253352E+03  0.7818608E-02  0.9854194E-01
         -2   -1    0    0    0  501 -0.00000000000E+00  0.00000000000E+00  0.51284405412E+02  0.51284405476E+02  0.25500000000E-02 0. -1.
          2   -1    0    0  501    0  0.00000000000E+00 -0.00000000000E+00 -0.19062524999E+04  0.19062524999E+04  0.25500000000E-02 0.  1.
    5000001    1    1    2    0    0 -0.84691371058E+02  0.22485856026E+03 -0.99209631035E+03  0.10399952353E+04  0.19900000000E+03 0.  0.
   -5000001    1    1    2    0    0  0.84691371058E+02 -0.22485856026E+03 -0.86287178412E+03  0.91754167005E+03  0.19900000000E+03 0.  0.
<mgrwt>
<rscale>  0 0.62533519E+03</rscale>
<asrwt>0</asrwt>
<pdfrwt beam="1">  1        2 0.27232174E+00 0.62533519E+03</pdfrwt>
<pdfrwt beam="2">  1       -2 0.73263448E-02 0.62533519E+03</pdfrwt>
<totfact> 0.10398069E+03</totfact>
</mgrwt>
</event>
<event>
 4    1  0.1869793E-005  0.7021272E+03  0.7818608E-02  0.9713601E-01
          2   -1    0    0  501    0  0.00000000000E+00  0.00000000000E+00  0.26666047037E+04  0.26666047037E+04  0.25500000000E-02 0.  1.
         -2   -1    0    0    0  501 -0.00000000000E+00 -0.00000000000E+00 -0.46218192329E+02  0.46218192399E+02  0.25500000000E-02 0. -1.
    5000001    1    1    2    0    0  0.22375679354E+03  0.15512837894E+03  0.16870343807E+04  0.17204121361E+04  0.19900000000E+03 0.  0.
   -5000001    1    1    2    0    0 -0.22375679354E+03 -0.15512837894E+03  0.93335213073E+03  0.99241076000E+03  0.19900000000E+03 0.  0.
<mgrwt>
<rscale>  0 0.70212719E+03</rscale>
<asrwt>0</asrwt>
<pdfrwt beam="1">  1        2 0.38094360E+00 0.70212719E+03</pdfrwt>
<pdfrwt beam="2">  1       -2 0.66025977E-02 0.70212719E+03</pdfrwt>
<totfact> 0.49975261E+02</totfact>
</mgrwt>
</event>
<event>
 4    1  0.1869793E-005  0.4782167E+03  0.7818608E-02  0.1019626E+00
          2   -1    0    0  501    0  0.00000000000E+00  0.00000000000E+00  0.25816788351E+04  0.25816788352E+04  0.25500000000E-02 0.  1.
         -2   -1    0    0    0  501 -0.00000000000E+00 -0.00000000000E+00 -0.22145589911E+02  0.22145590058E+02  0.25500000000E-02 0. -1.
    5000001    1    1    2    0    0 -0.96244251452E+02  0.83114847856E+02  0.10759826939E+04  0.11015946584E+04  0.19900000000E+03 0.  0.
   -5000001    1    1    2    0    0  0.96244251452E+02 -0.83114847856E+02  0.14835505513E+04  0.15022297668E+04  0.19900000000E+03 0.  0.
<mgrwt>
<rscale>  0 0.47821669E+03</rscale>
<asrwt>0</asrwt>
<pdfrwt beam="1">  1        2 0.36881125E+00 0.47821669E+03</pdfrwt>
<pdfrwt beam="2">  1       -2 0.31636559E-02 0.47821669E+03</pdfrwt>
<totfact> 0.17538749E+03</totfact>
</mgrwt>
</event>
<event>
 4    1  0.1869793E-005  0.4080369E+03  0.7818608E-02  0.1041032E+00
         -2   -1    0    0    0  501 -0.00000000000E+00  0.00000000000E+00  0.32726909943E+02  0.32726910043E+02  0.25500000000E-02 0. -1.
          2   -1    0    0  501    0  0.00000000000E+00 -0.00000000000E+00 -0.12718442284E+04  0.12718442284E+04  0.25500000000E-02 0.  1.
    5000001    1    1    2    0    0 -0.61356783361E+01  0.33818428726E+02 -0.52682921400E+03  0.56420860805E+03  0.19900000000E+03 0.  0.
   -5000001    1    1    2    0    0  0.61356783361E+01 -0.33818428726E+02 -0.71228810450E+03  0.74036253044E+03  0.19900000000E+03 0.  0.
<mgrwt>
<rscale>  0 0.40803692E+03</rscale>
<asrwt>0</asrwt>
<pdfrwt beam="1">  1        2 0.18169200E+00 0.40803692E+03</pdfrwt>
<pdfrwt beam="2">  1       -2 0.46752737E-02 0.40803692E+03</pdfrwt>
<totfact> 0.44661516E+03</totfact>
</mgrwt>
</event>
<event>
 4    1  0.1869793E-005  0.5808342E+03  0.7818608E-02  0.9945987E-01
         -2   -1    0    0    0  501 -0.00000000000E+00  0.00000000000E+00  0.33792578382E+03  0.33792578383E+03  0.25500000000E-02 0. -1.
          2   -1    0    0  501    0  0.00000000000E+00 -0.00000000000E+00 -0.24958762823E+03  0.24958762824E+03  0.25500000000E-02 0.  1.
    5000001    1    1    2    0    0 -0.39803051604E+02  0.13680832248E+03 -0.11396257804E+03  0.26998012744E+03  0.19900000000E+03 0.  0.
   -5000001    1    1    2    0    0  0.39803051604E+02 -0.13680832248E+03  0.20230073363E+03  0.31753328463E+03  0.19900000000E+03 0.  0.
<mgrwt>
<rscale>  0 0.58083421E+03</rscale>
<asrwt>0</asrwt>
<pdfrwt beam="1">  1        2 0.35655375E-01 0.58083421E+03</pdfrwt>
<pdfrwt beam="2">  1       -2 0.48275112E-01 0.58083421E+03</pdfrwt>
<totfact> 0.59954296E+02</totfact>
</mgrwt>
</event>
<event>
 4    1  0.1869793E-005  0.7993776E+03  0.7818608E-02  0.9560918E-01
          2   -1    0    0  501    0  0.00000000000E+00  0.00000000000E+00  0.13961975441E+04  0.13961975441E+04  0.25500000000E-02 0.  1.
         -2   -1    0    0    0  501 -0.00000000000E+00 -0.00000000000E+00 -0.11441871483E+03  0.11441871486E+03  0.25500000000E-02 0. -1.
    5000001    1    1    2    0    0 -0.29164776391E+03 -0.16423767112E+03  0.81115176835E+03  0.89977809604E+03  0.19900000000E+03 0.  0.
   -5000001    1    1    2    0    0  0.29164776391E+03  0.16423767112E+03  0.47062706088E+03  0.61083816289E+03  0.19900000000E+03 0.  0.
<mgrwt>
<rscale>  0 0.79937758E+03</rscale>
<asrwt>0</asrwt>
<pdfrwt beam="1">  1        2 0.19945679E+00 0.79937758E+03</pdfrwt>
<pdfrwt beam="2">  1       -2 0.16345531E-01 0.79937758E+03</pdfrwt>
<totfact> 0.50615284E+02</totfact>
</mgrwt>
</event>
<event>
 4    1  0.1869793E-005  0.5338910E+03  0.7818608E-02  0.1005293E+00
          2   -1    0    0  501    0  0.00000000000E+00  0.00000000000E+00  0.46425959193E+03  0.46425959194E+03  0.25500000000E-02 0.  1.
         -2   -1    0    0    0  501 -0.00000000000E+00 -0.00000000000E+00 -0.15349151741E+03  0.15349151743E+03  0.25500000000E-02 0. -1.
    5000001    1    1    2    0    0  0.77938684722E+02 -0.15778359322E+03  0.12501646194E+03  0.29359873402E+03  0.19900000000E+03 0.  0.
   -5000001    1    1    2    0    0 -0.77938684722E+02  0.15778359322E+03  0.18575161259E+03  0.32415237535E+03  0.19900000000E+03 0.  0.
<mgrwt>
<rscale>  0 0.53389103E+03</rscale>
<asrwt>0</asrwt>
<pdfrwt beam="1">  1        2 0.66322799E-01 0.53389103E+03</pdfrwt>
<pdfrwt beam="2">  1       -2 0.21927359E-01 0.53389103E+03</pdfrwt>
<totfact> 0.13243726E+03</totfact>
</mgrwt>
</event>
<event>
 4    1  0.1869793E-005  0.5002035E+03  0.7818608E-02  0.1013726E+00
         -2   -1    0    0    0  501 -0.00000000000E+00  0.00000000000E+00  0.74573788949E+02  0.74573788992E+02  0.25500000000E-02 0. -1.
          2   -1    0    0  501    0  0.00000000000E+00 -0.00000000000E+00 -0.83877858254E+03  0.83877858254E+03  0.25500000000E-02 0.  1.
    5000001    1    1    2    0    0  0.12657899719E+03 -0.63259612420E+02 -0.28333364933E+03  0.37403606502E+03  0.19900000000E+03 0.  0.
   -5000001    1    1    2    0    0 -0.12657899719E+03  0.63259612420E+02 -0.48087114426E+03  0.53931630652E+03  0.19900000000E+03 0.  0.
<mgrwt>
<rscale>  0 0.50020355E+03</rscale>
<asrwt>0</asrwt>
<pdfrwt beam="1">  1        2 0.11982551E+00 0.50020355E+03</pdfrwt>
<pdfrwt beam="2">  1       -2 0.10653399E-01 0.50020355E+03</pdfrwt>
<totfact> 0.22099859E+03</totfact>
</mgrwt>
</event>
<event>
 4    1  0.1869793E-005  0.6494522E+03  0.7818608E-02  0.9807808E-01
         -2   -1    0    0    0  501 -0.00000000000E+00  0.00000000000E+00  0.26346564227E+03  0.26346564228E+03  0.25500000000E-02 0. -1.
          2   -1    0    0  501    0  0.00000000000E+00 -0.00000000000E+00 -0.40023067073E+03  0.40023067074E+03  0.25500000000E-02 0.  1.
    5000001    1    1    2    0    0  0.15044494107E+03  0.16711208404E+03 -0.19473033757E+03  0.35788410596E+03  0.19900000000E+03 0.  0.
   -5000001    1    1    2    0    0 -0.15044494107E+03 -0.16711208404E+03  0.57965309113E+02  0.30581220706E+03  0.19900000000E+03 0.  0.
<mgrwt>
<rscale>  0 0.64945217E+03</rscale>
<asrwt>0</asrwt>
<pdfrwt beam="1">  1        2 0.57175809E-01 0.64945217E+03</pdfrwt>
<pdfrwt beam="2">  1       -2 0.37637949E-01 0.64945217E+03</pdfrwt>
<totfact> 0.57904973E+02</totfact>
</mgrwt>
</event>
<event>
 4    1  0.1869793E-005  0.8685397E+03  0.7818608E-02  0.9465786E-01
         -2   -1    0    0    0  501 -0.00000000000E+00  0.00000000000E+00  0.51750411072E+03  0.51750411073E+03  0.25500000000E-02 0. -1.
          2   -1    0    0  501    0  0.00000000000E+00 -0.00000000000E+00 -0.36442281865E+03  0.36442281866E+03  0.25500000000E-02 0.  1.
    5000001    1    1    2    0    0  0.23043177655E+03 -0.14823792340E+03 -0.19952490428E+03  0.39304512846E+03  0.19900000000E+03 0.  0.
   -5000001    1    1    2    0    0 -0.23043177655E+03  0.14823792340E+03  0.35260619635E+03  0.48888180093E+03  0.19900000000E+03 0.  0.
<mgrwt>
<rscale>  0 0.86853971E+03</rscale>
<asrwt>0</asrwt>
<pdfrwt beam="1">  1        2 0.52060403E-01 0.86853971E+03</pdfrwt>
<pdfrwt beam="2">  1       -2 0.73929158E-01 0.86853971E+03</pdfrwt>
<totfact> 0.15906257E+02</totfact>
</mgrwt>
</event>
<event>
 4    1  0.1869793E-005  0.5715543E+03  0.7818608E-02  0.9966245E-01
         -2   -1    0    0    0  501 -0.00000000000E+00  0.00000000000E+00  0.10494779163E+03  0.10494779166E+03  0.25500000000E-02 0. -1.
          2   -1    0    0  501    0  0.00000000000E+00 -0.00000000000E+00 -0.77818297571E+03  0.77818297571E+03  0.25500000000E-02 0.  1.
    5000001    1    1    2    0    0  0.10991238778E+03 -0.15284918322E+03 -0.21086209491E+03  0.34569846524E+03  0.19900000000E+03 0.  0.
   -5000001    1    1    2    0    0 -0.10991238778E+03  0.15284918322E+03 -0.46237308916E+03  0.53743230214E+03  0.19900000000E+03 0.  0.
<mgrwt>
<rscale>  0 0.57155432E+03</rscale>
<asrwt>0</asrwt>
<pdfrwt beam="1">  1        2 0.11116899E+00 0.57155432E+03</pdfrwt>
<pdfrwt beam="2">  1       -2 0.14992542E-01 0.57155432E+03</pdfrwt>
<totfact> 0.13831333E+03</totfact>
</mgrwt>
</event>
<event>
 4    1  0.1869793E-005  0.1457259E+04  0.7818608E-02  0.8913384E-01
         -2   -1    0    0    0  501 -0.00000000000E+00  0.00000000000E+00  0.42216766492E+03  0.42216766493E+03  0.25500000000E-02 0.  1.
          2   -1    0    0  501    0  0.00000000000E+00 -0.00000000000E+00 -0.12575589885E+04  0.12575589885E+04  0.25500000000E-02 0. -1.
    5000001    1    1    2    0    0 -0.31761986915E+03 -0.58891071287E+03 -0.17700855317E+03  0.72016056328E+03  0.19900000000E+03 0.  0.
   -5000001    1    1    2    0    0  0.31761986915E+03  0.58891071287E+03 -0.65838277041E+03  0.95956609015E+03  0.19900000000E+03 0.  0.
<mgrwt>
<rscale>  0 0.14572587E+04</rscale>
<asrwt>0</asrwt>
<pdfrwt beam="1">  1        2 0.17965128E+00 0.14572587E+04</pdfrwt>
<pdfrwt beam="2">  1       -2 0.60309667E-01 0.14572587E+04</pdfrwt>
<totfact> 0.49299339E+01</totfact>
</mgrwt>
</event>
<event>
 4    1  0.1869793E-005  0.5940415E+03  0.7818608E-02  0.9917846E-01
          2   -1    0    0  501    0  0.00000000000E+00  0.00000000000E+00  0.78257789931E+03  0.78257789931E+03  0.25500000000E-02 0.  1.
         -2   -1    0    0    0  501 -0.00000000000E+00 -0.00000000000E+00 -0.11273169816E+03  0.11273169819E+03  0.25500000000E-02 0. -1.
    5000001    1    1    2    0    0 -0.72802795000E+02  0.20725939105E+03  0.30618299765E+03  0.42615223828E+03  0.19900000000E+03 0.  0.
   -5000001    1    1    2    0    0  0.72802795000E+02 -0.20725939105E+03  0.36366320349E+03  0.46915735922E+03  0.19900000000E+03 0.  0.
<mgrwt>
<rscale>  0 0.59404153E+03</rscale>
<asrwt>0</asrwt>
<pdfrwt beam="1">  1        2 0.11179684E+00 0.59404153E+03</pdfrwt>
<pdfrwt beam="2">  1       -2 0.16104528E-01 0.59404153E+03</pdfrwt>
<totfact> 0.12166768E+03</totfact>
</mgrwt>
</event>
<event>
 4    1  0.1869793E-005  0.4574924E+03  0.7818608E-02  0.1025511E+00
          2   -1    0    0  501    0  0.00000000000E+00  0.00000000000E+00  0.18891728728E+03  0.18891728730E+03  0.25500000000E-02 0.  1.
         -2   -1    0    0    0  501 -0.00000000000E+00 -0.00000000000E+00 -0.27697215100E+03  0.27697215102E+03  0.25500000000E-02 0. -1.
    5000001    1    1    2    0    0  0.87033362291E+02 -0.71476576108E+01  0.28682878352E+02  0.21920219586E+03  0.19900000000E+03 0.  0.
   -5000001    1    1    2    0    0 -0.87033362291E+02  0.71476576108E+01 -0.11673774208E+03  0.24668724245E+03  0.19900000000E+03 0.  0.
<mgrwt>
<rscale>  0 0.45749241E+03</rscale>
<asrwt>0</asrwt>
<pdfrwt beam="1">  1        2 0.26988184E-01 0.45749241E+03</pdfrwt>
<pdfrwt beam="2">  1       -2 0.39567450E-01 0.45749241E+03</pdfrwt>
<totfact> 0.12108052E+03</totfact>
</mgrwt>
</event>
<event>
 4    1  0.1869793E-005  0.6136771E+03  0.7818608E-02  0.9877430E-01
         -2   -1    0    0    0  501 -0.00000000000E+00  0.00000000000E+00  0.12973768211E+03  0.12973768214E+03  0.25500000000E-02 0. -1.
          2   -1    0    0  501    0  0.00000000000E+00 -0.00000000000E+00 -0.72569425961E+03  0.72569425961E+03  0.25500000000E-02 0.  1.
    5000001    1    1    2    0    0  0.11120710897E+03 -0.14966419534E+03 -0.49403699346E+03  0.56430483195E+03  0.19900000000E+03 0.  0.
   -5000001    1    1    2    0    0 -0.11120710897E+03  0.14966419534E+03 -0.10191958403E+03  0.29112710980E+03  0.19900000000E+03 0.  0.
<mgrwt>
<rscale>  0 0.61367709E+03</rscale>
<asrwt>0</asrwt>
<pdfrwt beam="1">  1        2 0.10367061E+00 0.61367709E+03</pdfrwt>
<pdfrwt beam="2">  1       -2 0.18533955E-01 0.61367709E+03</pdfrwt>
<totfact> 0.10512744E+03</totfact>
</mgrwt>
</event>
<event>
 4    1  0.1869793E-005  0.8086235E+03  0.7818608E-02  0.9547618E-01
          2   -1    0    0  501    0  0.00000000000E+00  0.00000000000E+00  0.23166616166E+04  0.23166616166E+04  0.25500000000E-02 0. -1.
         -2   -1    0    0    0  501 -0.00000000000E+00 -0.00000000000E+00 -0.70561878704E+02  0.70561878750E+02  0.25500000000E-02 0.  1.
    5000001    1    1    2    0    0 -0.23755425738E+03 -0.25221061168E+03  0.13056284564E+04  0.13653969694E+04  0.19900000000E+03 0.  0.
   -5000001    1    1    2    0    0  0.23755425738E+03  0.25221061168E+03  0.94047128144E+03  0.10218265259E+04  0.19900000000E+03 0.  0.
<mgrwt>
<rscale>  0 0.80862351E+03</rscale>
<asrwt>0</asrwt>
<pdfrwt beam="1">  1        2 0.33095158E+00 0.80862351E+03</pdfrwt>
<pdfrwt beam="2">  1       -2 0.10080271E-01 0.80862351E+03</pdfrwt>
<totfact> 0.38128174E+02</totfact>
</mgrwt>
</event>
<event>
 4    1  0.1869793E-005  0.4748330E+03  0.7818608E-02  0.1020565E+00
         -2   -1    0    0    0  501 -0.00000000000E+00  0.00000000000E+00  0.98919388868E+02  0.98919388901E+02  0.25500000000E-02 0. -1.
          2   -1    0    0  501    0  0.00000000000E+00 -0.00000000000E+00 -0.56982359478E+03  0.56982359478E+03  0.25500000000E-02 0.  1.
    5000001    1    1    2    0    0 -0.24358462525E+02  0.10390074465E+03 -0.33872453164E+03  0.40709213670E+03  0.19900000000E+03 0.  0.
   -5000001    1    1    2    0    0  0.24358462525E+02 -0.10390074465E+03 -0.13217967427E+03  0.26165084698E+03  0.19900000000E+03 0.  0.
<mgrwt>
<rscale>  0 0.47483303E+03</rscale>
<asrwt>0</asrwt>
<pdfrwt beam="1">  1        2 0.81403369E-01 0.47483303E+03</pdfrwt>
<pdfrwt beam="2">  1       -2 0.14131342E-01 0.47483303E+03</pdfrwt>
<totfact> 0.22217556E+03</totfact>
</mgrwt>
</event>
<event>
 4    1  0.1869793E-005  0.5789777E+03  0.7818608E-02  0.9950007E-01
         -2   -1    0    0    0  501 -0.00000000000E+00  0.00000000000E+00  0.73388393815E+03  0.73388393816E+03  0.25500000000E-02 0. -1.
          2   -1    0    0  501    0  0.00000000000E+00 -0.00000000000E+00 -0.11419216536E+03  0.11419216539E+03  0.25500000000E-02 0.  1.
    5000001    1    1    2    0    0  0.18874129981E+03 -0.76924000217E+02  0.23426802007E+03  0.36881307635E+03  0.19900000000E+03 0.  0.
   -5000001    1    1    2    0    0 -0.18874129981E+03  0.76924000217E+02  0.38542375273E+03  0.47926302719E+03  0.19900000000E+03 0.  0.
<mgrwt>
<rscale>  0 0.57897771E+03</rscale>
<asrwt>0</asrwt>
<pdfrwt beam="1">  1        2 0.16313167E-01 0.57897771E+03</pdfrwt>
<pdfrwt beam="2">  1       -2 0.10484056E+00 0.57897771E+03</pdfrwt>
<totfact> 0.27046387E+02</totfact>
</mgrwt>
</event>
<event>
 4    1  0.1869793E-005  0.6028670E+03  0.7818608E-02  0.9899476E-01
         -2   -1    0    0    0  501 -0.00000000000E+00  0.00000000000E+00  0.63012658057E+02  0.63012658109E+02  0.25500000000E-02 0. -1.
          2   -1    0    0  501    0  0.00000000000E+00 -0.00000000000E+00 -0.14419667360E+04  0.14419667360E+04  0.25500000000E-02 0.  1.
    5000001    1    1    2    0    0  0.63406890513E+02 -0.15275877510E+03 -0.30350328920E+03  0.39883696380E+03  0.19900000000E+03 0.  0.
   -5000001    1    1    2    0    0 -0.63406890513E+02  0.15275877510E+03 -0.10754507887E+04  0.11061424303E+04  0.19900000000E+03 0.  0.
<mgrwt>
<rscale>  0 0.60286701E+03</rscale>
<asrwt>0</asrwt>
<pdfrwt beam="1">  1        2 0.20599523E+00 0.60286701E+03</pdfrwt>
<pdfrwt beam="2">  1       -2 0.90018092E-02 0.60286701E+03</pdfrwt>
<totfact> 0.12949173E+03</totfact>
</mgrwt>
</event>
<event>
 4    1  0.1869793E-005  0.5063345E+03  0.7818608E-02  0.1012139E+00
          2   -1    0    0  501    0  0.00000000000E+00  0.00000000000E+00  0.54019860767E+03  0.54019860768E+03  0.25500000000E-02 0.  1.
         -2   -1    0    0    0  501 -0.00000000000E+00 -0.00000000000E+00 -0.11864830601E+03  0.11864830603E+03  0.25500000000E-02 0. -1.
    5000001    1    1    2    0    0 -0.13170659049E+03  0.82875606811E+02  0.23245727120E+03  0.34329633717E+03  0.19900000000E+03 0.  0.
   -5000001    1    1    2    0    0  0.13170659049E+03 -0.82875606811E+02  0.18909303046E+03  0.31555057654E+03  0.19900000000E+03 0.  0.
<mgrwt>
<rscale>  0 0.50633447E+03</rscale>
<asrwt>0</asrwt>
<pdfrwt beam="1">  1        2 0.77171229E-01 0.50633447E+03</pdfrwt>
<pdfrwt beam="2">  1       -2 0.16949758E-01 0.50633447E+03</pdfrwt>
<totfact> 0.17405720E+03</totfact>
</mgrwt>
</event>
<event>
 4    1  0.1869793E-005  0.6770709E+03  0.7818608E-02  0.9757268E-01
          2   -1    0    0  501    0  0.00000000000E+00  0.00000000000E+00  0.91452195948E+03  0.91452195949E+03  0.25500000000E-02 0.  1.
         -2   -1    0    0    0  501 -0.00000000000E+00 -0.00000000000E+00 -0.12531822114E+03  0.12531822117E+03  0.25500000000E-02 0. -1.
    5000001    1    1    2    0    0 -0.12230765838E+03  0.12131912329E+03  0.72157691308E+03  0.76808315596E+03  0.19900000000E+03 0.  0.
   -5000001    1    1    2    0    0  0.12230765838E+03 -0.12131912329E+03  0.67626825257E+02  0.27175702469E+03  0.19900000000E+03 0.  0.
<mgrwt>
<rscale>  0 0.67707094E+03</rscale>
<asrwt>0</asrwt>
<pdfrwt beam="1">  1        2 0.13064599E+00 0.67707094E+03</pdfrwt>
<pdfrwt beam="2">  1       -2 0.17902603E-01 0.67707094E+03</pdfrwt>
<totfact> 0.82666314E+02</totfact>
</mgrwt>
</event>
<event>
 4    1  0.1869793E-005  0.4442172E+03  0.7818608E-02  0.1029461E+00
          2   -1    0    0  501    0  0.00000000000E+00  0.00000000000E+00  0.41199311382E+03  0.41199311382E+03  0.25500000000E-02 0.  1.
         -2   -1    0    0    0  501 -0.00000000000E+00 -0.00000000000E+00 -0.11974043138E+03  0.11974043141E+03  0.25500000000E-02 0. -1.
    5000001    1    1    2    0    0 -0.50123216990E+02 -0.76034793001E+02  0.10074067675E+03  0.24092179349E+03  0.19900000000E+03 0.  0.
   -5000001    1    1    2    0    0  0.50123216990E+02  0.76034793001E+02  0.19151200569E+03  0.29081175174E+03  0.19900000000E+03 0.  0.
<mgrwt>
<rscale>  0 0.44421721E+03</rscale>
<asrwt>0</asrwt>
<pdfrwt beam="1">  1        2 0.58856160E-01 0.44421721E+03</pdfrwt>
<pdfrwt beam="2">  1       -2 0.17105776E-01 0.44421721E+03</pdfrwt>
<totfact> 0.23199870E+03</totfact>
</mgrwt>
</event>
<event>
 4    1  0.1869793E-005  0.7225587E+03  0.7818608E-02  0.9679413E-01
          2   -1    0    0  501    0  0.00000000000E+00  0.00000000000E+00  0.77976282546E+02  0.77976282587E+02  0.25500000000E-02 0.  1.
         -2   -1    0    0    0  501 -0.00000000000E+00 -0.00000000000E+00 -0.16738779252E+04  0.16738779252E+04  0.25500000000E-02 0. -1.
    5000001    1    1    2    0    0 -0.25019011171E+03  0.11904487881E+03 -0.50949467842E+03  0.61314973906E+03  0.19900000000E+03 0.  0.
   -5000001    1    1    2    0    0  0.25019011171E+03 -0.11904487881E+03 -0.10864069642E+04  0.11387044687E+04  0.19900000000E+03 0.  0.
<mgrwt>
<rscale>  0 0.72255873E+03</rscale>
<asrwt>0</asrwt>
<pdfrwt beam="1">  1        2 0.11139470E-01 0.72255873E+03</pdfrwt>
<pdfrwt beam="2">  1       -2 0.23912540E+00 0.72255873E+03</pdfrwt>
<totfact> 0.44688704E+01</totfact>
</mgrwt>
</event>
<event>
 4    1  0.1869793E-005  0.6381241E+03  0.7818608E-02  0.9829322E-01
         -2   -1    0    0    0  501 -0.00000000000E+00  0.00000000000E+00  0.24933512647E+02  0.24933512778E+02  0.25500000000E-02 0. -1.
          2   -1    0    0  501    0  0.00000000000E+00 -0.00000000000E+00 -0.40828818139E+04  0.40828818139E+04  0.25500000000E-02 0.  1.
    5000001    1    1    2    0    0  0.21520583526E+03 -0.10147292260E+03 -0.25102385234E+04  0.25293297037E+04  0.19900000000E+03 0.  0.
   -5000001    1    1    2    0    0 -0.21520583526E+03  0.10147292260E+03 -0.15477097778E+04  0.15784856229E+04  0.19900000000E+03 0.  0.
<mgrwt>
<rscale>  0 0.63812408E+03</rscale>
<asrwt>0</asrwt>
<pdfrwt beam="1">  1        2 0.58326841E+00 0.63812408E+03</pdfrwt>
<pdfrwt beam="2">  1       -2 0.35619330E-02 0.63812408E+03</pdfrwt>
<totfact> 0.19267022E+02</totfact>
</mgrwt>
</event>
<event>
 4    1  0.1869793E-005  0.5889235E+03  0.7818608E-02  0.9928657E-01
          2   -1    0    0  501    0  0.00000000000E+00  0.00000000000E+00  0.25426114285E+04  0.25426114285E+04  0.25500000000E-02 0.  1.
         -2   -1    0    0    0  501 -0.00000000000E+00 -0.00000000000E+00 -0.34101832953E+02  0.34101833048E+02  0.25500000000E-02 0. -1.
    5000001    1    1    2    0    0 -0.19338303905E+03 -0.63742785851E+02  0.15830303463E+04  0.16084297373E+04  0.19900000000E+03 0.  0.
   -5000001    1    1    2    0    0  0.19338303905E+03  0.63742785851E+02  0.92547924928E+03  0.96828352428E+03  0.19900000000E+03 0.  0.
<mgrwt>
<rscale>  0 0.58892346E+03</rscale>
<asrwt>0</asrwt>
<pdfrwt beam="1">  1        2 0.36323020E+00 0.58892346E+03</pdfrwt>
<pdfrwt beam="2">  1       -2 0.48716904E-02 0.58892346E+03</pdfrwt>
<totfact> 0.94090749E+02</totfact>
</mgrwt>
</event>
<event>
 4    1  0.1869793E-005  0.7971404E+03  0.7818608E-02  0.9564166E-01
          2   -1    0    0  501    0  0.00000000000E+00  0.00000000000E+00  0.19253203931E+03  0.19253203932E+03  0.25500000000E-02 0. -1.
         -2   -1    0    0    0  501 -0.00000000000E+00 -0.00000000000E+00 -0.82510009920E+03  0.82510009920E+03  0.25500000000E-02 0.  1.
    5000001    1    1    2    0    0 -0.33955194500E+03 -0.29803788730E+02 -0.38705687210E+03  0.55280901893E+03  0.19900000000E+03 0.  0.
   -5000001    1    1    2    0    0  0.33955194500E+03  0.29803788730E+02 -0.24551118779E+03  0.46482311959E+03  0.19900000000E+03 0.  0.
<mgrwt>
<rscale>  0 0.79714040E+03</rscale>
<asrwt>0</asrwt>
<pdfrwt beam="1">  1        2 0.27504577E-01 0.79714040E+03</pdfrwt>
<pdfrwt beam="2">  1       -2 0.11787144E+00 0.79714040E+03</pdfrwt>
<totfact> 0.10985182E+02</totfact>
</mgrwt>
</event>
<event>
 4    1  0.1869793E-005  0.5154157E+03  0.7818608E-02  0.1009832E+00
         -2   -1    0    0    0  501 -0.00000000000E+00  0.00000000000E+00  0.97428573692E+02  0.97428573725E+02  0.25500000000E-02 0. -1.
          2   -1    0    0  501    0  0.00000000000E+00 -0.00000000000E+00 -0.68166186603E+03  0.68166186603E+03  0.25500000000E-02 0.  1.
    5000001    1    1    2    0    0  0.80918885588E+02 -0.11736170040E+03 -0.17033656383E+03  0.29822337223E+03  0.19900000000E+03 0.  0.
   -5000001    1    1    2    0    0 -0.80918885588E+02  0.11736170040E+03 -0.41389672850E+03  0.48086706753E+03  0.19900000000E+03 0.  0.
<mgrwt>
<rscale>  0 0.51541573E+03</rscale>
<asrwt>0</asrwt>
<pdfrwt beam="1">  1        2 0.97380264E-01 0.51541573E+03</pdfrwt>
<pdfrwt beam="2">  1       -2 0.13918368E-01 0.51541573E+03</pdfrwt>
<totfact> 0.18450465E+03</totfact>
</mgrwt>
</event>
<event>
 4    1  0.1869793E-005  0.5732520E+03  0.7818608E-02  0.9962508E-01
          2   -1    0    0  501    0  0.00000000000E+00  0.00000000000E+00  0.49399269651E+03  0.49399269652E+03  0.25500000000E-02 0.  1.
         -2   -1    0    0    0  501 -0.00000000000E+00 -0.00000000000E+00 -0.16630703069E+03  0.16630703071E+03  0.25500000000E-02 0. -1.
    5000001    1    1    2    0    0 -0.12116805922E+03 -0.44986446618E+02  0.34902913282E+03  0.42205190974E+03  0.19900000000E+03 0.  0.
   -5000001    1    1    2    0    0  0.12116805922E+03  0.44986446618E+02 -0.21343466998E+02  0.23824781749E+03  0.19900000000E+03 0.  0.
<mgrwt>
<rscale>  0 0.57325198E+03</rscale>
<asrwt>0</asrwt>
<pdfrwt beam="1">  1        2 0.70570386E-01 0.57325198E+03</pdfrwt>
<pdfrwt beam="2">  1       -2 0.23758147E-01 0.57325198E+03</pdfrwt>
<totfact> 0.10712556E+03</totfact>
</mgrwt>
</event>
<event>
 4    1  0.1869793E-005  0.8808529E+03  0.7818608E-02  0.9449838E-01
         -2   -1    0    0    0  501 -0.00000000000E+00  0.00000000000E+00  0.15105602277E+03  0.15105602279E+03  0.25500000000E-02 0. -1.
          2   -1    0    0  501    0  0.00000000000E+00 -0.00000000000E+00 -0.12841293472E+04  0.12841293472E+04  0.25500000000E-02 0.  1.
    5000001    1    1    2    0    0  0.11985825108E+03  0.19015742787E+03 -0.41481457297E+02  0.30306362207E+03  0.19900000000E+03 0.  0.
   -5000001    1    1    2    0    0 -0.11985825108E+03 -0.19015742787E+03 -0.10915918671E+04  0.11321217479E+04  0.19900000000E+03 0.  0.
<mgrwt>
<rscale>  0 0.88085293E+03</rscale>
<asrwt>0</asrwt>
<pdfrwt beam="1">  1        2 0.18344704E+00 0.88085293E+03</pdfrwt>
<pdfrwt beam="2">  1       -2 0.21579433E-01 0.88085293E+03</pdfrwt>
<totfact> 0.35797622E+02</totfact>
</mgrwt>
</event>
<event>
 4    1  0.1869793E-005  0.6233247E+03  0.7818608E-02  0.9858162E-01
          2   -1    0    0  501    0  0.00000000000E+00  0.00000000000E+00  0.35803008576E+04  0.35803008576E+04  0.25500000000E-02 0.  1.
         -2   -1    0    0    0  501 -0.00000000000E+00 -0.00000000000E+00 -0.27129960634E+02  0.27129960754E+02  0.25500000000E-02 0. -1.
    5000001    1    1    2    0    0  0.10133821769E+03  0.21282988322E+03  0.20332244726E+04  0.20564942863E+04  0.19900000000E+03 0.  0.
   -5000001    1    1    2    0    0 -0.10133821769E+03 -0.21282988322E+03  0.15199464244E+04  0.15509365321E+04  0.19900000000E+03 0.  0.
<mgrwt>
<rscale>  0 0.62332470E+03</rscale>
<asrwt>0</asrwt>
<pdfrwt beam="1">  1        2 0.51147142E+00 0.62332470E+03</pdfrwt>
<pdfrwt beam="2">  1       -2 0.38757097E-02 0.62332470E+03</pdfrwt>
<totfact> 0.35624246E+02</totfact>
</mgrwt>
</event>
<event>
 4    1  0.1869793E-005  0.7826322E+03  0.7818608E-02  0.9585502E-01
         -2   -1    0    0    0  501 -0.00000000000E+00  0.00000000000E+00  0.61576161501E+02  0.61576161554E+02  0.25500000000E-02 0. -1.
          2   -1    0    0  501    0  0.00000000000E+00 -0.00000000000E+00 -0.24868114411E+04  0.24868114411E+04  0.25500000000E-02 0.  1.
    5000001    1    1    2    0    0  0.28740478401E+03  0.12735006042E+03 -0.81772326255E+03  0.89838292608E+03  0.19900000000E+03 0.  0.
   -5000001    1    1    2    0    0 -0.28740478401E+03 -0.12735006042E+03 -0.16075120171E+04  0.16500046766E+04  0.19900000000E+03 0.  0.
<mgrwt>
<rscale>  0 0.78263223E+03</rscale>
<asrwt>0</asrwt>
<pdfrwt beam="1">  1        2 0.35525871E+00 0.78263223E+03</pdfrwt>
<pdfrwt beam="2">  1       -2 0.87965961E-02 0.78263223E+03</pdfrwt>
<totfact> 0.38960628E+02</totfact>
</mgrwt>
</event>
<event>
 4    1  0.1869793E-005  0.5599358E+03  0.7818608E-02  0.9992200E-01
         -2   -1    0    0    0  501 -0.00000000000E+00  0.00000000000E+00  0.20592986225E+03  0.20592986226E+03  0.25500000000E-02 0. -1.
          2   -1    0    0  501    0  0.00000000000E+00 -0.00000000000E+00 -0.38062481074E+03  0.38062481075E+03  0.25500000000E-02 0.  1.
    5000001    1    1    2    0    0  0.18842163967E+03 -0.39778858214E+02 -0.13048705467E+03  0.30612569852E+03  0.19900000000E+03 0.  0.
   -5000001    1    1    2    0    0 -0.18842163967E+03  0.39778858214E+02 -0.44207893825E+02  0.28042897449E+03  0.19900000000E+03 0.  0.
<mgrwt>
<rscale>  0 0.55993576E+03</rscale>
<asrwt>0</asrwt>
<pdfrwt beam="1">  1        2 0.54374973E-01 0.55993576E+03</pdfrwt>
<pdfrwt beam="2">  1       -2 0.29418552E-01 0.55993576E+03</pdfrwt>
<totfact> 0.97412397E+02</totfact>
</mgrwt>
</event>
<event>
 4    1  0.1869793E-005  0.6713708E+03  0.7818608E-02  0.9767485E-01
         -2   -1    0    0    0  501 -0.00000000000E+00  0.00000000000E+00  0.44933266708E+03  0.44933266709E+03  0.25500000000E-02 0. -1.
          2   -1    0    0  501    0  0.00000000000E+00 -0.00000000000E+00 -0.25078234178E+03  0.25078234180E+03  0.25500000000E-02 0.  1.
    5000001    1    1    2    0    0 -0.12230669733E+03 -0.98340464769E+02 -0.13027171645E+03  0.28495876075E+03  0.19900000000E+03 0.  0.
   -5000001    1    1    2    0    0  0.12230669733E+03  0.98340464769E+02  0.32882204175E+03  0.41515624813E+03  0.19900000000E+03 0.  0.
<mgrwt>
<rscale>  0 0.67137083E+03</rscale>
<asrwt>0</asrwt>
<pdfrwt beam="1">  1        2 0.35826049E-01 0.67137083E+03</pdfrwt>
<pdfrwt beam="2">  1       -2 0.64190381E-01 0.67137083E+03</pdfrwt>
<totfact> 0.32980989E+02</totfact>
</mgrwt>
</event>
<event>
 4    1  0.1869793E-005  0.8008132E+03  0.7818608E-02  0.9558841E-01
         -2   -1    0    0    0  501 -0.00000000000E+00  0.00000000000E+00  0.37338633792E+03  0.37338633793E+03  0.25500000000E-02 0. -1.
          2   -1    0    0  501    0  0.00000000000E+00 -0.00000000000E+00 -0.42938217849E+03  0.42938217850E+03  0.25500000000E-02 0.  1.
    5000001    1    1    2    0    0  0.64117490979E+02 -0.25682871117E+03  0.19761248690E+03  0.38564716323E+03  0.19900000000E+03 0.  0.
   -5000001    1    1    2    0    0 -0.64117490979E+02  0.25682871117E+03 -0.25360832746E+03  0.41712135320E+03  0.19900000000E+03 0.  0.
<mgrwt>
<rscale>  0 0.80081318E+03</rscale>
<asrwt>0</asrwt>
<pdfrwt beam="1">  1        2 0.61340311E-01 0.80081318E+03</pdfrwt>
<pdfrwt beam="2">  1       -2 0.53340906E-01 0.80081318E+03</pdfrwt>
<totfact> 0.26628092E+02</totfact>
</mgrwt>
</event>
<event>
 4    1  0.1869793E-005  0.5900352E+03  0.7818608E-02  0.9926298E-01
          2   -1    0    0  501    0  0.00000000000E+00  0.00000000000E+00  0.10726381160E+03  0.10726381163E+03  0.25500000000E-02 0.  1.
         -2   -1    0    0    0  501 -0.00000000000E+00 -0.00000000000E+00 -0.81141415896E+03  0.81141415896E+03  0.25500000000E-02 0. -1.
    5000001    1    1    2    0    0 -0.20117635338E+03  0.73611804562E+02 -0.41325021182E+03  0.50622856547E+03  0.19900000000E+03 0.  0.
   -5000001    1    1    2    0    0  0.20117635338E+03 -0.73611804562E+02 -0.29090013554E+03  0.41244940512E+03  0.19900000000E+03 0.  0.
<mgrwt>
<rscale>  0 0.59003517E+03</rscale>
<asrwt>0</asrwt>
<pdfrwt beam="1">  1        2 0.15323402E-01 0.59003517E+03</pdfrwt>
<pdfrwt beam="2">  1       -2 0.11591630E+00 0.59003517E+03</pdfrwt>
<totfact> 0.22887551E+02</totfact>
</mgrwt>
</event>
<event>
 4    1  0.1869793E-005  0.5096879E+03  0.7818608E-02  0.1011281E+00
          2   -1    0    0  501    0  0.00000000000E+00  0.00000000000E+00  0.12229978784E+04  0.12229978784E+04  0.25500000000E-02 0.  1.
         -2   -1    0    0    0  501 -0.00000000000E+00 -0.00000000000E+00 -0.53103486033E+02  0.53103486094E+02  0.25500000000E-02 0. -1.
    5000001    1    1    2    0    0 -0.44632102207E+02  0.15029231912E+03  0.65417981405E+03  0.70152122907E+03  0.19900000000E+03 0.  0.
   -5000001    1    1    2    0    0  0.44632102207E+02 -0.15029231912E+03  0.51571457833E+03  0.57458013544E+03  0.19900000000E+03 0.  0.
<mgrwt>
<rscale>  0 0.50968795E+03</rscale>
<asrwt>0</asrwt>
<pdfrwt beam="1">  1        2 0.17471396E+00 0.50968795E+03</pdfrwt>
<pdfrwt beam="2">  1       -2 0.75862132E-02 0.50968795E+03</pdfrwt>
<totfact> 0.22367240E+03</totfact>
</mgrwt>
</event>
<event>
 4    1  0.1869793E-005  0.7445464E+03  0.7818608E-02  0.9643945E-01
          2   -1    0    0  501    0  0.00000000000E+00  0.00000000000E+00  0.31793595064E+03  0.31793595065E+03  0.25500000000E-02 0.  1.
         -2   -1    0    0    0  501 -0.00000000000E+00 -0.00000000000E+00 -0.43589705280E+03  0.43589705281E+03  0.25500000000E-02 0. -1.
    5000001    1    1    2    0    0 -0.61896063294E+02 -0.26373141128E+03 -0.22097924935E+03  0.40226634037E+03  0.19900000000E+03 0.  0.
   -5000001    1    1    2    0    0  0.61896063294E+02  0.26373141128E+03  0.10301814719E+03  0.35156666309E+03  0.19900000000E+03 0.  0.
<mgrwt>
<rscale>  0 0.74454642E+03</rscale>
<asrwt>0</asrwt>
<pdfrwt beam="1">  1        2 0.45419422E-01 0.74454642E+03</pdfrwt>
<pdfrwt beam="2">  1       -2 0.62271007E-01 0.74454642E+03</pdfrwt>
<totfact> 0.26978042E+02</totfact>
</mgrwt>
</event>
<event>
 4    1  0.1869793E-005  0.8003560E+03  0.7818608E-02  0.9559502E-01
         -2   -1    0    0    0  501 -0.00000000000E+00  0.00000000000E+00  0.96950945127E+02  0.96950945161E+02  0.25500000000E-02 0. -1.
          2   -1    0    0  501    0  0.00000000000E+00 -0.00000000000E+00 -0.16517880967E+04  0.16517880967E+04  0.25500000000E-02 0.  1.
    5000001    1    1    2    0    0  0.29238752472E+03  0.15170314350E+03 -0.53769932388E+03  0.66123057345E+03  0.19900000000E+03 0.  0.
   -5000001    1    1    2    0    0 -0.29238752472E+03 -0.15170314350E+03 -0.10171378277E+04  0.10875084684E+04  0.19900000000E+03 0.  0.
<mgrwt>
<rscale>  0 0.80035596E+03</rscale>
<asrwt>0</asrwt>
<pdfrwt beam="1">  1        2 0.23596971E+00 0.80035596E+03</pdfrwt>
<pdfrwt beam="2">  1       -2 0.13850136E-01 0.80035596E+03</pdfrwt>
<totfact> 0.49189868E+02</totfact>
</mgrwt>
</event>
<event>
 4    1  0.1869793E-005  0.7070446E+03  0.7818608E-02  0.9705260E-01
         -2   -1    0    0    0  501 -0.00000000000E+00  0.00000000000E+00  0.45919880134E+03  0.45919880135E+03  0.25500000000E-02 0. -1.
          2   -1    0    0  501    0  0.00000000000E+00 -0.00000000000E+00 -0.27216537555E+03  0.27216537556E+03  0.25500000000E-02 0.  1.
    5000001    1    1    2    0    0  0.22593312708E+03  0.17953548495E+03  0.14089889702E+03  0.37779924226E+03  0.19900000000E+03 0.  0.
   -5000001    1    1    2    0    0 -0.22593312708E+03 -0.17953548495E+03  0.46134528768E+02  0.35356493465E+03  0.19900000000E+03 0.  0.
<mgrwt>
<rscale>  0 0.70704459E+03</rscale>
<asrwt>0</asrwt>
<pdfrwt beam="1">  1        2 0.38880768E-01 0.70704459E+03</pdfrwt>
<pdfrwt beam="2">  1       -2 0.65599828E-01 0.70704459E+03</pdfrwt>
<totfact> 0.28712975E+02</totfact>
</mgrwt>
</event>
<event>
 4    1  0.1869793E-005  0.7787172E+03  0.7818608E-02  0.9591345E-01
         -2   -1    0    0    0  501 -0.00000000000E+00  0.00000000000E+00  0.13486254829E+03  0.13486254831E+03  0.25500000000E-02 0. -1.
          2   -1    0    0  501    0  0.00000000000E+00 -0.00000000000E+00 -0.11241082294E+04  0.11241082294E+04  0.25500000000E-02 0.  1.
    5000001    1    1    2    0    0  0.43308046538E+02 -0.27857252367E+03 -0.78617545322E+03  0.85857502939E+03  0.19900000000E+03 0.  0.
   -5000001    1    1    2    0    0 -0.43308046538E+02  0.27857252367E+03 -0.20307022794E+03  0.40039574837E+03  0.19900000000E+03 0.  0.
<mgrwt>
<rscale>  0 0.77871715E+03</rscale>
<asrwt>0</asrwt>
<pdfrwt beam="1">  1        2 0.16058688E+00 0.77871715E+03</pdfrwt>
<pdfrwt beam="2">  1       -2 0.19266079E-01 0.77871715E+03</pdfrwt>
<totfact> 0.54072041E+02</totfact>
</mgrwt>
</event>
<event>
 4    1  0.1869793E-005  0.7226342E+03  0.7818608E-02  0.9679289E-01
         -2   -1    0    0    0  501 -0.00000000000E+00  0.00000000000E+00  0.22640790604E+03  0.22640790606E+03  0.25500000000E-02 0. -1.
          2   -1    0    0  501    0  0.00000000000E+00 -0.00000000000E+00 -0.57661427102E+03  0.57661427103E+03  0.25500000000E-02 0.  1.
    5000001    1    1    2    0    0  0.21625871136E+03  0.20889591984E+03 -0.20101431429E+03  0.41281120395E+03  0.19900000000E+03 0.  0.
   -5000001    1    1    2    0    0 -0.21625871136E+03 -0.20889591984E+03 -0.14919205069E+03  0.39021097313E+03  0.19900000000E+03 0.  0.
<mgrwt>
<rscale>  0 0.72263415E+03</rscale>
<asrwt>0</asrwt>
<pdfrwt beam="1">  1        2 0.82373466E-01 0.72263415E+03</pdfrwt>
<pdfrwt beam="2">  1       -2 0.32343987E-01 0.72263415E+03</pdfrwt>
<totfact> 0.50865847E+02</totfact>
</mgrwt>
</event>
<event>
 4    1  0.1869793E-005  0.7962655E+03  0.7818608E-02  0.9565438E-01
         -2   -1    0    0    0  501 -0.00000000000E+00  0.00000000000E+00  0.33771338782E+03  0.33771338783E+03  0.25500000000E-02 0. -1.
          2   -1    0    0  501    0  0.00000000000E+00 -0.00000000000E+00 -0.46936158158E+03  0.46936158159E+03  0.25500000000E-02 0.  1.
    5000001    1    1    2    0    0  0.18033471445E+03 -0.13612480795E+03  0.19820809285E+03  0.36046916740E+03  0.19900000000E+03 0.  0.
   -5000001    1    1    2    0    0 -0.18033471445E+03  0.13612480795E+03 -0.32985628661E+03  0.44660580201E+03  0.19900000000E+03 0.  0.
<mgrwt>
<rscale>  0 0.79626551E+03</rscale>
<asrwt>0</asrwt>
<pdfrwt beam="1">  1        2 0.67051655E-01 0.79626551E+03</pdfrwt>
<pdfrwt beam="2">  1       -2 0.48244770E-01 0.79626551E+03</pdfrwt>
<totfact> 0.29558628E+02</totfact>
</mgrwt>
</event>
<event>
 4    1  0.1869793E-005  0.5375309E+03  0.7818608E-02  0.1004422E+00
         -2   -1    0    0    0  501 -0.00000000000E+00  0.00000000000E+00  0.11789850779E+03  0.11789850782E+03  0.25500000000E-02 0. -1.
          2   -1    0    0  501    0  0.00000000000E+00 -0.00000000000E+00 -0.61268679526E+03  0.61268679526E+03  0.25500000000E-02 0.  1.
    5000001    1    1    2    0    0 -0.12216550447E+02 -0.11086856290E+03 -0.44053117045E+03  0.49609454188E+03  0.19900000000E+03 0.  0.
   -5000001    1    1    2    0    0  0.12216550447E+02  0.11086856290E+03 -0.54257117016E+02  0.23449076121E+03  0.19900000000E+03 0.  0.
<mgrwt>
<rscale>  0 0.53753087E+03</rscale>
<asrwt>0</asrwt>
<pdfrwt beam="1">  1        2 0.87526683E-01 0.53753087E+03</pdfrwt>
<pdfrwt beam="2">  1       -2 0.16842644E-01 0.53753087E+03</pdfrwt>
<totfact> 0.15201838E+03</totfact>
</mgrwt>
</event>
<event>
 4    1  0.1869793E-005  0.9706286E+03  0.7818608E-02  0.9341359E-01
         -2   -1    0    0    0  501 -0.00000000000E+00  0.00000000000E+00  0.38705054193E+03  0.38705054194E+03  0.25500000000E-02 0. -1.
          2   -1    0    0  501    0  0.00000000000E+00 -0.00000000000E+00 -0.60852504466E+03  0.60852504466E+03  0.25500000000E-02 0.  1.
    5000001    1    1    2    0    0  0.21182697546E+03 -0.37976366364E+03 -0.19555381236E+03  0.51665597963E+03  0.19900000000E+03 0.  0.
   -5000001    1    1    2    0    0 -0.21182697546E+03  0.37976366364E+03 -0.25920690365E+02  0.47891960697E+03  0.19900000000E+03 0.  0.
<mgrwt>
<rscale>  0 0.97062856E+03</rscale>
<asrwt>0</asrwt>
<pdfrwt beam="1">  1        2 0.86932149E-01 0.97062856E+03</pdfrwt>
<pdfrwt beam="2">  1       -2 0.55292935E-01 0.97062856E+03</pdfrwt>
<totfact> 0.16407225E+02</totfact>
</mgrwt>
</event>
<event>
 4    1  0.1869793E-005  0.7261834E+03  0.7818608E-02  0.9673474E-01
          2   -1    0    0  501    0  0.00000000000E+00  0.00000000000E+00  0.42571729011E+03  0.42571729012E+03  0.25500000000E-02 0.  1.
         -2   -1    0    0    0  501 -0.00000000000E+00 -0.00000000000E+00 -0.30967875081E+03  0.30967875082E+03  0.25500000000E-02 0. -1.
    5000001    1    1    2    0    0 -0.52239415994E+02  0.27998813256E+03 -0.48732892899E+02  0.35085353897E+03  0.19900000000E+03 0.  0.
   -5000001    1    1    2    0    0  0.52239415994E+02 -0.27998813256E+03  0.16477143219E+03  0.38454250197E+03  0.19900000000E+03 0.  0.
<mgrwt>
<rscale>  0 0.72618344E+03</rscale>
<asrwt>0</asrwt>
<pdfrwt beam="1">  1        2 0.60816755E-01 0.72618344E+03</pdfrwt>
<pdfrwt beam="2">  1       -2 0.44239822E-01 0.72618344E+03</pdfrwt>
<totfact> 0.39343471E+02</totfact>
</mgrwt>
</event>
<event>
 4    1  0.1869793E-005  0.8499206E+03  0.7818608E-02  0.9490444E-01
         -2   -1    0    0    0  501 -0.00000000000E+00  0.00000000000E+00  0.66823735854E+02  0.66823735903E+02  0.25500000000E-02 0. -1.
          2   -1    0    0  501    0  0.00000000000E+00 -0.00000000000E+00 -0.27025015199E+04  0.27025015199E+04  0.25500000000E-02 0.  1.
    5000001    1    1    2    0    0  0.69403547536E+02  0.25893675282E+03 -0.21745091227E+04  0.21999900043E+04  0.19900000000E+03 0.  0.
   -5000001    1    1    2    0    0 -0.69403547536E+02 -0.25893675282E+03 -0.46116866130E+03  0.56933525144E+03  0.19900000000E+03 0.  0.
<mgrwt>
<rscale>  0 0.84992058E+03</rscale>
<asrwt>0</asrwt>
<pdfrwt beam="1">  1        2 0.38607158E+00 0.84992058E+03</pdfrwt>
<pdfrwt beam="2">  1       -2 0.95462497E-02 0.84992058E+03</pdfrwt>
<totfact> 0.26180178E+02</totfact>
</mgrwt>
</event>
<event>
 4    1  0.1869793E-005  0.7166717E+03  0.7818608E-02  0.9689139E-01
          2   -1    0    0  501    0  0.00000000000E+00  0.00000000000E+00  0.22325990697E+03  0.22325990699E+03  0.25500000000E-02 0.  1.
         -2   -1    0    0    0  501 -0.00000000000E+00 -0.00000000000E+00 -0.57513494427E+03  0.57513494427E+03  0.25500000000E-02 0. -1.
    5000001    1    1    2    0    0 -0.28009760512E+03  0.64494084658E+02 -0.88293472328E+02  0.36057023256E+03  0.19900000000E+03 0.  0.
   -5000001    1    1    2    0    0  0.28009760512E+03 -0.64494084658E+02 -0.26358156497E+03  0.43782461870E+03  0.19900000000E+03 0.  0.
<mgrwt>
<rscale>  0 0.71667168E+03</rscale>
<asrwt>0</asrwt>
<pdfrwt beam="1">  1        2 0.31894273E-01 0.71667168E+03</pdfrwt>
<pdfrwt beam="2">  1       -2 0.82162134E-01 0.71667168E+03</pdfrwt>
<totfact> 0.21814145E+02</totfact>
</mgrwt>
</event>
<event>
 4    1  0.1869793E-005  0.7432899E+03  0.7818608E-02  0.9645937E-01
          2   -1    0    0  501    0  0.00000000000E+00  0.00000000000E+00  0.23819285005E+04  0.23819285005E+04  0.25500000000E-02 0. -1.
         -2   -1    0    0    0  501 -0.00000000000E+00 -0.00000000000E+00 -0.57986608163E+02  0.57986608219E+02  0.25500000000E-02 0.  1.
    5000001    1    1    2    0    0  0.30769099164E+03  0.31311256435E+02  0.98627380666E+03  0.10526115916E+04  0.19900000000E+03 0.  0.
   -5000001    1    1    2    0    0 -0.30769099164E+03 -0.31311256435E+02  0.13376680857E+04  0.13873035171E+04  0.19900000000E+03 0.  0.
<mgrwt>
<rscale>  0 0.74328986E+03</rscale>
<asrwt>0</asrwt>
<pdfrwt beam="1">  1        2 0.34027549E+00 0.74328986E+03</pdfrwt>
<pdfrwt beam="2">  1       -2 0.82838015E-02 0.74328986E+03</pdfrwt>
<totfact> 0.48734913E+02</totfact>
</mgrwt>
</event>
<event>
 4    1  0.1869793E-005  0.7175308E+03  0.7818608E-02  0.9687713E-01
         -2   -1    0    0    0  501 -0.00000000000E+00  0.00000000000E+00  0.13960786946E+03  0.13960786948E+03  0.25500000000E-02 0. -1.
          2   -1    0    0  501    0  0.00000000000E+00 -0.00000000000E+00 -0.92195820550E+03  0.92195820551E+03  0.25500000000E-02 0.  1.
    5000001    1    1    2    0    0 -0.61822868315E+02 -0.28553842094E+03 -0.30048752811E+03  0.46394828530E+03  0.19900000000E+03 0.  0.
   -5000001    1    1    2    0    0  0.61822868315E+02  0.28553842094E+03 -0.48186280793E+03  0.59761778969E+03  0.19900000000E+03 0.  0.
<mgrwt>
<rscale>  0 0.71753082E+03</rscale>
<asrwt>0</asrwt>
<pdfrwt beam="1">  1        2 0.13170831E+00 0.71753082E+03</pdfrwt>
<pdfrwt beam="2">  1       -2 0.19943982E-01 0.71753082E+03</pdfrwt>
<totfact> 0.67719979E+02</totfact>
</mgrwt>
</event>
<event>
 4    1  0.1869793E-005  0.4781776E+03  0.7818608E-02  0.1019637E+00
          2   -1    0    0  501    0  0.00000000000E+00  0.00000000000E+00  0.91528097565E+03  0.91528097565E+03  0.25500000000E-02 0.  1.
         -2   -1    0    0    0  501 -0.00000000000E+00 -0.00000000000E+00 -0.62454551839E+02  0.62454551891E+02  0.25500000000E-02 0. -1.
    5000001    1    1    2    0    0  0.11657928980E+03  0.34590040186E+02  0.53413017195E+03  0.58282350869E+03  0.19900000000E+03 0.  0.
   -5000001    1    1    2    0    0 -0.11657928980E+03 -0.34590040186E+02  0.31869625186E+03  0.39491201886E+03  0.19900000000E+03 0.  0.
<mgrwt>
<rscale>  0 0.47817764E+03</rscale>
<asrwt>0</asrwt>
<pdfrwt beam="1">  1        2 0.13075442E+00 0.47817764E+03</pdfrwt>
<pdfrwt beam="2">  1       -2 0.89220793E-02 0.47817764E+03</pdfrwt>
<totfact> 0.26216627E+03</totfact>
</mgrwt>
</event>
<event>
 4    1  0.1869793E-005  0.7275621E+03  0.7818608E-02  0.9671225E-01
          2   -1    0    0  501    0  0.00000000000E+00  0.00000000000E+00  0.72111087827E+03  0.72111087827E+03  0.25500000000E-02 0. -1.
         -2   -1    0    0    0  501 -0.00000000000E+00 -0.00000000000E+00 -0.18351778350E+03  0.18351778352E+03  0.25500000000E-02 0.  1.
    5000001    1    1    2    0    0  0.41835050272E+02  0.24571066923E+03  0.51253886346E+02  0.32303539322E+03  0.19900000000E+03 0.  0.
   -5000001    1    1    2    0    0 -0.41835050272E+02 -0.24571066923E+03  0.48633920842E+03  0.58159326858E+03  0.19900000000E+03 0.  0.
<mgrwt>
<rscale>  0 0.72756215E+03</rscale>
<asrwt>0</asrwt>
<pdfrwt beam="1">  1        2 0.10301584E+00 0.72756215E+03</pdfrwt>
<pdfrwt beam="2">  1       -2 0.26216826E-01 0.72756215E+03</pdfrwt>
<totfact> 0.57225826E+02</totfact>
</mgrwt>
</event>
<event>
 4    1  0.1869793E-005  0.7939866E+03  0.7818608E-02  0.9568762E-01
          2   -1    0    0  501    0  0.00000000000E+00  0.00000000000E+00  0.90658760072E+03  0.90658760072E+03  0.25500000000E-02 0.  1.
         -2   -1    0    0    0  501 -0.00000000000E+00 -0.00000000000E+00 -0.17384273885E+03  0.17384273887E+03  0.25500000000E-02 0. -1.
    5000001    1    1    2    0    0  0.27107518480E+03  0.18509855448E+03  0.50420297039E+03  0.63369145966E+03  0.19900000000E+03 0.  0.
   -5000001    1    1    2    0    0 -0.27107518480E+03 -0.18509855448E+03  0.22854189147E+03  0.44673887993E+03  0.19900000000E+03 0.  0.
<mgrwt>
<rscale>  0 0.79398658E+03</rscale>
<asrwt>0</asrwt>
<pdfrwt beam="1">  1        2 0.12951251E+00 0.79398658E+03</pdfrwt>
<pdfrwt beam="2">  1       -2 0.24834677E-01 0.79398658E+03</pdfrwt>
<totfact> 0.46824462E+02</totfact>
</mgrwt>
</event>
<event>
 4    1  0.1869793E-005  0.6068070E+03  0.7818608E-02  0.9891383E-01
          2   -1    0    0  501    0  0.00000000000E+00  0.00000000000E+00  0.13834408039E+04  0.13834408039E+04  0.25500000000E-02 0.  1.
         -2   -1    0    0    0  501 -0.00000000000E+00 -0.00000000000E+00 -0.66539671749E+02  0.66539671798E+02  0.25500000000E-02 0. -1.
    5000001    1    1    2    0    0 -0.53871087941E+02 -0.16656757465E+03  0.10113069761E+04  0.10454614535E+04  0.19900000000E+03 0.  0.
   -5000001    1    1    2    0    0  0.53871087941E+02  0.16656757465E+03  0.30559415610E+03  0.40451902215E+03  0.19900000000E+03 0.  0.
<mgrwt>
<rscale>  0 0.60680704E+03</rscale>
<asrwt>0</asrwt>
<pdfrwt beam="1">  1        2 0.19763441E+00 0.60680704E+03</pdfrwt>
<pdfrwt beam="2">  1       -2 0.95056669E-02 0.60680704E+03</pdfrwt>
<totfact> 0.12737399E+03</totfact>
</mgrwt>
</event>
<event>
 4    1  0.1869793E-005  0.6267997E+03  0.7818608E-02  0.9851314E-01
         -2   -1    0    0    0  501 -0.00000000000E+00  0.00000000000E+00  0.50795250417E+02  0.50795250481E+02  0.25500000000E-02 0.  1.
          2   -1    0    0  501    0  0.00000000000E+00 -0.00000000000E+00 -0.19336349539E+04  0.19336349539E+04  0.25500000000E-02 0. -1.
    5000001    1    1    2    0    0 -0.15010469981E+03  0.18995886772E+03 -0.94660222476E+03  0.99713216990E+03  0.19900000000E+03 0.  0.
   -5000001    1    1    2    0    0  0.15010469981E+03 -0.18995886772E+03 -0.93623747875E+03  0.98729803451E+03  0.19900000000E+03 0.  0.
<mgrwt>
<rscale>  0 0.62679972E+03</rscale>
<asrwt>0</asrwt>
<pdfrwt beam="1">  1        2 0.27623352E+00 0.62679972E+03</pdfrwt>
<pdfrwt beam="2">  1       -2 0.72564656E-02 0.62679972E+03</pdfrwt>
<totfact> 0.10226658E+03</totfact>
</mgrwt>
</event>
<event>
 4    1  0.1869793E-005  0.6186241E+03  0.7818608E-02  0.9867503E-01
          2   -1    0    0  501    0  0.00000000000E+00  0.00000000000E+00  0.14337949915E+04  0.14337949915E+04  0.25500000000E-02 0.  1.
         -2   -1    0    0    0  501 -0.00000000000E+00 -0.00000000000E+00 -0.66727774007E+02  0.66727774056E+02  0.25500000000E-02 0. -1.
    5000001    1    1    2    0    0  0.17201639189E+03 -0.15606794262E+03  0.79537646351E+03  0.85215700461E+03  0.19900000000E+03 0.  0.
   -5000001    1    1    2    0    0 -0.17201639189E+03  0.15606794262E+03  0.57169075402E+03  0.64836576099E+03  0.19900000000E+03 0.  0.
<mgrwt>
<rscale>  0 0.61862411E+03</rscale>
<asrwt>0</asrwt>
<pdfrwt beam="1">  1        2 0.20482784E+00 0.61862411E+03</pdfrwt>
<pdfrwt beam="2">  1       -2 0.95325401E-02 0.61862411E+03</pdfrwt>
<totfact> 0.11918107E+03</totfact>
</mgrwt>
</event>
<event>
 4    1  0.1869793E-005  0.7113937E+03  0.7818608E-02  0.9697943E-01
          2   -1    0    0  501    0  0.00000000000E+00  0.00000000000E+00  0.12924698680E+03  0.12924698683E+03  0.25500000000E-02 0.  1.
         -2   -1    0    0    0  501 -0.00000000000E+00 -0.00000000000E+00 -0.97890289988E+03  0.97890289989E+03  0.25500000000E-02 0. -1.
    5000001    1    1    2    0    0 -0.75202035178E+02 -0.27632711578E+03 -0.31570737783E+03  0.47040851334E+03  0.19900000000E+03 0.  0.
   -5000001    1    1    2    0    0  0.75202035178E+02  0.27632711578E+03 -0.53394853525E+03  0.63774137337E+03  0.19900000000E+03 0.  0.
<mgrwt>
<rscale>  0 0.71139370E+03</rscale>
<asrwt>0</asrwt>
<pdfrwt beam="1">  1        2 0.18463856E-01 0.71139370E+03</pdfrwt>
<pdfrwt beam="2">  1       -2 0.13984327E+00 0.71139370E+03</pdfrwt>
<totfact> 0.11383913E+02</totfact>
</mgrwt>
</event>
<event>
 4    1  0.1869793E-005  0.5536734E+03  0.7818608E-02  0.1000647E+00
         -2   -1    0    0    0  501 -0.00000000000E+00  0.00000000000E+00  0.71059903988E+02  0.71059904034E+02  0.25500000000E-02 0. -1.
          2   -1    0    0  501    0  0.00000000000E+00 -0.00000000000E+00 -0.10785063297E+04  0.10785063297E+04  0.25500000000E-02 0.  1.
    5000001    1    1    2    0    0  0.12331124929E+03 -0.85287785733E+02 -0.25321065699E+03  0.35524119611E+03  0.19900000000E+03 0.  0.
   -5000001    1    1    2    0    0 -0.12331124929E+03  0.85287785733E+02 -0.75423576875E+03  0.79432503766E+03  0.19900000000E+03 0.  0.
<mgrwt>
<rscale>  0 0.55367339E+03</rscale>
<asrwt>0</asrwt>
<pdfrwt beam="1">  1        2 0.15407232E+00 0.55367339E+03</pdfrwt>
<pdfrwt beam="2">  1       -2 0.10151415E-01 0.55367339E+03</pdfrwt>
<totfact> 0.16942572E+03</totfact>
</mgrwt>
</event>
<event>
 4    1  0.1869793E-005  0.9507551E+03  0.7818608E-02  0.9364268E-01
         -2   -1    0    0    0  501 -0.00000000000E+00  0.00000000000E+00  0.25273037138E+03  0.25273037140E+03  0.25500000000E-02 0. -1.
          2   -1    0    0  501    0  0.00000000000E+00 -0.00000000000E+00 -0.89416953171E+03  0.89416953172E+03  0.25500000000E-02 0.  1.
    5000001    1    1    2    0    0  0.29485390813E+03  0.21542284501E+03 -0.59852851885E+03  0.72882317278E+03  0.19900000000E+03 0.  0.
   -5000001    1    1    2    0    0 -0.29485390813E+03 -0.21542284501E+03 -0.42910641477E+02  0.41807673034E+03  0.19900000000E+03 0.  0.
<mgrwt>
<rscale>  0 0.95075506E+03</rscale>
<asrwt>0</asrwt>
<pdfrwt beam="1">  1        2 0.12773850E+00 0.95075506E+03</pdfrwt>
<pdfrwt beam="2">  1       -2 0.36104339E-01 0.95075506E+03</pdfrwt>
<totfact> 0.23641073E+02</totfact>
</mgrwt>
</event>
<event>
 4    1  0.1869793E-005  0.6833067E+03  0.7818608E-02  0.9746214E-01
          2   -1    0    0  501    0  0.00000000000E+00  0.00000000000E+00  0.15943571367E+04  0.15943571367E+04  0.25500000000E-02 0.  1.
         -2   -1    0    0    0  501 -0.00000000000E+00 -0.00000000000E+00 -0.73212590173E+02  0.73212590217E+02  0.25500000000E-02 0. -1.
    5000001    1    1    2    0    0 -0.27144550419E+03 -0.57530138101E+02  0.73236040149E+03  0.80805020648E+03  0.19900000000E+03 0.  0.
   -5000001    1    1    2    0    0  0.27144550419E+03  0.57530138101E+02  0.78878414500E+03  0.85951952039E+03  0.19900000000E+03 0.  0.
<mgrwt>
<rscale>  0 0.68330671E+03</rscale>
<asrwt>0</asrwt>
<pdfrwt beam="1">  1        2 0.22776529E+00 0.68330671E+03</pdfrwt>
<pdfrwt beam="2">  1       -2 0.10458942E-01 0.68330671E+03</pdfrwt>
<totfact> 0.84305539E+02</totfact>
</mgrwt>
</event>
<event>
 4    1  0.1869793E-005  0.1179576E+04  0.7818608E-02  0.9130924E-01
          2   -1    0    0  501    0  0.00000000000E+00  0.00000000000E+00  0.83075667654E+03  0.83075667655E+03  0.25500000000E-02 0.  1.
         -2   -1    0    0    0  501 -0.00000000000E+00 -0.00000000000E+00 -0.41871467029E+03  0.41871467030E+03  0.25500000000E-02 0. -1.
    5000001    1    1    2    0    0 -0.42696373602E+03 -0.34648276046E+03  0.12465348652E+03  0.59790285739E+03  0.19900000000E+03 0.  0.
   -5000001    1    1    2    0    0  0.42696373602E+03  0.34648276046E+03  0.28738851973E+03  0.65156848945E+03  0.19900000000E+03 0.  0.
<mgrwt>
<rscale>  0 0.11795762E+04</rscale>
<asrwt>0</asrwt>
<pdfrwt beam="1">  1        2 0.11867953E+00 0.11795762E+04</pdfrwt>
<pdfrwt beam="2">  1       -2 0.59816382E-01 0.11795762E+04</pdfrwt>
<totfact> 0.93267468E+01</totfact>
</mgrwt>
</event>
<event>
 4    1  0.1869793E-005  0.5895646E+03  0.7818608E-02  0.9927296E-01
          2   -1    0    0  501    0  0.00000000000E+00  0.00000000000E+00  0.24030075524E+04  0.24030075524E+04  0.25500000000E-02 0.  1.
         -2   -1    0    0    0  501 -0.00000000000E+00 -0.00000000000E+00 -0.36161608230E+02  0.36161608320E+02  0.25500000000E-02 0. -1.
    5000001    1    1    2    0    0  0.99850807206E+02 -0.19306080515E+03  0.12135310386E+04  0.12487999199E+04  0.19900000000E+03 0.  0.
   -5000001    1    1    2    0    0 -0.99850807206E+02  0.19306080515E+03  0.11533149055E+04  0.11903692408E+04  0.19900000000E+03 0.  0.
<mgrwt>
<rscale>  0 0.58956465E+03</rscale>
<asrwt>0</asrwt>
<pdfrwt beam="1">  1        2 0.34328683E+00 0.58956465E+03</pdfrwt>
<pdfrwt beam="2">  1       -2 0.51659435E-02 0.58956465E+03</pdfrwt>
<totfact> 0.10126639E+03</totfact>
</mgrwt>
</event>
<event>
 4    1  0.1869793E-005  0.5584846E+03  0.7818608E-02  0.9995489E-01
         -2   -1    0    0    0  501 -0.00000000000E+00  0.00000000000E+00  0.34321078009E+02  0.34321078104E+02  0.25500000000E-02 0. -1.
          2   -1    0    0  501    0  0.00000000000E+00 -0.00000000000E+00 -0.22719646114E+04  0.22719646114E+04  0.25500000000E-02 0.  1.
    5000001    1    1    2    0    0 -0.99992451786E+02  0.96864195694E+02 -0.16879516157E+04  0.17053336388E+04  0.19900000000E+03 0.  0.
   -5000001    1    1    2    0    0  0.99992451786E+02 -0.96864195694E+02 -0.54969191768E+03  0.60095205065E+03  0.19900000000E+03 0.  0.
<mgrwt>
<rscale>  0 0.55848465E+03</rscale>
<asrwt>0</asrwt>
<pdfrwt beam="1">  1        2 0.32456628E+00 0.55848465E+03</pdfrwt>
<pdfrwt beam="2">  1       -2 0.49030126E-02 0.55848465E+03</pdfrwt>
<totfact> 0.12820387E+03</totfact>
</mgrwt>
</event>
<event>
 4    1  0.1869793E-005  0.5431051E+03  0.7818608E-02  0.1003103E+00
          2   -1    0    0  501    0  0.00000000000E+00  0.00000000000E+00  0.43418033507E+03  0.43418033508E+03  0.25500000000E-02 0.  1.
         -2   -1    0    0    0  501 -0.00000000000E+00 -0.00000000000E+00 -0.16983910710E+03  0.16983910712E+03  0.25500000000E-02 0. -1.
    5000001    1    1    2    0    0  0.86654257629E+02  0.15838560615E+03  0.88457803647E+02  0.28287938000E+03  0.19900000000E+03 0.  0.
   -5000001    1    1    2    0    0 -0.86654257629E+02 -0.15838560615E+03  0.17588342432E+03  0.32114006221E+03  0.19900000000E+03 0.  0.
<mgrwt>
<rscale>  0 0.54310515E+03</rscale>
<asrwt>0</asrwt>
<pdfrwt beam="1">  1        2 0.62025761E-01 0.54310515E+03</pdfrwt>
<pdfrwt beam="2">  1       -2 0.24262730E-01 0.54310515E+03</pdfrwt>
<totfact> 0.11931539E+03</totfact>
</mgrwt>
</event>
<event>
 4    1  0.1869793E-005  0.6161584E+03  0.7818608E-02  0.9872438E-01
          2   -1    0    0  501    0  0.00000000000E+00  0.00000000000E+00  0.10561218560E+04  0.10561218560E+04  0.25500000000E-02 0.  1.
         -2   -1    0    0    0  501 -0.00000000000E+00 -0.00000000000E+00 -0.89869178484E+02  0.89869178520E+02  0.25500000000E-02 0. -1.
    5000001    1    1    2    0    0  0.21601548755E+03  0.65144923141E+02  0.35968114425E+03  0.46891158805E+03  0.19900000000E+03 0.  0.
   -5000001    1    1    2    0    0 -0.21601548755E+03 -0.65144923141E+02  0.60657153325E+03  0.67707944646E+03  0.19900000000E+03 0.  0.
<mgrwt>
<rscale>  0 0.61615843E+03</rscale>
<asrwt>0</asrwt>
<pdfrwt beam="1">  1        2 0.15087454E+00 0.61615843E+03</pdfrwt>
<pdfrwt beam="2">  1       -2 0.12838455E-01 0.61615843E+03</pdfrwt>
<totfact> 0.11872896E+03</totfact>
</mgrwt>
</event>
<event>
 4    1  0.1869793E-005  0.5438370E+03  0.7818608E-02  0.1002931E+00
          2   -1    0    0  501    0  0.00000000000E+00  0.00000000000E+00  0.13680945135E+04  0.13680945135E+04  0.25500000000E-02 0.  1.
         -2   -1    0    0    0  501 -0.00000000000E+00 -0.00000000000E+00 -0.54045738043E+02  0.54045738103E+02  0.25500000000E-02 0. -1.
    5000001    1    1    2    0    0 -0.17107064194E+03  0.18153334831E+02  0.83713719973E+03  0.87749324742E+03  0.19900000000E+03 0.  0.
   -5000001    1    1    2    0    0  0.17107064194E+03 -0.18153334831E+02  0.47691157569E+03  0.54464700415E+03  0.19900000000E+03 0.  0.
<mgrwt>
<rscale>  0 0.54383703E+03</rscale>
<asrwt>0</asrwt>
<pdfrwt beam="1">  1        2 0.19544205E+00 0.54383703E+03</pdfrwt>
<pdfrwt beam="2">  1       -2 0.77208207E-02 0.54383703E+03</pdfrwt>
<totfact> 0.18137352E+03</totfact>
</mgrwt>
</event>
<event>
 4    1  0.1869793E-005  0.4660747E+03  0.7818608E-02  0.1023034E+00
          2   -1    0    0  501    0  0.00000000000E+00  0.00000000000E+00  0.15280111730E+04  0.15280111730E+04  0.25500000000E-02 0.  1.
         -2   -1    0    0    0  501 -0.00000000000E+00 -0.00000000000E+00 -0.35540579385E+02  0.35540579476E+02  0.25500000000E-02 0. -1.
    5000001    1    1    2    0    0 -0.89185763855E+02 -0.80626507734E+02  0.69312161500E+03  0.73107681361E+03  0.19900000000E+03 0.  0.
   -5000001    1    1    2    0    0  0.89185763855E+02  0.80626507734E+02  0.79934897860E+03  0.83247493885E+03  0.19900000000E+03 0.  0.
<mgrwt>
<rscale>  0 0.46607468E+03</rscale>
<asrwt>0</asrwt>
<pdfrwt beam="1">  1        2 0.21828728E+00 0.46607468E+03</pdfrwt>
<pdfrwt beam="2">  1       -2 0.50772264E-02 0.46607468E+03</pdfrwt>
<totfact> 0.28859565E+03</totfact>
</mgrwt>
</event>
<event>
 4    1  0.1869793E-005  0.9901768E+03  0.7818608E-02  0.9319385E-01
         -2   -1    0    0    0  501 -0.00000000000E+00  0.00000000000E+00  0.55414770885E+03  0.55414770885E+03  0.25500000000E-02 0. -1.
          2   -1    0    0  501    0  0.00000000000E+00 -0.00000000000E+00 -0.44232344954E+03  0.44232344955E+03  0.25500000000E-02 0.  1.
    5000001    1    1    2    0    0 -0.19424847409E+03 -0.28993753468E+03 -0.23526305390E+03  0.46555982240E+03  0.19900000000E+03 0.  0.
   -5000001    1    1    2    0    0  0.19424847409E+03  0.28993753468E+03  0.34708731320E+03  0.53091133600E+03  0.19900000000E+03 0.  0.
<mgrwt>
<rscale>  0 0.99017680E+03</rscale>
<asrwt>0</asrwt>
<pdfrwt beam="1">  1        2 0.63189064E-01 0.99017680E+03</pdfrwt>
<pdfrwt beam="2">  1       -2 0.79163958E-01 0.99017680E+03</pdfrwt>
<totfact> 0.10926845E+02</totfact>
</mgrwt>
</event>
<event>
 4    1  0.1869793E-005  0.7639176E+03  0.7818608E-02  0.9613765E-01
         -2   -1    0    0    0  501 -0.00000000000E+00  0.00000000000E+00  0.42176513099E+03  0.42176513100E+03  0.25500000000E-02 0. -1.
          2   -1    0    0  501    0  0.00000000000E+00 -0.00000000000E+00 -0.34590939992E+03  0.34590939993E+03  0.25500000000E-02 0.  1.
    5000001    1    1    2    0    0  0.89566448220E+02 -0.31290392267E+03  0.18847388830E+02  0.38195187856E+03  0.19900000000E+03 0.  0.
   -5000001    1    1    2    0    0 -0.89566448220E+02  0.31290392267E+03  0.57008342237E+02  0.38572265237E+03  0.19900000000E+03 0.  0.
<mgrwt>
<rscale>  0 0.76391760E+03</rscale>
<asrwt>0</asrwt>
<pdfrwt beam="1">  1        2 0.49415628E-01 0.76391760E+03</pdfrwt>
<pdfrwt beam="2">  1       -2 0.60252162E-01 0.76391760E+03</pdfrwt>
<totfact> 0.26326968E+02</totfact>
</mgrwt>
</event>
<event>
 4    1  0.1869793E-005  0.7368755E+03  0.7818608E-02  0.9656169E-01
         -2   -1    0    0    0  501 -0.00000000000E+00  0.00000000000E+00  0.37518355190E+03  0.37518355190E+03  0.25500000000E-02 0. -1.
          2   -1    0    0  501    0  0.00000000000E+00 -0.00000000000E+00 -0.36181328262E+03  0.36181328263E+03  0.25500000000E-02 0.  1.
    5000001    1    1    2    0    0 -0.20183038169E+03 -0.16119750355E+03 -0.16488100972E+03  0.36538594047E+03  0.19900000000E+03 0.  0.
   -5000001    1    1    2    0    0  0.20183038169E+03  0.16119750355E+03  0.17825127900E+03  0.37161089407E+03  0.19900000000E+03 0.  0.
<mgrwt>
<rscale>  0 0.73687555E+03</rscale>
<asrwt>0</asrwt>
<pdfrwt beam="1">  1        2 0.51687612E-01 0.73687555E+03</pdfrwt>
<pdfrwt beam="2">  1       -2 0.53597650E-01 0.73687555E+03</pdfrwt>
<totfact> 0.31997224E+02</totfact>
</mgrwt>
</event>
<event>
 4    1  0.1869793E-005  0.2167083E+04  0.7818608E-02  0.8532255E-01
         -2   -1    0    0    0  501 -0.00000000000E+00  0.00000000000E+00  0.55346339422E+03  0.55346339422E+03  0.25500000000E-02 0. -1.
          2   -1    0    0  501    0  0.00000000000E+00 -0.00000000000E+00 -0.21213003410E+04  0.21213003410E+04  0.25500000000E-02 0.  1.
    5000001    1    1    2    0    0  0.79138337334E+03 -0.51316331534E+03 -0.17318982174E+03  0.97939774666E+03  0.19900000000E+03 0.  0.
   -5000001    1    1    2    0    0 -0.79138337334E+03  0.51316331534E+03 -0.13946471250E+04  0.16953659886E+04  0.19900000000E+03 0.  0.
<mgrwt>
<rscale>  0 0.21670829E+04</rscale>
<asrwt>0</asrwt>
<pdfrwt beam="1">  1        2 0.30304290E+00 0.21670829E+04</pdfrwt>
<pdfrwt beam="2">  1       -2 0.79066200E-01 0.21670829E+04</pdfrwt>
<totfact> 0.90748513E+00</totfact>
</mgrwt>
</event>
<event>
 4    1  0.1869793E-005  0.5890329E+03  0.7818608E-02  0.9928424E-01
         -2   -1    0    0    0  501 -0.00000000000E+00  0.00000000000E+00  0.72849709076E+02  0.72849709120E+02  0.25500000000E-02 0. -1.
          2   -1    0    0  501    0  0.00000000000E+00 -0.00000000000E+00 -0.11906697745E+04  0.11906697745E+04  0.25500000000E-02 0.  1.
    5000001    1    1    2    0    0  0.51097130471E+02  0.17432200849E+03 -0.81398335519E+03  0.85741995657E+03  0.19900000000E+03 0.  0.
   -5000001    1    1    2    0    0 -0.51097130471E+02 -0.17432200849E+03 -0.30383671021E+03  0.40609952703E+03  0.19900000000E+03 0.  0.
<mgrwt>
<rscale>  0 0.58903293E+03</rscale>
<asrwt>0</asrwt>
<pdfrwt beam="1">  1        2 0.17009567E+00 0.58903293E+03</pdfrwt>
<pdfrwt beam="2">  1       -2 0.10407102E-01 0.58903293E+03</pdfrwt>
<totfact> 0.14023986E+03</totfact>
</mgrwt>
</event>
<event>
 4    1  0.1869793E-005  0.7568741E+03  0.7818608E-02  0.9624627E-01
          2   -1    0    0  501    0  0.00000000000E+00  0.00000000000E+00  0.16028997870E+04  0.16028997870E+04  0.25500000000E-02 0.  1.
         -2   -1    0    0    0  501 -0.00000000000E+00 -0.00000000000E+00 -0.89347189991E+02  0.89347190028E+02  0.25500000000E-02 0. -1.
    5000001    1    1    2    0    0  0.18802404884E+03  0.26102174247E+03  0.73146105021E+03  0.82348142721E+03  0.19900000000E+03 0.  0.
   -5000001    1    1    2    0    0 -0.18802404884E+03 -0.26102174247E+03  0.78209154683E+03  0.86876554985E+03  0.19900000000E+03 0.  0.
<mgrwt>
<rscale>  0 0.75687408E+03</rscale>
<asrwt>0</asrwt>
<pdfrwt beam="1">  1        2 0.22898564E+00 0.75687408E+03</pdfrwt>
<pdfrwt beam="2">  1       -2 0.12763887E-01 0.75687408E+03</pdfrwt>
<totfact> 0.59900027E+02</totfact>
</mgrwt>
</event>
<event>
 4    1  0.1869793E-005  0.8652663E+03  0.7818608E-02  0.9470073E-01
         -2   -1    0    0    0  501 -0.00000000000E+00  0.00000000000E+00  0.13913906797E+04  0.13913906797E+04  0.25500000000E-02 0. -1.
          2   -1    0    0  501    0  0.00000000000E+00 -0.00000000000E+00 -0.13452111896E+03  0.13452111898E+03  0.25500000000E-02 0.  1.
    5000001    1    1    2    0    0 -0.20730614749E+02 -0.21249358189E+03  0.11916214720E+04  0.12268439238E+04  0.19900000000E+03 0.  0.
   -5000001    1    1    2    0    0  0.20730614749E+02  0.21249358189E+03  0.65248088745E+02  0.29906787493E+03  0.19900000000E+03 0.  0.
<mgrwt>
<rscale>  0 0.86526627E+03</rscale>
<asrwt>0</asrwt>
<pdfrwt beam="1">  1        2 0.19217302E-01 0.86526627E+03</pdfrwt>
<pdfrwt beam="2">  1       -2 0.19877010E+00 0.86526627E+03</pdfrwt>
<totfact> 0.40766408E+01</totfact>
</mgrwt>
</event>
<event>
 4    1  0.1869793E-005  0.6766527E+03  0.7818608E-02  0.9758014E-01
          2   -1    0    0  501    0  0.00000000000E+00  0.00000000000E+00  0.57091849371E+03  0.57091849372E+03  0.25500000000E-02 0.  1.
         -2   -1    0    0    0  501 -0.00000000000E+00 -0.00000000000E+00 -0.20049219831E+03  0.20049219832E+03  0.25500000000E-02 0. -1.
    5000001    1    1    2    0    0 -0.53794363549E+02 -0.25650012851E+03  0.27481730356E+03  0.42873266707E+03  0.19900000000E+03 0.  0.
   -5000001    1    1    2    0    0  0.53794363549E+02  0.25650012851E+03  0.95608991841E+02  0.34267802497E+03  0.19900000000E+03 0.  0.
<mgrwt>
<rscale>  0 0.67665265E+03</rscale>
<asrwt>0</asrwt>
<pdfrwt beam="1">  1        2 0.81559786E-01 0.67665265E+03</pdfrwt>
<pdfrwt beam="2">  1       -2 0.28641742E-01 0.67665265E+03</pdfrwt>
<totfact> 0.64565814E+02</totfact>
</mgrwt>
</event>
<event>
 4    1  0.1869793E-005  0.7756118E+03  0.7818608E-02  0.9596005E-01
         -2   -1    0    0    0  501 -0.00000000000E+00  0.00000000000E+00  0.94564500175E+02  0.94564500210E+02  0.25500000000E-02 0. -1.
          2   -1    0    0  501    0  0.00000000000E+00 -0.00000000000E+00 -0.15903791447E+04  0.15903791447E+04  0.25500000000E-02 0.  1.
    5000001    1    1    2    0    0  0.22689416205E+03 -0.21568781414E+03 -0.99359303671E+03  0.10605801792E+04  0.19900000000E+03 0.  0.
   -5000001    1    1    2    0    0 -0.22689416205E+03  0.21568781414E+03 -0.50222160780E+03  0.62436346569E+03  0.19900000000E+03 0.  0.
<mgrwt>
<rscale>  0 0.77561178E+03</rscale>
<asrwt>0</asrwt>
<pdfrwt beam="1">  1        2 0.22719700E+00 0.77561178E+03</pdfrwt>
<pdfrwt beam="2">  1       -2 0.13509215E-01 0.77561178E+03</pdfrwt>
<totfact> 0.55254961E+02</totfact>
</mgrwt>
</event>
<event>
 4    1  0.1869793E-005  0.6169904E+03  0.7818608E-02  0.9870770E-01
          2   -1    0    0  501    0  0.00000000000E+00  0.00000000000E+00  0.37850856878E+03  0.37850856879E+03  0.25500000000E-02 0.  1.
         -2   -1    0    0    0  501 -0.00000000000E+00 -0.00000000000E+00 -0.25143234652E+03  0.25143234653E+03  0.25500000000E-02 0. -1.
    5000001    1    1    2    0    0 -0.21701341821E+03 -0.84859148336E+01 -0.30045296293E+02  0.29609213813E+03  0.19900000000E+03 0.  0.
   -5000001    1    1    2    0    0  0.21701341821E+03  0.84859148336E+01  0.15712151856E+03  0.33384877718E+03  0.19900000000E+03 0.  0.
<mgrwt>
<rscale>  0 0.61699043E+03</rscale>
<asrwt>0</asrwt>
<pdfrwt beam="1">  1        2 0.54072653E-01 0.61699043E+03</pdfrwt>
<pdfrwt beam="2">  1       -2 0.35918906E-01 0.61699043E+03</pdfrwt>
<totfact> 0.67419268E+02</totfact>
</mgrwt>
</event>
<event>
 4    1  0.1869793E-005  0.1153936E+04  0.7818608E-02  0.9154160E-01
          2   -1    0    0  501    0  0.00000000000E+00  0.00000000000E+00  0.16797603194E+04  0.16797603194E+04  0.25500000000E-02 0.  1.
         -2   -1    0    0    0  501 -0.00000000000E+00 -0.00000000000E+00 -0.19817845730E+03  0.19817845731E+03  0.25500000000E-02 0. -1.
    5000001    1    1    2    0    0  0.11018998285E+03  0.48890540524E+03  0.40678914222E+03  0.67546186704E+03  0.19900000000E+03 0.  0.
   -5000001    1    1    2    0    0 -0.11018998285E+03 -0.48890540524E+03  0.10747927199E+04  0.12024769097E+04  0.19900000000E+03 0.  0.
<mgrwt>
<rscale>  0 0.11539364E+04</rscale>
<asrwt>0</asrwt>
<pdfrwt beam="1">  1        2 0.23996577E+00 0.11539364E+04</pdfrwt>
<pdfrwt beam="2">  1       -2 0.28311207E-01 0.11539364E+04</pdfrwt>
<totfact> 0.13270746E+02</totfact>
</mgrwt>
</event>
<event>
 4    1  0.1869793E-005  0.4871341E+03  0.7818608E-02  0.1017193E+00
         -2   -1    0    0    0  501 -0.00000000000E+00  0.00000000000E+00  0.26017475697E+03  0.26017475699E+03  0.25500000000E-02 0. -1.
          2   -1    0    0  501    0  0.00000000000E+00 -0.00000000000E+00 -0.22801942773E+03  0.22801942775E+03  0.25500000000E-02 0.  1.
    5000001    1    1    2    0    0 -0.28863278202E+02  0.12014473695E+03  0.82976607303E+02  0.24850344868E+03  0.19900000000E+03 0.  0.
   -5000001    1    1    2    0    0  0.28863278202E+02 -0.12014473695E+03 -0.50821278062E+02  0.23969073605E+03  0.19900000000E+03 0.  0.
<mgrwt>
<rscale>  0 0.48713406E+03</rscale>
<asrwt>0</asrwt>
<pdfrwt beam="1">  1        2 0.32574204E-01 0.48713406E+03</pdfrwt>
<pdfrwt beam="2">  1       -2 0.37167822E-01 0.48713406E+03</pdfrwt>
<totfact> 0.11065348E+03</totfact>
</mgrwt>
</event>
<event>
 4    1  0.1869793E-005  0.8984501E+03  0.7818608E-02  0.9427521E-01
          2   -1    0    0  501    0  0.00000000000E+00  0.00000000000E+00  0.23243455382E+04  0.23243455382E+04  0.25500000000E-02 0.  1.
         -2   -1    0    0    0  501 -0.00000000000E+00 -0.00000000000E+00 -0.86821499046E+02  0.86821499083E+02  0.25500000000E-02 0. -1.
    5000001    1    1    2    0    0  0.37153555093E+03 -0.71865553496E+02  0.14886726959E+04  0.15488546474E+04  0.19900000000E+03 0.  0.
   -5000001    1    1    2    0    0 -0.37153555093E+03  0.71865553496E+02  0.74885134329E+03  0.86231238988E+03  0.19900000000E+03 0.  0.
<mgrwt>
<rscale>  0 0.89845014E+03</rscale>
<asrwt>0</asrwt>
<pdfrwt beam="1">  1        2 0.33204933E+00 0.89845014E+03</pdfrwt>
<pdfrwt beam="2">  1       -2 0.12403072E-01 0.89845014E+03</pdfrwt>
<totfact> 0.26674513E+02</totfact>
</mgrwt>
</event>
<event>
 4    1  0.1869793E-005  0.5048254E+03  0.7818608E-02  0.1012527E+00
          2   -1    0    0  501    0  0.00000000000E+00  0.00000000000E+00  0.63595740902E+03  0.63595740903E+03  0.25500000000E-02 0.  1.
         -2   -1    0    0    0  501 -0.00000000000E+00 -0.00000000000E+00 -0.10018306977E+03  0.10018306980E+03  0.25500000000E-02 0. -1.
    5000001    1    1    2    0    0  0.12906959871E+03  0.75132240453E+02  0.20589444461E+03  0.32295098264E+03  0.19900000000E+03 0.  0.
   -5000001    1    1    2    0    0 -0.12906959871E+03 -0.75132240453E+02  0.32987989465E+03  0.41318949619E+03  0.19900000000E+03 0.  0.
<mgrwt>
<rscale>  0 0.50482538E+03</rscale>
<asrwt>0</asrwt>
<pdfrwt beam="1">  1        2 0.90851059E-01 0.50482538E+03</pdfrwt>
<pdfrwt beam="2">  1       -2 0.14311867E-01 0.50482538E+03</pdfrwt>
<totfact> 0.19137135E+03</totfact>
</mgrwt>
</event>
<event>
 4    1  0.1869793E-005  0.6275908E+03  0.7818608E-02  0.9849761E-01
          2   -1    0    0  501    0  0.00000000000E+00  0.00000000000E+00  0.62875392163E+03  0.62875392163E+03  0.25500000000E-02 0.  1.
         -2   -1    0    0    0  501 -0.00000000000E+00 -0.00000000000E+00 -0.15660746525E+03  0.15660746527E+03  0.25500000000E-02 0. -1.
    5000001    1    1    2    0    0  0.12933416823E+03 -0.19992867269E+03  0.29433695151E+03  0.42770789362E+03  0.19900000000E+03 0.  0.
   -5000001    1    1    2    0    0 -0.12933416823E+03  0.19992867269E+03  0.17780950487E+03  0.35765349329E+03  0.19900000000E+03 0.  0.
<mgrwt>
<rscale>  0 0.62759082E+03</rscale>
<asrwt>0</asrwt>
<pdfrwt beam="1">  1        2 0.89821988E-01 0.62759082E+03</pdfrwt>
<pdfrwt beam="2">  1       -2 0.22372495E-01 0.62759082E+03</pdfrwt>
<totfact> 0.90024052E+02</totfact>
</mgrwt>
</event>
<event>
 4    1  0.1869793E-005  0.4873493E+03  0.7818608E-02  0.1017135E+00
         -2   -1    0    0    0  501 -0.00000000000E+00  0.00000000000E+00  0.34836470860E+02  0.34836470953E+02  0.25500000000E-02 0. -1.
          2   -1    0    0  501    0  0.00000000000E+00 -0.00000000000E+00 -0.17044586471E+04  0.17044586471E+04  0.25500000000E-02 0.  1.
    5000001    1    1    2    0    0  0.99729527615E+02 -0.56864668415E+02 -0.54494450908E+03  0.59139249840E+03  0.19900000000E+03 0.  0.
   -5000001    1    1    2    0    0 -0.99729527615E+02  0.56864668415E+02 -0.11246776672E+04  0.11479026196E+04  0.19900000000E+03 0.  0.
<mgrwt>
<rscale>  0 0.48734925E+03</rscale>
<asrwt>0</asrwt>
<pdfrwt beam="1">  1        2 0.24349404E+00 0.48734925E+03</pdfrwt>
<pdfrwt beam="2">  1       -2 0.49766398E-02 0.48734925E+03</pdfrwt>
<totfact> 0.24195922E+03</totfact>
</mgrwt>
</event>
<event>
 4    1  0.1869793E-005  0.5693353E+03  0.7818608E-02  0.9971150E-01
         -2   -1    0    0    0  501 -0.00000000000E+00  0.00000000000E+00  0.37450924240E+02  0.37450924327E+02  0.25500000000E-02 0. -1.
          2   -1    0    0  501    0  0.00000000000E+00 -0.00000000000E+00 -0.21637832278E+04  0.21637832278E+04  0.25500000000E-02 0.  1.
    5000001    1    1    2    0    0  0.10894046036E+03  0.67221473802E+02 -0.45126110687E+03  0.50953345034E+03  0.19900000000E+03 0.  0.
   -5000001    1    1    2    0    0 -0.10894046036E+03 -0.67221473802E+02 -0.16750711967E+04  0.16917007018E+04  0.19900000000E+03 0.  0.
<mgrwt>
<rscale>  0 0.56933534E+03</rscale>
<asrwt>0</asrwt>
<pdfrwt beam="1">  1        2 0.30911181E+00 0.56933534E+03</pdfrwt>
<pdfrwt beam="2">  1       -2 0.53501334E-02 0.56933534E+03</pdfrwt>
<totfact> 0.12684040E+03</totfact>
</mgrwt>
</event>
<event>
 4    1  0.1869793E-005  0.6349308E+03  0.7818608E-02  0.9835474E-01
         -2   -1    0    0    0  501 -0.00000000000E+00  0.00000000000E+00  0.12882799917E+04  0.12882799917E+04  0.25500000000E-02 0. -1.
          2   -1    0    0  501    0  0.00000000000E+00 -0.00000000000E+00 -0.78231669712E+02  0.78231669753E+02  0.25500000000E-02 0.  1.
    5000001    1    1    2    0    0  0.19224352785E+03  0.12991587645E+03  0.42053992955E+03  0.51989474059E+03  0.19900000000E+03 0.  0.
   -5000001    1    1    2    0    0 -0.19224352785E+03 -0.12991587645E+03  0.78950839244E+03  0.84661692086E+03  0.19900000000E+03 0.  0.
<mgrwt>
<rscale>  0 0.63493085E+03</rscale>
<asrwt>0</asrwt>
<pdfrwt beam="1">  1        2 0.11175953E-01 0.63493085E+03</pdfrwt>
<pdfrwt beam="2">  1       -2 0.18403999E+00 0.63493085E+03</pdfrwt>
<totfact> 0.10023999E+02</totfact>
</mgrwt>
</event>
<event>
 4    1  0.1869793E-005  0.6812155E+03  0.7818608E-02  0.9749907E-01
          2   -1    0    0  501    0  0.00000000000E+00  0.00000000000E+00  0.65945689241E+03  0.65945689241E+03  0.25500000000E-02 0.  1.
         -2   -1    0    0    0  501 -0.00000000000E+00 -0.00000000000E+00 -0.17592303250E+03  0.17592303252E+03  0.25500000000E-02 0. -1.
    5000001    1    1    2    0    0  0.10264307283E+03  0.23617825803E+03  0.11854352200E+03  0.34636589984E+03  0.19900000000E+03 0.  0.
   -5000001    1    1    2    0    0 -0.10264307283E+03 -0.23617825803E+03  0.36499033791E+03  0.48901402509E+03  0.19900000000E+03 0.  0.
<mgrwt>
<rscale>  0 0.68121555E+03</rscale>
<asrwt>0</asrwt>
<pdfrwt beam="1">  1        2 0.94208129E-01 0.68121555E+03</pdfrwt>
<pdfrwt beam="2">  1       -2 0.25131861E-01 0.68121555E+03</pdfrwt>
<totfact> 0.69002743E+02</totfact>
</mgrwt>
</event>
<event>
 4    1  0.1869793E-005  0.4279776E+03  0.7818608E-02  0.1034501E+00
         -2   -1    0    0    0  501 -0.00000000000E+00  0.00000000000E+00  0.18454781712E+03  0.18454781713E+03  0.25500000000E-02 0. -1.
          2   -1    0    0  501    0  0.00000000000E+00 -0.00000000000E+00 -0.24812655523E+03  0.24812655524E+03  0.25500000000E-02 0.  1.
    5000001    1    1    2    0    0  0.50084476008E+02  0.11596918932E+02 -0.92001954274E+02  0.22518504137E+03  0.19900000000E+03 0.  0.
   -5000001    1    1    2    0    0 -0.50084476008E+02 -0.11596918932E+02  0.28423216159E+02  0.20748933101E+03  0.19900000000E+03 0.  0.
<mgrwt>
<rscale>  0 0.42797764E+03</rscale>
<asrwt>0</asrwt>
<pdfrwt beam="1">  1        2 0.35446650E-01 0.42797764E+03</pdfrwt>
<pdfrwt beam="2">  1       -2 0.26363974E-01 0.42797764E+03</pdfrwt>
<totfact> 0.19010637E+03</totfact>
</mgrwt>
</event>
<event>
 4    1  0.1869793E-005  0.4994038E+03  0.7818608E-02  0.1013935E+00
          2   -1    0    0  501    0  0.00000000000E+00  0.00000000000E+00  0.12940617512E+03  0.12940617514E+03  0.25500000000E-02 0.  1.
         -2   -1    0    0    0  501 -0.00000000000E+00 -0.00000000000E+00 -0.48182431098E+03  0.48182431098E+03  0.25500000000E-02 0. -1.
    5000001    1    1    2    0    0 -0.77526915075E+01  0.10546554314E+03 -0.44576697749E+02  0.22971975753E+03  0.19900000000E+03 0.  0.
   -5000001    1    1    2    0    0  0.77526915075E+01 -0.10546554314E+03 -0.30784143811E+03  0.38151072860E+03  0.19900000000E+03 0.  0.
<mgrwt>
<rscale>  0 0.49940381E+03</rscale>
<asrwt>0</asrwt>
<pdfrwt beam="1">  1        2 0.18486597E-01 0.49940381E+03</pdfrwt>
<pdfrwt beam="2">  1       -2 0.68832044E-01 0.49940381E+03</pdfrwt>
<totfact> 0.60571543E+02</totfact>
</mgrwt>
</event>
<event>
 4    1  0.1869793E-005  0.6449477E+03  0.7818608E-02  0.9816306E-01
          2   -1    0    0  501    0  0.00000000000E+00  0.00000000000E+00  0.18854430648E+03  0.18854430650E+03  0.25500000000E-02 0.  1.
         -2   -1    0    0    0  501 -0.00000000000E+00 -0.00000000000E+00 -0.55153818243E+03  0.55153818243E+03  0.25500000000E-02 0. -1.
    5000001    1    1    2    0    0 -0.18487071192E+03  0.14730475354E+03 -0.75624103939E+02  0.31811299193E+03  0.19900000000E+03 0.  0.
   -5000001    1    1    2    0    0  0.18487071192E+03 -0.14730475354E+03 -0.28736977200E+03  0.42196949700E+03  0.19900000000E+03 0.  0.
<mgrwt>
<rscale>  0 0.64494770E+03</rscale>
<asrwt>0</asrwt>
<pdfrwt beam="1">  1        2 0.26934901E-01 0.64494770E+03</pdfrwt>
<pdfrwt beam="2">  1       -2 0.78791168E-01 0.64494770E+03</pdfrwt>
<totfact> 0.29067245E+02</totfact>
</mgrwt>
</event>
<event>
 4    1  0.1869793E-005  0.5071995E+03  0.7818608E-02  0.1011917E+00
          2   -1    0    0  501    0  0.00000000000E+00  0.00000000000E+00  0.59146869683E+03  0.59146869684E+03  0.25500000000E-02 0.  1.
         -2   -1    0    0    0  501 -0.00000000000E+00 -0.00000000000E+00 -0.10873413251E+03  0.10873413254E+03  0.25500000000E-02 0. -1.
    5000001    1    1    2    0    0  0.57787131854E+02 -0.13857608533E+03  0.30566417602E+03  0.39442904626E+03  0.19900000000E+03 0.  0.
   -5000001    1    1    2    0    0 -0.57787131854E+02  0.13857608533E+03  0.17707038830E+03  0.30577378312E+03  0.19900000000E+03 0.  0.
<mgrwt>
<rscale>  0 0.50719951E+03</rscale>
<asrwt>0</asrwt>
<pdfrwt beam="1">  1        2 0.84495529E-01 0.50719951E+03</pdfrwt>
<pdfrwt beam="2">  1       -2 0.15533447E-01 0.50719951E+03</pdfrwt>
<totfact> 0.18167049E+03</totfact>
</mgrwt>
</event>
<event>
 4    1  0.1869793E-005  0.5078776E+03  0.7818608E-02  0.1011743E+00
         -2   -1    0    0    0  501 -0.00000000000E+00  0.00000000000E+00  0.21550147261E+02  0.21550147411E+02  0.25500000000E-02 0. -1.
          2   -1    0    0  501    0  0.00000000000E+00 -0.00000000000E+00 -0.29923188936E+04  0.29923188936E+04  0.25500000000E-02 0.  1.
    5000001    1    1    2    0    0 -0.76492671833E+02  0.13586298019E+03 -0.16275630391E+04  0.16470799387E+04  0.19900000000E+03 0.  0.
   -5000001    1    1    2    0    0  0.76492671833E+02 -0.13586298019E+03 -0.13432057072E+04  0.13667891023E+04  0.19900000000E+03 0.  0.
<mgrwt>
<rscale>  0 0.50787760E+03</rscale>
<asrwt>0</asrwt>
<pdfrwt beam="1">  1        2 0.42747386E+00 0.50787760E+03</pdfrwt>
<pdfrwt beam="2">  1       -2 0.30785944E-02 0.50787760E+03</pdfrwt>
<totfact> 0.11091061E+03</totfact>
</mgrwt>
</event>
<event>
 4    1  0.1869793E-005  0.8066702E+03  0.7818608E-02  0.9550412E-01
          2   -1    0    0  501    0  0.00000000000E+00  0.00000000000E+00  0.19640573762E+04  0.19640573762E+04  0.25500000000E-02 0.  1.
         -2   -1    0    0    0  501 -0.00000000000E+00 -0.00000000000E+00 -0.82828134439E+02  0.82828134478E+02  0.25500000000E-02 0. -1.
    5000001    1    1    2    0    0 -0.29968642276E+03 -0.14802196098E+03  0.67021533032E+03  0.77492712039E+03  0.19900000000E+03 0.  0.
   -5000001    1    1    2    0    0  0.29968642276E+03  0.14802196098E+03  0.12110139114E+04  0.12719583902E+04  0.19900000000E+03 0.  0.
<mgrwt>
<rscale>  0 0.80667021E+03</rscale>
<asrwt>0</asrwt>
<pdfrwt beam="1">  1        2 0.28057959E+00 0.80667021E+03</pdfrwt>
<pdfrwt beam="2">  1       -2 0.11832592E-01 0.80667021E+03</pdfrwt>
<totfact> 0.44281279E+02</totfact>
</mgrwt>
</event>
<event>
 4    1  0.1869793E-005  0.5948258E+03  0.7818608E-02  0.9916199E-01
          2   -1    0    0  501    0  0.00000000000E+00  0.00000000000E+00  0.28380125784E+03  0.28380125786E+03  0.25500000000E-02 0.  1.
         -2   -1    0    0    0  501 -0.00000000000E+00 -0.00000000000E+00 -0.31167735511E+03  0.31167735512E+03  0.25500000000E-02 0. -1.
    5000001    1    1    2    0    0  0.52265875570E+02 -0.19472002098E+03  0.76747337422E+02  0.29349405806E+03  0.19900000000E+03 0.  0.
   -5000001    1    1    2    0    0 -0.52265875570E+02  0.19472002098E+03 -0.10462343468E+03  0.30198455491E+03  0.19900000000E+03 0.  0.
<mgrwt>
<rscale>  0 0.59482577E+03</rscale>
<asrwt>0</asrwt>
<pdfrwt beam="1">  1        2 0.40543037E-01 0.59482577E+03</pdfrwt>
<pdfrwt beam="2">  1       -2 0.44525336E-01 0.59482577E+03</pdfrwt>
<totfact> 0.61095949E+02</totfact>
</mgrwt>
</event>
<event>
 4    1  0.1869793E-005  0.4252556E+03  0.7818608E-02  0.1035369E+00
         -2   -1    0    0    0  501 -0.00000000000E+00  0.00000000000E+00  0.11128687494E+02  0.11128687786E+02  0.25500000000E-02 0. -1.
          2   -1    0    0  501    0  0.00000000000E+00 -0.00000000000E+00 -0.40625262997E+04  0.40625262997E+04  0.25500000000E-02 0.  1.
    5000001    1    1    2    0    0  0.67580269899E+02  0.13299604893E+02 -0.17438629280E+04  0.17565314924E+04  0.19900000000E+03 0.  0.
   -5000001    1    1    2    0    0 -0.67580269899E+02 -0.13299604893E+02 -0.23075346843E+04  0.23171234951E+04  0.19900000000E+03 0.  0.
<mgrwt>
<rscale>  0 0.42525562E+03</rscale>
<asrwt>0</asrwt>
<pdfrwt beam="1">  1        2 0.58035995E+00 0.42525562E+03</pdfrwt>
<pdfrwt beam="2">  1       -2 0.15898151E-02 0.42525562E+03</pdfrwt>
<totfact> 0.69229032E+02</totfact>
</mgrwt>
</event>
<event>
 4    1  0.1869793E-005  0.4324389E+03  0.7818608E-02  0.1033092E+00
          2   -1    0    0  501    0  0.00000000000E+00  0.00000000000E+00  0.39853772776E+04  0.39853772776E+04  0.25500000000E-02 0.  1.
         -2   -1    0    0    0  501 -0.00000000000E+00 -0.00000000000E+00 -0.11730596376E+02  0.11730596653E+02  0.25500000000E-02 0. -1.
    5000001    1    1    2    0    0  0.70745471609E+02 -0.74091416628E+01  0.15642540288E+04  0.15784649137E+04  0.19900000000E+03 0.  0.
   -5000001    1    1    2    0    0 -0.70745471609E+02  0.74091416628E+01  0.24093926524E+04  0.24186429606E+04  0.19900000000E+03 0.  0.
<mgrwt>
<rscale>  0 0.43243891E+03</rscale>
<asrwt>0</asrwt>
<pdfrwt beam="1">  1        2 0.56933997E+00 0.43243891E+03</pdfrwt>
<pdfrwt beam="2">  1       -2 0.16757984E-02 0.43243891E+03</pdfrwt>
<totfact> 0.71971061E+02</totfact>
</mgrwt>
</event>
<event>
 4    1  0.1869793E-005  0.5112367E+03  0.7818608E-02  0.1010887E+00
         -2   -1    0    0    0  501 -0.00000000000E+00  0.00000000000E+00  0.21706119502E+03  0.21706119504E+03  0.25500000000E-02 0. -1.
          2   -1    0    0  501    0  0.00000000000E+00 -0.00000000000E+00 -0.30102446863E+03  0.30102446864E+03  0.25500000000E-02 0.  1.
    5000001    1    1    2    0    0 -0.14862842066E+03 -0.12148558735E+02 -0.10194987433E+03  0.26876155190E+03  0.19900000000E+03 0.  0.
   -5000001    1    1    2    0    0  0.14862842066E+03  0.12148558735E+02  0.17986600719E+02  0.24932411177E+03  0.19900000000E+03 0.  0.
<mgrwt>
<rscale>  0 0.51123666E+03</rscale>
<asrwt>0</asrwt>
<pdfrwt beam="1">  1        2 0.43003496E-01 0.51123666E+03</pdfrwt>
<pdfrwt beam="2">  1       -2 0.31008742E-01 0.51123666E+03</pdfrwt>
<totfact> 0.11447331E+03</totfact>
</mgrwt>
</event>
<event>
 4    1  0.1869793E-005  0.9073818E+03  0.7818608E-02  0.9416401E-01
         -2   -1    0    0    0  501 -0.00000000000E+00  0.00000000000E+00  0.17117442058E+03  0.17117442060E+03  0.25500000000E-02 0. -1.
          2   -1    0    0  501    0  0.00000000000E+00 -0.00000000000E+00 -0.12024895413E+04  0.12024895413E+04  0.25500000000E-02 0.  1.
    5000001    1    1    2    0    0  0.12024661259E+03  0.24421916336E+03 -0.56146309195E+02  0.34184156509E+03  0.19900000000E+03 0.  0.
   -5000001    1    1    2    0    0 -0.12024661259E+03 -0.24421916336E+03 -0.97516881149E+03  0.10318223968E+04  0.19900000000E+03 0.  0.
<mgrwt>
<rscale>  0 0.90738184E+03</rscale>
<asrwt>0</asrwt>
<pdfrwt beam="1">  1        2 0.17178422E+00 0.90738184E+03</pdfrwt>
<pdfrwt beam="2">  1       -2 0.24453489E-01 0.90738184E+03</pdfrwt>
<totfact> 0.31770866E+02</totfact>
</mgrwt>
</event>
<event>
 4    1  0.1869793E-005  0.5165143E+03  0.7818608E-02  0.1009556E+00
          2   -1    0    0  501    0  0.00000000000E+00  0.00000000000E+00  0.13449113776E+04  0.13449113776E+04  0.25500000000E-02 0.  1.
         -2   -1    0    0    0  501 -0.00000000000E+00 -0.00000000000E+00 -0.49591933893E+02  0.49591933959E+02  0.25500000000E-02 0. -1.
    5000001    1    1    2    0    0  0.14287111137E+03 -0.68532273436E+02  0.76800481726E+03  0.80903722183E+03  0.19900000000E+03 0.  0.
   -5000001    1    1    2    0    0 -0.14287111137E+03  0.68532273436E+02  0.52731462646E+03  0.58546608975E+03  0.19900000000E+03 0.  0.
<mgrwt>
<rscale>  0 0.51651430E+03</rscale>
<asrwt>0</asrwt>
<pdfrwt beam="1">  1        2 0.19213017E+00 0.51651430E+03</pdfrwt>
<pdfrwt beam="2">  1       -2 0.70845630E-02 0.51651430E+03</pdfrwt>
<totfact> 0.21392155E+03</totfact>
</mgrwt>
</event>
<event>
 4    1  0.1869793E-005  0.5098385E+03  0.7818608E-02  0.1011242E+00
         -2   -1    0    0    0  501 -0.00000000000E+00  0.00000000000E+00  0.84104704956E+02  0.84104704995E+02  0.25500000000E-02 0. -1.
          2   -1    0    0  501    0  0.00000000000E+00 -0.00000000000E+00 -0.77265389716E+03  0.77265389716E+03  0.25500000000E-02 0.  1.
    5000001    1    1    2    0    0 -0.52068471085E+02  0.10849677910E+03 -0.16882915173E+03  0.28737946905E+03  0.19900000000E+03 0.  0.
   -5000001    1    1    2    0    0  0.52068471085E+02 -0.10849677910E+03 -0.51972004047E+03  0.56937913311E+03  0.19900000000E+03 0.  0.
<mgrwt>
<rscale>  0 0.50983852E+03</rscale>
<asrwt>0</asrwt>
<pdfrwt beam="1">  1        2 0.11037912E+00 0.50983852E+03</pdfrwt>
<pdfrwt beam="2">  1       -2 0.12014958E-01 0.50983852E+03</pdfrwt>
<totfact> 0.20163776E+03</totfact>
</mgrwt>
</event>
<event>
 4    1  0.1869793E-005  0.4948973E+03  0.7818608E-02  0.1015119E+00
          2   -1    0    0  501    0  0.00000000000E+00  0.00000000000E+00  0.16775769893E+04  0.16775769894E+04  0.25500000000E-02 0.  1.
         -2   -1    0    0    0  501 -0.00000000000E+00 -0.00000000000E+00 -0.36499560290E+02  0.36499560379E+02  0.25500000000E-02 0. -1.
    5000001    1    1    2    0    0  0.89242339220E+02 -0.96765350152E+02  0.59336653696E+03  0.63954090978E+03  0.19900000000E+03 0.  0.
   -5000001    1    1    2    0    0 -0.89242339220E+02  0.96765350152E+02  0.10477108921E+04  0.10745356399E+04  0.19900000000E+03 0.  0.
<mgrwt>
<rscale>  0 0.49489725E+03</rscale>
<asrwt>0</asrwt>
<pdfrwt beam="1">  1        2 0.23965390E+00 0.49489725E+03</pdfrwt>
<pdfrwt beam="2">  1       -2 0.52142219E-02 0.49489725E+03</pdfrwt>
<totfact> 0.23223981E+03</totfact>
</mgrwt>
</event>
<event>
 4    1  0.1869793E-005  0.6214497E+03  0.7818608E-02  0.9861878E-01
          2   -1    0    0  501    0  0.00000000000E+00  0.00000000000E+00  0.62148187737E+03  0.62148187737E+03  0.25500000000E-02 0.  1.
         -2   -1    0    0    0  501 -0.00000000000E+00 -0.00000000000E+00 -0.15535438062E+03  0.15535438064E+03  0.25500000000E-02 0. -1.
    5000001    1    1    2    0    0  0.23073860038E+03 -0.20240168941E+02  0.30486176127E+03  0.43149931591E+03  0.19900000000E+03 0.  0.
   -5000001    1    1    2    0    0 -0.23073860038E+03  0.20240168941E+02  0.16126573548E+03  0.34533694210E+03  0.19900000000E+03 0.  0.
<mgrwt>
<rscale>  0 0.62144970E+03</rscale>
<asrwt>0</asrwt>
<pdfrwt beam="1">  1        2 0.88783125E-01 0.62144970E+03</pdfrwt>
<pdfrwt beam="2">  1       -2 0.22193483E-01 0.62144970E+03</pdfrwt>
<totfact> 0.92593903E+02</totfact>
</mgrwt>
</event>
<event>
 4    1  0.1869793E-005  0.4510483E+03  0.7818608E-02  0.1027410E+00
          2   -1    0    0  501    0  0.00000000000E+00  0.00000000000E+00  0.33425929916E+04  0.33425929916E+04  0.25500000000E-02 0.  1.
         -2   -1    0    0    0  501 -0.00000000000E+00 -0.00000000000E+00 -0.15216075997E+02  0.15216076211E+02  0.25500000000E-02 0. -1.
    5000001    1    1    2    0    0 -0.49139023374E+02 -0.68960794590E+02  0.21397795257E+04  0.21506807418E+04  0.19900000000E+03 0.  0.
   -5000001    1    1    2    0    0  0.49139023374E+02  0.68960794590E+02  0.11875973900E+04  0.12071283260E+04  0.19900000000E+03 0.  0.
<mgrwt>
<rscale>  0 0.45104833E+03</rscale>
<asrwt>0</asrwt>
<pdfrwt beam="1">  1        2 0.47751397E+00 0.45104833E+03</pdfrwt>
<pdfrwt beam="2">  1       -2 0.21737220E-02 0.45104833E+03</pdfrwt>
<totfact> 0.12038559E+03</totfact>
</mgrwt>
</event>
<event>
 4    1  0.1869793E-005  0.6818450E+03  0.7818608E-02  0.9748793E-01
         -2   -1    0    0    0  501 -0.00000000000E+00  0.00000000000E+00  0.52755771888E+02  0.52755771950E+02  0.25500000000E-02 0. -1.
          2   -1    0    0  501    0  0.00000000000E+00 -0.00000000000E+00 -0.22031359959E+04  0.22031359959E+04  0.25500000000E-02 0.  1.
    5000001    1    1    2    0    0 -0.18106343110E+03  0.28390837516E+02 -0.38882643418E+03  0.47368449590E+03  0.19900000000E+03 0.  0.
   -5000001    1    1    2    0    0  0.18106343110E+03 -0.28390837516E+02 -0.17615537898E+04  0.17822072719E+04  0.19900000000E+03 0.  0.
<mgrwt>
<rscale>  0 0.68184497E+03</rscale>
<asrwt>0</asrwt>
<pdfrwt beam="1">  1        2 0.31473366E+00 0.68184497E+03</pdfrwt>
<pdfrwt beam="2">  1       -2 0.75365402E-02 0.68184497E+03</pdfrwt>
<totfact> 0.70197774E+02</totfact>
</mgrwt>
</event>
<event>
 4    1  0.1869793E-005  0.9028633E+03  0.7818608E-02  0.9422009E-01
         -2   -1    0    0    0  501 -0.00000000000E+00  0.00000000000E+00  0.19801639530E+03  0.19801639532E+03  0.25500000000E-02 0. -1.
          2   -1    0    0  501    0  0.00000000000E+00 -0.00000000000E+00 -0.10291598887E+04  0.10291598887E+04  0.25500000000E-02 0.  1.
    5000001    1    1    2    0    0  0.26320941927E+03  0.19860938126E+03 -0.73567720703E+03  0.83038956982E+03  0.19900000000E+03 0.  0.
   -5000001    1    1    2    0    0 -0.26320941927E+03 -0.19860938126E+03 -0.95466286340E+02  0.39678671417E+03  0.19900000000E+03 0.  0.
<mgrwt>
<rscale>  0 0.90286329E+03</rscale>
<asrwt>0</asrwt>
<pdfrwt beam="1">  1        2 0.14702284E+00 0.90286329E+03</pdfrwt>
<pdfrwt beam="2">  1       -2 0.28288057E-01 0.90286329E+03</pdfrwt>
<totfact> 0.30799910E+02</totfact>
</mgrwt>
</event>
<event>
 4    1  0.1869793E-005  0.5406279E+03  0.7818608E-02  0.1003687E+00
         -2   -1    0    0    0  501 -0.00000000000E+00  0.00000000000E+00  0.11587320536E+04  0.11587320536E+04  0.25500000000E-02 0. -1.
          2   -1    0    0  501    0  0.00000000000E+00 -0.00000000000E+00 -0.63059999077E+02  0.63059999128E+02  0.25500000000E-02 0.  1.
    5000001    1    1    2    0    0 -0.82884638751E+02 -0.15139990960E+03  0.41079943597E+03  0.48800509481E+03  0.19900000000E+03 0.  0.
   -5000001    1    1    2    0    0  0.82884638751E+02  0.15139990960E+03  0.68487261853E+03  0.73378695790E+03  0.19900000000E+03 0.  0.
<mgrwt>
<rscale>  0 0.54062794E+03</rscale>
<asrwt>0</asrwt>
<pdfrwt beam="1">  1        2 0.90085723E-02 0.54062794E+03</pdfrwt>
<pdfrwt beam="2">  1       -2 0.16553313E+00 0.54062794E+03</pdfrwt>
<totfact> 0.17777798E+02</totfact>
</mgrwt>
</event>
<event>
 4    1  0.1869793E-005  0.5998743E+03  0.7818608E-02  0.9905667E-01
          2   -1    0    0  501    0  0.00000000000E+00  0.00000000000E+00  0.66232447905E+03  0.66232447905E+03  0.25500000000E-02 0.  1.
         -2   -1    0    0    0  501 -0.00000000000E+00 -0.00000000000E+00 -0.13582811059E+03  0.13582811062E+03  0.25500000000E-02 0. -1.
    5000001    1    1    2    0    0 -0.18908361650E+03  0.10218761329E+03  0.17736579685E+03  0.34242451465E+03  0.19900000000E+03 0.  0.
   -5000001    1    1    2    0    0  0.18908361650E+03 -0.10218761329E+03  0.34913057160E+03  0.45572807502E+03  0.19900000000E+03 0.  0.
<mgrwt>
<rscale>  0 0.59987426E+03</rscale>
<asrwt>0</asrwt>
<pdfrwt beam="1">  1        2 0.94617784E-01 0.59987426E+03</pdfrwt>
<pdfrwt beam="2">  1       -2 0.19404015E-01 0.59987426E+03</pdfrwt>
<totfact> 0.10859208E+03</totfact>
</mgrwt>
</event>
<event>
 4    1  0.1869793E-005  0.4820079E+03  0.7818608E-02  0.1018585E+00
         -2   -1    0    0    0  501 -0.00000000000E+00  0.00000000000E+00  0.51807352769E+02  0.51807352832E+02  0.25500000000E-02 0. -1.
          2   -1    0    0  501    0  0.00000000000E+00 -0.00000000000E+00 -0.11211322658E+04  0.11211322658E+04  0.25500000000E-02 0.  1.
    5000001    1    1    2    0    0  0.70430834901E+02 -0.64098860241E+02 -0.77075338401E+03  0.80170502391E+03  0.19900000000E+03 0.  0.
   -5000001    1    1    2    0    0 -0.70430834901E+02  0.64098860241E+02 -0.29857152906E+03  0.37123459477E+03  0.19900000000E+03 0.  0.
<mgrwt>
<rscale>  0 0.48200786E+03</rscale>
<asrwt>0</asrwt>
<pdfrwt beam="1">  1        2 0.16016174E+00 0.48200786E+03</pdfrwt>
<pdfrwt beam="2">  1       -2 0.74010511E-02 0.48200786E+03</pdfrwt>
<totfact> 0.26539834E+03</totfact>
</mgrwt>
</event>
<event>
 4    1  0.1869793E-005  0.4197757E+03  0.7818608E-02  0.1037139E+00
         -2   -1    0    0    0  501 -0.00000000000E+00  0.00000000000E+00  0.33222570588E+02  0.33222570686E+02  0.25500000000E-02 0. -1.
          2   -1    0    0  501    0  0.00000000000E+00 -0.00000000000E+00 -0.13259933753E+04  0.13259933753E+04  0.25500000000E-02 0.  1.
    5000001    1    1    2    0    0 -0.29461480187E+00 -0.51486517421E+02 -0.78379695334E+03  0.81030217347E+03  0.19900000000E+03 0.  0.
   -5000001    1    1    2    0    0  0.29461480187E+00  0.51486517421E+02 -0.50897385136E+03  0.54891377250E+03  0.19900000000E+03 0.  0.
<mgrwt>
<rscale>  0 0.41977570E+03</rscale>
<asrwt>0</asrwt>
<pdfrwt beam="1">  1        2 0.18942759E+00 0.41977570E+03</pdfrwt>
<pdfrwt beam="2">  1       -2 0.47460823E-02 0.41977570E+03</pdfrwt>
<totfact> 0.40827660E+03</totfact>
</mgrwt>
</event>
<event>
 4    1  0.1869793E-005  0.6929561E+03  0.7818608E-02  0.9729355E-01
          2   -1    0    0  501    0  0.00000000000E+00  0.00000000000E+00  0.28981572872E+04  0.28981572872E+04  0.25500000000E-02 0.  1.
         -2   -1    0    0    0  501 -0.00000000000E+00 -0.00000000000E+00 -0.41421848729E+02  0.41421848808E+02  0.25500000000E-02 0. -1.
    5000001    1    1    2    0    0 -0.23370974184E+03 -0.14724465916E+03  0.17014737078E+04  0.17351988392E+04  0.19900000000E+03 0.  0.
   -5000001    1    1    2    0    0  0.23370974184E+03  0.14724465916E+03  0.11552617306E+04  0.12043802968E+04  0.19900000000E+03 0.  0.
<mgrwt>
<rscale>  0 0.69295608E+03</rscale>
<asrwt>0</asrwt>
<pdfrwt beam="1">  1        2 0.41402239E+00 0.69295608E+03</pdfrwt>
<pdfrwt beam="2">  1       -2 0.59174081E-02 0.69295608E+03</pdfrwt>
<totfact> 0.44780667E+02</totfact>
</mgrwt>
</event>
<event>
 4    1  0.1869793E-005  0.4999028E+03  0.7818608E-02  0.1013804E+00
          2   -1    0    0  501    0  0.00000000000E+00  0.00000000000E+00  0.11881037235E+04  0.11881037235E+04  0.25500000000E-02 0.  1.
         -2   -1    0    0    0  501 -0.00000000000E+00 -0.00000000000E+00 -0.52584374700E+02  0.52584374762E+02  0.25500000000E-02 0. -1.
    5000001    1    1    2    0    0 -0.35056824538E+02 -0.11035956325E+03  0.32628517013E+03  0.39933848599E+03  0.19900000000E+03 0.  0.
   -5000001    1    1    2    0    0  0.35056824538E+02  0.11035956325E+03  0.80923417871E+03  0.84134961231E+03  0.19900000000E+03 0.  0.
<mgrwt>
<rscale>  0 0.49990276E+03</rscale>
<asrwt>0</asrwt>
<pdfrwt beam="1">  1        2 0.16972909E+00 0.49990276E+03</pdfrwt>
<pdfrwt beam="2">  1       -2 0.75120543E-02 0.49990276E+03</pdfrwt>
<totfact> 0.23757369E+03</totfact>
</mgrwt>
</event>
<event>
 4    1  0.1869793E-005  0.5866871E+03  0.7818608E-02  0.9933418E-01
         -2   -1    0    0    0  501 -0.00000000000E+00  0.00000000000E+00  0.33669616801E+03  0.33669616802E+03  0.25500000000E-02 0. -1.
          2   -1    0    0  501    0  0.00000000000E+00 -0.00000000000E+00 -0.25557296939E+03  0.25557296941E+03  0.25500000000E-02 0.  1.
    5000001    1    1    2    0    0  0.46688172837E+02  0.19977283723E+03 -0.26100515329E+02  0.28700384820E+03  0.19900000000E+03 0.  0.
   -5000001    1    1    2    0    0 -0.46688172837E+02 -0.19977283723E+03  0.10722371395E+03  0.30526528924E+03  0.19900000000E+03 0.  0.
<mgrwt>
<rscale>  0 0.58668710E+03</rscale>
<asrwt>0</asrwt>
<pdfrwt beam="1">  1        2 0.36510424E-01 0.58668710E+03</pdfrwt>
<pdfrwt beam="2">  1       -2 0.48099453E-01 0.58668710E+03</pdfrwt>
<totfact> 0.58822614E+02</totfact>
</mgrwt>
</event>
<event>
 4    1  0.1869793E-005  0.5280372E+03  0.7818608E-02  0.1006709E+00
          2   -1    0    0  501    0  0.00000000000E+00  0.00000000000E+00  0.32333586051E+04  0.32333586051E+04  0.25500000000E-02 0.  1.
         -2   -1    0    0    0  501 -0.00000000000E+00 -0.00000000000E+00 -0.21558333144E+02  0.21558333295E+02  0.25500000000E-02 0. -1.
    5000001    1    1    2    0    0  0.92063242962E+01 -0.13657868194E+03  0.94871836615E+03  0.97898214031E+03  0.19900000000E+03 0.  0.
   -5000001    1    1    2    0    0 -0.92063242962E+01  0.13657868194E+03  0.22630819058E+04  0.22759347981E+04  0.19900000000E+03 0.  0.
<mgrwt>
<rscale>  0 0.52803720E+03</rscale>
<asrwt>0</asrwt>
<pdfrwt beam="1">  1        2 0.46190810E+00 0.52803720E+03</pdfrwt>
<pdfrwt beam="2">  1       -2 0.30797637E-02 0.52803720E+03</pdfrwt>
<totfact> 0.81470852E+02</totfact>
</mgrwt>
</event>
<event>
 4    1  0.1869793E-005  0.1057529E+04  0.7818608E-02  0.9247605E-01
         -2   -1    0    0    0  501 -0.00000000000E+00  0.00000000000E+00  0.10302143452E+04  0.10302143452E+04  0.25500000000E-02 0. -1.
          2   -1    0    0  501    0  0.00000000000E+00 -0.00000000000E+00 -0.27139209234E+03  0.27139209235E+03  0.25500000000E-02 0.  1.
    5000001    1    1    2    0    0  0.22977146312E+03  0.43105330503E+03  0.42528462057E+03  0.67754696187E+03  0.19900000000E+03 0.  0.
   -5000001    1    1    2    0    0 -0.22977146312E+03 -0.43105330503E+03  0.33353763229E+03  0.62405947569E+03  0.19900000000E+03 0.  0.
<mgrwt>
<rscale>  0 0.10575292E+04</rscale>
<asrwt>0</asrwt>
<pdfrwt beam="1">  1        2 0.38770299E-01 0.10575292E+04</pdfrwt>
<pdfrwt beam="2">  1       -2 0.14717348E+00 0.10575292E+04</pdfrwt>
<totfact> 0.41819731E+01</totfact>
</mgrwt>
</event>
<event>
 4    1  0.1869793E-005  0.7726664E+03  0.7818608E-02  0.9600446E-01
          2   -1    0    0  501    0  0.00000000000E+00  0.00000000000E+00  0.14432124504E+04  0.14432124504E+04  0.25500000000E-02 0.  1.
         -2   -1    0    0    0  501 -0.00000000000E+00 -0.00000000000E+00 -0.10341745097E+03  0.10341745100E+03  0.25500000000E-02 0. -1.
    5000001    1    1    2    0    0 -0.65615100476E+02  0.19148765858E+03  0.14532214471E+03  0.31889244354E+03  0.19900000000E+03 0.  0.
   -5000001    1    1    2    0    0  0.65615100476E+02 -0.19148765858E+03  0.11944728547E+04  0.12277374579E+04  0.19900000000E+03 0.  0.
<mgrwt>
<rscale>  0 0.77266643E+03</rscale>
<asrwt>0</asrwt>
<pdfrwt beam="1">  1        2 0.20617321E+00 0.77266643E+03</pdfrwt>
<pdfrwt beam="2">  1       -2 0.14773921E-01 0.77266643E+03</pdfrwt>
<totfact> 0.56794806E+02</totfact>
</mgrwt>
</event>
<event>
 4    1  0.1869793E-005  0.6538836E+03  0.7818608E-02  0.9799519E-01
          2   -1    0    0  501    0  0.00000000000E+00  0.00000000000E+00  0.15819311434E+04  0.15819311434E+04  0.25500000000E-02 0.  1.
         -2   -1    0    0    0  501 -0.00000000000E+00 -0.00000000000E+00 -0.67569906657E+02  0.67569906705E+02  0.25500000000E-02 0. -1.
    5000001    1    1    2    0    0 -0.18441898513E+03  0.17401604824E+03  0.89530407314E+03  0.95155784402E+03  0.19900000000E+03 0.  0.
   -5000001    1    1    2    0    0  0.18441898513E+03 -0.17401604824E+03  0.61905716357E+03  0.69794320606E+03  0.19900000000E+03 0.  0.
<mgrwt>
<rscale>  0 0.65388360E+03</rscale>
<asrwt>0</asrwt>
<pdfrwt beam="1">  1        2 0.22599018E+00 0.65388360E+03</pdfrwt>
<pdfrwt beam="2">  1       -2 0.96528433E-02 0.65388360E+03</pdfrwt>
<totfact> 0.97603783E+02</totfact>
</mgrwt>
</event>
<event>
 4    1  0.1869793E-005  0.5254104E+03  0.7818608E-02  0.1007351E+00
          2   -1    0    0  501    0  0.00000000000E+00  0.00000000000E+00  0.48845597247E+03  0.48845597248E+03  0.25500000000E-02 0.  1.
         -2   -1    0    0    0  501 -0.00000000000E+00 -0.00000000000E+00 -0.14129014945E+03  0.14129014948E+03  0.25500000000E-02 0. -1.
    5000001    1    1    2    0    0  0.66382661193E+02  0.15063197610E+03  0.11589689144E+03  0.28307196854E+03  0.19900000000E+03 0.  0.
   -5000001    1    1    2    0    0 -0.66382661193E+02 -0.15063197610E+03  0.23126893158E+03  0.34667415341E+03  0.19900000000E+03 0.  0.
<mgrwt>
<rscale>  0 0.52541038E+03</rscale>
<asrwt>0</asrwt>
<pdfrwt beam="1">  1        2 0.69779426E-01 0.52541038E+03</pdfrwt>
<pdfrwt beam="2">  1       -2 0.20184307E-01 0.52541038E+03</pdfrwt>
<totfact> 0.14456748E+03</totfact>
</mgrwt>
</event>
<event>
 4    1  0.1869793E-005  0.4908149E+03  0.7818608E-02  0.1016205E+00
         -2   -1    0    0    0  501 -0.00000000000E+00  0.00000000000E+00  0.65558027967E+02  0.65558028017E+02  0.25500000000E-02 0. -1.
          2   -1    0    0  501    0  0.00000000000E+00 -0.00000000000E+00 -0.91864883812E+03  0.91864883812E+03  0.25500000000E-02 0.  1.
    5000001    1    1    2    0    0  0.94277178302E+02  0.10808703949E+03 -0.41197290247E+03  0.47947227952E+03  0.19900000000E+03 0.  0.
   -5000001    1    1    2    0    0 -0.94277178302E+02 -0.10808703949E+03 -0.44111790768E+03  0.50473458662E+03  0.19900000000E+03 0.  0.
<mgrwt>
<rscale>  0 0.49081486E+03</rscale>
<asrwt>0</asrwt>
<pdfrwt beam="1">  1        2 0.13123554E+00 0.49081486E+03</pdfrwt>
<pdfrwt beam="2">  1       -2 0.93654331E-02 0.49081486E+03</pdfrwt>
<totfact> 0.24140081E+03</totfact>
</mgrwt>
</event>
<event>
 4    1  0.1869793E-005  0.5665958E+03  0.7818608E-02  0.9977240E-01
         -2   -1    0    0    0  501 -0.00000000000E+00  0.00000000000E+00  0.89721869317E+02  0.89721869353E+02  0.25500000000E-02 0. -1.
          2   -1    0    0  501    0  0.00000000000E+00 -0.00000000000E+00 -0.89451655961E+03  0.89451655962E+03  0.25500000000E-02 0.  1.
    5000001    1    1    2    0    0  0.17167922166E+03 -0.95079192157E+02 -0.48281046412E+03  0.55787162699E+03  0.19900000000E+03 0.  0.
   -5000001    1    1    2    0    0 -0.17167922166E+03  0.95079192157E+02 -0.32198422618E+03  0.42636680199E+03  0.19900000000E+03 0.  0.
<mgrwt>
<rscale>  0 0.56659579E+03</rscale>
<asrwt>0</asrwt>
<pdfrwt beam="1">  1        2 0.12778808E+00 0.56659579E+03</pdfrwt>
<pdfrwt beam="2">  1       -2 0.12817410E-01 0.56659579E+03</pdfrwt>
<totfact> 0.14997713E+03</totfact>
</mgrwt>
</event>
<event>
 4    1  0.1869793E-005  0.5653773E+03  0.7818608E-02  0.9979961E-01
         -2   -1    0    0    0  501 -0.00000000000E+00  0.00000000000E+00  0.12112504012E+04  0.12112504012E+04  0.25500000000E-02 0. -1.
          2   -1    0    0  501    0  0.00000000000E+00 -0.00000000000E+00 -0.65975515383E+02  0.65975515433E+02  0.25500000000E-02 0.  1.
    5000001    1    1    2    0    0 -0.15274355565E+03  0.29597301949E+02  0.28594685040E+03  0.38154055529E+03  0.19900000000E+03 0.  0.
   -5000001    1    1    2    0    0  0.15274355565E+03 -0.29597301949E+02  0.85932803541E+03  0.89568536134E+03  0.19900000000E+03 0.  0.
<mgrwt>
<rscale>  0 0.56537729E+03</rscale>
<asrwt>0</asrwt>
<pdfrwt beam="1">  1        2 0.94250736E-02 0.56537729E+03</pdfrwt>
<pdfrwt beam="2">  1       -2 0.17303577E+00 0.56537729E+03</pdfrwt>
<totfact> 0.14843594E+02</totfact>
</mgrwt>
</event>
<event>
 4    1  0.1869793E-005  0.5388268E+03  0.7818608E-02  0.1004114E+00
          2   -1    0    0  501    0  0.00000000000E+00  0.00000000000E+00  0.15075801414E+04  0.15075801414E+04  0.25500000000E-02 0.  1.
         -2   -1    0    0    0  501 -0.00000000000E+00 -0.00000000000E+00 -0.48145756284E+02  0.48145756351E+02  0.25500000000E-02 0. -1.
    5000001    1    1    2    0    0  0.15976524736E+03 -0.67071996042E+02  0.57266055366E+03  0.63052731632E+03  0.19900000000E+03 0.  0.
   -5000001    1    1    2    0    0 -0.15976524736E+03  0.67071996042E+02  0.88677383144E+03  0.92519858141E+03  0.19900000000E+03 0.  0.
<mgrwt>
<rscale>  0 0.53882682E+03</rscale>
<asrwt>0</asrwt>
<pdfrwt beam="1">  1        2 0.21536861E+00 0.53882682E+03</pdfrwt>
<pdfrwt beam="2">  1       -2 0.68779644E-02 0.53882682E+03</pdfrwt>
<totfact> 0.18395772E+03</totfact>
</mgrwt>
</event>
<event>
 4    1  0.1869793E-005  0.5401749E+03  0.7818608E-02  0.1003794E+00
          2   -1    0    0  501    0  0.00000000000E+00  0.00000000000E+00  0.16121892434E+04  0.16121892434E+04  0.25500000000E-02 0. -1.
         -2   -1    0    0    0  501 -0.00000000000E+00 -0.00000000000E+00 -0.45247312665E+02  0.45247312737E+02  0.25500000000E-02 0.  1.
    5000001    1    1    2    0    0  0.13766167551E+03  0.11985328578E+03  0.76647455493E+03  0.81264985717E+03  0.19900000000E+03 0.  0.
   -5000001    1    1    2    0    0 -0.13766167551E+03 -0.11985328578E+03  0.80046737585E+03  0.84478669901E+03  0.19900000000E+03 0.  0.
<mgrwt>
<rscale>  0 0.54017490E+03</rscale>
<asrwt>0</asrwt>
<pdfrwt beam="1">  1        2 0.23031274E+00 0.54017490E+03</pdfrwt>
<pdfrwt beam="2">  1       -2 0.64639022E-02 0.54017490E+03</pdfrwt>
<totfact> 0.17916262E+03</totfact>
</mgrwt>
</event>
<event>
 4    1  0.1869793E-005  0.7135156E+03  0.7818608E-02  0.9694394E-01
         -2   -1    0    0    0  501 -0.00000000000E+00  0.00000000000E+00  0.12022029878E+04  0.12022029878E+04  0.25500000000E-02 0. -1.
          2   -1    0    0  501    0  0.00000000000E+00 -0.00000000000E+00 -0.10586909779E+03  0.10586909782E+03  0.25500000000E-02 0.  1.
    5000001    1    1    2    0    0 -0.14880035488E+02 -0.22817697477E+03  0.20329147100E+03  0.36498571130E+03  0.19900000000E+03 0.  0.
   -5000001    1    1    2    0    0  0.14880035488E+02  0.22817697477E+03  0.89304241900E+03  0.94308637431E+03  0.19900000000E+03 0.  0.
<mgrwt>
<rscale>  0 0.71351565E+03</rscale>
<asrwt>0</asrwt>
<pdfrwt beam="1">  1        2 0.15124156E-01 0.71351565E+03</pdfrwt>
<pdfrwt beam="2">  1       -2 0.17174329E+00 0.71351565E+03</pdfrwt>
<totfact> 0.83492641E+01</totfact>
</mgrwt>
</event>
<event>
 4    1  0.1869793E-005  0.1109808E+04  0.7818608E-02  0.9195685E-01
          2   -1    0    0  501    0  0.00000000000E+00  0.00000000000E+00  0.15878387653E+04  0.15878387653E+04  0.25500000000E-02 0.  1.
         -2   -1    0    0    0  501 -0.00000000000E+00 -0.00000000000E+00 -0.19392306459E+03  0.19392306461E+03  0.25500000000E-02 0. -1.
    5000001    1    1    2    0    0 -0.47633867903E+03 -0.16172966524E+02  0.10226640245E+04  0.11456887924E+04  0.19900000000E+03 0.  0.
   -5000001    1    1    2    0    0  0.47633867903E+03  0.16172966524E+02  0.37125167619E+03  0.63607303752E+03  0.19900000000E+03 0.  0.
<mgrwt>
<rscale>  0 0.11098082E+04</rscale>
<asrwt>0</asrwt>
<pdfrwt beam="1">  1        2 0.22683409E+00 0.11098082E+04</pdfrwt>
<pdfrwt beam="2">  1       -2 0.27703297E-01 0.11098082E+04</pdfrwt>
<totfact> 0.15469155E+02</totfact>
</mgrwt>
</event>
<event>
 4    1  0.1869793E-005  0.9040093E+03  0.7818608E-02  0.9420583E-01
         -2   -1    0    0    0  501 -0.00000000000E+00  0.00000000000E+00  0.33212196652E+03  0.33212196653E+03  0.25500000000E-02 0. -1.
          2   -1    0    0  501    0  0.00000000000E+00 -0.00000000000E+00 -0.61516022172E+03  0.61516022173E+03  0.25500000000E-02 0.  1.
    5000001    1    1    2    0    0  0.28117329247E+03 -0.81079827016E+02 -0.43618217720E+03  0.56168340767E+03  0.19900000000E+03 0.  0.
   -5000001    1    1    2    0    0 -0.28117329247E+03  0.81079827016E+02  0.15314392200E+03  0.38559878059E+03  0.19900000000E+03 0.  0.
<mgrwt>
<rscale>  0 0.90400934E+03</rscale>
<asrwt>0</asrwt>
<pdfrwt beam="1">  1        2 0.87880031E-01 0.90400934E+03</pdfrwt>
<pdfrwt beam="2">  1       -2 0.47445996E-01 0.90400934E+03</pdfrwt>
<totfact> 0.22224624E+02</totfact>
</mgrwt>
</event>
<event>
 4    1  0.1869793E-005  0.8432299E+03  0.7818608E-02  0.9499469E-01
         -2   -1    0    0    0  501 -0.00000000000E+00  0.00000000000E+00  0.26908795686E+03  0.26908795687E+03  0.25500000000E-02 0. -1.
          2   -1    0    0  501    0  0.00000000000E+00 -0.00000000000E+00 -0.66059876050E+03  0.66059876050E+03  0.25500000000E-02 0.  1.
    5000001    1    1    2    0    0 -0.27088259857E+03 -0.16529101321E+02  0.84269071229E+02  0.34691911127E+03  0.19900000000E+03 0.  0.
   -5000001    1    1    2    0    0  0.27088259857E+03  0.16529101321E+02 -0.47577987487E+03  0.58276760611E+03  0.19900000000E+03 0.  0.
<mgrwt>
<rscale>  0 0.84322991E+03</rscale>
<asrwt>0</asrwt>
<pdfrwt beam="1">  1        2 0.94371251E-01 0.84322991E+03</pdfrwt>
<pdfrwt beam="2">  1       -2 0.38441137E-01 0.84322991E+03</pdfrwt>
<totfact> 0.30988565E+02</totfact>
</mgrwt>
</event>
<event>
 4    1  0.1869793E-005  0.6154931E+03  0.7818608E-02  0.9873774E-01
          2   -1    0    0  501    0  0.00000000000E+00  0.00000000000E+00  0.12672784855E+04  0.12672784855E+04  0.25500000000E-02 0.  1.
         -2   -1    0    0    0  501 -0.00000000000E+00 -0.00000000000E+00 -0.74733321181E+02  0.74733321225E+02  0.25500000000E-02 0. -1.
    5000001    1    1    2    0    0  0.17572553247E+03  0.15154264883E+03  0.67373895924E+03  0.73984445823E+03  0.19900000000E+03 0.  0.
   -5000001    1    1    2    0    0 -0.17572553247E+03 -0.15154264883E+03  0.51880620512E+03  0.60216734854E+03  0.19900000000E+03 0.  0.
<mgrwt>
<rscale>  0 0.61549307E+03</rscale>
<asrwt>0</asrwt>
<pdfrwt beam="1">  1        2 0.18103976E+00 0.61549307E+03</pdfrwt>
<pdfrwt beam="2">  1       -2 0.10676190E-01 0.61549307E+03</pdfrwt>
<totfact> 0.12188732E+03</totfact>
</mgrwt>
</event>
<event>
 4    1  0.1869793E-005  0.7202980E+03  0.7818608E-02  0.9683136E-01
          2   -1    0    0  501    0  0.00000000000E+00  0.00000000000E+00  0.24182546428E+03  0.24182546429E+03  0.25500000000E-02 0.  1.
         -2   -1    0    0    0  501 -0.00000000000E+00 -0.00000000000E+00 -0.53636737380E+03  0.53636737381E+03  0.25500000000E-02 0. -1.
    5000001    1    1    2    0    0 -0.26475045851E+03 -0.86747250173E+02 -0.26800462878E+03  0.43479348171E+03  0.19900000000E+03 0.  0.
   -5000001    1    1    2    0    0  0.26475045851E+03  0.86747250173E+02 -0.26537280746E+02  0.34339935638E+03  0.19900000000E+03 0.  0.
<mgrwt>
<rscale>  0 0.72029796E+03</rscale>
<asrwt>0</asrwt>
<pdfrwt beam="1">  1        2 0.34546495E-01 0.72029796E+03</pdfrwt>
<pdfrwt beam="2">  1       -2 0.76623910E-01 0.72029796E+03</pdfrwt>
<totfact> 0.23319217E+02</totfact>
</mgrwt>
</event>
<event>
 4    1  0.1869793E-005  0.6113710E+03  0.7818608E-02  0.9882092E-01
          2   -1    0    0  501    0  0.00000000000E+00  0.00000000000E+00  0.15454787889E+04  0.15454787889E+04  0.25500000000E-02 0.  1.
         -2   -1    0    0    0  501 -0.00000000000E+00 -0.00000000000E+00 -0.60462573537E+02  0.60462573591E+02  0.25500000000E-02 0. -1.
    5000001    1    1    2    0    0  0.15291054060E+02  0.18503360769E+03  0.37690906711E+03  0.46490073907E+03  0.19900000000E+03 0.  0.
   -5000001    1    1    2    0    0 -0.15291054060E+02 -0.18503360769E+03  0.11081071482E+04  0.11410406234E+04  0.19900000000E+03 0.  0.
<mgrwt>
<rscale>  0 0.61137100E+03</rscale>
<asrwt>0</asrwt>
<pdfrwt beam="1">  1        2 0.22078263E+00 0.61137100E+03</pdfrwt>
<pdfrwt beam="2">  1       -2 0.86375125E-02 0.61137100E+03</pdfrwt>
<totfact> 0.12214078E+03</totfact>
</mgrwt>
</event>
<event>
 4    1  0.1869793E-005  0.9475114E+03  0.7818608E-02  0.9368064E-01
          2   -1    0    0  501    0  0.00000000000E+00  0.00000000000E+00  0.30826271893E+04  0.30826271893E+04  0.25500000000E-02 0.  1.
         -2   -1    0    0    0  501 -0.00000000000E+00 -0.00000000000E+00 -0.72809469924E+02  0.72809469968E+02  0.25500000000E-02 0. -1.
    5000001    1    1    2    0    0 -0.25257198782E+02  0.41907120704E+03  0.11963476238E+04  0.12833967584E+04  0.19900000000E+03 0.  0.
   -5000001    1    1    2    0    0  0.25257198782E+02 -0.41907120704E+03  0.18134700956E+04  0.18720399008E+04  0.19900000000E+03 0.  0.
<mgrwt>
<rscale>  0 0.94751138E+03</rscale>
<asrwt>0</asrwt>
<pdfrwt beam="1">  1        2 0.44037519E+00 0.94751138E+03</pdfrwt>
<pdfrwt beam="2">  1       -2 0.10401356E-01 0.94751138E+03</pdfrwt>
<totfact> 0.14030663E+02</totfact>
</mgrwt>
</event>
<event>
 4    1  0.1869793E-005  0.1146851E+04  0.7818608E-02  0.9160693E-01
          2   -1    0    0  501    0  0.00000000000E+00  0.00000000000E+00  0.68793040135E+03  0.68793040136E+03  0.25500000000E-02 0.  1.
         -2   -1    0    0    0  501 -0.00000000000E+00 -0.00000000000E+00 -0.47798014596E+03  0.47798014597E+03  0.25500000000E-02 0. -1.
    5000001    1    1    2    0    0  0.40312902628E+03  0.13810842300E+03  0.43849595618E+03  0.64301372607E+03  0.19900000000E+03 0.  0.
   -5000001    1    1    2    0    0 -0.40312902628E+03 -0.13810842300E+03 -0.22854570078E+03  0.52289682125E+03  0.19900000000E+03 0.  0.
<mgrwt>
<rscale>  0 0.11468515E+04</rscale>
<asrwt>0</asrwt>
<pdfrwt beam="1">  1        2 0.98275772E-01 0.11468515E+04</pdfrwt>
<pdfrwt beam="2">  1       -2 0.68282878E-01 0.11468515E+04</pdfrwt>
<totfact> 0.89439389E+01</totfact>
</mgrwt>
</event>
<event>
 4    1  0.1869793E-005  0.1108041E+04  0.7818608E-02  0.9197390E-01
          2   -1    0    0  501    0  0.00000000000E+00  0.00000000000E+00  0.12744977499E+04  0.12744977499E+04  0.25500000000E-02 0.  1.
         -2   -1    0    0    0  501 -0.00000000000E+00 -0.00000000000E+00 -0.24083105477E+03  0.24083105479E+03  0.25500000000E-02 0. -1.
    5000001    1    1    2    0    0 -0.37539844534E+03  0.10372394550E+03  0.51747326540E+02  0.44041053057E+03  0.19900000000E+03 0.  0.
   -5000001    1    1    2    0    0  0.37539844534E+03 -0.10372394550E+03  0.98191936855E+03  0.10749182741E+04  0.19900000000E+03 0.  0.
<mgrwt>
<rscale>  0 0.11080409E+04</rscale>
<asrwt>0</asrwt>
<pdfrwt beam="1">  1        2 0.18207111E+00 0.11080409E+04</pdfrwt>
<pdfrwt beam="2">  1       -2 0.34404437E-01 0.11080409E+04</pdfrwt>
<totfact> 0.15213746E+02</totfact>
</mgrwt>
</event>
<event>
 4    1  0.1869793E-005  0.5157192E+03  0.7818608E-02  0.1009756E+00
         -2   -1    0    0    0  501 -0.00000000000E+00  0.00000000000E+00  0.52868683968E+02  0.52868684029E+02  0.25500000000E-02 0. -1.
          2   -1    0    0  501    0  0.00000000000E+00 -0.00000000000E+00 -0.12576739797E+04  0.12576739797E+04  0.25500000000E-02 0.  1.
    5000001    1    1    2    0    0 -0.13188000054E+03 -0.84390388680E+02 -0.47852115771E+03  0.54138486368E+03  0.19900000000E+03 0.  0.
   -5000001    1    1    2    0    0  0.13188000054E+03  0.84390388680E+02 -0.72628413807E+03  0.76915780010E+03  0.19900000000E+03 0.  0.
<mgrwt>
<rscale>  0 0.51571918E+03</rscale>
<asrwt>0</asrwt>
<pdfrwt beam="1">  1        2 0.17966769E+00 0.51571918E+03</pdfrwt>
<pdfrwt beam="2">  1       -2 0.75526699E-02 0.51571918E+03</pdfrwt>
<totfact> 0.21555174E+03</totfact>
</mgrwt>
</event>
<event>
 4    1  0.1869793E-005  0.4929848E+03  0.7818608E-02  0.1015626E+00
         -2   -1    0    0    0  501 -0.00000000000E+00  0.00000000000E+00  0.97637565025E+03  0.97637565025E+03  0.25500000000E-02 0. -1.
          2   -1    0    0  501    0  0.00000000000E+00 -0.00000000000E+00 -0.62228624989E+02  0.62228625041E+02  0.25500000000E-02 0.  1.
    5000001    1    1    2    0    0  0.12480778322E+03 -0.67690800150E+02  0.52364492232E+03  0.57789621200E+03  0.19900000000E+03 0.  0.
   -5000001    1    1    2    0    0 -0.12480778322E+03  0.67690800150E+02  0.39050210294E+03  0.46070806329E+03  0.19900000000E+03 0.  0.
<mgrwt>
<rscale>  0 0.49298484E+03</rscale>
<asrwt>0</asrwt>
<pdfrwt beam="1">  1        2 0.88898037E-02 0.49298484E+03</pdfrwt>
<pdfrwt beam="2">  1       -2 0.13948223E+00 0.49298484E+03</pdfrwt>
<totfact> 0.28447329E+02</totfact>
</mgrwt>
</event>
<event>
 4    1  0.1869793E-005  0.4882218E+03  0.7818608E-02  0.1016900E+00
         -2   -1    0    0    0  501 -0.00000000000E+00  0.00000000000E+00  0.89596438430E+02  0.89596438467E+02  0.25500000000E-02 0.  1.
          2   -1    0    0  501    0  0.00000000000E+00 -0.00000000000E+00 -0.66509477517E+03  0.66509477518E+03  0.25500000000E-02 0. -1.
    5000001    1    1    2    0    0 -0.93979617949E+02  0.83885665673E+02 -0.18852701473E+03  0.30168262923E+03  0.19900000000E+03 0.  0.
   -5000001    1    1    2    0    0  0.93979617949E+02 -0.83885665673E+02 -0.38697132201E+03  0.45300858442E+03  0.19900000000E+03 0.  0.
<mgrwt>
<rscale>  0 0.48822177E+03</rscale>
<asrwt>0</asrwt>
<pdfrwt beam="1">  1        2 0.95013536E-01 0.48822177E+03</pdfrwt>
<pdfrwt beam="2">  1       -2 0.12799492E-01 0.48822177E+03</pdfrwt>
<totfact> 0.21832420E+03</totfact>
</mgrwt>
</event>
<event>
 4    1  0.1869793E-005  0.8820543E+03  0.7818608E-02  0.9448297E-01
         -2   -1    0    0    0  501 -0.00000000000E+00  0.00000000000E+00  0.22281832912E+03  0.22281832914E+03  0.25500000000E-02 0.  1.
          2   -1    0    0  501    0  0.00000000000E+00 -0.00000000000E+00 -0.87293058394E+03  0.87293058395E+03  0.25500000000E-02 0. -1.
    5000001    1    1    2    0    0 -0.34525078967E+03 -0.15690200047E+03 -0.19424813091E+03  0.47026554401E+03  0.19900000000E+03 0.  0.
   -5000001    1    1    2    0    0  0.34525078967E+03  0.15690200047E+03 -0.45586412391E+03  0.62548336908E+03  0.19900000000E+03 0.  0.
<mgrwt>
<rscale>  0 0.88205427E+03</rscale>
<asrwt>0</asrwt>
<pdfrwt beam="1">  1        2 0.12470437E+00 0.88205427E+03</pdfrwt>
<pdfrwt beam="2">  1       -2 0.31831190E-01 0.88205427E+03</pdfrwt>
<totfact> 0.31105443E+02</totfact>
</mgrwt>
</event>
<event>
 4    1  0.1869793E-005  0.6489553E+03  0.7818608E-02  0.9808741E-01
          2   -1    0    0  501    0  0.00000000000E+00  0.00000000000E+00  0.43903108290E+03  0.43903108291E+03  0.25500000000E-02 0.  1.
         -2   -1    0    0    0  501 -0.00000000000E+00 -0.00000000000E+00 -0.23981390485E+03  0.23981390487E+03  0.25500000000E-02 0. -1.
    5000001    1    1    2    0    0  0.90696804720E+02 -0.23920076586E+03  0.11587610663E+03  0.34419643936E+03  0.19900000000E+03 0.  0.
   -5000001    1    1    2    0    0 -0.90696804720E+02  0.23920076586E+03  0.83341071416E+02  0.33464854842E+03  0.19900000000E+03 0.  0.
<mgrwt>
<rscale>  0 0.64895534E+03</rscale>
<asrwt>0</asrwt>
<pdfrwt beam="1">  1        2 0.62718725E-01 0.64895534E+03</pdfrwt>
<pdfrwt beam="2">  1       -2 0.34259130E-01 0.64895534E+03</pdfrwt>
<totfact> 0.62472169E+02</totfact>
</mgrwt>
</event>
<event>
 4    1  0.1869793E-005  0.8273984E+03  0.7818608E-02  0.9521184E-01
         -2   -1    0    0    0  501 -0.00000000000E+00  0.00000000000E+00  0.77590727364E+02  0.77590727405E+02  0.25500000000E-02 0. -1.
          2   -1    0    0  501    0  0.00000000000E+00 -0.00000000000E+00 -0.22057664659E+04  0.22057664659E+04  0.25500000000E-02 0.  1.
    5000001    1    1    2    0    0 -0.23292775620E+03 -0.21316292489E+03 -0.15566139774E+04  0.16007316599E+04  0.19900000000E+03 0.  0.
   -5000001    1    1    2    0    0  0.23292775620E+03  0.21316292489E+03 -0.57156176111E+03  0.68262553344E+03  0.19900000000E+03 0.  0.
<mgrwt>
<rscale>  0 0.82739839E+03</rscale>
<asrwt>0</asrwt>
<pdfrwt beam="1">  1        2 0.31510946E+00 0.82739839E+03</pdfrwt>
<pdfrwt beam="2">  1       -2 0.11084391E-01 0.82739839E+03</pdfrwt>
<totfact> 0.37126360E+02</totfact>
</mgrwt>
</event>
<event>
 4    1  0.1869793E-005  0.4682007E+03  0.7818608E-02  0.1022429E+00
          2   -1    0    0  501    0  0.00000000000E+00  0.00000000000E+00  0.73559203653E+02  0.73559203697E+02  0.25500000000E-02 0.  1.
         -2   -1    0    0    0  501 -0.00000000000E+00 -0.00000000000E+00 -0.74501873547E+03  0.74501873547E+03  0.25500000000E-02 0. -1.
    5000001    1    1    2    0    0 -0.11917046362E+02  0.11784645352E+03 -0.39558822247E+03  0.45838940254E+03  0.19900000000E+03 0.  0.
   -5000001    1    1    2    0    0  0.11917046362E+02 -0.11784645352E+03 -0.27587130934E+03  0.36018853663E+03  0.19900000000E+03 0.  0.
<mgrwt>
<rscale>  0 0.46820075E+03</rscale>
<asrwt>0</asrwt>
<pdfrwt beam="1">  1        2 0.10508458E-01 0.46820075E+03</pdfrwt>
<pdfrwt beam="2">  1       -2 0.10643124E+00 0.46820075E+03</pdfrwt>
<totfact> 0.44841658E+02</totfact>
</mgrwt>
</event>
<event>
 4    1  0.1869793E-005  0.5115897E+03  0.7818608E-02  0.1010797E+00
          2   -1    0    0  501    0  0.00000000000E+00  0.00000000000E+00  0.63477248133E+03  0.63477248133E+03  0.25500000000E-02 0.  1.
         -2   -1    0    0    0  501 -0.00000000000E+00 -0.00000000000E+00 -0.10307787066E+03  0.10307787069E+03  0.25500000000E-02 0. -1.
    5000001    1    1    2    0    0  0.13348218940E+03  0.80958231818E+02  0.21077099513E+03  0.32923721323E+03  0.19900000000E+03 0.  0.
   -5000001    1    1    2    0    0 -0.13348218940E+03 -0.80958231818E+02  0.32092361554E+03  0.40861313879E+03  0.19900000000E+03 0.  0.
<mgrwt>
<rscale>  0 0.51158966E+03</rscale>
<asrwt>0</asrwt>
<pdfrwt beam="1">  1        2 0.90681783E-01 0.51158966E+03</pdfrwt>
<pdfrwt beam="2">  1       -2 0.14725410E-01 0.51158966E+03</pdfrwt>
<totfact> 0.18288101E+03</totfact>
</mgrwt>
</event>
<event>
 4    1  0.1869793E-005  0.4880402E+03  0.7818608E-02  0.1016949E+00
          2   -1    0    0  501    0  0.00000000000E+00  0.00000000000E+00  0.16590714562E+04  0.16590714562E+04  0.25500000000E-02 0.  1.
         -2   -1    0    0    0  501 -0.00000000000E+00 -0.00000000000E+00 -0.35891042328E+02  0.35891042418E+02  0.25500000000E-02 0. -1.
    5000001    1    1    2    0    0 -0.28228518618E+02 -0.10448565534E+03  0.49650866017E+03  0.54574348467E+03  0.19900000000E+03 0.  0.
   -5000001    1    1    2    0    0  0.28228518618E+02  0.10448565534E+03  0.11266717537E+04  0.11492190140E+04  0.19900000000E+03 0.  0.
<mgrwt>
<rscale>  0 0.48804018E+03</rscale>
<asrwt>0</asrwt>
<pdfrwt beam="1">  1        2 0.23701030E+00 0.48804018E+03</pdfrwt>
<pdfrwt beam="2">  1       -2 0.51272898E-02 0.48804018E+03</pdfrwt>
<totfact> 0.24359941E+03</totfact>
</mgrwt>
</event>
<event>
 4    1  0.1869793E-005  0.5809486E+03  0.7818608E-02  0.9945740E-01
          2   -1    0    0  501    0  0.00000000000E+00  0.00000000000E+00  0.22983824807E+03  0.22983824808E+03  0.25500000000E-02 0.  1.
         -2   -1    0    0    0  501 -0.00000000000E+00 -0.00000000000E+00 -0.36710733880E+03  0.36710733881E+03  0.25500000000E-02 0. -1.
    5000001    1    1    2    0    0 -0.73819641032E+02  0.19822461143E+03 -0.62824500805E+02  0.29713675956E+03  0.19900000000E+03 0.  0.
   -5000001    1    1    2    0    0  0.73819641032E+02 -0.19822461143E+03 -0.74444589932E+02  0.29980882734E+03  0.19900000000E+03 0.  0.
<mgrwt>
<rscale>  0 0.58094856E+03</rscale>
<asrwt>0</asrwt>
<pdfrwt beam="1">  1        2 0.32834036E-01 0.58094856E+03</pdfrwt>
<pdfrwt beam="2">  1       -2 0.52443905E-01 0.58094856E+03</pdfrwt>
<totfact> 0.55556650E+02</totfact>
</mgrwt>
</event>
<event>
 4    1  0.1869793E-005  0.7255042E+03  0.7818608E-02  0.9674584E-01
         -2   -1    0    0    0  501 -0.00000000000E+00  0.00000000000E+00  0.32565157086E+03  0.32565157087E+03  0.25500000000E-02 0. -1.
          2   -1    0    0  501    0  0.00000000000E+00 -0.00000000000E+00 -0.40407938137E+03  0.40407938138E+03  0.25500000000E-02 0.  1.
    5000001    1    1    2    0    0 -0.16687749474E+03 -0.18759039419E+03  0.13192385928E+03  0.34647245041E+03  0.19900000000E+03 0.  0.
   -5000001    1    1    2    0    0  0.16687749474E+03  0.18759039419E+03 -0.21035166979E+03  0.38325850184E+03  0.19900000000E+03 0.  0.
<mgrwt>
<rscale>  0 0.72550420E+03</rscale>
<asrwt>0</asrwt>
<pdfrwt beam="1">  1        2 0.57725626E-01 0.72550420E+03</pdfrwt>
<pdfrwt beam="2">  1       -2 0.46521653E-01 0.72550420E+03</pdfrwt>
<totfact> 0.37731100E+02</totfact>
</mgrwt>
</event>
<event>
 4    1  0.1869793E-005  0.9387402E+03  0.7818608E-02  0.9378409E-01
          2   -1    0    0  501    0  0.00000000000E+00  0.00000000000E+00  0.43130812878E+03  0.43130812878E+03  0.25500000000E-02 0.  1.
         -2   -1    0    0    0  501 -0.00000000000E+00 -0.00000000000E+00 -0.51079096501E+03  0.51079096502E+03  0.25500000000E-02 0. -1.
    5000001    1    1    2    0    0  0.39500792470E+03  0.67264760034E+02  0.10272244365E+03  0.45903018305E+03  0.19900000000E+03 0.  0.
   -5000001    1    1    2    0    0 -0.39500792470E+03 -0.67264760034E+02 -0.18220527989E+03  0.48306891075E+03  0.19900000000E+03 0.  0.
<mgrwt>
<rscale>  0 0.93874021E+03</rscale>
<asrwt>0</asrwt>
<pdfrwt beam="1">  1        2 0.61615447E-01 0.93874021E+03</pdfrwt>
<pdfrwt beam="2">  1       -2 0.72970138E-01 0.93874021E+03</pdfrwt>
<totfact> 0.13510695E+02</totfact>
</mgrwt>
</event>
<event>
 4    1  0.1869793E-005  0.6423370E+03  0.7818608E-02  0.9821265E-01
         -2   -1    0    0    0  501 -0.00000000000E+00  0.00000000000E+00  0.39219180938E+03  0.39219180939E+03  0.25500000000E-02 0. -1.
          2   -1    0    0  501    0  0.00000000000E+00 -0.00000000000E+00 -0.26300702004E+03  0.26300702005E+03  0.25500000000E-02 0.  1.
    5000001    1    1    2    0    0 -0.11028364516E+03  0.78609812861E+02 -0.15228248713E+03  0.28483844711E+03  0.19900000000E+03 0.  0.
   -5000001    1    1    2    0    0  0.11028364516E+03 -0.78609812861E+02  0.28146727648E+03  0.37036038233E+03  0.19900000000E+03 0.  0.
<mgrwt>
<rscale>  0 0.64233698E+03</rscale>
<asrwt>0</asrwt>
<pdfrwt beam="1">  1        2 0.37572431E-01 0.64233698E+03</pdfrwt>
<pdfrwt beam="2">  1       -2 0.56027402E-01 0.64233698E+03</pdfrwt>
<totfact> 0.41680593E+02</totfact>
</mgrwt>
</event>
<event>
 4    1  0.1869793E-005  0.5835822E+03  0.7818608E-02  0.9940066E-01
          2   -1    0    0  501    0  0.00000000000E+00  0.00000000000E+00  0.15820461669E+03  0.15820461671E+03  0.25500000000E-02 0.  1.
         -2   -1    0    0    0  501 -0.00000000000E+00 -0.00000000000E+00 -0.53817668044E+03  0.53817668044E+03  0.25500000000E-02 0. -1.
    5000001    1    1    2    0    0  0.20461377233E+03  0.93547141759E+00 -0.11766292044E+03  0.30872841428E+03  0.19900000000E+03 0.  0.
   -5000001    1    1    2    0    0 -0.20461377233E+03 -0.93547141759E+00 -0.26230914331E+03  0.38765288287E+03  0.19900000000E+03 0.  0.
<mgrwt>
<rscale>  0 0.58358216E+03</rscale>
<asrwt>0</asrwt>
<pdfrwt beam="1">  1        2 0.22600660E-01 0.58358216E+03</pdfrwt>
<pdfrwt beam="2">  1       -2 0.76882382E-01 0.58358216E+03</pdfrwt>
<totfact> 0.37585510E+02</totfact>
</mgrwt>
</event>
<event>
 4    1  0.1869793E-005  0.5766109E+03  0.7818608E-02  0.9955155E-01
         -2   -1    0    0    0  501 -0.00000000000E+00  0.00000000000E+00  0.12010501544E+04  0.12010501544E+04  0.25500000000E-02 0. -1.
          2   -1    0    0  501    0  0.00000000000E+00 -0.00000000000E+00 -0.69206133784E+02  0.69206133831E+02  0.25500000000E-02 0.  1.
    5000001    1    1    2    0    0  0.81149676782E+02 -0.14301581631E+03  0.28311490929E+03  0.38313684973E+03  0.19900000000E+03 0.  0.
   -5000001    1    1    2    0    0 -0.81149676782E+02  0.14301581631E+03  0.84872911129E+03  0.88711943847E+03  0.19900000000E+03 0.  0.
<mgrwt>
<rscale>  0 0.57661092E+03</rscale>
<asrwt>0</asrwt>
<pdfrwt beam="1">  1        2 0.98865905E-02 0.57661092E+03</pdfrwt>
<pdfrwt beam="2">  1       -2 0.17157859E+00 0.57661092E+03</pdfrwt>
<totfact> 0.14291080E+02</totfact>
</mgrwt>
</event>
<event>
 4    1  0.1869793E-005  0.5804962E+03  0.7818608E-02  0.9946717E-01
         -2   -1    0    0    0  501 -0.00000000000E+00  0.00000000000E+00  0.67918514240E+02  0.67918514288E+02  0.25500000000E-02 0. -1.
          2   -1    0    0  501    0  0.00000000000E+00 -0.00000000000E+00 -0.12403681623E+04  0.12403681623E+04  0.25500000000E-02 0.  1.
    5000001    1    1    2    0    0 -0.59447742658E+00  0.19531373352E+03 -0.76785929909E+03  0.81691903584E+03  0.19900000000E+03 0.  0.
   -5000001    1    1    2    0    0  0.59447742658E+00 -0.19531373352E+03 -0.40459034898E+03  0.49136764077E+03  0.19900000000E+03 0.  0.
<mgrwt>
<rscale>  0 0.58049621E+03</rscale>
<asrwt>0</asrwt>
<pdfrwt beam="1">  1        2 0.17719544E+00 0.58049621E+03</pdfrwt>
<pdfrwt beam="2">  1       -2 0.97026456E-02 0.58049621E+03</pdfrwt>
<totfact> 0.14743684E+03</totfact>
</mgrwt>
</event>
<event>
 4    1  0.1869793E-005  0.4752854E+03  0.7818608E-02  0.1020439E+00
          2   -1    0    0  501    0  0.00000000000E+00  0.00000000000E+00  0.39311648959E+03  0.39311648960E+03  0.25500000000E-02 0.  1.
         -2   -1    0    0    0  501 -0.00000000000E+00 -0.00000000000E+00 -0.14365730704E+03  0.14365730707E+03  0.25500000000E-02 0. -1.
    5000001    1    1    2    0    0 -0.87567392168E+02 -0.33817323964E+02  0.22613052790E+03  0.31551176717E+03  0.19900000000E+03 0.  0.
   -5000001    1    1    2    0    0  0.87567392168E+02  0.33817323964E+02  0.23328654647E+02  0.22126202950E+03  0.19900000000E+03 0.  0.
<mgrwt>
<rscale>  0 0.47528541E+03</rscale>
<asrwt>0</asrwt>
<pdfrwt beam="1">  1        2 0.56159499E-01 0.47528541E+03</pdfrwt>
<pdfrwt beam="2">  1       -2 0.20522472E-01 0.47528541E+03</pdfrwt>
<totfact> 0.17881756E+03</totfact>
</mgrwt>
</event>
<event>
 4    1  0.1869793E-005  0.4510660E+03  0.7818608E-02  0.1027405E+00
         -2   -1    0    0    0  501 -0.00000000000E+00  0.00000000000E+00  0.90416640292E+02  0.90416640328E+02  0.25500000000E-02 0. -1.
          2   -1    0    0  501    0  0.00000000000E+00 -0.00000000000E+00 -0.56256395675E+03  0.56256395675E+03  0.25500000000E-02 0.  1.
    5000001    1    1    2    0    0  0.10266332793E+03  0.13905625914E+01 -0.27498392012E+03  0.35462494116E+03  0.19900000000E+03 0.  0.
   -5000001    1    1    2    0    0 -0.10266332793E+03 -0.13905625914E+01 -0.19716339633E+03  0.29835565592E+03  0.19900000000E+03 0.  0.
<mgrwt>
<rscale>  0 0.45106604E+03</rscale>
<asrwt>0</asrwt>
<pdfrwt beam="1">  1        2 0.80366277E-01 0.45106604E+03</pdfrwt>
<pdfrwt beam="2">  1       -2 0.12916663E-01 0.45106604E+03</pdfrwt>
<totfact> 0.26154382E+03</totfact>
</mgrwt>
</event>
<event>
 4    1  0.1869793E-005  0.4721828E+03  0.7818608E-02  0.1021306E+00
         -2   -1    0    0    0  501 -0.00000000000E+00  0.00000000000E+00  0.23444957655E+03  0.23444957657E+03  0.25500000000E-02 0. -1.
          2   -1    0    0  501    0  0.00000000000E+00 -0.00000000000E+00 -0.23774472949E+03  0.23774472951E+03  0.25500000000E-02 0.  1.
    5000001    1    1    2    0    0 -0.89106789160E+01 -0.12657629621E+03 -0.77462659800E+01  0.23613971203E+03  0.19900000000E+03 0.  0.
   -5000001    1    1    2    0    0  0.89106789160E+01  0.12657629621E+03  0.44511130417E+01  0.23605459404E+03  0.19900000000E+03 0.  0.
<mgrwt>
<rscale>  0 0.47218281E+03</rscale>
<asrwt>0</asrwt>
<pdfrwt beam="1">  1        2 0.33963533E-01 0.47218281E+03</pdfrwt>
<pdfrwt beam="2">  1       -2 0.33492797E-01 0.47218281E+03</pdfrwt>
<totfact> 0.12859697E+03</totfact>
</mgrwt>
</event>
<event>
 4    1  0.1869793E-005  0.7686061E+03  0.7818608E-02  0.9606604E-01
          2   -1    0    0  501    0  0.00000000000E+00  0.00000000000E+00  0.14586601851E+04  0.14586601851E+04  0.25500000000E-02 0.  1.
         -2   -1    0    0    0  501 -0.00000000000E+00 -0.00000000000E+00 -0.10124964534E+03  0.10124964537E+03  0.25500000000E-02 0. -1.
    5000001    1    1    2    0    0 -0.16194756284E+03 -0.28341262959E+03  0.75830053248E+03  0.84921753944E+03  0.19900000000E+03 0.  0.
   -5000001    1    1    2    0    0  0.16194756284E+03  0.28341262959E+03  0.59911000724E+03  0.71069229100E+03  0.19900000000E+03 0.  0.
<mgrwt>
<rscale>  0 0.76860608E+03</rscale>
<asrwt>0</asrwt>
<pdfrwt beam="1">  1        2 0.20838002E+00 0.76860608E+03</pdfrwt>
<pdfrwt beam="2">  1       -2 0.14464235E-01 0.76860608E+03</pdfrwt>
<totfact> 0.57772565E+02</totfact>
</mgrwt>
</event>
<event>
 4    1  0.1869793E-005  0.5841649E+03  0.7818608E-02  0.9938815E-01
          2   -1    0    0  501    0  0.00000000000E+00  0.00000000000E+00  0.26710255520E+04  0.26710255520E+04  0.25500000000E-02 0.  1.
         -2   -1    0    0    0  501 -0.00000000000E+00 -0.00000000000E+00 -0.31939851538E+02  0.31939851639E+02  0.25500000000E-02 0. -1.
    5000001    1    1    2    0    0  0.25514656258E+02 -0.21226539871E+03  0.13282762928E+04  0.13600097452E+04  0.19900000000E+03 0.  0.
   -5000001    1    1    2    0    0 -0.25514656258E+02  0.21226539871E+03  0.13108094077E+04  0.13429556584E+04  0.19900000000E+03 0.  0.
<mgrwt>
<rscale>  0 0.58416491E+03</rscale>
<asrwt>0</asrwt>
<pdfrwt beam="1">  1        2 0.38157511E+00 0.58416491E+03</pdfrwt>
<pdfrwt beam="2">  1       -2 0.45628356E-02 0.58416491E+03</pdfrwt>
<totfact> 0.89370819E+02</totfact>
</mgrwt>
</event>
<event>
 4    1  0.1869793E-005  0.6212457E+03  0.7818608E-02  0.9862283E-01
          2   -1    0    0  501    0  0.00000000000E+00  0.00000000000E+00  0.30063051928E+03  0.30063051929E+03  0.25500000000E-02 0. -1.
         -2   -1    0    0    0  501 -0.00000000000E+00 -0.00000000000E+00 -0.32094729614E+03  0.32094729616E+03  0.25500000000E-02 0.  1.
    5000001    1    1    2    0    0 -0.17580875593E+03  0.29749370864E+01  0.15107360680E+03  0.30551890872E+03  0.19900000000E+03 0.  0.
   -5000001    1    1    2    0    0  0.17580875593E+03 -0.29749370864E+01 -0.17139038366E+03  0.31605890673E+03  0.19900000000E+03 0.  0.
<mgrwt>
<rscale>  0 0.62124569E+03</rscale>
<asrwt>0</asrwt>
<pdfrwt beam="1">  1        2 0.42947217E-01 0.62124569E+03</pdfrwt>
<pdfrwt beam="2">  1       -2 0.45849614E-01 0.62124569E+03</pdfrwt>
<totfact> 0.54062622E+02</totfact>
</mgrwt>
</event>
<event>
 4    1  0.1869793E-005  0.9497048E+03  0.7818608E-02  0.9365496E-01
         -2   -1    0    0    0  501 -0.00000000000E+00  0.00000000000E+00  0.40347245806E+03  0.40347245807E+03  0.25500000000E-02 0. -1.
          2   -1    0    0  501    0  0.00000000000E+00 -0.00000000000E+00 -0.55886050811E+03  0.55886050811E+03  0.25500000000E-02 0.  1.
    5000001    1    1    2    0    0 -0.18666438425E+03 -0.35175776176E+03  0.89750665147E+02  0.45412916356E+03  0.19900000000E+03 0.  0.
   -5000001    1    1    2    0    0  0.18666438425E+03  0.35175776176E+03 -0.24513871519E+03  0.50820380262E+03  0.19900000000E+03 0.  0.
<mgrwt>
<rscale>  0 0.94970484E+03</rscale>
<asrwt>0</asrwt>
<pdfrwt beam="1">  1        2 0.79837215E-01 0.94970484E+03</pdfrwt>
<pdfrwt beam="2">  1       -2 0.57638923E-01 0.94970484E+03</pdfrwt>
<totfact> 0.16653354E+02</totfact>
</mgrwt>
</event>
<event>
 4    1  0.1869793E-005  0.5391454E+03  0.7818608E-02  0.1004038E+00
          2   -1    0    0  501    0  0.00000000000E+00  0.00000000000E+00  0.16630537925E+04  0.16630537925E+04  0.25500000000E-02 0.  1.
         -2   -1    0    0    0  501 -0.00000000000E+00 -0.00000000000E+00 -0.43696389544E+02  0.43696389618E+02  0.25500000000E-02 0. -1.
    5000001    1    1    2    0    0  0.13586162303E+03 -0.17554765462E+02  0.11882614712E+04  0.12125728326E+04  0.19900000000E+03 0.  0.
   -5000001    1    1    2    0    0 -0.13586162303E+03  0.17554765462E+02  0.43109593171E+03  0.49417734949E+03  0.19900000000E+03 0.  0.
<mgrwt>
<rscale>  0 0.53914542E+03</rscale>
<asrwt>0</asrwt>
<pdfrwt beam="1">  1        2 0.23757908E+00 0.53914542E+03</pdfrwt>
<pdfrwt beam="2">  1       -2 0.62423422E-02 0.53914542E+03</pdfrwt>
<totfact> 0.17826987E+03</totfact>
</mgrwt>
</event>
<event>
 4    1  0.1869793E-005  0.4964167E+03  0.7818608E-02  0.1014718E+00
         -2   -1    0    0    0  501 -0.00000000000E+00  0.00000000000E+00  0.14146469718E+03  0.14146469721E+03  0.25500000000E-02 0. -1.
          2   -1    0    0  501    0  0.00000000000E+00 -0.00000000000E+00 -0.43549661534E+03  0.43549661535E+03  0.25500000000E-02 0.  1.
    5000001    1    1    2    0    0 -0.12364757721E+03  0.71102376963E+02 -0.19440000818E+03  0.31262858881E+03  0.19900000000E+03 0.  0.
   -5000001    1    1    2    0    0  0.12364757721E+03 -0.71102376963E+02 -0.99631909971E+02  0.26433272375E+03  0.19900000000E+03 0.  0.
<mgrwt>
<rscale>  0 0.49641675E+03</rscale>
<asrwt>0</asrwt>
<pdfrwt beam="1">  1        2 0.62213802E-01 0.49641675E+03</pdfrwt>
<pdfrwt beam="2">  1       -2 0.20209243E-01 0.49641675E+03</pdfrwt>
<totfact> 0.16402982E+03</totfact>
</mgrwt>
</event>
<event>
 4    1  0.1869793E-005  0.8029283E+03  0.7818608E-02  0.9555788E-01
         -2   -1    0    0    0  501 -0.00000000000E+00  0.00000000000E+00  0.46067429307E+02  0.46067429378E+02  0.25500000000E-02 0. -1.
          2   -1    0    0  501    0  0.00000000000E+00 -0.00000000000E+00 -0.34986425253E+04  0.34986425253E+04  0.25500000000E-02 0.  1.
    5000001    1    1    2    0    0  0.23791008630E+03 -0.20581056648E+03 -0.10624136275E+04  0.11257366097E+04  0.19900000000E+03 0.  0.
   -5000001    1    1    2    0    0 -0.23791008630E+03  0.20581056648E+03 -0.23901614684E+04  0.24189733450E+04  0.19900000000E+03 0.  0.
<mgrwt>
<rscale>  0 0.80292831E+03</rscale>
<asrwt>0</asrwt>
<pdfrwt beam="1">  1        2 0.49980591E+00 0.80292831E+03</pdfrwt>
<pdfrwt beam="2">  1       -2 0.65810635E-02 0.80292831E+03</pdfrwt>
<totfact> 0.17118926E+02</totfact>
</mgrwt>
</event>
<event>
 4    1  0.1869793E-005  0.4195644E+03  0.7818608E-02  0.1037208E+00
          2   -1    0    0  501    0  0.00000000000E+00  0.00000000000E+00  0.12309504987E+04  0.12309504987E+04  0.25500000000E-02 0.  1.
         -2   -1    0    0    0  501 -0.00000000000E+00 -0.00000000000E+00 -0.35751694387E+02  0.35751694478E+02  0.25500000000E-02 0. -1.
    5000001    1    1    2    0    0 -0.40383369932E+02  0.22502361032E+02  0.74145489965E+03  0.76908617269E+03  0.19900000000E+03 0.  0.
   -5000001    1    1    2    0    0  0.40383369932E+02 -0.22502361032E+02  0.45374390462E+03  0.49761602044E+03  0.19900000000E+03 0.  0.
<mgrwt>
<rscale>  0 0.41956437E+03</rscale>
<asrwt>0</asrwt>
<pdfrwt beam="1">  1        2 0.17585003E+00 0.41956437E+03</pdfrwt>
<pdfrwt beam="2">  1       -2 0.51073860E-02 0.41956437E+03</pdfrwt>
<totfact> 0.41046973E+03</totfact>
</mgrwt>
</event>
<event>
 4    1  0.1869793E-005  0.5566449E+03  0.7818608E-02  0.9999675E-01
          2   -1    0    0  501    0  0.00000000000E+00  0.00000000000E+00  0.17792058319E+04  0.17792058319E+04  0.25500000000E-02 0. -1.
         -2   -1    0    0    0  501 -0.00000000000E+00 -0.00000000000E+00 -0.43538188398E+02  0.43538188473E+02  0.25500000000E-02 0.  1.
    5000001    1    1    2    0    0 -0.16399926005E+03  0.10373609945E+03  0.82089692384E+03  0.86667738819E+03  0.19900000000E+03 0.  0.
   -5000001    1    1    2    0    0  0.16399926005E+03 -0.10373609945E+03  0.91477071963E+03  0.95606663215E+03  0.19900000000E+03 0.  0.
<mgrwt>
<rscale>  0 0.55664495E+03</rscale>
<asrwt>0</asrwt>
<pdfrwt beam="1">  1        2 0.25417225E+00 0.55664495E+03</pdfrwt>
<pdfrwt beam="2">  1       -2 0.62197415E-02 0.55664495E+03</pdfrwt>
<totfact> 0.15648364E+03</totfact>
</mgrwt>
</event>
<event>
 4    1  0.1869793E-005  0.5352178E+03  0.7818608E-02  0.1004975E+00
         -2   -1    0    0    0  501 -0.00000000000E+00  0.00000000000E+00  0.13238918455E+03  0.13238918457E+03  0.25500000000E-02 0. -1.
          2   -1    0    0  501    0  0.00000000000E+00 -0.00000000000E+00 -0.54093929767E+03  0.54093929768E+03  0.25500000000E-02 0.  1.
    5000001    1    1    2    0    0  0.16460728194E+03 -0.62492828760E+02 -0.24430783892E+03  0.36095461082E+03  0.19900000000E+03 0.  0.
   -5000001    1    1    2    0    0 -0.16460728194E+03  0.62492828760E+02 -0.16424227420E+03  0.31237387143E+03  0.19900000000E+03 0.  0.
<mgrwt>
<rscale>  0 0.53521776E+03</rscale>
<asrwt>0</asrwt>
<pdfrwt beam="1">  1        2 0.77277041E-01 0.53521776E+03</pdfrwt>
<pdfrwt beam="2">  1       -2 0.18912741E-01 0.53521776E+03</pdfrwt>
<totfact> 0.14406369E+03</totfact>
</mgrwt>
</event>
<event>
 4    1  0.1869793E-005  0.8952104E+03  0.7818608E-02  0.9431589E-01
         -2   -1    0    0    0  501 -0.00000000000E+00  0.00000000000E+00  0.31605420216E+03  0.31605420217E+03  0.25500000000E-02 0. -1.
          2   -1    0    0  501    0  0.00000000000E+00 -0.00000000000E+00 -0.63391157721E+03  0.63391157722E+03  0.25500000000E-02 0.  1.
    5000001    1    1    2    0    0 -0.17214373374E+03  0.34900033496E+03 -0.56512709648E+02  0.44071463014E+03  0.19900000000E+03 0.  0.
   -5000001    1    1    2    0    0  0.17214373374E+03 -0.34900033496E+03 -0.26134466541E+03  0.50925114924E+03  0.19900000000E+03 0.  0.
<mgrwt>
<rscale>  0 0.89521041E+03</rscale>
<asrwt>0</asrwt>
<pdfrwt beam="1">  1        2 0.90558796E-01 0.89521041E+03</pdfrwt>
<pdfrwt beam="2">  1       -2 0.45150601E-01 0.89521041E+03</pdfrwt>
<totfact> 0.23689803E+02</totfact>
</mgrwt>
</event>
<event>
 4    1  0.1869793E-005  0.4628612E+03  0.7818608E-02  0.1023955E+00
         -2   -1    0    0    0  501 -0.00000000000E+00  0.00000000000E+00  0.23634324219E+02  0.23634324357E+02  0.25500000000E-02 0. -1.
          2   -1    0    0  501    0  0.00000000000E+00 -0.00000000000E+00 -0.22662009374E+04  0.22662009375E+04  0.25500000000E-02 0.  1.
    5000001    1    1    2    0    0 -0.27014079997E+02 -0.90251053226E+02 -0.76853810718E+03  0.79945408581E+03  0.19900000000E+03 0.  0.
   -5000001    1    1    2    0    0  0.27014079997E+02  0.90251053226E+02 -0.14740285061E+04  0.14903811760E+04  0.19900000000E+03 0.  0.
<mgrwt>
<rscale>  0 0.46286122E+03</rscale>
<asrwt>0</asrwt>
<pdfrwt beam="1">  1        2 0.32374285E+00 0.46286122E+03</pdfrwt>
<pdfrwt beam="2">  1       -2 0.33763335E-02 0.46286122E+03</pdfrwt>
<totfact> 0.22975118E+03</totfact>
</mgrwt>
</event>
<event>
 4    1  0.1869793E-005  0.1224361E+04  0.7818608E-02  0.9091796E-01
         -2   -1    0    0    0  501 -0.00000000000E+00  0.00000000000E+00  0.49617896341E+03  0.49617896342E+03  0.25500000000E-02 0. -1.
          2   -1    0    0  501    0  0.00000000000E+00 -0.00000000000E+00 -0.75530247755E+03  0.75530247755E+03  0.25500000000E-02 0.  1.
    5000001    1    1    2    0    0  0.45387266034E+03 -0.30411205227E+03 -0.32532334942E+03  0.66627382796E+03  0.19900000000E+03 0.  0.
   -5000001    1    1    2    0    0 -0.45387266034E+03  0.30411205227E+03  0.66199835286E+02  0.58520761302E+03  0.19900000000E+03 0.  0.
<mgrwt>
<rscale>  0 0.12243614E+04</rscale>
<asrwt>0</asrwt>
<pdfrwt beam="1">  1        2 0.10790035E+00 0.12243614E+04</pdfrwt>
<pdfrwt beam="2">  1       -2 0.70882709E-01 0.12243614E+04</pdfrwt>
<totfact> 0.72996804E+01</totfact>
</mgrwt>
</event>
<event>
 4    1  0.1869793E-005  0.5257639E+03  0.7818608E-02  0.1007265E+00
          2   -1    0    0  501    0  0.00000000000E+00  0.00000000000E+00  0.24455951741E+04  0.24455951741E+04  0.25500000000E-02 0.  1.
         -2   -1    0    0    0  501 -0.00000000000E+00 -0.00000000000E+00 -0.28257707065E+02  0.28257707180E+02  0.25500000000E-02 0. -1.
    5000001    1    1    2    0    0  0.14959029510E+03 -0.81218161041E+02  0.11001143079E+04  0.11308519517E+04  0.19900000000E+03 0.  0.
   -5000001    1    1    2    0    0 -0.14959029510E+03  0.81218161041E+02  0.13172231591E+04  0.13430009297E+04  0.19900000000E+03 0.  0.
<mgrwt>
<rscale>  0 0.52576387E+03</rscale>
<asrwt>0</asrwt>
<pdfrwt beam="1">  1        2 0.34937067E+00 0.52576387E+03</pdfrwt>
<pdfrwt beam="2">  1       -2 0.40368161E-02 0.52576387E+03</pdfrwt>
<totfact> 0.14154803E+03</totfact>
</mgrwt>
</event>
<event>
 4    1  0.1869793E-005  0.4877698E+03  0.7818608E-02  0.1017021E+00
         -2   -1    0    0    0  501 -0.00000000000E+00  0.00000000000E+00  0.74744553519E+02  0.74744553562E+02  0.25500000000E-02 0. -1.
          2   -1    0    0  501    0  0.00000000000E+00 -0.00000000000E+00 -0.79577492779E+03  0.79577492779E+03  0.25500000000E-02 0.  1.
    5000001    1    1    2    0    0  0.90055986047E+02  0.50144763802E+02 -0.53220104908E+03  0.57746301578E+03  0.19900000000E+03 0.  0.
   -5000001    1    1    2    0    0 -0.90055986047E+02 -0.50144763802E+02 -0.18882932519E+03  0.29305646557E+03  0.19900000000E+03 0.  0.
<mgrwt>
<rscale>  0 0.48776979E+03</rscale>
<asrwt>0</asrwt>
<pdfrwt beam="1">  1        2 0.11368213E+00 0.48776979E+03</pdfrwt>
<pdfrwt beam="2">  1       -2 0.10677794E-01 0.48776979E+03</pdfrwt>
<totfact> 0.23548941E+03</totfact>
</mgrwt>
</event>
<event>
 4    1  0.1869793E-005  0.7106567E+03  0.7818608E-02  0.9699179E-01
          2   -1    0    0  501    0  0.00000000000E+00  0.00000000000E+00  0.25963269642E+04  0.25963269642E+04  0.25500000000E-02 0.  1.
         -2   -1    0    0    0  501 -0.00000000000E+00 -0.00000000000E+00 -0.48629560535E+02  0.48629560602E+02  0.25500000000E-02 0. -1.
    5000001    1    1    2    0    0  0.18771221427E+03  0.21878698956E+03  0.14957163594E+04  0.15361875048E+04  0.19900000000E+03 0.  0.
   -5000001    1    1    2    0    0 -0.18771221427E+03 -0.21878698956E+03  0.10519810443E+04  0.11087690200E+04  0.19900000000E+03 0.  0.
<mgrwt>
<rscale>  0 0.71065671E+03</rscale>
<asrwt>0</asrwt>
<pdfrwt beam="1">  1        2 0.37090388E+00 0.71065671E+03</pdfrwt>
<pdfrwt beam="2">  1       -2 0.69470796E-02 0.71065671E+03</pdfrwt>
<totfact> 0.50140542E+02</totfact>
</mgrwt>
</event>
<event>
 4    1  0.1869793E-005  0.4694505E+03  0.7818608E-02  0.1022075E+00
         -2   -1    0    0    0  501 -0.00000000000E+00  0.00000000000E+00  0.64819464417E+02  0.64819464467E+02  0.25500000000E-02 0. -1.
          2   -1    0    0  501    0  0.00000000000E+00 -0.00000000000E+00 -0.84999085452E+03  0.84999085452E+03  0.25500000000E-02 0.  1.
    5000001    1    1    2    0    0  0.85890999761E+02  0.39926867834E+02 -0.54997769619E+03  0.59249294082E+03  0.19900000000E+03 0.  0.
   -5000001    1    1    2    0    0 -0.85890999761E+02 -0.39926867834E+02 -0.23519369392E+03  0.32231737817E+03  0.19900000000E+03 0.  0.
<mgrwt>
<rscale>  0 0.46945054E+03</rscale>
<asrwt>0</asrwt>
<pdfrwt beam="1">  1        2 0.12142726E+00 0.46945054E+03</pdfrwt>
<pdfrwt beam="2">  1       -2 0.92599240E-02 0.46945054E+03</pdfrwt>
<totfact> 0.27225894E+03</totfact>
</mgrwt>
</event>
<event>
 4    1  0.1869793E-005  0.7094804E+03  0.7818608E-02  0.9701155E-01
         -2   -1    0    0    0  501 -0.00000000000E+00  0.00000000000E+00  0.72939188817E+03  0.72939188817E+03  0.25500000000E-02 0. -1.
          2   -1    0    0  501    0  0.00000000000E+00 -0.00000000000E+00 -0.17252812935E+03  0.17252812937E+03  0.25500000000E-02 0.  1.
    5000001    1    1    2    0    0 -0.17870343452E+03  0.23200122937E+03  0.25057662849E+03  0.43376161043E+03  0.19900000000E+03 0.  0.
   -5000001    1    1    2    0    0  0.17870343452E+03 -0.23200122937E+03  0.30628713032E+03  0.46815840711E+03  0.19900000000E+03 0.  0.
<mgrwt>
<rscale>  0 0.70948042E+03</rscale>
<asrwt>0</asrwt>
<pdfrwt beam="1">  1        2 0.24646875E-01 0.70948042E+03</pdfrwt>
<pdfrwt beam="2">  1       -2 0.10419884E+00 0.70948042E+03</pdfrwt>
<totfact> 0.16846685E+02</totfact>
</mgrwt>
</event>
<event>
 4    1  0.1869793E-005  0.6183274E+03  0.7818608E-02  0.9868096E-01
         -2   -1    0    0    0  501 -0.00000000000E+00  0.00000000000E+00  0.68337690039E+02  0.68337690087E+02  0.25500000000E-02 0. -1.
          2   -1    0    0  501    0  0.00000000000E+00 -0.00000000000E+00 -0.13986744601E+04  0.13986744602E+04  0.25500000000E-02 0.  1.
    5000001    1    1    2    0    0  0.45300944761E+02 -0.19622483913E+03 -0.95983116314E+03  0.10007163558E+04  0.19900000000E+03 0.  0.
   -5000001    1    1    2    0    0 -0.45300944761E+02  0.19622483913E+03 -0.37050560697E+03  0.46629579441E+03  0.19900000000E+03 0.  0.
<mgrwt>
<rscale>  0 0.61832736E+03</rscale>
<asrwt>0</asrwt>
<pdfrwt beam="1">  1        2 0.19981062E+00 0.61832736E+03</pdfrwt>
<pdfrwt beam="2">  1       -2 0.97625280E-02 0.61832736E+03</pdfrwt>
<totfact> 0.11969504E+03</totfact>
</mgrwt>
</event>
<event>
 4    1  0.1869793E-005  0.9161067E+03  0.7818608E-02  0.9405668E-01
          2   -1    0    0  501    0  0.00000000000E+00  0.00000000000E+00  0.68322147328E+03  0.68322147328E+03  0.25500000000E-02 0. -1.
         -2   -1    0    0    0  501 -0.00000000000E+00 -0.00000000000E+00 -0.30709346441E+03  0.30709346442E+03  0.25500000000E-02 0.  1.
    5000001    1    1    2    0    0 -0.34971169123E+03 -0.90004761458E+02  0.40375809476E+03  0.57707947733E+03  0.19900000000E+03 0.  0.
   -5000001    1    1    2    0    0  0.34971169123E+03  0.90004761458E+02 -0.27630085888E+02  0.41323546038E+03  0.19900000000E+03 0.  0.
<mgrwt>
<rscale>  0 0.91610665E+03</rscale>
<asrwt>0</asrwt>
<pdfrwt beam="1">  1        2 0.97603067E-01 0.91610665E+03</pdfrwt>
<pdfrwt beam="2">  1       -2 0.43870495E-01 0.91610665E+03</pdfrwt>
<totfact> 0.22880546E+02</totfact>
</mgrwt>
</event>
<event>
 4    1  0.1869793E-005  0.6461450E+03  0.7818608E-02  0.9814040E-01
         -2   -1    0    0    0  501 -0.00000000000E+00  0.00000000000E+00  0.72394532266E+02  0.72394532311E+02  0.25500000000E-02 0. -1.
          2   -1    0    0  501    0  0.00000000000E+00 -0.00000000000E+00 -0.14417639924E+04  0.14417639924E+04  0.25500000000E-02 0.  1.
    5000001    1    1    2    0    0  0.25298922370E+02  0.24658322444E+03 -0.81994236843E+03  0.87940309847E+03  0.19900000000E+03 0.  0.
   -5000001    1    1    2    0    0 -0.25298922370E+02 -0.24658322444E+03 -0.54942709172E+03  0.63475542626E+03  0.19900000000E+03 0.  0.
<mgrwt>
<rscale>  0 0.64614497E+03</rscale>
<asrwt>0</asrwt>
<pdfrwt beam="1">  1        2 0.20596627E+00 0.64614497E+03</pdfrwt>
<pdfrwt beam="2">  1       -2 0.10342077E-01 0.64614497E+03</pdfrwt>
<totfact> 0.10330945E+03</totfact>
</mgrwt>
</event>
<event>
 4    1  0.1869793E-005  0.7831315E+03  0.7818608E-02  0.9584760E-01
          2   -1    0    0  501    0  0.00000000000E+00  0.00000000000E+00  0.22745371322E+04  0.22745371322E+04  0.25500000000E-02 0.  1.
         -2   -1    0    0    0  501 -0.00000000000E+00 -0.00000000000E+00 -0.67408755485E+02  0.67408755533E+02  0.25500000000E-02 0. -1.
    5000001    1    1    2    0    0 -0.99272056052E+02 -0.21819334523E+03  0.18128804139E+04  0.18394563523E+04  0.19900000000E+03 0.  0.
   -5000001    1    1    2    0    0  0.99272056052E+02  0.21819334523E+03  0.39424796284E+03  0.50248953543E+03  0.19900000000E+03 0.  0.
<mgrwt>
<rscale>  0 0.78313145E+03</rscale>
<asrwt>0</asrwt>
<pdfrwt beam="1">  1        2 0.32493382E+00 0.78313145E+03</pdfrwt>
<pdfrwt beam="2">  1       -2 0.96298239E-02 0.78313145E+03</pdfrwt>
<totfact> 0.43239244E+02</totfact>
</mgrwt>
</event>
<event>
 4    1  0.1869793E-005  0.5737428E+03  0.7818608E-02  0.9961430E-01
         -2   -1    0    0    0  501 -0.00000000000E+00  0.00000000000E+00  0.31968148007E+02  0.31968148109E+02  0.25500000000E-02 0. -1.
          2   -1    0    0  501    0  0.00000000000E+00 -0.00000000000E+00 -0.25742872582E+04  0.25742872582E+04  0.25500000000E-02 0.  1.
    5000001    1    1    2    0    0 -0.83535087514E+02  0.16376257572E+03 -0.16996524222E+04  0.17211088427E+04  0.19900000000E+03 0.  0.
   -5000001    1    1    2    0    0  0.83535087514E+02 -0.16376257572E+03 -0.84266668795E+03  0.88514656359E+03  0.19900000000E+03 0.  0.
<mgrwt>
<rscale>  0 0.57374279E+03</rscale>
<asrwt>0</asrwt>
<pdfrwt beam="1">  1        2 0.36775519E+00 0.57374279E+03</pdfrwt>
<pdfrwt beam="2">  1       -2 0.45668799E-02 0.57374279E+03</pdfrwt>
<totfact> 0.10025764E+03</totfact>
</mgrwt>
</event>
<event>
 4    1  0.1869793E-005  0.7174632E+03  0.7818608E-02  0.9687825E-01
         -2   -1    0    0    0  501 -0.00000000000E+00  0.00000000000E+00  0.10174108878E+03  0.10174108881E+03  0.25500000000E-02 0. -1.
          2   -1    0    0  501    0  0.00000000000E+00 -0.00000000000E+00 -0.12648611278E+04  0.12648611278E+04  0.25500000000E-02 0.  1.
    5000001    1    1    2    0    0 -0.22368166196E+03 -0.87891386945E+02 -0.91870410564E+03  0.97024564700E+03  0.19900000000E+03 0.  0.
   -5000001    1    1    2    0    0  0.22368166196E+03  0.87891386945E+02 -0.24441593340E+03  0.39635656964E+03  0.19900000000E+03 0.  0.
<mgrwt>
<rscale>  0 0.71746317E+03</rscale>
<asrwt>0</asrwt>
<pdfrwt beam="1">  1        2 0.18069444E+00 0.71746317E+03</pdfrwt>
<pdfrwt beam="2">  1       -2 0.14534442E-01 0.71746317E+03</pdfrwt>
<totfact> 0.73085925E+02</totfact>
</mgrwt>
</event>
<event>
 4    1  0.1869793E-005  0.5596641E+03  0.7818608E-02  0.9992815E-01
         -2   -1    0    0    0  501 -0.00000000000E+00  0.00000000000E+00  0.12758149165E+03  0.12758149167E+03  0.25500000000E-02 0. -1.
          2   -1    0    0  501    0  0.00000000000E+00 -0.00000000000E+00 -0.61377232978E+03  0.61377232978E+03  0.25500000000E-02 0.  1.
    5000001    1    1    2    0    0  0.55108075807E+02 -0.15548375212E+03 -0.38510338623E+03  0.46380784306E+03  0.19900000000E+03 0.  0.
   -5000001    1    1    2    0    0 -0.55108075807E+02  0.15548375212E+03 -0.10108745190E+03  0.27754597840E+03  0.19900000000E+03 0.  0.
<mgrwt>
<rscale>  0 0.55966415E+03</rscale>
<asrwt>0</asrwt>
<pdfrwt beam="1">  1        2 0.87681760E-01 0.55966415E+03</pdfrwt>
<pdfrwt beam="2">  1       -2 0.18225928E-01 0.55966415E+03</pdfrwt>
<totfact> 0.13254108E+03</totfact>
</mgrwt>
</event>
<event>
 4    1  0.1869793E-005  0.4410246E+03  0.7818608E-02  0.1030433E+00
          2   -1    0    0  501    0  0.00000000000E+00  0.00000000000E+00  0.76473974017E+03  0.76473974017E+03  0.25500000000E-02 0.  1.
         -2   -1    0    0    0  501 -0.00000000000E+00 -0.00000000000E+00 -0.63584596978E+02  0.63584597029E+02  0.25500000000E-02 0. -1.
    5000001    1    1    2    0    0 -0.86631415926E+02  0.34005608266E+02  0.31477937784E+03  0.38385992280E+03  0.19900000000E+03 0.  0.
   -5000001    1    1    2    0    0  0.86631415926E+02 -0.34005608266E+02  0.38637576535E+03  0.44446441440E+03  0.19900000000E+03 0.  0.
<mgrwt>
<rscale>  0 0.44102457E+03</rscale>
<asrwt>0</asrwt>
<pdfrwt beam="1">  1        2 0.10924853E+00 0.44102457E+03</pdfrwt>
<pdfrwt beam="2">  1       -2 0.90835144E-02 0.44102457E+03</pdfrwt>
<totfact> 0.32089301E+03</totfact>
</mgrwt>
</event>
<event>
 4    1  0.1869793E-005  0.5855840E+03  0.7818608E-02  0.9935774E-01
         -2   -1    0    0    0  501 -0.00000000000E+00  0.00000000000E+00  0.11826577985E+03  0.11826577987E+03  0.25500000000E-02 0. -1.
          2   -1    0    0  501    0  0.00000000000E+00 -0.00000000000E+00 -0.72486876546E+03  0.72486876547E+03  0.25500000000E-02 0.  1.
    5000001    1    1    2    0    0  0.36406978386E+02  0.17326264975E+03 -0.47834901530E+03  0.54750725503E+03  0.19900000000E+03 0.  0.
   -5000001    1    1    2    0    0 -0.36406978386E+02 -0.17326264975E+03 -0.12825397032E+03  0.29562729031E+03  0.19900000000E+03 0.  0.
<mgrwt>
<rscale>  0 0.58558405E+03</rscale>
<asrwt>0</asrwt>
<pdfrwt beam="1">  1        2 0.10355268E+00 0.58558405E+03</pdfrwt>
<pdfrwt beam="2">  1       -2 0.16895112E-01 0.58558405E+03</pdfrwt>
<totfact> 0.12343955E+03</totfact>
</mgrwt>
</event>
<event>
 4    1  0.1869793E-005  0.4628059E+03  0.7818608E-02  0.1023971E+00
         -2   -1    0    0    0  501 -0.00000000000E+00  0.00000000000E+00  0.54187088442E+02  0.54187088502E+02  0.25500000000E-02 0. -1.
          2   -1    0    0  501    0  0.00000000000E+00 -0.00000000000E+00 -0.98819326399E+03  0.98819326400E+03  0.25500000000E-02 0.  1.
    5000001    1    1    2    0    0 -0.57840756648E+02 -0.86985136016E+02 -0.59107118448E+03  0.63235916388E+03  0.19900000000E+03 0.  0.
   -5000001    1    1    2    0    0  0.57840756648E+02  0.86985136016E+02 -0.34293499107E+03  0.41002118862E+03  0.19900000000E+03 0.  0.
<mgrwt>
<rscale>  0 0.46280586E+03</rscale>
<asrwt>0</asrwt>
<pdfrwt beam="1">  1        2 0.14117046E+00 0.46280586E+03</pdfrwt>
<pdfrwt beam="2">  1       -2 0.77410132E-02 0.46280586E+03</pdfrwt>
<totfact> 0.29600811E+03</totfact>
</mgrwt>
</event>
<event>
 4    1  0.1869793E-005  0.5750077E+03  0.7818608E-02  0.9958658E-01
          2   -1    0    0  501    0  0.00000000000E+00  0.00000000000E+00  0.72050237428E+03  0.72050237429E+03  0.25500000000E-02 0. -1.
         -2   -1    0    0    0  501 -0.00000000000E+00 -0.00000000000E+00 -0.11472336947E+03  0.11472336950E+03  0.25500000000E-02 0.  1.
    5000001    1    1    2    0    0 -0.18337367791E+03  0.30197622695E+02  0.16881651072E+03  0.32037137272E+03  0.19900000000E+03 0.  0.
   -5000001    1    1    2    0    0  0.18337367791E+03 -0.30197622695E+02  0.43696249409E+03  0.51485437107E+03  0.19900000000E+03 0.  0.
<mgrwt>
<rscale>  0 0.57500769E+03</rscale>
<asrwt>0</asrwt>
<pdfrwt beam="1">  1        2 0.10292891E+00 0.57500769E+03</pdfrwt>
<pdfrwt beam="2">  1       -2 0.16389053E-01 0.57500769E+03</pdfrwt>
<totfact> 0.13098248E+03</totfact>
</mgrwt>
</event>
<event>
 4    1  0.1869793E-005  0.9411293E+03  0.7818608E-02  0.9375580E-01
         -2   -1    0    0    0  501 -0.00000000000E+00  0.00000000000E+00  0.22132939736E+03  0.22132939737E+03  0.25500000000E-02 0. -1.
          2   -1    0    0  501    0  0.00000000000E+00 -0.00000000000E+00 -0.10004594292E+04  0.10004594292E+04  0.25500000000E-02 0.  1.
    5000001    1    1    2    0    0 -0.37595310161E+03 -0.84741544777E+02 -0.62649638527E+03  0.76198463553E+03  0.19900000000E+03 0.  0.
   -5000001    1    1    2    0    0  0.37595310161E+03  0.84741544777E+02 -0.15263364654E+03  0.45980419101E+03  0.19900000000E+03 0.  0.
<mgrwt>
<rscale>  0 0.94112928E+03</rscale>
<asrwt>0</asrwt>
<pdfrwt beam="1">  1        2 0.14292277E+00 0.94112928E+03</pdfrwt>
<pdfrwt beam="2">  1       -2 0.31618486E-01 0.94112928E+03</pdfrwt>
<totfact> 0.26032367E+02</totfact>
</mgrwt>
</event>
<event>
 4    1  0.1869793E-005  0.5264001E+03  0.7818608E-02  0.1007109E+00
         -2   -1    0    0    0  501 -0.00000000000E+00  0.00000000000E+00  0.38543306034E+02  0.38543306119E+02  0.25500000000E-02 0. -1.
          2   -1    0    0  501    0  0.00000000000E+00 -0.00000000000E+00 -0.17973100921E+04  0.17973100921E+04  0.25500000000E-02 0.  1.
    5000001    1    1    2    0    0 -0.68352126351E+02  0.86798224870E+02 -0.41845310039E+03  0.47635065051E+03  0.19900000000E+03 0.  0.
   -5000001    1    1    2    0    0  0.68352126351E+02 -0.86798224870E+02 -0.13403136857E+04  0.13595027477E+04  0.19900000000E+03 0.  0.
<mgrwt>
<rscale>  0 0.52640013E+03</rscale>
<asrwt>0</asrwt>
<pdfrwt beam="1">  1        2 0.25675853E+00 0.52640013E+03</pdfrwt>
<pdfrwt beam="2">  1       -2 0.55061877E-02 0.52640013E+03</pdfrwt>
<totfact> 0.18553816E+03</totfact>
</mgrwt>
</event>
<event>
 4    1  0.1869793E-005  0.4566779E+03  0.7818608E-02  0.1025749E+00
         -2   -1    0    0    0  501 -0.00000000000E+00  0.00000000000E+00  0.62007195127E+02  0.62007195179E+02  0.25500000000E-02 0.  1.
          2   -1    0    0  501    0  0.00000000000E+00 -0.00000000000E+00 -0.84084897478E+03  0.84084897478E+03  0.25500000000E-02 0. -1.
    5000001    1    1    2    0    0 -0.26986121710E+02 -0.10750576653E+03 -0.35804022374E+03  0.42435780000E+03  0.19900000000E+03 0.  0.
   -5000001    1    1    2    0    0  0.26986121710E+02  0.10750576653E+03 -0.42080155591E+03  0.47849836996E+03  0.19900000000E+03 0.  0.
<mgrwt>
<rscale>  0 0.45667795E+03</rscale>
<asrwt>0</asrwt>
<pdfrwt beam="1">  1        2 0.12012128E+00 0.45667795E+03</pdfrwt>
<pdfrwt beam="2">  1       -2 0.88581712E-02 0.45667795E+03</pdfrwt>
<totfact> 0.29632716E+03</totfact>
</mgrwt>
</event>
<event>
 4    1  0.1869793E-005  0.6981818E+03  0.7818608E-02  0.9720347E-01
          2   -1    0    0  501    0  0.00000000000E+00  0.00000000000E+00  0.47674443385E+03  0.47674443386E+03  0.25500000000E-02 0.  1.
         -2   -1    0    0    0  501 -0.00000000000E+00 -0.00000000000E+00 -0.25561797092E+03  0.25561797094E+03  0.25500000000E-02 0. -1.
    5000001    1    1    2    0    0  0.77721291241E+02 -0.64386040291E+02  0.39217885464E+03  0.45121105408E+03  0.19900000000E+03 0.  0.
   -5000001    1    1    2    0    0 -0.77721291241E+02  0.64386040291E+02 -0.17105239172E+03  0.28115135071E+03  0.19900000000E+03 0.  0.
<mgrwt>
<rscale>  0 0.69818177E+03</rscale>
<asrwt>0</asrwt>
<pdfrwt beam="1">  1        2 0.68106348E-01 0.69818177E+03</pdfrwt>
<pdfrwt beam="2">  1       -2 0.36516853E-01 0.69818177E+03</pdfrwt>
<totfact> 0.50359328E+02</totfact>
</mgrwt>
</event>
<event>
 4    1  0.1869793E-005  0.7646131E+03  0.7818608E-02  0.9612700E-01
         -2   -1    0    0    0  501 -0.00000000000E+00  0.00000000000E+00  0.61573507195E+02  0.61573507248E+02  0.25500000000E-02 0. -1.
          2   -1    0    0  501    0  0.00000000000E+00 -0.00000000000E+00 -0.23737204226E+04  0.23737204226E+04  0.25500000000E-02 0.  1.
    5000001    1    1    2    0    0 -0.15171172535E+03 -0.19259127737E+03 -0.18425092506E+04  0.18693713345E+04  0.19900000000E+03 0.  0.
   -5000001    1    1    2    0    0  0.15171172535E+03  0.19259127737E+03 -0.46963766485E+03  0.56592259539E+03  0.19900000000E+03 0.  0.
<mgrwt>
<rscale>  0 0.76461308E+03</rscale>
<asrwt>0</asrwt>
<pdfrwt beam="1">  1        2 0.33910286E+00 0.76461308E+03</pdfrwt>
<pdfrwt beam="2">  1       -2 0.87962168E-02 0.76461308E+03</pdfrwt>
<totfact> 0.44610232E+02</totfact>
</mgrwt>
</event>
<event>
 4    1  0.1869793E-005  0.5564865E+03  0.7818608E-02  0.1000004E+00
          2   -1    0    0  501    0  0.00000000000E+00  0.00000000000E+00  0.83582449316E+03  0.83582449317E+03  0.25500000000E-02 0.  1.
         -2   -1    0    0    0  501 -0.00000000000E+00 -0.00000000000E+00 -0.92626282343E+02  0.92626282378E+02  0.25500000000E-02 0. -1.
    5000001    1    1    2    0    0 -0.11245407026E+03  0.10605198537E+03  0.56848185136E+03  0.62182437782E+03  0.19900000000E+03 0.  0.
   -5000001    1    1    2    0    0  0.11245407026E+03 -0.10605198537E+03  0.17471635945E+03  0.30662639772E+03  0.19900000000E+03 0.  0.
<mgrwt>
<rscale>  0 0.55648653E+03</rscale>
<asrwt>0</asrwt>
<pdfrwt beam="1">  1        2 0.11940350E+00 0.55648653E+03</pdfrwt>
<pdfrwt beam="2">  1       -2 0.13232326E-01 0.55648653E+03</pdfrwt>
<totfact> 0.15554148E+03</totfact>
</mgrwt>
</event>
<event>
 4    1  0.1869793E-005  0.4712019E+03  0.7818608E-02  0.1021582E+00
         -2   -1    0    0    0  501 -0.00000000000E+00  0.00000000000E+00  0.26473705357E+02  0.26473705480E+02  0.25500000000E-02 0. -1.
          2   -1    0    0  501    0  0.00000000000E+00 -0.00000000000E+00 -0.20967147169E+04  0.20967147169E+04  0.25500000000E-02 0.  1.
    5000001    1    1    2    0    0  0.15387970989E+02  0.12415680671E+03 -0.96315218305E+03  0.99142061206E+03  0.19900000000E+03 0.  0.
   -5000001    1    1    2    0    0 -0.15387970989E+02 -0.12415680671E+03 -0.11070888285E+04  0.11317678103E+04  0.19900000000E+03 0.  0.
<mgrwt>
<rscale>  0 0.47120190E+03</rscale>
<asrwt>0</asrwt>
<pdfrwt beam="1">  1        2 0.29953057E+00 0.47120190E+03</pdfrwt>
<pdfrwt beam="2">  1       -2 0.37819592E-02 0.47120190E+03</pdfrwt>
<totfact> 0.23484774E+03</totfact>
</mgrwt>
</event>
<event>
 4    1  0.1869793E-005  0.4489767E+03  0.7818608E-02  0.1028028E+00
          2   -1    0    0  501    0  0.00000000000E+00  0.00000000000E+00  0.14112052678E+04  0.14112052678E+04  0.25500000000E-02 0.  1.
         -2   -1    0    0    0  501 -0.00000000000E+00 -0.00000000000E+00 -0.35710625288E+02  0.35710625379E+02  0.25500000000E-02 0. -1.
    5000001    1    1    2    0    0  0.83615517286E+02 -0.61404151832E+02  0.70597707778E+03  0.74078786366E+03  0.19900000000E+03 0.  0.
   -5000001    1    1    2    0    0 -0.83615517286E+02  0.61404151832E+02  0.66951756475E+03  0.70612802954E+03  0.19900000000E+03 0.  0.
<mgrwt>
<rscale>  0 0.44897671E+03</rscale>
<asrwt>0</asrwt>
<pdfrwt beam="1">  1        2 0.20160073E+00 0.44897671E+03</pdfrwt>
<pdfrwt beam="2">  1       -2 0.51015184E-02 0.44897671E+03</pdfrwt>
<totfact> 0.32941533E+03</totfact>
</mgrwt>
</event>
<event>
 4    1  0.1869793E-005  0.7579994E+03  0.7818608E-02  0.9622883E-01
          2   -1    0    0  501    0  0.00000000000E+00  0.00000000000E+00  0.34879111904E+03  0.34879111905E+03  0.25500000000E-02 0.  1.
         -2   -1    0    0    0  501 -0.00000000000E+00 -0.00000000000E+00 -0.41182463248E+03  0.41182463248E+03  0.25500000000E-02 0. -1.
    5000001    1    1    2    0    0 -0.18014240590E+03  0.25769949201E+02 -0.29875233585E+03  0.40245414007E+03  0.19900000000E+03 0.  0.
   -5000001    1    1    2    0    0  0.18014240590E+03 -0.25769949201E+02  0.23571882242E+03  0.35816161147E+03  0.19900000000E+03 0.  0.
<mgrwt>
<rscale>  0 0.75799940E+03</rscale>
<asrwt>0</asrwt>
<pdfrwt beam="1">  1        2 0.49827303E-01 0.75799940E+03</pdfrwt>
<pdfrwt beam="2">  1       -2 0.58832090E-01 0.75799940E+03</pdfrwt>
<totfact> 0.27434567E+02</totfact>
</mgrwt>
</event>
<event>
 4    1  0.1869793E-005  0.5452943E+03  0.7818608E-02  0.1002589E+00
         -2   -1    0    0    0  501 -0.00000000000E+00  0.00000000000E+00  0.38190734992E+02  0.38190735078E+02  0.25500000000E-02 0. -1.
          2   -1    0    0  501    0  0.00000000000E+00 -0.00000000000E+00 -0.19464528408E+04  0.19464528408E+04  0.25500000000E-02 0.  1.
    5000001    1    1    2    0    0  0.12552428278E+03  0.13706145497E+03 -0.10047299822E+04  0.10409733547E+04  0.19900000000E+03 0.  0.
   -5000001    1    1    2    0    0 -0.12552428278E+03 -0.13706145497E+03 -0.90353212366E+03  0.94367022126E+03  0.19900000000E+03 0.  0.
<mgrwt>
<rscale>  0 0.54529429E+03</rscale>
<asrwt>0</asrwt>
<pdfrwt beam="1">  1        2 0.27806463E+00 0.54529429E+03</pdfrwt>
<pdfrwt beam="2">  1       -2 0.54558205E-02 0.54529429E+03</pdfrwt>
<totfact> 0.15830692E+03</totfact>
</mgrwt>
</event>
<event>
 4    1  0.1869793E-005  0.5130217E+03  0.7818608E-02  0.1010435E+00
         -2   -1    0    0    0  501 -0.00000000000E+00  0.00000000000E+00  0.82671575389E+02  0.82671575429E+02  0.25500000000E-02 0. -1.
          2   -1    0    0  501    0  0.00000000000E+00 -0.00000000000E+00 -0.79589395333E+03  0.79589395333E+03  0.25500000000E-02 0.  1.
    5000001    1    1    2    0    0 -0.13187740081E+03 -0.93330339051E+02 -0.33995415445E+03  0.42576052912E+03  0.19900000000E+03 0.  0.
   -5000001    1    1    2    0    0  0.13187740081E+03  0.93330339051E+02 -0.37326822349E+03  0.45280499964E+03  0.19900000000E+03 0.  0.
<mgrwt>
<rscale>  0 0.51302166E+03</rscale>
<asrwt>0</asrwt>
<pdfrwt beam="1">  1        2 0.11369913E+00 0.51302166E+03</pdfrwt>
<pdfrwt beam="2">  1       -2 0.11810226E-01 0.51302166E+03</pdfrwt>
<totfact> 0.19978984E+03</totfact>
</mgrwt>
</event>
<event>
 4    1  0.1869793E-005  0.1957806E+04  0.7818608E-02  0.8626606E-01
          2   -1    0    0  501    0  0.00000000000E+00  0.00000000000E+00  0.51520470459E+03  0.51520470460E+03  0.25500000000E-02 0.  1.
         -2   -1    0    0    0  501 -0.00000000000E+00 -0.00000000000E+00 -0.18599431022E+04  0.18599431022E+04  0.25500000000E-02 0. -1.
    5000001    1    1    2    0    0  0.14777398569E+02  0.90077376580E+03 -0.27545988105E+03  0.96285559391E+03  0.19900000000E+03 0.  0.
   -5000001    1    1    2    0    0 -0.14777398569E+02 -0.90077376580E+03 -0.10692785166E+04  0.14122922129E+04  0.19900000000E+03 0.  0.
<mgrwt>
<rscale>  0 0.19578064E+04</rscale>
<asrwt>0</asrwt>
<pdfrwt beam="1">  1        2 0.73600673E-01 0.19578064E+04</pdfrwt>
<pdfrwt beam="2">  1       -2 0.26570615E+00 0.19578064E+04</pdfrwt>
<totfact> 0.31239331E+00</totfact>
</mgrwt>
</event>
<event>
 4    1  0.1869793E-005  0.5998492E+03  0.7818608E-02  0.9905719E-01
          2   -1    0    0  501    0  0.00000000000E+00  0.00000000000E+00  0.37382649090E+03  0.37382649091E+03  0.25500000000E-02 0.  1.
         -2   -1    0    0    0  501 -0.00000000000E+00 -0.00000000000E+00 -0.24063240064E+03  0.24063240066E+03  0.25500000000E-02 0. -1.
    5000001    1    1    2    0    0 -0.15554040766E+03 -0.16031744669E+03  0.44644652642E+02  0.30247090296E+03  0.19900000000E+03 0.  0.
   -5000001    1    1    2    0    0  0.15554040766E+03  0.16031744669E+03  0.88549437611E+02  0.31198798860E+03  0.19900000000E+03 0.  0.
<mgrwt>
<rscale>  0 0.59984920E+03</rscale>
<asrwt>0</asrwt>
<pdfrwt beam="1">  1        2 0.53403784E-01 0.59984920E+03</pdfrwt>
<pdfrwt beam="2">  1       -2 0.34376057E-01 0.59984920E+03</pdfrwt>
<totfact> 0.74313236E+02</totfact>
</mgrwt>
</event>
<event>
 4    1  0.1869793E-005  0.5347675E+03  0.7818608E-02  0.1005082E+00
          2   -1    0    0  501    0  0.00000000000E+00  0.00000000000E+00  0.81659070067E+03  0.81659070067E+03  0.25500000000E-02 0.  1.
         -2   -1    0    0    0  501 -0.00000000000E+00 -0.00000000000E+00 -0.87551888262E+02  0.87551888299E+02  0.25500000000E-02 0. -1.
    5000001    1    1    2    0    0  0.12197619781E+03 -0.12152459802E+03  0.44465739066E+03  0.51668909009E+03  0.19900000000E+03 0.  0.
   -5000001    1    1    2    0    0 -0.12197619781E+03  0.12152459802E+03  0.28438142175E+03  0.38745349888E+03  0.19900000000E+03 0.  0.
<mgrwt>
<rscale>  0 0.53476746E+03</rscale>
<asrwt>0</asrwt>
<pdfrwt beam="1">  1        2 0.11665581E+00 0.53476746E+03</pdfrwt>
<pdfrwt beam="2">  1       -2 0.12507413E-01 0.53476746E+03</pdfrwt>
<totfact> 0.17595656E+03</totfact>
</mgrwt>
</event>
<event>
 4    1  0.1869793E-005  0.7744194E+03  0.7818608E-02  0.9597800E-01
          2   -1    0    0  501    0  0.00000000000E+00  0.00000000000E+00  0.13892557659E+04  0.13892557659E+04  0.25500000000E-02 0.  1.
         -2   -1    0    0    0  501 -0.00000000000E+00 -0.00000000000E+00 -0.10792207397E+03  0.10792207400E+03  0.25500000000E-02 0. -1.
    5000001    1    1    2    0    0 -0.13392667241E+03 -0.29406912226E+03  0.49194964829E+03  0.62131188521E+03  0.19900000000E+03 0.  0.
   -5000001    1    1    2    0    0  0.13392667241E+03  0.29406912226E+03  0.78938404366E+03  0.87586595472E+03  0.19900000000E+03 0.  0.
<mgrwt>
<rscale>  0 0.77441943E+03</rscale>
<asrwt>0</asrwt>
<pdfrwt beam="1">  1        2 0.19846509E+00 0.77441943E+03</pdfrwt>
<pdfrwt beam="2">  1       -2 0.15417441E-01 0.77441943E+03</pdfrwt>
<totfact> 0.56460182E+02</totfact>
</mgrwt>
</event>
<event>
 4    1  0.1869793E-005  0.6097355E+03  0.7818608E-02  0.9885411E-01
          2   -1    0    0  501    0  0.00000000000E+00  0.00000000000E+00  0.14747664093E+04  0.14747664093E+04  0.25500000000E-02 0. -1.
         -2   -1    0    0    0  501 -0.00000000000E+00 -0.00000000000E+00 -0.63023088290E+02  0.63023088341E+02  0.25500000000E-02 0.  1.
    5000001    1    1    2    0    0  0.19023207804E+03 -0.11653676002E+03  0.55508971618E+03  0.63047177016E+03  0.19900000000E+03 0.  0.
   -5000001    1    1    2    0    0 -0.19023207804E+03  0.11653676002E+03  0.85665360484E+03  0.90731772750E+03  0.19900000000E+03 0.  0.
<mgrwt>
<rscale>  0 0.60973546E+03</rscale>
<asrwt>0</asrwt>
<pdfrwt beam="1">  1        2 0.21068092E+00 0.60973546E+03</pdfrwt>
<pdfrwt beam="2">  1       -2 0.90032983E-02 0.60973546E+03</pdfrwt>
<totfact> 0.12439200E+03</totfact>
</mgrwt>
</event>
<event>
 4    1  0.1869793E-005  0.2437124E+04  0.7818608E-02  0.8425734E-01
         -2   -1    0    0    0  501 -0.00000000000E+00  0.00000000000E+00  0.17368286474E+04  0.17368286474E+04  0.25500000000E-02 0. -1.
          2   -1    0    0  501    0  0.00000000000E+00 -0.00000000000E+00 -0.85494522879E+03  0.85494522879E+03  0.25500000000E-02 0.  1.
    5000001    1    1    2    0    0 -0.15432021748E+03 -0.11381514497E+04  0.63319151076E+02  0.11673961482E+04  0.19900000000E+03 0.  0.
   -5000001    1    1    2    0    0  0.15432021748E+03  0.11381514497E+04  0.81856426752E+03  0.14243777280E+04  0.19900000000E+03 0.  0.
<mgrwt>
<rscale>  0 0.24371240E+04</rscale>
<asrwt>0</asrwt>
<pdfrwt beam="1">  1        2 0.12213503E+00 0.24371240E+04</pdfrwt>
<pdfrwt beam="2">  1       -2 0.24811838E+00 0.24371240E+04</pdfrwt>
<totfact> 0.20711626E+00</totfact>
</mgrwt>
</event>
<event>
 4    1  0.1869793E-005  0.4722829E+03  0.7818608E-02  0.1021278E+00
          2   -1    0    0  501    0  0.00000000000E+00  0.00000000000E+00  0.46647099704E+03  0.46647099705E+03  0.25500000000E-02 0.  1.
         -2   -1    0    0    0  501 -0.00000000000E+00 -0.00000000000E+00 -0.11954178425E+03  0.11954178428E+03  0.25500000000E-02 0. -1.
    5000001    1    1    2    0    0 -0.27233322611E+02  0.11840050906E+03  0.12701390295E+03  0.26550680961E+03  0.19900000000E+03 0.  0.
   -5000001    1    1    2    0    0  0.27233322611E+02 -0.11840050906E+03  0.21991530984E+03  0.32050597172E+03  0.19900000000E+03 0.  0.
<mgrwt>
<rscale>  0 0.47228286E+03</rscale>
<asrwt>0</asrwt>
<pdfrwt beam="1">  1        2 0.66638714E-01 0.47228286E+03</pdfrwt>
<pdfrwt beam="2">  1       -2 0.17077398E-01 0.47228286E+03</pdfrwt>
<totfact> 0.20281289E+03</totfact>
</mgrwt>
</event>
<event>
 4    1  0.1869793E-005  0.5566537E+03  0.7818608E-02  0.9999655E-01
          2   -1    0    0  501    0  0.00000000000E+00  0.00000000000E+00  0.43608401684E+03  0.43608401685E+03  0.25500000000E-02 0.  1.
         -2   -1    0    0    0  501 -0.00000000000E+00 -0.00000000000E+00 -0.17763968573E+03  0.17763968575E+03  0.25500000000E-02 0. -1.
    5000001    1    1    2    0    0  0.13203273289E+03 -0.60195581595E+02 -0.13718100243E+02  0.24666847564E+03  0.19900000000E+03 0.  0.
   -5000001    1    1    2    0    0 -0.13203273289E+03  0.60195581595E+02  0.27216243135E+03  0.36705522696E+03  0.19900000000E+03 0.  0.
<mgrwt>
<rscale>  0 0.55665367E+03</rscale>
<asrwt>0</asrwt>
<pdfrwt beam="1">  1        2 0.62297717E-01 0.55665367E+03</pdfrwt>
<pdfrwt beam="2">  1       -2 0.25377098E-01 0.55665367E+03</pdfrwt>
<totfact> 0.10955687E+03</totfact>
</mgrwt>
</event>
<event>
 4    1  0.1869793E-005  0.4230371E+03  0.7818608E-02  0.1036082E+00
         -2   -1    0    0    0  501 -0.00000000000E+00  0.00000000000E+00  0.15186092667E+03  0.15186092670E+03  0.25500000000E-02 0. -1.
          2   -1    0    0  501    0  0.00000000000E+00 -0.00000000000E+00 -0.29461224613E+03  0.29461224614E+03  0.25500000000E-02 0.  1.
    5000001    1    1    2    0    0  0.47778761952E+02  0.51182610038E+02 -0.87610267691E+02  0.22842729405E+03  0.19900000000E+03 0.  0.
   -5000001    1    1    2    0    0 -0.47778761952E+02 -0.51182610038E+02 -0.55141051762E+02  0.21804587878E+03  0.19900000000E+03 0.  0.
<mgrwt>
<rscale>  0 0.42303706E+03</rscale>
<asrwt>0</asrwt>
<pdfrwt beam="1">  1        2 0.42087464E-01 0.42303706E+03</pdfrwt>
<pdfrwt beam="2">  1       -2 0.21694418E-01 0.42303706E+03</pdfrwt>
<totfact> 0.22239854E+03</totfact>
</mgrwt>
</event>
<event>
 4    1  0.1869793E-005  0.6361061E+03  0.7818608E-02  0.9833205E-01
          2   -1    0    0  501    0  0.00000000000E+00  0.00000000000E+00  0.21358333876E+04  0.21358333876E+04  0.25500000000E-02 0.  1.
         -2   -1    0    0    0  501 -0.00000000000E+00 -0.00000000000E+00 -0.47362187470E+02  0.47362187539E+02  0.25500000000E-02 0. -1.
    5000001    1    1    2    0    0 -0.38758278968E+02  0.23729978763E+03  0.83424822454E+03  0.89072133327E+03  0.19900000000E+03 0.  0.
   -5000001    1    1    2    0    0  0.38758278968E+02 -0.23729978763E+03  0.12542229755E+04  0.12924742418E+04  0.19900000000E+03 0.  0.
<mgrwt>
<rscale>  0 0.63610610E+03</rscale>
<asrwt>0</asrwt>
<pdfrwt beam="1">  1        2 0.30511902E+00 0.63610610E+03</pdfrwt>
<pdfrwt beam="2">  1       -2 0.67660276E-02 0.63610610E+03</pdfrwt>
<totfact> 0.90331674E+02</totfact>
</mgrwt>
</event>
<event>
 4    1  0.1869793E-005  0.4752555E+03  0.7818608E-02  0.1020447E+00
          2   -1    0    0  501    0  0.00000000000E+00  0.00000000000E+00  0.82121343502E+02  0.82121343542E+02  0.25500000000E-02 0.  1.
         -2   -1    0    0    0  501 -0.00000000000E+00 -0.00000000000E+00 -0.68760365982E+03  0.68760365983E+03  0.25500000000E-02 0. -1.
    5000001    1    1    2    0    0  0.10831419365E+03  0.63358028738E+02 -0.35693694575E+03  0.42749407902E+03  0.19900000000E+03 0.  0.
   -5000001    1    1    2    0    0 -0.10831419365E+03 -0.63358028738E+02 -0.24854537057E+03  0.34223092435E+03  0.19900000000E+03 0.  0.
<mgrwt>
<rscale>  0 0.47525545E+03</rscale>
<asrwt>0</asrwt>
<pdfrwt beam="1">  1        2 0.11731621E-01 0.47525545E+03</pdfrwt>
<pdfrwt beam="2">  1       -2 0.98229091E-01 0.47525545E+03</pdfrwt>
<totfact> 0.47239952E+02</totfact>
</mgrwt>
</event>
<event>
 4    1  0.1869793E-005  0.7014816E+03  0.7818608E-02  0.9714702E-01
         -2   -1    0    0    0  501 -0.00000000000E+00  0.00000000000E+00  0.33738146218E+02  0.33738146315E+02  0.25500000000E-02 0. -1.
          2   -1    0    0  501    0  0.00000000000E+00 -0.00000000000E+00 -0.36462914455E+04  0.36462914455E+04  0.25500000000E-02 0.  1.
    5000001    1    1    2    0    0 -0.13106573427E+02 -0.27052056956E+03 -0.12799675247E+04  0.13233559707E+04  0.19900000000E+03 0.  0.
   -5000001    1    1    2    0    0  0.13106573427E+02  0.27052056956E+03 -0.23325857745E+04  0.23566736211E+04  0.19900000000E+03 0.  0.
<mgrwt>
<rscale>  0 0.70148162E+03</rscale>
<asrwt>0</asrwt>
<pdfrwt beam="1">  1        2 0.52089853E+00 0.70148162E+03</pdfrwt>
<pdfrwt beam="2">  1       -2 0.48197375E-02 0.70148162E+03</pdfrwt>
<totfact> 0.22968771E+02</totfact>
</mgrwt>
</event>
<event>
 4    1  0.1869793E-005  0.5486365E+03  0.7818608E-02  0.1001810E+00
          2   -1    0    0  501    0  0.00000000000E+00  0.00000000000E+00  0.48033637829E+03  0.48033637830E+03  0.25500000000E-02 0.  1.
         -2   -1    0    0    0  501 -0.00000000000E+00 -0.00000000000E+00 -0.15666209270E+03  0.15666209272E+03  0.25500000000E-02 0. -1.
    5000001    1    1    2    0    0  0.10914859536E+03  0.15308542038E+03  0.18197874257E+03  0.32873366811E+03  0.19900000000E+03 0.  0.
   -5000001    1    1    2    0    0 -0.10914859536E+03 -0.15308542038E+03  0.14169554302E+03  0.30826480291E+03  0.19900000000E+03 0.  0.
<mgrwt>
<rscale>  0 0.54863650E+03</rscale>
<asrwt>0</asrwt>
<pdfrwt beam="1">  1        2 0.68619484E-01 0.54863650E+03</pdfrwt>
<pdfrwt beam="2">  1       -2 0.22380299E-01 0.54863650E+03</pdfrwt>
<totfact> 0.12294680E+03</totfact>
</mgrwt>
</event>
<event>
 4    1  0.1869793E-005  0.8368003E+03  0.7818608E-02  0.9508226E-01
         -2   -1    0    0    0  501 -0.00000000000E+00  0.00000000000E+00  0.15724913856E+04  0.15724913856E+04  0.25500000000E-02 0. -1.
          2   -1    0    0  501    0  0.00000000000E+00 -0.00000000000E+00 -0.11132568822E+03  0.11132568825E+03  0.25500000000E-02 0.  1.
    5000001    1    1    2    0    0 -0.90189317810E+02 -0.17630960528E+03  0.13548169566E+04  0.13836000780E+04  0.19900000000E+03 0.  0.
   -5000001    1    1    2    0    0  0.90189317810E+02  0.17630960528E+03  0.10634874087E+03  0.30021699593E+03  0.19900000000E+03 0.  0.
<mgrwt>
<rscale>  0 0.83680030E+03</rscale>
<asrwt>0</asrwt>
<pdfrwt beam="1">  1        2 0.15903670E-01 0.83680030E+03</pdfrwt>
<pdfrwt beam="2">  1       -2 0.22464163E+00 0.83680030E+03</pdfrwt>
<totfact> 0.35065891E+01</totfact>
</mgrwt>
</event>
<event>
 4    1  0.1869793E-005  0.4606673E+03  0.7818608E-02  0.1024588E+00
         -2   -1    0    0    0  501 -0.00000000000E+00  0.00000000000E+00  0.11682279487E+03  0.11682279490E+03  0.25500000000E-02 0. -1.
          2   -1    0    0  501    0  0.00000000000E+00 -0.00000000000E+00 -0.45413726097E+03  0.45413726098E+03  0.25500000000E-02 0.  1.
    5000001    1    1    2    0    0  0.11005890564E+03  0.36600837981E+02 -0.16864960214E+03  0.28547551971E+03  0.19900000000E+03 0.  0.
   -5000001    1    1    2    0    0 -0.11005890564E+03 -0.36600837981E+02 -0.16866486396E+03  0.28548453616E+03  0.19900000000E+03 0.  0.
<mgrwt>
<rscale>  0 0.46066727E+03</rscale>
<asrwt>0</asrwt>
<pdfrwt beam="1">  1        2 0.64876751E-01 0.46066727E+03</pdfrwt>
<pdfrwt beam="2">  1       -2 0.16688971E-01 0.46066727E+03</pdfrwt>
<totfact> 0.21723948E+03</totfact>
</mgrwt>
</event>
<event>
 4    1  0.1869793E-005  0.6345598E+03  0.7818608E-02  0.9836191E-01
          2   -1    0    0  501    0  0.00000000000E+00  0.00000000000E+00  0.13100537823E+03  0.13100537826E+03  0.25500000000E-02 0.  1.
         -2   -1    0    0    0  501 -0.00000000000E+00 -0.00000000000E+00 -0.76841523919E+03  0.76841523920E+03  0.25500000000E-02 0. -1.
    5000001    1    1    2    0    0  0.20316807962E+03 -0.98281148440E+02 -0.46135606107E+03  0.55080565339E+03  0.19900000000E+03 0.  0.
   -5000001    1    1    2    0    0 -0.20316807962E+03  0.98281148440E+02 -0.17605379989E+03  0.34861496407E+03  0.19900000000E+03 0.  0.
<mgrwt>
<rscale>  0 0.63455978E+03</rscale>
<asrwt>0</asrwt>
<pdfrwt beam="1">  1        2 0.18715054E-01 0.63455978E+03</pdfrwt>
<pdfrwt beam="2">  1       -2 0.10977360E+00 0.63455978E+03</pdfrwt>
<totfact> 0.20535896E+02</totfact>
</mgrwt>
</event>
<event>
 4    1  0.1869793E-005  0.5034240E+03  0.7818608E-02  0.1012889E+00
          2   -1    0    0  501    0  0.00000000000E+00  0.00000000000E+00  0.78200972217E+02  0.78200972259E+02  0.25500000000E-02 0.  1.
         -2   -1    0    0    0  501 -0.00000000000E+00 -0.00000000000E+00 -0.81020629343E+03  0.81020629343E+03  0.25500000000E-02 0. -1.
    5000001    1    1    2    0    0  0.77478720711E+02 -0.94038214223E+02 -0.53259709943E+03  0.58146952475E+03  0.19900000000E+03 0.  0.
   -5000001    1    1    2    0    0 -0.77478720711E+02  0.94038214223E+02 -0.19940822178E+03  0.30693774094E+03  0.19900000000E+03 0.  0.
<mgrwt>
<rscale>  0 0.50342396E+03</rscale>
<asrwt>0</asrwt>
<pdfrwt beam="1">  1        2 0.11171568E-01 0.50342396E+03</pdfrwt>
<pdfrwt beam="2">  1       -2 0.11574375E+00 0.50342396E+03</pdfrwt>
<totfact> 0.33934717E+02</totfact>
</mgrwt>
</event>
<event>
 4    1  0.1869793E-005  0.5225641E+03  0.7818608E-02  0.1008052E+00
          2   -1    0    0  501    0  0.00000000000E+00  0.00000000000E+00  0.26987633652E+04  0.26987633653E+04  0.25500000000E-02 0.  1.
         -2   -1    0    0    0  501 -0.00000000000E+00 -0.00000000000E+00 -0.25296148771E+02  0.25296148900E+02  0.25500000000E-02 0. -1.
    5000001    1    1    2    0    0 -0.68002210991E+02 -0.15462153007E+03  0.13973468824E+04  0.14215172978E+04  0.19900000000E+03 0.  0.
   -5000001    1    1    2    0    0  0.68002210991E+02  0.15462153007E+03  0.12761203341E+04  0.13025422163E+04  0.19900000000E+03 0.  0.
<mgrwt>
<rscale>  0 0.52256414E+03</rscale>
<asrwt>0</asrwt>
<pdfrwt beam="1">  1        2 0.38553748E+00 0.52256414E+03</pdfrwt>
<pdfrwt beam="2">  1       -2 0.36137369E-02 0.52256414E+03</pdfrwt>
<totfact> 0.12424328E+03</totfact>
</mgrwt>
</event>
<event>
 4    1  0.1869793E-005  0.6233620E+03  0.7818608E-02  0.9858089E-01
         -2   -1    0    0    0  501 -0.00000000000E+00  0.00000000000E+00  0.11557561738E+03  0.11557561741E+03  0.25500000000E-02 0. -1.
          2   -1    0    0  501    0  0.00000000000E+00 -0.00000000000E+00 -0.84053240137E+03  0.84053240137E+03  0.25500000000E-02 0.  1.
    5000001    1    1    2    0    0 -0.44153493071E+02 -0.22555472279E+03 -0.25710799012E+03  0.39815823802E+03  0.19900000000E+03 0.  0.
   -5000001    1    1    2    0    0  0.44153493071E+02  0.22555472279E+03 -0.46784879387E+03  0.55794978076E+03  0.19900000000E+03 0.  0.
<mgrwt>
<rscale>  0 0.62336202E+03</rscale>
<asrwt>0</asrwt>
<pdfrwt beam="1">  1        2 0.12007605E+00 0.62336202E+03</pdfrwt>
<pdfrwt beam="2">  1       -2 0.16510803E-01 0.62336202E+03</pdfrwt>
<totfact> 0.10633964E+03</totfact>
</mgrwt>
</event>
<event>
 4    1  0.1869793E-005  0.9285629E+03  0.7818608E-02  0.9390564E-01
          2   -1    0    0  501    0  0.00000000000E+00  0.00000000000E+00  0.60991162306E+03  0.60991162306E+03  0.25500000000E-02 0.  1.
         -2   -1    0    0    0  501 -0.00000000000E+00 -0.00000000000E+00 -0.35342376662E+03  0.35342376663E+03  0.25500000000E-02 0. -1.
    5000001    1    1    2    0    0  0.32412968704E+03 -0.15050955489E+03 -0.99624268746E+02  0.42099783260E+03  0.19900000000E+03 0.  0.
   -5000001    1    1    2    0    0 -0.32412968704E+03  0.15050955489E+03  0.35611212518E+03  0.54233755709E+03  0.19900000000E+03 0.  0.
<mgrwt>
<rscale>  0 0.92856290E+03</rscale>
<asrwt>0</asrwt>
<pdfrwt beam="1">  1        2 0.87130232E-01 0.92856290E+03</pdfrwt>
<pdfrwt beam="2">  1       -2 0.50489109E-01 0.92856290E+03</pdfrwt>
<totfact> 0.19771338E+02</totfact>
</mgrwt>
</event>
<event>
 4    1  0.1869793E-005  0.4598836E+03  0.7818608E-02  0.1024815E+00
         -2   -1    0    0    0  501 -0.00000000000E+00  0.00000000000E+00  0.76632189473E+02  0.76632189516E+02  0.25500000000E-02 0. -1.
          2   -1    0    0  501    0  0.00000000000E+00 -0.00000000000E+00 -0.68996099492E+03  0.68996099492E+03  0.25500000000E-02 0.  1.
    5000001    1    1    2    0    0  0.62971309785E+02  0.72282829740E+02 -0.41316574488E+03  0.46850520389E+03  0.19900000000E+03 0.  0.
   -5000001    1    1    2    0    0 -0.62971309785E+02 -0.72282829740E+02 -0.20016306056E+03  0.29808798054E+03  0.19900000000E+03 0.  0.
<mgrwt>
<rscale>  0 0.45988356E+03</rscale>
<asrwt>0</asrwt>
<pdfrwt beam="1">  1        2 0.98565852E-01 0.45988356E+03</pdfrwt>
<pdfrwt beam="2">  1       -2 0.10947456E-01 0.45988356E+03</pdfrwt>
<totfact> 0.26963073E+03</totfact>
</mgrwt>
</event>
<event>
 4    1  0.1869793E-005  0.4716477E+03  0.7818608E-02  0.1021456E+00
          2   -1    0    0  501    0  0.00000000000E+00  0.00000000000E+00  0.44056360200E+04  0.44056360200E+04  0.25500000000E-02 0.  1.
         -2   -1    0    0    0  501 -0.00000000000E+00 -0.00000000000E+00 -0.12623124362E+02  0.12623124619E+02  0.25500000000E-02 0. -1.
    5000001    1    1    2    0    0  0.78486633072E+02 -0.75263429948E+02  0.15903383926E+04  0.16064252047E+04  0.19900000000E+03 0.  0.
   -5000001    1    1    2    0    0 -0.78486633072E+02  0.75263429948E+02  0.28026745031E+04  0.28118339400E+04  0.19900000000E+03 0.  0.
<mgrwt>
<rscale>  0 0.47164772E+03</rscale>
<asrwt>0</asrwt>
<pdfrwt beam="1">  1        2 0.62937722E+00 0.47164772E+03</pdfrwt>
<pdfrwt beam="2">  1       -2 0.18033016E-02 0.47164772E+03</pdfrwt>
<totfact> 0.32568512E+02</totfact>
</mgrwt>
</event>
<event>
 4    1  0.1869793E-005  0.4682200E+03  0.7818608E-02  0.1022424E+00
          2   -1    0    0  501    0  0.00000000000E+00  0.00000000000E+00  0.93477856792E+03  0.93477856792E+03  0.25500000000E-02 0.  1.
         -2   -1    0    0    0  501 -0.00000000000E+00 -0.00000000000E+00 -0.58631518404E+02  0.58631518460E+02  0.25500000000E-02 0. -1.
    5000001    1    1    2    0    0  0.86537467684E+02 -0.62911837740E+02  0.30797746976E+03  0.38196564573E+03  0.19900000000E+03 0.  0.
   -5000001    1    1    2    0    0 -0.86537467684E+02  0.62911837740E+02  0.56816957975E+03  0.61144444065E+03  0.19900000000E+03 0.  0.
<mgrwt>
<rscale>  0 0.46821998E+03</rscale>
<asrwt>0</asrwt>
<pdfrwt beam="1">  1        2 0.13353979E+00 0.46821998E+03</pdfrwt>
<pdfrwt beam="2">  1       -2 0.83759313E-02 0.46821998E+03</pdfrwt>
<totfact> 0.28182439E+03</totfact>
</mgrwt>
</event>
<event>
 4    1  0.1869793E-005  0.1226766E+04  0.7818608E-02  0.9089746E-01
         -2   -1    0    0    0  501 -0.00000000000E+00  0.00000000000E+00  0.62942219967E+03  0.62942219967E+03  0.25500000000E-02 0. -1.
          2   -1    0    0  501    0  0.00000000000E+00 -0.00000000000E+00 -0.59775206759E+03  0.59775206760E+03  0.25500000000E-02 0.  1.
    5000001    1    1    2    0    0 -0.51165494595E+03 -0.85337099521E+02  0.27585284637E+03  0.62029750694E+03  0.19900000000E+03 0.  0.
   -5000001    1    1    2    0    0  0.51165494595E+03  0.85337099521E+02 -0.24418271430E+03  0.60687676033E+03  0.19900000000E+03 0.  0.
<mgrwt>
<rscale>  0 0.12267655E+04</rscale>
<asrwt>0</asrwt>
<pdfrwt beam="1">  1        2 0.85393153E-01 0.12267655E+04</pdfrwt>
<pdfrwt beam="2">  1       -2 0.89917457E-01 0.12267655E+04</pdfrwt>
<totfact> 0.56940050E+01</totfact>
</mgrwt>
</event>
<event>
 4    1  0.1869793E-005  0.5340003E+03  0.7818608E-02  0.1005267E+00
          2   -1    0    0  501    0  0.00000000000E+00  0.00000000000E+00  0.28028263991E+03  0.28028263992E+03  0.25500000000E-02 0.  1.
         -2   -1    0    0    0  501 -0.00000000000E+00 -0.00000000000E+00 -0.25434711130E+03  0.25434711131E+03  0.25500000000E-02 0. -1.
    5000001    1    1    2    0    0  0.12505927398E+03 -0.12502060430E+03  0.33439514947E+02  0.26830798472E+03  0.19900000000E+03 0.  0.
   -5000001    1    1    2    0    0 -0.12505927398E+03  0.12502060430E+03 -0.75039863361E+01  0.26632176651E+03  0.19900000000E+03 0.  0.
<mgrwt>
<rscale>  0 0.53400030E+03</rscale>
<asrwt>0</asrwt>
<pdfrwt beam="1">  1        2 0.40040378E-01 0.53400030E+03</pdfrwt>
<pdfrwt beam="2">  1       -2 0.36335301E-01 0.53400030E+03</pdfrwt>
<totfact> 0.91955626E+02</totfact>
</mgrwt>
</event>
<event>
 4    1  0.1869793E-005  0.1096306E+04  0.7818608E-02  0.9208800E-01
         -2   -1    0    0    0  501 -0.00000000000E+00  0.00000000000E+00  0.22230038730E+04  0.22230038730E+04  0.25500000000E-02 0. -1.
          2   -1    0    0  501    0  0.00000000000E+00 -0.00000000000E+00 -0.13516463807E+03  0.13516463810E+03  0.25500000000E-02 0.  1.
    5000001    1    1    2    0    0 -0.47068277869E+03  0.19799526393E+03  0.10197638898E+04  0.11576976261E+04  0.19900000000E+03 0.  0.
   -5000001    1    1    2    0    0  0.47068277869E+03 -0.19799526393E+03  0.10680753451E+04  0.12004708849E+04  0.19900000000E+03 0.  0.
<mgrwt>
<rscale>  0 0.10963056E+04</rscale>
<asrwt>0</asrwt>
<pdfrwt beam="1">  1        2 0.19309234E-01 0.10963056E+04</pdfrwt>
<pdfrwt beam="2">  1       -2 0.31757198E+00 0.10963056E+04</pdfrwt>
<totfact> 0.74140163E+00</totfact>
</mgrwt>
</event>
<event>
 4    1  0.1869793E-005  0.4832408E+03  0.7818608E-02  0.1018248E+00
         -2   -1    0    0    0  501 -0.00000000000E+00  0.00000000000E+00  0.27643505986E+03  0.27643505987E+03  0.25500000000E-02 0. -1.
          2   -1    0    0  501    0  0.00000000000E+00 -0.00000000000E+00 -0.21119033033E+03  0.21119033034E+03  0.25500000000E-02 0.  1.
    5000001    1    1    2    0    0  0.11274958152E+03  0.12637616025E+02  0.11017826287E+03  0.25418974621E+03  0.19900000000E+03 0.  0.
   -5000001    1    1    2    0    0 -0.11274958152E+03 -0.12637616025E+02 -0.44933533338E+02  0.23343564400E+03  0.19900000000E+03 0.  0.
<mgrwt>
<rscale>  0 0.48324077E+03</rscale>
<asrwt>0</asrwt>
<pdfrwt beam="1">  1        2 0.30170047E-01 0.48324077E+03</pdfrwt>
<pdfrwt beam="2">  1       -2 0.39490723E-01 0.48324077E+03</pdfrwt>
<totfact> 0.10728642E+03</totfact>
</mgrwt>
</event>
<event>
 4    1  0.1869793E-005  0.4811178E+03  0.7818608E-02  0.1018828E+00
          2   -1    0    0  501    0  0.00000000000E+00  0.00000000000E+00  0.85436155470E+03  0.85436155470E+03  0.25500000000E-02 0.  1.
         -2   -1    0    0    0  501 -0.00000000000E+00 -0.00000000000E+00 -0.67733144522E+02  0.67733144570E+02  0.25500000000E-02 0. -1.
    5000001    1    1    2    0    0 -0.71338682148E+02  0.11408075602E+03  0.36877254708E+03  0.44011114272E+03  0.19900000000E+03 0.  0.
   -5000001    1    1    2    0    0  0.71338682148E+02 -0.11408075602E+03  0.41785586310E+03  0.48198355655E+03  0.19900000000E+03 0.  0.
<mgrwt>
<rscale>  0 0.48111784E+03</rscale>
<asrwt>0</asrwt>
<pdfrwt beam="1">  1        2 0.12205164E+00 0.48111784E+03</pdfrwt>
<pdfrwt beam="2">  1       -2 0.96761642E-02 0.48111784E+03</pdfrwt>
<totfact> 0.25205181E+03</totfact>
</mgrwt>
</event>
<event>
 4    1  0.1869793E-005  0.5736023E+03  0.7818608E-02  0.9961739E-01
          2   -1    0    0  501    0  0.00000000000E+00  0.00000000000E+00  0.14538832623E+04  0.14538832623E+04  0.25500000000E-02 0. -1.
         -2   -1    0    0    0  501 -0.00000000000E+00 -0.00000000000E+00 -0.56575993956E+02  0.56575994013E+02  0.25500000000E-02 0.  1.
    5000001    1    1    2    0    0 -0.91005626853E+02  0.17519800700E+03  0.53896427898E+03  0.60750297102E+03  0.19900000000E+03 0.  0.
   -5000001    1    1    2    0    0  0.91005626853E+02 -0.17519800700E+03  0.85834298940E+03  0.90295628534E+03  0.19900000000E+03 0.  0.
<mgrwt>
<rscale>  0 0.57360227E+03</rscale>
<asrwt>0</asrwt>
<pdfrwt beam="1">  1        2 0.20769761E+00 0.57360227E+03</pdfrwt>
<pdfrwt beam="2">  1       -2 0.80822848E-02 0.57360227E+03</pdfrwt>
<totfact> 0.15180435E+03</totfact>
</mgrwt>
</event>
<event>
 4    1  0.1869793E-005  0.6415069E+03  0.7818608E-02  0.9822848E-01
         -2   -1    0    0    0  501 -0.00000000000E+00  0.00000000000E+00  0.10339281130E+03  0.10339281133E+03  0.25500000000E-02 0. -1.
          2   -1    0    0  501    0  0.00000000000E+00 -0.00000000000E+00 -0.99506691829E+03  0.99506691830E+03  0.25500000000E-02 0.  1.
    5000001    1    1    2    0    0 -0.22478681134E+03  0.74357971898E+02 -0.59136891934E+03  0.66736528026E+03  0.19900000000E+03 0.  0.
   -5000001    1    1    2    0    0  0.22478681134E+03 -0.74357971898E+02 -0.30030518765E+03  0.43109444936E+03  0.19900000000E+03 0.  0.
<mgrwt>
<rscale>  0 0.64150687E+03</rscale>
<asrwt>0</asrwt>
<pdfrwt beam="1">  1        2 0.14215241E+00 0.64150687E+03</pdfrwt>
<pdfrwt beam="2">  1       -2 0.14770402E-01 0.64150687E+03</pdfrwt>
<totfact> 0.10218466E+03</totfact>
</mgrwt>
</event>
<event>
 4    1  0.1869793E-005  0.5604187E+03  0.7818608E-02  0.9991108E-01
          2   -1    0    0  501    0  0.00000000000E+00  0.00000000000E+00  0.22971580243E+03  0.22971580244E+03  0.25500000000E-02 0.  1.
         -2   -1    0    0    0  501 -0.00000000000E+00 -0.00000000000E+00 -0.34180180008E+03  0.34180180009E+03  0.25500000000E-02 0. -1.
    5000001    1    1    2    0    0 -0.53576273093E+02  0.59073123591E+02 -0.24004986096E+03  0.32184621594E+03  0.19900000000E+03 0.  0.
   -5000001    1    1    2    0    0  0.53576273093E+02 -0.59073123591E+02  0.12796386330E+03  0.24967138659E+03  0.19900000000E+03 0.  0.
<mgrwt>
<rscale>  0 0.56041868E+03</rscale>
<asrwt>0</asrwt>
<pdfrwt beam="1">  1        2 0.32816543E-01 0.56041868E+03</pdfrwt>
<pdfrwt beam="2">  1       -2 0.48828829E-01 0.56041868E+03</pdfrwt>
<totfact> 0.64275337E+02</totfact>
</mgrwt>
</event>
<event>
 4    1  0.1869793E-005  0.4368624E+03  0.7818608E-02  0.1031714E+00
          2   -1    0    0  501    0  0.00000000000E+00  0.00000000000E+00  0.45756239165E+04  0.45756239165E+04  0.25500000000E-02 0.  1.
         -2   -1    0    0    0  501 -0.00000000000E+00 -0.00000000000E+00 -0.10427469479E+02  0.10427469791E+02  0.25500000000E-02 0. -1.
    5000001    1    1    2    0    0  0.72399375202E+02 -0.43673759757E+02  0.19569810875E+04  0.19688892919E+04  0.19900000000E+03 0.  0.
   -5000001    1    1    2    0    0 -0.72399375202E+02  0.43673759757E+02  0.26082153596E+04  0.26171620945E+04  0.19900000000E+03 0.  0.
<mgrwt>
<rscale>  0 0.43686236E+03</rscale>
<asrwt>0</asrwt>
<pdfrwt beam="1">  1        2 0.65365996E+00 0.43686236E+03</pdfrwt>
<pdfrwt beam="2">  1       -2 0.14896399E-02 0.43686236E+03</pdfrwt>
<totfact> 0.32268959E+02</totfact>
</mgrwt>
</event>
<event>
 4    1  0.1869793E-005  0.8694023E+03  0.7818608E-02  0.9464660E-01
          2   -1    0    0  501    0  0.00000000000E+00  0.00000000000E+00  0.59320583237E+03  0.59320583238E+03  0.25500000000E-02 0.  1.
         -2   -1    0    0    0  501 -0.00000000000E+00 -0.00000000000E+00 -0.31854891084E+03  0.31854891085E+03  0.25500000000E-02 0. -1.
    5000001    1    1    2    0    0  0.38556163730E+03  0.11437274491E+02  0.16248634128E+03  0.46345592941E+03  0.19900000000E+03 0.  0.
   -5000001    1    1    2    0    0 -0.38556163730E+03 -0.11437274491E+02  0.11217058025E+03  0.44829881382E+03  0.19900000000E+03 0.  0.
<mgrwt>
<rscale>  0 0.86940226E+03</rscale>
<asrwt>0</asrwt>
<pdfrwt beam="1">  1        2 0.84743690E-01 0.86940226E+03</pdfrwt>
<pdfrwt beam="2">  1       -2 0.45506987E-01 0.86940226E+03</pdfrwt>
<totfact> 0.25272076E+02</totfact>
</mgrwt>
</event>
<event>
 4    1  0.1869793E-005  0.4745337E+03  0.7818608E-02  0.1020648E+00
         -2   -1    0    0    0  501 -0.00000000000E+00  0.00000000000E+00  0.16358051393E+03  0.16358051395E+03  0.25500000000E-02 0. -1.
          2   -1    0    0  501    0  0.00000000000E+00 -0.00000000000E+00 -0.34414589848E+03  0.34414589848E+03  0.25500000000E-02 0.  1.
    5000001    1    1    2    0    0  0.56475550313E+02  0.96142964315E+02 -0.20435443600E+02  0.22902306592E+03  0.19900000000E+03 0.  0.
   -5000001    1    1    2    0    0 -0.56475550313E+02 -0.96142964315E+02 -0.16012994094E+03  0.27870334651E+03  0.19900000000E+03 0.  0.
<mgrwt>
<rscale>  0 0.47453372E+03</rscale>
<asrwt>0</asrwt>
<pdfrwt beam="1">  1        2 0.49163700E-01 0.47453372E+03</pdfrwt>
<pdfrwt beam="2">  1       -2 0.23368645E-01 0.47453372E+03</pdfrwt>
<totfact> 0.16482280E+03</totfact>
</mgrwt>
</event>
<event>
 4    1  0.1869793E-005  0.5788929E+03  0.7818608E-02  0.9950191E-01
         -2   -1    0    0    0  501 -0.00000000000E+00  0.00000000000E+00  0.59407463596E+02  0.59407463650E+02  0.25500000000E-02 0. -1.
          2   -1    0    0  501    0  0.00000000000E+00 -0.00000000000E+00 -0.14102476367E+04  0.14102476367E+04  0.25500000000E-02 0.  1.
    5000001    1    1    2    0    0  0.17255333853E+03 -0.52907734693E+02 -0.40193875570E+03  0.48345594046E+03  0.19900000000E+03 0.  0.
   -5000001    1    1    2    0    0 -0.17255333853E+03  0.52907734693E+02 -0.94890141740E+03  0.98619915989E+03  0.19900000000E+03 0.  0.
<mgrwt>
<rscale>  0 0.57889286E+03</rscale>
<asrwt>0</asrwt>
<pdfrwt beam="1">  1        2 0.20146393E+00 0.57889286E+03</pdfrwt>
<pdfrwt beam="2">  1       -2 0.84867814E-02 0.57889286E+03</pdfrwt>
<totfact> 0.14803005E+03</totfact>
</mgrwt>
</event>
<event>
 4    1  0.1869793E-005  0.1117886E+04  0.7818608E-02  0.9187932E-01
          2   -1    0    0  501    0  0.00000000000E+00  0.00000000000E+00  0.15375517804E+04  0.15375517804E+04  0.25500000000E-02 0.  1.
         -2   -1    0    0    0  501 -0.00000000000E+00 -0.00000000000E+00 -0.20319149239E+03  0.20319149240E+03  0.25500000000E-02 0. -1.
    5000001    1    1    2    0    0 -0.45029865777E+03  0.68405823866E+01  0.10791718671E+04  0.11861823610E+04  0.19900000000E+03 0.  0.
   -5000001    1    1    2    0    0  0.45029865777E+03 -0.68405823866E+01  0.25518842090E+03  0.55456091181E+03  0.19900000000E+03 0.  0.
<mgrwt>
<rscale>  0 0.11178863E+04</rscale>
<asrwt>0</asrwt>
<pdfrwt beam="1">  1        2 0.21965026E+00 0.11178863E+04</pdfrwt>
<pdfrwt beam="2">  1       -2 0.29027356E-01 0.11178863E+04</pdfrwt>
<totfact> 0.15075490E+02</totfact>
</mgrwt>
</event>
<event>
 4    1  0.1869793E-005  0.1004973E+04  0.7818608E-02  0.9303107E-01
          2   -1    0    0  501    0  0.00000000000E+00  0.00000000000E+00  0.42221575177E+03  0.42221575178E+03  0.25500000000E-02 0.  1.
         -2   -1    0    0    0  501 -0.00000000000E+00 -0.00000000000E+00 -0.59801873842E+03  0.59801873843E+03  0.25500000000E-02 0. -1.
    5000001    1    1    2    0    0 -0.34664266385E+03  0.30407024724E+03 -0.71156177120E+02  0.50723175492E+03  0.19900000000E+03 0.  0.
   -5000001    1    1    2    0    0  0.34664266385E+03 -0.30407024724E+03 -0.10464680953E+03  0.51300273528E+03  0.19900000000E+03 0.  0.
<mgrwt>
<rscale>  0 0.10049735E+04</rscale>
<asrwt>0</asrwt>
<pdfrwt beam="1">  1        2 0.60316536E-01 0.10049735E+04</pdfrwt>
<pdfrwt beam="2">  1       -2 0.85431248E-01 0.10049735E+04</pdfrwt>
<totfact> 0.96840530E+01</totfact>
</mgrwt>
</event>
<event>
 4    1  0.1869793E-005  0.6854035E+03  0.7818608E-02  0.9742525E-01
          2   -1    0    0  501    0  0.00000000000E+00  0.00000000000E+00  0.10384387496E+04  0.10384387496E+04  0.25500000000E-02 0.  1.
         -2   -1    0    0    0  501 -0.00000000000E+00 -0.00000000000E+00 -0.11309718542E+03  0.11309718545E+03  0.25500000000E-02 0. -1.
    5000001    1    1    2    0    0 -0.20515621011E+03  0.61743613656E+02  0.16239986687E+03  0.33447879026E+03  0.19900000000E+03 0.  0.
   -5000001    1    1    2    0    0  0.20515621011E+03 -0.61743613656E+02  0.76294169733E+03  0.81705714482E+03  0.19900000000E+03 0.  0.
<mgrwt>
<rscale>  0 0.68540353E+03</rscale>
<asrwt>0</asrwt>
<pdfrwt beam="1">  1        2 0.14834839E+00 0.68540353E+03</pdfrwt>
<pdfrwt beam="2">  1       -2 0.16156741E-01 0.68540353E+03</pdfrwt>
<totfact> 0.82528316E+02</totfact>
</mgrwt>
</event>
<event>
 4    1  0.1869793E-005  0.6511688E+03  0.7818608E-02  0.9804589E-01
         -2   -1    0    0    0  501 -0.00000000000E+00  0.00000000000E+00  0.87189240314E+02  0.87189240351E+02  0.25500000000E-02 0. -1.
          2   -1    0    0  501    0  0.00000000000E+00 -0.00000000000E+00 -0.12158058562E+04  0.12158058562E+04  0.25500000000E-02 0.  1.
    5000001    1    1    2    0    0 -0.12592512735E+03  0.22458253484E+03 -0.54334670642E+03  0.63334121612E+03  0.19900000000E+03 0.  0.
   -5000001    1    1    2    0    0  0.12592512735E+03 -0.22458253484E+03 -0.58526990943E+03  0.66965388040E+03  0.19900000000E+03 0.  0.
<mgrwt>
<rscale>  0 0.65116876E+03</rscale>
<asrwt>0</asrwt>
<pdfrwt beam="1">  1        2 0.17368654E+00 0.65116876E+03</pdfrwt>
<pdfrwt beam="2">  1       -2 0.12455606E-01 0.65116876E+03</pdfrwt>
<totfact> 0.10093483E+03</totfact>
</mgrwt>
</event>
<event>
 4    1  0.1869793E-005  0.9797246E+03  0.7818608E-02  0.9331066E-01
          2   -1    0    0  501    0  0.00000000000E+00  0.00000000000E+00  0.17380665247E+03  0.17380665249E+03  0.25500000000E-02 0.  1.
         -2   -1    0    0    0  501 -0.00000000000E+00 -0.00000000000E+00 -0.13806438019E+04  0.13806438019E+04  0.25500000000E-02 0. -1.
    5000001    1    1    2    0    0 -0.41379747255E+02 -0.43160358803E+03 -0.77988419960E+03  0.91422880367E+03  0.19900000000E+03 0.  0.
   -5000001    1    1    2    0    0  0.41379747255E+02  0.43160358803E+03 -0.42695294984E+03  0.64022165073E+03  0.19900000000E+03 0.  0.
<mgrwt>
<rscale>  0 0.97972461E+03</rscale>
<asrwt>0</asrwt>
<pdfrwt beam="1">  1        2 0.24829523E-01 0.97972461E+03</pdfrwt>
<pdfrwt beam="2">  1       -2 0.19723482E+00 0.97972461E+03</pdfrwt>
<totfact> 0.30704537E+01</totfact>
</mgrwt>
</event>
<event>
 4    1  0.1869793E-005  0.5139488E+03  0.7818608E-02  0.1010201E+00
         -2   -1    0    0    0  501 -0.00000000000E+00  0.00000000000E+00  0.22753035883E+02  0.22753036026E+02  0.25500000000E-02 0. -1.
          2   -1    0    0  501    0  0.00000000000E+00 -0.00000000000E+00 -0.29022865796E+04  0.29022865796E+04  0.25500000000E-02 0.  1.
    5000001    1    1    2    0    0 -0.82261051355E+02 -0.85145858379E+02 -0.80554654440E+03  0.83816641126E+03  0.19900000000E+03 0.  0.
   -5000001    1    1    2    0    0  0.82261051355E+02  0.85145858379E+02 -0.20739869993E+04  0.20868732044E+04  0.19900000000E+03 0.  0.
<mgrwt>
<rscale>  0 0.51394876E+03</rscale>
<asrwt>0</asrwt>
<pdfrwt beam="1">  1        2 0.41461213E+00 0.51394876E+03</pdfrwt>
<pdfrwt beam="2">  1       -2 0.32504356E-02 0.51394876E+03</pdfrwt>
<totfact> 0.11410864E+03</totfact>
</mgrwt>
</event>
<event>
 4    1  0.1869793E-005  0.5206561E+03  0.7818608E-02  0.1008524E+00
         -2   -1    0    0    0  501 -0.00000000000E+00  0.00000000000E+00  0.23230844034E+02  0.23230844174E+02  0.25500000000E-02 0. -1.
          2   -1    0    0  501    0  0.00000000000E+00 -0.00000000000E+00 -0.29172722815E+04  0.29172722815E+04  0.25500000000E-02 0.  1.
    5000001    1    1    2    0    0 -0.15603457587E+03  0.49319630651E+02 -0.16576183463E+04  0.16775216234E+04  0.19900000000E+03 0.  0.
   -5000001    1    1    2    0    0  0.15603457587E+03 -0.49319630651E+02 -0.12364230911E+04  0.12629815023E+04  0.19900000000E+03 0.  0.
<mgrwt>
<rscale>  0 0.52065612E+03</rscale>
<asrwt>0</asrwt>
<pdfrwt beam="1">  1        2 0.41675295E+00 0.52065612E+03</pdfrwt>
<pdfrwt beam="2">  1       -2 0.33186938E-02 0.52065612E+03</pdfrwt>
<totfact> 0.10847714E+03</totfact>
</mgrwt>
</event>
<event>
 4    1  0.1869793E-005  0.4976885E+03  0.7818608E-02  0.1014384E+00
         -2   -1    0    0    0  501 -0.00000000000E+00  0.00000000000E+00  0.78915402973E+02  0.78915403014E+02  0.25500000000E-02 0. -1.
          2   -1    0    0  501    0  0.00000000000E+00 -0.00000000000E+00 -0.78468155690E+03  0.78468155691E+03  0.25500000000E-02 0.  1.
    5000001    1    1    2    0    0 -0.91697697867E+02 -0.11727978229E+03 -0.33097216120E+03  0.41389199873E+03  0.19900000000E+03 0.  0.
   -5000001    1    1    2    0    0  0.91697697867E+02  0.11727978229E+03 -0.37479399273E+03  0.44970496119E+03  0.19900000000E+03 0.  0.
<mgrwt>
<rscale>  0 0.49768850E+03</rscale>
<asrwt>0</asrwt>
<pdfrwt beam="1">  1        2 0.11209736E+00 0.49768850E+03</pdfrwt>
<pdfrwt beam="2">  1       -2 0.11273629E-01 0.49768850E+03</pdfrwt>
<totfact> 0.21945876E+03</totfact>
</mgrwt>
</event>
<event>
 4    1  0.1869793E-005  0.5742775E+03  0.7818608E-02  0.9960258E-01
          2   -1    0    0  501    0  0.00000000000E+00  0.00000000000E+00  0.31466762757E+03  0.31466762758E+03  0.25500000000E-02 0.  1.
         -2   -1    0    0    0  501 -0.00000000000E+00 -0.00000000000E+00 -0.26201823747E+03  0.26201823749E+03  0.25500000000E-02 0. -1.
    5000001    1    1    2    0    0 -0.10748010794E+03  0.17689625978E+03  0.28175478163E+02  0.28851190252E+03  0.19900000000E+03 0.  0.
   -5000001    1    1    2    0    0  0.10748010794E+03 -0.17689625978E+03  0.24473911935E+02  0.28817396255E+03  0.19900000000E+03 0.  0.
<mgrwt>
<rscale>  0 0.57427748E+03</rscale>
<asrwt>0</asrwt>
<pdfrwt beam="1">  1        2 0.44952518E-01 0.57427748E+03</pdfrwt>
<pdfrwt beam="2">  1       -2 0.37431177E-01 0.57427748E+03</pdfrwt>
<totfact> 0.76465132E+02</totfact>
</mgrwt>
</event>
<event>
 4    1  0.1869793E-005  0.6251134E+03  0.7818608E-02  0.9854631E-01
          2   -1    0    0  501    0  0.00000000000E+00  0.00000000000E+00  0.10154370761E+04  0.10154370761E+04  0.25500000000E-02 0.  1.
         -2   -1    0    0    0  501 -0.00000000000E+00 -0.00000000000E+00 -0.96206549908E+02  0.96206549942E+02  0.25500000000E-02 0. -1.
    5000001    1    1    2    0    0  0.13278359726E+03 -0.19536103332E+03  0.37445531893E+03  0.48540210436E+03  0.19900000000E+03 0.  0.
   -5000001    1    1    2    0    0 -0.13278359726E+03  0.19536103332E+03  0.54477520727E+03  0.62624152170E+03  0.19900000000E+03 0.  0.
<mgrwt>
<rscale>  0 0.62511342E+03</rscale>
<asrwt>0</asrwt>
<pdfrwt beam="1">  1        2 0.14506244E+00 0.62511342E+03</pdfrwt>
<pdfrwt beam="2">  1       -2 0.13743793E-01 0.62511342E+03</pdfrwt>
<totfact> 0.11210071E+03</totfact>
</mgrwt>
</event>
<event>
 4    1  0.1869793E-005  0.5268450E+03  0.7818608E-02  0.1007000E+00
          2   -1    0    0  501    0  0.00000000000E+00  0.00000000000E+00  0.12657418363E+04  0.12657418363E+04  0.25500000000E-02 0.  1.
         -2   -1    0    0    0  501 -0.00000000000E+00 -0.00000000000E+00 -0.54822716484E+02  0.54822716543E+02  0.25500000000E-02 0. -1.
    5000001    1    1    2    0    0  0.13700257182E+03 -0.92848228913E+02  0.48266643402E+03  0.54768456691E+03  0.19900000000E+03 0.  0.
   -5000001    1    1    2    0    0 -0.13700257182E+03  0.92848228913E+02  0.72825268581E+03  0.77287998595E+03  0.19900000000E+03 0.  0.
<mgrwt>
<rscale>  0 0.52684497E+03</rscale>
<asrwt>0</asrwt>
<pdfrwt beam="1">  1        2 0.18082030E+00 0.52684497E+03</pdfrwt>
<pdfrwt beam="2">  1       -2 0.78318151E-02 0.52684497E+03</pdfrwt>
<totfact> 0.20141264E+03</totfact>
</mgrwt>
</event>
<event>
 4    1  0.1869793E-005  0.8602379E+03  0.7818608E-02  0.9476698E-01
         -2   -1    0    0    0  501 -0.00000000000E+00  0.00000000000E+00  0.18532963777E+03  0.18532963779E+03  0.25500000000E-02 0.  1.
          2   -1    0    0  501    0  0.00000000000E+00 -0.00000000000E+00 -0.99823378473E+03  0.99823378473E+03  0.25500000000E-02 0. -1.
    5000001    1    1    2    0    0  0.35785876039E+03 -0.11042268541E+03 -0.30776143645E+03  0.52399824771E+03  0.19900000000E+03 0.  0.
   -5000001    1    1    2    0    0 -0.35785876039E+03  0.11042268541E+03 -0.50514271051E+03  0.65956517481E+03  0.19900000000E+03 0.  0.
<mgrwt>
<rscale>  0 0.86023789E+03</rscale>
<asrwt>0</asrwt>
<pdfrwt beam="1">  1        2 0.14260482E+00 0.86023789E+03</pdfrwt>
<pdfrwt beam="2">  1       -2 0.26475663E-01 0.86023789E+03</pdfrwt>
<totfact> 0.36392137E+02</totfact>
</mgrwt>
</event>
<event>
 4    1  0.1869793E-005  0.5532903E+03  0.7818608E-02  0.1000735E+00
          2   -1    0    0  501    0  0.00000000000E+00  0.00000000000E+00  0.66353653445E+03  0.66353653445E+03  0.25500000000E-02 0.  1.
         -2   -1    0    0    0  501 -0.00000000000E+00 -0.00000000000E+00 -0.11534034389E+03  0.11534034391E+03  0.25500000000E-02 0. -1.
    5000001    1    1    2    0    0 -0.92491879345E+02  0.11509134019E+03  0.10093862151E+03  0.26756376743E+03  0.19900000000E+03 0.  0.
   -5000001    1    1    2    0    0  0.92491879345E+02 -0.11509134019E+03  0.44725756906E+03  0.51131311093E+03  0.19900000000E+03 0.  0.
<mgrwt>
<rscale>  0 0.55329027E+03</rscale>
<asrwt>0</asrwt>
<pdfrwt beam="1">  1        2 0.94790935E-01 0.55329027E+03</pdfrwt>
<pdfrwt beam="2">  1       -2 0.16477192E-01 0.55329027E+03</pdfrwt>
<totfact> 0.14350481E+03</totfact>
</mgrwt>
</event>
<event>
 4    1  0.1869793E-005  0.7155288E+03  0.7818608E-02  0.9691038E-01
          2   -1    0    0  501    0  0.00000000000E+00  0.00000000000E+00  0.92942044422E+03  0.92942044423E+03  0.25500000000E-02 0.  1.
         -2   -1    0    0    0  501 -0.00000000000E+00 -0.00000000000E+00 -0.13771523953E+03  0.13771523956E+03  0.25500000000E-02 0. -1.
    5000001    1    1    2    0    0 -0.29501178938E+03  0.33502539428E+02  0.41895637278E+03  0.55070846944E+03  0.19900000000E+03 0.  0.
   -5000001    1    1    2    0    0  0.29501178938E+03 -0.33502539428E+02  0.37274883191E+03  0.51642721434E+03  0.19900000000E+03 0.  0.
<mgrwt>
<rscale>  0 0.71552878E+03</rscale>
<asrwt>0</asrwt>
<pdfrwt beam="1">  1        2 0.13277435E+00 0.71552878E+03</pdfrwt>
<pdfrwt beam="2">  1       -2 0.19673605E-01 0.71552878E+03</pdfrwt>
<totfact> 0.68599633E+02</totfact>
</mgrwt>
</event>
<event>
 4    1  0.1869793E-005  0.6210325E+03  0.7818608E-02  0.9862706E-01
          2   -1    0    0  501    0  0.00000000000E+00  0.00000000000E+00  0.15091302114E+04  0.15091302114E+04  0.25500000000E-02 0.  1.
         -2   -1    0    0    0  501 -0.00000000000E+00 -0.00000000000E+00 -0.63891334842E+02  0.63891334892E+02  0.25500000000E-02 0. -1.
    5000001    1    1    2    0    0 -0.48266346096E+02  0.15179647159E+03  0.27344644017E+03  0.37382584795E+03  0.19900000000E+03 0.  0.
   -5000001    1    1    2    0    0  0.48266346096E+02 -0.15179647159E+03  0.11717924364E+04  0.11991956984E+04  0.19900000000E+03 0.  0.
<mgrwt>
<rscale>  0 0.62103251E+03</rscale>
<asrwt>0</asrwt>
<pdfrwt beam="1">  1        2 0.21559002E+00 0.62103251E+03</pdfrwt>
<pdfrwt beam="2">  1       -2 0.91273338E-02 0.62103251E+03</pdfrwt>
<totfact> 0.11670542E+03</totfact>
</mgrwt>
</event>
<event>
 4    1  0.1869793E-005  0.9404209E+03  0.7818608E-02  0.9376418E-01
          2   -1    0    0  501    0  0.00000000000E+00  0.00000000000E+00  0.11730169501E+04  0.11730169501E+04  0.25500000000E-02 0.  1.
         -2   -1    0    0    0  501 -0.00000000000E+00 -0.00000000000E+00 -0.18848650494E+03  0.18848650496E+03  0.25500000000E-02 0. -1.
    5000001    1    1    2    0    0 -0.10727901274E+03  0.37432789793E+03  0.74246684542E+03  0.86167753730E+03  0.19900000000E+03 0.  0.
   -5000001    1    1    2    0    0  0.10727901274E+03 -0.37432789793E+03  0.24206359973E+03  0.49982591775E+03  0.19900000000E+03 0.  0.
<mgrwt>
<rscale>  0 0.94042090E+03</rscale>
<asrwt>0</asrwt>
<pdfrwt beam="1">  1        2 0.16757385E+00 0.94042090E+03</pdfrwt>
<pdfrwt beam="2">  1       -2 0.26926643E-01 0.94042090E+03</pdfrwt>
<totfact> 0.27681839E+02</totfact>
</mgrwt>
</event>
<event>
 4    1  0.1869793E-005  0.9389724E+03  0.7818608E-02  0.9378134E-01
          2   -1    0    0  501    0  0.00000000000E+00  0.00000000000E+00  0.10192690337E+04  0.10192690337E+04  0.25500000000E-02 0.  1.
         -2   -1    0    0    0  501 -0.00000000000E+00 -0.00000000000E+00 -0.21625036763E+03  0.21625036764E+03  0.25500000000E-02 0. -1.
    5000001    1    1    2    0    0  0.30358559556E+03 -0.50186650976E+02  0.15335804481E+02  0.36676845648E+03  0.19900000000E+03 0.  0.
   -5000001    1    1    2    0    0 -0.30358559556E+03  0.50186650976E+02  0.78768286163E+03  0.86875094490E+03  0.19900000000E+03 0.  0.
<mgrwt>
<rscale>  0 0.93897242E+03</rscale>
<asrwt>0</asrwt>
<pdfrwt beam="1">  1        2 0.14560986E+00 0.93897242E+03</pdfrwt>
<pdfrwt beam="2">  1       -2 0.30892910E-01 0.93897242E+03</pdfrwt>
<totfact> 0.26477095E+02</totfact>
</mgrwt>
</event>
<event>
 4    1  0.1869793E-005  0.5742190E+03  0.7818608E-02  0.9960386E-01
         -2   -1    0    0    0  501 -0.00000000000E+00  0.00000000000E+00  0.92242689794E+03  0.92242689794E+03  0.25500000000E-02 0. -1.
          2   -1    0    0  501    0  0.00000000000E+00 -0.00000000000E+00 -0.89364102382E+02  0.89364102419E+02  0.25500000000E-02 0.  1.
    5000001    1    1    2    0    0  0.68102354963E+02  0.16149347006E+03  0.61045702543E+03  0.66556506182E+03  0.19900000000E+03 0.  0.
   -5000001    1    1    2    0    0 -0.68102354963E+02 -0.16149347006E+03  0.22260577013E+03  0.34622593854E+03  0.19900000000E+03 0.  0.
<mgrwt>
<rscale>  0 0.57421895E+03</rscale>
<asrwt>0</asrwt>
<pdfrwt beam="1">  1        2 0.12766301E-01 0.57421895E+03</pdfrwt>
<pdfrwt beam="2">  1       -2 0.13177527E+00 0.57421895E+03</pdfrwt>
<totfact> 0.20810713E+02</totfact>
</mgrwt>
</event>
<event>
 4    1  0.1869793E-005  0.1220877E+04  0.7818608E-02  0.9094776E-01
          2   -1    0    0  501    0  0.00000000000E+00  0.00000000000E+00  0.27757378413E+04  0.27757378413E+04  0.25500000000E-02 0.  1.
         -2   -1    0    0    0  501 -0.00000000000E+00 -0.00000000000E+00 -0.13424733575E+03  0.13424733578E+03  0.25500000000E-02 0. -1.
    5000001    1    1    2    0    0 -0.19890947031E+03 -0.37705387950E+03  0.39362108161E+03  0.61341108672E+03  0.19900000000E+03 0.  0.
   -5000001    1    1    2    0    0  0.19890947031E+03  0.37705387950E+03  0.22478694240E+04  0.22965740904E+04  0.19900000000E+03 0.  0.
<mgrwt>
<rscale>  0 0.12208774E+04</rscale>
<asrwt>0</asrwt>
<pdfrwt beam="1">  1        2 0.39653398E+00 0.12208774E+04</pdfrwt>
<pdfrwt beam="2">  1       -2 0.19178191E-01 0.12208774E+04</pdfrwt>
<totfact> 0.71680267E+01</totfact>
</mgrwt>
</event>
<event>
 4    1  0.1869793E-005  0.4888765E+03  0.7818608E-02  0.1016724E+00
         -2   -1    0    0    0  501 -0.00000000000E+00  0.00000000000E+00  0.13014007036E+04  0.13014007036E+04  0.25500000000E-02 0. -1.
          2   -1    0    0  501    0  0.00000000000E+00 -0.00000000000E+00 -0.45912108800E+02  0.45912108871E+02  0.25500000000E-02 0.  1.
    5000001    1    1    2    0    0  0.90529057118E+02 -0.81147526960E+02  0.42581440478E+03  0.48548876262E+03  0.19900000000E+03 0.  0.
   -5000001    1    1    2    0    0 -0.90529057118E+02  0.81147526960E+02  0.82967418998E+03  0.86182404981E+03  0.19900000000E+03 0.  0.
<mgrwt>
<rscale>  0 0.48887647E+03</rscale>
<asrwt>0</asrwt>
<pdfrwt beam="1">  1        2 0.65588724E-02 0.48887647E+03</pdfrwt>
<pdfrwt beam="2">  1       -2 0.18591439E+00 0.48887647E+03</pdfrwt>
<totfact> 0.19465281E+02</totfact>
</mgrwt>
</event>
<event>
 4    1  0.1869793E-005  0.8889959E+03  0.7818608E-02  0.9439443E-01
         -2   -1    0    0    0  501 -0.00000000000E+00  0.00000000000E+00  0.20020227694E+03  0.20020227696E+03  0.25500000000E-02 0. -1.
          2   -1    0    0  501    0  0.00000000000E+00 -0.00000000000E+00 -0.98689403344E+03  0.98689403345E+03  0.25500000000E-02 0.  1.
    5000001    1    1    2    0    0 -0.17403489194E+03  0.28623209998E+03 -0.10769770672E+03  0.40424838244E+03  0.19900000000E+03 0.  0.
   -5000001    1    1    2    0    0  0.17403489194E+03 -0.28623209998E+03 -0.67899404979E+03  0.78284792796E+03  0.19900000000E+03 0.  0.
<mgrwt>
<rscale>  0 0.88899591E+03</rscale>
<asrwt>0</asrwt>
<pdfrwt beam="1">  1        2 0.14098486E+00 0.88899591E+03</pdfrwt>
<pdfrwt beam="2">  1       -2 0.28600326E-01 0.88899591E+03</pdfrwt>
<totfact> 0.32063978E+02</totfact>
</mgrwt>
</event>
<event>
 4    1  0.1869793E-005  0.5254457E+03  0.7818608E-02  0.1007343E+00
          2   -1    0    0  501    0  0.00000000000E+00  0.00000000000E+00  0.34202607290E+03  0.34202607291E+03  0.25500000000E-02 0.  1.
         -2   -1    0    0    0  501 -0.00000000000E+00 -0.00000000000E+00 -0.20180708984E+03  0.20180708986E+03  0.25500000000E-02 0. -1.
    5000001    1    1    2    0    0 -0.61281412418E+02  0.13691265012E+03 -0.15999288117E+02  0.24971476226E+03  0.19900000000E+03 0.  0.
   -5000001    1    1    2    0    0  0.61281412418E+02 -0.13691265012E+03  0.15621827117E+03  0.29411840051E+03  0.19900000000E+03 0.  0.
<mgrwt>
<rscale>  0 0.52544566E+03</rscale>
<asrwt>0</asrwt>
<pdfrwt beam="1">  1        2 0.48860867E-01 0.52544566E+03</pdfrwt>
<pdfrwt beam="2">  1       -2 0.28829584E-01 0.52544566E+03</pdfrwt>
<totfact> 0.11376675E+03</totfact>
</mgrwt>
</event>
<event>
 4    1  0.1869793E-005  0.6994008E+03  0.7818608E-02  0.9718257E-01
          2   -1    0    0  501    0  0.00000000000E+00  0.00000000000E+00  0.17138894434E+04  0.17138894434E+04  0.25500000000E-02 0.  1.
         -2   -1    0    0    0  501 -0.00000000000E+00 -0.00000000000E+00 -0.71352550571E+02  0.71352550616E+02  0.25500000000E-02 0. -1.
    5000001    1    1    2    0    0 -0.27992842313E+03  0.65563802951E+02  0.80709123862E+03  0.87957705847E+03  0.19900000000E+03 0.  0.
   -5000001    1    1    2    0    0  0.27992842313E+03 -0.65563802951E+02  0.83544565419E+03  0.90566493552E+03  0.19900000000E+03 0.  0.
<mgrwt>
<rscale>  0 0.69940084E+03</rscale>
<asrwt>0</asrwt>
<pdfrwt beam="1">  1        2 0.24484133E+00 0.69940084E+03</pdfrwt>
<pdfrwt beam="2">  1       -2 0.10193222E-01 0.69940084E+03</pdfrwt>
<totfact> 0.76268969E+02</totfact>
</mgrwt>
</event>
<event>
 4    1  0.1869793E-005  0.4928923E+03  0.7818608E-02  0.1015651E+00
          2   -1    0    0  501    0  0.00000000000E+00  0.00000000000E+00  0.86668091599E+03  0.86668091600E+03  0.25500000000E-02 0.  1.
         -2   -1    0    0    0  501 -0.00000000000E+00 -0.00000000000E+00 -0.70078517176E+02  0.70078517223E+02  0.25500000000E-02 0. -1.
    5000001    1    1    2    0    0 -0.52617322635E+02 -0.64006621244E+02  0.62532797999E+03  0.66143897130E+03  0.19900000000E+03 0.  0.
   -5000001    1    1    2    0    0  0.52617322635E+02  0.64006621244E+02  0.17127441883E+03  0.27532046192E+03  0.19900000000E+03 0.  0.
<mgrwt>
<rscale>  0 0.49289234E+03</rscale>
<asrwt>0</asrwt>
<pdfrwt beam="1">  1        2 0.12381156E+00 0.49289234E+03</pdfrwt>
<pdfrwt beam="2">  1       -2 0.10011216E-01 0.49289234E+03</pdfrwt>
<totfact> 0.23420842E+03</totfact>
</mgrwt>
</event>
<event>
 4    1  0.1869793E-005  0.6750970E+03  0.7818608E-02  0.9760794E-01
          2   -1    0    0  501    0  0.00000000000E+00  0.00000000000E+00  0.33519650466E+04  0.33519650466E+04  0.25500000000E-02 0.  1.
         -2   -1    0    0    0  501 -0.00000000000E+00 -0.00000000000E+00 -0.33991699774E+02  0.33991699869E+02  0.25500000000E-02 0. -1.
    5000001    1    1    2    0    0  0.20134066497E+03  0.76585419136E+02  0.24972615606E+04  0.25144223376E+04  0.19900000000E+03 0.  0.
   -5000001    1    1    2    0    0 -0.20134066497E+03 -0.76585419136E+02  0.82071178631E+03  0.87153440895E+03  0.19900000000E+03 0.  0.
<mgrwt>
<rscale>  0 0.67509700E+03</rscale>
<asrwt>0</asrwt>
<pdfrwt beam="1">  1        2 0.47885216E+00 0.67509700E+03</pdfrwt>
<pdfrwt beam="2">  1       -2 0.48559570E-02 0.67509700E+03</pdfrwt>
<totfact> 0.34115181E+02</totfact>
</mgrwt>
</event>
<event>
 4    1  0.1869793E-005  0.1108238E+04  0.7818608E-02  0.9197200E-01
         -2   -1    0    0    0  501 -0.00000000000E+00  0.00000000000E+00  0.10547666942E+04  0.10547666942E+04  0.25500000000E-02 0. -1.
          2   -1    0    0  501    0  0.00000000000E+00 -0.00000000000E+00 -0.29110500726E+03  0.29110500727E+03  0.25500000000E-02 0.  1.
    5000001    1    1    2    0    0  0.50553840233E+03 -0.70130076126E+02  0.48314300693E+03  0.73042143243E+03  0.19900000000E+03 0.  0.
   -5000001    1    1    2    0    0 -0.50553840233E+03  0.70130076126E+02  0.28051867998E+03  0.61545026901E+03  0.19900000000E+03 0.  0.
<mgrwt>
<rscale>  0 0.11082380E+04</rscale>
<asrwt>0</asrwt>
<pdfrwt beam="1">  1        2 0.41586429E-01 0.11082380E+04</pdfrwt>
<pdfrwt beam="2">  1       -2 0.15068096E+00 0.11082380E+04</pdfrwt>
<totfact> 0.36227197E+01</totfact>
</mgrwt>
</event>
<event>
 4    1  0.1869793E-005  0.6353974E+03  0.7818608E-02  0.9834572E-01
         -2   -1    0    0    0  501 -0.00000000000E+00  0.00000000000E+00  0.51125380000E+03  0.51125380001E+03  0.25500000000E-02 0. -1.
          2   -1    0    0  501    0  0.00000000000E+00 -0.00000000000E+00 -0.19742146425E+03  0.19742146426E+03  0.25500000000E-02 0.  1.
    5000001    1    1    2    0    0 -0.18495314253E+03 -0.57480322755E+02  0.32905191544E+03  0.43056685368E+03  0.19900000000E+03 0.  0.
   -5000001    1    1    2    0    0  0.18495314253E+03  0.57480322755E+02 -0.15219579682E+02  0.27810841059E+03  0.19900000000E+03 0.  0.
<mgrwt>
<rscale>  0 0.63539743E+03</rscale>
<asrwt>0</asrwt>
<pdfrwt beam="1">  1        2 0.28203066E-01 0.63539743E+03</pdfrwt>
<pdfrwt beam="2">  1       -2 0.73036257E-01 0.63539743E+03</pdfrwt>
<totfact> 0.32643458E+02</totfact>
</mgrwt>
</event>
<event>
 4    1  0.1869793E-005  0.6327242E+03  0.7818608E-02  0.9839747E-01
         -2   -1    0    0    0  501 -0.00000000000E+00  0.00000000000E+00  0.84585891143E+02  0.84585891181E+02  0.25500000000E-02 0. -1.
          2   -1    0    0  501    0  0.00000000000E+00 -0.00000000000E+00 -0.11832348360E+04  0.11832348360E+04  0.25500000000E-02 0.  1.
    5000001    1    1    2    0    0  0.23995905649E+03 -0.12059838106E+02 -0.44409071520E+03  0.54271848302E+03  0.19900000000E+03 0.  0.
   -5000001    1    1    2    0    0 -0.23995905649E+03  0.12059838106E+02 -0.65455822970E+03  0.72510224421E+03  0.19900000000E+03 0.  0.
<mgrwt>
<rscale>  0 0.63272418E+03</rscale>
<asrwt>0</asrwt>
<pdfrwt beam="1">  1        2 0.16903354E+00 0.63272418E+03</pdfrwt>
<pdfrwt beam="2">  1       -2 0.12083699E-01 0.63272418E+03</pdfrwt>
<totfact> 0.11074942E+03</totfact>
</mgrwt>
</event>
<event>
 4    1  0.1869793E-005  0.5076143E+03  0.7818608E-02  0.1011810E+00
          2   -1    0    0  501    0  0.00000000000E+00  0.00000000000E+00  0.52592619072E+03  0.52592619073E+03  0.25500000000E-02 0.  1.
         -2   -1    0    0    0  501 -0.00000000000E+00 -0.00000000000E+00 -0.12248502147E+03  0.12248502150E+03  0.25500000000E-02 0. -1.
    5000001    1    1    2    0    0  0.96956209676E+02  0.12375209059E+03  0.18882014571E+03  0.31617895873E+03  0.19900000000E+03 0.  0.
   -5000001    1    1    2    0    0 -0.96956209676E+02 -0.12375209059E+03  0.21462102353E+03  0.33223225349E+03  0.19900000000E+03 0.  0.
<mgrwt>
<rscale>  0 0.50761434E+03</rscale>
<asrwt>0</asrwt>
<pdfrwt beam="1">  1        2 0.75132312E-01 0.50761434E+03</pdfrwt>
<pdfrwt beam="2">  1       -2 0.17497860E-01 0.50761434E+03</pdfrwt>
<totfact> 0.17000117E+03</totfact>
</mgrwt>
</event>
<event>
 4    1  0.1869793E-005  0.5024861E+03  0.7818608E-02  0.1013132E+00
          2   -1    0    0  501    0  0.00000000000E+00  0.00000000000E+00  0.34610421234E+04  0.34610421234E+04  0.25500000000E-02 0.  1.
         -2   -1    0    0    0  501 -0.00000000000E+00 -0.00000000000E+00 -0.18238169987E+02  0.18238170165E+02  0.25500000000E-02 0. -1.
    5000001    1    1    2    0    0  0.68645798707E+02  0.11085293801E+03  0.22805639267E+04  0.22929399127E+04  0.19900000000E+03 0.  0.
   -5000001    1    1    2    0    0 -0.68645798707E+02 -0.11085293801E+03  0.11622400267E+04  0.11863403808E+04  0.19900000000E+03 0.  0.
<mgrwt>
<rscale>  0 0.50248612E+03</rscale>
<asrwt>0</asrwt>
<pdfrwt beam="1">  1        2 0.49443422E+00 0.50248612E+03</pdfrwt>
<pdfrwt beam="2">  1       -2 0.26054548E-02 0.50248612E+03</pdfrwt>
<totfact> 0.77866824E+02</totfact>
</mgrwt>
</event>
<event>
 4    1  0.1869793E-005  0.6291091E+03  0.7818608E-02  0.9846789E-01
          2   -1    0    0  501    0  0.00000000000E+00  0.00000000000E+00  0.12278895009E+03  0.12278895012E+03  0.25500000000E-02 0.  1.
         -2   -1    0    0    0  501 -0.00000000000E+00 -0.00000000000E+00 -0.80581006893E+03  0.80581006893E+03  0.25500000000E-02 0. -1.
    5000001    1    1    2    0    0  0.12440565056E+03 -0.10423723045E+03 -0.73366326940E+02  0.26706887507E+03  0.19900000000E+03 0.  0.
   -5000001    1    1    2    0    0 -0.12440565056E+03  0.10423723045E+03 -0.60965479190E+03  0.66153014398E+03  0.19900000000E+03 0.  0.
<mgrwt>
<rscale>  0 0.62910912E+03</rscale>
<asrwt>0</asrwt>
<pdfrwt beam="1">  1        2 0.17541279E-01 0.62910912E+03</pdfrwt>
<pdfrwt beam="2">  1       -2 0.11511572E+00 0.62910912E+03</pdfrwt>
<totfact> 0.19769134E+02</totfact>
</mgrwt>
</event>
<event>
 4    1  0.1869793E-005  0.4859495E+03  0.7818608E-02  0.1017513E+00
          2   -1    0    0  501    0  0.00000000000E+00  0.00000000000E+00  0.32959608083E+03  0.32959608084E+03  0.25500000000E-02 0.  1.
         -2   -1    0    0    0  501 -0.00000000000E+00 -0.00000000000E+00 -0.17911843363E+03  0.17911843365E+03  0.25500000000E-02 0. -1.
    5000001    1    1    2    0    0 -0.92875610009E+02 -0.67909166461E+02  0.15765562627E+03  0.27873613027E+03  0.19900000000E+03 0.  0.
   -5000001    1    1    2    0    0  0.92875610009E+02  0.67909166461E+02 -0.71779790610E+01  0.22997838422E+03  0.19900000000E+03 0.  0.
<mgrwt>
<rscale>  0 0.48594952E+03</rscale>
<asrwt>0</asrwt>
<pdfrwt beam="1">  1        2 0.47085154E-01 0.48594952E+03</pdfrwt>
<pdfrwt beam="2">  1       -2 0.25588348E-01 0.48594952E+03</pdfrwt>
<totfact> 0.14704688E+03</totfact>
</mgrwt>
</event>
<event>
 4    1  0.1869793E-005  0.6594490E+03  0.7818608E-02  0.9789209E-01
         -2   -1    0    0    0  501 -0.00000000000E+00  0.00000000000E+00  0.25482675095E+04  0.25482675095E+04  0.25500000000E-02 0. -1.
          2   -1    0    0  501    0  0.00000000000E+00 -0.00000000000E+00 -0.42663588121E+02  0.42663588197E+02  0.25500000000E-02 0.  1.
    5000001    1    1    2    0    0 -0.25498563355E+03  0.44030876687E+02  0.10701659592E+04  0.11188443018E+04  0.19900000000E+03 0.  0.
   -5000001    1    1    2    0    0  0.25498563355E+03 -0.44030876687E+02  0.14354379621E+04  0.14720867958E+04  0.19900000000E+03 0.  0.
<mgrwt>
<rscale>  0 0.65944897E+03</rscale>
<asrwt>0</asrwt>
<pdfrwt beam="1">  1        2 0.60947980E-02 0.65944897E+03</pdfrwt>
<pdfrwt beam="2">  1       -2 0.36403823E+00 0.65944897E+03</pdfrwt>
<totfact> 0.17198034E+01</totfact>
</mgrwt>
</event>
<event>
 4    1  0.1869793E-005  0.5500033E+03  0.7818608E-02  0.1001493E+00
         -2   -1    0    0    0  501 -0.00000000000E+00  0.00000000000E+00  0.52427517364E+02  0.52427517426E+02  0.25500000000E-02 0. -1.
          2   -1    0    0  501    0  0.00000000000E+00 -0.00000000000E+00 -0.14424851794E+04  0.14424851794E+04  0.25500000000E-02 0.  1.
    5000001    1    1    2    0    0 -0.16763978847E+03  0.73686358033E+02 -0.83071532533E+03  0.87362562335E+03  0.19900000000E+03 0.  0.
   -5000001    1    1    2    0    0  0.16763978847E+03 -0.73686358033E+02 -0.55934233675E+03  0.62128707351E+03  0.19900000000E+03 0.  0.
<mgrwt>
<rscale>  0 0.55000333E+03</rscale>
<asrwt>0</asrwt>
<pdfrwt beam="1">  1        2 0.20606929E+00 0.55000333E+03</pdfrwt>
<pdfrwt beam="2">  1       -2 0.74896463E-02 0.55000333E+03</pdfrwt>
<totfact> 0.17382151E+03</totfact>
</mgrwt>
</event>
<event>
 4    1  0.1869793E-005  0.6901802E+03  0.7818608E-02  0.9734174E-01
          2   -1    0    0  501    0  0.00000000000E+00  0.00000000000E+00  0.35997704694E+04  0.35997704694E+04  0.25500000000E-02 0.  1.
         -2   -1    0    0    0  501 -0.00000000000E+00 -0.00000000000E+00 -0.33081878964E+02  0.33081879063E+02  0.25500000000E-02 0. -1.
    5000001    1    1    2    0    0  0.17691293084E+03  0.21918374774E+03  0.18470474226E+04  0.18789691008E+04  0.19900000000E+03 0.  0.
   -5000001    1    1    2    0    0 -0.17691293084E+03 -0.21918374774E+03  0.17196411679E+04  0.17538832477E+04  0.19900000000E+03 0.  0.
<mgrwt>
<rscale>  0 0.69018018E+03</rscale>
<asrwt>0</asrwt>
<pdfrwt beam="1">  1        2 0.51425315E+00 0.69018018E+03</pdfrwt>
<pdfrwt beam="2">  1       -2 0.47259806E-02 0.69018018E+03</pdfrwt>
<totfact> 0.25319418E+02</totfact>
</mgrwt>
</event>
<event>
 4    1  0.1869793E-005  0.4819681E+03  0.7818608E-02  0.1018596E+00
          2   -1    0    0  501    0  0.00000000000E+00  0.00000000000E+00  0.18086918600E+04  0.18086918600E+04  0.25500000000E-02 0.  1.
         -2   -1    0    0    0  501 -0.00000000000E+00 -0.00000000000E+00 -0.32107910256E+02  0.32107910358E+02  0.25500000000E-02 0. -1.
    5000001    1    1    2    0    0  0.12708517623E+03  0.29510513391E+02  0.74281557155E+03  0.77999838830E+03  0.19900000000E+03 0.  0.
   -5000001    1    1    2    0    0 -0.12708517623E+03 -0.29510513391E+02  0.10337683782E+04  0.10608013821E+04  0.19900000000E+03 0.  0.
<mgrwt>
<rscale>  0 0.48196812E+03</rscale>
<asrwt>0</asrwt>
<pdfrwt beam="1">  1        2 0.25838460E+00 0.48196812E+03</pdfrwt>
<pdfrwt beam="2">  1       -2 0.45868435E-02 0.48196812E+03</pdfrwt>
<totfact> 0.24321572E+03</totfact>
</mgrwt>
</event>
<event>
 4    1  0.1869793E-005  0.5714363E+03  0.7818608E-02  0.9966505E-01
         -2   -1    0    0    0  501 -0.00000000000E+00  0.00000000000E+00  0.26451373836E+03  0.26451373837E+03  0.25500000000E-02 0. -1.
          2   -1    0    0  501    0  0.00000000000E+00 -0.00000000000E+00 -0.30862243964E+03  0.30862243965E+03  0.25500000000E-02 0.  1.
    5000001    1    1    2    0    0  0.11758640168E+03 -0.24479096655E+02  0.14459672458E+03  0.27374258125E+03  0.19900000000E+03 0.  0.
   -5000001    1    1    2    0    0 -0.11758640168E+03  0.24479096655E+02 -0.18870542586E+03  0.29939359676E+03  0.19900000000E+03 0.  0.
<mgrwt>
<rscale>  0 0.57143635E+03</rscale>
<asrwt>0</asrwt>
<pdfrwt beam="1">  1        2 0.44088920E-01 0.57143635E+03</pdfrwt>
<pdfrwt beam="2">  1       -2 0.37787677E-01 0.57143635E+03</pdfrwt>
<totfact> 0.76712141E+02</totfact>
</mgrwt>
</event>
<event>
 4    1  0.1869793E-005  0.4942917E+03  0.7818608E-02  0.1015280E+00
         -2   -1    0    0    0  501 -0.00000000000E+00  0.00000000000E+00  0.71267467118E+02  0.71267467164E+02  0.25500000000E-02 0. -1.
          2   -1    0    0  501    0  0.00000000000E+00 -0.00000000000E+00 -0.85706810425E+03  0.85706810425E+03  0.25500000000E-02 0.  1.
    5000001    1    1    2    0    0 -0.50654912459E+02 -0.69283437915E+01 -0.65086682304E+03  0.68252658808E+03  0.19900000000E+03 0.  0.
   -5000001    1    1    2    0    0  0.50654912459E+02  0.69283437915E+01 -0.13493381409E+03  0.24580898334E+03  0.19900000000E+03 0.  0.
<mgrwt>
<rscale>  0 0.49429171E+03</rscale>
<asrwt>0</asrwt>
<pdfrwt beam="1">  1        2 0.12243829E+00 0.49429171E+03</pdfrwt>
<pdfrwt beam="2">  1       -2 0.10181067E-01 0.49429171E+03</pdfrwt>
<totfact> 0.23127406E+03</totfact>
</mgrwt>
</event>
<event>
 4    1  0.1869793E-005  0.7106102E+03  0.7818608E-02  0.9699257E-01
          2   -1    0    0  501    0  0.00000000000E+00  0.00000000000E+00  0.15435112625E+03  0.15435112627E+03  0.25500000000E-02 0.  1.
         -2   -1    0    0    0  501 -0.00000000000E+00 -0.00000000000E+00 -0.81788660906E+03  0.81788660907E+03  0.25500000000E-02 0. -1.
    5000001    1    1    2    0    0  0.21391055352E+03 -0.13134888970E+03 -0.54208608260E+03  0.62965750745E+03  0.19900000000E+03 0.  0.
   -5000001    1    1    2    0    0 -0.21391055352E+03  0.13134888970E+03 -0.12144940020E+03  0.34258022789E+03  0.19900000000E+03 0.  0.
<mgrwt>
<rscale>  0 0.71061021E+03</rscale>
<asrwt>0</asrwt>
<pdfrwt beam="1">  1        2 0.22050161E-01 0.71061021E+03</pdfrwt>
<pdfrwt beam="2">  1       -2 0.11684094E+00 0.71061021E+03</pdfrwt>
<totfact> 0.14525624E+02</totfact>
</mgrwt>
</event>
<event>
 4    1  0.1869793E-005  0.5177656E+03  0.7818608E-02  0.1009243E+00
         -2   -1    0    0    0  501 -0.00000000000E+00  0.00000000000E+00  0.22837444176E+02  0.22837444318E+02  0.25500000000E-02 0. -1.
          2   -1    0    0  501    0  0.00000000000E+00 -0.00000000000E+00 -0.29346675823E+04  0.29346675823E+04  0.25500000000E-02 0.  1.
    5000001    1    1    2    0    0 -0.53118092018E+02 -0.52845160187E+02 -0.22993896001E+04  0.23092006573E+04  0.19900000000E+03 0.  0.
   -5000001    1    1    2    0    0  0.53118092018E+02  0.52845160187E+02 -0.61244053802E+03  0.64830436931E+03  0.19900000000E+03 0.  0.
<mgrwt>
<rscale>  0 0.51776561E+03</rscale>
<asrwt>0</asrwt>
<pdfrwt beam="1">  1        2 0.41923798E+00 0.51776561E+03</pdfrwt>
<pdfrwt beam="2">  1       -2 0.32624939E-02 0.51776561E+03</pdfrwt>
<totfact> 0.10899355E+03</totfact>
</mgrwt>
</event>
<event>
 4    1  0.1869793E-005  0.6435820E+03  0.7818608E-02  0.9818897E-01
          2   -1    0    0  501    0  0.00000000000E+00  0.00000000000E+00  0.11653914192E+03  0.11653914195E+03  0.25500000000E-02 0.  1.
         -2   -1    0    0    0  501 -0.00000000000E+00 -0.00000000000E+00 -0.88853798278E+03  0.88853798279E+03  0.25500000000E-02 0. -1.
    5000001    1    1    2    0    0  0.13615999561E+03  0.17106652293E+03 -0.58443364930E+03  0.65495571614E+03  0.19900000000E+03 0.  0.
   -5000001    1    1    2    0    0 -0.13615999561E+03 -0.17106652293E+03 -0.18756519156E+03  0.35012140859E+03  0.19900000000E+03 0.  0.
<mgrwt>
<rscale>  0 0.64358202E+03</rscale>
<asrwt>0</asrwt>
<pdfrwt beam="1">  1        2 0.16648449E-01 0.64358202E+03</pdfrwt>
<pdfrwt beam="2">  1       -2 0.12693399E+00 0.64358202E+03</pdfrwt>
<totfact> 0.16516644E+02</totfact>
</mgrwt>
</event>
<event>
 4    1  0.1869793E-005  0.5081983E+03  0.7818608E-02  0.1011661E+00
         -2   -1    0    0    0  501 -0.00000000000E+00  0.00000000000E+00  0.33408147555E+02  0.33408147652E+02  0.25500000000E-02 0. -1.
          2   -1    0    0  501    0  0.00000000000E+00 -0.00000000000E+00 -0.19326535845E+04  0.19326535845E+04  0.25500000000E-02 0.  1.
    5000001    1    1    2    0    0 -0.13311107753E+03  0.82828278268E+02 -0.87358611790E+03  0.90957835728E+03  0.19900000000E+03 0.  0.
   -5000001    1    1    2    0    0  0.13311107753E+03 -0.82828278268E+02 -0.10256593190E+04  0.10564833749E+04  0.19900000000E+03 0.  0.
<mgrwt>
<rscale>  0 0.50819829E+03</rscale>
<asrwt>0</asrwt>
<pdfrwt beam="1">  1        2 0.27609330E+00 0.50819829E+03</pdfrwt>
<pdfrwt beam="2">  1       -2 0.47725937E-02 0.50819829E+03</pdfrwt>
<totfact> 0.19818132E+03</totfact>
</mgrwt>
</event>
<event>
 4    1  0.1869793E-005  0.6130985E+03  0.7818608E-02  0.9878597E-01
         -2   -1    0    0    0  501 -0.00000000000E+00  0.00000000000E+00  0.68152603808E+02  0.68152603856E+02  0.25500000000E-02 0. -1.
          2   -1    0    0  501    0  0.00000000000E+00 -0.00000000000E+00 -0.13788533672E+04  0.13788533672E+04  0.25500000000E-02 0.  1.
    5000001    1    1    2    0    0 -0.90081999200E+02  0.18443922525E+03 -0.91645251272E+03  0.96000979290E+03  0.19900000000E+03 0.  0.
   -5000001    1    1    2    0    0  0.90081999200E+02 -0.18443922525E+03 -0.39424825071E+03  0.48699617820E+03  0.19900000000E+03 0.  0.
<mgrwt>
<rscale>  0 0.61309852E+03</rscale>
<asrwt>0</asrwt>
<pdfrwt beam="1">  1        2 0.19697903E+00 0.61309852E+03</pdfrwt>
<pdfrwt beam="2">  1       -2 0.97360871E-02 0.61309852E+03</pdfrwt>
<totfact> 0.12320320E+03</totfact>
</mgrwt>
</event>
<event>
 4    1  0.1869793E-005  0.7178788E+03  0.7818608E-02  0.9687136E-01
          2   -1    0    0  501    0  0.00000000000E+00  0.00000000000E+00  0.47574737781E+03  0.47574737782E+03  0.25500000000E-02 0.  1.
         -2   -1    0    0    0  501 -0.00000000000E+00 -0.00000000000E+00 -0.27081072126E+03  0.27081072127E+03  0.25500000000E-02 0. -1.
    5000001    1    1    2    0    0  0.68200215748E+01 -0.26107872823E+03  0.25327139923E+03  0.41467579709E+03  0.19900000000E+03 0.  0.
   -5000001    1    1    2    0    0 -0.68200215748E+01  0.26107872823E+03 -0.48334742673E+02  0.33188230199E+03  0.19900000000E+03 0.  0.
<mgrwt>
<rscale>  0 0.71787879E+03</rscale>
<asrwt>0</asrwt>
<pdfrwt beam="1">  1        2 0.67963911E-01 0.71787879E+03</pdfrwt>
<pdfrwt beam="2">  1       -2 0.38687246E-01 0.71787879E+03</pdfrwt>
<totfact> 0.45147586E+02</totfact>
</mgrwt>
</event>
<event>
 4    1  0.1869793E-005  0.1010510E+04  0.7818608E-02  0.9297093E-01
          2   -1    0    0  501    0  0.00000000000E+00  0.00000000000E+00  0.30628584117E+04  0.30628584117E+04  0.25500000000E-02 0.  1.
         -2   -1    0    0    0  501 -0.00000000000E+00 -0.00000000000E+00 -0.83347776451E+02  0.83347776490E+02  0.25500000000E-02 0. -1.
    5000001    1    1    2    0    0 -0.45493068503E+03 -0.65477258966E+02  0.16970357392E+04  0.17694011698E+04  0.19900000000E+03 0.  0.
   -5000001    1    1    2    0    0  0.45493068503E+03  0.65477258966E+02  0.12824748960E+04  0.13768050184E+04  0.19900000000E+03 0.  0.
<mgrwt>
<rscale>  0 0.10105097E+04</rscale>
<asrwt>0</asrwt>
<pdfrwt beam="1">  1        2 0.43755103E+00 0.10105097E+04</pdfrwt>
<pdfrwt beam="2">  1       -2 0.11906830E-01 0.10105097E+04</pdfrwt>
<totfact> 0.11447060E+02</totfact>
</mgrwt>
</event>
<event>
 4    1  0.1869793E-005  0.1249182E+04  0.7818608E-02  0.9070865E-01
          2   -1    0    0  501    0  0.00000000000E+00  0.00000000000E+00  0.10636692679E+04  0.10636692679E+04  0.25500000000E-02 0.  1.
         -2   -1    0    0    0  501 -0.00000000000E+00 -0.00000000000E+00 -0.36676216329E+03  0.36676216330E+03  0.25500000000E-02 0. -1.
    5000001    1    1    2    0    0 -0.31976653948E+03 -0.47624501657E+03  0.18073453087E+03  0.63350290152E+03  0.19900000000E+03 0.  0.
   -5000001    1    1    2    0    0  0.31976653948E+03  0.47624501657E+03  0.51617257378E+03  0.79692852973E+03  0.19900000000E+03 0.  0.
<mgrwt>
<rscale>  0 0.12491816E+04</rscale>
<asrwt>0</asrwt>
<pdfrwt beam="1">  1        2 0.15195275E+00 0.12491816E+04</pdfrwt>
<pdfrwt beam="2">  1       -2 0.52394596E-01 0.12491816E+04</pdfrwt>
<totfact> 0.86870315E+01</totfact>
</mgrwt>
</event>
<event>
 4    1  0.1869793E-005  0.5099140E+03  0.7818608E-02  0.1011223E+00
         -2   -1    0    0    0  501 -0.00000000000E+00  0.00000000000E+00  0.63158141310E+03  0.63158141311E+03  0.25500000000E-02 0. -1.
          2   -1    0    0  501    0  0.00000000000E+00 -0.00000000000E+00 -0.10292111971E+03  0.10292111974E+03  0.25500000000E-02 0.  1.
    5000001    1    1    2    0    0 -0.11927332717E+03  0.39767790092E+02  0.12323674435E+03  0.26569888758E+03  0.19900000000E+03 0.  0.
   -5000001    1    1    2    0    0  0.11927332717E+03 -0.39767790092E+02  0.40542354904E+03  0.46880364527E+03  0.19900000000E+03 0.  0.
<mgrwt>
<rscale>  0 0.50991398E+03</rscale>
<asrwt>0</asrwt>
<pdfrwt beam="1">  1        2 0.14703017E-01 0.50991398E+03</pdfrwt>
<pdfrwt beam="2">  1       -2 0.90225914E-01 0.50991398E+03</pdfrwt>
<totfact> 0.43596784E+02</totfact>
</mgrwt>
</event>
<event>
 4    1  0.1869793E-005  0.4213567E+03  0.7818608E-02  0.1036626E+00
          2   -1    0    0  501    0  0.00000000000E+00  0.00000000000E+00  0.15346070390E+04  0.15346070390E+04  0.25500000000E-02 0.  1.
         -2   -1    0    0    0  501 -0.00000000000E+00 -0.00000000000E+00 -0.28922953005E+02  0.28922953117E+02  0.25500000000E-02 0. -1.
    5000001    1    1    2    0    0  0.30402827963E+02 -0.37384230712E+02  0.56870530862E+03  0.60444076691E+03  0.19900000000E+03 0.  0.
   -5000001    1    1    2    0    0 -0.30402827963E+02  0.37384230712E+02  0.93697877735E+03  0.95908922518E+03  0.19900000000E+03 0.  0.
<mgrwt>
<rscale>  0 0.42135670E+03</rscale>
<asrwt>0</asrwt>
<pdfrwt beam="1">  1        2 0.21922959E+00 0.42135670E+03</pdfrwt>
<pdfrwt beam="2">  1       -2 0.41318502E-02 0.42135670E+03</pdfrwt>
<totfact> 0.39292083E+03</totfact>
</mgrwt>
</event>
<event>
 4    1  0.1869793E-005  0.9412046E+03  0.7818608E-02  0.9375491E-01
          2   -1    0    0  501    0  0.00000000000E+00  0.00000000000E+00  0.71891986311E+03  0.71891986311E+03  0.25500000000E-02 0.  1.
         -2   -1    0    0    0  501 -0.00000000000E+00 -0.00000000000E+00 -0.30805450677E+03  0.30805450679E+03  0.25500000000E-02 0. -1.
    5000001    1    1    2    0    0 -0.49290394265E+02  0.28110850325E+03 -0.14032565354E+03  0.37515839669E+03  0.19900000000E+03 0.  0.
   -5000001    1    1    2    0    0  0.49290394265E+02 -0.28110850325E+03  0.55119100987E+03  0.65181597321E+03  0.19900000000E+03 0.  0.
<mgrwt>
<rscale>  0 0.94120456E+03</rscale>
<asrwt>0</asrwt>
<pdfrwt beam="1">  1        2 0.10270284E+00 0.94120456E+03</pdfrwt>
<pdfrwt beam="2">  1       -2 0.44007787E-01 0.94120456E+03</pdfrwt>
<totfact> 0.21324481E+02</totfact>
</mgrwt>
</event>
<event>
 4    1  0.1869793E-005  0.5444749E+03  0.7818608E-02  0.1002781E+00
         -2   -1    0    0    0  501 -0.00000000000E+00  0.00000000000E+00  0.27466182444E+02  0.27466182562E+02  0.25500000000E-02 0. -1.
          2   -1    0    0  501    0  0.00000000000E+00 -0.00000000000E+00 -0.26983447676E+04  0.26983447676E+04  0.25500000000E-02 0.  1.
    5000001    1    1    2    0    0  0.10671608372E+03 -0.11407253534E+03 -0.83202824905E+03  0.86963950753E+03  0.19900000000E+03 0.  0.
   -5000001    1    1    2    0    0 -0.10671608372E+03  0.11407253534E+03 -0.18388503361E+04  0.18561714426E+04  0.19900000000E+03 0.  0.
<mgrwt>
<rscale>  0 0.54447490E+03</rscale>
<asrwt>0</asrwt>
<pdfrwt beam="1">  1        2 0.38547765E+00 0.54447490E+03</pdfrwt>
<pdfrwt beam="2">  1       -2 0.39237421E-02 0.54447490E+03</pdfrwt>
<totfact> 0.10942517E+03</totfact>
</mgrwt>
</event>
<event>
 4    1  0.1869793E-005  0.5980001E+03  0.7818608E-02  0.9909564E-01
          2   -1    0    0  501    0  0.00000000000E+00  0.00000000000E+00  0.24460567717E+04  0.24460567717E+04  0.25500000000E-02 0.  1.
         -2   -1    0    0    0  501 -0.00000000000E+00 -0.00000000000E+00 -0.36549044341E+02  0.36549044430E+02  0.25500000000E-02 0. -1.
    5000001    1    1    2    0    0  0.15515769890E+03  0.12150534295E+03  0.16394270335E+04  0.16631775185E+04  0.19900000000E+03 0.  0.
   -5000001    1    1    2    0    0 -0.15515769890E+03 -0.12150534295E+03  0.77008069385E+03  0.81942829761E+03  0.19900000000E+03 0.  0.
<mgrwt>
<rscale>  0 0.59800013E+03</rscale>
<asrwt>0</asrwt>
<pdfrwt beam="1">  1        2 0.34943675E+00 0.59800013E+03</pdfrwt>
<pdfrwt beam="2">  1       -2 0.52212910E-02 0.59800013E+03</pdfrwt>
<totfact> 0.94636639E+02</totfact>
</mgrwt>
</event>
<event>
 4    1  0.1869793E-005  0.5648564E+03  0.7818608E-02  0.9981126E-01
         -2   -1    0    0    0  501 -0.00000000000E+00  0.00000000000E+00  0.96370849004E+03  0.96370849004E+03  0.25500000000E-02 0. -1.
          2   -1    0    0  501    0  0.00000000000E+00 -0.00000000000E+00 -0.82769531154E+02  0.82769531193E+02  0.25500000000E-02 0.  1.
    5000001    1    1    2    0    0 -0.60375508819E+02  0.11141254452E+03  0.15282152329E+03  0.28109317872E+03  0.19900000000E+03 0.  0.
   -5000001    1    1    2    0    0  0.60375508819E+02 -0.11141254452E+03  0.72811743559E+03  0.76538484251E+03  0.19900000000E+03 0.  0.
<mgrwt>
<rscale>  0 0.56485644E+03</rscale>
<asrwt>0</asrwt>
<pdfrwt beam="1">  1        2 0.11824219E-01 0.56485644E+03</pdfrwt>
<pdfrwt beam="2">  1       -2 0.13767264E+00 0.56485644E+03</pdfrwt>
<totfact> 0.20484292E+02</totfact>
</mgrwt>
</event>
<event>
 4    1  0.1869793E-005  0.4159265E+03  0.7818608E-02  0.1038400E+00
         -2   -1    0    0    0  501 -0.00000000000E+00  0.00000000000E+00  0.23868280923E+02  0.23868281059E+02  0.25500000000E-02 0. -1.
          2   -1    0    0  501    0  0.00000000000E+00 -0.00000000000E+00 -0.18119747924E+04  0.18119747924E+04  0.25500000000E-02 0.  1.
    5000001    1    1    2    0    0  0.57227909179E+02  0.19258906691E+02 -0.88815711647E+03  0.91217871199E+03  0.19900000000E+03 0.  0.
   -5000001    1    1    2    0    0 -0.57227909179E+02 -0.19258906691E+02 -0.89994939503E+03  0.92366436149E+03  0.19900000000E+03 0.  0.
<mgrwt>
<rscale>  0 0.41592655E+03</rscale>
<asrwt>0</asrwt>
<pdfrwt beam="1">  1        2 0.25885345E+00 0.41592655E+03</pdfrwt>
<pdfrwt beam="2">  1       -2 0.34097556E-02 0.41592655E+03</pdfrwt>
<totfact> 0.38137549E+03</totfact>
</mgrwt>
</event>
<event>
 4    1  0.1869793E-005  0.6889855E+03  0.7818608E-02  0.9736256E-01
          2   -1    0    0  501    0  0.00000000000E+00  0.00000000000E+00  0.87616760339E+03  0.87616760340E+03  0.25500000000E-02 0.  1.
         -2   -1    0    0    0  501 -0.00000000000E+00 -0.00000000000E+00 -0.13544810172E+03  0.13544810175E+03  0.25500000000E-02 0. -1.
    5000001    1    1    2    0    0 -0.26579471122E+03  0.34357676083E+02  0.24536739587E+03  0.41428666086E+03  0.19900000000E+03 0.  0.
   -5000001    1    1    2    0    0  0.26579471122E+03 -0.34357676083E+02  0.49535210580E+03  0.59732904428E+03  0.19900000000E+03 0.  0.
<mgrwt>
<rscale>  0 0.68898545E+03</rscale>
<asrwt>0</asrwt>
<pdfrwt beam="1">  1        2 0.12516680E+00 0.68898545E+03</pdfrwt>
<pdfrwt beam="2">  1       -2 0.19349730E-01 0.68898545E+03</pdfrwt>
<totfact> 0.76512165E+02</totfact>
</mgrwt>
</event>
<event>
 4    1  0.1869793E-005  0.9581262E+03  0.7818608E-02  0.9355702E-01
          2   -1    0    0  501    0  0.00000000000E+00  0.00000000000E+00  0.91883908267E+03  0.91883908267E+03  0.25500000000E-02 0.  1.
         -2   -1    0    0    0  501 -0.00000000000E+00 -0.00000000000E+00 -0.24977330768E+03  0.24977330769E+03  0.25500000000E-02 0. -1.
    5000001    1    1    2    0    0  0.30538794586E+02  0.42755697802E+03  0.23878263267E+03  0.52948629170E+03  0.19900000000E+03 0.  0.
   -5000001    1    1    2    0    0 -0.30538794586E+02 -0.42755697802E+03  0.43028314233E+03  0.63912609867E+03  0.19900000000E+03 0.  0.
<mgrwt>
<rscale>  0 0.95812625E+03</rscale>
<asrwt>0</asrwt>
<pdfrwt beam="1">  1        2 0.13126273E+00 0.95812625E+03</pdfrwt>
<pdfrwt beam="2">  1       -2 0.35681901E-01 0.95812625E+03</pdfrwt>
<totfact> 0.23293318E+02</totfact>
</mgrwt>
</event>
<event>
 4    1  0.1869793E-005  0.5145190E+03  0.7818608E-02  0.1010057E+00
         -2   -1    0    0    0  501 -0.00000000000E+00  0.00000000000E+00  0.11135848007E+04  0.11135848007E+04  0.25500000000E-02 0. -1.
          2   -1    0    0  501    0  0.00000000000E+00 -0.00000000000E+00 -0.59431884495E+02  0.59431884550E+02  0.25500000000E-02 0.  1.
    5000001    1    1    2    0    0  0.51687417660E+02 -0.15459995487E+03  0.52034879416E+03  0.58046240428E+03  0.19900000000E+03 0.  0.
   -5000001    1    1    2    0    0 -0.51687417660E+02  0.15459995487E+03  0.53380412200E+03  0.59255428094E+03  0.19900000000E+03 0.  0.
<mgrwt>
<rscale>  0 0.51451897E+03</rscale>
<asrwt>0</asrwt>
<pdfrwt beam="1">  1        2 0.84902705E-02 0.51451897E+03</pdfrwt>
<pdfrwt beam="2">  1       -2 0.15908352E+00 0.51451897E+03</pdfrwt>
<totfact> 0.21375646E+02</totfact>
</mgrwt>
</event>
<event>
 4    1  0.1869793E-005  0.1036596E+04  0.7818608E-02  0.9269293E-01
          2   -1    0    0  501    0  0.00000000000E+00  0.00000000000E+00  0.22918881836E+03  0.22918881837E+03  0.25500000000E-02 0.  1.
         -2   -1    0    0    0  501 -0.00000000000E+00 -0.00000000000E+00 -0.11721031561E+04  0.11721031561E+04  0.25500000000E-02 0. -1.
    5000001    1    1    2    0    0  0.10640378158E+03 -0.40892971903E+03 -0.77520089629E+03  0.90503188312E+03  0.19900000000E+03 0.  0.
   -5000001    1    1    2    0    0 -0.10640378158E+03  0.40892971903E+03 -0.16771344146E+03  0.49626009137E+03  0.19900000000E+03 0.  0.
<mgrwt>
<rscale>  0 0.10365962E+04</rscale>
<asrwt>0</asrwt>
<pdfrwt beam="1">  1        2 0.32741260E-01 0.10365962E+04</pdfrwt>
<pdfrwt beam="2">  1       -2 0.16744331E+00 0.10365962E+04</pdfrwt>
<totfact> 0.35721518E+01</totfact>
</mgrwt>
</event>
<event>
 4    1  0.1869793E-005  0.9877351E+03  0.7818608E-02  0.9322100E-01
         -2   -1    0    0    0  501 -0.00000000000E+00  0.00000000000E+00  0.10039963263E+03  0.10039963266E+03  0.25500000000E-02 0. -1.
          2   -1    0    0  501    0  0.00000000000E+00 -0.00000000000E+00 -0.24293432764E+04  0.24293432764E+04  0.25500000000E-02 0.  1.
    5000001    1    1    2    0    0 -0.29940572923E+03  0.27344161917E+03 -0.16759984495E+04  0.17357954697E+04  0.19900000000E+03 0.  0.
   -5000001    1    1    2    0    0  0.29940572923E+03 -0.27344161917E+03 -0.65294519425E+03  0.79394743937E+03  0.19900000000E+03 0.  0.
<mgrwt>
<rscale>  0 0.98773513E+03</rscale>
<asrwt>0</asrwt>
<pdfrwt beam="1">  1        2 0.34704900E+00 0.98773513E+03</pdfrwt>
<pdfrwt beam="2">  1       -2 0.14342806E-01 0.98773513E+03</pdfrwt>
<totfact> 0.18332401E+02</totfact>
</mgrwt>
</event>
<event>
 4    1  0.1869793E-005  0.7966697E+03  0.7818608E-02  0.9564850E-01
          2   -1    0    0  501    0  0.00000000000E+00  0.00000000000E+00  0.16981879436E+04  0.16981879436E+04  0.25500000000E-02 0.  1.
         -2   -1    0    0    0  501 -0.00000000000E+00 -0.00000000000E+00 -0.93435277489E+02  0.93435277524E+02  0.25500000000E-02 0. -1.
    5000001    1    1    2    0    0 -0.28966437393E+03 -0.17591443363E+03  0.94843870611E+03  0.10266393314E+04  0.19900000000E+03 0.  0.
   -5000001    1    1    2    0    0  0.28966437393E+03  0.17591443363E+03  0.65631396002E+03  0.76498388977E+03  0.19900000000E+03 0.  0.
<mgrwt>
<rscale>  0 0.79666972E+03</rscale>
<asrwt>0</asrwt>
<pdfrwt beam="1">  1        2 0.24259828E+00 0.79666972E+03</pdfrwt>
<pdfrwt beam="2">  1       -2 0.13347896E-01 0.79666972E+03</pdfrwt>
<totfact> 0.49540196E+02</totfact>
</mgrwt>
</event>
<event>
 4    1  0.1869793E-005  0.7073959E+03  0.7818608E-02  0.9704667E-01
         -2   -1    0    0    0  501 -0.00000000000E+00  0.00000000000E+00  0.13342363263E+03  0.13342363266E+03  0.25500000000E-02 0. -1.
          2   -1    0    0  501    0  0.00000000000E+00 -0.00000000000E+00 -0.93763184415E+03  0.93763184415E+03  0.25500000000E-02 0.  1.
    5000001    1    1    2    0    0 -0.25291477913E+02  0.22521552616E+03 -0.12234879373E+03  0.32547184119E+03  0.19900000000E+03 0.  0.
   -5000001    1    1    2    0    0  0.25291477913E+02 -0.22521552616E+03 -0.68185941778E+03  0.74558363562E+03  0.19900000000E+03 0.  0.
<mgrwt>
<rscale>  0 0.70739592E+03</rscale>
<asrwt>0</asrwt>
<pdfrwt beam="1">  1        2 0.13394740E+00 0.70739592E+03</pdfrwt>
<pdfrwt beam="2">  1       -2 0.19060519E-01 0.70739592E+03</pdfrwt>
<totfact> 0.71637039E+02</totfact>
</mgrwt>
</event>
<event>
 4    1  0.1869793E-005  0.1226167E+04  0.7818608E-02  0.9090256E-01
          2   -1    0    0  501    0  0.00000000000E+00  0.00000000000E+00  0.75443194264E+03  0.75443194265E+03  0.25500000000E-02 0.  1.
         -2   -1    0    0    0  501 -0.00000000000E+00 -0.00000000000E+00 -0.49821810513E+03  0.49821810514E+03  0.25500000000E-02 0. -1.
    5000001    1    1    2    0    0 -0.29200934403E+03  0.41485904304E+03  0.41505259231E+03  0.68501615819E+03  0.19900000000E+03 0.  0.
   -5000001    1    1    2    0    0  0.29200934403E+03 -0.41485904304E+03 -0.15883875481E+03  0.56763388960E+03  0.19900000000E+03 0.  0.
<mgrwt>
<rscale>  0 0.12261674E+04</rscale>
<asrwt>0</asrwt>
<pdfrwt beam="1">  1        2 0.10777599E+00 0.12261674E+04</pdfrwt>
<pdfrwt beam="2">  1       -2 0.71174016E-01 0.12261674E+04</pdfrwt>
<totfact> 0.72441197E+01</totfact>
</mgrwt>
</event>
<event>
 4    1  0.1869793E-005  0.1556008E+04  0.7818608E-02  0.8848039E-01
          2   -1    0    0  501    0  0.00000000000E+00  0.00000000000E+00  0.21648628158E+04  0.21648628158E+04  0.25500000000E-02 0.  1.
         -2   -1    0    0    0  501 -0.00000000000E+00 -0.00000000000E+00 -0.27959757688E+03  0.27959757689E+03  0.25500000000E-02 0. -1.
    5000001    1    1    2    0    0  0.49168429030E+02 -0.71640691822E+03  0.12940306708E+04  0.14932423728E+04  0.19900000000E+03 0.  0.
   -5000001    1    1    2    0    0 -0.49168429030E+02  0.71640691822E+03  0.59123456816E+03  0.95121801995E+03  0.19900000000E+03 0.  0.
<mgrwt>
<rscale>  0 0.15560082E+04</rscale>
<asrwt>0</asrwt>
<pdfrwt beam="1">  1        2 0.30926611E+00 0.15560082E+04</pdfrwt>
<pdfrwt beam="2">  1       -2 0.39942512E-01 0.15560082E+04</pdfrwt>
<totfact> 0.37705844E+01</totfact>
</mgrwt>
</event>
<event>
 4    1  0.1869793E-005  0.4897113E+03  0.7818608E-02  0.1016500E+00
         -2   -1    0    0    0  501 -0.00000000000E+00  0.00000000000E+00  0.34257592274E+02  0.34257592368E+02  0.25500000000E-02 0. -1.
          2   -1    0    0  501    0  0.00000000000E+00 -0.00000000000E+00 -0.17501025408E+04  0.17501025408E+04  0.25500000000E-02 0.  1.
    5000001    1    1    2    0    0  0.13048678288E+03  0.49139870372E+02 -0.96794597910E+03  0.99797893055E+03  0.19900000000E+03 0.  0.
   -5000001    1    1    2    0    0 -0.13048678288E+03 -0.49139870372E+02 -0.74789896944E+03  0.78638120263E+03  0.19900000000E+03 0.  0.
<mgrwt>
<rscale>  0 0.48971134E+03</rscale>
<asrwt>0</asrwt>
<pdfrwt beam="1">  1        2 0.25001459E+00 0.48971134E+03</pdfrwt>
<pdfrwt beam="2">  1       -2 0.48939429E-02 0.48971134E+03</pdfrwt>
<totfact> 0.23547900E+03</totfact>
</mgrwt>
</event>
<event>
 4    1  0.1869793E-005  0.1159248E+04  0.7818608E-02  0.9149294E-01
         -2   -1    0    0    0  501 -0.00000000000E+00  0.00000000000E+00  0.75206934603E+03  0.75206934604E+03  0.25500000000E-02 0. -1.
          2   -1    0    0  501    0  0.00000000000E+00 -0.00000000000E+00 -0.44671940749E+03  0.44671940750E+03  0.25500000000E-02 0.  1.
    5000001    1    1    2    0    0  0.34878745335E+03 -0.29450141010E+02 -0.27849140329E+03  0.48956966831E+03  0.19900000000E+03 0.  0.
   -5000001    1    1    2    0    0 -0.34878745335E+03  0.29450141010E+02  0.58384134183E+03  0.70921908523E+03  0.19900000000E+03 0.  0.
<mgrwt>
<rscale>  0 0.11592480E+04</rscale>
<asrwt>0</asrwt>
<pdfrwt beam="1">  1        2 0.63817058E-01 0.11592480E+04</pdfrwt>
<pdfrwt beam="2">  1       -2 0.10743848E+00 0.11592480E+04</pdfrwt>
<totfact> 0.52589379E+01</totfact>
</mgrwt>
</event>
<event>
 4    1  0.1869793E-005  0.6315501E+03  0.7818608E-02  0.9842029E-01
         -2   -1    0    0    0  501 -0.00000000000E+00  0.00000000000E+00  0.72115495215E+03  0.72115495215E+03  0.25500000000E-02 0. -1.
          2   -1    0    0  501    0  0.00000000000E+00 -0.00000000000E+00 -0.13826970862E+03  0.13826970865E+03  0.25500000000E-02 0.  1.
    5000001    1    1    2    0    0  0.12842771922E+03  0.20069758151E+03  0.37008431733E+03  0.48304927308E+03  0.19900000000E+03 0.  0.
   -5000001    1    1    2    0    0 -0.12842771922E+03 -0.20069758151E+03  0.21280092619E+03  0.37637538772E+03  0.19900000000E+03 0.  0.
<mgrwt>
<rscale>  0 0.63155011E+03</rscale>
<asrwt>0</asrwt>
<pdfrwt beam="1">  1        2 0.19752815E-01 0.63155011E+03</pdfrwt>
<pdfrwt beam="2">  1       -2 0.10302214E+00 0.63155011E+03</pdfrwt>
<totfact> 0.22439979E+02</totfact>
</mgrwt>
</event>
<event>
 4    1  0.1869793E-005  0.5761835E+03  0.7818608E-02  0.9956088E-01
         -2   -1    0    0    0  501 -0.00000000000E+00  0.00000000000E+00  0.66962114363E+03  0.66962114363E+03  0.25500000000E-02 0. -1.
          2   -1    0    0  501    0  0.00000000000E+00 -0.00000000000E+00 -0.12394599078E+03  0.12394599081E+03  0.25500000000E-02 0.  1.
    5000001    1    1    2    0    0  0.91061123873E+02  0.18694698216E+03  0.28995989392E+03  0.40855726955E+03  0.19900000000E+03 0.  0.
   -5000001    1    1    2    0    0 -0.91061123873E+02 -0.18694698216E+03  0.25571525892E+03  0.38500986489E+03  0.19900000000E+03 0.  0.
<mgrwt>
<rscale>  0 0.57618350E+03</rscale>
<asrwt>0</asrwt>
<pdfrwt beam="1">  1        2 0.17706570E-01 0.57618350E+03</pdfrwt>
<pdfrwt beam="2">  1       -2 0.95660164E-01 0.57618350E+03</pdfrwt>
<totfact> 0.30446313E+02</totfact>
</mgrwt>
</event>
<event>
 4    1  0.1869793E-005  0.9907774E+03  0.7818608E-02  0.9318718E-01
         -2   -1    0    0    0  501 -0.00000000000E+00  0.00000000000E+00  0.24367455341E+03  0.24367455343E+03  0.25500000000E-02 0. -1.
          2   -1    0    0  501    0  0.00000000000E+00 -0.00000000000E+00 -0.10071218217E+04  0.10071218218E+04  0.25500000000E-02 0.  1.
    5000001    1    1    2    0    0 -0.43761835515E+03  0.10436906138E+03 -0.45540332459E+03  0.67036998276E+03  0.19900000000E+03 0.  0.
   -5000001    1    1    2    0    0  0.43761835515E+03 -0.10436906138E+03 -0.30804394375E+03  0.58042639242E+03  0.19900000000E+03 0.  0.
<mgrwt>
<rscale>  0 0.99077739E+03</rscale>
<asrwt>0</asrwt>
<pdfrwt beam="1">  1        2 0.14387454E+00 0.99077739E+03</pdfrwt>
<pdfrwt beam="2">  1       -2 0.34810651E-01 0.99077739E+03</pdfrwt>
<totfact> 0.21445973E+02</totfact>
</mgrwt>
</event>
<event>
 4    1  0.1869793E-005  0.7213343E+03  0.7818608E-02  0.9681428E-01
         -2   -1    0    0    0  501 -0.00000000000E+00  0.00000000000E+00  0.39365830659E+02  0.39365830742E+02  0.25500000000E-02 0. -1.
          2   -1    0    0  501    0  0.00000000000E+00 -0.00000000000E+00 -0.33044089178E+04  0.33044089178E+04  0.25500000000E-02 0.  1.
    5000001    1    1    2    0    0  0.25298999831E+03 -0.96310490262E+02 -0.10245733664E+04  0.10782537887E+04  0.19900000000E+03 0.  0.
   -5000001    1    1    2    0    0 -0.25298999831E+03  0.96310490262E+02 -0.22404697208E+04  0.22655209598E+04  0.19900000000E+03 0.  0.
<mgrwt>
<rscale>  0 0.72133432E+03</rscale>
<asrwt>0</asrwt>
<pdfrwt beam="1">  1        2 0.47205824E+00 0.72133432E+03</pdfrwt>
<pdfrwt beam="2">  1       -2 0.56236922E-02 0.72133432E+03</pdfrwt>
<totfact> 0.28756951E+02</totfact>
</mgrwt>
</event>
<event>
 4    1  0.1869793E-005  0.5614939E+03  0.7818608E-02  0.9988680E-01
         -2   -1    0    0    0  501 -0.00000000000E+00  0.00000000000E+00  0.16174812805E+03  0.16174812807E+03  0.25500000000E-02 0. -1.
          2   -1    0    0  501    0  0.00000000000E+00 -0.00000000000E+00 -0.48729375652E+03  0.48729375652E+03  0.25500000000E-02 0.  1.
    5000001    1    1    2    0    0 -0.64801115165E+02  0.15175015208E+03 -0.36197969857E+02  0.26103368788E+03  0.19900000000E+03 0.  0.
   -5000001    1    1    2    0    0  0.64801115165E+02 -0.15175015208E+03 -0.28934765861E+03  0.38800819672E+03  0.19900000000E+03 0.  0.
<mgrwt>
<rscale>  0 0.56149391E+03</rscale>
<asrwt>0</asrwt>
<pdfrwt beam="1">  1        2 0.69613393E-01 0.56149391E+03</pdfrwt>
<pdfrwt beam="2">  1       -2 0.23106876E-01 0.56149391E+03</pdfrwt>
<totfact> 0.11431248E+03</totfact>
</mgrwt>
</event>
<event>
 4    1  0.1869793E-005  0.4671196E+03  0.7818608E-02  0.1022736E+00
         -2   -1    0    0    0  501 -0.00000000000E+00  0.00000000000E+00  0.29257990964E+02  0.29257991075E+02  0.25500000000E-02 0. -1.
          2   -1    0    0  501    0  0.00000000000E+00 -0.00000000000E+00 -0.18644543820E+04  0.18644543820E+04  0.25500000000E-02 0.  1.
    5000001    1    1    2    0    0  0.55813553746E+02 -0.89434877399E+02 -0.11686674060E+04  0.11901673227E+04  0.19900000000E+03 0.  0.
   -5000001    1    1    2    0    0 -0.55813553746E+02  0.89434877399E+02 -0.66652898506E+03  0.70354505045E+03  0.19900000000E+03 0.  0.
<mgrwt>
<rscale>  0 0.46711964E+03</rscale>
<asrwt>0</asrwt>
<pdfrwt beam="1">  1        2 0.26635055E+00 0.46711964E+03</pdfrwt>
<pdfrwt beam="2">  1       -2 0.41797142E-02 0.46711964E+03</pdfrwt>
<totfact> 0.26315814E+03</totfact>
</mgrwt>
</event>
<event>
 4    1  0.1869793E-005  0.6859351E+03  0.7818608E-02  0.9741592E-01
          2   -1    0    0  501    0  0.00000000000E+00  0.00000000000E+00  0.68033802890E+02  0.68033802938E+02  0.25500000000E-02 0. -1.
         -2   -1    0    0    0  501 -0.00000000000E+00 -0.00000000000E+00 -0.17289454914E+04  0.17289454914E+04  0.25500000000E-02 0.  1.
    5000001    1    1    2    0    0  0.25985148069E+03 -0.82458656149E+02 -0.98988476141E+03  0.10458465771E+04  0.19900000000E+03 0.  0.
   -5000001    1    1    2    0    0 -0.25985148069E+03  0.82458656149E+02 -0.67102692707E+03  0.75113271720E+03  0.19900000000E+03 0.  0.
<mgrwt>
<rscale>  0 0.68593509E+03</rscale>
<asrwt>0</asrwt>
<pdfrwt beam="1">  1        2 0.97191157E-02 0.68593509E+03</pdfrwt>
<pdfrwt beam="2">  1       -2 0.24699219E+00 0.68593509E+03</pdfrwt>
<totfact> 0.47725222E+01</totfact>
</mgrwt>
</event>
<event>
 4    1  0.1869793E-005  0.5290678E+03  0.7818608E-02  0.1006458E+00
          2   -1    0    0  501    0  0.00000000000E+00  0.00000000000E+00  0.12809777262E+04  0.12809777262E+04  0.25500000000E-02 0.  1.
         -2   -1    0    0    0  501 -0.00000000000E+00 -0.00000000000E+00 -0.54628722628E+02  0.54628722688E+02  0.25500000000E-02 0. -1.
    5000001    1    1    2    0    0  0.14518093337E+03 -0.72336027343E+02  0.45217908789E+03  0.51997781856E+03  0.19900000000E+03 0.  0.
   -5000001    1    1    2    0    0 -0.14518093337E+03  0.72336027343E+02  0.77416991564E+03  0.81562863029E+03  0.19900000000E+03 0.  0.
<mgrwt>
<rscale>  0 0.52906777E+03</rscale>
<asrwt>0</asrwt>
<pdfrwt beam="1">  1        2 0.18299679E+00 0.52906777E+03</pdfrwt>
<pdfrwt beam="2">  1       -2 0.78041042E-02 0.52906777E+03</pdfrwt>
<totfact> 0.19870345E+03</totfact>
</mgrwt>
</event>
<event>
 4    1  0.1869793E-005  0.4561919E+03  0.7818608E-02  0.1025891E+00
         -2   -1    0    0    0  501 -0.00000000000E+00  0.00000000000E+00  0.17481672616E+02  0.17481672802E+02  0.25500000000E-02 0. -1.
          2   -1    0    0  501    0  0.00000000000E+00 -0.00000000000E+00 -0.29761322924E+04  0.29761322924E+04  0.25500000000E-02 0.  1.
    5000001    1    1    2    0    0 -0.50814152830E+02  0.25304976074E+02 -0.21088963920E+04  0.21190251089E+04  0.19900000000E+03 0.  0.
   -5000001    1    1    2    0    0  0.50814152830E+02 -0.25304976074E+02 -0.84975422785E+03  0.87458885637E+03  0.19900000000E+03 0.  0.
<mgrwt>
<rscale>  0 0.45619194E+03</rscale>
<asrwt>0</asrwt>
<pdfrwt beam="1">  1        2 0.42516143E+00 0.45619194E+03</pdfrwt>
<pdfrwt beam="2">  1       -2 0.24973837E-02 0.45619194E+03</pdfrwt>
<totfact> 0.15588404E+03</totfact>
</mgrwt>
</event>
<event>
 4    1  0.1869793E-005  0.1142810E+04  0.7818608E-02  0.9164442E-01
         -2   -1    0    0    0  501 -0.00000000000E+00  0.00000000000E+00  0.11126149963E+03  0.11126149966E+03  0.25500000000E-02 0. -1.
          2   -1    0    0  501    0  0.00000000000E+00 -0.00000000000E+00 -0.29345613982E+04  0.29345613982E+04  0.25500000000E-02 0.  1.
    5000001    1    1    2    0    0  0.51111818388E+03 -0.12422134183E+03 -0.11420823982E+04  0.12730380764E+04  0.19900000000E+03 0.  0.
   -5000001    1    1    2    0    0 -0.51111818388E+03  0.12422134183E+03 -0.16812175003E+04  0.17727848214E+04  0.19900000000E+03 0.  0.
<mgrwt>
<rscale>  0 0.11428100E+04</rscale>
<asrwt>0</asrwt>
<pdfrwt beam="1">  1        2 0.41922301E+00 0.11428100E+04</pdfrwt>
<pdfrwt beam="2">  1       -2 0.15894502E-01 0.11428100E+04</pdfrwt>
<totfact> 0.81866020E+01</totfact>
</mgrwt>
</event>
<event>
 4    1  0.1869793E-005  0.7792909E+03  0.7818608E-02  0.9590486E-01
          2   -1    0    0  501    0  0.00000000000E+00  0.00000000000E+00  0.43540489689E+04  0.43540489689E+04  0.25500000000E-02 0.  1.
         -2   -1    0    0    0  501 -0.00000000000E+00 -0.00000000000E+00 -0.34869511349E+02  0.34869511442E+02  0.25500000000E-02 0. -1.
    5000001    1    1    2    0    0 -0.31599182269E+03  0.10478503630E+03  0.19494780750E+04  0.19876862179E+04  0.19900000000E+03 0.  0.
   -5000001    1    1    2    0    0  0.31599182269E+03 -0.10478503630E+03  0.23697013826E+04  0.24012322625E+04  0.19900000000E+03 0.  0.
<mgrwt>
<rscale>  0 0.77929086E+03</rscale>
<asrwt>0</asrwt>
<pdfrwt beam="1">  1        2 0.62200649E+00 0.77929086E+03</pdfrwt>
<pdfrwt beam="2">  1       -2 0.49813628E-02 0.77929086E+03</pdfrwt>
<totfact> 0.72044587E+01</totfact>
</mgrwt>
</event>
<event>
 4    1  0.1869793E-005  0.4985983E+03  0.7818608E-02  0.1014145E+00
          2   -1    0    0  501    0  0.00000000000E+00  0.00000000000E+00  0.23392819494E+03  0.23392819495E+03  0.25500000000E-02 0.  1.
         -2   -1    0    0    0  501 -0.00000000000E+00 -0.00000000000E+00 -0.26568011180E+03  0.26568011181E+03  0.25500000000E-02 0. -1.
    5000001    1    1    2    0    0  0.48483616088E+02 -0.13044201283E+03 -0.72410893619E+02  0.25339715321E+03  0.19900000000E+03 0.  0.
   -5000001    1    1    2    0    0 -0.48483616088E+02  0.13044201283E+03  0.40658976764E+02  0.24621115355E+03  0.19900000000E+03 0.  0.
<mgrwt>
<rscale>  0 0.49859831E+03</rscale>
<asrwt>0</asrwt>
<pdfrwt beam="1">  1        2 0.33418314E-01 0.49859831E+03</pdfrwt>
<pdfrwt beam="2">  1       -2 0.37954302E-01 0.49859831E+03</pdfrwt>
<totfact> 0.10333964E+03</totfact>
</mgrwt>
</event>
<event>
 4    1  0.1869793E-005  0.4880499E+03  0.7818608E-02  0.1016946E+00
          2   -1    0    0  501    0  0.00000000000E+00  0.00000000000E+00  0.17928346585E+04  0.17928346585E+04  0.25500000000E-02 0.  1.
         -2   -1    0    0    0  501 -0.00000000000E+00 -0.00000000000E+00 -0.33214545261E+02  0.33214545359E+02  0.25500000000E-02 0. -1.
    5000001    1    1    2    0    0  0.15096817001E+02 -0.13780065991E+03  0.77870225785E+03  0.81559496206E+03  0.19900000000E+03 0.  0.
   -5000001    1    1    2    0    0 -0.15096817001E+02  0.13780065991E+03  0.98091785537E+03  0.10104542418E+04  0.19900000000E+03 0.  0.
<mgrwt>
<rscale>  0 0.48804995E+03</rscale>
<asrwt>0</asrwt>
<pdfrwt beam="1">  1        2 0.25611930E+00 0.48804995E+03</pdfrwt>
<pdfrwt beam="2">  1       -2 0.47449339E-02 0.48804995E+03</pdfrwt>
<totfact> 0.23507885E+03</totfact>
</mgrwt>
</event>
<event>
 4    1  0.1869793E-005  0.6707355E+03  0.7818608E-02  0.9768630E-01
         -2   -1    0    0    0  501 -0.00000000000E+00  0.00000000000E+00  0.59182316121E+02  0.59182316176E+02  0.25500000000E-02 0. -1.
          2   -1    0    0  501    0  0.00000000000E+00 -0.00000000000E+00 -0.19004244243E+04  0.19004244243E+04  0.25500000000E-02 0.  1.
    5000001    1    1    2    0    0  0.92260106446E+02 -0.25006104659E+03 -0.79570638402E+03  0.86243382577E+03  0.19900000000E+03 0.  0.
   -5000001    1    1    2    0    0 -0.92260106446E+02  0.25006104659E+03 -0.10455357241E+04  0.10971729147E+04  0.19900000000E+03 0.  0.
<mgrwt>
<rscale>  0 0.67073547E+03</rscale>
<asrwt>0</asrwt>
<pdfrwt beam="1">  1        2 0.27148917E+00 0.67073547E+03</pdfrwt>
<pdfrwt beam="2">  1       -2 0.84546178E-02 0.67073547E+03</pdfrwt>
<totfact> 0.83102344E+02</totfact>
</mgrwt>
</event>
<event>
 4    1  0.1869793E-005  0.6201047E+03  0.7818608E-02  0.9864551E-01
         -2   -1    0    0    0  501 -0.00000000000E+00  0.00000000000E+00  0.13243859940E+03  0.13243859943E+03  0.25500000000E-02 0. -1.
          2   -1    0    0  501    0  0.00000000000E+00 -0.00000000000E+00 -0.72586428228E+03  0.72586428229E+03  0.25500000000E-02 0.  1.
    5000001    1    1    2    0    0 -0.72177511994E+02  0.14445879709E+03 -0.55169949652E+02  0.26215007274E+03  0.19900000000E+03 0.  0.
   -5000001    1    1    2    0    0  0.72177511994E+02 -0.14445879709E+03 -0.53825573323E+03  0.59615280897E+03  0.19900000000E+03 0.  0.
<mgrwt>
<rscale>  0 0.62010467E+03</rscale>
<asrwt>0</asrwt>
<pdfrwt beam="1">  1        2 0.10369490E+00 0.62010467E+03</pdfrwt>
<pdfrwt beam="2">  1       -2 0.18919800E-01 0.62010467E+03</pdfrwt>
<totfact> 0.10140948E+03</totfact>
</mgrwt>
</event>
<event>
 4    1  0.1869793E-005  0.6068337E+03  0.7818608E-02  0.9891329E-01
          2   -1    0    0  501    0  0.00000000000E+00  0.00000000000E+00  0.81137495360E+02  0.81137495401E+02  0.25500000000E-02 0.  1.
         -2   -1    0    0    0  501 -0.00000000000E+00 -0.00000000000E+00 -0.11346391934E+04  0.11346391934E+04  0.25500000000E-02 0. -1.
    5000001    1    1    2    0    0 -0.10679411335E+03 -0.56459830288E+02 -0.91662174086E+03  0.94572147639E+03  0.19900000000E+03 0.  0.
   -5000001    1    1    2    0    0  0.10679411335E+03  0.56459830288E+02 -0.13687995721E+03  0.27005521244E+03  0.19900000000E+03 0.  0.
<mgrwt>
<rscale>  0 0.60683369E+03</rscale>
<asrwt>0</asrwt>
<pdfrwt beam="1">  1        2 0.11591071E-01 0.60683369E+03</pdfrwt>
<pdfrwt beam="2">  1       -2 0.16209130E+00 0.60683369E+03</pdfrwt>
<totfact> 0.13647347E+02</totfact>
</mgrwt>
</event>
<event>
 4    1  0.1869793E-005  0.5350789E+03  0.7818608E-02  0.1005008E+00
         -2   -1    0    0    0  501 -0.00000000000E+00  0.00000000000E+00  0.63210500416E+02  0.63210500467E+02  0.25500000000E-02 0. -1.
          2   -1    0    0  501    0  0.00000000000E+00 -0.00000000000E+00 -0.11323650943E+04  0.11323650943E+04  0.25500000000E-02 0.  1.
    5000001    1    1    2    0    0 -0.42758063714E+02  0.17233466122E+03 -0.58191670112E+03  0.64012149981E+03  0.19900000000E+03 0.  0.
   -5000001    1    1    2    0    0  0.42758063714E+02 -0.17233466122E+03 -0.48723789278E+03  0.55545409498E+03  0.19900000000E+03 0.  0.
<mgrwt>
<rscale>  0 0.53507893E+03</rscale>
<asrwt>0</asrwt>
<pdfrwt beam="1">  1        2 0.16176643E+00 0.53507893E+03</pdfrwt>
<pdfrwt beam="2">  1       -2 0.90300722E-02 0.53507893E+03</pdfrwt>
<totfact> 0.19049607E+03</totfact>
</mgrwt>
</event>
<event>
 4    1  0.1869793E-005  0.5144110E+03  0.7818608E-02  0.1010084E+00
         -2   -1    0    0    0  501 -0.00000000000E+00  0.00000000000E+00  0.49587524204E+02  0.49587524269E+02  0.25500000000E-02 0. -1.
          2   -1    0    0  501    0  0.00000000000E+00 -0.00000000000E+00 -0.13340990041E+04  0.13340990041E+04  0.25500000000E-02 0.  1.
    5000001    1    1    2    0    0 -0.14915705018E+03  0.98123995701E+01 -0.81677594636E+03  0.85385482100E+03  0.19900000000E+03 0.  0.
   -5000001    1    1    2    0    0  0.14915705018E+03 -0.98123995701E+01 -0.46773553358E+03  0.52983170740E+03  0.19900000000E+03 0.  0.
<mgrwt>
<rscale>  0 0.51441099E+03</rscale>
<asrwt>0</asrwt>
<pdfrwt beam="1">  1        2 0.19058555E+00 0.51441099E+03</pdfrwt>
<pdfrwt beam="2">  1       -2 0.70839329E-02 0.51441099E+03</pdfrwt>
<totfact> 0.21683023E+03</totfact>
</mgrwt>
</event>
<event>
 4    1  0.1869793E-005  0.5695768E+03  0.7818608E-02  0.9970616E-01
          2   -1    0    0  501    0  0.00000000000E+00  0.00000000000E+00  0.56718596578E+03  0.56718596578E+03  0.25500000000E-02 0.  1.
         -2   -1    0    0    0  501 -0.00000000000E+00 -0.00000000000E+00 -0.14299442159E+03  0.14299442161E+03  0.25500000000E-02 0. -1.
    5000001    1    1    2    0    0  0.13560049153E+03 -0.82132509009E+02  0.52565461667E+02  0.25980255984E+03  0.19900000000E+03 0.  0.
   -5000001    1    1    2    0    0 -0.13560049153E+03  0.82132509009E+02  0.37162608252E+03  0.45037782755E+03  0.19900000000E+03 0.  0.
<mgrwt>
<rscale>  0 0.56957679E+03</rscale>
<asrwt>0</asrwt>
<pdfrwt beam="1">  1        2 0.81026565E-01 0.56957679E+03</pdfrwt>
<pdfrwt beam="2">  1       -2 0.20427775E-01 0.56957679E+03</pdfrwt>
<totfact> 0.11930884E+03</totfact>
</mgrwt>
</event>
<event>
 4    1  0.1869793E-005  0.7150206E+03  0.7818608E-02  0.9691884E-01
         -2   -1    0    0    0  501 -0.00000000000E+00  0.00000000000E+00  0.15209295507E+03  0.15209295509E+03  0.25500000000E-02 0. -1.
          2   -1    0    0  501    0  0.00000000000E+00 -0.00000000000E+00 -0.84036507964E+03  0.84036507964E+03  0.25500000000E-02 0.  1.
    5000001    1    1    2    0    0 -0.29070288629E+03  0.42430155091E+02 -0.28356837206E+03  0.45422517300E+03  0.19900000000E+03 0.  0.
   -5000001    1    1    2    0    0  0.29070288629E+03 -0.42430155091E+02 -0.40470375251E+03  0.53823286173E+03  0.19900000000E+03 0.  0.
<mgrwt>
<rscale>  0 0.71502058E+03</rscale>
<asrwt>0</asrwt>
<pdfrwt beam="1">  1        2 0.12005215E+00 0.71502058E+03</pdfrwt>
<pdfrwt beam="2">  1       -2 0.21727565E-01 0.71502058E+03</pdfrwt>
<totfact> 0.65929799E+02</totfact>
</mgrwt>
</event>
<event>
 4    1  0.1869793E-005  0.5629442E+03  0.7818608E-02  0.9985415E-01
         -2   -1    0    0    0  501 -0.00000000000E+00  0.00000000000E+00  0.25255656421E+02  0.25255656550E+02  0.25500000000E-02 0. -1.
          2   -1    0    0  501    0  0.00000000000E+00 -0.00000000000E+00 -0.31369820688E+04  0.31369820688E+04  0.25500000000E-02 0.  1.
    5000001    1    1    2    0    0  0.65126024537E+02 -0.92105846413E+02 -0.24771834255E+04  0.24877225748E+04  0.19900000000E+03 0.  0.
   -5000001    1    1    2    0    0 -0.65126024537E+02  0.92105846413E+02 -0.63454298691E+03  0.67451515050E+03  0.19900000000E+03 0.  0.
<mgrwt>
<rscale>  0 0.56294419E+03</rscale>
<asrwt>0</asrwt>
<pdfrwt beam="1">  1        2 0.44814005E+00 0.56294419E+03</pdfrwt>
<pdfrwt beam="2">  1       -2 0.36079529E-02 0.56294419E+03</pdfrwt>
<totfact> 0.72211651E+02</totfact>
</mgrwt>
</event>
<event>
 4    1  0.1869793E-005  0.1318625E+04  0.7818608E-02  0.9014925E-01
          2   -1    0    0  501    0  0.00000000000E+00  0.00000000000E+00  0.46573467077E+03  0.46573467078E+03  0.25500000000E-02 0.  1.
         -2   -1    0    0    0  501 -0.00000000000E+00 -0.00000000000E+00 -0.93334848559E+03  0.93334848560E+03  0.25500000000E-02 0. -1.
    5000001    1    1    2    0    0  0.26480152137E+03  0.54059975952E+03 -0.42574192870E+03  0.76369178048E+03  0.19900000000E+03 0.  0.
   -5000001    1    1    2    0    0 -0.26480152137E+03 -0.54059975952E+03 -0.41871886119E+02  0.63539137590E+03  0.19900000000E+03 0.  0.
<mgrwt>
<rscale>  0 0.13186247E+04</rscale>
<asrwt>0</asrwt>
<pdfrwt beam="1">  1        2 0.66533524E-01 0.13186247E+04</pdfrwt>
<pdfrwt beam="2">  1       -2 0.13333550E+00 0.13186247E+04</pdfrwt>
<totfact> 0.29054277E+01</totfact>
</mgrwt>
</event>
<event>
 4    1  0.1869793E-005  0.5617410E+03  0.7818608E-02  0.9988123E-01
          2   -1    0    0  501    0  0.00000000000E+00  0.00000000000E+00  0.57836085674E+03  0.57836085675E+03  0.25500000000E-02 0.  1.
         -2   -1    0    0    0  501 -0.00000000000E+00 -0.00000000000E+00 -0.13639965948E+03  0.13639965950E+03  0.25500000000E-02 0. -1.
    5000001    1    1    2    0    0  0.15191490569E+03  0.45085718363E+02  0.37247859425E+03  0.45105671899E+03  0.19900000000E+03 0.  0.
   -5000001    1    1    2    0    0 -0.15191490569E+03 -0.45085718363E+02  0.69482603018E+02  0.26370379727E+03  0.19900000000E+03 0.  0.
<mgrwt>
<rscale>  0 0.56174095E+03</rscale>
<asrwt>0</asrwt>
<pdfrwt beam="1">  1        2 0.82622980E-01 0.56174095E+03</pdfrwt>
<pdfrwt beam="2">  1       -2 0.19485665E-01 0.56174095E+03</pdfrwt>
<totfact> 0.12661923E+03</totfact>
</mgrwt>
</event>
<event>
 4    1  0.1869793E-005  0.4560338E+03  0.7818608E-02  0.1025938E+00
         -2   -1    0    0    0  501 -0.00000000000E+00  0.00000000000E+00  0.36325803175E+02  0.36325803264E+02  0.25500000000E-02 0. -1.
          2   -1    0    0  501    0  0.00000000000E+00 -0.00000000000E+00 -0.14312611896E+04  0.14312611896E+04  0.25500000000E-02 0.  1.
    5000001    1    1    2    0    0 -0.41066546271E+02 -0.98796350442E+02 -0.59861575894E+03  0.63983514043E+03  0.19900000000E+03 0.  0.
   -5000001    1    1    2    0    0  0.41066546271E+02  0.98796350442E+02 -0.79631962745E+03  0.82775185239E+03  0.19900000000E+03 0.  0.
<mgrwt>
<rscale>  0 0.45603382E+03</rscale>
<asrwt>0</asrwt>
<pdfrwt beam="1">  1        2 0.20446585E+00 0.45603382E+03</pdfrwt>
<pdfrwt beam="2">  1       -2 0.51894013E-02 0.45603382E+03</pdfrwt>
<totfact> 0.31317866E+03</totfact>
</mgrwt>
</event>
<event>
 4    1  0.1869793E-005  0.6595175E+03  0.7818608E-02  0.9789082E-01
          2   -1    0    0  501    0  0.00000000000E+00  0.00000000000E+00  0.27907203999E+04  0.27907203999E+04  0.25500000000E-02 0.  1.
         -2   -1    0    0    0  501 -0.00000000000E+00 -0.00000000000E+00 -0.38965146540E+02  0.38965146624E+02  0.25500000000E-02 0. -1.
    5000001    1    1    2    0    0 -0.10391375504E+03  0.22947324147E+03  0.10524098941E+04  0.11002834282E+04  0.19900000000E+03 0.  0.
   -5000001    1    1    2    0    0  0.10391375504E+03 -0.22947324147E+03  0.16993453592E+04  0.17294021184E+04  0.19900000000E+03 0.  0.
<mgrwt>
<rscale>  0 0.65951749E+03</rscale>
<asrwt>0</asrwt>
<pdfrwt beam="1">  1        2 0.39867450E+00 0.65951749E+03</pdfrwt>
<pdfrwt beam="2">  1       -2 0.55664473E-02 0.65951749E+03</pdfrwt>
<totfact> 0.56416736E+02</totfact>
</mgrwt>
</event>
<event>
 4    1  0.1869793E-005  0.5872154E+03  0.7818608E-02  0.9932291E-01
          2   -1    0    0  501    0  0.00000000000E+00  0.00000000000E+00  0.11947007815E+04  0.11947007815E+04  0.25500000000E-02 0.  1.
         -2   -1    0    0    0  501 -0.00000000000E+00 -0.00000000000E+00 -0.72156548867E+02  0.72156548912E+02  0.25500000000E-02 0. -1.
    5000001    1    1    2    0    0 -0.21218902200E+03 -0.16568761507E+01  0.47558351069E+03  0.55750121249E+03  0.19900000000E+03 0.  0.
   -5000001    1    1    2    0    0  0.21218902200E+03  0.16568761507E+01  0.64696072199E+03  0.70935611796E+03  0.19900000000E+03 0.  0.
<mgrwt>
<rscale>  0 0.58721541E+03</rscale>
<asrwt>0</asrwt>
<pdfrwt beam="1">  1        2 0.17067154E+00 0.58721541E+03</pdfrwt>
<pdfrwt beam="2">  1       -2 0.10308078E-01 0.58721541E+03</pdfrwt>
<totfact> 0.14170120E+03</totfact>
</mgrwt>
</event>
<event>
 4    1  0.1869793E-005  0.4669566E+03  0.7818608E-02  0.1022783E+00
          2   -1    0    0  501    0  0.00000000000E+00  0.00000000000E+00  0.23846215396E+03  0.23846215398E+03  0.25500000000E-02 0.  1.
         -2   -1    0    0    0  501 -0.00000000000E+00 -0.00000000000E+00 -0.22859859082E+03  0.22859859083E+03  0.25500000000E-02 0. -1.
    5000001    1    1    2    0    0  0.93677305636E+02  0.75654480418E+02  0.25235924731E+02  0.23395916288E+03  0.19900000000E+03 0.  0.
   -5000001    1    1    2    0    0 -0.93677305636E+02 -0.75654480418E+02 -0.15372361587E+02  0.23310158193E+03  0.19900000000E+03 0.  0.
<mgrwt>
<rscale>  0 0.46695658E+03</rscale>
<asrwt>0</asrwt>
<pdfrwt beam="1">  1        2 0.34066022E-01 0.46695658E+03</pdfrwt>
<pdfrwt beam="2">  1       -2 0.32656942E-01 0.46695658E+03</pdfrwt>
<totfact> 0.13435578E+03</totfact>
</mgrwt>
</event>
<event>
 4    1  0.1869793E-005  0.6963514E+03  0.7818608E-02  0.9723492E-01
          2   -1    0    0  501    0  0.00000000000E+00  0.00000000000E+00  0.22175101360E+04  0.22175101360E+04  0.25500000000E-02 0.  1.
         -2   -1    0    0    0  501 -0.00000000000E+00 -0.00000000000E+00 -0.54667758906E+02  0.54667758965E+02  0.25500000000E-02 0. -1.
    5000001    1    1    2    0    0 -0.22183209400E+03 -0.17443208953E+03  0.12269542306E+04  0.12746190473E+04  0.19900000000E+03 0.  0.
   -5000001    1    1    2    0    0  0.22183209400E+03  0.17443208953E+03  0.93588814650E+03  0.99755884766E+03  0.19900000000E+03 0.  0.
<mgrwt>
<rscale>  0 0.69635138E+03</rscale>
<asrwt>0</asrwt>
<pdfrwt beam="1">  1        2 0.31678712E+00 0.69635138E+03</pdfrwt>
<pdfrwt beam="2">  1       -2 0.78096808E-02 0.69635138E+03</pdfrwt>
<totfact> 0.65158731E+02</totfact>
</mgrwt>
</event>
<event>
 4    1  0.1869793E-005  0.9217786E+03  0.7818608E-02  0.9398759E-01
         -2   -1    0    0    0  501 -0.00000000000E+00  0.00000000000E+00  0.82912319350E+03  0.82912319350E+03  0.25500000000E-02 0. -1.
          2   -1    0    0  501    0  0.00000000000E+00 -0.00000000000E+00 -0.25619707025E+03  0.25619707026E+03  0.25500000000E-02 0.  1.
    5000001    1    1    2    0    0  0.29654582980E+03  0.22081109379E+03  0.51023775725E+03  0.66078781560E+03  0.19900000000E+03 0.  0.
   -5000001    1    1    2    0    0 -0.29654582980E+03 -0.22081109379E+03  0.62688365996E+02  0.42453244816E+03  0.19900000000E+03 0.  0.
<mgrwt>
<rscale>  0 0.92177857E+03</rscale>
<asrwt>0</asrwt>
<pdfrwt beam="1">  1        2 0.36599582E-01 0.92177857E+03</pdfrwt>
<pdfrwt beam="2">  1       -2 0.11844617E+00 0.92177857E+03</pdfrwt>
<totfact> 0.78201286E+01</totfact>
</mgrwt>
</event>
<event>
 4    1  0.1869793E-005  0.7428974E+03  0.7818608E-02  0.9646560E-01
          2   -1    0    0  501    0  0.00000000000E+00  0.00000000000E+00  0.10484608470E+04  0.10484608470E+04  0.25500000000E-02 0.  1.
         -2   -1    0    0    0  501 -0.00000000000E+00 -0.00000000000E+00 -0.13159685302E+03  0.13159685305E+03  0.25500000000E-02 0. -1.
    5000001    1    1    2    0    0  0.14463918569E+03  0.17799569895E+03  0.11859886241E+03  0.32599026526E+03  0.19900000000E+03 0.  0.
   -5000001    1    1    2    0    0 -0.14463918569E+03 -0.17799569895E+03  0.79826513155E+03  0.85406743477E+03  0.19900000000E+03 0.  0.
<mgrwt>
<rscale>  0 0.74289743E+03</rscale>
<asrwt>0</asrwt>
<pdfrwt beam="1">  1        2 0.14978012E+00 0.74289743E+03</pdfrwt>
<pdfrwt beam="2">  1       -2 0.18799551E-01 0.74289743E+03</pdfrwt>
<totfact> 0.62621832E+02</totfact>
</mgrwt>
</event>
<event>
 4    1  0.1869793E-005  0.9211472E+03  0.7818608E-02  0.9399526E-01
          2   -1    0    0  501    0  0.00000000000E+00  0.00000000000E+00  0.20288672935E+04  0.20288672935E+04  0.25500000000E-02 0.  1.
         -2   -1    0    0    0  501 -0.00000000000E+00 -0.00000000000E+00 -0.10455490437E+03  0.10455490440E+03  0.25500000000E-02 0. -1.
    5000001    1    1    2    0    0  0.18937278113E+03 -0.28120028709E+03  0.40634599851E+03  0.56537927288E+03  0.19900000000E+03 0.  0.
   -5000001    1    1    2    0    0 -0.18937278113E+03  0.28120028709E+03  0.15179663906E+04  0.15680429251E+04  0.19900000000E+03 0.  0.
<mgrwt>
<rscale>  0 0.92114717E+03</rscale>
<asrwt>0</asrwt>
<pdfrwt beam="1">  1        2 0.28983817E+00 0.92114717E+03</pdfrwt>
<pdfrwt beam="2">  1       -2 0.14936416E-01 0.92114717E+03</pdfrwt>
<totfact> 0.27585257E+02</totfact>
</mgrwt>
</event>
<event>
 4    1  0.1869793E-005  0.6380685E+03  0.7818608E-02  0.9829429E-01
          2   -1    0    0  501    0  0.00000000000E+00  0.00000000000E+00  0.87239455387E+03  0.87239455388E+03  0.25500000000E-02 0.  1.
         -2   -1    0    0    0  501 -0.00000000000E+00 -0.00000000000E+00 -0.11667066071E+03  0.11667066074E+03  0.25500000000E-02 0. -1.
    5000001    1    1    2    0    0 -0.10006562235E+02 -0.24239421835E+03  0.28845558776E+03  0.42621909212E+03  0.19900000000E+03 0.  0.
   -5000001    1    1    2    0    0  0.10006562235E+02  0.24239421835E+03  0.46726830540E+03  0.56284612250E+03  0.19900000000E+03 0.  0.
<mgrwt>
<rscale>  0 0.63806849E+03</rscale>
<asrwt>0</asrwt>
<pdfrwt beam="1">  1        2 0.12462779E+00 0.63806849E+03</pdfrwt>
<pdfrwt beam="2">  1       -2 0.16667238E-01 0.63806849E+03</pdfrwt>
<totfact> 0.99622437E+02</totfact>
</mgrwt>
</event>
<event>
 4    1  0.1869793E-005  0.5335190E+03  0.7818608E-02  0.1005382E+00
          2   -1    0    0  501    0  0.00000000000E+00  0.00000000000E+00  0.58855566343E+03  0.58855566343E+03  0.25500000000E-02 0.  1.
         -2   -1    0    0    0  501 -0.00000000000E+00 -0.00000000000E+00 -0.12090722660E+03  0.12090722663E+03  0.25500000000E-02 0. -1.
    5000001    1    1    2    0    0  0.16952160461E+03  0.33405150028E+02  0.17889682820E+03  0.31852559335E+03  0.19900000000E+03 0.  0.
   -5000001    1    1    2    0    0 -0.16952160461E+03 -0.33405150028E+02  0.28875160862E+03  0.39093729671E+03  0.19900000000E+03 0.  0.
<mgrwt>
<rscale>  0 0.53351901E+03</rscale>
<asrwt>0</asrwt>
<pdfrwt beam="1">  1        2 0.84079379E-01 0.53351901E+03</pdfrwt>
<pdfrwt beam="2">  1       -2 0.17272461E-01 0.53351901E+03</pdfrwt>
<totfact> 0.15265614E+03</totfact>
</mgrwt>
</event>
<event>
 4    1  0.1869793E-005  0.1049615E+04  0.7818608E-02  0.9255741E-01
         -2   -1    0    0    0  501 -0.00000000000E+00  0.00000000000E+00  0.13788162460E+04  0.13788162460E+04  0.25500000000E-02 0. -1.
          2   -1    0    0  501    0  0.00000000000E+00 -0.00000000000E+00 -0.19975332595E+03  0.19975332597E+03  0.25500000000E-02 0.  1.
    5000001    1    1    2    0    0 -0.36790024405E+03  0.31621263697E+03  0.62251942842E+03  0.81392411201E+03  0.19900000000E+03 0.  0.
   -5000001    1    1    2    0    0  0.36790024405E+03 -0.31621263697E+03  0.55654349159E+03  0.76464545992E+03  0.19900000000E+03 0.  0.
<mgrwt>
<rscale>  0 0.10496154E+04</rscale>
<asrwt>0</asrwt>
<pdfrwt beam="1">  1        2 0.28536190E-01 0.10496154E+04</pdfrwt>
<pdfrwt beam="2">  1       -2 0.19697375E+00 0.10496154E+04</pdfrwt>
<totfact> 0.26164392E+01</totfact>
</mgrwt>
</event>
<event>
 4    1  0.1869793E-005  0.4590183E+03  0.7818608E-02  0.1025066E+00
         -2   -1    0    0    0  501 -0.00000000000E+00  0.00000000000E+00  0.21465350987E+02  0.21465351138E+02  0.25500000000E-02 0. -1.
          2   -1    0    0  501    0  0.00000000000E+00 -0.00000000000E+00 -0.24539294595E+04  0.24539294595E+04  0.25500000000E-02 0.  1.
    5000001    1    1    2    0    0 -0.10757189829E+03 -0.34944225997E+01 -0.14243643700E+04  0.14422200882E+04  0.19900000000E+03 0.  0.
   -5000001    1    1    2    0    0  0.10757189829E+03  0.34944225997E+01 -0.10080997385E+04  0.10331747225E+04  0.19900000000E+03 0.  0.
<mgrwt>
<rscale>  0 0.45901833E+03</rscale>
<asrwt>0</asrwt>
<pdfrwt beam="1">  1        2 0.35056117E+00 0.45901833E+03</pdfrwt>
<pdfrwt beam="2">  1       -2 0.30664803E-02 0.45901833E+03</pdfrwt>
<totfact> 0.21386999E+03</totfact>
</mgrwt>
</event>
<event>
 4    1  0.1869793E-005  0.1194921E+04  0.7818608E-02  0.9117314E-01
         -2   -1    0    0    0  501 -0.00000000000E+00  0.00000000000E+00  0.42879215803E+03  0.42879215804E+03  0.25500000000E-02 0. -1.
          2   -1    0    0  501    0  0.00000000000E+00 -0.00000000000E+00 -0.83247590445E+03  0.83247590445E+03  0.25500000000E-02 0.  1.
    5000001    1    1    2    0    0  0.50590738725E+03  0.65683454593E+02  0.50385406746E+02  0.54990571000E+03  0.19900000000E+03 0.  0.
   -5000001    1    1    2    0    0 -0.50590738725E+03 -0.65683454593E+02 -0.45406915316E+03  0.71136235249E+03  0.19900000000E+03 0.  0.
<mgrwt>
<rscale>  0 0.11949212E+04</rscale>
<asrwt>0</asrwt>
<pdfrwt beam="1">  1        2 0.11892513E+00 0.11949212E+04</pdfrwt>
<pdfrwt beam="2">  1       -2 0.61256023E-01 0.11949212E+04</pdfrwt>
<totfact> 0.88361293E+01</totfact>
</mgrwt>
</event>
<event>
 4    1  0.1869793E-005  0.8117581E+03  0.7818608E-02  0.9543152E-01
          2   -1    0    0  501    0  0.00000000000E+00  0.00000000000E+00  0.18662306120E+04  0.18662306120E+04  0.25500000000E-02 0.  1.
         -2   -1    0    0    0  501 -0.00000000000E+00 -0.00000000000E+00 -0.88273022274E+02  0.88273022311E+02  0.25500000000E-02 0. -1.
    5000001    1    1    2    0    0  0.93283587692E+02 -0.20099677921E+03  0.22505624632E+03  0.37329994239E+03  0.19900000000E+03 0.  0.
   -5000001    1    1    2    0    0 -0.93283587692E+02  0.20099677921E+03  0.15529013434E+04  0.15812036919E+04  0.19900000000E+03 0.  0.
<mgrwt>
<rscale>  0 0.81175813E+03</rscale>
<asrwt>0</asrwt>
<pdfrwt beam="1">  1        2 0.26660433E+00 0.81175813E+03</pdfrwt>
<pdfrwt beam="2">  1       -2 0.12610434E-01 0.81175813E+03</pdfrwt>
<totfact> 0.44659197E+02</totfact>
</mgrwt>
</event>
<event>
 4    1  0.1869793E-005  0.7475969E+03  0.7818608E-02  0.9639128E-01
          2   -1    0    0  501    0  0.00000000000E+00  0.00000000000E+00  0.19448458114E+03  0.19448458116E+03  0.25500000000E-02 0.  1.
         -2   -1    0    0    0  501 -0.00000000000E+00 -0.00000000000E+00 -0.71843891688E+03  0.71843891689E+03  0.25500000000E-02 0. -1.
    5000001    1    1    2    0    0  0.25774319020E+03 -0.91798199343E+01 -0.48584477257E+03  0.58494612078E+03  0.19900000000E+03 0.  0.
   -5000001    1    1    2    0    0 -0.25774319020E+03  0.91798199343E+01 -0.38109563175E+02  0.32797737726E+03  0.19900000000E+03 0.  0.
<mgrwt>
<rscale>  0 0.74759693E+03</rscale>
<asrwt>0</asrwt>
<pdfrwt beam="1">  1        2 0.27783512E-01 0.74759693E+03</pdfrwt>
<pdfrwt beam="2">  1       -2 0.10263413E+00 0.74759693E+03</pdfrwt>
<totfact> 0.15210126E+02</totfact>
</mgrwt>
</event>
<event>
 4    1  0.1869793E-005  0.9224188E+03  0.7818608E-02  0.9397983E-01
         -2   -1    0    0    0  501 -0.00000000000E+00  0.00000000000E+00  0.18703917501E+03  0.18703917503E+03  0.25500000000E-02 0. -1.
          2   -1    0    0  501    0  0.00000000000E+00 -0.00000000000E+00 -0.11372703727E+04  0.11372703727E+04  0.25500000000E-02 0.  1.
    5000001    1    1    2    0    0 -0.24509946195E+03 -0.31904407293E+03 -0.62739542195E+03  0.77142004265E+03  0.19900000000E+03 0.  0.
   -5000001    1    1    2    0    0  0.24509946195E+03  0.31904407293E+03 -0.32283577570E+03  0.55288950505E+03  0.19900000000E+03 0.  0.
<mgrwt>
<rscale>  0 0.92241880E+03</rscale>
<asrwt>0</asrwt>
<pdfrwt beam="1">  1        2 0.16246719E+00 0.92241880E+03</pdfrwt>
<pdfrwt beam="2">  1       -2 0.26719883E-01 0.92241880E+03</pdfrwt>
<totfact> 0.29467238E+02</totfact>
</mgrwt>
</event>
<event>
 4    1  0.1869793E-005  0.7329733E+03  0.7818608E-02  0.9662448E-01
         -2   -1    0    0    0  501 -0.00000000000E+00  0.00000000000E+00  0.66130717840E+03  0.66130717840E+03  0.25500000000E-02 0. -1.
          2   -1    0    0  501    0  0.00000000000E+00 -0.00000000000E+00 -0.20310147151E+03  0.20310147153E+03  0.25500000000E-02 0.  1.
    5000001    1    1    2    0    0 -0.16810638918E+03 -0.21180699338E+03  0.55821331966E+02  0.34035126213E+03  0.19900000000E+03 0.  0.
   -5000001    1    1    2    0    0  0.16810638918E+03  0.21180699338E+03  0.40238437492E+03  0.52405738780E+03  0.19900000000E+03 0.  0.
<mgrwt>
<rscale>  0 0.73297329E+03</rscale>
<asrwt>0</asrwt>
<pdfrwt beam="1">  1        2 0.29014496E-01 0.73297329E+03</pdfrwt>
<pdfrwt beam="2">  1       -2 0.94472453E-01 0.73297329E+03</pdfrwt>
<totfact> 0.17612694E+02</totfact>
</mgrwt>
</event>
<event>
 4    1  0.1869793E-005  0.1009403E+04  0.7818608E-02  0.9298291E-01
          2   -1    0    0  501    0  0.00000000000E+00  0.00000000000E+00  0.67692695572E+03  0.67692695573E+03  0.25500000000E-02 0.  1.
         -2   -1    0    0    0  501 -0.00000000000E+00 -0.00000000000E+00 -0.37629432014E+03  0.37629432015E+03  0.25500000000E-02 0. -1.
    5000001    1    1    2    0    0 -0.30659629989E+03  0.18843813969E+03 -0.15498142683E+03  0.43946611503E+03  0.19900000000E+03 0.  0.
   -5000001    1    1    2    0    0  0.30659629989E+03 -0.18843813969E+03  0.45561406242E+03  0.61375516085E+03  0.19900000000E+03 0.  0.
<mgrwt>
<rscale>  0 0.10094033E+04</rscale>
<asrwt>0</asrwt>
<pdfrwt beam="1">  1        2 0.96703850E-01 0.10094033E+04</pdfrwt>
<pdfrwt beam="2">  1       -2 0.53756332E-01 0.10094033E+04</pdfrwt>
<totfact> 0.15262258E+02</totfact>
</mgrwt>
</event>
<event>
 4    1  0.1869793E-005  0.7108070E+03  0.7818608E-02  0.9698927E-01
          2   -1    0    0  501    0  0.00000000000E+00  0.00000000000E+00  0.14112372164E+04  0.14112372164E+04  0.25500000000E-02 0.  1.
         -2   -1    0    0    0  501 -0.00000000000E+00 -0.00000000000E+00 -0.89504202599E+02  0.89504202635E+02  0.25500000000E-02 0. -1.
    5000001    1    1    2    0    0  0.28189019522E+03 -0.65421538452E+02  0.77590154201E+03  0.85168436803E+03  0.19900000000E+03 0.  0.
   -5000001    1    1    2    0    0 -0.28189019522E+03  0.65421538452E+02  0.54583147176E+03  0.64905705097E+03  0.19900000000E+03 0.  0.
<mgrwt>
<rscale>  0 0.71080704E+03</rscale>
<asrwt>0</asrwt>
<pdfrwt beam="1">  1        2 0.20160532E+00 0.71080704E+03</pdfrwt>
<pdfrwt beam="2">  1       -2 0.12786314E-01 0.71080704E+03</pdfrwt>
<totfact> 0.75453626E+02</totfact>
</mgrwt>
</event>
<event>
 4    1  0.1869793E-005  0.5001311E+03  0.7818608E-02  0.1013745E+00
          2   -1    0    0  501    0  0.00000000000E+00  0.00000000000E+00  0.10211628459E+04  0.10211628459E+04  0.25500000000E-02 0.  1.
         -2   -1    0    0    0  501 -0.00000000000E+00 -0.00000000000E+00 -0.61236830443E+02  0.61236830496E+02  0.25500000000E-02 0. -1.
    5000001    1    1    2    0    0  0.67738689196E+02 -0.13117060344E+03  0.55295632578E+03  0.60593395304E+03  0.19900000000E+03 0.  0.
   -5000001    1    1    2    0    0 -0.67738689196E+02  0.13117060344E+03  0.40696968964E+03  0.47646572333E+03  0.19900000000E+03 0.  0.
<mgrwt>
<rscale>  0 0.50013109E+03</rscale>
<asrwt>0</asrwt>
<pdfrwt beam="1">  1        2 0.14588040E+00 0.50013109E+03</pdfrwt>
<pdfrwt beam="2">  1       -2 0.87481193E-02 0.50013109E+03</pdfrwt>
<totfact> 0.23285526E+03</totfact>
</mgrwt>
</event>
<event>
 4    1  0.1869793E-005  0.4513883E+03  0.7818608E-02  0.1027309E+00
         -2   -1    0    0    0  501 -0.00000000000E+00  0.00000000000E+00  0.34337840128E+02  0.34337840223E+02  0.25500000000E-02 0. -1.
          2   -1    0    0  501    0  0.00000000000E+00 -0.00000000000E+00 -0.14834322152E+04  0.14834322152E+04  0.25500000000E-02 0.  1.
    5000001    1    1    2    0    0  0.10431856001E+03 -0.21100877571E+02 -0.73477330040E+03  0.76864843198E+03  0.19900000000E+03 0.  0.
   -5000001    1    1    2    0    0 -0.10431856001E+03  0.21100877571E+02 -0.71432107464E+03  0.74912162342E+03  0.19900000000E+03 0.  0.
<mgrwt>
<rscale>  0 0.45138834E+03</rscale>
<asrwt>0</asrwt>
<pdfrwt beam="1">  1        2 0.21191885E+00 0.45138834E+03</pdfrwt>
<pdfrwt beam="2">  1       -2 0.49054067E-02 0.45138834E+03</pdfrwt>
<totfact> 0.32090859E+03</totfact>
</mgrwt>
</event>
<event>
 4    1  0.1869793E-005  0.8474955E+03  0.7818608E-02  0.9493705E-01
         -2   -1    0    0    0  501 -0.00000000000E+00  0.00000000000E+00  0.11525353021E+03  0.11525353024E+03  0.25500000000E-02 0. -1.
          2   -1    0    0  501    0  0.00000000000E+00 -0.00000000000E+00 -0.15579752291E+04  0.15579752291E+04  0.25500000000E-02 0.  1.
    5000001    1    1    2    0    0 -0.24830009806E+03 -0.19323921902E+02 -0.12725283786E+04  0.13118520599E+04  0.19900000000E+03 0.  0.
   -5000001    1    1    2    0    0  0.24830009806E+03  0.19323921902E+02 -0.17019332031E+03  0.36137669949E+03  0.19900000000E+03 0.  0.
<mgrwt>
<rscale>  0 0.84749548E+03</rscale>
<asrwt>0</asrwt>
<pdfrwt beam="1">  1        2 0.22256788E+00 0.84749548E+03</pdfrwt>
<pdfrwt beam="2">  1       -2 0.16464791E-01 0.84749548E+03</pdfrwt>
<totfact> 0.40944293E+02</totfact>
</mgrwt>
</event>
<event>
 4    1  0.1869793E-005  0.4975790E+03  0.7818608E-02  0.1014413E+00
          2   -1    0    0  501    0  0.00000000000E+00  0.00000000000E+00  0.72074698577E+03  0.72074698577E+03  0.25500000000E-02 0.  1.
         -2   -1    0    0    0  501 -0.00000000000E+00 -0.00000000000E+00 -0.85877863545E+02  0.85877863583E+02  0.25500000000E-02 0. -1.
    5000001    1    1    2    0    0  0.57106400524E+02  0.84557581381E+02  0.14071181286E+03  0.26421949177E+03  0.19900000000E+03 0.  0.
   -5000001    1    1    2    0    0 -0.57106400524E+02 -0.84557581381E+02  0.49415730936E+03  0.54240535759E+03  0.19900000000E+03 0.  0.
<mgrwt>
<rscale>  0 0.49757898E+03</rscale>
<asrwt>0</asrwt>
<pdfrwt beam="1">  1        2 0.10296386E+00 0.49757898E+03</pdfrwt>
<pdfrwt beam="2">  1       -2 0.12268266E-01 0.49757898E+03</pdfrwt>
<totfact> 0.21239414E+03</totfact>
</mgrwt>
</event>
<event>
 4    1  0.1869793E-005  0.5038533E+03  0.7818608E-02  0.1012778E+00
          2   -1    0    0  501    0  0.00000000000E+00  0.00000000000E+00  0.34860878799E+04  0.34860878799E+04  0.25500000000E-02 0.  1.
         -2   -1    0    0    0  501 -0.00000000000E+00 -0.00000000000E+00 -0.18205808710E+02  0.18205808888E+02  0.25500000000E-02 0. -1.
    5000001    1    1    2    0    0 -0.10265704509E+03  0.68156835869E+02  0.23819960798E+04  0.23934682256E+04  0.19900000000E+03 0.  0.
   -5000001    1    1    2    0    0  0.10265704509E+03 -0.68156835869E+02  0.10858859914E+04  0.11108254631E+04  0.19900000000E+03 0.  0.
<mgrwt>
<rscale>  0 0.50385335E+03</rscale>
<asrwt>0</asrwt>
<pdfrwt beam="1">  1        2 0.49801306E+00 0.50385335E+03</pdfrwt>
<pdfrwt beam="2">  1       -2 0.26008272E-02 0.50385335E+03</pdfrwt>
<totfact> 0.75461737E+02</totfact>
</mgrwt>
</event>
<event>
 4    1  0.1869793E-005  0.1834307E+04  0.7818608E-02  0.8688265E-01
         -2   -1    0    0    0  501 -0.00000000000E+00  0.00000000000E+00  0.74640399055E+03  0.74640399056E+03  0.25500000000E-02 0. -1.
          2   -1    0    0  501    0  0.00000000000E+00 -0.00000000000E+00 -0.11269635968E+04  0.11269635968E+04  0.25500000000E-02 0.  1.
    5000001    1    1    2    0    0  0.10610473128E+03  0.73617775257E+03  0.31868293835E+03  0.83329209319E+03  0.19900000000E+03 0.  0.
   -5000001    1    1    2    0    0 -0.10610473128E+03 -0.73617775257E+03 -0.69924254458E+03  0.10400754942E+04  0.19900000000E+03 0.  0.
<mgrwt>
<rscale>  0 0.18343065E+04</rscale>
<asrwt>0</asrwt>
<pdfrwt beam="1">  1        2 0.16099480E+00 0.18343065E+04</pdfrwt>
<pdfrwt beam="2">  1       -2 0.10662914E+00 0.18343065E+04</pdfrwt>
<totfact> 0.15762787E+01</totfact>
</mgrwt>
</event>
<event>
 4    1  0.1869793E-005  0.1220892E+04  0.7818608E-02  0.9094764E-01
          2   -1    0    0  501    0  0.00000000000E+00  0.00000000000E+00  0.23900991862E+04  0.23900991862E+04  0.25500000000E-02 0.  1.
         -2   -1    0    0    0  501 -0.00000000000E+00 -0.00000000000E+00 -0.15591163596E+03  0.15591163598E+03  0.25500000000E-02 0. -1.
    5000001    1    1    2    0    0  0.18659833874E+03 -0.53405823633E+03  0.13549185766E+04  0.14817025643E+04  0.19900000000E+03 0.  0.
   -5000001    1    1    2    0    0 -0.18659833874E+03  0.53405823633E+03  0.87926897367E+03  0.10643082579E+04  0.19900000000E+03 0.  0.
<mgrwt>
<rscale>  0 0.12208919E+04</rscale>
<asrwt>0</asrwt>
<pdfrwt beam="1">  1        2 0.34144272E+00 0.12208919E+04</pdfrwt>
<pdfrwt beam="2">  1       -2 0.22273093E-01 0.12208919E+04</pdfrwt>
<totfact> 0.87940688E+01</totfact>
</mgrwt>
</event>
<event>
 4    1  0.1869793E-005  0.8290674E+03  0.7818608E-02  0.9518871E-01
         -2   -1    0    0    0  501 -0.00000000000E+00  0.00000000000E+00  0.52605762323E+03  0.52605762323E+03  0.25500000000E-02 0. -1.
          2   -1    0    0  501    0  0.00000000000E+00 -0.00000000000E+00 -0.32665281627E+03  0.32665281628E+03  0.25500000000E-02 0.  1.
    5000001    1    1    2    0    0 -0.21728335084E+03  0.26324294576E+03  0.22869138959E+03  0.45651906282E+03  0.19900000000E+03 0.  0.
   -5000001    1    1    2    0    0  0.21728335084E+03 -0.26324294576E+03 -0.29286582629E+02  0.39619137669E+03  0.19900000000E+03 0.  0.
<mgrwt>
<rscale>  0 0.82906744E+03</rscale>
<asrwt>0</asrwt>
<pdfrwt beam="1">  1        2 0.46664688E-01 0.82906744E+03</pdfrwt>
<pdfrwt beam="2">  1       -2 0.75151089E-01 0.82906744E+03</pdfrwt>
<totfact> 0.17354197E+02</totfact>
</mgrwt>
</event>
<event>
 4    1  0.1869793E-005  0.7237638E+03  0.7818608E-02  0.9677434E-01
          2   -1    0    0  501    0  0.00000000000E+00  0.00000000000E+00  0.29284364935E+03  0.29284364936E+03  0.25500000000E-02 0. -1.
         -2   -1    0    0    0  501 -0.00000000000E+00 -0.00000000000E+00 -0.44719597811E+03  0.44719597812E+03  0.25500000000E-02 0.  1.
    5000001    1    1    2    0    0  0.21897898251E+03 -0.18139504694E+03 -0.18195768975E+03  0.39187441699E+03  0.19900000000E+03 0.  0.
   -5000001    1    1    2    0    0 -0.21897898251E+03  0.18139504694E+03  0.27605360990E+02  0.34816521048E+03  0.19900000000E+03 0.  0.
<mgrwt>
<rscale>  0 0.72376378E+03</rscale>
<asrwt>0</asrwt>
<pdfrwt beam="1">  1        2 0.41834807E-01 0.72376378E+03</pdfrwt>
<pdfrwt beam="2">  1       -2 0.63885139E-01 0.72376378E+03</pdfrwt>
<totfact> 0.28003131E+02</totfact>
</mgrwt>
</event>
<event>
 4    1  0.1869793E-005  0.5157756E+03  0.7818608E-02  0.1009741E+00
         -2   -1    0    0    0  501 -0.00000000000E+00  0.00000000000E+00  0.10359627418E+03  0.10359627421E+03  0.25500000000E-02 0. -1.
          2   -1    0    0  501    0  0.00000000000E+00 -0.00000000000E+00 -0.64197394175E+03  0.64197394176E+03  0.25500000000E-02 0.  1.
    5000001    1    1    2    0    0  0.46185166060E+02 -0.44743912326E+02 -0.51061794545E+02  0.21527515908E+03  0.19900000000E+03 0.  0.
   -5000001    1    1    2    0    0 -0.46185166060E+02  0.44743912326E+02 -0.48731587303E+03  0.53029505689E+03  0.19900000000E+03 0.  0.
<mgrwt>
<rscale>  0 0.51577557E+03</rscale>
<asrwt>0</asrwt>
<pdfrwt beam="1">  1        2 0.91710561E-01 0.51577557E+03</pdfrwt>
<pdfrwt beam="2">  1       -2 0.14799468E-01 0.51577557E+03</pdfrwt>
<totfact> 0.17893971E+03</totfact>
</mgrwt>
</event>
<event>
 4    1  0.1869793E-005  0.9206301E+03  0.7818608E-02  0.9400154E-01
         -2   -1    0    0    0  501 -0.00000000000E+00  0.00000000000E+00  0.21119060985E+03  0.21119060987E+03  0.25500000000E-02 0. -1.
          2   -1    0    0  501    0  0.00000000000E+00 -0.00000000000E+00 -0.10033114885E+04  0.10033114885E+04  0.25500000000E-02 0.  1.
    5000001    1    1    2    0    0 -0.11538956724E+03 -0.30966296986E+03 -0.64723811357E+02  0.39114713202E+03  0.19900000000E+03 0.  0.
   -5000001    1    1    2    0    0  0.11538956724E+03  0.30966296986E+03 -0.72739706733E+03  0.82335496639E+03  0.19900000000E+03 0.  0.
<mgrwt>
<rscale>  0 0.92063014E+03</rscale>
<asrwt>0</asrwt>
<pdfrwt beam="1">  1        2 0.14333021E+00 0.92063014E+03</pdfrwt>
<pdfrwt beam="2">  1       -2 0.30170088E-01 0.92063014E+03</pdfrwt>
<totfact> 0.28328609E+02</totfact>
</mgrwt>
</event>
<event>
 4    1  0.1869793E-005  0.5011271E+03  0.7818608E-02  0.1013485E+00
          2   -1    0    0  501    0  0.00000000000E+00  0.00000000000E+00  0.26406640411E+04  0.26406640411E+04  0.25500000000E-02 0.  1.
         -2   -1    0    0    0  501 -0.00000000000E+00 -0.00000000000E+00 -0.23775112796E+02  0.23775112933E+02  0.25500000000E-02 0. -1.
    5000001    1    1    2    0    0 -0.86482671046E+02 -0.11006108174E+03  0.16269433022E+04  0.16450344078E+04  0.19900000000E+03 0.  0.
   -5000001    1    1    2    0    0  0.86482671046E+02  0.11006108174E+03  0.98994562607E+03  0.10194047463E+04  0.19900000000E+03 0.  0.
<mgrwt>
<rscale>  0 0.50112707E+03</rscale>
<asrwt>0</asrwt>
<pdfrwt beam="1">  1        2 0.37723768E+00 0.50112707E+03</pdfrwt>
<pdfrwt beam="2">  1       -2 0.33964450E-02 0.50112707E+03</pdfrwt>
<totfact> 0.14659573E+03</totfact>
</mgrwt>
</event>
<event>
 4    1  0.1869793E-005  0.4592296E+03  0.7818608E-02  0.1025005E+00
         -2   -1    0    0    0  501 -0.00000000000E+00  0.00000000000E+00  0.17102540006E+02  0.17102540196E+02  0.25500000000E-02 0. -1.
          2   -1    0    0  501    0  0.00000000000E+00 -0.00000000000E+00 -0.30827555001E+04  0.30827555001E+04  0.25500000000E-02 0.  1.
    5000001    1    1    2    0    0 -0.98688896105E+02  0.42643183728E+02 -0.12658753550E+04  0.12859235412E+04  0.19900000000E+03 0.  0.
   -5000001    1    1    2    0    0  0.98688896105E+02 -0.42643183728E+02 -0.17997776051E+04  0.18139344991E+04  0.19900000000E+03 0.  0.
<mgrwt>
<rscale>  0 0.45922957E+03</rscale>
<asrwt>0</asrwt>
<pdfrwt beam="1">  1        2 0.44039329E+00 0.45922957E+03</pdfrwt>
<pdfrwt beam="2">  1       -2 0.24432220E-02 0.45922957E+03</pdfrwt>
<totfact> 0.14099602E+03</totfact>
</mgrwt>
</event>
<event>
 4    1  0.1869793E-005  0.4503347E+03  0.7818608E-02  0.1027622E+00
          2   -1    0    0  501    0  0.00000000000E+00  0.00000000000E+00  0.14406942780E+03  0.14406942782E+03  0.25500000000E-02 0.  1.
         -2   -1    0    0    0  501 -0.00000000000E+00 -0.00000000000E+00 -0.35191605675E+03  0.35191605676E+03  0.25500000000E-02 0. -1.
    5000001    1    1    2    0    0 -0.45899617992E+02  0.47118601099E+02 -0.19456021652E+03  0.28597485091E+03  0.19900000000E+03 0.  0.
   -5000001    1    1    2    0    0  0.45899617992E+02 -0.47118601099E+02 -0.13286412437E+02  0.21001063368E+03  0.19900000000E+03 0.  0.
<mgrwt>
<rscale>  0 0.45033474E+03</rscale>
<asrwt>0</asrwt>
<pdfrwt beam="1">  1        2 0.20581347E-01 0.45033474E+03</pdfrwt>
<pdfrwt beam="2">  1       -2 0.50273722E-01 0.45033474E+03</pdfrwt>
<totfact> 0.10290440E+03</totfact>
</mgrwt>
</event>
<event>
 4    1  0.1869793E-005  0.1073989E+04  0.7818608E-02  0.9230922E-01
         -2   -1    0    0    0  501 -0.00000000000E+00  0.00000000000E+00  0.16251966012E+03  0.16251966014E+03  0.25500000000E-02 0. -1.
          2   -1    0    0  501    0  0.00000000000E+00 -0.00000000000E+00 -0.17743269519E+04  0.17743269519E+04  0.25500000000E-02 0.  1.
    5000001    1    1    2    0    0  0.43038680392E+03  0.57636575551E+02 -0.36339699249E+03  0.60017759870E+03  0.19900000000E+03 0.  0.
   -5000001    1    1    2    0    0 -0.43038680392E+03 -0.57636575551E+02 -0.12484102992E+04  0.13366690133E+04  0.19900000000E+03 0.  0.
<mgrwt>
<rscale>  0 0.10739889E+04</rscale>
<asrwt>0</asrwt>
<pdfrwt beam="1">  1        2 0.25347527E+00 0.10739889E+04</pdfrwt>
<pdfrwt beam="2">  1       -2 0.23217095E-01 0.10739889E+04</pdfrwt>
<totfact> 0.17095803E+02</totfact>
</mgrwt>
</event>
<event>
 4    1  0.1869793E-005  0.6514659E+03  0.7818608E-02  0.9804032E-01
         -2   -1    0    0    0  501 -0.00000000000E+00  0.00000000000E+00  0.34320241414E+02  0.34320241509E+02  0.25500000000E-02 0. -1.
          2   -1    0    0  501    0  0.00000000000E+00 -0.00000000000E+00 -0.30915268303E+04  0.30915268303E+04  0.25500000000E-02 0.  1.
    5000001    1    1    2    0    0 -0.19801501196E+03  0.86013134631E+00 -0.23212504592E+04  0.23381649598E+04  0.19900000000E+03 0.  0.
   -5000001    1    1    2    0    0  0.19801501196E+03 -0.86013134631E+00 -0.73595612960E+03  0.78768211195E+03  0.19900000000E+03 0.  0.
<mgrwt>
<rscale>  0 0.65146588E+03</rscale>
<asrwt>0</asrwt>
<pdfrwt beam="1">  1        2 0.44164651E+00 0.65146588E+03</pdfrwt>
<pdfrwt beam="2">  1       -2 0.49028936E-02 0.65146588E+03</pdfrwt>
<totfact> 0.47295346E+02</totfact>
</mgrwt>
</event>
<event>
 4    1  0.1869793E-005  0.1249585E+04  0.7818608E-02  0.9070528E-01
          2   -1    0    0  501    0  0.00000000000E+00  0.00000000000E+00  0.89436560578E+03  0.89436560578E+03  0.25500000000E-02 0.  1.
         -2   -1    0    0    0  501 -0.00000000000E+00 -0.00000000000E+00 -0.43647244798E+03  0.43647244799E+03  0.25500000000E-02 0. -1.
    5000001    1    1    2    0    0  0.28123758464E+03  0.47752308311E+03  0.45143731397E+03  0.74197002795E+03  0.19900000000E+03 0.  0.
   -5000001    1    1    2    0    0 -0.28123758464E+03 -0.47752308311E+03  0.64558438198E+01  0.58886802583E+03  0.19900000000E+03 0.  0.
<mgrwt>
<rscale>  0 0.12495854E+04</rscale>
<asrwt>0</asrwt>
<pdfrwt beam="1">  1        2 0.12776652E+00 0.12495854E+04</pdfrwt>
<pdfrwt beam="2">  1       -2 0.62353207E-01 0.12495854E+04</pdfrwt>
<totfact> 0.77055131E+01</totfact>
</mgrwt>
</event>
<event>
 4    1  0.1869793E-005  0.6104880E+03  0.7818608E-02  0.9883883E-01
         -2   -1    0    0    0  501 -0.00000000000E+00  0.00000000000E+00  0.38167517239E+02  0.38167517325E+02  0.25500000000E-02 0. -1.
          2   -1    0    0  501    0  0.00000000000E+00 -0.00000000000E+00 -0.24411831272E+04  0.24411831272E+04  0.25500000000E-02 0.  1.
    5000001    1    1    2    0    0 -0.21550087549E+03 -0.84319079229E+02 -0.11822158606E+04  0.12209773444E+04  0.19900000000E+03 0.  0.
   -5000001    1    1    2    0    0  0.21550087549E+03  0.84319079229E+02 -0.12207997493E+04  0.12583733001E+04  0.19900000000E+03 0.  0.
<mgrwt>
<rscale>  0 0.61048800E+03</rscale>
<asrwt>0</asrwt>
<pdfrwt beam="1">  1        2 0.34874035E+00 0.61048800E+03</pdfrwt>
<pdfrwt beam="2">  1       -2 0.54525040E-02 0.61048800E+03</pdfrwt>
<totfact> 0.88894551E+02</totfact>
</mgrwt>
</event>
<event>
 4    1  0.1869793E-005  0.6499537E+03  0.7818608E-02  0.9806866E-01
         -2   -1    0    0    0  501 -0.00000000000E+00  0.00000000000E+00  0.15270789042E+03  0.15270789044E+03  0.25500000000E-02 0. -1.
          2   -1    0    0  501    0  0.00000000000E+00 -0.00000000000E+00 -0.69158143998E+03  0.69158143999E+03  0.25500000000E-02 0.  1.
    5000001    1    1    2    0    0 -0.16612484152E+03 -0.37623655319E+02 -0.19582987419E+02  0.26267374403E+03  0.19900000000E+03 0.  0.
   -5000001    1    1    2    0    0  0.16612484152E+03  0.37623655319E+02 -0.51929056214E+03  0.58161558640E+03  0.19900000000E+03 0.  0.
<mgrwt>
<rscale>  0 0.64995367E+03</rscale>
<asrwt>0</asrwt>
<pdfrwt beam="1">  1        2 0.98797347E-01 0.64995367E+03</pdfrwt>
<pdfrwt beam="2">  1       -2 0.21815413E-01 0.64995367E+03</pdfrwt>
<totfact> 0.83871459E+02</totfact>
</mgrwt>
</event>
<event>
 4    1  0.1869793E-005  0.8155498E+03  0.7818608E-02  0.9537778E-01
          2   -1    0    0  501    0  0.00000000000E+00  0.00000000000E+00  0.93301846526E+03  0.93301846526E+03  0.25500000000E-02 0.  1.
         -2   -1    0    0    0  501 -0.00000000000E+00 -0.00000000000E+00 -0.17821767537E+03  0.17821767539E+03  0.25500000000E-02 0. -1.
    5000001    1    1    2    0    0 -0.19170080798E+03  0.29821471116E+03  0.42044886562E+03  0.58485849770E+03  0.19900000000E+03 0.  0.
   -5000001    1    1    2    0    0  0.19170080798E+03 -0.29821471116E+03  0.33435192426E+03  0.52637764294E+03  0.19900000000E+03 0.  0.
<mgrwt>
<rscale>  0 0.81554983E+03</rscale>
<asrwt>0</asrwt>
<pdfrwt beam="1">  1        2 0.13328836E+00 0.81554983E+03</pdfrwt>
<pdfrwt beam="2">  1       -2 0.25459667E-01 0.81554983E+03</pdfrwt>
<totfact> 0.43013010E+02</totfact>
</mgrwt>
</event>
<event>
 4    1  0.1869793E-005  0.8125434E+03  0.7818608E-02  0.9542036E-01
         -2   -1    0    0    0  501 -0.00000000000E+00  0.00000000000E+00  0.53290832168E+02  0.53290832229E+02  0.25500000000E-02 0. -1.
          2   -1    0    0  501    0  0.00000000000E+00 -0.00000000000E+00 -0.30972813452E+04  0.30972813452E+04  0.25500000000E-02 0.  1.
    5000001    1    1    2    0    0  0.28680409218E+03  0.96998003514E+02 -0.22347500886E+04  0.22639289208E+04  0.19900000000E+03 0.  0.
   -5000001    1    1    2    0    0 -0.28680409218E+03 -0.96998003514E+02 -0.80924042440E+03  0.88664325659E+03  0.19900000000E+03 0.  0.
<mgrwt>
<rscale>  0 0.81254342E+03</rscale>
<asrwt>0</asrwt>
<pdfrwt beam="1">  1        2 0.44246865E+00 0.81254342E+03</pdfrwt>
<pdfrwt beam="2">  1       -2 0.76129780E-02 0.81254342E+03</pdfrwt>
<totfact> 0.23112143E+02</totfact>
</mgrwt>
</event>
<event>
 4    1  0.1869793E-005  0.4049905E+03  0.7818608E-02  0.1042065E+00
          2   -1    0    0  501    0  0.00000000000E+00  0.00000000000E+00  0.23944651080E+03  0.23944651082E+03  0.25500000000E-02 0.  1.
         -2   -1    0    0    0  501 -0.00000000000E+00 -0.00000000000E+00 -0.17124625098E+03  0.17124625100E+03  0.25500000000E-02 0. -1.
    5000001    1    1    2    0    0  0.27084673916E+02 -0.17638166715E+02  0.53304376242E+02  0.20853546704E+03  0.19900000000E+03 0.  0.
   -5000001    1    1    2    0    0 -0.27084673916E+02  0.17638166715E+02  0.14895883578E+02  0.20215729478E+03  0.19900000000E+03 0.  0.
<mgrwt>
<rscale>  0 0.40499046E+03</rscale>
<asrwt>0</asrwt>
<pdfrwt beam="1">  1        2 0.34206645E-01 0.40499046E+03</pdfrwt>
<pdfrwt beam="2">  1       -2 0.24463750E-01 0.40499046E+03</pdfrwt>
<totfact> 0.22580570E+03</totfact>
</mgrwt>
</event>
<event>
 4    1  0.1869793E-005  0.6221905E+03  0.7818608E-02  0.9860408E-01
         -2   -1    0    0    0  501 -0.00000000000E+00  0.00000000000E+00  0.20276819268E+03  0.20276819269E+03  0.25500000000E-02 0. -1.
          2   -1    0    0  501    0  0.00000000000E+00 -0.00000000000E+00 -0.47729502676E+03  0.47729502677E+03  0.25500000000E-02 0.  1.
    5000001    1    1    2    0    0 -0.51152651255E+02  0.21569340427E+03 -0.23526368178E+03  0.37959220005E+03  0.19900000000E+03 0.  0.
   -5000001    1    1    2    0    0  0.51152651255E+02 -0.21569340427E+03 -0.39263152310E+02  0.30047101941E+03  0.19900000000E+03 0.  0.
<mgrwt>
<rscale>  0 0.62219049E+03</rscale>
<asrwt>0</asrwt>
<pdfrwt beam="1">  1        2 0.68185004E-01 0.62219049E+03</pdfrwt>
<pdfrwt beam="2">  1       -2 0.28966885E-01 0.62219049E+03</pdfrwt>
<totfact> 0.77776726E+02</totfact>
</mgrwt>
</event>
<event>
 4    1  0.1869793E-005  0.4586030E+03  0.7818608E-02  0.1025187E+00
          2   -1    0    0  501    0  0.00000000000E+00  0.00000000000E+00  0.18423451047E+04  0.18423451047E+04  0.25500000000E-02 0.  1.
         -2   -1    0    0    0  501 -0.00000000000E+00 -0.00000000000E+00 -0.28539272185E+02  0.28539272299E+02  0.25500000000E-02 0. -1.
    5000001    1    1    2    0    0  0.93542497746E+02  0.32768318530E+02  0.11360194765E+04  0.11575686643E+04  0.19900000000E+03 0.  0.
   -5000001    1    1    2    0    0 -0.93542497746E+02 -0.32768318530E+02  0.67778635603E+03  0.71331571271E+03  0.19900000000E+03 0.  0.
<mgrwt>
<rscale>  0 0.45860305E+03</rscale>
<asrwt>0</asrwt>
<pdfrwt beam="1">  1        2 0.26319222E+00 0.45860305E+03</pdfrwt>
<pdfrwt beam="2">  1       -2 0.40770379E-02 0.45860305E+03</pdfrwt>
<totfact> 0.28045401E+03</totfact>
</mgrwt>
</event>
<event>
 4    1  0.1869793E-005  0.1000721E+04  0.7818608E-02  0.9307755E-01
          2   -1    0    0  501    0  0.00000000000E+00  0.00000000000E+00  0.17910452528E+04  0.17910452528E+04  0.25500000000E-02 0.  1.
         -2   -1    0    0    0  501 -0.00000000000E+00 -0.00000000000E+00 -0.13978456644E+03  0.13978456646E+03  0.25500000000E-02 0. -1.
    5000001    1    1    2    0    0 -0.44625494507E+03 -0.10759405321E+03  0.83776095893E+03  0.97578910662E+03  0.19900000000E+03 0.  0.
   -5000001    1    1    2    0    0  0.44625494507E+03  0.10759405321E+03  0.81349972747E+03  0.95504071268E+03  0.19900000000E+03 0.  0.
<mgrwt>
<rscale>  0 0.10007207E+04</rscale>
<asrwt>0</asrwt>
<pdfrwt beam="1">  1        2 0.25586361E+00 0.10007207E+04</pdfrwt>
<pdfrwt beam="2">  1       -2 0.19969224E-01 0.10007207E+04</pdfrwt>
<totfact> 0.21999997E+02</totfact>
</mgrwt>
</event>
<event>
 4    1  0.1869793E-005  0.5599141E+03  0.7818608E-02  0.9992249E-01
          2   -1    0    0  501    0  0.00000000000E+00  0.00000000000E+00  0.19313028730E+04  0.19313028730E+04  0.25500000000E-02 0.  1.
         -2   -1    0    0    0  501 -0.00000000000E+00 -0.00000000000E+00 -0.40581910194E+02  0.40581910274E+02  0.25500000000E-02 0. -1.
    5000001    1    1    2    0    0  0.80419726657E+02 -0.15892329595E+03  0.64963695682E+03  0.70239100371E+03  0.19900000000E+03 0.  0.
   -5000001    1    1    2    0    0 -0.80419726657E+02  0.15892329595E+03  0.12410840060E+04  0.12694937796E+04  0.19900000000E+03 0.  0.
<mgrwt>
<rscale>  0 0.55991414E+03</rscale>
<asrwt>0</asrwt>
<pdfrwt beam="1">  1        2 0.27590045E+00 0.55991414E+03</pdfrwt>
<pdfrwt beam="2">  1       -2 0.57974150E-02 0.55991414E+03</pdfrwt>
<totfact> 0.14645778E+03</totfact>
</mgrwt>
</event>
<event>
 4    1  0.1869793E-005  0.8031039E+03  0.7818608E-02  0.9555535E-01
         -2   -1    0    0    0  501 -0.00000000000E+00  0.00000000000E+00  0.99238155223E+02  0.99238155256E+02  0.25500000000E-02 0. -1.
          2   -1    0    0  501    0  0.00000000000E+00 -0.00000000000E+00 -0.16248181752E+04  0.16248181752E+04  0.25500000000E-02 0.  1.
    5000001    1    1    2    0    0 -0.25928048092E+03  0.14822429000E+03 -0.11494785654E+04  0.12042004734E+04  0.19900000000E+03 0.  0.
   -5000001    1    1    2    0    0  0.25928048092E+03 -0.14822429000E+03 -0.37610145456E+03  0.51985585700E+03  0.19900000000E+03 0.  0.
<mgrwt>
<rscale>  0 0.80310387E+03</rscale>
<asrwt>0</asrwt>
<pdfrwt beam="1">  1        2 0.23211687E+00 0.80310387E+03</pdfrwt>
<pdfrwt beam="2">  1       -2 0.14176880E-01 0.80310387E+03</pdfrwt>
<totfact> 0.48834452E+02</totfact>
</mgrwt>
</event>
<event>
 4    1  0.1869793E-005  0.4797526E+03  0.7818608E-02  0.1019203E+00
         -2   -1    0    0    0  501 -0.00000000000E+00  0.00000000000E+00  0.20021953503E+03  0.20021953505E+03  0.25500000000E-02 0. -1.
          2   -1    0    0  501    0  0.00000000000E+00 -0.00000000000E+00 -0.28738773699E+03  0.28738773700E+03  0.25500000000E-02 0.  1.
    5000001    1    1    2    0    0  0.11193912020E+03  0.13210957926E+02  0.29951986914E+02  0.23065779319E+03  0.19900000000E+03 0.  0.
   -5000001    1    1    2    0    0 -0.11193912020E+03 -0.13210957926E+02 -0.11712018887E+03  0.25694947885E+03  0.19900000000E+03 0.  0.
<mgrwt>
<rscale>  0 0.47975260E+03</rscale>
<asrwt>0</asrwt>
<pdfrwt beam="1">  1        2 0.41055391E-01 0.47975260E+03</pdfrwt>
<pdfrwt beam="2">  1       -2 0.28602791E-01 0.47975260E+03</pdfrwt>
<totfact> 0.13969795E+03</totfact>
</mgrwt>
</event>
<event>
 4    1  0.1869793E-005  0.4698820E+03  0.7818608E-02  0.1021954E+00
         -2   -1    0    0    0  501 -0.00000000000E+00  0.00000000000E+00  0.41715653694E+02  0.41715653772E+02  0.25500000000E-02 0. -1.
          2   -1    0    0  501    0  0.00000000000E+00 -0.00000000000E+00 -0.13231790036E+04  0.13231790036E+04  0.25500000000E-02 0.  1.
    5000001    1    1    2    0    0  0.36370498047E+02 -0.11846223507E+03 -0.68574729664E+03  0.72471130053E+03  0.19900000000E+03 0.  0.
   -5000001    1    1    2    0    0 -0.36370498047E+02  0.11846223507E+03 -0.59571605329E+03  0.64018335687E+03  0.19900000000E+03 0.  0.
<mgrwt>
<rscale>  0 0.46988202E+03</rscale>
<asrwt>0</asrwt>
<pdfrwt beam="1">  1        2 0.18902555E+00 0.46988202E+03</pdfrwt>
<pdfrwt beam="2">  1       -2 0.59593799E-02 0.46988202E+03</pdfrwt>
<totfact> 0.28824264E+03</totfact>
</mgrwt>
</event>
<event>
 4    1  0.1869793E-005  0.5563462E+03  0.7818608E-02  0.1000036E+00
          2   -1    0    0  501    0  0.00000000000E+00  0.00000000000E+00  0.11530718172E+04  0.11530718172E+04  0.25500000000E-02 0.  1.
         -2   -1    0    0    0  501 -0.00000000000E+00 -0.00000000000E+00 -0.67107941260E+02  0.67107941308E+02  0.25500000000E-02 0. -1.
    5000001    1    1    2    0    0  0.13911162665E+02 -0.18627486118E+03  0.66083327818E+03  0.71497794785E+03  0.19900000000E+03 0.  0.
   -5000001    1    1    2    0    0 -0.13911162665E+02  0.18627486118E+03  0.42513059779E+03  0.50520181069E+03  0.19900000000E+03 0.  0.
<mgrwt>
<rscale>  0 0.55634621E+03</rscale>
<asrwt>0</asrwt>
<pdfrwt beam="1">  1        2 0.16472454E+00 0.55634621E+03</pdfrwt>
<pdfrwt beam="2">  1       -2 0.95868488E-02 0.55634621E+03</pdfrwt>
<totfact> 0.16832201E+03</totfact>
</mgrwt>
</event>
<event>
 4    1  0.1869793E-005  0.5084287E+03  0.7818608E-02  0.1011602E+00
         -2   -1    0    0    0  501 -0.00000000000E+00  0.00000000000E+00  0.48309784126E+02  0.48309784193E+02  0.25500000000E-02 0. -1.
          2   -1    0    0  501    0  0.00000000000E+00 -0.00000000000E+00 -0.13377192973E+04  0.13377192973E+04  0.25500000000E-02 0.  1.
    5000001    1    1    2    0    0  0.10241217871E+03 -0.60174780222E+02 -0.92950978119E+03  0.95796591372E+03  0.19900000000E+03 0.  0.
   -5000001    1    1    2    0    0 -0.10241217871E+03  0.60174780222E+02 -0.35989973198E+03  0.42806316777E+03  0.19900000000E+03 0.  0.
<mgrwt>
<rscale>  0 0.50842868E+03</rscale>
<asrwt>0</asrwt>
<pdfrwt beam="1">  1        2 0.19110273E+00 0.50842868E+03</pdfrwt>
<pdfrwt beam="2">  1       -2 0.69013986E-02 0.50842868E+03</pdfrwt>
<totfact> 0.22494319E+03</totfact>
</mgrwt>
</event>
<event>
 4    1  0.1869793E-005  0.7065917E+03  0.7818608E-02  0.9706025E-01
         -2   -1    0    0    0  501 -0.00000000000E+00  0.00000000000E+00  0.30548808170E+03  0.30548808171E+03  0.25500000000E-02 0. -1.
          2   -1    0    0  501    0  0.00000000000E+00 -0.00000000000E+00 -0.40858536608E+03  0.40858536608E+03  0.25500000000E-02 0.  1.
    5000001    1    1    2    0    0  0.21273353995E+03  0.19986362113E+03 -0.47514681135E+02  0.35645430422E+03  0.19900000000E+03 0.  0.
   -5000001    1    1    2    0    0 -0.21273353995E+03 -0.19986362113E+03 -0.55582603238E+02  0.35761914358E+03  0.19900000000E+03 0.  0.
<mgrwt>
<rscale>  0 0.70659171E+03</rscale>
<asrwt>0</asrwt>
<pdfrwt beam="1">  1        2 0.58369338E-01 0.70659171E+03</pdfrwt>
<pdfrwt beam="2">  1       -2 0.43641155E-01 0.70659171E+03</pdfrwt>
<totfact> 0.42345413E+02</totfact>
</mgrwt>
</event>
<event>
 4    1  0.1869793E-005  0.6223355E+03  0.7818608E-02  0.9860121E-01
          2   -1    0    0  501    0  0.00000000000E+00  0.00000000000E+00  0.63209204765E+03  0.63209204765E+03  0.25500000000E-02 0.  1.
         -2   -1    0    0    0  501 -0.00000000000E+00 -0.00000000000E+00 -0.15318236646E+03  0.15318236648E+03  0.25500000000E-02 0. -1.
    5000001    1    1    2    0    0 -0.53921659952E+02 -0.17807741264E+03  0.42916977246E+03  0.50833729343E+03  0.19900000000E+03 0.  0.
   -5000001    1    1    2    0    0  0.53921659952E+02  0.17807741264E+03  0.49739908729E+02  0.27693712071E+03  0.19900000000E+03 0.  0.
<mgrwt>
<rscale>  0 0.62233546E+03</rscale>
<asrwt>0</asrwt>
<pdfrwt beam="1">  1        2 0.90298864E-01 0.62233546E+03</pdfrwt>
<pdfrwt beam="2">  1       -2 0.21883195E-01 0.62233546E+03</pdfrwt>
<totfact> 0.93029874E+02</totfact>
</mgrwt>
</event>
<event>
 4    1  0.1869793E-005  0.5248445E+03  0.7818608E-02  0.1007490E+00
          2   -1    0    0  501    0  0.00000000000E+00  0.00000000000E+00  0.27193357803E+04  0.27193357803E+04  0.25500000000E-02 0.  1.
         -2   -1    0    0    0  501 -0.00000000000E+00 -0.00000000000E+00 -0.25324361730E+02  0.25324361858E+02  0.25500000000E-02 0. -1.
    5000001    1    1    2    0    0  0.57479725947E+02  0.15268779116E+03  0.10779564408E+04  0.11082457168E+04  0.19900000000E+03 0.  0.
   -5000001    1    1    2    0    0 -0.57479725947E+02 -0.15268779116E+03  0.16160549777E+04  0.16364144254E+04  0.19900000000E+03 0.  0.
<mgrwt>
<rscale>  0 0.52484452E+03</rscale>
<asrwt>0</asrwt>
<pdfrwt beam="1">  1        2 0.38847650E+00 0.52484452E+03</pdfrwt>
<pdfrwt beam="2">  1       -2 0.36177663E-02 0.52484452E+03</pdfrwt>
<totfact> 0.12098392E+03</totfact>
</mgrwt>
</event>
<event>
 4    1  0.1869793E-005  0.7196304E+03  0.7818608E-02  0.9684238E-01
          2   -1    0    0  501    0  0.00000000000E+00  0.00000000000E+00  0.12317623088E+04  0.12317623088E+04  0.25500000000E-02 0.  1.
         -2   -1    0    0    0  501 -0.00000000000E+00 -0.00000000000E+00 -0.10510710903E+03  0.10510710906E+03  0.25500000000E-02 0. -1.
    5000001    1    1    2    0    0  0.22034124290E+03 -0.19258683092E+03  0.44256137266E+03  0.56665820328E+03  0.19900000000E+03 0.  0.
   -5000001    1    1    2    0    0 -0.22034124290E+03  0.19258683092E+03  0.68409382708E+03  0.77021121455E+03  0.19900000000E+03 0.  0.
<mgrwt>
<rscale>  0 0.71963039E+03</rscale>
<asrwt>0</asrwt>
<pdfrwt beam="1">  1        2 0.17596604E+00 0.71963039E+03</pdfrwt>
<pdfrwt beam="2">  1       -2 0.15015302E-01 0.71963039E+03</pdfrwt>
<totfact> 0.72166909E+02</totfact>
</mgrwt>
</event>
<event>
 4    1  0.1869793E-005  0.5412619E+03  0.7818608E-02  0.1003537E+00
         -2   -1    0    0    0  501 -0.00000000000E+00  0.00000000000E+00  0.11566786043E+04  0.11566786043E+04  0.25500000000E-02 0. -1.
          2   -1    0    0  501    0  0.00000000000E+00 -0.00000000000E+00 -0.63320186058E+02  0.63320186109E+02  0.25500000000E-02 0.  1.
    5000001    1    1    2    0    0  0.12537792011E+03 -0.13269261489E+03  0.50679240344E+03  0.57425298701E+03  0.19900000000E+03 0.  0.
   -5000001    1    1    2    0    0 -0.12537792011E+03  0.13269261489E+03  0.58656601478E+03  0.64574580339E+03  0.19900000000E+03 0.  0.
<mgrwt>
<rscale>  0 0.54126188E+03</rscale>
<asrwt>0</asrwt>
<pdfrwt beam="1">  1        2 0.90457418E-02 0.54126188E+03</pdfrwt>
<pdfrwt beam="2">  1       -2 0.16523978E+00 0.54126188E+03</pdfrwt>
<totfact> 0.17769477E+02</totfact>
</mgrwt>
</event>
<event>
 4    1  0.1869793E-005  0.5796033E+03  0.7818608E-02  0.9948650E-01
         -2   -1    0    0    0  501 -0.00000000000E+00  0.00000000000E+00  0.12175943101E+03  0.12175943104E+03  0.25500000000E-02 0. -1.
          2   -1    0    0  501    0  0.00000000000E+00 -0.00000000000E+00 -0.68976184034E+03  0.68976184035E+03  0.25500000000E-02 0.  1.
    5000001    1    1    2    0    0  0.30952870156E+02 -0.20172025436E+03 -0.21077994216E+03  0.35451138939E+03  0.19900000000E+03 0.  0.
   -5000001    1    1    2    0    0 -0.30952870156E+02  0.20172025436E+03 -0.35722246717E+03  0.45700988200E+03  0.19900000000E+03 0.  0.
<mgrwt>
<rscale>  0 0.57960334E+03</rscale>
<asrwt>0</asrwt>
<pdfrwt beam="1">  1        2 0.98537403E-01 0.57960334E+03</pdfrwt>
<pdfrwt beam="2">  1       -2 0.17394205E-01 0.57960334E+03</pdfrwt>
<totfact> 0.12483454E+03</totfact>
</mgrwt>
</event>
<event>
 4    1  0.1869793E-005  0.4772281E+03  0.7818608E-02  0.1019900E+00
         -2   -1    0    0    0  501 -0.00000000000E+00  0.00000000000E+00  0.48242467149E+02  0.48242467216E+02  0.25500000000E-02 0. -1.
          2   -1    0    0  501    0  0.00000000000E+00 -0.00000000000E+00 -0.11802189791E+04  0.11802189791E+04  0.25500000000E-02 0.  1.
    5000001    1    1    2    0    0 -0.48379772492E+02  0.12234259477E+03 -0.55252304144E+03  0.60182308381E+03  0.19900000000E+03 0.  0.
   -5000001    1    1    2    0    0  0.48379772492E+02 -0.12234259477E+03 -0.57945347048E+03  0.62663836248E+03  0.19900000000E+03 0.  0.
<mgrwt>
<rscale>  0 0.47722814E+03</rscale>
<asrwt>0</asrwt>
<pdfrwt beam="1">  1        2 0.16860269E+00 0.47722814E+03</pdfrwt>
<pdfrwt beam="2">  1       -2 0.68917817E-02 0.47722814E+03</pdfrwt>
<totfact> 0.27492815E+03</totfact>
</mgrwt>
</event>
<event>
 4    1  0.1869793E-005  0.8568221E+03  0.7818608E-02  0.9481226E-01
         -2   -1    0    0    0  501 -0.00000000000E+00  0.00000000000E+00  0.12726422451E+03  0.12726422454E+03  0.25500000000E-02 0. -1.
          2   -1    0    0  501    0  0.00000000000E+00 -0.00000000000E+00 -0.14421650377E+04  0.14421650377E+04  0.25500000000E-02 0.  1.
    5000001    1    1    2    0    0  0.26654457438E+03 -0.26993371146E+03 -0.64832933617E+03  0.77707280666E+03  0.19900000000E+03 0.  0.
   -5000001    1    1    2    0    0 -0.26654457438E+03  0.26993371146E+03 -0.66657147705E+03  0.79235645560E+03  0.19900000000E+03 0.  0.
<mgrwt>
<rscale>  0 0.85682207E+03</rscale>
<asrwt>0</asrwt>
<pdfrwt beam="1">  1        2 0.20602357E+00 0.85682207E+03</pdfrwt>
<pdfrwt beam="2">  1       -2 0.18180604E-01 0.85682207E+03</pdfrwt>
<totfact> 0.39717551E+02</totfact>
</mgrwt>
</event>
<event>
 4    1  0.1869793E-005  0.4735869E+03  0.7818608E-02  0.1020913E+00
          2   -1    0    0  501    0  0.00000000000E+00  0.00000000000E+00  0.28763368195E+04  0.28763368195E+04  0.25500000000E-02 0.  1.
         -2   -1    0    0    0  501 -0.00000000000E+00 -0.00000000000E+00 -0.19493936363E+02  0.19493936530E+02  0.25500000000E-02 0. -1.
    5000001    1    1    2    0    0  0.10050331075E+03  0.65786586432E+02  0.17046896192E+04  0.17204640328E+04  0.19900000000E+03 0.  0.
   -5000001    1    1    2    0    0 -0.10050331075E+03 -0.65786586432E+02  0.11521532640E+04  0.11753667232E+04  0.19900000000E+03 0.  0.
<mgrwt>
<rscale>  0 0.47358685E+03</rscale>
<asrwt>0</asrwt>
<pdfrwt beam="1">  1        2 0.41090472E+00 0.47358685E+03</pdfrwt>
<pdfrwt beam="2">  1       -2 0.27848517E-02 0.47358685E+03</pdfrwt>
<totfact> 0.14936280E+03</totfact>
</mgrwt>
</event>
<event>
 4    1  0.1869793E-005  0.7060871E+03  0.7818608E-02  0.9706879E-01
          2   -1    0    0  501    0  0.00000000000E+00  0.00000000000E+00  0.22375944875E+04  0.22375944875E+04  0.25500000000E-02 0.  1.
         -2   -1    0    0    0  501 -0.00000000000E+00 -0.00000000000E+00 -0.55702565834E+02  0.55702565893E+02  0.25500000000E-02 0. -1.
    5000001    1    1    2    0    0 -0.44603620857E+02  0.18054600142E+03  0.36141623095E+03  0.45255832068E+03  0.19900000000E+03 0.  0.
   -5000001    1    1    2    0    0  0.44603620857E+02 -0.18054600142E+03  0.18204756907E+04  0.18407387327E+04  0.19900000000E+03 0.  0.
<mgrwt>
<rscale>  0 0.70608712E+03</rscale>
<asrwt>0</asrwt>
<pdfrwt beam="1">  1        2 0.31965635E+00 0.70608712E+03</pdfrwt>
<pdfrwt beam="2">  1       -2 0.79575096E-02 0.70608712E+03</pdfrwt>
<totfact> 0.61729048E+02</totfact>
</mgrwt>
</event>
<event>
 4    1  0.1869793E-005  0.4246934E+03  0.7818608E-02  0.1035550E+00
         -2   -1    0    0    0  501 -0.00000000000E+00  0.00000000000E+00  0.30395089434E+02  0.30395089541E+02  0.25500000000E-02 0. -1.
          2   -1    0    0  501    0  0.00000000000E+00 -0.00000000000E+00 -0.14835003240E+04  0.14835003241E+04  0.25500000000E-02 0.  1.
    5000001    1    1    2    0    0  0.11455897673E+02 -0.70723741059E+02 -0.65919623425E+03  0.69229600634E+03  0.19900000000E+03 0.  0.
   -5000001    1    1    2    0    0 -0.11455897673E+02  0.70723741059E+02 -0.79390900036E+03  0.82159940725E+03  0.19900000000E+03 0.  0.
<mgrwt>
<rscale>  0 0.42469342E+03</rscale>
<asrwt>0</asrwt>
<pdfrwt beam="1">  1        2 0.21192857E+00 0.42469342E+03</pdfrwt>
<pdfrwt beam="2">  1       -2 0.43421566E-02 0.42469342E+03</pdfrwt>
<totfact> 0.38693432E+03</totfact>
</mgrwt>
</event>
<event>
 4    1  0.1869793E-005  0.6272008E+03  0.7818608E-02  0.9850527E-01
          2   -1    0    0  501    0  0.00000000000E+00  0.00000000000E+00  0.26459088939E+04  0.26459088939E+04  0.25500000000E-02 0.  1.
         -2   -1    0    0    0  501 -0.00000000000E+00 -0.00000000000E+00 -0.37168781620E+02  0.37168781708E+02  0.25500000000E-02 0. -1.
    5000001    1    1    2    0    0  0.14358592301E+03  0.12812979479E+03  0.67405593080E+03  0.72868824572E+03  0.19900000000E+03 0.  0.
   -5000001    1    1    2    0    0 -0.14358592301E+03 -0.12812979479E+03  0.19346841814E+04  0.19543894299E+04  0.19900000000E+03 0.  0.
<mgrwt>
<rscale>  0 0.62720080E+03</rscale>
<asrwt>0</asrwt>
<pdfrwt beam="1">  1        2 0.37798704E+00 0.62720080E+03</pdfrwt>
<pdfrwt beam="2">  1       -2 0.53098252E-02 0.62720080E+03</pdfrwt>
<totfact> 0.72556821E+02</totfact>
</mgrwt>
</event>
<event>
 4    1  0.1869793E-005  0.9365321E+03  0.7818608E-02  0.9381032E-01
          2   -1    0    0  501    0  0.00000000000E+00  0.00000000000E+00  0.82301624251E+03  0.82301624252E+03  0.25500000000E-02 0.  1.
         -2   -1    0    0    0  501 -0.00000000000E+00 -0.00000000000E+00 -0.26642622014E+03  0.26642622015E+03  0.25500000000E-02 0. -1.
    5000001    1    1    2    0    0 -0.29535180026E+03  0.22616311285E+03  0.51467042855E+03  0.66548410165E+03  0.19900000000E+03 0.  0.
   -5000001    1    1    2    0    0  0.29535180026E+03 -0.22616311285E+03  0.41919593823E+02  0.42395836102E+03  0.19900000000E+03 0.  0.
<mgrwt>
<rscale>  0 0.93653213E+03</rscale>
<asrwt>0</asrwt>
<pdfrwt beam="1">  1        2 0.11757375E+00 0.93653213E+03</pdfrwt>
<pdfrwt beam="2">  1       -2 0.38060889E-01 0.93653213E+03</pdfrwt>
<totfact> 0.23859919E+02</totfact>
</mgrwt>
</event>
<event>
 4    1  0.1869793E-005  0.9766413E+03  0.7818608E-02  0.9334542E-01
          2   -1    0    0  501    0  0.00000000000E+00  0.00000000000E+00  0.11316696703E+04  0.11316696703E+04  0.25500000000E-02 0.  1.
         -2   -1    0    0    0  501 -0.00000000000E+00 -0.00000000000E+00 -0.21071258761E+03  0.21071258763E+03  0.25500000000E-02 0. -1.
    5000001    1    1    2    0    0  0.43867764040E+03 -0.78985150244E+02  0.44207278895E+03  0.65856364679E+03  0.19900000000E+03 0.  0.
   -5000001    1    1    2    0    0 -0.43867764040E+03  0.78985150244E+02  0.47888429374E+03  0.68381861114E+03  0.19900000000E+03 0.  0.
<mgrwt>
<rscale>  0 0.97664127E+03</rscale>
<asrwt>0</asrwt>
<pdfrwt beam="1">  1        2 0.16166709E+00 0.97664127E+03</pdfrwt>
<pdfrwt beam="2">  1       -2 0.30101799E-01 0.97664127E+03</pdfrwt>
<totfact> 0.23767764E+02</totfact>
</mgrwt>
</event>
<event>
 4    1  0.1869793E-005  0.4114863E+03  0.7818608E-02  0.1039873E+00
         -2   -1    0    0    0  501 -0.00000000000E+00  0.00000000000E+00  0.40677484967E+02  0.40677485047E+02  0.25500000000E-02 0. -1.
          2   -1    0    0  501    0  0.00000000000E+00 -0.00000000000E+00 -0.10406309988E+04  0.10406309988E+04  0.25500000000E-02 0.  1.
    5000001    1    1    2    0    0 -0.47348399746E+02  0.16320779728E+02 -0.53904313434E+03  0.57678136195E+03  0.19900000000E+03 0.  0.
   -5000001    1    1    2    0    0  0.47348399746E+02 -0.16320779728E+02 -0.46091037946E+03  0.50452712187E+03  0.19900000000E+03 0.  0.
<mgrwt>
<rscale>  0 0.41148634E+03</rscale>
<asrwt>0</asrwt>
<pdfrwt beam="1">  1        2 0.14866155E+00 0.41148634E+03</pdfrwt>
<pdfrwt beam="2">  1       -2 0.58110700E-02 0.41148634E+03</pdfrwt>
<totfact> 0.43094713E+03</totfact>
</mgrwt>
</event>
<event>
 4    1  0.1869793E-005  0.8553147E+03  0.7818608E-02  0.9483231E-01
          2   -1    0    0  501    0  0.00000000000E+00  0.00000000000E+00  0.70242694468E+03  0.70242694468E+03  0.25500000000E-02 0.  1.
         -2   -1    0    0    0  501 -0.00000000000E+00 -0.00000000000E+00 -0.26036988810E+03  0.26036988812E+03  0.25500000000E-02 0. -1.
    5000001    1    1    2    0    0 -0.24979842073E+03  0.27326933725E+03  0.30976656445E+03  0.52214146180E+03  0.19900000000E+03 0.  0.
   -5000001    1    1    2    0    0  0.24979842073E+03 -0.27326933725E+03  0.13229049213E+03  0.44065537100E+03  0.19900000000E+03 0.  0.
<mgrwt>
<rscale>  0 0.85531474E+03</rscale>
<asrwt>0</asrwt>
<pdfrwt beam="1">  1        2 0.10034671E+00 0.85531474E+03</pdfrwt>
<pdfrwt beam="2">  1       -2 0.37195699E-01 0.85531474E+03</pdfrwt>
<totfact> 0.30613671E+02</totfact>
</mgrwt>
</event>
<event>
 4    1  0.1869793E-005  0.6185954E+03  0.7818608E-02  0.9867560E-01
          2   -1    0    0  501    0  0.00000000000E+00  0.00000000000E+00  0.30039231281E+03  0.30039231282E+03  0.25500000000E-02 0.  1.
         -2   -1    0    0    0  501 -0.00000000000E+00 -0.00000000000E+00 -0.31846710409E+03  0.31846710410E+03  0.25500000000E-02 0. -1.
    5000001    1    1    2    0    0  0.17976807004E+03  0.28814643716E+01 -0.16317848550E+03  0.31393164856E+03  0.19900000000E+03 0.  0.
   -5000001    1    1    2    0    0 -0.17976807004E+03 -0.28814643716E+01  0.14510369422E+03  0.30492776836E+03  0.19900000000E+03 0.  0.
<mgrwt>
<rscale>  0 0.61859541E+03</rscale>
<asrwt>0</asrwt>
<pdfrwt beam="1">  1        2 0.42913188E-01 0.61859541E+03</pdfrwt>
<pdfrwt beam="2">  1       -2 0.45495301E-01 0.61859541E+03</pdfrwt>
<totfact> 0.54955104E+02</totfact>
</mgrwt>
</event>
<event>
 4    1  0.1869793E-005  0.7997565E+03  0.7818608E-02  0.9560370E-01
          2   -1    0    0  501    0  0.00000000000E+00  0.00000000000E+00  0.19765822748E+04  0.19765822748E+04  0.25500000000E-02 0.  1.
         -2   -1    0    0    0  501 -0.00000000000E+00 -0.00000000000E+00 -0.80898530850E+02  0.80898530891E+02  0.25500000000E-02 0. -1.
    5000001    1    1    2    0    0  0.27323479156E+03 -0.19942035032E+03  0.75063851869E+03  0.84704481179E+03  0.19900000000E+03 0.  0.
   -5000001    1    1    2    0    0 -0.27323479156E+03  0.19942035032E+03  0.11450452253E+04  0.12104359939E+04  0.19900000000E+03 0.  0.
<mgrwt>
<rscale>  0 0.79975647E+03</rscale>
<asrwt>0</asrwt>
<pdfrwt beam="1">  1        2 0.28236885E+00 0.79975647E+03</pdfrwt>
<pdfrwt beam="2">  1       -2 0.11556935E-01 0.79975647E+03</pdfrwt>
<totfact> 0.45390640E+02</totfact>
</mgrwt>
</event>
<event>
 4    1  0.1869793E-005  0.4257756E+03  0.7818608E-02  0.1035203E+00
          2   -1    0    0  501    0  0.00000000000E+00  0.00000000000E+00  0.51847019414E+03  0.51847019414E+03  0.25500000000E-02 0.  1.
         -2   -1    0    0    0  501 -0.00000000000E+00 -0.00000000000E+00 -0.87413349504E+02  0.87413349541E+02  0.25500000000E-02 0. -1.
    5000001    1    1    2    0    0 -0.50970128444E+02 -0.38847001721E+02  0.15837413373E+03  0.26227925913E+03  0.19900000000E+03 0.  0.
   -5000001    1    1    2    0    0  0.50970128444E+02  0.38847001721E+02  0.27268271091E+03  0.34360428455E+03  0.19900000000E+03 0.  0.
<mgrwt>
<rscale>  0 0.42577560E+03</rscale>
<asrwt>0</asrwt>
<pdfrwt beam="1">  1        2 0.74067171E-01 0.42577560E+03</pdfrwt>
<pdfrwt beam="2">  1       -2 0.12487621E-01 0.42577560E+03</pdfrwt>
<totfact> 0.30322620E+03</totfact>
</mgrwt>
</event>
<event>
 4    1  0.1869793E-005  0.5050971E+03  0.7818608E-02  0.1012457E+00
          2   -1    0    0  501    0  0.00000000000E+00  0.00000000000E+00  0.84436422462E+03  0.84436422462E+03  0.25500000000E-02 0.  1.
         -2   -1    0    0    0  501 -0.00000000000E+00 -0.00000000000E+00 -0.75537030972E+02  0.75537031015E+02  0.25500000000E-02 0. -1.
    5000001    1    1    2    0    0  0.86265812236E+02 -0.11624826307E+03  0.48782900588E+03  0.54638227278E+03  0.19900000000E+03 0.  0.
   -5000001    1    1    2    0    0 -0.86265812236E+02  0.11624826307E+03  0.28099818776E+03  0.37351898286E+03  0.19900000000E+03 0.  0.
<mgrwt>
<rscale>  0 0.50509709E+03</rscale>
<asrwt>0</asrwt>
<pdfrwt beam="1">  1        2 0.12062347E+00 0.50509709E+03</pdfrwt>
<pdfrwt beam="2">  1       -2 0.10791004E-01 0.50509709E+03</pdfrwt>
<totfact> 0.21459162E+03</totfact>
</mgrwt>
</event>
<event>
 4    1  0.1869793E-005  0.5947691E+03  0.7818608E-02  0.9916318E-01
          2   -1    0    0  501    0  0.00000000000E+00  0.00000000000E+00  0.13096066766E+04  0.13096066766E+04  0.25500000000E-02 0.  1.
         -2   -1    0    0    0  501 -0.00000000000E+00 -0.00000000000E+00 -0.67529874827E+02  0.67529874875E+02  0.25500000000E-02 0. -1.
    5000001    1    1    2    0    0  0.17284234795E+03  0.36474699211E+02  0.92848919399E+03  0.96586648367E+03  0.19900000000E+03 0.  0.
   -5000001    1    1    2    0    0 -0.17284234795E+03 -0.36474699211E+02  0.31358760783E+03  0.41127006785E+03  0.19900000000E+03 0.  0.
<mgrwt>
<rscale>  0 0.59476911E+03</rscale>
<asrwt>0</asrwt>
<pdfrwt beam="1">  1        2 0.18708667E+00 0.59476911E+03</pdfrwt>
<pdfrwt beam="2">  1       -2 0.96471251E-02 0.59476911E+03</pdfrwt>
<totfact> 0.13632464E+03</totfact>
</mgrwt>
</event>
<event>
 4    1  0.1869793E-005  0.6217034E+03  0.7818608E-02  0.9861374E-01
         -2   -1    0    0    0  501 -0.00000000000E+00  0.00000000000E+00  0.96694215466E+02  0.96694215500E+02  0.25500000000E-02 0. -1.
          2   -1    0    0  501    0  0.00000000000E+00 -0.00000000000E+00 -0.99932311577E+03  0.99932311577E+03  0.25500000000E-02 0.  1.
    5000001    1    1    2    0    0 -0.89052343569E+02  0.13369545051E+03 -0.13980492753E+03  0.29146391053E+03  0.19900000000E+03 0.  0.
   -5000001    1    1    2    0    0  0.89052343569E+02 -0.13369545051E+03 -0.76282397278E+03  0.80455342074E+03  0.19900000000E+03 0.  0.
<mgrwt>
<rscale>  0 0.62170335E+03</rscale>
<asrwt>0</asrwt>
<pdfrwt beam="1">  1        2 0.14276044E+00 0.62170335E+03</pdfrwt>
<pdfrwt beam="2">  1       -2 0.13813460E-01 0.62170335E+03</pdfrwt>
<totfact> 0.11370350E+03</totfact>
</mgrwt>
</event>
<event>
 4    1  0.1869793E-005  0.5740704E+03  0.7818608E-02  0.9960712E-01
         -2   -1    0    0    0  501 -0.00000000000E+00  0.00000000000E+00  0.33477465551E+02  0.33477465648E+02  0.25500000000E-02 0. -1.
          2   -1    0    0  501    0  0.00000000000E+00 -0.00000000000E+00 -0.24610346902E+04  0.24610346902E+04  0.25500000000E-02 0.  1.
    5000001    1    1    2    0    0  0.20206050422E+03  0.30189787354E+02 -0.13544708765E+04  0.13841720362E+04  0.19900000000E+03 0.  0.
   -5000001    1    1    2    0    0 -0.20206050422E+03 -0.30189787354E+02 -0.10730863482E+04  0.11103401197E+04  0.19900000000E+03 0.  0.
<mgrwt>
<rscale>  0 0.57407039E+03</rscale>
<asrwt>0</asrwt>
<pdfrwt beam="1">  1        2 0.35157627E+00 0.57407039E+03</pdfrwt>
<pdfrwt beam="2">  1       -2 0.47824966E-02 0.57407039E+03</pdfrwt>
<totfact> 0.10672698E+03</totfact>
</mgrwt>
</event>
<event>
 4    1  0.1869793E-005  0.8242777E+03  0.7818608E-02  0.9525526E-01
         -2   -1    0    0    0  501 -0.00000000000E+00  0.00000000000E+00  0.79691814063E+02  0.79691814103E+02  0.25500000000E-02 0. -1.
          2   -1    0    0  501    0  0.00000000000E+00 -0.00000000000E+00 -0.21314412066E+04  0.21314412066E+04  0.25500000000E-02 0.  1.
    5000001    1    1    2    0    0 -0.19382717325E+02  0.33347609715E+03 -0.13924612402E+04  0.14457286407E+04  0.19900000000E+03 0.  0.
   -5000001    1    1    2    0    0  0.19382717325E+02 -0.33347609715E+03 -0.65928815229E+03  0.76540437996E+03  0.19900000000E+03 0.  0.
<mgrwt>
<rscale>  0 0.82427766E+03</rscale>
<asrwt>0</asrwt>
<pdfrwt beam="1">  1        2 0.30449157E+00 0.82427766E+03</pdfrwt>
<pdfrwt beam="2">  1       -2 0.11384546E-01 0.82427766E+03</pdfrwt>
<totfact> 0.38767320E+02</totfact>
</mgrwt>
</event>
<event>
 4    1  0.1869793E-005  0.4532524E+03  0.7818608E-02  0.1026757E+00
          2   -1    0    0  501    0  0.00000000000E+00  0.00000000000E+00  0.62275561830E+03  0.62275561830E+03  0.25500000000E-02 0.  1.
         -2   -1    0    0    0  501 -0.00000000000E+00 -0.00000000000E+00 -0.82471254768E+02  0.82471254807E+02  0.25500000000E-02 0. -1.
    5000001    1    1    2    0    0 -0.59331119703E+02  0.90737729266E+02  0.26669097509E+03  0.34996941791E+03  0.19900000000E+03 0.  0.
   -5000001    1    1    2    0    0  0.59331119703E+02 -0.90737729266E+02  0.27359338845E+03  0.35525745521E+03  0.19900000000E+03 0.  0.
<mgrwt>
<rscale>  0 0.45325241E+03</rscale>
<asrwt>0</asrwt>
<pdfrwt beam="1">  1        2 0.88965091E-01 0.45325241E+03</pdfrwt>
<pdfrwt beam="2">  1       -2 0.11781607E-01 0.45325241E+03</pdfrwt>
<totfact> 0.27025764E+03</totfact>
</mgrwt>
</event>
<event>
 4    1  0.1869793E-005  0.6167018E+03  0.7818608E-02  0.9871348E-01
         -2   -1    0    0    0  501 -0.00000000000E+00  0.00000000000E+00  0.73611135228E+02  0.73611135272E+02  0.25500000000E-02 0. -1.
          2   -1    0    0  501    0  0.00000000000E+00 -0.00000000000E+00 -0.12916561823E+04  0.12916561823E+04  0.25500000000E-02 0.  1.
    5000001    1    1    2    0    0  0.14342441591E+03 -0.31710794918E+01 -0.10225904470E+04  0.10516048884E+04  0.19900000000E+03 0.  0.
   -5000001    1    1    2    0    0 -0.14342441591E+03  0.31710794918E+01 -0.19545459999E+03  0.31366242918E+03  0.19900000000E+03 0.  0.
<mgrwt>
<rscale>  0 0.61670180E+03</rscale>
<asrwt>0</asrwt>
<pdfrwt beam="1">  1        2 0.18452230E+00 0.61670180E+03</pdfrwt>
<pdfrwt beam="2">  1       -2 0.10515877E-01 0.61670180E+03</pdfrwt>
<totfact> 0.12114420E+03</totfact>
</mgrwt>
</event>
<event>
 4    1  0.1869793E-005  0.4063354E+03  0.7818608E-02  0.1041608E+00
          2   -1    0    0  501    0  0.00000000000E+00  0.00000000000E+00  0.68962818406E+03  0.68962818407E+03  0.25500000000E-02 0.  1.
         -2   -1    0    0    0  501 -0.00000000000E+00 -0.00000000000E+00 -0.59854152747E+02  0.59854152801E+02  0.25500000000E-02 0. -1.
    5000001    1    1    2    0    0 -0.21679736744E+02  0.33202997783E+02  0.29610752930E+03  0.35896116636E+03  0.19900000000E+03 0.  0.
   -5000001    1    1    2    0    0  0.21679736744E+02 -0.33202997783E+02  0.33366650202E+03  0.39052117051E+03  0.19900000000E+03 0.  0.
<mgrwt>
<rscale>  0 0.40633538E+03</rscale>
<asrwt>0</asrwt>
<pdfrwt beam="1">  1        2 0.98518317E-01 0.40633538E+03</pdfrwt>
<pdfrwt beam="2">  1       -2 0.85505928E-02 0.40633538E+03</pdfrwt>
<totfact> 0.40045918E+03</totfact>
</mgrwt>
</event>
<event>
 4    1  0.1869793E-005  0.5763696E+03  0.7818608E-02  0.9955682E-01
         -2   -1    0    0    0  501 -0.00000000000E+00  0.00000000000E+00  0.54500312214E+03  0.54500312215E+03  0.25500000000E-02 0. -1.
          2   -1    0    0  501    0  0.00000000000E+00 -0.00000000000E+00 -0.15238533103E+03  0.15238533105E+03  0.25500000000E-02 0.  1.
    5000001    1    1    2    0    0  0.99617316768E+02 -0.53290060146E+02  0.40826411217E+03  0.46802139438E+03  0.19900000000E+03 0.  0.
   -5000001    1    1    2    0    0 -0.99617316768E+02  0.53290060146E+02 -0.15646321051E+02  0.22936705882E+03  0.19900000000E+03 0.  0.
<mgrwt>
<rscale>  0 0.57636961E+03</rscale>
<asrwt>0</asrwt>
<pdfrwt beam="1">  1        2 0.21769333E-01 0.57636961E+03</pdfrwt>
<pdfrwt beam="2">  1       -2 0.77857588E-01 0.57636961E+03</pdfrwt>
<totfact> 0.38172248E+02</totfact>
</mgrwt>
</event>
<event>
 4    1  0.1869793E-005  0.7794542E+03  0.7818608E-02  0.9590242E-01
         -2   -1    0    0    0  501 -0.00000000000E+00  0.00000000000E+00  0.32280415012E+03  0.32280415013E+03  0.25500000000E-02 0. -1.
          2   -1    0    0  501    0  0.00000000000E+00 -0.00000000000E+00 -0.47052436096E+03  0.47052436096E+03  0.25500000000E-02 0.  1.
    5000001    1    1    2    0    0 -0.33072991608E+03  0.51259196560E+02 -0.90782353340E+02  0.39981523020E+03  0.19900000000E+03 0.  0.
   -5000001    1    1    2    0    0  0.33072991608E+03 -0.51259196560E+02 -0.56937857495E+02  0.39351328089E+03  0.19900000000E+03 0.  0.
<mgrwt>
<rscale>  0 0.77945421E+03</rscale>
<asrwt>0</asrwt>
<pdfrwt beam="1">  1        2 0.67217766E-01 0.77945421E+03</pdfrwt>
<pdfrwt beam="2">  1       -2 0.46114879E-01 0.77945421E+03</pdfrwt>
<totfact> 0.32295978E+02</totfact>
</mgrwt>
</event>
<event>
 4    1  0.1869793E-005  0.7283243E+03  0.7818608E-02  0.9669984E-01
          2   -1    0    0  501    0  0.00000000000E+00  0.00000000000E+00  0.15145683061E+04  0.15145683061E+04  0.25500000000E-02 0.  1.
         -2   -1    0    0    0  501 -0.00000000000E+00 -0.00000000000E+00 -0.87558983583E+02  0.87558983620E+02  0.25500000000E-02 0. -1.
    5000001    1    1    2    0    0  0.24604690786E+03 -0.17843291405E+03  0.76896596455E+03  0.85046283888E+03  0.19900000000E+03 0.  0.
   -5000001    1    1    2    0    0 -0.24604690786E+03  0.17843291405E+03  0.65804335795E+03  0.75166445082E+03  0.19900000000E+03 0.  0.
<mgrwt>
<rscale>  0 0.72832427E+03</rscale>
<asrwt>0</asrwt>
<pdfrwt beam="1">  1        2 0.21636691E+00 0.72832427E+03</pdfrwt>
<pdfrwt beam="2">  1       -2 0.12508426E-01 0.72832427E+03</pdfrwt>
<totfact> 0.68962015E+02</totfact>
</mgrwt>
</event>
<event>
 4    1  0.1869793E-005  0.4144001E+03  0.7818608E-02  0.1038904E+00
          2   -1    0    0  501    0  0.00000000000E+00  0.00000000000E+00  0.19102279493E+04  0.19102279493E+04  0.25500000000E-02 0.  1.
         -2   -1    0    0    0  501 -0.00000000000E+00 -0.00000000000E+00 -0.22474734358E+02  0.22474734502E+02  0.25500000000E-02 0. -1.
    5000001    1    1    2    0    0 -0.28707810011E+02 -0.49485170725E+02  0.97937875387E+03  0.10010278038E+04  0.19900000000E+03 0.  0.
   -5000001    1    1    2    0    0  0.28707810011E+02  0.49485170725E+02  0.90837446111E+03  0.93167488003E+03  0.19900000000E+03 0.  0.
<mgrwt>
<rscale>  0 0.41440012E+03</rscale>
<asrwt>0</asrwt>
<pdfrwt beam="1">  1        2 0.27288979E+00 0.41440012E+03</pdfrwt>
<pdfrwt beam="2">  1       -2 0.32106753E-02 0.41440012E+03</pdfrwt>
<totfact> 0.37328133E+03</totfact>
</mgrwt>
</event>
<event>
 4    1  0.1869793E-005  0.6788930E+03  0.7818608E-02  0.9754025E-01
          2   -1    0    0  501    0  0.00000000000E+00  0.00000000000E+00  0.10848673263E+04  0.10848673263E+04  0.25500000000E-02 0.  1.
         -2   -1    0    0    0  501 -0.00000000000E+00 -0.00000000000E+00 -0.10621014804E+03  0.10621014807E+03  0.25500000000E-02 0. -1.
    5000001    1    1    2    0    0  0.25705298619E+03 -0.91145644134E+00  0.31791469670E+03  0.45469530769E+03  0.19900000000E+03 0.  0.
   -5000001    1    1    2    0    0 -0.25705298619E+03  0.91145644134E+00  0.66074248156E+03  0.73638216668E+03  0.19900000000E+03 0.  0.
<mgrwt>
<rscale>  0 0.67889298E+03</rscale>
<asrwt>0</asrwt>
<pdfrwt beam="1">  1        2 0.15498105E+00 0.67889298E+03</pdfrwt>
<pdfrwt beam="2">  1       -2 0.15172878E-01 0.67889298E+03</pdfrwt>
<totfact> 0.86171794E+02</totfact>
</mgrwt>
</event>
<event>
 4    1  0.1869793E-005  0.7978665E+03  0.7818608E-02  0.9563110E-01
         -2   -1    0    0    0  501 -0.00000000000E+00  0.00000000000E+00  0.42486665979E+03  0.42486665980E+03  0.25500000000E-02 0. -1.
          2   -1    0    0  501    0  0.00000000000E+00 -0.00000000000E+00 -0.37458275428E+03  0.37458275429E+03  0.25500000000E-02 0.  1.
    5000001    1    1    2    0    0  0.24767335736E+03  0.22660346605E+03 -0.57820268645E+02  0.39450653510E+03  0.19900000000E+03 0.  0.
   -5000001    1    1    2    0    0 -0.24767335736E+03 -0.22660346605E+03  0.10810417416E+03  0.40494287899E+03  0.19900000000E+03 0.  0.
<mgrwt>
<rscale>  0 0.79786646E+03</rscale>
<asrwt>0</asrwt>
<pdfrwt beam="1">  1        2 0.53511822E-01 0.79786646E+03</pdfrwt>
<pdfrwt beam="2">  1       -2 0.60695237E-01 0.79786646E+03</pdfrwt>
<totfact> 0.23694841E+02</totfact>
</mgrwt>
</event>
<event>
 4    1  0.1869793E-005  0.9761205E+03  0.7818608E-02  0.9335130E-01
          2   -1    0    0  501    0  0.00000000000E+00  0.00000000000E+00  0.35305131588E+04  0.35305131588E+04  0.25500000000E-02 0.  1.
         -2   -1    0    0    0  501 -0.00000000000E+00 -0.00000000000E+00 -0.67469742215E+02  0.67469742263E+02  0.25500000000E-02 0. -1.
    5000001    1    1    2    0    0  0.38548761855E+03 -0.18583603836E+03  0.12731205346E+04  0.13577822480E+04  0.19900000000E+03 0.  0.
   -5000001    1    1    2    0    0 -0.38548761855E+03  0.18583603836E+03  0.21899228820E+04  0.22402006532E+04  0.19900000000E+03 0.  0.
<mgrwt>
<rscale>  0 0.97612051E+03</rscale>
<asrwt>0</asrwt>
<pdfrwt beam="1">  1        2 0.50435915E+00 0.97612051E+03</pdfrwt>
<pdfrwt beam="2">  1       -2 0.96385323E-02 0.97612051E+03</pdfrwt>
<totfact> 0.87094660E+01</totfact>
</mgrwt>
</event>
<event>
 4    1  0.1869793E-005  0.8920246E+03  0.7818608E-02  0.9435606E-01
         -2   -1    0    0    0  501 -0.00000000000E+00  0.00000000000E+00  0.15409151451E+03  0.15409151453E+03  0.25500000000E-02 0. -1.
          2   -1    0    0  501    0  0.00000000000E+00 -0.00000000000E+00 -0.12909665576E+04  0.12909665576E+04  0.25500000000E-02 0.  1.
    5000001    1    1    2    0    0 -0.32907399889E+03  0.56757097231E+02 -0.21420355980E+03  0.44384144677E+03  0.19900000000E+03 0.  0.
   -5000001    1    1    2    0    0  0.32907399889E+03 -0.56757097231E+02 -0.92267148330E+03  0.10012166254E+04  0.19900000000E+03 0.  0.
<mgrwt>
<rscale>  0 0.89202465E+03</rscale>
<asrwt>0</asrwt>
<pdfrwt beam="1">  1        2 0.18442379E+00 0.89202465E+03</pdfrwt>
<pdfrwt beam="2">  1       -2 0.22013074E-01 0.89202465E+03</pdfrwt>
<totfact> 0.34238189E+02</totfact>
</mgrwt>
</event>
<event>
 4    1  0.1869793E-005  0.8926805E+03  0.7818608E-02  0.9434778E-01
          2   -1    0    0  501    0  0.00000000000E+00  0.00000000000E+00  0.23925597902E+04  0.23925597902E+04  0.25500000000E-02 0.  1.
         -2   -1    0    0    0  501 -0.00000000000E+00 -0.00000000000E+00 -0.83266299837E+02  0.83266299876E+02  0.25500000000E-02 0. -1.
    5000001    1    1    2    0    0  0.72111141968E+02 -0.33284351473E+03  0.17339894193E+04  0.17782871332E+04  0.19900000000E+03 0.  0.
   -5000001    1    1    2    0    0 -0.72111141968E+02  0.33284351473E+03  0.57530407109E+03  0.69753895684E+03  0.19900000000E+03 0.  0.
<mgrwt>
<rscale>  0 0.89268046E+03</rscale>
<asrwt>0</asrwt>
<pdfrwt beam="1">  1        2 0.34179422E+00 0.89268046E+03</pdfrwt>
<pdfrwt beam="2">  1       -2 0.11895187E-01 0.89268046E+03</pdfrwt>
<totfact> 0.26384661E+02</totfact>
</mgrwt>
</event>
<event>
 4    1  0.1869793E-005  0.5940283E+03  0.7818608E-02  0.9917873E-01
         -2   -1    0    0    0  501 -0.00000000000E+00  0.00000000000E+00  0.23914618032E+03  0.23914618033E+03  0.25500000000E-02 0. -1.
          2   -1    0    0  501    0  0.00000000000E+00 -0.00000000000E+00 -0.36888485403E+03  0.36888485404E+03  0.25500000000E-02 0.  1.
    5000001    1    1    2    0    0  0.86447804823E+02 -0.20283694090E+03 -0.65480290866E+02  0.30414587955E+03  0.19900000000E+03 0.  0.
   -5000001    1    1    2    0    0 -0.86447804823E+02  0.20283694090E+03 -0.64258382846E+02  0.30388515482E+03  0.19900000000E+03 0.  0.
<mgrwt>
<rscale>  0 0.59402830E+03</rscale>
<asrwt>0</asrwt>
<pdfrwt beam="1">  1        2 0.52697836E-01 0.59402830E+03</pdfrwt>
<pdfrwt beam="2">  1       -2 0.34163740E-01 0.59402830E+03</pdfrwt>
<totfact> 0.76310080E+02</totfact>
</mgrwt>
</event>
<event>
 4    1  0.1869793E-005  0.5268616E+03  0.7818608E-02  0.1006996E+00
          2   -1    0    0  501    0  0.00000000000E+00  0.00000000000E+00  0.34480390342E+02  0.34480390436E+02  0.25500000000E-02 0.  1.
         -2   -1    0    0    0  501 -0.00000000000E+00 -0.00000000000E+00 -0.20126161607E+04  0.20126161607E+04  0.25500000000E-02 0. -1.
    5000001    1    1    2    0    0 -0.93182647568E+02  0.13163779740E+03 -0.75008007760E+03  0.79261127820E+03  0.19900000000E+03 0.  0.
   -5000001    1    1    2    0    0  0.93182647568E+02 -0.13163779740E+03 -0.12280556928E+04  0.12544852730E+04  0.19900000000E+03 0.  0.
<mgrwt>
<rscale>  0 0.52686162E+03</rscale>
<asrwt>0</asrwt>
<pdfrwt beam="1">  1        2 0.49257713E-02 0.52686162E+03</pdfrwt>
<pdfrwt beam="2">  1       -2 0.28751652E+00 0.52686162E+03</pdfrwt>
<totfact> 0.67656365E+01</totfact>
</mgrwt>
</event>
<event>
 4    1  0.1869793E-005  0.7721919E+03  0.7818608E-02  0.9601164E-01
          2   -1    0    0  501    0  0.00000000000E+00  0.00000000000E+00  0.43142778227E+03  0.43142778228E+03  0.25500000000E-02 0.  1.
         -2   -1    0    0    0  501 -0.00000000000E+00 -0.00000000000E+00 -0.34552733680E+03  0.34552733681E+03  0.25500000000E-02 0. -1.
    5000001    1    1    2    0    0  0.13681535847E+03  0.28956652375E+03 -0.40639779271E+02  0.37923581799E+03  0.19900000000E+03 0.  0.
   -5000001    1    1    2    0    0 -0.13681535847E+03 -0.28956652375E+03  0.12654022474E+03  0.39771930110E+03  0.19900000000E+03 0.  0.
<mgrwt>
<rscale>  0 0.77219193E+03</rscale>
<asrwt>0</asrwt>
<pdfrwt beam="1">  1        2 0.61632541E-01 0.77219193E+03</pdfrwt>
<pdfrwt beam="2">  1       -2 0.49361048E-01 0.77219193E+03</pdfrwt>
<totfact> 0.31067608E+02</totfact>
</mgrwt>
</event>
<event>
 4    1  0.1869793E-005  0.5880275E+03  0.7818608E-02  0.9930561E-01
          2   -1    0    0  501    0  0.00000000000E+00  0.00000000000E+00  0.27021157466E+04  0.27021157466E+04  0.25500000000E-02 0.  1.
         -2   -1    0    0    0  501 -0.00000000000E+00 -0.00000000000E+00 -0.31991258652E+02  0.31991258753E+02  0.25500000000E-02 0. -1.
    5000001    1    1    2    0    0 -0.11827358380E+03  0.17858010905E+03  0.14793945493E+04  0.15080081990E+04  0.19900000000E+03 0.  0.
   -5000001    1    1    2    0    0  0.11827358380E+03 -0.17858010905E+03  0.11907299387E+04  0.12260988063E+04  0.19900000000E+03 0.  0.
<mgrwt>
<rscale>  0 0.58802750E+03</rscale>
<asrwt>0</asrwt>
<pdfrwt beam="1">  1        2 0.38601661E+00 0.58802750E+03</pdfrwt>
<pdfrwt beam="2">  1       -2 0.45701789E-02 0.58802750E+03</pdfrwt>
<totfact> 0.85850758E+02</totfact>
</mgrwt>
</event>
